 Entering Gaussian System, Link 0=g09
 Initial command:
 /home/k0335/k033513/app/g09/l1.exe "/home/k0335/k033513/app/g09/scratch/Gau-1675317.inp" -scrdir="/home/k0335/k033513/app/g09/scratch/"
 Default is to use a total of  36 processors:
                               36 via shared-memory
                                1 via Linda
 Entering Link 1 = /home/k0335/k033513/app/g09/l1.exe PID=   1675318.
  
 Copyright (c) 1988,1990,1992,1993,1995,1998,2003,2009,2013,
            Gaussian, Inc.  All Rights Reserved.
  
 This is part of the Gaussian(R) 09 program.  It is based on
 the Gaussian(R) 03 system (copyright 2003, Gaussian, Inc.),
 the Gaussian(R) 98 system (copyright 1998, Gaussian, Inc.),
 the Gaussian(R) 94 system (copyright 1995, Gaussian, Inc.),
 the Gaussian 92(TM) system (copyright 1992, Gaussian, Inc.),
 the Gaussian 90(TM) system (copyright 1990, Gaussian, Inc.),
 the Gaussian 88(TM) system (copyright 1988, Gaussian, Inc.),
 the Gaussian 86(TM) system (copyright 1986, Carnegie Mellon
 University), and the Gaussian 82(TM) system (copyright 1983,
 Carnegie Mellon University). Gaussian is a federally registered
 trademark of Gaussian, Inc.
  
 This software contains proprietary and confidential information,
 including trade secrets, belonging to Gaussian, Inc.
  
 This software is provided under written license and may be
 used, copied, transmitted, or stored only in accord with that
 written license.
  
 The following legend is applicable only to US Government
 contracts under FAR:
  
                    RESTRICTED RIGHTS LEGEND
  
 Use, reproduction and disclosure by the US Government is
 subject to restrictions as set forth in subparagraphs (a)
 and (c) of the Commercial Computer Software - Restricted
 Rights clause in FAR 52.227-19.
  
 Gaussian, Inc.
 340 Quinnipiac St., Bldg. 40, Wallingford CT 06492
  
  
 ---------------------------------------------------------------
 Warning -- This program may not be used in any manner that
 competes with the business of Gaussian, Inc. or will provide
 assistance to any competitor of Gaussian, Inc.  The licensee
 of this program is prohibited from giving any competitor of
 Gaussian, Inc. access to this program.  By using this program,
 the user acknowledges that Gaussian, Inc. is engaged in the
 business of creating and licensing software in the field of
 computational chemistry and represents and warrants to the
 licensee that it is not a competitor of Gaussian, Inc. and that
 it will not use this program in any manner prohibited above.
 ---------------------------------------------------------------
  

 Cite this work as:
 Gaussian 09, Revision D.01,
 M. J. Frisch, G. W. Trucks, H. B. Schlegel, G. E. Scuseria, 
 M. A. Robb, J. R. Cheeseman, G. Scalmani, V. Barone, B. Mennucci, 
 G. A. Petersson, H. Nakatsuji, M. Caricato, X. Li, H. P. Hratchian, 
 A. F. Izmaylov, J. Bloino, G. Zheng, J. L. Sonnenberg, M. Hada, 
 M. Ehara, K. Toyota, R. Fukuda, J. Hasegawa, M. Ishida, T. Nakajima, 
 Y. Honda, O. Kitao, H. Nakai, T. Vreven, J. A. Montgomery, Jr., 
 J. E. Peralta, F. Ogliaro, M. Bearpark, J. J. Heyd, E. Brothers, 
 K. N. Kudin, V. N. Staroverov, T. Keith, R. Kobayashi, J. Normand, 
 K. Raghavachari, A. Rendell, J. C. Burant, S. S. Iyengar, J. Tomasi, 
 M. Cossi, N. Rega, J. M. Millam, M. Klene, J. E. Knox, J. B. Cross, 
 V. Bakken, C. Adamo, J. Jaramillo, R. Gomperts, R. E. Stratmann, 
 O. Yazyev, A. J. Austin, R. Cammi, C. Pomelli, J. W. Ochterski, 
 R. L. Martin, K. Morokuma, V. G. Zakrzewski, G. A. Voth, 
 P. Salvador, J. J. Dannenberg, S. Dapprich, A. D. Daniels, 
 O. Farkas, J. B. Foresman, J. V. Ortiz, J. Cioslowski, 
 and D. J. Fox, Gaussian, Inc., Wallingford CT, 2013.
 
 ******************************************
 Gaussian 09:  ES64L-G09RevD.01 24-Apr-2013
                 3-Feb-2025 
 ******************************************
 %nprocshared=24
 Will use up to   24 processors via shared memory.
 %mem=40GB
 %rwf=cytop/S0/S0_neu.rwf
 %nosave
 %chk=cytop/S0/S0_neu.chk
 ----------------------------------------------------------------------
 #p CAM-B3LYP/6-31G(d,p) SCRF=(PCM,Solvent=Generic,Read) NoSymm out=wfn
 ----------------------------------------------------------------------
 1/38=1,40=2/1;
 2/12=2,15=1,17=6,18=5,40=1/2;
 3/5=1,6=6,7=101,11=2,16=1,25=1,30=1,70=2203,72=-2,74=-40/1,2,3;
 4//1;
 5/5=2,38=5/2;
 6/7=2,8=2,9=2,10=2,28=1/1;
 99/5=1,6=100,9=1/99;
 Leave Link    1 at Mon Feb  3 21:34:47 2025, MaxMem=  5368709120 cpu:         1.1
 (Enter /home/k0335/k033513/app/g09/l101.exe)
 ------------
 Title S0_neu
 ------------
 Symbolic Z-matrix:
 Charge =  0 Multiplicity = 1
 F                    -0.14261  -0.06756   1.35737 
 C                    -0.43595  -0.14167   0.02813 
 C                    -1.07899   1.14735  -0.44278 
 F                    -0.16507   2.15058  -0.32623 
 C                    -2.34552   1.51949   0.32418 
 F                    -2.8241    2.72416  -0.06633 
 F                    -3.33594   0.62245   0.12686 
 F                    -2.12268   1.58835   1.65541 
 F                    -1.35236   1.08071  -1.77469 
 C                     0.84346  -0.52951  -0.72672 
 O                     0.81325  -1.96964  -0.9403 
 C                    -0.29327  -2.44414  -0.19154 
 F                     0.15938  -2.69348   1.05547 
 F                    -0.73188  -3.60105  -0.71653 
 C                    -1.31238  -1.33601  -0.2138 
 F                    -1.9091   -1.2549   -1.42666 
 F                    -2.28594  -1.46363   0.70404 
 C                     2.18571  -0.20865  -0.04438 
 F                     3.19256  -0.71226  -0.82722 
 C                     2.44777   1.26215   0.21312 
 F                     1.5806    1.76792   1.12021 
 F                     2.33913   2.00007  -0.91313 
 F                     3.69014   1.46941   0.71132 
 F                     2.26434  -0.90636   1.12854 
 F                     0.81945  -0.00379  -1.9762 
 
 NAtoms=     25 NQM=       25 NQMF=       0 NMMI=      0 NMMIF=      0
                NMic=       0 NMicF=      0.
                    Isotopes and Nuclear Properties:
 (Nuclear quadrupole moments (NQMom) in fm**2, nuclear magnetic moments (NMagM)
  in nuclear magnetons)

  Atom         1           2           3           4           5           6           7           8           9          10
 IAtWgt=          19          12          12          19          12          19          19          19          19          12
 AtmWgt=  18.9984033  12.0000000  12.0000000  18.9984033  12.0000000  18.9984033  18.9984033  18.9984033  18.9984033  12.0000000
 NucSpn=           1           0           0           1           0           1           1           1           1           0
 AtZEff=   0.0000000   0.0000000   0.0000000   0.0000000   0.0000000   0.0000000   0.0000000   0.0000000   0.0000000   0.0000000
 NQMom=    0.0000000   0.0000000   0.0000000   0.0000000   0.0000000   0.0000000   0.0000000   0.0000000   0.0000000   0.0000000
 NMagM=    2.6288670   0.0000000   0.0000000   2.6288670   0.0000000   2.6288670   2.6288670   2.6288670   2.6288670   0.0000000
 AtZNuc=   9.0000000   6.0000000   6.0000000   9.0000000   6.0000000   9.0000000   9.0000000   9.0000000   9.0000000   6.0000000

  Atom        11          12          13          14          15          16          17          18          19          20
 IAtWgt=          16          12          19          19          12          19          19          12          19          12
 AtmWgt=  15.9949146  12.0000000  18.9984033  18.9984033  12.0000000  18.9984033  18.9984033  12.0000000  18.9984033  12.0000000
 NucSpn=           0           0           1           1           0           1           1           0           1           0
 AtZEff=   0.0000000   0.0000000   0.0000000   0.0000000   0.0000000   0.0000000   0.0000000   0.0000000   0.0000000   0.0000000
 NQMom=    0.0000000   0.0000000   0.0000000   0.0000000   0.0000000   0.0000000   0.0000000   0.0000000   0.0000000   0.0000000
 NMagM=    0.0000000   0.0000000   2.6288670   2.6288670   0.0000000   2.6288670   2.6288670   0.0000000   2.6288670   0.0000000
 AtZNuc=   8.0000000   6.0000000   9.0000000   9.0000000   6.0000000   9.0000000   9.0000000   6.0000000   9.0000000   6.0000000

  Atom        21          22          23          24          25
 IAtWgt=          19          19          19          19          19
 AtmWgt=  18.9984033  18.9984033  18.9984033  18.9984033  18.9984033
 NucSpn=           1           1           1           1           1
 AtZEff=   0.0000000   0.0000000   0.0000000   0.0000000   0.0000000
 NQMom=    0.0000000   0.0000000   0.0000000   0.0000000   0.0000000
 NMagM=    2.6288670   2.6288670   2.6288670   2.6288670   2.6288670
 AtZNuc=   9.0000000   9.0000000   9.0000000   9.0000000   9.0000000
 Leave Link  101 at Mon Feb  3 21:34:47 2025, MaxMem=  5368709120 cpu:         0.7
 (Enter /home/k0335/k033513/app/g09/l202.exe)
                          Input orientation:                          
 ---------------------------------------------------------------------
 Center     Atomic      Atomic             Coordinates (Angstroms)
 Number     Number       Type             X           Y           Z
 ---------------------------------------------------------------------
      1          9           0       -0.142608   -0.067562    1.357365
      2          6           0       -0.435954   -0.141669    0.028128
      3          6           0       -1.078992    1.147348   -0.442778
      4          9           0       -0.165069    2.150578   -0.326229
      5          6           0       -2.345518    1.519488    0.324177
      6          9           0       -2.824099    2.724160   -0.066332
      7          9           0       -3.335937    0.622451    0.126864
      8          9           0       -2.122680    1.588351    1.655414
      9          9           0       -1.352356    1.080713   -1.774689
     10          6           0        0.843461   -0.529506   -0.726716
     11          8           0        0.813247   -1.969639   -0.940299
     12          6           0       -0.293270   -2.444138   -0.191541
     13          9           0        0.159377   -2.693475    1.055475
     14          9           0       -0.731883   -3.601048   -0.716531
     15          6           0       -1.312375   -1.336011   -0.213799
     16          9           0       -1.909098   -1.254899   -1.426662
     17          9           0       -2.285942   -1.463627    0.704035
     18          6           0        2.185709   -0.208649   -0.044383
     19          9           0        3.192563   -0.712261   -0.827217
     20          6           0        2.447771    1.262153    0.213117
     21          9           0        1.580597    1.767918    1.120214
     22          9           0        2.339133    2.000068   -0.913134
     23          9           0        3.690139    1.469409    0.711320
     24          9           0        2.264337   -0.906364    1.128540
     25          9           0        0.819447   -0.003790   -1.976203
 ---------------------------------------------------------------------
                    Distance matrix (angstroms):
                    1          2          3          4          5
     1  F    0.000000
     2  C    1.363237   0.000000
     3  C    2.365023   1.515525   0.000000
     4  F    2.784805   2.335240   1.362097   0.000000
     5  C    2.904999   2.548239   1.526695   2.361284   0.000000
     6  F    4.124442   3.731640   2.381900   2.732578   1.353799
     7  F    3.491074   3.000588   2.386170   3.548925   1.350754
     8  F    2.598378   2.913087   2.384571   2.841698   1.351514
     9  F    3.548491   2.363083   1.361306   2.156919   2.363077
    10  C    2.351408   1.535288   2.566766   2.891431   3.933489
    11  O    3.132222   2.416574   3.680177   4.279062   4.873469
    12  C    2.840761   2.317321   3.685003   4.598477   4.493108
    13  F    2.660404   2.814529   4.304677   5.047695   4.955639
    14  F    4.139301   3.550971   4.768930   5.792652   5.468709
    15  C    2.333640   1.501031   2.504790   3.672227   3.083939
    16  F    3.504435   2.350712   2.725416   3.981189   3.309550
    17  F    2.640022   2.372104   3.096627   4.315324   3.007793
    18  C    2.721372   2.623521   3.557488   3.342386   4.863570
    19  F    4.038738   3.771382   4.674625   4.440780   6.080851
    20  C    3.128499   3.212601   3.589072   2.811961   4.801476
    21  F    2.528767   2.984234   3.146659   2.299125   4.013698
    22  F    3.948328   3.629617   3.554145   2.576458   4.869071
    23  F    4.179665   4.481849   4.917344   4.050078   6.048268
    24  F    2.559167   3.014504   4.226656   4.166925   5.270913
    25  F    3.470201   2.369047   2.698255   2.886691   4.198705
                    6          7          8          9         10
     6  F    0.000000
     7  F    2.171747   0.000000
     8  F    2.178637   2.177480   0.000000
     9  F    2.790238   2.785768   3.552000   0.000000
    10  C    4.947064   4.418481   4.354062   2.917647   0.000000
    11  O    6.002154   5.007344   5.293079   3.832844   1.456198
    12  C    5.756047   4.331648   4.797807   4.006569   2.290062
    13  F    6.285726   4.906618   4.888941   4.953752   2.885643
    14  F    6.693906   5.032927   5.872844   4.839790   3.451982
    15  C    4.334979   2.836623   3.564049   2.877244   2.358212
    16  F    4.303561   2.823784   4.198676   2.426143   2.931331
    17  F    4.291927   2.405689   3.200991   3.672781   3.565500
    18  C    5.805172   5.586468   4.967971   4.144191   1.539531
    19  F    6.970521   6.731496   6.301435   4.976821   2.358343
    20  C    5.477971   5.819617   4.803712   4.292465   2.582080
    21  F    4.660862   5.145012   3.746057   4.177909   3.038532
    22  F    5.282078   5.931766   5.164758   3.900587   2.944577
    23  F    6.679404   7.101033   5.890189   5.635431   3.763932
    24  F    6.364009   5.890985   5.074162   5.045561   2.367041
    25  F    4.936066   4.699179   4.937577   2.435874   1.355792
                   11         12         13         14         15
    11  O    0.000000
    12  C    1.417804   0.000000
    13  F    2.221396   1.349854   0.000000
    14  F    2.258095   1.344037   2.181293   0.000000
    15  C    2.334000   1.505661   2.370616   2.391674   0.000000
    16  F    2.856320   2.355995   3.536820   2.719290   1.354140
    17  F    3.544694   2.394619   2.759641   3.000279   1.344075
    18  C    2.405702   3.341318   3.389700   4.524654   3.679163
    19  F    2.693498   3.943921   4.082886   4.874281   4.589097
    20  C    3.800857   4.627488   4.646860   5.884316   4.590361
    21  F    4.336343   4.793067   4.682743   6.127560   4.447837
    22  F    4.252957   5.215478   5.536795   6.390797   4.995198
    23  F    4.778222   5.656727   5.469399   6.877686   5.809593
    24  F    2.741589   3.263237   2.762238   4.432036   3.844391
    25  F    2.222093   3.221561   4.106235   4.115053   3.070105
                   16         17         18         19         20
    16  F    0.000000
    17  F    2.173810   0.000000
    18  C    4.446659   4.704334   0.000000
    19  F    5.165340   5.737883   1.371207   0.000000
    20  C    5.292139   5.484425   1.515995   2.352726   0.000000
    21  F    5.272757   5.056304   2.372607   3.541498   1.353002
    22  F    5.376429   6.000311   2.378381   2.844724   1.350838
    23  F    6.583637   6.657049   2.377031   2.715578   1.354489
    24  F    4.905924   4.603888   1.367018   2.173537   2.360956
    25  F    3.051594   4.354106   2.374988   2.730161   3.007852
                   21         22         23         24         25
    21  F    0.000000
    22  F    2.182607   0.000000
    23  F    2.169440   2.178455   0.000000
    24  F    2.760318   3.552657   2.802014   0.000000
    25  F    3.647752   2.730386   4.199282   3.541437   0.000000
 Symmetry turned off by external request.
 Stoichiometry    C8F16O
 Framework group  C1[X(C8F16O)]
 Deg. of freedom    69
 Full point group                 C1      NOp   1
 Rotational constants (GHZ):      0.3164885      0.2482119      0.1792120
 Leave Link  202 at Mon Feb  3 21:34:48 2025, MaxMem=  5368709120 cpu:         0.1
 (Enter /home/k0335/k033513/app/g09/l301.exe)
 Standard basis: 6-31G(d,p) (6D, 7F)
 Ernie: Thresh=  0.10000D-02 Tol=  0.10000D-05 Strict=F.
   375 basis functions,   700 primitive gaussians,   375 cartesian basis functions
   100 alpha electrons      100 beta electrons
       nuclear repulsion energy      3161.2532584848 Hartrees.
 IExCor=20419 DFT=T Ex+Corr=CAM-B3LYP ExCW=0 ScaHFX=  1.000000
 ScaDFX=  1.000000  1.000000  1.000000  0.810000 ScalE2=  1.000000  1.000000
 IRadAn=      0 IRanWt=     -1 IRanGd=            0 ICorTp=0 IEmpDi=  4
  HFx wShort=  0.000000 wLong=  0.330000 cFull=  0.190000 cShort=  0.000000 cLong=  0.460000
  DFx wShort=  0.000000 wLong=  0.330000 cFull=  0.190000 cShort=  0.000000 cLong=  0.460000
 NAtoms=   25 NActive=   25 NUniq=   25 SFac= 1.00D+00 NAtFMM=   60 NAOKFM=F Big=F
 Integral buffers will be    131072 words long.
 Raffenetti 2 integral format.
 Two-electron integral symmetry is turned off.
 Using the following non-standard input for PCM:
 eps=2.05
 --- end of non-standard input.
 ------------------------------------------------------------------------------
 Polarizable Continuum Model (PCM)
 =================================
 Model                : PCM (using non-symmetric T matrix).
 Atomic radii         : UFF (Universal Force Field).
 Polarization charges : Total charges.
 Charge compensation  : None.
 Solution method      : On-the-fly selection.
 Cavity type          : Scaled VdW (van der Waals Surface) (Alpha=1.100).
 Cavity algorithm     : GePol (No added spheres)
                        Default sphere list used, NSphG=   25.
                        Lebedev-Laikov grids with approx.  5.0 points / Ang**2.
                        Smoothing algorithm: Karplus/York (Gamma=1.0000).
                        Polarization charges: spherical gaussians, with
                                              point-specific exponents (IZeta= 3).
                        Self-potential: point-specific (ISelfS= 7).
                        Self-field    : sphere-specific E.n sum rule (ISelfD= 2).
 Solvent              : Generic,
                        Eps                           =   2.050000
                        Eps(infinity)                 =   0.000000
                        RSolv                         =   0.000000 Ang.
                        Molar volume                  =   0.000000 cm**3/mol
                        Thermal expansion coefficient =   0.000000 K**-1
                        Absolute temperature          = 298.150000 K
                        Numeral density               =   0.000000 Ang**-3
                        Hydrogen bond acidity         =   0.000000
                        Hydrogen bond basicity        =   0.000000
                        Surface tension at interface  =   0.000000 (cal/mol)*Ang**-2
                        Carbon aromaticity            =   0.000000
                        Electronegative halogenicity  =   0.000000
 ------------------------------------------------------------------------------
 GePol: Number of generator spheres                  =      25
 GePol: Total number of spheres                      =      25
 GePol: Number of exposed spheres                    =      23 ( 92.00%)
 GePol: Number of points                             =    2210
 GePol: Average weight of points                     =       0.13
 GePol: Minimum weight of points                     =   0.30D-09
 GePol: Maximum weight of points                     =    0.20551
 GePol: Number of points with low weight             =      75
 GePol: Fraction of low-weight points (<1% of avg)   =       3.39%
 GePol: Cavity surface area                          =    277.492 Ang**2
 GePol: Cavity volume                                =    316.208 Ang**3
 Leave Link  301 at Mon Feb  3 21:34:48 2025, MaxMem=  5368709120 cpu:         0.6
 (Enter /home/k0335/k033513/app/g09/l302.exe)
 NPDir=0 NMtPBC=     1 NCelOv=     1 NCel=       1 NClECP=     1 NCelD=      1
         NCelK=      1 NCelE2=     1 NClLst=     1 CellRange=     0.0.
 One-electron integrals computed using PRISM.
 NBasis=   375 RedAO= T EigKep=  8.35D-04  NBF=   375
 NBsUse=   375 1.00D-06 EigRej= -1.00D+00 NBFU=   375
 Precomputing XC quadrature grid using
 IXCGrd= 4 IRadAn=           0 IRanWt=          -1 IRanGd=           0 AccXCQ= 0.00D+00.
 Generated NRdTot=       0 NPtTot=           0 NUsed=           0 NTot=          32
 NSgBfM=   372   372   372   372   372 MxSgAt=    25 MxSgA2=    25.
 Leave Link  302 at Mon Feb  3 21:34:48 2025, MaxMem=  5368709120 cpu:         5.0
 (Enter /home/k0335/k033513/app/g09/l303.exe)
 DipDrv:  MaxL=1.
 Leave Link  303 at Mon Feb  3 21:34:48 2025, MaxMem=  5368709120 cpu:         0.4
 (Enter /home/k0335/k033513/app/g09/l401.exe)
 ExpMin= 1.69D-01 ExpMax= 7.00D+03 ExpMxC= 1.05D+03 IAcc=1 IRadAn=         1 AccDes= 0.00D+00
 Harris functional with IExCor=20419 and IRadAn=       1 diagonalized for initial guess.
 HarFok:  IExCor=20419 AccDes= 0.00D+00 IRadAn=         1 IDoV= 1 UseB2=F ITyADJ=14
 ICtDFT=  3500011 ScaDFX=  1.000000  1.000000  1.000000  1.000000
 FoFCou: FMM=F IPFlag=           0 FMFlag=      100000 FMFlg1=           0
         NFxFlg=           0 DoJE=T BraDBF=F KetDBF=T FulRan=T
         wScrn=  0.000000 ICntrl=     500 IOpCl=  0 I1Cent=   200000004 NGrid=           0
         NMat0=    1 NMatS0=      1 NMatT0=    0 NMatD0=    1 NMtDS0=    0 NMtDT0=    0
 Symmetry not used in FoFCou.
 Harris En= -1919.91408117744    
 JPrj=0 DoOrth=F DoCkMO=F.
 Leave Link  401 at Mon Feb  3 21:34:48 2025, MaxMem=  5368709120 cpu:         5.7
 (Enter /home/k0335/k033513/app/g09/l502.exe)
 Closed shell SCF:
 Using DIIS extrapolation, IDIIS=  1040.
 Two-electron integral symmetry not used.
 Keep R1 ints in memory in canonical form, NReq=4997350725.
 IVT=      451725 IEndB=      451725 NGot=  5368709120 MDV=   397936896
 LenX=   397936896 LenY=   397795830
 Requested convergence on RMS density matrix=1.00D-08 within 128 cycles.
 Requested convergence on MAX density matrix=1.00D-06.
 Requested convergence on             energy=1.00D-06.
 No special actions if energy rises.
 FoFCou: FMM=F IPFlag=           0 FMFlag=           0 FMFlg1=           0
         NFxFlg=           0 DoJE=F BraDBF=F KetDBF=F FulRan=T
         wScrn=  0.000000 ICntrl=     600 IOpCl=  0 I1Cent=           0 NGrid=           0
         NMat0=    1 NMatS0=  70500 NMatT0=    0 NMatD0=    1 NMtDS0=    0 NMtDT0=    0
 Symmetry not used in FoFCou.

 Cycle   1  Pass 1  IDiag  1:
 Inv3:  Mode=1 IEnd=    14652300.
 Iteration    1 A*A^-1 deviation from unit magnitude is 5.77D-15 for   2203.
 Iteration    1 A*A^-1 deviation from orthogonality  is 3.04D-15 for   2110    139.
 Iteration    1 A^-1*A deviation from unit magnitude is 6.88D-15 for    625.
 Iteration    1 A^-1*A deviation from orthogonality  is 1.53D-15 for   2079   1536.
 E= -1976.34529965506    
 DIIS: error= 4.07D-02 at cycle   1 NSaved=   1.
 NSaved= 1 IEnMin= 1 EnMin= -1976.34529965506     IErMin= 1 ErrMin= 4.07D-02
 ErrMax= 4.07D-02  0.00D+00 EMaxC= 1.00D-01 BMatC= 1.65D+00 BMatP= 1.65D+00
 IDIUse=3 WtCom= 5.93D-01 WtEn= 4.07D-01
 Coeff-Com:  0.100D+01
 Coeff-En:   0.100D+01
 Coeff:      0.100D+01
 Gap=     0.457 Goal=   None    Shift=    0.000
 GapD=    0.457 DampG=2.000 DampE=0.500 DampFc=1.0000 IDamp=-1.
 RMSDP=3.94D-03 MaxDP=1.89D-01              OVMax= 8.60D-02

 Cycle   2  Pass 1  IDiag  1:
 E= -1976.61777029086     Delta-E=       -0.272470635794 Rises=F Damp=F
 DIIS: error= 2.65D-02 at cycle   2 NSaved=   2.
 NSaved= 2 IEnMin= 2 EnMin= -1976.61777029086     IErMin= 2 ErrMin= 2.65D-02
 ErrMax= 2.65D-02  0.00D+00 EMaxC= 1.00D-01 BMatC= 6.39D-01 BMatP= 1.65D+00
 IDIUse=3 WtCom= 7.35D-01 WtEn= 2.65D-01
 Coeff-Com:  0.367D+00 0.633D+00
 Coeff-En:   0.318D+00 0.682D+00
 Coeff:      0.354D+00 0.646D+00
 Gap=     0.463 Goal=   None    Shift=    0.000
 RMSDP=1.73D-03 MaxDP=9.41D-02 DE=-2.72D-01 OVMax= 5.27D-02

 Cycle   3  Pass 1  IDiag  1:
 E= -1976.90263789708     Delta-E=       -0.284867606224 Rises=F Damp=F
 DIIS: error= 9.61D-03 at cycle   3 NSaved=   3.
 NSaved= 3 IEnMin= 3 EnMin= -1976.90263789708     IErMin= 3 ErrMin= 9.61D-03
 ErrMax= 9.61D-03  0.00D+00 EMaxC= 1.00D-01 BMatC= 1.03D-01 BMatP= 6.39D-01
 IDIUse=3 WtCom= 9.04D-01 WtEn= 9.61D-02
 Coeff-Com:  0.902D-01 0.318D+00 0.592D+00
 Coeff-En:   0.000D+00 0.897D-01 0.910D+00
 Coeff:      0.815D-01 0.296D+00 0.622D+00
 Gap=     0.460 Goal=   None    Shift=    0.000
 RMSDP=7.99D-04 MaxDP=4.40D-02 DE=-2.85D-01 OVMax= 2.78D-02

 Cycle   4  Pass 1  IDiag  1:
 E= -1976.96194512399     Delta-E=       -0.059307226909 Rises=F Damp=F
 DIIS: error= 2.73D-03 at cycle   4 NSaved=   4.
 NSaved= 4 IEnMin= 4 EnMin= -1976.96194512399     IErMin= 4 ErrMin= 2.73D-03
 ErrMax= 2.73D-03  0.00D+00 EMaxC= 1.00D-01 BMatC= 7.23D-03 BMatP= 1.03D-01
 IDIUse=3 WtCom= 9.73D-01 WtEn= 2.73D-02
 Coeff-Com:  0.819D-03 0.552D-01 0.273D+00 0.671D+00
 Coeff-En:   0.000D+00 0.000D+00 0.697D-03 0.999D+00
 Coeff:      0.797D-03 0.537D-01 0.266D+00 0.680D+00
 Gap=     0.449 Goal=   None    Shift=    0.000
 RMSDP=1.95D-04 MaxDP=8.50D-03 DE=-5.93D-02 OVMax= 7.36D-03

 Cycle   5  Pass 1  IDiag  1:
 E= -1976.96712081944     Delta-E=       -0.005175695446 Rises=F Damp=F
 DIIS: error= 1.54D-04 at cycle   5 NSaved=   5.
 NSaved= 5 IEnMin= 5 EnMin= -1976.96712081944     IErMin= 5 ErrMin= 1.54D-04
 ErrMax= 1.54D-04  0.00D+00 EMaxC= 1.00D-01 BMatC= 6.45D-05 BMatP= 7.23D-03
 IDIUse=3 WtCom= 9.98D-01 WtEn= 1.54D-03
 Coeff-Com: -0.588D-03 0.178D-01 0.973D-01 0.268D+00 0.618D+00
 Coeff-En:   0.000D+00 0.000D+00 0.000D+00 0.000D+00 0.100D+01
 Coeff:     -0.587D-03 0.178D-01 0.972D-01 0.267D+00 0.618D+00
 Gap=     0.449 Goal=   None    Shift=    0.000
 RMSDP=2.24D-05 MaxDP=9.77D-04 DE=-5.18D-03 OVMax= 8.68D-04

 Cycle   6  Pass 1  IDiag  1:
 E= -1976.96715913190     Delta-E=       -0.000038312467 Rises=F Damp=F
 DIIS: error= 6.10D-05 at cycle   6 NSaved=   6.
 NSaved= 6 IEnMin= 6 EnMin= -1976.96715913190     IErMin= 6 ErrMin= 6.10D-05
 ErrMax= 6.10D-05  0.00D+00 EMaxC= 1.00D-01 BMatC= 9.61D-06 BMatP= 6.45D-05
 IDIUse=1 WtCom= 1.00D+00 WtEn= 0.00D+00
 Coeff-Com: -0.339D-03-0.323D-02-0.114D-01-0.176D-01 0.277D+00 0.756D+00
 Coeff:     -0.339D-03-0.323D-02-0.114D-01-0.176D-01 0.277D+00 0.756D+00
 Gap=     0.449 Goal=   None    Shift=    0.000
 RMSDP=6.88D-06 MaxDP=4.36D-04 DE=-3.83D-05 OVMax= 3.04D-04

 Cycle   7  Pass 1  IDiag  1:
 E= -1976.96716597046     Delta-E=       -0.000006838555 Rises=F Damp=F
 DIIS: error= 8.20D-06 at cycle   7 NSaved=   7.
 NSaved= 7 IEnMin= 7 EnMin= -1976.96716597046     IErMin= 7 ErrMin= 8.20D-06
 ErrMax= 8.20D-06  0.00D+00 EMaxC= 1.00D-01 BMatC= 2.10D-07 BMatP= 9.61D-06
 IDIUse=1 WtCom= 1.00D+00 WtEn= 0.00D+00
 Coeff-Com: -0.709D-04-0.176D-02-0.756D-02-0.168D-01 0.604D-01 0.227D+00
 Coeff-Com:  0.739D+00
 Coeff:     -0.709D-04-0.176D-02-0.756D-02-0.168D-01 0.604D-01 0.227D+00
 Coeff:      0.739D+00
 Gap=     0.449 Goal=   None    Shift=    0.000
 RMSDP=1.53D-06 MaxDP=9.08D-05 DE=-6.84D-06 OVMax= 9.64D-05

 Cycle   8  Pass 1  IDiag  1:
 E= -1976.96716613732     Delta-E=       -0.000000166867 Rises=F Damp=F
 DIIS: error= 5.08D-06 at cycle   8 NSaved=   8.
 NSaved= 8 IEnMin= 8 EnMin= -1976.96716613732     IErMin= 8 ErrMin= 5.08D-06
 ErrMax= 5.08D-06  0.00D+00 EMaxC= 1.00D-01 BMatC= 4.44D-08 BMatP= 2.10D-07
 IDIUse=1 WtCom= 1.00D+00 WtEn= 0.00D+00
 Coeff-Com:  0.103D-05-0.551D-03-0.260D-02-0.670D-02-0.628D-03 0.283D-01
 Coeff-Com:  0.336D+00 0.646D+00
 Coeff:      0.103D-05-0.551D-03-0.260D-02-0.670D-02-0.628D-03 0.283D-01
 Coeff:      0.336D+00 0.646D+00
 Gap=     0.449 Goal=   None    Shift=    0.000
 RMSDP=5.80D-07 MaxDP=3.88D-05 DE=-1.67D-07 OVMax= 3.31D-05

 Cycle   9  Pass 1  IDiag  1:
 E= -1976.96716617075     Delta-E=       -0.000000033425 Rises=F Damp=F
 DIIS: error= 1.58D-06 at cycle   9 NSaved=   9.
 NSaved= 9 IEnMin= 9 EnMin= -1976.96716617075     IErMin= 9 ErrMin= 1.58D-06
 ErrMax= 1.58D-06  0.00D+00 EMaxC= 1.00D-01 BMatC= 3.61D-09 BMatP= 4.44D-08
 IDIUse=1 WtCom= 1.00D+00 WtEn= 0.00D+00
 Coeff-Com:  0.939D-05 0.225D-04 0.701D-06-0.347D-03-0.801D-02-0.188D-01
 Coeff-Com:  0.258D-01 0.245D+00 0.757D+00
 Coeff:      0.939D-05 0.225D-04 0.701D-06-0.347D-03-0.801D-02-0.188D-01
 Coeff:      0.258D-01 0.245D+00 0.757D+00
 Gap=     0.449 Goal=   None    Shift=    0.000
 RMSDP=2.01D-07 MaxDP=1.09D-05 DE=-3.34D-08 OVMax= 1.40D-05

 Cycle  10  Pass 1  IDiag  1:
 E= -1976.96716617398     Delta-E=       -0.000000003229 Rises=F Damp=F
 DIIS: error= 3.99D-07 at cycle  10 NSaved=  10.
 NSaved=10 IEnMin=10 EnMin= -1976.96716617398     IErMin=10 ErrMin= 3.99D-07
 ErrMax= 3.99D-07  0.00D+00 EMaxC= 1.00D-01 BMatC= 3.06D-10 BMatP= 3.61D-09
 IDIUse=1 WtCom= 1.00D+00 WtEn= 0.00D+00
 Coeff-Com:  0.347D-05 0.567D-04 0.223D-03 0.452D-03-0.307D-02-0.982D-02
 Coeff-Com: -0.186D-01 0.433D-01 0.293D+00 0.695D+00
 Coeff:      0.347D-05 0.567D-04 0.223D-03 0.452D-03-0.307D-02-0.982D-02
 Coeff:     -0.186D-01 0.433D-01 0.293D+00 0.695D+00
 Gap=     0.449 Goal=   None    Shift=    0.000
 RMSDP=5.18D-08 MaxDP=2.50D-06 DE=-3.23D-09 OVMax= 3.31D-06

 Cycle  11  Pass 1  IDiag  1:
 E= -1976.96716617413     Delta-E=       -0.000000000149 Rises=F Damp=F
 DIIS: error= 1.03D-07 at cycle  11 NSaved=  11.
 NSaved=11 IEnMin=11 EnMin= -1976.96716617413     IErMin=11 ErrMin= 1.03D-07
 ErrMax= 1.03D-07  0.00D+00 EMaxC= 1.00D-01 BMatC= 1.78D-11 BMatP= 3.06D-10
 IDIUse=1 WtCom= 1.00D+00 WtEn= 0.00D+00
 Coeff-Com:  0.422D-06 0.168D-04 0.706D-04 0.177D-03-0.376D-03-0.168D-02
 Coeff-Com: -0.706D-02-0.197D-02 0.374D-01 0.211D+00 0.762D+00
 Coeff:      0.422D-06 0.168D-04 0.706D-04 0.177D-03-0.376D-03-0.168D-02
 Coeff:     -0.706D-02-0.197D-02 0.374D-01 0.211D+00 0.762D+00
 Gap=     0.449 Goal=   None    Shift=    0.000
 RMSDP=1.38D-08 MaxDP=5.38D-07 DE=-1.49D-10 OVMax= 9.68D-07

 Cycle  12  Pass 1  IDiag  1:
 E= -1976.96716617424     Delta-E=       -0.000000000114 Rises=F Damp=F
 DIIS: error= 4.05D-08 at cycle  12 NSaved=  12.
 NSaved=12 IEnMin=12 EnMin= -1976.96716617424     IErMin=12 ErrMin= 4.05D-08
 ErrMax= 4.05D-08  0.00D+00 EMaxC= 1.00D-01 BMatC= 3.87D-12 BMatP= 1.78D-11
 IDIUse=1 WtCom= 1.00D+00 WtEn= 0.00D+00
 Coeff-Com: -0.216D-06 0.126D-05 0.685D-05 0.324D-04 0.199D-03 0.395D-03
 Coeff-Com: -0.113D-02-0.610D-02-0.177D-01 0.140D-01 0.363D+00 0.648D+00
 Coeff:     -0.216D-06 0.126D-05 0.685D-05 0.324D-04 0.199D-03 0.395D-03
 Coeff:     -0.113D-02-0.610D-02-0.177D-01 0.140D-01 0.363D+00 0.648D+00
 Gap=     0.449 Goal=   None    Shift=    0.000
 RMSDP=5.04D-09 MaxDP=1.95D-07 DE=-1.14D-10 OVMax= 3.03D-07

 Error on total polarization charges =  0.00046
 SCF Done:  E(RCAM-B3LYP) =  -1976.96716617     A.U. after   12 cycles
            NFock= 12  Conv=0.50D-08     -V/T= 2.0068
 KE= 1.963685339478D+03 PE=-1.100916173059D+04 EE= 3.907255966455D+03
 Leave Link  502 at Mon Feb  3 21:35:25 2025, MaxMem=  5368709120 cpu:       327.9
 (Enter /home/k0335/k033513/app/g09/l601.exe)
 Copying SCF densities to generalized density rwf, IOpCl= 0 IROHF=0.

 **********************************************************************

            Population analysis using the SCF density.

 **********************************************************************

 Alpha  occ. eigenvalues --  -24.84239 -24.84149 -24.83994 -24.83935 -24.83764
 Alpha  occ. eigenvalues --  -24.83713 -24.83618 -24.83586 -24.83519 -24.83476
 Alpha  occ. eigenvalues --  -24.83466 -24.83321 -24.83220 -24.83129 -24.83092
 Alpha  occ. eigenvalues --  -24.83053 -19.32264 -10.55729 -10.55343 -10.53190
 Alpha  occ. eigenvalues --  -10.50404 -10.49925 -10.49617 -10.48675 -10.44153
 Alpha  occ. eigenvalues --   -1.42750  -1.42188  -1.41179  -1.39239  -1.38834
 Alpha  occ. eigenvalues --   -1.38257  -1.36647  -1.36314  -1.33624  -1.33445
 Alpha  occ. eigenvalues --   -1.33090  -1.32866  -1.32768  -1.32594  -1.32049
 Alpha  occ. eigenvalues --   -1.31536  -1.20553  -0.98421  -0.93228  -0.90837
 Alpha  occ. eigenvalues --   -0.86975  -0.81957  -0.78517  -0.76977  -0.75858
 Alpha  occ. eigenvalues --   -0.72814  -0.72656  -0.71129  -0.70736  -0.70457
 Alpha  occ. eigenvalues --   -0.69573  -0.69447  -0.69368  -0.68654  -0.67856
 Alpha  occ. eigenvalues --   -0.67039  -0.65965  -0.65670  -0.65270  -0.64643
 Alpha  occ. eigenvalues --   -0.63084  -0.59010  -0.58393  -0.57584  -0.57283
 Alpha  occ. eigenvalues --   -0.56944  -0.56734  -0.56568  -0.55926  -0.55890
 Alpha  occ. eigenvalues --   -0.55600  -0.54805  -0.54491  -0.54274  -0.54040
 Alpha  occ. eigenvalues --   -0.53894  -0.53656  -0.52941  -0.52688  -0.52325
 Alpha  occ. eigenvalues --   -0.51718  -0.51457  -0.51348  -0.51241  -0.50949
 Alpha  occ. eigenvalues --   -0.50714  -0.50253  -0.50136  -0.49720  -0.49034
 Alpha  occ. eigenvalues --   -0.48660  -0.46074  -0.45336  -0.44116  -0.42685
 Alpha virt. eigenvalues --    0.02233   0.05714   0.07136   0.09590   0.11254
 Alpha virt. eigenvalues --    0.12937   0.14841   0.17143   0.19166   0.22754
 Alpha virt. eigenvalues --    0.23899   0.24218   0.24484   0.25123   0.26504
 Alpha virt. eigenvalues --    0.27181   0.27497   0.28040   0.28594   0.30658
 Alpha virt. eigenvalues --    0.31420   0.33079   0.34151   0.36444   0.37139
 Alpha virt. eigenvalues --    0.44850   0.47981   0.49048   0.50324   0.51153
 Alpha virt. eigenvalues --    0.52191   0.52939   0.54372   0.54898   0.56947
 Alpha virt. eigenvalues --    0.57470   0.58884   0.60636   0.62865   0.63169
 Alpha virt. eigenvalues --    0.64238   0.66854   0.68410   0.68728   0.71302
 Alpha virt. eigenvalues --    0.73502   0.75607   0.77486   0.80541   0.86863
 Alpha virt. eigenvalues --    0.91648   0.92101   0.92930   0.96822   0.98829
 Alpha virt. eigenvalues --    1.01050   1.03031   1.04227   1.06168   1.08693
 Alpha virt. eigenvalues --    1.09412   1.09983   1.10633   1.11189   1.12561
 Alpha virt. eigenvalues --    1.12996   1.13524   1.14322   1.16306   1.18133
 Alpha virt. eigenvalues --    1.19180   1.19827   1.21470   1.22414   1.24588
 Alpha virt. eigenvalues --    1.25862   1.27419   1.27571   1.28332   1.29386
 Alpha virt. eigenvalues --    1.30022   1.30861   1.31838   1.33139   1.34154
 Alpha virt. eigenvalues --    1.35127   1.35729   1.36204   1.36714   1.36864
 Alpha virt. eigenvalues --    1.37945   1.38339   1.38933   1.39584   1.40457
 Alpha virt. eigenvalues --    1.40802   1.41040   1.41243   1.41761   1.42539
 Alpha virt. eigenvalues --    1.43026   1.44090   1.44734   1.45950   1.46500
 Alpha virt. eigenvalues --    1.47633   1.49308   1.50369   1.51029   1.52679
 Alpha virt. eigenvalues --    1.53840   1.54802   1.55191   1.57228   1.57510
 Alpha virt. eigenvalues --    1.57977   1.59887   1.61115   1.62588   1.64654
 Alpha virt. eigenvalues --    1.65851   1.67357   1.68873   1.70482   1.70725
 Alpha virt. eigenvalues --    1.72138   1.72811   1.73172   1.73729   1.74315
 Alpha virt. eigenvalues --    1.75633   1.77194   1.78306   1.79073   1.80433
 Alpha virt. eigenvalues --    1.81314   1.82610   1.82682   1.83698   1.84844
 Alpha virt. eigenvalues --    1.85073   1.86360   1.86408   1.87774   1.88360
 Alpha virt. eigenvalues --    1.89576   1.90157   1.90604   1.91540   1.92826
 Alpha virt. eigenvalues --    1.93198   1.95159   1.95900   1.96767   1.97199
 Alpha virt. eigenvalues --    1.98431   1.98582   1.99466   2.00697   2.01464
 Alpha virt. eigenvalues --    2.02860   2.02983   2.04241   2.04288   2.04435
 Alpha virt. eigenvalues --    2.05712   2.06226   2.06466   2.07081   2.07349
 Alpha virt. eigenvalues --    2.09248   2.09943   2.10092   2.10317   2.10712
 Alpha virt. eigenvalues --    2.11030   2.12038   2.13677   2.14903   2.15881
 Alpha virt. eigenvalues --    2.17652   2.17945   2.20920   2.21970   2.22962
 Alpha virt. eigenvalues --    2.25134   2.26900   2.28077   2.28817   2.29841
 Alpha virt. eigenvalues --    2.31711   2.33479   2.33929   2.34763   2.37387
 Alpha virt. eigenvalues --    2.38875   2.39941   2.40608   2.41602   2.42514
 Alpha virt. eigenvalues --    2.43413   2.44676   2.45314   2.46927   2.48874
 Alpha virt. eigenvalues --    2.51035   2.52645   2.55682   2.58291   2.59803
 Alpha virt. eigenvalues --    2.63027   2.64658   2.69422   2.70299   2.72811
 Alpha virt. eigenvalues --    2.74539   2.78383   2.80871   2.81634   2.83379
 Alpha virt. eigenvalues --    2.85470   2.87236   2.87976   2.88971   2.89662
 Alpha virt. eigenvalues --    2.91009   2.92875   2.93468   2.95156   2.96179
 Alpha virt. eigenvalues --    2.99438   3.00739   3.02829   3.06847   3.07890
 Alpha virt. eigenvalues --    3.08244   3.08828   3.11553   3.11759   3.13027
 Alpha virt. eigenvalues --    3.14902   3.16234   3.19749   3.21641   3.23176
 Alpha virt. eigenvalues --    3.25333   3.27922   3.32926   3.38844   3.39708
 Alpha virt. eigenvalues --    4.22632   4.27129   4.30910   4.37108   4.40759
 Alpha virt. eigenvalues --    4.53641   4.62814   4.66580   4.68627   4.74550
 Alpha virt. eigenvalues --    4.87914   4.96772   5.05242   5.11142   5.19756
 Alpha virt. eigenvalues --    5.23961   5.26883   5.35339   5.63507   5.68951
 Alpha virt. eigenvalues --    5.84882   6.33463   6.39160   6.59687   6.86200
          Condensed to atoms (all electrons):
               1          2          3          4          5          6
     1  F    9.146675   0.192959  -0.020196  -0.000374   0.001989   0.000000
     2  C    0.192959   5.751418   0.107998  -0.038358  -0.048092   0.002494
     3  C   -0.020196   0.107998   4.789716   0.242007   0.238482  -0.022291
     4  F   -0.000374  -0.038358   0.242007   9.113108  -0.016024  -0.000558
     5  C    0.001989  -0.048092   0.238482  -0.016024   4.185941   0.300368
     6  F    0.000000   0.002494  -0.022291  -0.000558   0.300368   9.045085
     7  F   -0.000076  -0.004476  -0.034139   0.000294   0.274932  -0.039812
     8  F    0.000030   0.006563  -0.036240  -0.000353   0.283534  -0.039264
     9  F    0.000294  -0.033680   0.232884  -0.039631  -0.013620  -0.000737
    10  C   -0.028647   0.097286  -0.026690   0.007340   0.003740  -0.000026
    11  O    0.000127  -0.027867   0.002892   0.000007  -0.000030   0.000000
    12  C    0.005401  -0.055026   0.002478  -0.000066   0.000158   0.000000
    13  F   -0.000086   0.006242   0.000155   0.000000  -0.000010   0.000000
    14  F    0.000000   0.002336  -0.000021   0.000000   0.000000   0.000000
    15  C   -0.020321   0.079505  -0.028771   0.002079  -0.009425   0.000014
    16  F    0.000351  -0.053212   0.008438   0.000001  -0.001874   0.000001
    17  F   -0.000514  -0.028963  -0.007109  -0.000001   0.010881   0.000000
    18  C    0.010124  -0.043484  -0.002851  -0.004717  -0.000078   0.000000
    19  F    0.000004   0.002135   0.000018   0.000001   0.000000   0.000000
    20  C   -0.002274  -0.003596   0.001240   0.011972   0.000013   0.000000
    21  F   -0.001088   0.012955  -0.000827  -0.007820  -0.000104   0.000000
    22  F    0.000006  -0.002488   0.001743  -0.001059   0.000001   0.000000
    23  F    0.000001  -0.000015   0.000005  -0.000003   0.000000   0.000000
    24  F   -0.000992   0.001354   0.000157   0.000002   0.000003   0.000000
    25  F    0.000389  -0.045166   0.018102  -0.001368   0.000197   0.000000
               7          8          9         10         11         12
     1  F   -0.000076   0.000030   0.000294  -0.028647   0.000127   0.005401
     2  C   -0.004476   0.006563  -0.033680   0.097286  -0.027867  -0.055026
     3  C   -0.034139  -0.036240   0.232884  -0.026690   0.002892   0.002478
     4  F    0.000294  -0.000353  -0.039631   0.007340   0.000007  -0.000066
     5  C    0.274932   0.283534  -0.013620   0.003740  -0.000030   0.000158
     6  F   -0.039812  -0.039264  -0.000737  -0.000026   0.000000   0.000000
     7  F    9.067962  -0.038213  -0.000337   0.000071   0.000000   0.000204
     8  F   -0.038213   9.066630   0.000299   0.000040   0.000000   0.000010
     9  F   -0.000337   0.000299   9.118786  -0.000355  -0.000052  -0.000150
    10  C    0.000071   0.000040  -0.000355   5.011790   0.181106  -0.037463
    11  O    0.000000   0.000000  -0.000052   0.181106   8.376875   0.189668
    12  C    0.000204   0.000010  -0.000150  -0.037463   0.189668   4.337319
    13  F    0.000000   0.000000   0.000000   0.000952  -0.053539   0.269024
    14  F    0.000000   0.000000   0.000000   0.001607  -0.039477   0.324829
    15  C    0.020006  -0.001522   0.002594  -0.033280  -0.047472   0.236480
    16  F   -0.000619   0.000002  -0.002812   0.015345  -0.002707  -0.017359
    17  F   -0.007078  -0.000255   0.000000   0.002424   0.000788  -0.019608
    18  C    0.000000   0.000005   0.000147   0.154967  -0.030024  -0.003435
    19  F    0.000000   0.000000   0.000000  -0.021402  -0.000780   0.000237
    20  C    0.000000  -0.000004  -0.000049  -0.049769   0.001774   0.000264
    21  F    0.000000   0.000001   0.000001  -0.004009   0.000002  -0.000014
    22  F    0.000000   0.000000  -0.000008   0.006836   0.000008  -0.000001
    23  F    0.000000   0.000000   0.000000   0.002081  -0.000003  -0.000001
    24  F    0.000000   0.000000   0.000000  -0.029437  -0.000857   0.002385
    25  F    0.000000   0.000000  -0.003567   0.258747  -0.046465   0.000012
              13         14         15         16         17         18
     1  F   -0.000086   0.000000  -0.020321   0.000351  -0.000514   0.010124
     2  C    0.006242   0.002336   0.079505  -0.053212  -0.028963  -0.043484
     3  C    0.000155  -0.000021  -0.028771   0.008438  -0.007109  -0.002851
     4  F    0.000000   0.000000   0.002079   0.000001  -0.000001  -0.004717
     5  C   -0.000010   0.000000  -0.009425  -0.001874   0.010881  -0.000078
     6  F    0.000000   0.000000   0.000014   0.000001   0.000000   0.000000
     7  F    0.000000   0.000000   0.020006  -0.000619  -0.007078   0.000000
     8  F    0.000000   0.000000  -0.001522   0.000002  -0.000255   0.000005
     9  F    0.000000   0.000000   0.002594  -0.002812   0.000000   0.000147
    10  C    0.000952   0.001607  -0.033280   0.015345   0.002424   0.154967
    11  O   -0.053539  -0.039477  -0.047472  -0.002707   0.000788  -0.030024
    12  C    0.269024   0.324829   0.236480  -0.017359  -0.019608  -0.003435
    13  F    9.098727  -0.040061  -0.035111   0.000310   0.000021   0.000483
    14  F   -0.040061   9.020622  -0.026707  -0.000541  -0.000196  -0.000055
    15  C   -0.035111  -0.026707   4.799457   0.243782   0.263678   0.002738
    16  F    0.000310  -0.000541   0.243782   9.105825  -0.038718   0.000081
    17  F    0.000021  -0.000196   0.263678  -0.038718   9.079016  -0.000005
    18  C    0.000483  -0.000055   0.002738   0.000081  -0.000005   4.787636
    19  F   -0.000002   0.000000  -0.000082   0.000000   0.000000   0.248356
    20  C    0.000000   0.000000  -0.000086  -0.000001   0.000000   0.219616
    21  F    0.000000   0.000000   0.000133   0.000000   0.000000  -0.032744
    22  F    0.000000   0.000000  -0.000002   0.000000   0.000000  -0.034776
    23  F    0.000000   0.000000   0.000000   0.000000   0.000000  -0.020596
    24  F    0.000685   0.000000  -0.000849   0.000000   0.000000   0.241062
    25  F   -0.000008  -0.000002   0.003318  -0.000406  -0.000001  -0.028019
              19         20         21         22         23         24
     1  F    0.000004  -0.002274  -0.001088   0.000006   0.000001  -0.000992
     2  C    0.002135  -0.003596   0.012955  -0.002488  -0.000015   0.001354
     3  C    0.000018   0.001240  -0.000827   0.001743   0.000005   0.000157
     4  F    0.000001   0.011972  -0.007820  -0.001059  -0.000003   0.000002
     5  C    0.000000   0.000013  -0.000104   0.000001   0.000000   0.000003
     6  F    0.000000   0.000000   0.000000   0.000000   0.000000   0.000000
     7  F    0.000000   0.000000   0.000000   0.000000   0.000000   0.000000
     8  F    0.000000  -0.000004   0.000001   0.000000   0.000000   0.000000
     9  F    0.000000  -0.000049   0.000001  -0.000008   0.000000   0.000000
    10  C   -0.021402  -0.049769  -0.004009   0.006836   0.002081  -0.029437
    11  O   -0.000780   0.001774   0.000002   0.000008  -0.000003  -0.000857
    12  C    0.000237   0.000264  -0.000014  -0.000001  -0.000001   0.002385
    13  F   -0.000002   0.000000   0.000000   0.000000   0.000000   0.000685
    14  F    0.000000   0.000000   0.000000   0.000000   0.000000   0.000000
    15  C   -0.000082  -0.000086   0.000133  -0.000002   0.000000  -0.000849
    16  F    0.000000  -0.000001   0.000000   0.000000   0.000000   0.000000
    17  F    0.000000   0.000000   0.000000   0.000000   0.000000   0.000000
    18  C    0.248356   0.219616  -0.032744  -0.034776  -0.020596   0.241062
    19  F    9.094266  -0.017568   0.000313  -0.000325  -0.000515  -0.038322
    20  C   -0.017568   4.228538   0.267818   0.274788   0.297073  -0.016453
    21  F    0.000313   0.267818   9.088707  -0.036629  -0.039541  -0.000164
    22  F   -0.000325   0.274788  -0.036629   9.075731  -0.038522   0.000307
    23  F   -0.000515   0.297073  -0.039541  -0.038522   9.048325  -0.000706
    24  F   -0.038322  -0.016453  -0.000164   0.000307  -0.000706   9.104676
    25  F   -0.000599   0.000540  -0.000017   0.000337  -0.000001   0.000294
              25
     1  F    0.000389
     2  C   -0.045166
     3  C    0.018102
     4  F   -0.001368
     5  C    0.000197
     6  F    0.000000
     7  F    0.000000
     8  F    0.000000
     9  F   -0.003567
    10  C    0.258747
    11  O   -0.046465
    12  C    0.000012
    13  F   -0.000008
    14  F   -0.000002
    15  C    0.003318
    16  F   -0.000406
    17  F   -0.000001
    18  C   -0.028019
    19  F   -0.000599
    20  C    0.000540
    21  F   -0.000017
    22  F    0.000337
    23  F   -0.000001
    24  F    0.000294
    25  F    9.100440
 Mulliken charges:
               1
     1  F   -0.283781
     2  C    0.121178
     3  C    0.532820
     4  F   -0.266478
     5  C    0.789018
     6  F   -0.245274
     7  F   -0.238718
     8  F   -0.241263
     9  F   -0.260007
    10  C    0.486746
    11  O   -0.503971
    12  C    0.764653
    13  F   -0.247783
    14  F   -0.242334
    15  C    0.549845
    16  F   -0.255888
    17  F   -0.254358
    18  C    0.535570
    19  F   -0.265734
    20  C    0.786165
    21  F   -0.246973
    22  F   -0.245947
    23  F   -0.247584
    24  F   -0.263144
    25  F   -0.256758
 Sum of Mulliken charges =   0.00000
 Mulliken charges with hydrogens summed into heavy atoms:
               1
     1  F   -0.283781
     2  C    0.121178
     3  C    0.532820
     4  F   -0.266478
     5  C    0.789018
     6  F   -0.245274
     7  F   -0.238718
     8  F   -0.241263
     9  F   -0.260007
    10  C    0.486746
    11  O   -0.503971
    12  C    0.764653
    13  F   -0.247783
    14  F   -0.242334
    15  C    0.549845
    16  F   -0.255888
    17  F   -0.254358
    18  C    0.535570
    19  F   -0.265734
    20  C    0.786165
    21  F   -0.246973
    22  F   -0.245947
    23  F   -0.247584
    24  F   -0.263144
    25  F   -0.256758
 Electronic spatial extent (au):  <R**2>=           5802.1150
 Charge=              0.0000 electrons
 Dipole moment (field-independent basis, Debye):
    X=             -0.6428    Y=              0.1292    Z=              0.1306  Tot=              0.6685
 Quadrupole moment (field-independent basis, Debye-Ang):
   XX=           -131.1037   YY=           -131.0708   ZZ=           -131.3369
   XY=              1.2450   XZ=              0.0777   YZ=             -0.2307
 Traceless Quadrupole moment (field-independent basis, Debye-Ang):
   XX=              0.0667   YY=              0.0997   ZZ=             -0.1664
   XY=              1.2450   XZ=              0.0777   YZ=             -0.2307
 Octapole moment (field-independent basis, Debye-Ang**2):
  XXX=             -5.0938  YYY=              6.1292  ZZZ=             37.5502  XYY=             -3.9660
  XXY=              1.5784  XXZ=             11.9355  XZZ=             -1.1173  YZZ=              2.7218
  YYZ=             13.7303  XYZ=             -0.7241
 Hexadecapole moment (field-independent basis, Debye-Ang**3):
 XXXX=          -2898.0368 YYYY=          -2116.0116 ZZZZ=           -718.6432 XXXY=              6.5579
 XXXZ=             -0.3982 YYYX=             14.3566 YYYZ=            -71.6203 ZZZX=              3.9685
 ZZZY=            -70.7897 XXYY=           -835.3993 XXZZ=           -599.5389 YYZZ=           -475.5615
 XXYZ=            -25.7071 YYXZ=              1.4964 ZZXY=              2.8570
 N-N= 3.161253258485D+03 E-N=-1.100916172952D+04  KE= 1.963685339478D+03
 No NMR shielding tensors so no spin-rotation constants.
 Leave Link  601 at Mon Feb  3 21:35:25 2025, MaxMem=  5368709120 cpu:         3.5
 (Enter /home/k0335/k033513/app/g09/l9999.exe)
 1\1\GINC-C15U06N2\SP\RCAM-B3LYP\6-31G(d,p)\C8F16O1\K033513\03-Feb-2025
 \0\\#p CAM-B3LYP/6-31G(d,p) SCRF=(PCM,Solvent=Generic,Read) NoSymm out
 =wfn\\Title S0_neu\\0,1\F,0,-0.142608,-0.067562,1.357365\C,0,-0.435954
 ,-0.141669,0.028128\C,0,-1.078992,1.147348,-0.442778\F,0,-0.165069,2.1
 50578,-0.326229\C,0,-2.345518,1.519488,0.324177\F,0,-2.824099,2.72416,
 -0.066332\F,0,-3.335937,0.622451,0.126864\F,0,-2.12268,1.588351,1.6554
 14\F,0,-1.352356,1.080713,-1.774689\C,0,0.843461,-0.529506,-0.726716\O
 ,0,0.813247,-1.969639,-0.940299\C,0,-0.29327,-2.444138,-0.191541\F,0,0
 .159377,-2.693475,1.055475\F,0,-0.731883,-3.601048,-0.716531\C,0,-1.31
 2375,-1.336011,-0.213799\F,0,-1.909098,-1.254899,-1.426662\F,0,-2.2859
 42,-1.463627,0.704035\C,0,2.185709,-0.208649,-0.044383\F,0,3.192563,-0
 .712261,-0.827217\C,0,2.447771,1.262153,0.213117\F,0,1.580597,1.767918
 ,1.120214\F,0,2.339133,2.000068,-0.913134\F,0,3.690139,1.469409,0.7113
 2\F,0,2.264337,-0.906364,1.12854\F,0,0.819447,-0.00379,-1.976203\\Vers
 ion=ES64L-G09RevD.01\HF=-1976.9671662\RMSD=5.041e-09\Dipole=-0.252901,
 0.0508402,0.0513674\Quadrupole=0.0496248,0.074094,-0.1237187,0.9256471
 ,0.0577735,-0.1715\PG=C01 [X(C8F16O1)]\\@

 Writing a WFN file to "cytop/S0/S0_neu.wfn"


 ON A CLEAR DISK YOU CAN SEEK FOREVER.
 Job cpu time:       0 days  0 hours  5 minutes 48.7 seconds.
 File lengths (MBytes):  RWF=    136 Int=      0 D2E=      0 Chk=      7 Scr=      1
 Normal termination of Gaussian 09 at Mon Feb  3 21:35:26 2025.
