 Entering Gaussian System, Link 0=g09
 Initial command:
 /home/k0335/k033513/app/g09/l1.exe "/home/k0335/k033513/app/g09/scratch/Gau-525461.inp" -scrdir="/home/k0335/k033513/app/g09/scratch/"
 Default is to use a total of  36 processors:
                               36 via shared-memory
                                1 via Linda
 Entering Link 1 = /home/k0335/k033513/app/g09/l1.exe PID=    525462.
  
 Copyright (c) 1988,1990,1992,1993,1995,1998,2003,2009,2013,
            Gaussian, Inc.  All Rights Reserved.
  
 This is part of the Gaussian(R) 09 program.  It is based on
 the Gaussian(R) 03 system (copyright 2003, Gaussian, Inc.),
 the Gaussian(R) 98 system (copyright 1998, Gaussian, Inc.),
 the Gaussian(R) 94 system (copyright 1995, Gaussian, Inc.),
 the Gaussian 92(TM) system (copyright 1992, Gaussian, Inc.),
 the Gaussian 90(TM) system (copyright 1990, Gaussian, Inc.),
 the Gaussian 88(TM) system (copyright 1988, Gaussian, Inc.),
 the Gaussian 86(TM) system (copyright 1986, Carnegie Mellon
 University), and the Gaussian 82(TM) system (copyright 1983,
 Carnegie Mellon University). Gaussian is a federally registered
 trademark of Gaussian, Inc.
  
 This software contains proprietary and confidential information,
 including trade secrets, belonging to Gaussian, Inc.
  
 This software is provided under written license and may be
 used, copied, transmitted, or stored only in accord with that
 written license.
  
 The following legend is applicable only to US Government
 contracts under FAR:
  
                    RESTRICTED RIGHTS LEGEND
  
 Use, reproduction and disclosure by the US Government is
 subject to restrictions as set forth in subparagraphs (a)
 and (c) of the Commercial Computer Software - Restricted
 Rights clause in FAR 52.227-19.
  
 Gaussian, Inc.
 340 Quinnipiac St., Bldg. 40, Wallingford CT 06492
  
  
 ---------------------------------------------------------------
 Warning -- This program may not be used in any manner that
 competes with the business of Gaussian, Inc. or will provide
 assistance to any competitor of Gaussian, Inc.  The licensee
 of this program is prohibited from giving any competitor of
 Gaussian, Inc. access to this program.  By using this program,
 the user acknowledges that Gaussian, Inc. is engaged in the
 business of creating and licensing software in the field of
 computational chemistry and represents and warrants to the
 licensee that it is not a competitor of Gaussian, Inc. and that
 it will not use this program in any manner prohibited above.
 ---------------------------------------------------------------
  

 Cite this work as:
 Gaussian 09, Revision D.01,
 M. J. Frisch, G. W. Trucks, H. B. Schlegel, G. E. Scuseria, 
 M. A. Robb, J. R. Cheeseman, G. Scalmani, V. Barone, B. Mennucci, 
 G. A. Petersson, H. Nakatsuji, M. Caricato, X. Li, H. P. Hratchian, 
 A. F. Izmaylov, J. Bloino, G. Zheng, J. L. Sonnenberg, M. Hada, 
 M. Ehara, K. Toyota, R. Fukuda, J. Hasegawa, M. Ishida, T. Nakajima, 
 Y. Honda, O. Kitao, H. Nakai, T. Vreven, J. A. Montgomery, Jr., 
 J. E. Peralta, F. Ogliaro, M. Bearpark, J. J. Heyd, E. Brothers, 
 K. N. Kudin, V. N. Staroverov, T. Keith, R. Kobayashi, J. Normand, 
 K. Raghavachari, A. Rendell, J. C. Burant, S. S. Iyengar, J. Tomasi, 
 M. Cossi, N. Rega, J. M. Millam, M. Klene, J. E. Knox, J. B. Cross, 
 V. Bakken, C. Adamo, J. Jaramillo, R. Gomperts, R. E. Stratmann, 
 O. Yazyev, A. J. Austin, R. Cammi, C. Pomelli, J. W. Ochterski, 
 R. L. Martin, K. Morokuma, V. G. Zakrzewski, G. A. Voth, 
 P. Salvador, J. J. Dannenberg, S. Dapprich, A. D. Daniels, 
 O. Farkas, J. B. Foresman, J. V. Ortiz, J. Cioslowski, 
 and D. J. Fox, Gaussian, Inc., Wallingford CT, 2013.
 
 ******************************************
 Gaussian 09:  ES64L-G09RevD.01 24-Apr-2013
                 3-Mar-2024 
 ******************************************
 %nprocshared=24
 Will use up to   24 processors via shared memory.
 %mem=40GB
 %rwf=A1342961132/A1342961132_0.rwf
 %nosave
 %chk=A1342961132/A1342961132_0.chk
 ----------------------------------------------------------------------
 #p CAM-B3LYP/6-31G(d,p) SCRF=(PCM,Solvent=Generic,Read) NoSymm out=wfn
 ----------------------------------------------------------------------
 1/38=1,40=2/1;
 2/12=2,15=1,17=6,18=5,40=1/2;
 3/5=1,6=6,7=101,11=2,16=1,25=1,30=1,70=2203,72=-2,74=-40/1,2,3;
 4//1;
 5/5=2,38=5/2;
 6/7=2,8=2,9=2,10=2,28=1/1;
 99/5=1,6=100,9=1/99;
 Leave Link    1 at Sun Mar  3 17:47:01 2024, MaxMem=  5368709120 cpu:         0.8
 (Enter /home/k0335/k033513/app/g09/l101.exe)
 -------------------
 Title A1342961132_0
 -------------------
 Symbolic Z-matrix:
 Charge =  0 Multiplicity = 1
 C                     0.80381   2.47203  -3.57778 
 N                     0.68407   1.73368  -2.33137 
 C                    -0.41958   0.92848  -2.1606 
 O                    -1.31572   0.84631  -3.0008 
 N                    -0.44662   0.18305  -1.00136 
 C                    -1.62185  -0.66835  -0.75173 
 C                    -2.72415   0.08122   0.01163 
 F                    -3.04045   1.21057  -0.67563 
 F                    -2.22644   0.50447   1.20508 
 C                    -3.96847  -0.78472   0.23608 
 F                    -4.4461   -1.15109  -0.99174 
 O                    -3.5589   -1.99993   0.87556 
 C                    -4.64227  -2.78832   1.30203 
 F                    -4.19108  -4.03311   1.54254 
 F                    -5.1386   -2.28131   2.44119 
 F                    -5.59749  -2.84816   0.36212 
 C                    -4.99896   0.08856   0.97287 
 F                    -6.18773  -0.54858   1.10127 
 F                    -4.58727   0.4017    2.22217 
 F                    -5.26051   1.24702   0.32893 
 C                     0.53416   0.24377  -0.03651 
 O                     0.48859  -0.48072   0.9565 
 N                     1.5681    1.11215  -0.25732 
 C                     2.66676   1.14704   0.69531 
 F                     2.19114   0.97227   1.95785 
 F                     3.13934   2.43639   0.72944 
 C                     3.87578   0.20368   0.42347 
 F                     4.06519   0.12458  -0.94107 
 O                     5.13824   0.72372   0.87467 
 C                     5.32269   0.68353   2.2655 
 F                     6.42802   1.38444   2.57457 
 F                     5.49151  -0.58591   2.66457 
 F                     4.27614   1.2238    2.90051 
 C                     3.54686  -1.2162    0.88264 
 F                     4.62218  -2.02949   0.72484 
 F                     2.55562  -1.76056   0.13955 
 F                     3.18602  -1.28541   2.17822 
 C                     1.75578   1.74388  -1.46324 
 O                     2.82413   2.27108  -1.76983 
 H                     1.2752    1.81947  -4.31955 
 H                    -0.17921   2.77808  -3.94784 
 H                     1.42224   3.36482  -3.44494 
 H                    -1.29794  -1.54852  -0.18576 
 H                    -2.01221  -1.02354  -1.71203 
 
 NAtoms=     44 NQM=       44 NQMF=       0 NMMI=      0 NMMIF=      0
                NMic=       0 NMicF=      0.
                    Isotopes and Nuclear Properties:
 (Nuclear quadrupole moments (NQMom) in fm**2, nuclear magnetic moments (NMagM)
  in nuclear magnetons)

  Atom         1           2           3           4           5           6           7           8           9          10
 IAtWgt=          12          14          12          16          14          12          12          19          19          12
 AtmWgt=  12.0000000  14.0030740  12.0000000  15.9949146  14.0030740  12.0000000  12.0000000  18.9984033  18.9984033  12.0000000
 NucSpn=           0           2           0           0           2           0           0           1           1           0
 AtZEff=   0.0000000   0.0000000   0.0000000   0.0000000   0.0000000   0.0000000   0.0000000   0.0000000   0.0000000   0.0000000
 NQMom=    0.0000000   2.0440000   0.0000000   0.0000000   2.0440000   0.0000000   0.0000000   0.0000000   0.0000000   0.0000000
 NMagM=    0.0000000   0.4037610   0.0000000   0.0000000   0.4037610   0.0000000   0.0000000   2.6288670   2.6288670   0.0000000
 AtZNuc=   6.0000000   7.0000000   6.0000000   8.0000000   7.0000000   6.0000000   6.0000000   9.0000000   9.0000000   6.0000000

  Atom        11          12          13          14          15          16          17          18          19          20
 IAtWgt=          19          16          12          19          19          19          12          19          19          19
 AtmWgt=  18.9984033  15.9949146  12.0000000  18.9984033  18.9984033  18.9984033  12.0000000  18.9984033  18.9984033  18.9984033
 NucSpn=           1           0           0           1           1           1           0           1           1           1
 AtZEff=   0.0000000   0.0000000   0.0000000   0.0000000   0.0000000   0.0000000   0.0000000   0.0000000   0.0000000   0.0000000
 NQMom=    0.0000000   0.0000000   0.0000000   0.0000000   0.0000000   0.0000000   0.0000000   0.0000000   0.0000000   0.0000000
 NMagM=    2.6288670   0.0000000   0.0000000   2.6288670   2.6288670   2.6288670   0.0000000   2.6288670   2.6288670   2.6288670
 AtZNuc=   9.0000000   8.0000000   6.0000000   9.0000000   9.0000000   9.0000000   6.0000000   9.0000000   9.0000000   9.0000000

  Atom        21          22          23          24          25          26          27          28          29          30
 IAtWgt=          12          16          14          12          19          19          12          19          16          12
 AtmWgt=  12.0000000  15.9949146  14.0030740  12.0000000  18.9984033  18.9984033  12.0000000  18.9984033  15.9949146  12.0000000
 NucSpn=           0           0           2           0           1           1           0           1           0           0
 AtZEff=   0.0000000   0.0000000   0.0000000   0.0000000   0.0000000   0.0000000   0.0000000   0.0000000   0.0000000   0.0000000
 NQMom=    0.0000000   0.0000000   2.0440000   0.0000000   0.0000000   0.0000000   0.0000000   0.0000000   0.0000000   0.0000000
 NMagM=    0.0000000   0.0000000   0.4037610   0.0000000   2.6288670   2.6288670   0.0000000   2.6288670   0.0000000   0.0000000
 AtZNuc=   6.0000000   8.0000000   7.0000000   6.0000000   9.0000000   9.0000000   6.0000000   9.0000000   8.0000000   6.0000000

  Atom        31          32          33          34          35          36          37          38          39          40
 IAtWgt=          19          19          19          12          19          19          19          12          16           1
 AtmWgt=  18.9984033  18.9984033  18.9984033  12.0000000  18.9984033  18.9984033  18.9984033  12.0000000  15.9949146   1.0078250
 NucSpn=           1           1           1           0           1           1           1           0           0           1
 AtZEff=   0.0000000   0.0000000   0.0000000   0.0000000   0.0000000   0.0000000   0.0000000   0.0000000   0.0000000   0.0000000
 NQMom=    0.0000000   0.0000000   0.0000000   0.0000000   0.0000000   0.0000000   0.0000000   0.0000000   0.0000000   0.0000000
 NMagM=    2.6288670   2.6288670   2.6288670   0.0000000   2.6288670   2.6288670   2.6288670   0.0000000   0.0000000   2.7928460
 AtZNuc=   9.0000000   9.0000000   9.0000000   6.0000000   9.0000000   9.0000000   9.0000000   6.0000000   8.0000000   1.0000000

  Atom        41          42          43          44
 IAtWgt=           1           1           1           1
 AtmWgt=   1.0078250   1.0078250   1.0078250   1.0078250
 NucSpn=           1           1           1           1
 AtZEff=   0.0000000   0.0000000   0.0000000   0.0000000
 NQMom=    0.0000000   0.0000000   0.0000000   0.0000000
 NMagM=    2.7928460   2.7928460   2.7928460   2.7928460
 AtZNuc=   1.0000000   1.0000000   1.0000000   1.0000000
 Leave Link  101 at Sun Mar  3 17:47:01 2024, MaxMem=  5368709120 cpu:         1.0
 (Enter /home/k0335/k033513/app/g09/l202.exe)
                          Input orientation:                          
 ---------------------------------------------------------------------
 Center     Atomic      Atomic             Coordinates (Angstroms)
 Number     Number       Type             X           Y           Z
 ---------------------------------------------------------------------
      1          6           0        0.803810    2.472027   -3.577777
      2          7           0        0.684065    1.733684   -2.331372
      3          6           0       -0.419576    0.928484   -2.160602
      4          8           0       -1.315721    0.846307   -3.000800
      5          7           0       -0.446617    0.183047   -1.001356
      6          6           0       -1.621853   -0.668353   -0.751733
      7          6           0       -2.724150    0.081222    0.011625
      8          9           0       -3.040451    1.210565   -0.675632
      9          9           0       -2.226436    0.504471    1.205083
     10          6           0       -3.968473   -0.784722    0.236078
     11          9           0       -4.446101   -1.151091   -0.991738
     12          8           0       -3.558896   -1.999930    0.875563
     13          6           0       -4.642271   -2.788323    1.302026
     14          9           0       -4.191081   -4.033106    1.542544
     15          9           0       -5.138603   -2.281310    2.441194
     16          9           0       -5.597491   -2.848159    0.362115
     17          6           0       -4.998958    0.088559    0.972866
     18          9           0       -6.187735   -0.548584    1.101269
     19          9           0       -4.587268    0.401702    2.222168
     20          9           0       -5.260505    1.247017    0.328932
     21          6           0        0.534161    0.243765   -0.036506
     22          8           0        0.488586   -0.480721    0.956495
     23          7           0        1.568096    1.112151   -0.257317
     24          6           0        2.666755    1.147044    0.695306
     25          9           0        2.191139    0.972269    1.957851
     26          9           0        3.139341    2.436387    0.729442
     27          6           0        3.875776    0.203681    0.423469
     28          9           0        4.065194    0.124580   -0.941073
     29          8           0        5.138240    0.723720    0.874673
     30          6           0        5.322689    0.683525    2.265504
     31          9           0        6.428025    1.384440    2.574568
     32          9           0        5.491512   -0.585914    2.664572
     33          9           0        4.276139    1.223804    2.900512
     34          6           0        3.546863   -1.216202    0.882636
     35          9           0        4.622180   -2.029491    0.724840
     36          9           0        2.555623   -1.760558    0.139549
     37          9           0        3.186015   -1.285408    2.178217
     38          6           0        1.755775    1.743876   -1.463242
     39          8           0        2.824126    2.271077   -1.769825
     40          1           0        1.275200    1.819469   -4.319553
     41          1           0       -0.179207    2.778079   -3.947841
     42          1           0        1.422237    3.364816   -3.444937
     43          1           0       -1.297944   -1.548517   -0.185759
     44          1           0       -2.012210   -1.023542   -1.712032
 ---------------------------------------------------------------------
                    Distance matrix (angstroms):
                    1          2          3          4          5
     1  C    0.000000
     2  N    1.453621   0.000000
     3  C    2.426434   1.376784   0.000000
     4  O    2.732815   2.287950   1.231163   0.000000
     5  N    3.666189   2.334922   1.378499   2.278822   0.000000
     6  C    4.871586   3.685417   2.445459   2.728775   1.472540
     7  C    5.571917   4.453784   3.278336   3.412291   2.494726
     8  F    4.979164   4.109398   3.025507   2.917839   2.808890
     9  F    5.994115   4.742204   3.843484   4.316909   2.852971
    10  C    6.922903   5.880500   4.612355   4.491629   3.856331
    11  F    6.883033   6.036154   4.680147   4.221991   4.216146
    12  O    7.672277   6.498232   5.258254   5.306514   4.239634
    13  C    9.007972   7.875277   6.605725   6.541466   5.633660
    14  F    9.668680   8.487057   7.249477   7.260740   6.186145
    15  F    9.702293   8.532352   7.331338   7.349266   6.319726
    16  F    9.208897   8.228372   6.887520   6.579653   6.130152
    17  C    7.749928   6.776516   5.612026   5.470872   4.962891
    18  F    8.938639   8.013327   6.789197   6.519909   6.157658
    19  F    8.184701   7.091957   6.070900   6.179004   5.252038
    20  F    7.317031   6.530848   5.452874   5.177741   5.106390
    21  C    4.192668   2.740208   2.426981   3.545724   1.377152
    22  O    5.420121   3.968863   3.539338   4.547165   2.269003
    23  N    3.668631   2.338700   2.758091   3.989207   2.340063
    24  C    4.846172   3.665513   4.210632   5.441669   3.674376
    25  F    5.900604   4.609605   4.876413   6.074714   4.041972
    26  F    4.899807   3.986321   4.826180   6.024171   4.575183
    27  C    5.531034   4.485206   5.064860   6.252218   4.551223
    28  F    4.806177   3.994268   4.716638   5.806687   4.512592
    29  O    6.455089   5.580182   6.335940   7.529139   5.916286
    30  C    7.600193   6.614449   7.254242   8.475196   6.648890
    31  F    8.406306   7.561964   8.337828   9.557192   7.841638
    32  F    8.384061   7.311056   7.779246   8.971406   7.020805
    33  F    7.455425   6.366756   6.910270   8.138605   6.213869
    34  C    6.404893   5.217977   5.440001   6.555894   4.631976
    35  F    7.304528   6.245852   6.518796   7.576891   5.793771
    36  F    5.899334   4.670964   4.623143   5.625375   3.754026
    37  F    7.274935   5.975873   6.060277   7.185545   5.045994
    38  C    2.430576   1.379245   2.425557   3.550183   2.738623
    39  O    2.718593   2.276837   3.532261   4.547923   3.955777
    40  H    1.094656   2.075973   2.885687   3.065783   4.080804
    41  H    1.094046   2.109259   2.583215   2.433165   3.935413
    42  H    1.094153   2.108439   3.313232   3.746540   4.425761
    43  H    5.664621   4.393729   3.287411   3.695937   2.094820
    44  H    4.861067   3.905864   2.558926   2.375364   2.100476
                    6          7          8          9         10
     6  C    0.000000
     7  C    1.536111   0.000000
     8  F    2.355535   1.359332   0.000000
     9  F    2.360120   1.360588   2.167551   0.000000
    10  C    2.548713   1.532507   2.381934   2.373959   0.000000
    11  F    2.875242   2.343170   2.766441   3.534660   1.367438
    12  O    2.858903   2.402995   3.603092   2.855881   1.432978
    13  C    4.223165   3.684917   4.740049   4.085113   2.367418
    14  F    4.815205   4.628530   5.808644   4.956139   3.508334
    15  F    5.016368   4.161003   5.129331   4.215360   2.910587
    16  F    4.668823   4.118277   4.908015   4.828533   2.631987
    17  C    3.866781   2.469573   2.795030   2.813145   1.538628
    18  F    4.929020   3.685160   4.019624   4.100194   2.393625
    19  F    4.333912   2.908680   3.382920   2.572654   2.394799
    20  F    4.251619   2.809423   2.437030   3.244162   2.409550
    21  C    2.447837   3.262718   3.757797   3.038158   4.626640
    22  O    2.721617   3.395620   4.240093   2.898921   4.525129
    23  N    3.686518   4.422502   4.628540   4.111735   5.873258
    24  C    4.876653   5.537622   5.869898   4.961461   6.925956
    25  F    4.957055   5.361140   5.861873   4.505604   6.632672
    26  F    5.873862   6.359449   6.454975   5.722770   7.819205
    27  C    5.689066   6.613897   7.075029   6.159414   7.908495
    28  F    5.745180   6.855998   7.193053   6.658447   8.170209
    29  O    7.090975   7.935668   8.338552   7.375344   9.252860
    30  C    7.691421   8.378207   8.880888   7.625342   9.622890
    31  F    8.948674   9.593193  10.012296   8.806221  10.874786
    32  F    7.891635   8.659117   9.336953   7.930055   9.768747
    33  F    7.190651   7.658669   8.143800   6.758358   8.894212
    34  C    5.448571   6.462784   7.190974   6.032882   7.555428
    35  F    6.559033   7.676741   8.436539   7.318138   8.694116
    36  F    4.408923   5.593257   6.388125   5.397574   6.597378
    37  F    5.664006   6.441417   7.289939   5.783190   7.430295
    38  C    4.211112   5.000938   4.889635   4.951170   6.484482
    39  O    5.426186   6.225142   6.059308   6.122022   7.713686
    40  H    5.226042   6.146170   5.681001   6.671752   7.418335
    41  H    4.916729   5.424679   4.620733   5.992751   6.675123
    42  H    5.725931   6.318412   5.676745   6.566359   7.734875
    43  H    1.095414   2.174643   3.299824   2.647886   2.809458
    44  H    1.095770   2.167569   2.668827   3.300042   2.771125
                   11         12         13         14         15
    11  F    0.000000
    12  O    2.234832   0.000000
    13  C    2.824954   1.406107   0.000000
    14  F    3.846249   2.231216   1.345699   0.000000
    15  F    3.679942   2.241841   1.342055   2.184985   0.000000
    16  F    2.457368   2.266934   1.341439   2.185292   2.203285
    17  C    2.387897   2.538707   2.917537   4.238552   2.791374
    18  F    2.788724   3.011336   2.728588   4.040204   2.428666
    19  F    3.572154   2.939172   3.320534   4.504040   2.747817
    20  F    2.856282   3.706338   4.196796   5.522338   4.114074
    21  C    5.259382   4.755960   6.146599   6.566044   6.685451
    22  O    5.347536   4.323963   5.636498   5.904420   6.091938
    23  N    6.467782   6.103647   7.497593   7.929772   7.986072
    24  C    7.662915   6.978157   8.323286   8.636069   8.702031
    25  F    7.567145   6.562638   7.827366   8.121514   8.033960
    26  F    8.565710   8.035461   9.390364   9.810737   9.680450
    27  C    8.549377   7.767537   9.070892   9.180244   9.565847
    28  F    8.606512   8.120373   9.451796   9.571875  10.096431
    29  O    9.942736   9.113641  10.400744  10.493316  10.821169
    30  C   10.459670   9.381653  10.596341  10.643359  10.874730
    31  F   11.721522  10.680785  11.898856  11.965797  12.134348
    32  F   10.603970   9.333267  10.459479  10.338989  10.766783
    33  F    9.842114   8.710950   9.909105  10.058479  10.056548
    34  C    8.210054   7.148852   8.349214   8.261126   8.888244
    35  F    9.271027   8.182518   9.313379   9.075058   9.913736
    36  F    7.118666   6.163307   7.363242   7.256093   8.047973
    37  F    8.265340   6.906611   8.019260   7.897814   8.388101
    38  C    6.860497   6.908822   8.313996   8.818921   8.887024
    39  O    8.072971   8.122964   9.527900   9.996381  10.092669
    40  H    7.254782   8.058879   9.372852   9.924568  10.181403
    41  H    6.510246   7.583989   8.858040   9.624536   9.540063
    42  H    7.800576   8.500524   9.857638  10.541041  10.467564
    43  H    3.273903   2.538126   3.864602   4.186939   4.710470
    44  H    2.541440   3.168788   4.372210   4.939354   5.348420
                   16         17         18         19         20
    16  F    0.000000
    17  C    3.058688   0.000000
    18  F    2.486520   1.354854   0.000000
    19  F    3.878395   1.352147   2.172775   0.000000
    20  F    4.109152   1.350956   2.163433   2.179942   0.000000
    21  C    6.878666   5.626573   6.863398   5.599606   5.892216
    22  O    6.557315   5.517018   6.678235   5.305176   6.035807
    23  N    8.210566   6.759237   8.047155   6.673911   6.855047
    24  C    9.185338   7.743422   9.024520   7.450348   7.936352
    25  F    8.820703   7.310857   8.558753   6.807511   7.632553
    26  F   10.217318   8.473692   9.800135   8.128263   8.493081
    27  C    9.952903   8.892468  10.114325   8.654343   9.196147
    28  F   10.193280   9.264087  10.476014   9.216723   9.478472
    29  O   11.325942  10.157552  11.399465   9.823693  10.426196
    30  C   11.633831  10.419275  11.634578   9.914058  10.773664
    31  F   12.939199  11.611232  12.847747  11.064657  11.903088
    32  F   11.549244  10.647382  11.783468  10.136711  11.154404
    33  F   10.977837   9.541070  10.764353   8.927261   9.877304
    34  C    9.303410   8.645322   9.759914   8.400955   9.162083
    35  F   10.258824   9.854641  10.917374   9.641920  10.419199
    36  F    8.228346   7.822106   8.879195   7.748133   8.376946
    37  F    9.104416   8.386563   9.464138   7.954382   9.009813
    38  C    8.859415   7.368929   8.656295   7.457739   7.258577
    39  O   10.083421   8.572420   9.869514   8.623186   8.415149
    40  H    9.536176   8.388731   9.523045   8.897905   8.040619
    41  H    8.921215   7.394381   8.524236   7.946520   6.815756
    42  H   10.117870   8.454738   9.689910   8.775550   7.961545
    43  H    4.524968   4.209505   5.154257   4.518973   4.876659
    44  H    4.526097   4.167266   5.057198   4.913265   4.457846
                   21         22         23         24         25
    21  C    0.000000
    22  O    1.230044   0.000000
    23  N    1.368164   2.275065   0.000000
    24  C    2.428872   2.731714   1.454565   0.000000
    25  F    2.693279   2.452056   2.305367   1.360433   0.000000
    26  F    3.490162   3.948110   2.279497   1.373648   2.133475
    27  C    3.373362   3.496510   2.571804   1.557421   2.404799
    28  F    3.647004   4.093810   2.770978   2.383023   3.554493
    29  O    4.717854   4.803817   3.765396   2.513884   3.149675
    30  C    5.331289   5.141743   4.543712   3.119993   3.159846
    31  F    6.546486   6.432256   5.631396   4.211310   4.301329
    32  F    5.706095   5.287519   5.178229   3.854919   3.717506
    33  F    4.856846   4.585866   4.161472   2.731106   2.301978
    34  C    3.471700   3.146338   3.261325   2.528757   2.789889
    35  F    4.739118   4.420289   4.490209   3.730273   4.054731
    36  F    2.852125   2.564766   3.063522   2.962324   3.302637
    37  F    3.778319   3.068591   3.781240   2.895769   2.476983
    38  C    2.403799   3.522744   1.374247   2.417731   3.533949
    39  O    3.515441   4.523269   2.282192   2.713869   3.997892
    40  H    4.623470   5.809158   4.133745   5.247608   6.400195
    41  H    4.714889   5.926064   4.410028   5.684944   6.614884
    42  H    4.706064   5.918823   3.905982   4.858904   5.958658
    43  H    2.567325   2.374157   3.911325   4.874542   4.808651
    44  H    3.301130   3.697252   4.415424   5.692050   5.926166
                   26         27         28         29         30
    26  F    0.000000
    27  C    2.370850   0.000000
    28  F    2.998712   1.379895   0.000000
    29  O    2.636270   1.437999   2.192562   0.000000
    30  C    3.193590   2.391004   3.489391   1.403584   0.000000
    31  F    3.914911   3.540536   4.419270   2.233772   1.344831
    32  F    4.290890   2.873431   3.942063   2.245814   1.341354
    33  F    2.734266   2.708631   4.001321   2.257726   1.338060
    34  C    3.678444   1.528099   2.322128   2.509152   2.945309
    35  F    4.705624   2.373816   2.779482   2.805163   3.197626
    36  F    4.278206   2.383621   2.645807   3.658135   4.260268
    37  F    3.994106   2.402560   3.534260   3.089823   2.906835
    38  C    2.683596   3.228976   2.868483   4.236465   5.267900
    39  O    2.524485   3.192277   2.614293   3.839636   5.004700
    40  H    5.417376   5.645354   4.697962   6.565343   7.812523
    41  H    5.745128   6.494518   5.839234   7.466745   8.559420
    42  H    4.608239   5.565716   4.873775   6.280374   7.417006
    43  H    6.033784   5.496247   5.668598   6.907390   7.404288
    44  H    6.668612   6.382384   6.232768   7.802109   8.516784
                   31         32         33         34         35
    31  F    0.000000
    32  F    2.183450   0.000000
    33  F    2.182351   2.192687   0.000000
    34  C    4.234037   2.711866   3.249199   0.000000
    35  F    4.282230   2.569477   3.929023   1.357441   0.000000
    36  F    5.551201   4.046600   4.414692   1.353166   2.164613
    37  F    4.218508   2.457875   2.829527   1.346674   2.174519
    38  C    6.185711   6.035106   5.066069   4.180096   5.219414
    39  O    5.713840   5.911110   5.001717   4.440610   5.286893
    40  H    8.617990   8.505360   7.841543   6.437276   7.173749
    41  H    9.388267   9.337961   8.316599   7.291871   8.246211
    42  H    8.075534   8.336268   7.279657   6.650387   7.531615
    43  H    8.712763   7.426150   6.948470   4.972329   6.009026
    44  H    9.767849   8.697817   8.116000   6.137810   7.139006
                   36         37         38         39         40
    36  F    0.000000
    37  F    2.186168   0.000000
    38  C    3.935702   4.947966   0.000000
    39  O    4.468991   5.326029   1.230166   0.000000
    40  H    5.860006   7.450670   2.897444   3.017322   0.000000
    41  H    6.692180   8.084877   3.314659   3.744438   1.781124
    42  H    6.356301   7.507021   2.581823   2.442859   1.781760
    43  H    3.873082   5.075776   4.668727   5.838666   5.920528
    44  H    4.983638   6.498012   4.681689   5.852179   5.068426
                   41         42         43         44
    41  H    0.000000
    42  H    1.778144   0.000000
    43  H    5.841598   6.493263   0.000000
    44  H    4.776093   5.835758   1.765017   0.000000
 Symmetry turned off by external request.
 Stoichiometry    C13H5F18N3O5
 Framework group  C1[X(C13H5F18N3O5)]
 Deg. of freedom   126
 Full point group                 C1      NOp   1
 Rotational constants (GHZ):      0.1777440      0.0488016      0.0437846
 Leave Link  202 at Sun Mar  3 17:47:01 2024, MaxMem=  5368709120 cpu:         0.1
 (Enter /home/k0335/k033513/app/g09/l301.exe)
 Standard basis: 6-31G(d,p) (6D, 7F)
 Ernie: Thresh=  0.10000D-02 Tol=  0.10000D-05 Strict=F.
   610 basis functions,  1127 primitive gaussians,   610 cartesian basis functions
   153 alpha electrons      153 beta electrons
       nuclear repulsion energy      5679.3591203272 Hartrees.
 IExCor=20419 DFT=T Ex+Corr=CAM-B3LYP ExCW=0 ScaHFX=  1.000000
 ScaDFX=  1.000000  1.000000  1.000000  0.810000 ScalE2=  1.000000  1.000000
 IRadAn=      0 IRanWt=     -1 IRanGd=            0 ICorTp=0 IEmpDi=  4
  HFx wShort=  0.000000 wLong=  0.330000 cFull=  0.190000 cShort=  0.000000 cLong=  0.460000
  DFx wShort=  0.000000 wLong=  0.330000 cFull=  0.190000 cShort=  0.000000 cLong=  0.460000
 NAtoms=   44 NActive=   44 NUniq=   44 SFac= 1.00D+00 NAtFMM=   60 NAOKFM=F Big=F
 Integral buffers will be    131072 words long.
 Raffenetti 2 integral format.
 Two-electron integral symmetry is turned off.
 Using the following non-standard input for PCM:
 eps=4.9
 --- end of non-standard input.
 ------------------------------------------------------------------------------
 Polarizable Continuum Model (PCM)
 =================================
 Model                : PCM (using non-symmetric T matrix).
 Atomic radii         : UFF (Universal Force Field).
 Polarization charges : Total charges.
 Charge compensation  : None.
 Solution method      : On-the-fly selection.
 Cavity type          : Scaled VdW (van der Waals Surface) (Alpha=1.100).
 Cavity algorithm     : GePol (No added spheres)
                        Default sphere list used, NSphG=   44.
                        Lebedev-Laikov grids with approx.  5.0 points / Ang**2.
                        Smoothing algorithm: Karplus/York (Gamma=1.0000).
                        Polarization charges: spherical gaussians, with
                                              point-specific exponents (IZeta= 3).
                        Self-potential: point-specific (ISelfS= 7).
                        Self-field    : sphere-specific E.n sum rule (ISelfD= 2).
 Solvent              : Generic,
                        Eps                           =   4.900000
                        Eps(infinity)                 =   0.000000
                        RSolv                         =   0.000000 Ang.
                        Molar volume                  =   0.000000 cm**3/mol
                        Thermal expansion coefficient =   0.000000 K**-1
                        Absolute temperature          = 298.150000 K
                        Numeral density               =   0.000000 Ang**-3
                        Hydrogen bond acidity         =   0.000000
                        Hydrogen bond basicity        =   0.000000
                        Surface tension at interface  =   0.000000 (cal/mol)*Ang**-2
                        Carbon aromaticity            =   0.000000
                        Electronegative halogenicity  =   0.000000
 ------------------------------------------------------------------------------
 GePol: Number of generator spheres                  =      44
 GePol: Total number of spheres                      =      44
 GePol: Number of exposed spheres                    =      43 ( 97.73%)
 GePol: Number of points                             =    3578
 GePol: Average weight of points                     =       0.13
 GePol: Minimum weight of points                     =   0.17D-11
 GePol: Maximum weight of points                     =    0.20577
 GePol: Number of points with low weight             =     148
 GePol: Fraction of low-weight points (<1% of avg)   =       4.14%
 GePol: Cavity surface area                          =    450.971 Ang**2
 GePol: Cavity volume                                =    525.835 Ang**3
 Leave Link  301 at Sun Mar  3 17:47:01 2024, MaxMem=  5368709120 cpu:         0.8
 (Enter /home/k0335/k033513/app/g09/l302.exe)
 NPDir=0 NMtPBC=     1 NCelOv=     1 NCel=       1 NClECP=     1 NCelD=      1
         NCelK=      1 NCelE2=     1 NClLst=     1 CellRange=     0.0.
 One-electron integrals computed using PRISM.
 NBasis=   610 RedAO= T EigKep=  1.07D-03  NBF=   610
 NBsUse=   610 1.00D-06 EigRej= -1.00D+00 NBFU=   610
 Precomputing XC quadrature grid using
 IXCGrd= 4 IRadAn=           0 IRanWt=          -1 IRanGd=           0 AccXCQ= 0.00D+00.
 Generated NRdTot=       0 NPtTot=           0 NUsed=           0 NTot=          32
 NSgBfM=   588   589   589   589   589 MxSgAt=    44 MxSgA2=    44.
 Leave Link  302 at Sun Mar  3 17:47:02 2024, MaxMem=  5368709120 cpu:        12.6
 (Enter /home/k0335/k033513/app/g09/l303.exe)
 DipDrv:  MaxL=1.
 Leave Link  303 at Sun Mar  3 17:47:02 2024, MaxMem=  5368709120 cpu:         0.9
 (Enter /home/k0335/k033513/app/g09/l401.exe)
 ExpMin= 1.61D-01 ExpMax= 7.00D+03 ExpMxC= 1.05D+03 IAcc=1 IRadAn=         1 AccDes= 0.00D+00
 Harris functional with IExCor=20419 and IRadAn=       1 diagonalized for initial guess.
 HarFok:  IExCor=20419 AccDes= 0.00D+00 IRadAn=         1 IDoV= 1 UseB2=F ITyADJ=14
 ICtDFT=  3500011 ScaDFX=  1.000000  1.000000  1.000000  1.000000
 FoFCou: FMM=F IPFlag=           0 FMFlag=      100000 FMFlg1=           0
         NFxFlg=           0 DoJE=T BraDBF=F KetDBF=T FulRan=T
         wScrn=  0.000000 ICntrl=     500 IOpCl=  0 I1Cent=   200000004 NGrid=           0
         NMat0=    1 NMatS0=      1 NMatT0=    0 NMatD0=    1 NMtDS0=    0 NMtDT0=    0
 Symmetry not used in FoFCou.
 Harris En= -2750.17884082316    
 JPrj=0 DoOrth=F DoCkMO=F.
 Leave Link  401 at Sun Mar  3 17:47:03 2024, MaxMem=  5368709120 cpu:        13.9
 (Enter /home/k0335/k033513/app/g09/l502.exe)
 Closed shell SCF:
 Using DIIS extrapolation, IDIIS=  1040.
 Two-electron integral symmetry not used.
 IVT=     1153238 IEndB=     1153238 NGot=  5368709120 MDV=  5367945233
 LenX=  5367945233 LenY=  5367572523
 Requested convergence on RMS density matrix=1.00D-08 within 128 cycles.
 Requested convergence on MAX density matrix=1.00D-06.
 Requested convergence on             energy=1.00D-06.
 No special actions if energy rises.
 Fock matrices will be formed incrementally for  20 cycles.

 Cycle   1  Pass 1  IDiag  1:
 FoFJK:  IHMeth= 1 ICntrl=       0 DoSepK=T KAlg= 0 I1Cent=   0 FoldK=F
 IRaf=         1 NMat=   1 IRICut=       1 DoRegI=T DoRafI=F ISym2E= 0.
 FoFCou: FMM=F IPFlag=           0 FMFlag=      100000 FMFlg1=           0
         NFxFlg=           0 DoJE=T BraDBF=F KetDBF=F FulRan=T
         wScrn=  0.000000 ICntrl=     500 IOpCl=  0 I1Cent=           0 NGrid=           0
         NMat0=    1 NMatS0=      1 NMatT0=    0 NMatD0=    1 NMtDS0=    0 NMtDT0=    0
 Symmetry not used in FoFCou.
 Inv3:  Mode=1 IEnd=    38406252.
 Iteration    1 A*A^-1 deviation from unit magnitude is 6.22D-15 for   3576.
 Iteration    1 A*A^-1 deviation from orthogonality  is 3.11D-15 for   3573     75.
 Iteration    1 A^-1*A deviation from unit magnitude is 6.44D-15 for   3576.
 Iteration    1 A^-1*A deviation from orthogonality  is 5.56D-14 for   2610   2604.
 E= -2834.19998172560    
 DIIS: error= 3.76D-02 at cycle   1 NSaved=   1.
 NSaved= 1 IEnMin= 1 EnMin= -2834.19998172560     IErMin= 1 ErrMin= 3.76D-02
 ErrMax= 3.76D-02  0.00D+00 EMaxC= 1.00D-01 BMatC= 2.36D+00 BMatP= 2.36D+00
 IDIUse=3 WtCom= 6.24D-01 WtEn= 3.76D-01
 Coeff-Com:  0.100D+01
 Coeff-En:   0.100D+01
 Coeff:      0.100D+01
 Gap=     0.443 Goal=   None    Shift=    0.000
 GapD=    0.443 DampG=2.000 DampE=0.500 DampFc=1.0000 IDamp=-1.
 RMSDP=3.06D-03 MaxDP=1.39D-01              OVMax= 2.01D-01

 Cycle   2  Pass 1  IDiag  1:
 RMSU=  3.06D-03    CP:  1.00D+00
 E= -2834.53301520969     Delta-E=       -0.333033484094 Rises=F Damp=F
 DIIS: error= 1.84D-02 at cycle   2 NSaved=   2.
 NSaved= 2 IEnMin= 2 EnMin= -2834.53301520969     IErMin= 2 ErrMin= 1.84D-02
 ErrMax= 1.84D-02  0.00D+00 EMaxC= 1.00D-01 BMatC= 9.48D-01 BMatP= 2.36D+00
 IDIUse=3 WtCom= 8.16D-01 WtEn= 1.84D-01
 Coeff-Com:  0.368D+00 0.632D+00
 Coeff-En:   0.362D+00 0.638D+00
 Coeff:      0.367D+00 0.633D+00
 Gap=     0.420 Goal=   None    Shift=    0.000
 RMSDP=1.62D-03 MaxDP=1.26D-01 DE=-3.33D-01 OVMax= 1.33D-01

 Cycle   3  Pass 1  IDiag  1:
 RMSU=  1.01D-03    CP:  1.00D+00  5.87D-01
 E= -2834.97287123981     Delta-E=       -0.439856030122 Rises=F Damp=F
 DIIS: error= 1.29D-02 at cycle   3 NSaved=   3.
 NSaved= 3 IEnMin= 3 EnMin= -2834.97287123981     IErMin= 3 ErrMin= 1.29D-02
 ErrMax= 1.29D-02  0.00D+00 EMaxC= 1.00D-01 BMatC= 2.28D-01 BMatP= 9.48D-01
 IDIUse=3 WtCom= 8.71D-01 WtEn= 1.29D-01
 Coeff-Com:  0.112D+00 0.349D+00 0.539D+00
 Coeff-En:   0.000D+00 0.192D+00 0.808D+00
 Coeff:      0.977D-01 0.328D+00 0.574D+00
 Gap=     0.388 Goal=   None    Shift=    0.000
 RMSDP=7.76D-04 MaxDP=6.39D-02 DE=-4.40D-01 OVMax= 9.06D-02

 Cycle   4  Pass 1  IDiag  1:
 RMSU=  3.36D-04    CP:  1.00D+00  6.99D-01  3.97D-01
 E= -2835.11620803276     Delta-E=       -0.143336792948 Rises=F Damp=F
 DIIS: error= 4.99D-03 at cycle   4 NSaved=   4.
 NSaved= 4 IEnMin= 4 EnMin= -2835.11620803276     IErMin= 4 ErrMin= 4.99D-03
 ErrMax= 4.99D-03  0.00D+00 EMaxC= 1.00D-01 BMatC= 2.59D-02 BMatP= 2.28D-01
 IDIUse=3 WtCom= 9.50D-01 WtEn= 4.99D-02
 Coeff-Com:  0.767D-02 0.909D-01 0.305D+00 0.597D+00
 Coeff-En:   0.000D+00 0.000D+00 0.766D-01 0.923D+00
 Coeff:      0.728D-02 0.863D-01 0.293D+00 0.613D+00
 Gap=     0.369 Goal=   None    Shift=    0.000
 RMSDP=2.50D-04 MaxDP=2.34D-02 DE=-1.43D-01 OVMax= 2.37D-02

 Cycle   5  Pass 1  IDiag  1:
 RMSU=  1.06D-04    CP:  1.00D+00  6.87D-01  5.85D-01  6.55D-01
 E= -2835.13345168644     Delta-E=       -0.017243653683 Rises=F Damp=F
 DIIS: error= 9.01D-04 at cycle   5 NSaved=   5.
 NSaved= 5 IEnMin= 5 EnMin= -2835.13345168644     IErMin= 5 ErrMin= 9.01D-04
 ErrMax= 9.01D-04  0.00D+00 EMaxC= 1.00D-01 BMatC= 1.71D-03 BMatP= 2.59D-02
 IDIUse=3 WtCom= 9.91D-01 WtEn= 9.01D-03
 Coeff-Com: -0.167D-02 0.273D-01 0.128D+00 0.340D+00 0.507D+00
 Coeff-En:   0.000D+00 0.000D+00 0.000D+00 0.000D+00 0.100D+01
 Coeff:     -0.165D-02 0.271D-01 0.127D+00 0.337D+00 0.511D+00
 Gap=     0.366 Goal=   None    Shift=    0.000
 RMSDP=5.49D-05 MaxDP=3.80D-03 DE=-1.72D-02 OVMax= 5.62D-03

 Cycle   6  Pass 1  IDiag  1:
 RMSU=  2.55D-05    CP:  1.00D+00  6.92D-01  5.71D-01  6.96D-01  6.08D-01
 E= -2835.13465486033     Delta-E=       -0.001203173892 Rises=F Damp=F
 DIIS: error= 1.01D-04 at cycle   6 NSaved=   6.
 NSaved= 6 IEnMin= 6 EnMin= -2835.13465486033     IErMin= 6 ErrMin= 1.01D-04
 ErrMax= 1.01D-04  0.00D+00 EMaxC= 1.00D-01 BMatC= 2.65D-05 BMatP= 1.71D-03
 IDIUse=3 WtCom= 9.99D-01 WtEn= 1.01D-03
 Coeff-Com: -0.742D-03-0.162D-02 0.245D-02 0.228D-01 0.124D+00 0.853D+00
 Coeff-En:   0.000D+00 0.000D+00 0.000D+00 0.000D+00 0.000D+00 0.100D+01
 Coeff:     -0.741D-03-0.162D-02 0.245D-02 0.228D-01 0.124D+00 0.853D+00
 Gap=     0.366 Goal=   None    Shift=    0.000
 RMSDP=1.09D-05 MaxDP=6.89D-04 DE=-1.20D-03 OVMax= 7.73D-04

 Cycle   7  Pass 1  IDiag  1:
 RMSU=  7.69D-06    CP:  1.00D+00  6.91D-01  5.74D-01  7.07D-01  6.63D-01
                    CP:  9.92D-01
 E= -2835.13467671313     Delta-E=       -0.000021852793 Rises=F Damp=F
 DIIS: error= 5.63D-05 at cycle   7 NSaved=   7.
 NSaved= 7 IEnMin= 7 EnMin= -2835.13467671313     IErMin= 7 ErrMin= 5.63D-05
 ErrMax= 5.63D-05  0.00D+00 EMaxC= 1.00D-01 BMatC= 4.63D-06 BMatP= 2.65D-05
 IDIUse=1 WtCom= 1.00D+00 WtEn= 0.00D+00
 Coeff-Com: -0.153D-03-0.276D-02-0.815D-02-0.150D-01 0.195D-01 0.371D+00
 Coeff-Com:  0.635D+00
 Coeff:     -0.153D-03-0.276D-02-0.815D-02-0.150D-01 0.195D-01 0.371D+00
 Coeff:      0.635D+00
 Gap=     0.366 Goal=   None    Shift=    0.000
 RMSDP=3.54D-06 MaxDP=2.72D-04 DE=-2.19D-05 OVMax= 3.23D-04

 Cycle   8  Pass 1  IDiag  1:
 RMSU=  2.23D-06    CP:  1.00D+00  6.92D-01  5.74D-01  7.07D-01  6.74D-01
                    CP:  1.07D+00  8.03D-01
 E= -2835.13468068293     Delta-E=       -0.000003969806 Rises=F Damp=F
 DIIS: error= 9.45D-06 at cycle   8 NSaved=   8.
 NSaved= 8 IEnMin= 8 EnMin= -2835.13468068293     IErMin= 8 ErrMin= 9.45D-06
 ErrMax= 9.45D-06  0.00D+00 EMaxC= 1.00D-01 BMatC= 2.74D-07 BMatP= 4.63D-06
 IDIUse=1 WtCom= 1.00D+00 WtEn= 0.00D+00
 Coeff-Com:  0.806D-05-0.845D-03-0.295D-02-0.757D-02-0.449D-02 0.418D-01
 Coeff-Com:  0.199D+00 0.775D+00
 Coeff:      0.806D-05-0.845D-03-0.295D-02-0.757D-02-0.449D-02 0.418D-01
 Coeff:      0.199D+00 0.775D+00
 Gap=     0.366 Goal=   None    Shift=    0.000
 RMSDP=1.25D-06 MaxDP=1.15D-04 DE=-3.97D-06 OVMax= 1.50D-04

 Cycle   9  Pass 1  IDiag  1:
 RMSU=  8.09D-07    CP:  1.00D+00  6.91D-01  5.75D-01  7.07D-01  6.78D-01
                    CP:  1.08D+00  8.75D-01  1.05D+00
 E= -2835.13468095668     Delta-E=       -0.000000273747 Rises=F Damp=F
 DIIS: error= 3.87D-06 at cycle   9 NSaved=   9.
 NSaved= 9 IEnMin= 9 EnMin= -2835.13468095668     IErMin= 9 ErrMin= 3.87D-06
 ErrMax= 3.87D-06  0.00D+00 EMaxC= 1.00D-01 BMatC= 5.31D-08 BMatP= 2.74D-07
 IDIUse=1 WtCom= 1.00D+00 WtEn= 0.00D+00
 Coeff-Com:  0.222D-04 0.503D-04 0.173D-04-0.103D-02-0.490D-02-0.421D-01
 Coeff-Com: -0.126D-01 0.334D+00 0.726D+00
 Coeff:      0.222D-04 0.503D-04 0.173D-04-0.103D-02-0.490D-02-0.421D-01
 Coeff:     -0.126D-01 0.334D+00 0.726D+00
 Gap=     0.366 Goal=   None    Shift=    0.000
 RMSDP=5.15D-07 MaxDP=5.05D-05 DE=-2.74D-07 OVMax= 7.02D-05

 Cycle  10  Pass 1  IDiag  1:
 RMSU=  2.80D-07    CP:  1.00D+00  6.91D-01  5.75D-01  7.07D-01  6.79D-01
                    CP:  1.09D+00  9.00D-01  1.16D+00  9.39D-01
 E= -2835.13468100905     Delta-E=       -0.000000052374 Rises=F Damp=F
 DIIS: error= 1.48D-06 at cycle  10 NSaved=  10.
 NSaved=10 IEnMin=10 EnMin= -2835.13468100905     IErMin=10 ErrMin= 1.48D-06
 ErrMax= 1.48D-06  0.00D+00 EMaxC= 1.00D-01 BMatC= 3.09D-09 BMatP= 5.31D-08
 IDIUse=1 WtCom= 1.00D+00 WtEn= 0.00D+00
 Coeff-Com:  0.605D-05 0.975D-04 0.308D-03 0.381D-03-0.907D-03-0.174D-01
 Coeff-Com: -0.218D-01 0.361D-01 0.229D+00 0.774D+00
 Coeff:      0.605D-05 0.975D-04 0.308D-03 0.381D-03-0.907D-03-0.174D-01
 Coeff:     -0.218D-01 0.361D-01 0.229D+00 0.774D+00
 Gap=     0.366 Goal=   None    Shift=    0.000
 RMSDP=1.45D-07 MaxDP=1.26D-05 DE=-5.24D-08 OVMax= 2.01D-05

 Cycle  11  Pass 1  IDiag  1:
 RMSU=  8.93D-08    CP:  1.00D+00  6.91D-01  5.75D-01  7.07D-01  6.79D-01
                    CP:  1.09D+00  9.06D-01  1.19D+00  1.01D+00  9.67D-01
 E= -2835.13468101226     Delta-E=       -0.000000003209 Rises=F Damp=F
 DIIS: error= 5.25D-07 at cycle  11 NSaved=  11.
 NSaved=11 IEnMin=11 EnMin= -2835.13468101226     IErMin=11 ErrMin= 5.25D-07
 ErrMax= 5.25D-07  0.00D+00 EMaxC= 1.00D-01 BMatC= 5.51D-10 BMatP= 3.09D-09
 IDIUse=1 WtCom= 1.00D+00 WtEn= 0.00D+00
 Coeff-Com:  0.116D-05 0.397D-04 0.143D-03 0.243D-03 0.635D-04-0.446D-02
 Coeff-Com: -0.855D-02-0.933D-02 0.451D-01 0.341D+00 0.636D+00
 Coeff:      0.116D-05 0.397D-04 0.143D-03 0.243D-03 0.635D-04-0.446D-02
 Coeff:     -0.855D-02-0.933D-02 0.451D-01 0.341D+00 0.636D+00
 Gap=     0.366 Goal=   None    Shift=    0.000
 RMSDP=4.38D-08 MaxDP=4.76D-06 DE=-3.21D-09 OVMax= 5.41D-06

 Cycle  12  Pass 1  IDiag  1:
 RMSU=  2.90D-08    CP:  1.00D+00  6.91D-01  5.75D-01  7.07D-01  6.79D-01
                    CP:  1.09D+00  9.07D-01  1.19D+00  1.03D+00  1.04D+00
                    CP:  9.03D-01
 E= -2835.13468101262     Delta-E=       -0.000000000362 Rises=F Damp=F
 DIIS: error= 2.97D-07 at cycle  12 NSaved=  12.
 NSaved=12 IEnMin=12 EnMin= -2835.13468101262     IErMin=12 ErrMin= 2.97D-07
 ErrMax= 2.97D-07  0.00D+00 EMaxC= 1.00D-01 BMatC= 8.03D-11 BMatP= 5.51D-10
 IDIUse=1 WtCom= 1.00D+00 WtEn= 0.00D+00
 Coeff-Com: -0.426D-06 0.177D-05 0.168D-04 0.461D-04 0.236D-03 0.988D-03
 Coeff-Com: -0.629D-04-0.103D-01-0.193D-01 0.153D-01 0.272D+00 0.741D+00
 Coeff:     -0.426D-06 0.177D-05 0.168D-04 0.461D-04 0.236D-03 0.988D-03
 Coeff:     -0.629D-04-0.103D-01-0.193D-01 0.153D-01 0.272D+00 0.741D+00
 Gap=     0.366 Goal=   None    Shift=    0.000
 RMSDP=1.93D-08 MaxDP=2.04D-06 DE=-3.62D-10 OVMax= 2.27D-06

 Cycle  13  Pass 1  IDiag  1:
 RMSU=  1.05D-08    CP:  1.00D+00  6.91D-01  5.75D-01  7.07D-01  6.79D-01
                    CP:  1.09D+00  9.07D-01  1.19D+00  1.03D+00  1.06D+00
                    CP:  9.93D-01  8.57D-01
 E= -2835.13468101254     Delta-E=        0.000000000089 Rises=F Damp=F
 DIIS: error= 1.09D-07 at cycle  13 NSaved=  13.
 NSaved=13 IEnMin=12 EnMin= -2835.13468101262     IErMin=13 ErrMin= 1.09D-07
 ErrMax= 1.09D-07  0.00D+00 EMaxC= 1.00D-01 BMatC= 8.16D-12 BMatP= 8.03D-11
 IDIUse=1 WtCom= 1.00D+00 WtEn= 0.00D+00
 Coeff-Com: -0.281D-06-0.245D-05-0.328D-05 0.390D-06 0.105D-03 0.787D-03
 Coeff-Com:  0.682D-03-0.370D-02-0.123D-01-0.250D-01 0.549D-01 0.316D+00
 Coeff-Com:  0.669D+00
 Coeff:     -0.281D-06-0.245D-05-0.328D-05 0.390D-06 0.105D-03 0.787D-03
 Coeff:      0.682D-03-0.370D-02-0.123D-01-0.250D-01 0.549D-01 0.316D+00
 Coeff:      0.669D+00
 Gap=     0.366 Goal=   None    Shift=    0.000
 RMSDP=6.03D-09 MaxDP=5.84D-07 DE= 8.91D-11 OVMax= 8.41D-07

 Error on total polarization charges =  0.00218
 SCF Done:  E(RCAM-B3LYP) =  -2835.13468101     A.U. after   13 cycles
            NFock= 13  Conv=0.60D-08     -V/T= 2.0074
 KE= 2.814376879708D+03 PE=-1.806020039225D+04 EE= 6.731329711200D+03
 Leave Link  502 at Sun Mar  3 17:47:53 2024, MaxMem=  5368709120 cpu:      1145.4
 (Enter /home/k0335/k033513/app/g09/l601.exe)
 Copying SCF densities to generalized density rwf, IOpCl= 0 IROHF=0.

 **********************************************************************

            Population analysis using the SCF density.

 **********************************************************************

 Alpha  occ. eigenvalues --  -24.84007 -24.83828 -24.83636 -24.83614 -24.83585
 Alpha  occ. eigenvalues --  -24.83579 -24.83520 -24.83268 -24.83226 -24.83103
 Alpha  occ. eigenvalues --  -24.83048 -24.82851 -24.82639 -24.82621 -24.82532
 Alpha  occ. eigenvalues --  -24.81840 -24.81636 -24.81473 -19.33105 -19.33093
 Alpha  occ. eigenvalues --  -19.23558 -19.23454 -19.23220 -14.52777 -14.51058
 Alpha  occ. eigenvalues --  -14.50217 -10.59673 -10.59659 -10.55314 -10.55246
 Alpha  occ. eigenvalues --  -10.53070 -10.49035 -10.48117 -10.47589 -10.45649
 Alpha  occ. eigenvalues --  -10.45375 -10.44572 -10.34384 -10.31012  -1.43499
 Alpha  occ. eigenvalues --   -1.43292  -1.41794  -1.41582  -1.38613  -1.37443
 Alpha  occ. eigenvalues --   -1.35479  -1.35320  -1.34000  -1.33673  -1.33482
 Alpha  occ. eigenvalues --   -1.33358  -1.32779  -1.32590  -1.32154  -1.32084
 Alpha  occ. eigenvalues --   -1.31038  -1.30558  -1.22295  -1.20539  -1.20460
 Alpha  occ. eigenvalues --   -1.17183  -1.16975  -1.09201  -1.07161  -1.05787
 Alpha  occ. eigenvalues --   -0.93688  -0.92950  -0.88488  -0.84871  -0.83395
 Alpha  occ. eigenvalues --   -0.82357  -0.82250  -0.80032  -0.78314  -0.76695
 Alpha  occ. eigenvalues --   -0.75390  -0.74598  -0.73633  -0.73308  -0.72707
 Alpha  occ. eigenvalues --   -0.71593  -0.71145  -0.70959  -0.70482  -0.70140
 Alpha  occ. eigenvalues --   -0.69326  -0.68822  -0.68556  -0.68436  -0.67569
 Alpha  occ. eigenvalues --   -0.67138  -0.65995  -0.65047  -0.64486  -0.63875
 Alpha  occ. eigenvalues --   -0.63567  -0.61492  -0.59941  -0.59508  -0.58816
 Alpha  occ. eigenvalues --   -0.57584  -0.57345  -0.57216  -0.57031  -0.56982
 Alpha  occ. eigenvalues --   -0.56416  -0.56172  -0.55990  -0.55718  -0.55409
 Alpha  occ. eigenvalues --   -0.55340  -0.55106  -0.54959  -0.54707  -0.54538
 Alpha  occ. eigenvalues --   -0.54248  -0.54000  -0.53581  -0.53510  -0.53246
 Alpha  occ. eigenvalues --   -0.52762  -0.52701  -0.52445  -0.52064  -0.51793
 Alpha  occ. eigenvalues --   -0.51454  -0.51385  -0.50963  -0.50750  -0.50576
 Alpha  occ. eigenvalues --   -0.50461  -0.50113  -0.49967  -0.49893  -0.49721
 Alpha  occ. eigenvalues --   -0.49219  -0.48924  -0.48847  -0.48661  -0.48119
 Alpha  occ. eigenvalues --   -0.47961  -0.47912  -0.47595  -0.47092  -0.45362
 Alpha  occ. eigenvalues --   -0.43849  -0.43177  -0.39644  -0.39302  -0.38391
 Alpha  occ. eigenvalues --   -0.36841  -0.35961  -0.35479
 Alpha virt. eigenvalues --    0.01161   0.01711   0.05914   0.06860   0.07292
 Alpha virt. eigenvalues --    0.08838   0.12209   0.14831   0.14974   0.15697
 Alpha virt. eigenvalues --    0.16097   0.17198   0.17777   0.18799   0.18911
 Alpha virt. eigenvalues --    0.19838   0.19947   0.20988   0.21260   0.22294
 Alpha virt. eigenvalues --    0.22530   0.22678   0.22926   0.22998   0.23404
 Alpha virt. eigenvalues --    0.23867   0.24517   0.24884   0.25145   0.25590
 Alpha virt. eigenvalues --    0.26585   0.26994   0.27480   0.27747   0.28151
 Alpha virt. eigenvalues --    0.29609   0.31040   0.31461   0.32533   0.32957
 Alpha virt. eigenvalues --    0.33556   0.35039   0.37320   0.38417   0.39251
 Alpha virt. eigenvalues --    0.39945   0.46011   0.47423   0.48643   0.49336
 Alpha virt. eigenvalues --    0.49769   0.50776   0.51610   0.51912   0.52102
 Alpha virt. eigenvalues --    0.52737   0.54061   0.54163   0.54687   0.55157
 Alpha virt. eigenvalues --    0.55654   0.56094   0.56576   0.56891   0.57475
 Alpha virt. eigenvalues --    0.58648   0.59237   0.59675   0.60813   0.61343
 Alpha virt. eigenvalues --    0.61897   0.63018   0.63655   0.64293   0.66099
 Alpha virt. eigenvalues --    0.67381   0.69288   0.69752   0.71005   0.72408
 Alpha virt. eigenvalues --    0.73413   0.73804   0.74885   0.75494   0.78787
 Alpha virt. eigenvalues --    0.80440   0.80963   0.82327   0.83142   0.83661
 Alpha virt. eigenvalues --    0.84414   0.86481   0.86959   0.87777   0.88400
 Alpha virt. eigenvalues --    0.88892   0.90605   0.90896   0.91941   0.92600
 Alpha virt. eigenvalues --    0.93576   0.94559   0.96395   0.96916   0.97470
 Alpha virt. eigenvalues --    0.97791   0.98867   1.00158   1.00687   1.01678
 Alpha virt. eigenvalues --    1.03008   1.03889   1.05242   1.05963   1.07464
 Alpha virt. eigenvalues --    1.08272   1.08831   1.08992   1.09605   1.10339
 Alpha virt. eigenvalues --    1.10825   1.11921   1.12119   1.12867   1.13646
 Alpha virt. eigenvalues --    1.14071   1.15320   1.15822   1.16175   1.16507
 Alpha virt. eigenvalues --    1.17262   1.17976   1.18588   1.19097   1.19657
 Alpha virt. eigenvalues --    1.19901   1.20651   1.21471   1.22328   1.22982
 Alpha virt. eigenvalues --    1.24113   1.24355   1.25300   1.26324   1.27189
 Alpha virt. eigenvalues --    1.28167   1.28914   1.30185   1.30790   1.31071
 Alpha virt. eigenvalues --    1.31928   1.32346   1.32568   1.33494   1.33955
 Alpha virt. eigenvalues --    1.34670   1.34889   1.35510   1.35738   1.36457
 Alpha virt. eigenvalues --    1.36685   1.37329   1.37750   1.38871   1.39099
 Alpha virt. eigenvalues --    1.39956   1.40400   1.40506   1.40958   1.41148
 Alpha virt. eigenvalues --    1.41678   1.41981   1.42196   1.43578   1.43837
 Alpha virt. eigenvalues --    1.44531   1.44932   1.46179   1.47022   1.47573
 Alpha virt. eigenvalues --    1.49157   1.49399   1.49890   1.50618   1.51056
 Alpha virt. eigenvalues --    1.51484   1.51966   1.52502   1.53731   1.54116
 Alpha virt. eigenvalues --    1.54542   1.55779   1.56224   1.56899   1.56924
 Alpha virt. eigenvalues --    1.57626   1.58967   1.59125   1.60466   1.60618
 Alpha virt. eigenvalues --    1.62418   1.62786   1.64544   1.65003   1.66585
 Alpha virt. eigenvalues --    1.66914   1.67562   1.68513   1.69660   1.70495
 Alpha virt. eigenvalues --    1.70827   1.71259   1.72508   1.72692   1.73292
 Alpha virt. eigenvalues --    1.74122   1.74677   1.75182   1.75934   1.77465
 Alpha virt. eigenvalues --    1.77902   1.79054   1.79590   1.80165   1.80761
 Alpha virt. eigenvalues --    1.81206   1.82545   1.82784   1.83248   1.83908
 Alpha virt. eigenvalues --    1.84527   1.84731   1.85080   1.85907   1.86092
 Alpha virt. eigenvalues --    1.86626   1.87100   1.87583   1.87755   1.88139
 Alpha virt. eigenvalues --    1.88451   1.88918   1.89450   1.89905   1.90359
 Alpha virt. eigenvalues --    1.91000   1.91314   1.91629   1.92692   1.92900
 Alpha virt. eigenvalues --    1.93413   1.93754   1.94397   1.94673   1.95240
 Alpha virt. eigenvalues --    1.95630   1.96292   1.96387   1.97170   1.97392
 Alpha virt. eigenvalues --    1.98029   1.98633   1.99196   1.99878   2.00263
 Alpha virt. eigenvalues --    2.00626   2.01085   2.01320   2.01704   2.02193
 Alpha virt. eigenvalues --    2.02541   2.03149   2.03338   2.03436   2.03533
 Alpha virt. eigenvalues --    2.03656   2.04383   2.04654   2.04885   2.05077
 Alpha virt. eigenvalues --    2.06016   2.06411   2.08168   2.08560   2.08773
 Alpha virt. eigenvalues --    2.09008   2.09676   2.10103   2.10340   2.10732
 Alpha virt. eigenvalues --    2.11703   2.11932   2.12029   2.12832   2.13454
 Alpha virt. eigenvalues --    2.13803   2.15713   2.16903   2.17433   2.17881
 Alpha virt. eigenvalues --    2.18451   2.19394   2.19629   2.20426   2.21008
 Alpha virt. eigenvalues --    2.21798   2.21945   2.22497   2.23428   2.23572
 Alpha virt. eigenvalues --    2.24274   2.25969   2.26726   2.28184   2.28291
 Alpha virt. eigenvalues --    2.30000   2.31117   2.31900   2.32683   2.33547
 Alpha virt. eigenvalues --    2.34966   2.35845   2.36576   2.37535   2.38183
 Alpha virt. eigenvalues --    2.39996   2.40281   2.42154   2.42850   2.43410
 Alpha virt. eigenvalues --    2.44715   2.45238   2.45845   2.46083   2.47615
 Alpha virt. eigenvalues --    2.47854   2.49126   2.49587   2.50820   2.52206
 Alpha virt. eigenvalues --    2.52803   2.54061   2.56241   2.57028   2.57886
 Alpha virt. eigenvalues --    2.60902   2.62106   2.62755   2.62905   2.64407
 Alpha virt. eigenvalues --    2.65309   2.66225   2.66945   2.69052   2.70383
 Alpha virt. eigenvalues --    2.71929   2.72449   2.72791   2.74102   2.74485
 Alpha virt. eigenvalues --    2.76132   2.77074   2.78517   2.79747   2.80300
 Alpha virt. eigenvalues --    2.81562   2.84958   2.85253   2.86239   2.86621
 Alpha virt. eigenvalues --    2.87159   2.88600   2.89728   2.90464   2.91369
 Alpha virt. eigenvalues --    2.91980   2.92966   2.93974   2.94507   2.95144
 Alpha virt. eigenvalues --    2.96543   2.97290   2.97534   2.98101   3.00653
 Alpha virt. eigenvalues --    3.01827   3.03110   3.04749   3.04986   3.06094
 Alpha virt. eigenvalues --    3.06301   3.06578   3.06909   3.07951   3.09523
 Alpha virt. eigenvalues --    3.12658   3.12868   3.16228   3.16779   3.18352
 Alpha virt. eigenvalues --    3.19692   3.20550   3.20946   3.22154   3.24260
 Alpha virt. eigenvalues --    3.25656   3.27029   3.27519   3.29483   3.30091
 Alpha virt. eigenvalues --    3.30628   3.36817   3.38581   3.45487   3.47858
 Alpha virt. eigenvalues --    3.51948   3.53572   3.57218   3.99767   4.05957
 Alpha virt. eigenvalues --    4.13158   4.13590   4.18228   4.25330   4.28141
 Alpha virt. eigenvalues --    4.30755   4.34413   4.38792   4.39795   4.43049
 Alpha virt. eigenvalues --    4.44423   4.46882   4.51316   4.52946   4.61655
 Alpha virt. eigenvalues --    4.65606   4.68455   4.71048   4.72132   4.76491
 Alpha virt. eigenvalues --    4.84487   4.88243   5.00600   5.02148   5.03571
 Alpha virt. eigenvalues --    5.13563   5.19265   5.26312   5.46544   5.48721
 Alpha virt. eigenvalues --    5.64128   5.66990   5.76942   6.16445   6.22524
 Alpha virt. eigenvalues --    6.72927   6.81423
          Condensed to atoms (all electrons):
               1          2          3          4          5          6
     1  C    4.796620   0.257737  -0.027315  -0.000455   0.003258  -0.000090
     2  N    0.257737   7.265518   0.261017  -0.090084  -0.098360   0.003279
     3  C   -0.027315   0.261017   4.157115   0.597121   0.240791  -0.026940
     4  O   -0.000455  -0.090084   0.597121   8.083414  -0.089173   0.000135
     5  N    0.003258  -0.098360   0.240791  -0.089173   7.335124   0.251473
     6  C   -0.000090   0.003279  -0.026940   0.000135   0.251473   5.003214
     7  C    0.000000  -0.000230  -0.004121  -0.001492  -0.028676   0.314880
     8  F    0.000003  -0.000062   0.011521  -0.001770  -0.003148  -0.043339
     9  F    0.000000  -0.000001  -0.000271   0.000002  -0.003132  -0.041450
    10  C    0.000000  -0.000002   0.000220  -0.000143   0.002153  -0.064021
    11  F    0.000000   0.000000  -0.000036   0.000003   0.000090  -0.001873
    12  O    0.000000   0.000000  -0.000001   0.000000   0.000117  -0.002596
    13  C    0.000000   0.000000   0.000000   0.000000   0.000000  -0.000104
    14  F    0.000000   0.000000   0.000000   0.000000   0.000000  -0.000003
    15  F    0.000000   0.000000   0.000000   0.000000   0.000000   0.000004
    16  F    0.000000   0.000000   0.000000   0.000000   0.000000  -0.000009
    17  C    0.000000   0.000000  -0.000005   0.000001  -0.000048   0.004927
    18  F    0.000000   0.000000   0.000000   0.000000   0.000000  -0.000029
    19  F    0.000000   0.000000   0.000000   0.000000   0.000000  -0.000032
    20  F    0.000000   0.000000   0.000001   0.000000  -0.000001   0.000034
    21  C    0.000227  -0.001659  -0.018553   0.000510   0.236282  -0.028342
    22  O    0.000003   0.000154   0.000361  -0.000028  -0.088364   0.000610
    23  N    0.003401  -0.096081  -0.001650   0.000065  -0.093966   0.003131
    24  C   -0.000035   0.002233   0.000281   0.000002   0.001061  -0.000039
    25  F    0.000000  -0.000022   0.000003   0.000000   0.000053   0.000007
    26  F    0.000006   0.000037   0.000003   0.000000  -0.000031   0.000000
    27  C    0.000002  -0.000160   0.000044   0.000000  -0.000122   0.000001
    28  F    0.000002  -0.000137   0.000023   0.000000  -0.000006   0.000000
    29  O    0.000000   0.000000   0.000000   0.000000   0.000000   0.000000
    30  C    0.000000   0.000000   0.000000   0.000000   0.000000   0.000000
    31  F    0.000000   0.000000   0.000000   0.000000   0.000000   0.000000
    32  F    0.000000   0.000000   0.000000   0.000000   0.000000   0.000000
    33  F    0.000000   0.000000   0.000000   0.000000   0.000000   0.000000
    34  C    0.000000   0.000020  -0.000006   0.000000  -0.000029   0.000000
    35  F    0.000000   0.000000   0.000000   0.000000   0.000000   0.000000
    36  F    0.000000  -0.000008   0.000025   0.000000  -0.000549   0.000007
    37  F    0.000000   0.000000   0.000000   0.000000  -0.000002   0.000000
    38  C   -0.027796   0.262777  -0.020759   0.000217  -0.001004   0.000141
    39  O    0.000742  -0.092568   0.000121  -0.000023   0.000103   0.000002
    40  H    0.401959  -0.041468  -0.002198   0.000634  -0.000098   0.000003
    41  H    0.387925  -0.030726  -0.003266   0.007584   0.000400   0.000003
    42  H    0.388383  -0.030267   0.003945   0.000559  -0.000063   0.000001
    43  H    0.000002  -0.000037   0.004381   0.000445  -0.032625   0.369712
    44  H    0.000004   0.000463  -0.004533   0.012808  -0.031881   0.367641
               7          8          9         10         11         12
     1  C    0.000000   0.000003   0.000000   0.000000   0.000000   0.000000
     2  N   -0.000230  -0.000062  -0.000001  -0.000002   0.000000   0.000000
     3  C   -0.004121   0.011521  -0.000271   0.000220  -0.000036  -0.000001
     4  O   -0.001492  -0.001770   0.000002  -0.000143   0.000003   0.000000
     5  N   -0.028676  -0.003148  -0.003132   0.002153   0.000090   0.000117
     6  C    0.314880  -0.043339  -0.041450  -0.064021  -0.001873  -0.002596
     7  C    4.520162   0.263194   0.256912   0.216769  -0.019843  -0.028002
     8  F    0.263194   9.113761  -0.040421  -0.024873  -0.000334   0.000579
     9  F    0.256912  -0.040421   9.120240  -0.036481   0.000324   0.001136
    10  C    0.216769  -0.024873  -0.036481   5.026828   0.204991   0.137204
    11  F   -0.019843  -0.000334   0.000324   0.204991   9.148245  -0.049139
    12  O   -0.028002   0.000579   0.001136   0.137204  -0.049139   8.378056
    13  C    0.000981   0.000008  -0.000038  -0.000826  -0.000692   0.235603
    14  F   -0.000037   0.000000   0.000000   0.000679  -0.000020  -0.039641
    15  F   -0.000188   0.000000   0.000001  -0.009107  -0.000015  -0.047264
    16  F    0.000271   0.000000   0.000000   0.013517  -0.001573  -0.045768
    17  C   -0.025521   0.000713   0.006513   0.212209  -0.014373  -0.026968
    18  F    0.001657  -0.000002   0.000000  -0.033020  -0.000026  -0.001478
    19  F    0.002187  -0.000214   0.000012  -0.035732   0.000293   0.000433
    20  F    0.003780  -0.001869  -0.000487  -0.028522  -0.000202   0.000535
    21  C   -0.003766  -0.000323   0.011304   0.000330   0.000000  -0.000036
    22  O   -0.001926   0.000003  -0.001774  -0.000073   0.000000  -0.000005
    23  N   -0.000283  -0.000004  -0.000068  -0.000001   0.000000   0.000000
    24  C    0.000002   0.000000   0.000006   0.000000   0.000000   0.000000
    25  F   -0.000001   0.000000   0.000000   0.000000   0.000000   0.000000
    26  F    0.000000   0.000000   0.000000   0.000000   0.000000   0.000000
    27  C    0.000000   0.000000   0.000000   0.000000   0.000000   0.000000
    28  F    0.000000   0.000000   0.000000   0.000000   0.000000   0.000000
    29  O    0.000000   0.000000   0.000000   0.000000   0.000000   0.000000
    30  C    0.000000   0.000000   0.000000   0.000000   0.000000   0.000000
    31  F    0.000000   0.000000   0.000000   0.000000   0.000000   0.000000
    32  F    0.000000   0.000000   0.000000   0.000000   0.000000   0.000000
    33  F    0.000000   0.000000   0.000000   0.000000   0.000000   0.000000
    34  C    0.000000   0.000000   0.000000   0.000000   0.000000   0.000000
    35  F    0.000000   0.000000   0.000000   0.000000   0.000000   0.000000
    36  F    0.000000   0.000000   0.000000   0.000000   0.000000   0.000000
    37  F    0.000000   0.000000   0.000000   0.000000   0.000000   0.000000
    38  C    0.000076   0.000011   0.000007   0.000001   0.000000   0.000000
    39  O    0.000000   0.000000   0.000000   0.000000   0.000000   0.000000
    40  H    0.000000   0.000000   0.000000   0.000000   0.000000   0.000000
    41  H    0.000000  -0.000002   0.000000   0.000000   0.000000   0.000000
    42  H    0.000000   0.000000   0.000000   0.000000   0.000000   0.000000
    43  H   -0.025369   0.001930  -0.000445  -0.003954   0.000110   0.007069
    44  H   -0.029823  -0.000388   0.002052  -0.001230   0.008091   0.000154
              13         14         15         16         17         18
     1  C    0.000000   0.000000   0.000000   0.000000   0.000000   0.000000
     2  N    0.000000   0.000000   0.000000   0.000000   0.000000   0.000000
     3  C    0.000000   0.000000   0.000000   0.000000  -0.000005   0.000000
     4  O    0.000000   0.000000   0.000000   0.000000   0.000001   0.000000
     5  N    0.000000   0.000000   0.000000   0.000000  -0.000048   0.000000
     6  C   -0.000104  -0.000003   0.000004  -0.000009   0.004927  -0.000029
     7  C    0.000981  -0.000037  -0.000188   0.000271  -0.025521   0.001657
     8  F    0.000008   0.000000   0.000000   0.000000   0.000713  -0.000002
     9  F   -0.000038   0.000000   0.000001   0.000000   0.006513   0.000000
    10  C   -0.000826   0.000679  -0.009107   0.013517   0.212209  -0.033020
    11  F   -0.000692  -0.000020  -0.000015  -0.001573  -0.014373  -0.000026
    12  O    0.235603  -0.039641  -0.047264  -0.045768  -0.026968  -0.001478
    13  C    3.821573   0.339205   0.303253   0.295606  -0.003531   0.012049
    14  F    0.339205   9.013327  -0.037449  -0.036490  -0.000020  -0.000004
    15  F    0.303253  -0.037449   9.056535  -0.033711   0.017364  -0.006779
    16  F    0.295606  -0.036490  -0.033711   9.056720  -0.004545  -0.001793
    17  C   -0.003531  -0.000020   0.017364  -0.004545   4.179981   0.280206
    18  F    0.012049  -0.000004  -0.006779  -0.001793   0.280206   9.086889
    19  F   -0.000313   0.000000  -0.000441   0.000014   0.271282  -0.038389
    20  F    0.000056   0.000000   0.000000   0.000001   0.289649  -0.039752
    21  C    0.000000   0.000000   0.000000   0.000000  -0.000005   0.000000
    22  O   -0.000001   0.000000   0.000000   0.000000   0.000001   0.000000
    23  N    0.000000   0.000000   0.000000   0.000000   0.000000   0.000000
    24  C    0.000000   0.000000   0.000000   0.000000   0.000000   0.000000
    25  F    0.000000   0.000000   0.000000   0.000000   0.000000   0.000000
    26  F    0.000000   0.000000   0.000000   0.000000   0.000000   0.000000
    27  C    0.000000   0.000000   0.000000   0.000000   0.000000   0.000000
    28  F    0.000000   0.000000   0.000000   0.000000   0.000000   0.000000
    29  O    0.000000   0.000000   0.000000   0.000000   0.000000   0.000000
    30  C    0.000000   0.000000   0.000000   0.000000   0.000000   0.000000
    31  F    0.000000   0.000000   0.000000   0.000000   0.000000   0.000000
    32  F    0.000000   0.000000   0.000000   0.000000   0.000000   0.000000
    33  F    0.000000   0.000000   0.000000   0.000000   0.000000   0.000000
    34  C    0.000000   0.000000   0.000000   0.000000   0.000000   0.000000
    35  F    0.000000   0.000000   0.000000   0.000000   0.000000   0.000000
    36  F    0.000000   0.000000   0.000000   0.000000   0.000000   0.000000
    37  F    0.000000   0.000000   0.000000   0.000000   0.000000   0.000000
    38  C    0.000000   0.000000   0.000000   0.000000   0.000000   0.000000
    39  O    0.000000   0.000000   0.000000   0.000000   0.000000   0.000000
    40  H    0.000000   0.000000   0.000000   0.000000   0.000000   0.000000
    41  H    0.000000   0.000000   0.000000   0.000000   0.000000   0.000000
    42  H    0.000000   0.000000   0.000000   0.000000   0.000000   0.000000
    43  H    0.000149  -0.000011   0.000002   0.000007   0.000013   0.000000
    44  H    0.000000   0.000001   0.000000   0.000002   0.000115   0.000000
              19         20         21         22         23         24
     1  C    0.000000   0.000000   0.000227   0.000003   0.003401  -0.000035
     2  N    0.000000   0.000000  -0.001659   0.000154  -0.096081   0.002233
     3  C    0.000000   0.000001  -0.018553   0.000361  -0.001650   0.000281
     4  O    0.000000   0.000000   0.000510  -0.000028   0.000065   0.000002
     5  N    0.000000  -0.000001   0.236282  -0.088364  -0.093966   0.001061
     6  C   -0.000032   0.000034  -0.028342   0.000610   0.003131  -0.000039
     7  C    0.002187   0.003780  -0.003766  -0.001926  -0.000283   0.000002
     8  F   -0.000214  -0.001869  -0.000323   0.000003  -0.000004   0.000000
     9  F    0.000012  -0.000487   0.011304  -0.001774  -0.000068   0.000006
    10  C   -0.035732  -0.028522   0.000330  -0.000073  -0.000001   0.000000
    11  F    0.000293  -0.000202   0.000000   0.000000   0.000000   0.000000
    12  O    0.000433   0.000535  -0.000036  -0.000005   0.000000   0.000000
    13  C   -0.000313   0.000056   0.000000  -0.000001   0.000000   0.000000
    14  F    0.000000   0.000000   0.000000   0.000000   0.000000   0.000000
    15  F   -0.000441   0.000000   0.000000   0.000000   0.000000   0.000000
    16  F    0.000014   0.000001   0.000000   0.000000   0.000000   0.000000
    17  C    0.271282   0.289649  -0.000005   0.000001   0.000000   0.000000
    18  F   -0.038389  -0.039752   0.000000   0.000000   0.000000   0.000000
    19  F    9.085070  -0.037619   0.000001   0.000000   0.000000   0.000000
    20  F   -0.037619   9.059447   0.000000   0.000000   0.000000   0.000000
    21  C    0.000001   0.000000   4.207022   0.550464   0.204318  -0.008006
    22  O    0.000000   0.000000   0.550464   8.132128  -0.088750   0.013866
    23  N    0.000000   0.000000   0.204318  -0.088750   7.542260   0.182295
    24  C    0.000000   0.000000  -0.008006   0.013866   0.182295   4.434056
    25  F    0.000000   0.000000   0.006438  -0.013606  -0.036175   0.259452
    26  F    0.000000   0.000000   0.000375   0.000020  -0.043399   0.260284
    27  C    0.000000   0.000000  -0.000641  -0.004632  -0.067895   0.188660
    28  F    0.000000   0.000000  -0.000243   0.000018  -0.001381  -0.027510
    29  O    0.000000   0.000000   0.000031   0.000000   0.001916  -0.034016
    30  C    0.000000   0.000000   0.000003   0.000002   0.000255  -0.005533
    31  F    0.000000   0.000000   0.000000   0.000000   0.000000  -0.000141
    32  F    0.000000   0.000000   0.000000   0.000000  -0.000001  -0.000481
    33  F    0.000000   0.000000   0.000009   0.000000   0.000064   0.014068
    34  C    0.000000   0.000000   0.001095   0.007364  -0.001572  -0.043824
    35  F    0.000000   0.000000   0.000006  -0.000001  -0.000012   0.001802
    36  F    0.000000   0.000000   0.014921  -0.008601  -0.001272  -0.000048
    37  F    0.000000   0.000000  -0.000431   0.000057  -0.000202   0.002764
    38  C    0.000000   0.000000  -0.015014  -0.000165   0.209011  -0.014696
    39  O    0.000000   0.000000   0.000032  -0.000030  -0.087513   0.012557
    40  H    0.000000   0.000000  -0.000020   0.000000  -0.000094   0.000005
    41  H    0.000000   0.000000  -0.000020   0.000000  -0.000054   0.000000
    42  H    0.000000   0.000000  -0.000018   0.000000   0.000290   0.000003
    43  H   -0.000006   0.000000  -0.004186   0.013031   0.000511   0.000007
    44  H    0.000000  -0.000010   0.004552   0.000458  -0.000028   0.000002
              25         26         27         28         29         30
     1  C    0.000000   0.000006   0.000002   0.000002   0.000000   0.000000
     2  N   -0.000022   0.000037  -0.000160  -0.000137   0.000000   0.000000
     3  C    0.000003   0.000003   0.000044   0.000023   0.000000   0.000000
     4  O    0.000000   0.000000   0.000000   0.000000   0.000000   0.000000
     5  N    0.000053  -0.000031  -0.000122  -0.000006   0.000000   0.000000
     6  C    0.000007   0.000000   0.000001   0.000000   0.000000   0.000000
     7  C   -0.000001   0.000000   0.000000   0.000000   0.000000   0.000000
     8  F    0.000000   0.000000   0.000000   0.000000   0.000000   0.000000
     9  F    0.000000   0.000000   0.000000   0.000000   0.000000   0.000000
    10  C    0.000000   0.000000   0.000000   0.000000   0.000000   0.000000
    11  F    0.000000   0.000000   0.000000   0.000000   0.000000   0.000000
    12  O    0.000000   0.000000   0.000000   0.000000   0.000000   0.000000
    13  C    0.000000   0.000000   0.000000   0.000000   0.000000   0.000000
    14  F    0.000000   0.000000   0.000000   0.000000   0.000000   0.000000
    15  F    0.000000   0.000000   0.000000   0.000000   0.000000   0.000000
    16  F    0.000000   0.000000   0.000000   0.000000   0.000000   0.000000
    17  C    0.000000   0.000000   0.000000   0.000000   0.000000   0.000000
    18  F    0.000000   0.000000   0.000000   0.000000   0.000000   0.000000
    19  F    0.000000   0.000000   0.000000   0.000000   0.000000   0.000000
    20  F    0.000000   0.000000   0.000000   0.000000   0.000000   0.000000
    21  C    0.006438   0.000375  -0.000641  -0.000243   0.000031   0.000003
    22  O   -0.013606   0.000020  -0.004632   0.000018   0.000000   0.000002
    23  N   -0.036175  -0.043399  -0.067895  -0.001381   0.001916   0.000255
    24  C    0.259452   0.260284   0.188660  -0.027510  -0.034016  -0.005533
    25  F    9.106119  -0.041975  -0.035907   0.000309   0.000120   0.002829
    26  F   -0.041975   9.122223  -0.024233  -0.000075  -0.002461   0.003054
    27  C   -0.035907  -0.024233   4.990212   0.251941   0.171234  -0.002235
    28  F    0.000309  -0.000075   0.251941   9.101097  -0.042859   0.000251
    29  O    0.000120  -0.002461   0.171234  -0.042859   8.328451   0.238688
    30  C    0.002829   0.003054  -0.002235   0.000251   0.238688   3.841780
    31  F    0.000000  -0.000012   0.001320  -0.000002  -0.038320   0.335605
    32  F   -0.000017   0.000001  -0.007026  -0.000002  -0.047481   0.301279
    33  F   -0.008238  -0.001194   0.002185  -0.000001  -0.047233   0.300303
    34  C    0.009767   0.001801   0.180808  -0.013764  -0.030693  -0.005151
    35  F    0.000000  -0.000001  -0.019381  -0.000808  -0.000500   0.000232
    36  F   -0.000337   0.000000  -0.024409  -0.001147   0.000588   0.000089
    37  F   -0.001584  -0.000002  -0.034816   0.000310  -0.000924   0.011500
    38  C    0.000628   0.008843  -0.001786   0.011250   0.000121   0.000001
    39  O    0.000010  -0.009907   0.001215  -0.005461  -0.000180   0.000005
    40  H    0.000000   0.000000   0.000000  -0.000001   0.000000   0.000000
    41  H    0.000000   0.000000   0.000000   0.000000   0.000000   0.000000
    42  H    0.000000  -0.000002   0.000000   0.000002   0.000000   0.000000
    43  H    0.000003   0.000000  -0.000001   0.000000   0.000000   0.000000
    44  H    0.000000   0.000000   0.000000   0.000000   0.000000   0.000000
              31         32         33         34         35         36
     1  C    0.000000   0.000000   0.000000   0.000000   0.000000   0.000000
     2  N    0.000000   0.000000   0.000000   0.000020   0.000000  -0.000008
     3  C    0.000000   0.000000   0.000000  -0.000006   0.000000   0.000025
     4  O    0.000000   0.000000   0.000000   0.000000   0.000000   0.000000
     5  N    0.000000   0.000000   0.000000  -0.000029   0.000000  -0.000549
     6  C    0.000000   0.000000   0.000000   0.000000   0.000000   0.000007
     7  C    0.000000   0.000000   0.000000   0.000000   0.000000   0.000000
     8  F    0.000000   0.000000   0.000000   0.000000   0.000000   0.000000
     9  F    0.000000   0.000000   0.000000   0.000000   0.000000   0.000000
    10  C    0.000000   0.000000   0.000000   0.000000   0.000000   0.000000
    11  F    0.000000   0.000000   0.000000   0.000000   0.000000   0.000000
    12  O    0.000000   0.000000   0.000000   0.000000   0.000000   0.000000
    13  C    0.000000   0.000000   0.000000   0.000000   0.000000   0.000000
    14  F    0.000000   0.000000   0.000000   0.000000   0.000000   0.000000
    15  F    0.000000   0.000000   0.000000   0.000000   0.000000   0.000000
    16  F    0.000000   0.000000   0.000000   0.000000   0.000000   0.000000
    17  C    0.000000   0.000000   0.000000   0.000000   0.000000   0.000000
    18  F    0.000000   0.000000   0.000000   0.000000   0.000000   0.000000
    19  F    0.000000   0.000000   0.000000   0.000000   0.000000   0.000000
    20  F    0.000000   0.000000   0.000000   0.000000   0.000000   0.000000
    21  C    0.000000   0.000000   0.000009   0.001095   0.000006   0.014921
    22  O    0.000000   0.000000   0.000000   0.007364  -0.000001  -0.008601
    23  N    0.000000  -0.000001   0.000064  -0.001572  -0.000012  -0.001272
    24  C   -0.000141  -0.000481   0.014068  -0.043824   0.001802  -0.000048
    25  F    0.000000  -0.000017  -0.008238   0.009767   0.000000  -0.000337
    26  F   -0.000012   0.000001  -0.001194   0.001801  -0.000001   0.000000
    27  C    0.001320  -0.007026   0.002185   0.180808  -0.019381  -0.024409
    28  F   -0.000002  -0.000002  -0.000001  -0.013764  -0.000808  -0.001147
    29  O   -0.038320  -0.047481  -0.047233  -0.030693  -0.000500   0.000588
    30  C    0.335605   0.301279   0.300303  -0.005151   0.000232   0.000089
    31  F    9.013969  -0.037786  -0.037126  -0.000087  -0.000001   0.000000
    32  F   -0.037786   9.056150  -0.035034   0.017838  -0.001365   0.000000
    33  F   -0.037126  -0.035034   9.050122  -0.003814   0.000010   0.000000
    34  C   -0.000087   0.017838  -0.003814   4.257820   0.271645   0.275975
    35  F   -0.000001  -0.001365   0.000010   0.271645   9.084030  -0.038971
    36  F    0.000000   0.000000   0.000000   0.275975  -0.038971   9.064293
    37  F    0.000000  -0.005560  -0.000148   0.256669  -0.036988  -0.034828
    38  C    0.000000   0.000000   0.000005   0.000244   0.000000  -0.000038
    39  O    0.000000   0.000000   0.000000   0.000132   0.000000   0.000001
    40  H    0.000000   0.000000   0.000000   0.000000   0.000000   0.000000
    41  H    0.000000   0.000000   0.000000   0.000000   0.000000   0.000000
    42  H    0.000000   0.000000   0.000000   0.000000   0.000000   0.000000
    43  H    0.000000   0.000000   0.000000   0.000005   0.000000   0.000003
    44  H    0.000000   0.000000   0.000000   0.000000   0.000000   0.000000
              37         38         39         40         41         42
     1  C    0.000000  -0.027796   0.000742   0.401959   0.387925   0.388383
     2  N    0.000000   0.262777  -0.092568  -0.041468  -0.030726  -0.030267
     3  C    0.000000  -0.020759   0.000121  -0.002198  -0.003266   0.003945
     4  O    0.000000   0.000217  -0.000023   0.000634   0.007584   0.000559
     5  N   -0.000002  -0.001004   0.000103  -0.000098   0.000400  -0.000063
     6  C    0.000000   0.000141   0.000002   0.000003   0.000003   0.000001
     7  C    0.000000   0.000076   0.000000   0.000000   0.000000   0.000000
     8  F    0.000000   0.000011   0.000000   0.000000  -0.000002   0.000000
     9  F    0.000000   0.000007   0.000000   0.000000   0.000000   0.000000
    10  C    0.000000   0.000001   0.000000   0.000000   0.000000   0.000000
    11  F    0.000000   0.000000   0.000000   0.000000   0.000000   0.000000
    12  O    0.000000   0.000000   0.000000   0.000000   0.000000   0.000000
    13  C    0.000000   0.000000   0.000000   0.000000   0.000000   0.000000
    14  F    0.000000   0.000000   0.000000   0.000000   0.000000   0.000000
    15  F    0.000000   0.000000   0.000000   0.000000   0.000000   0.000000
    16  F    0.000000   0.000000   0.000000   0.000000   0.000000   0.000000
    17  C    0.000000   0.000000   0.000000   0.000000   0.000000   0.000000
    18  F    0.000000   0.000000   0.000000   0.000000   0.000000   0.000000
    19  F    0.000000   0.000000   0.000000   0.000000   0.000000   0.000000
    20  F    0.000000   0.000000   0.000000   0.000000   0.000000   0.000000
    21  C   -0.000431  -0.015014   0.000032  -0.000020  -0.000020  -0.000018
    22  O    0.000057  -0.000165  -0.000030   0.000000   0.000000   0.000000
    23  N   -0.000202   0.209011  -0.087513  -0.000094  -0.000054   0.000290
    24  C    0.002764  -0.014696   0.012557   0.000005   0.000000   0.000003
    25  F   -0.001584   0.000628   0.000010   0.000000   0.000000   0.000000
    26  F   -0.000002   0.008843  -0.009907   0.000000   0.000000  -0.000002
    27  C   -0.034816  -0.001786   0.001215   0.000000   0.000000   0.000000
    28  F    0.000310   0.011250  -0.005461  -0.000001   0.000000   0.000002
    29  O   -0.000924   0.000121  -0.000180   0.000000   0.000000   0.000000
    30  C    0.011500   0.000001   0.000005   0.000000   0.000000   0.000000
    31  F    0.000000   0.000000   0.000000   0.000000   0.000000   0.000000
    32  F   -0.005560   0.000000   0.000000   0.000000   0.000000   0.000000
    33  F   -0.000148   0.000005   0.000000   0.000000   0.000000   0.000000
    34  C    0.256669   0.000244   0.000132   0.000000   0.000000   0.000000
    35  F   -0.036988   0.000000   0.000000   0.000000   0.000000   0.000000
    36  F   -0.034828  -0.000038   0.000001   0.000000   0.000000   0.000000
    37  F    9.087592   0.000003   0.000000   0.000000   0.000000   0.000000
    38  C    0.000003   4.170605   0.582248  -0.002536   0.004103  -0.002977
    39  O    0.000000   0.582248   8.094257   0.000987   0.000564   0.006056
    40  H    0.000000  -0.002536   0.000987   0.541552  -0.028528  -0.028340
    41  H    0.000000   0.004103   0.000564  -0.028528   0.518878  -0.022896
    42  H    0.000000  -0.002977   0.006056  -0.028340  -0.022896   0.521567
    43  H    0.000000  -0.000042   0.000000   0.000000   0.000000   0.000000
    44  H    0.000000  -0.000046   0.000000  -0.000001  -0.000003   0.000000
              43         44
     1  C    0.000002   0.000004
     2  N   -0.000037   0.000463
     3  C    0.004381  -0.004533
     4  O    0.000445   0.012808
     5  N   -0.032625  -0.031881
     6  C    0.369712   0.367641
     7  C   -0.025369  -0.029823
     8  F    0.001930  -0.000388
     9  F   -0.000445   0.002052
    10  C   -0.003954  -0.001230
    11  F    0.000110   0.008091
    12  O    0.007069   0.000154
    13  C    0.000149   0.000000
    14  F   -0.000011   0.000001
    15  F    0.000002   0.000000
    16  F    0.000007   0.000002
    17  C    0.000013   0.000115
    18  F    0.000000   0.000000
    19  F   -0.000006   0.000000
    20  F    0.000000  -0.000010
    21  C   -0.004186   0.004552
    22  O    0.013031   0.000458
    23  N    0.000511  -0.000028
    24  C    0.000007   0.000002
    25  F    0.000003   0.000000
    26  F    0.000000   0.000000
    27  C   -0.000001   0.000000
    28  F    0.000000   0.000000
    29  O    0.000000   0.000000
    30  C    0.000000   0.000000
    31  F    0.000000   0.000000
    32  F    0.000000   0.000000
    33  F    0.000000   0.000000
    34  C    0.000005   0.000000
    35  F    0.000000   0.000000
    36  F    0.000003   0.000000
    37  F    0.000000   0.000000
    38  C   -0.000042  -0.000046
    39  O    0.000000   0.000000
    40  H    0.000000  -0.000001
    41  H    0.000000  -0.000003
    42  H    0.000000   0.000000
    43  H    0.493570  -0.018846
    44  H   -0.018846   0.501895
 Mulliken charges:
               1
     1  C   -0.184583
     2  N   -0.571363
     3  C    0.832681
     4  O   -0.520332
     5  N   -0.599626
     6  C   -0.110340
     7  C    0.588407
     8  F   -0.274976
     9  F   -0.273940
    10  C    0.423084
    11  F   -0.274022
    12  O   -0.519988
    13  C    0.997022
    14  F   -0.239538
    15  F   -0.242206
    16  F   -0.242247
    17  C    0.812040
    18  F   -0.259529
    19  F   -0.246547
    20  F   -0.245042
    21  C    0.843345
    22  O   -0.510588
    23  N   -0.627116
    24  C    0.760925
    25  F   -0.247873
    26  F   -0.273356
    27  C    0.435623
    28  F   -0.271804
    29  O   -0.496483
    30  C    0.977044
    31  F   -0.237419
    32  F   -0.240513
    33  F   -0.233977
    34  C    0.817756
    35  F   -0.259697
    36  F   -0.245696
    37  F   -0.243408
    38  C    0.836564
    39  O   -0.503351
    40  H    0.158142
    41  H    0.166039
    42  H    0.163759
    43  H    0.194574
    44  H    0.188551
 Sum of Mulliken charges =   0.00000
 Mulliken charges with hydrogens summed into heavy atoms:
               1
     1  C    0.303358
     2  N   -0.571363
     3  C    0.832681
     4  O   -0.520332
     5  N   -0.599626
     6  C    0.272786
     7  C    0.588407
     8  F   -0.274976
     9  F   -0.273940
    10  C    0.423084
    11  F   -0.274022
    12  O   -0.519988
    13  C    0.997022
    14  F   -0.239538
    15  F   -0.242206
    16  F   -0.242247
    17  C    0.812040
    18  F   -0.259529
    19  F   -0.246547
    20  F   -0.245042
    21  C    0.843345
    22  O   -0.510588
    23  N   -0.627116
    24  C    0.760925
    25  F   -0.247873
    26  F   -0.273356
    27  C    0.435623
    28  F   -0.271804
    29  O   -0.496483
    30  C    0.977044
    31  F   -0.237419
    32  F   -0.240513
    33  F   -0.233977
    34  C    0.817756
    35  F   -0.259697
    36  F   -0.245696
    37  F   -0.243408
    38  C    0.836564
    39  O   -0.503351
 Electronic spatial extent (au):  <R**2>=          22112.2994
 Charge=              0.0000 electrons
 Dipole moment (field-independent basis, Debye):
    X=             -0.7320    Y=             -0.3843    Z=             -2.2584  Tot=              2.4050
 Quadrupole moment (field-independent basis, Debye-Ang):
   XX=           -222.0957   YY=           -203.4487   ZZ=           -205.9845
   XY=             -0.2434   XZ=             -1.1357   YZ=             -1.0634
 Traceless Quadrupole moment (field-independent basis, Debye-Ang):
   XX=            -11.5861   YY=              7.0609   ZZ=              4.5251
   XY=             -0.2434   XZ=             -1.1357   YZ=             -1.0634
 Octapole moment (field-independent basis, Debye-Ang**2):
  XXX=            -41.6018  YYY=             -2.6215  ZZZ=           -184.9971  XYY=            -27.5945
  XXY=            -39.6649  XXZ=            -29.0102  XZZ=             18.3741  YZZ=             14.9944
  YYZ=            -73.8566  XYZ=              3.5208
 Hexadecapole moment (field-independent basis, Debye-Ang**3):
 XXXX=         -17232.4921 YYYY=          -2951.0580 ZZZZ=          -3294.1949 XXXY=          -1408.5025
 XXXZ=           -246.6529 YYYX=          -1370.6233 YYYZ=            540.2530 ZZZX=           -406.8212
 ZZZY=            509.2394 XXYY=          -3387.0831 XXZZ=          -3421.5327 YYZZ=           -985.7373
 XXYZ=            248.0772 YYXZ=           -111.6723 ZZXY=           -426.9331
 N-N= 5.679359120327D+03 E-N=-1.806020039663D+04  KE= 2.814376879708D+03
 No NMR shielding tensors so no spin-rotation constants.
 Leave Link  601 at Sun Mar  3 17:47:54 2024, MaxMem=  5368709120 cpu:         3.3
 (Enter /home/k0335/k033513/app/g09/l9999.exe)
 1\1\GINC-C18U06N4\SP\RCAM-B3LYP\6-31G(d,p)\C13H5F18N3O5\K033513\03-Mar
 -2024\0\\#p CAM-B3LYP/6-31G(d,p) SCRF=(PCM,Solvent=Generic,Read) NoSym
 m out=wfn\\Title A1342961132_0\\0,1\C,0,0.80381,2.472027,-3.577777\N,0
 ,0.684065,1.733684,-2.331372\C,0,-0.419576,0.928484,-2.160602\O,0,-1.3
 15721,0.846307,-3.0008\N,0,-0.446617,0.183047,-1.001356\C,0,-1.621853,
 -0.668353,-0.751733\C,0,-2.72415,0.081222,0.011625\F,0,-3.040451,1.210
 565,-0.675632\F,0,-2.226436,0.504471,1.205083\C,0,-3.968473,-0.784722,
 0.236078\F,0,-4.446101,-1.151091,-0.991738\O,0,-3.558896,-1.99993,0.87
 5563\C,0,-4.642271,-2.788323,1.302026\F,0,-4.191081,-4.033106,1.542544
 \F,0,-5.138603,-2.28131,2.441194\F,0,-5.597491,-2.848159,0.362115\C,0,
 -4.998958,0.088559,0.972866\F,0,-6.187735,-0.548584,1.101269\F,0,-4.58
 7268,0.401702,2.222168\F,0,-5.260505,1.247017,0.328932\C,0,0.534161,0.
 243765,-0.036506\O,0,0.488586,-0.480721,0.956495\N,0,1.568096,1.112151
 ,-0.257317\C,0,2.666755,1.147044,0.695306\F,0,2.191139,0.972269,1.9578
 51\F,0,3.139341,2.436387,0.729442\C,0,3.875776,0.203681,0.423469\F,0,4
 .065194,0.12458,-0.941073\O,0,5.13824,0.72372,0.874673\C,0,5.322689,0.
 683525,2.265504\F,0,6.428025,1.38444,2.574568\F,0,5.491512,-0.585914,2
 .664572\F,0,4.276139,1.223804,2.900512\C,0,3.546863,-1.216202,0.882636
 \F,0,4.62218,-2.029491,0.72484\F,0,2.555623,-1.760558,0.139549\F,0,3.1
 86015,-1.285408,2.178217\C,0,1.755775,1.743876,-1.463242\O,0,2.824126,
 2.271077,-1.769825\H,0,1.2752,1.819469,-4.319553\H,0,-0.179207,2.77807
 9,-3.947841\H,0,1.422237,3.364816,-3.444937\H,0,-1.297944,-1.548517,-0
 .185759\H,0,-2.01221,-1.023542,-1.712032\\Version=ES64L-G09RevD.01\HF=
 -2835.134681\RMSD=6.028e-09\Dipole=-0.2879741,-0.1511814,-0.8885414\Qu
 adrupole=-8.6139618,5.2496419,3.3643198,-0.1809937,-0.8443292,-0.79062
 48\PG=C01 [X(C13H5F18N3O5)]\\@

 Writing a WFN file to "A1342961132/A1342961132_0.wfn"


 NO HUMAN INVESTIGATION CAN BECOME REAL SCIENCE
 WITHOUT GOING THROUGH MATHEMATICAL PEOPLE.
 -- LEONARDO DA VINCI, IN "PENSIERI" CA. 1492
 Job cpu time:       0 days  0 hours 19 minutes 43.7 seconds.
 File lengths (MBytes):  RWF=    409 Int=      0 D2E=      0 Chk=     15 Scr=      1
 Normal termination of Gaussian 09 at Sun Mar  3 17:47:54 2024.
