 Entering Gaussian System, Link 0=g09
 Initial command:
 /home/k0335/k033513/app/g09/l1.exe "/home/k0335/k033513/app/g09/scratch/Gau-2968146.inp" -scrdir="/home/k0335/k033513/app/g09/scratch/"
 Default is to use a total of  36 processors:
                               36 via shared-memory
                                1 via Linda
 Entering Link 1 = /home/k0335/k033513/app/g09/l1.exe PID=   2968147.
  
 Copyright (c) 1988,1990,1992,1993,1995,1998,2003,2009,2013,
            Gaussian, Inc.  All Rights Reserved.
  
 This is part of the Gaussian(R) 09 program.  It is based on
 the Gaussian(R) 03 system (copyright 2003, Gaussian, Inc.),
 the Gaussian(R) 98 system (copyright 1998, Gaussian, Inc.),
 the Gaussian(R) 94 system (copyright 1995, Gaussian, Inc.),
 the Gaussian 92(TM) system (copyright 1992, Gaussian, Inc.),
 the Gaussian 90(TM) system (copyright 1990, Gaussian, Inc.),
 the Gaussian 88(TM) system (copyright 1988, Gaussian, Inc.),
 the Gaussian 86(TM) system (copyright 1986, Carnegie Mellon
 University), and the Gaussian 82(TM) system (copyright 1983,
 Carnegie Mellon University). Gaussian is a federally registered
 trademark of Gaussian, Inc.
  
 This software contains proprietary and confidential information,
 including trade secrets, belonging to Gaussian, Inc.
  
 This software is provided under written license and may be
 used, copied, transmitted, or stored only in accord with that
 written license.
  
 The following legend is applicable only to US Government
 contracts under FAR:
  
                    RESTRICTED RIGHTS LEGEND
  
 Use, reproduction and disclosure by the US Government is
 subject to restrictions as set forth in subparagraphs (a)
 and (c) of the Commercial Computer Software - Restricted
 Rights clause in FAR 52.227-19.
  
 Gaussian, Inc.
 340 Quinnipiac St., Bldg. 40, Wallingford CT 06492
  
  
 ---------------------------------------------------------------
 Warning -- This program may not be used in any manner that
 competes with the business of Gaussian, Inc. or will provide
 assistance to any competitor of Gaussian, Inc.  The licensee
 of this program is prohibited from giving any competitor of
 Gaussian, Inc. access to this program.  By using this program,
 the user acknowledges that Gaussian, Inc. is engaged in the
 business of creating and licensing software in the field of
 computational chemistry and represents and warrants to the
 licensee that it is not a competitor of Gaussian, Inc. and that
 it will not use this program in any manner prohibited above.
 ---------------------------------------------------------------
  

 Cite this work as:
 Gaussian 09, Revision D.01,
 M. J. Frisch, G. W. Trucks, H. B. Schlegel, G. E. Scuseria, 
 M. A. Robb, J. R. Cheeseman, G. Scalmani, V. Barone, B. Mennucci, 
 G. A. Petersson, H. Nakatsuji, M. Caricato, X. Li, H. P. Hratchian, 
 A. F. Izmaylov, J. Bloino, G. Zheng, J. L. Sonnenberg, M. Hada, 
 M. Ehara, K. Toyota, R. Fukuda, J. Hasegawa, M. Ishida, T. Nakajima, 
 Y. Honda, O. Kitao, H. Nakai, T. Vreven, J. A. Montgomery, Jr., 
 J. E. Peralta, F. Ogliaro, M. Bearpark, J. J. Heyd, E. Brothers, 
 K. N. Kudin, V. N. Staroverov, T. Keith, R. Kobayashi, J. Normand, 
 K. Raghavachari, A. Rendell, J. C. Burant, S. S. Iyengar, J. Tomasi, 
 M. Cossi, N. Rega, J. M. Millam, M. Klene, J. E. Knox, J. B. Cross, 
 V. Bakken, C. Adamo, J. Jaramillo, R. Gomperts, R. E. Stratmann, 
 O. Yazyev, A. J. Austin, R. Cammi, C. Pomelli, J. W. Ochterski, 
 R. L. Martin, K. Morokuma, V. G. Zakrzewski, G. A. Voth, 
 P. Salvador, J. J. Dannenberg, S. Dapprich, A. D. Daniels, 
 O. Farkas, J. B. Foresman, J. V. Ortiz, J. Cioslowski, 
 and D. J. Fox, Gaussian, Inc., Wallingford CT, 2013.
 
 ******************************************
 Gaussian 09:  ES64L-G09RevD.01 24-Apr-2013
                 3-Feb-2025 
 ******************************************
 %nprocshared=24
 Will use up to   24 processors via shared memory.
 %mem=40GB
 %rwf=cytop/mXD2/mXD2_neu.rwf
 %nosave
 %chk=cytop/mXD2/mXD2_neu.chk
 ----------------------------------------------------------------------
 #p CAM-B3LYP/6-31G(d,p) SCRF=(PCM,Solvent=Generic,Read) NoSymm out=wfn
 ----------------------------------------------------------------------
 1/38=1,40=2/1;
 2/12=2,15=1,17=6,18=5,40=1/2;
 3/5=1,6=6,7=101,11=2,16=1,25=1,30=1,70=2203,72=-2,74=-40/1,2,3;
 4//1;
 5/5=2,38=5/2;
 6/7=2,8=2,9=2,10=2,28=1/1;
 99/5=1,6=100,9=1/99;
 Leave Link    1 at Mon Feb  3 22:00:27 2025, MaxMem=  5368709120 cpu:         1.7
 (Enter /home/k0335/k033513/app/g09/l101.exe)
 --------------
 Title mXD2_neu
 --------------
 Symbolic Z-matrix:
 Charge =  0 Multiplicity = 1
 F                    -4.54212  -0.51451   2.50271 
 C                    -3.26922  -0.94877   2.44418 
 F                    -3.23612  -2.16029   3.03366 
 C                    -2.70687  -0.98574   1.03897 
 F                    -3.20802   0.07062   0.33601 
 F                    -3.01504  -2.08466   0.33311 
 C                    -1.2383   -0.76828   1.25235 
 F                    -0.7415   -0.10337   0.16001 
 C                    -0.40799  -2.03276   1.39315 
 F                     0.90635  -1.66864   1.52068 
 C                    -0.80349  -2.98173   2.5224 
 O                    -1.61838  -3.98264   2.11795 
 O                    -0.50357  -2.89155   3.7013 
 F                    -0.4555   -2.68698   0.18608 
 C                    -1.2336    0.13978   2.47637 
 F                    -0.21868  -0.19355   3.30895 
 C                    -1.15105   1.64527   2.13416 
 F                    -2.22419   1.99222   1.3553 
 C                     0.17513   2.01328   1.45135 
 N                     0.0392    2.91302   0.40244 
 C                     1.13882   3.17983  -0.50147 
 C                     1.18047   2.14634  -1.59654 
 C                     1.90373   0.95561  -1.41204 
 C                     1.88888  -0.06233  -2.3752 
 C                     2.62791  -1.34937  -2.13035 
 N                     4.06132  -1.18712  -2.32768 
 C                     1.16185   0.13615  -3.55387 
 C                     0.43654   1.3141   -3.75037 
 C                     0.43753   2.3102   -2.77311 
 O                     1.26342   1.57968   1.82278 
 F                    -1.30883   2.37226   3.28324 
 O                    -2.44478  -0.10417   3.23149 
 H                    -1.80335  -4.50998   2.92579 
 H                    -0.89766   3.08519   0.05269 
 H                     0.98191   4.18173  -0.92217 
 H                     2.08511   3.20262   0.05143 
 H                     2.47187   0.80377  -0.49353 
 H                     2.255    -2.13165  -2.80143 
 H                     2.42838  -1.69553  -1.11021 
 H                     4.22849  -0.91929  -3.29658 
 H                     4.50978  -2.09276  -2.19897 
 H                     1.13808  -0.63555  -4.32272 
 H                    -0.14218   1.4414   -4.66163 
 H                    -0.14931   3.20814  -2.93512 
 
 NAtoms=     44 NQM=       44 NQMF=       0 NMMI=      0 NMMIF=      0
                NMic=       0 NMicF=      0.
                    Isotopes and Nuclear Properties:
 (Nuclear quadrupole moments (NQMom) in fm**2, nuclear magnetic moments (NMagM)
  in nuclear magnetons)

  Atom         1           2           3           4           5           6           7           8           9          10
 IAtWgt=          19          12          19          12          19          19          12          19          12          19
 AtmWgt=  18.9984033  12.0000000  18.9984033  12.0000000  18.9984033  18.9984033  12.0000000  18.9984033  12.0000000  18.9984033
 NucSpn=           1           0           1           0           1           1           0           1           0           1
 AtZEff=   0.0000000   0.0000000   0.0000000   0.0000000   0.0000000   0.0000000   0.0000000   0.0000000   0.0000000   0.0000000
 NQMom=    0.0000000   0.0000000   0.0000000   0.0000000   0.0000000   0.0000000   0.0000000   0.0000000   0.0000000   0.0000000
 NMagM=    2.6288670   0.0000000   2.6288670   0.0000000   2.6288670   2.6288670   0.0000000   2.6288670   0.0000000   2.6288670
 AtZNuc=   9.0000000   6.0000000   9.0000000   6.0000000   9.0000000   9.0000000   6.0000000   9.0000000   6.0000000   9.0000000

  Atom        11          12          13          14          15          16          17          18          19          20
 IAtWgt=          12          16          16          19          12          19          12          19          12          14
 AtmWgt=  12.0000000  15.9949146  15.9949146  18.9984033  12.0000000  18.9984033  12.0000000  18.9984033  12.0000000  14.0030740
 NucSpn=           0           0           0           1           0           1           0           1           0           2
 AtZEff=   0.0000000   0.0000000   0.0000000   0.0000000   0.0000000   0.0000000   0.0000000   0.0000000   0.0000000   0.0000000
 NQMom=    0.0000000   0.0000000   0.0000000   0.0000000   0.0000000   0.0000000   0.0000000   0.0000000   0.0000000   2.0440000
 NMagM=    0.0000000   0.0000000   0.0000000   2.6288670   0.0000000   2.6288670   0.0000000   2.6288670   0.0000000   0.4037610
 AtZNuc=   6.0000000   8.0000000   8.0000000   9.0000000   6.0000000   9.0000000   6.0000000   9.0000000   6.0000000   7.0000000

  Atom        21          22          23          24          25          26          27          28          29          30
 IAtWgt=          12          12          12          12          12          14          12          12          12          16
 AtmWgt=  12.0000000  12.0000000  12.0000000  12.0000000  12.0000000  14.0030740  12.0000000  12.0000000  12.0000000  15.9949146
 NucSpn=           0           0           0           0           0           2           0           0           0           0
 AtZEff=   0.0000000   0.0000000   0.0000000   0.0000000   0.0000000   0.0000000   0.0000000   0.0000000   0.0000000   0.0000000
 NQMom=    0.0000000   0.0000000   0.0000000   0.0000000   0.0000000   2.0440000   0.0000000   0.0000000   0.0000000   0.0000000
 NMagM=    0.0000000   0.0000000   0.0000000   0.0000000   0.0000000   0.4037610   0.0000000   0.0000000   0.0000000   0.0000000
 AtZNuc=   6.0000000   6.0000000   6.0000000   6.0000000   6.0000000   7.0000000   6.0000000   6.0000000   6.0000000   8.0000000

  Atom        31          32          33          34          35          36          37          38          39          40
 IAtWgt=          19          16           1           1           1           1           1           1           1           1
 AtmWgt=  18.9984033  15.9949146   1.0078250   1.0078250   1.0078250   1.0078250   1.0078250   1.0078250   1.0078250   1.0078250
 NucSpn=           1           0           1           1           1           1           1           1           1           1
 AtZEff=   0.0000000   0.0000000   0.0000000   0.0000000   0.0000000   0.0000000   0.0000000   0.0000000   0.0000000   0.0000000
 NQMom=    0.0000000   0.0000000   0.0000000   0.0000000   0.0000000   0.0000000   0.0000000   0.0000000   0.0000000   0.0000000
 NMagM=    2.6288670   0.0000000   2.7928460   2.7928460   2.7928460   2.7928460   2.7928460   2.7928460   2.7928460   2.7928460
 AtZNuc=   9.0000000   8.0000000   1.0000000   1.0000000   1.0000000   1.0000000   1.0000000   1.0000000   1.0000000   1.0000000

  Atom        41          42          43          44
 IAtWgt=           1           1           1           1
 AtmWgt=   1.0078250   1.0078250   1.0078250   1.0078250
 NucSpn=           1           1           1           1
 AtZEff=   0.0000000   0.0000000   0.0000000   0.0000000
 NQMom=    0.0000000   0.0000000   0.0000000   0.0000000
 NMagM=    2.7928460   2.7928460   2.7928460   2.7928460
 AtZNuc=   1.0000000   1.0000000   1.0000000   1.0000000
 Leave Link  101 at Mon Feb  3 22:00:27 2025, MaxMem=  5368709120 cpu:         0.8
 (Enter /home/k0335/k033513/app/g09/l202.exe)
                          Input orientation:                          
 ---------------------------------------------------------------------
 Center     Atomic      Atomic             Coordinates (Angstroms)
 Number     Number       Type             X           Y           Z
 ---------------------------------------------------------------------
      1          9           0       -4.542124   -0.514505    2.502710
      2          6           0       -3.269217   -0.948767    2.444179
      3          9           0       -3.236115   -2.160288    3.033663
      4          6           0       -2.706865   -0.985742    1.038970
      5          9           0       -3.208022    0.070620    0.336007
      6          9           0       -3.015041   -2.084655    0.333108
      7          6           0       -1.238295   -0.768278    1.252352
      8          9           0       -0.741499   -0.103372    0.160012
      9          6           0       -0.407988   -2.032765    1.393152
     10          9           0        0.906347   -1.668639    1.520681
     11          6           0       -0.803493   -2.981733    2.522398
     12          8           0       -1.618382   -3.982639    2.117946
     13          8           0       -0.503573   -2.891553    3.701296
     14          9           0       -0.455499   -2.686984    0.186078
     15          6           0       -1.233600    0.139780    2.476373
     16          9           0       -0.218680   -0.193552    3.308945
     17          6           0       -1.151048    1.645268    2.134159
     18          9           0       -2.224195    1.992224    1.355302
     19          6           0        0.175126    2.013281    1.451353
     20          7           0        0.039197    2.913015    0.402442
     21          6           0        1.138820    3.179832   -0.501466
     22          6           0        1.180473    2.146342   -1.596538
     23          6           0        1.903727    0.955607   -1.412035
     24          6           0        1.888883   -0.062331   -2.375198
     25          6           0        2.627911   -1.349365   -2.130354
     26          7           0        4.061320   -1.187122   -2.327681
     27          6           0        1.161850    0.136154   -3.553867
     28          6           0        0.436535    1.314103   -3.750370
     29          6           0        0.437533    2.310204   -2.773113
     30          8           0        1.263419    1.579682    1.822775
     31          9           0       -1.308834    2.372257    3.283243
     32          8           0       -2.444779   -0.104167    3.231486
     33          1           0       -1.803352   -4.509980    2.925787
     34          1           0       -0.897663    3.085190    0.052687
     35          1           0        0.981909    4.181726   -0.922169
     36          1           0        2.085107    3.202621    0.051430
     37          1           0        2.471866    0.803765   -0.493529
     38          1           0        2.254995   -2.131652   -2.801432
     39          1           0        2.428377   -1.695529   -1.110207
     40          1           0        4.228493   -0.919287   -3.296577
     41          1           0        4.509784   -2.092756   -2.198969
     42          1           0        1.138079   -0.635550   -4.322723
     43          1           0       -0.142176    1.441402   -4.661633
     44          1           0       -0.149313    3.208136   -2.935124
 ---------------------------------------------------------------------
                    Distance matrix (angstroms):
                    1          2          3          4          5
     1  F    0.000000
     2  C    1.346218   0.000000
     3  F    2.167065   1.347728   0.000000
     4  C    2.394321   1.514008   2.374545   0.000000
     5  F    2.610900   2.342495   3.500727   1.364264   0.000000
     6  F    3.082941   2.410699   2.710644   1.341948   2.163899
     7  C    3.541621   2.361710   3.016960   1.499840   2.328790
     8  F    4.483527   3.510195   4.325723   2.326759   2.478908
     9  C    4.541730   3.235172   3.271978   2.550792   3.658138
    10  F    5.655284   4.336635   4.437434   3.708597   4.621310
    11  C    4.479393   3.196696   2.617979   3.131671   4.458579
    12  O    4.552391   3.469303   2.603183   3.366062   4.704378
    13  O    4.837030   3.606043   2.906418   3.946466   5.235808
    14  F    5.175611   4.004676   4.014720   2.947931   3.899133
    15  C    3.372701   2.308616   3.100153   2.345941   2.912781
    16  F    4.409670   3.259440   3.612305   3.459973   4.224253
    17  C    4.037307   3.363297   4.431576   3.246878   3.153412
    18  F    3.601809   3.305624   4.591757   3.033367   2.387350
    19  C    5.454127   4.650046   5.617735   4.179721   4.057539
    20  N    6.094877   5.479749   6.587063   4.811063   4.316023
    21  C    7.412579   6.719594   7.755906   5.874882   5.409584
    22  C    7.525427   6.760683   7.713110   5.645108   5.225155
    23  C    7.683453   6.727286   7.476029   5.570801   5.474379
    24  C    8.084324   7.114644   7.740982   5.799149   5.774664
    25  C    8.577393   7.474152   7.855665   6.215840   6.492874
    26  N    9.889608   8.750099   9.107339   7.561959   7.843499
    27  C    8.345106   7.535779   8.246896   6.108990   5.850743
    28  C    8.199504   7.564761   8.460665   6.173170   5.614937
    29  C    7.785260   7.181993   8.197538   5.939905   5.288897
    30  O    6.209047   5.227235   5.974900   4.791545   4.947882
    31  F    4.404179   3.946686   4.931599   4.274039   4.194121
    32  O    2.257952   1.418767   2.212008   2.377602   2.999481
    33  H    4.862477   3.881101   2.754179   4.098374   5.446279
    34  H    5.678249   5.255122   6.470673   4.562724   3.808630
    35  H    8.018686   7.465007   8.582626   6.644986   6.003309
    36  H    7.984109   7.185267   8.122186   6.440545   6.156917
    37  H    7.740242   6.682928   7.335376   5.689477   5.786775
    38  H    8.772110   7.709252   8.012580   6.378233   6.673686
    39  H    7.939513   6.756766   7.033785   5.611904   6.081103
    40  H   10.522324   9.443135   9.865718   8.179277   8.335307
    41  H   10.321516   9.131286   9.347938   7.986849   8.406594
    42  H    8.880647   8.081666   8.693378   6.607116   6.410229
    43  H    8.632087   8.123045   9.042246   6.705634   6.021201
    44  H    7.919904   7.480010   8.600857   6.318474   5.468090
                    6          7          8          9         10
     6  F    0.000000
     7  C    2.394720   0.000000
     8  F    3.020668   1.371901   0.000000
     9  C    2.814802   1.519264   2.313962   0.000000
    10  F    4.118335   2.341397   2.648939   1.369791   0.000000
    11  C    3.238624   2.588716   3.724201   1.527141   2.377226
    12  O    2.956120   3.350498   4.432961   2.406738   3.476432
    13  O    4.278229   3.323468   4.513453   2.464586   2.870274
    14  F    2.633567   2.330481   2.599524   1.373786   2.161670
    15  C    3.565842   1.524080   2.380507   2.564167   2.960253
    16  F    4.500168   2.366326   3.193314   2.662481   2.576714
    17  C    4.542090   2.571070   2.668844   3.824808   3.948571
    18  F    4.276828   2.933082   2.831718   4.415946   4.819706
    19  C    5.312317   3.126409   2.643479   4.088263   3.754467
    20  N    5.857464   3.988264   3.125196   5.063815   4.795202
    21  C    6.757655   4.930936   3.840909   5.757895   5.258402
    22  C    6.263163   4.739369   3.441026   5.378326   4.934195
    23  C    6.040116   4.465763   3.254226   4.705685   4.059835
    24  C    5.955937   4.841149   3.653476   4.833083   4.327063
    25  C    6.200984   5.169904   4.260422   4.700937   4.049170
    26  N    7.613163   6.409211   5.516358   5.876600   4.999560
    27  C    6.122662   5.447792   4.180073   5.625086   5.391994
    28  C    6.335592   5.671736   4.322972   6.194398   6.074657
    29  C    6.394033   5.337586   3.977271   6.077339   5.872618
    30  O    5.826808   3.478056   3.101153   4.003492   3.281821
    31  F    5.610571   3.740649   4.025566   4.877313   4.933811
    32  O    3.556420   2.411145   3.512138   3.353726   4.074859
    33  H    3.751317   4.137633   5.309919   3.229954   4.170133
    34  H    5.593677   4.050240   3.194187   5.313200   5.292291
    35  H    7.537829   5.844689   4.743766   6.775871   6.340347
    36  H    7.351608   5.315567   4.350986   5.951891   5.222772
    37  H    6.255593   4.391436   3.402312   4.460833   3.552559
    38  H    6.131951   5.522230   4.675794   4.969486   4.551252
    39  H    5.644943   4.459368   3.767829   3.798092   3.039551
    40  H    8.185443   7.113461   6.108563   6.688075   5.899505
    41  H    7.939425   6.834199   6.090847   6.090272   5.196194
    42  H    6.405082   6.061867   4.889881   6.083893   5.938547
    43  H    6.755285   6.407759   5.098409   6.985765   6.999483
    44  H    6.848896   5.876453   4.571284   6.802053   6.689660
                   11         12         13         14         15
    11  C    0.000000
    12  O    1.352567   0.000000
    13  O    1.219789   2.222671   0.000000
    14  F    2.380413   2.600602   3.521494   0.000000
    15  C    3.151342   4.155823   3.349978   3.720415   0.000000
    16  F    2.955438   4.211274   2.741225   4.003197   1.354381
    17  C    4.656250   5.647300   4.843334   4.800752   1.546098
    18  F    5.302901   6.053728   5.684673   5.137155   2.381098
    19  C    5.201442   6.293812   5.438775   4.908269   2.558355
    20  N    6.320791   7.296613   6.698511   5.625969   3.689449
    21  C    7.133107   8.109530   7.564548   6.118341   4.872147
    22  C    6.870146   7.693854   7.502229   5.405105   5.142241
    23  C    6.189624   7.017998   6.836804   4.624757   5.062421
    24  C    6.305414   6.917952   7.117030   4.352593   5.773083
    25  C    6.007267   6.558444   6.796520   4.081972   6.192799
    26  N    7.100021   7.735472   7.751896   5.382399   7.271574
    27  C    7.106672   7.540796   8.036046   4.957128   6.488604
    28  C    7.703213   8.167943   8.608059   5.683313   6.552916
    29  C    7.588622   8.230985   8.358345   5.875900   5.921193
    30  O    5.056491   6.271469   5.161690   4.882407   2.955607
    31  F    5.431341   6.468264   5.341433   5.993040   2.375006
    32  O    3.387774   4.118913   3.429070   4.461243   1.447985
    33  H    1.870289   0.982298   2.215885   3.556125   4.706045
    34  H    6.551022   7.398577   7.013495   5.790621   3.829171
    35  H    8.146646   9.091791   8.579881   7.104473   5.726770
    36  H    7.259196   8.343517   7.560539   6.415626   5.125930
    37  H    5.844124   6.816127   6.332864   4.606155   4.794963
    38  H    6.198399   6.529126   7.104408   4.071902   6.721973
    39  H    5.029426   5.659338   5.759980   3.313620   5.444446
    40  H    7.964612   8.537396   8.674820   6.098641   8.017670
    41  H    7.163274   7.730578   7.783634   5.540360   7.734953
    42  H    7.491993   7.764232   8.495261   5.203572   7.242493
    43  H    8.462373   8.806935   9.425693   6.375111   7.337340
    44  H    8.278102   8.910607   9.020741   6.677432   6.314649
                   16         17         18         19         20
    16  F    0.000000
    17  C    2.372908   0.000000
    18  F    3.551961   1.370635   0.000000
    19  C    2.911330   1.536358   2.401335   0.000000
    20  N    4.262044   2.454121   2.622736   1.388601   0.000000
    21  C    5.267045   3.813778   4.020929   2.470435   1.448244
    22  C    5.612174   4.427772   4.508755   3.212175   2.426153
    23  C    5.302153   4.731044   5.076659   3.507952   3.255802
    24  C    6.063705   5.700121   5.920746   4.678421   4.470940
    25  C    6.246996   6.436958   6.845360   5.491099   5.593244
    26  N    7.146827   7.422886   7.948604   6.294933   6.359416
    27  C    7.008049   6.323018   6.245818   5.435941   4.962226
    28  C    7.248190   6.103914   5.797173   5.255008   4.467689
    29  C    6.609905   5.200678   4.922369   4.243010   3.256716
    30  O    2.747668   2.435346   3.542905   1.228961   2.300835
    31  F    2.787915   1.368869   2.167779   2.384706   3.226239
    32  O    2.229239   2.436881   2.821981   3.810034   4.824626
    33  H    4.614060   6.240132   6.702402   6.974329   8.053764
    34  H    4.670587   2.543640   2.156633   2.063039   1.014731
    35  H    6.203773   4.508244   4.501099   3.314613   2.062263
    36  H    5.239545   4.151603   4.662105   2.649970   2.095908
    37  H    4.763663   4.553941   5.184940   3.243534   3.342092
    38  H    6.871099   7.087052   7.372105   6.292258   6.373636
    39  H    5.365794   5.873595   6.428428   5.039246   5.406937
    40  H    7.996059   8.062834   8.470777   6.897288   6.776391
    41  H    7.503497   8.049462   8.640971   6.998118   7.198002
    42  H    7.763924   7.220357   7.102820   6.425227   6.010577
    43  H    8.136894   6.873294   6.390752   6.147872   5.276684
    44  H    7.110885   5.398487   4.918469   4.557863   3.355887
                   21         22         23         24         25
    21  C    0.000000
    22  C    1.506326   0.000000
    23  C    2.522181   1.405343   0.000000
    24  C    3.819043   2.446711   1.401464   0.000000
    25  C    5.038283   3.820995   2.520579   1.504183   0.000000
    26  N    5.562945   4.466076   3.175674   2.446813   1.455995
    27  C    4.310645   2.805769   2.410255   1.399012   2.526359
    28  C    3.811762   2.425914   2.783699   2.427959   3.810596
    29  C    2.531489   1.401121   2.416028   2.809569   4.313159
    30  O    2.824553   3.466942   3.356108   4.550867   5.105721
    31  F    4.578997   5.482695   5.862856   6.940502   7.658686
    32  O    6.128765   6.443373   6.449412   7.086415   7.485455
    33  H    8.918276   8.582614   7.901378   7.843126   7.429007
    34  H    2.112654   2.814254   3.811603   4.854519   6.071295
    35  H    1.097909   2.153367   3.390805   4.576671   5.895931
    36  H    1.096208   2.156360   2.687694   4.072707   5.076947
    37  H    2.724476   2.164911   1.090638   2.151899   2.709154
    38  H    5.894705   4.572483   3.403672   2.144249   1.096077
    39  H    5.079633   4.068631   2.719353   2.135086   1.095602
    40  H    5.844784   4.645281   3.531468   2.656518   2.026550
    41  H    6.484219   5.423761   4.086969   3.320061   2.024545
    42  H    5.399921   3.895228   3.404424   2.164518   2.745107
    43  H    4.687225   3.411913   3.870608   3.407961   4.676445
    44  H    2.753685   2.165075   3.407148   3.894061   5.397355
                   26         27         28         29         30
    26  N    0.000000
    27  C    3.414896   0.000000
    28  C    4.628092   1.397233   0.000000
    29  C    5.055841   2.420889   1.395439   0.000000
    30  O    5.719243   5.567977   5.640409   4.726303   0.000000
    31  F    8.543430   7.605952   7.323777   6.303419   3.062291
    32  O    8.625918   7.688078   7.685036   7.084640   4.309356
    33  H    8.546034   8.506756   9.138277   9.165912   6.906932
    34  H    6.964935   5.093686   4.402281   3.220015   3.173333
    35  H    6.346870   4.829582   4.064408   2.687924   3.792703
    36  H    5.369863   4.822218   4.553896   3.389536   2.539048
    37  H    3.139125   3.395219   3.874278   3.406519   2.725373
    38  H    2.092698   2.627559   4.010051   4.799381   6.011698
    39  H    2.099339   3.306150   4.471664   4.772275   4.548243
    40  H    1.019040   3.253376   4.424128   5.007495   6.422171
    41  H    1.018754   4.244108   5.532169   6.024859   6.340356
    42  H    3.581866   1.089602   2.149628   3.401400   6.533767
    43  H    5.479585   2.152046   1.086974   2.158098   6.636442
    44  H    6.116920   3.396920   2.143643   1.084858   5.223531
                   31         32         33         34         35
    31  F    0.000000
    32  O    2.725018   0.000000
    33  H    6.909234   4.462742   0.000000
    34  H    3.333741   4.761337   8.170776   0.000000
    35  H    5.119294   6.882145   9.905059   2.384434   0.000000
    36  H    4.759512   6.447284   9.103090   2.985081   1.767367
    37  H    5.569369   6.234860   7.629226   4.105725   3.716763
    38  H    8.367159   7.911679   7.411320   6.730579   6.709033
    39  H    7.058047   6.717915   6.489831   5.938867   6.055556
    40  H    9.208164   9.370837   9.380514   7.316480   6.496034
    41  H    9.156817   9.044903   8.483029   7.818028   7.310625
    42  H    8.537272   8.377668   8.729497   6.093633   5.898670
    43  H    8.083850   8.366128   9.785060   5.049516   4.770381
    44  H    6.380538   7.366654   9.831350   3.082557   2.505899
                   36         37         38         39         40
    36  H    0.000000
    37  H    2.490195   0.000000
    38  H    6.051624   3.740337   0.000000
    39  H    5.045702   2.574617   1.755137   0.000000
    40  H    5.726550   3.729842   2.368479   2.936526   0.000000
    41  H    6.243747   3.930836   2.334213   2.382320   1.631226
    42  H    5.895900   4.302713   2.408350   3.620592   3.268660
    43  H    5.502331   4.961138   4.687589   5.390798   5.151600
    44  H    3.729902   4.314275   5.857637   5.832730   6.027558
                   41         42         43         44
    41  H    0.000000
    42  H    4.242897   0.000000
    43  H    6.340009   2.463259   0.000000
    44  H    7.095672   4.284476   2.470270   0.000000
 Symmetry turned off by external request.
 Stoichiometry    C16H12F10N2O4
 Framework group  C1[X(C16H12F10N2O4)]
 Deg. of freedom   126
 Full point group                 C1      NOp   1
 Rotational constants (GHZ):      0.2153207      0.1212392      0.1028787
 Leave Link  202 at Mon Feb  3 22:00:27 2025, MaxMem=  5368709120 cpu:         0.1
 (Enter /home/k0335/k033513/app/g09/l301.exe)
 Standard basis: 6-31G(d,p) (6D, 7F)
 Ernie: Thresh=  0.10000D-02 Tol=  0.10000D-05 Strict=F.
   540 basis functions,   980 primitive gaussians,   540 cartesian basis functions
   122 alpha electrons      122 beta electrons
       nuclear repulsion energy      4079.3449588034 Hartrees.
 IExCor=20419 DFT=T Ex+Corr=CAM-B3LYP ExCW=0 ScaHFX=  1.000000
 ScaDFX=  1.000000  1.000000  1.000000  0.810000 ScalE2=  1.000000  1.000000
 IRadAn=      0 IRanWt=     -1 IRanGd=            0 ICorTp=0 IEmpDi=  4
  HFx wShort=  0.000000 wLong=  0.330000 cFull=  0.190000 cShort=  0.000000 cLong=  0.460000
  DFx wShort=  0.000000 wLong=  0.330000 cFull=  0.190000 cShort=  0.000000 cLong=  0.460000
 NAtoms=   44 NActive=   44 NUniq=   44 SFac= 1.00D+00 NAtFMM=   60 NAOKFM=F Big=F
 Integral buffers will be    131072 words long.
 Raffenetti 2 integral format.
 Two-electron integral symmetry is turned off.
 Using the following non-standard input for PCM:
 eps=2.05
 --- end of non-standard input.
 ------------------------------------------------------------------------------
 Polarizable Continuum Model (PCM)
 =================================
 Model                : PCM (using non-symmetric T matrix).
 Atomic radii         : UFF (Universal Force Field).
 Polarization charges : Total charges.
 Charge compensation  : None.
 Solution method      : On-the-fly selection.
 Cavity type          : Scaled VdW (van der Waals Surface) (Alpha=1.100).
 Cavity algorithm     : GePol (No added spheres)
                        Default sphere list used, NSphG=   44.
                        Lebedev-Laikov grids with approx.  5.0 points / Ang**2.
                        Smoothing algorithm: Karplus/York (Gamma=1.0000).
                        Polarization charges: spherical gaussians, with
                                              point-specific exponents (IZeta= 3).
                        Self-potential: point-specific (ISelfS= 7).
                        Self-field    : sphere-specific E.n sum rule (ISelfD= 2).
 Solvent              : Generic,
                        Eps                           =   2.050000
                        Eps(infinity)                 =   0.000000
                        RSolv                         =   0.000000 Ang.
                        Molar volume                  =   0.000000 cm**3/mol
                        Thermal expansion coefficient =   0.000000 K**-1
                        Absolute temperature          = 298.150000 K
                        Numeral density               =   0.000000 Ang**-3
                        Hydrogen bond acidity         =   0.000000
                        Hydrogen bond basicity        =   0.000000
                        Surface tension at interface  =   0.000000 (cal/mol)*Ang**-2
                        Carbon aromaticity            =   0.000000
                        Electronegative halogenicity  =   0.000000
 ------------------------------------------------------------------------------
 GePol: Number of generator spheres                  =      44
 GePol: Total number of spheres                      =      44
 GePol: Number of exposed spheres                    =      44 (100.00%)
 GePol: Number of points                             =    3319
 GePol: Average weight of points                     =       0.13
 GePol: Minimum weight of points                     =   0.52D-11
 GePol: Maximum weight of points                     =    0.20577
 GePol: Number of points with low weight             =     194
 GePol: Fraction of low-weight points (<1% of avg)   =       5.85%
 GePol: Cavity surface area                          =    419.987 Ang**2
 GePol: Cavity volume                                =    490.634 Ang**3
 Leave Link  301 at Mon Feb  3 22:00:27 2025, MaxMem=  5368709120 cpu:         0.9
 (Enter /home/k0335/k033513/app/g09/l302.exe)
 NPDir=0 NMtPBC=     1 NCelOv=     1 NCel=       1 NClECP=     1 NCelD=      1
         NCelK=      1 NCelE2=     1 NClLst=     1 CellRange=     0.0.
 One-electron integrals computed using PRISM.
 NBasis=   540 RedAO= T EigKep=  4.32D-04  NBF=   540
 NBsUse=   540 1.00D-06 EigRej= -1.00D+00 NBFU=   540
 Precomputing XC quadrature grid using
 IXCGrd= 4 IRadAn=           0 IRanWt=          -1 IRanGd=           0 AccXCQ= 0.00D+00.
 Generated NRdTot=       0 NPtTot=           0 NUsed=           0 NTot=          32
 NSgBfM=   532   533   533   533   533 MxSgAt=    44 MxSgA2=    44.
 Leave Link  302 at Mon Feb  3 22:00:28 2025, MaxMem=  5368709120 cpu:        10.6
 (Enter /home/k0335/k033513/app/g09/l303.exe)
 DipDrv:  MaxL=1.
 Leave Link  303 at Mon Feb  3 22:00:28 2025, MaxMem=  5368709120 cpu:         0.9
 (Enter /home/k0335/k033513/app/g09/l401.exe)
 ExpMin= 1.61D-01 ExpMax= 7.00D+03 ExpMxC= 1.05D+03 IAcc=1 IRadAn=         1 AccDes= 0.00D+00
 Harris functional with IExCor=20419 and IRadAn=       1 diagonalized for initial guess.
 HarFok:  IExCor=20419 AccDes= 0.00D+00 IRadAn=         1 IDoV= 1 UseB2=F ITyADJ=14
 ICtDFT=  3500011 ScaDFX=  1.000000  1.000000  1.000000  1.000000
 FoFCou: FMM=F IPFlag=           0 FMFlag=      100000 FMFlg1=           0
         NFxFlg=           0 DoJE=T BraDBF=F KetDBF=T FulRan=T
         wScrn=  0.000000 ICntrl=     500 IOpCl=  0 I1Cent=   200000004 NGrid=           0
         NMat0=    1 NMatS0=      1 NMatT0=    0 NMatD0=    1 NMtDS0=    0 NMtDT0=    0
 Symmetry not used in FoFCou.
 Harris En= -1960.23241493399    
 JPrj=0 DoOrth=F DoCkMO=F.
 Leave Link  401 at Mon Feb  3 22:00:29 2025, MaxMem=  5368709120 cpu:        12.7
 (Enter /home/k0335/k033513/app/g09/l502.exe)
 Closed shell SCF:
 Using DIIS extrapolation, IDIIS=  1040.
 Two-electron integral symmetry not used.
 IVT=      909638 IEndB=      909638 NGot=  5368709120 MDV=  5368108263
 LenX=  5368108263 LenY=  5367816123
 Requested convergence on RMS density matrix=1.00D-08 within 128 cycles.
 Requested convergence on MAX density matrix=1.00D-06.
 Requested convergence on             energy=1.00D-06.
 No special actions if energy rises.
 Fock matrices will be formed incrementally for  20 cycles.

 Cycle   1  Pass 1  IDiag  1:
 FoFJK:  IHMeth= 1 ICntrl=       0 DoSepK=T KAlg= 0 I1Cent=   0 FoldK=F
 IRaf=         1 NMat=   1 IRICut=       1 DoRegI=T DoRafI=F ISym2E= 0.
 FoFCou: FMM=F IPFlag=           0 FMFlag=      100000 FMFlg1=           0
         NFxFlg=           0 DoJE=T BraDBF=F KetDBF=F FulRan=T
         wScrn=  0.000000 ICntrl=     500 IOpCl=  0 I1Cent=           0 NGrid=           0
         NMat0=    1 NMatS0=      1 NMatT0=    0 NMatD0=    1 NMtDS0=    0 NMtDT0=    0
 Symmetry not used in FoFCou.
 Inv3:  Mode=1 IEnd=    33047283.
 Iteration    1 A*A^-1 deviation from unit magnitude is 7.55D-15 for    417.
 Iteration    1 A*A^-1 deviation from orthogonality  is 4.08D-15 for   3310   1913.
 Iteration    1 A^-1*A deviation from unit magnitude is 7.11D-15 for   1656.
 Iteration    1 A^-1*A deviation from orthogonality  is 1.97D-15 for   3304   2053.
 E= -2024.45427730606    
 DIIS: error= 6.46D-02 at cycle   1 NSaved=   1.
 NSaved= 1 IEnMin= 1 EnMin= -2024.45427730606     IErMin= 1 ErrMin= 6.46D-02
 ErrMax= 6.46D-02  0.00D+00 EMaxC= 1.00D-01 BMatC= 1.62D+00 BMatP= 1.62D+00
 IDIUse=3 WtCom= 3.54D-01 WtEn= 6.46D-01
 Coeff-Com:  0.100D+01
 Coeff-En:   0.100D+01
 Coeff:      0.100D+01
 Gap=     0.565 Goal=   None    Shift=    0.000
 GapD=    0.565 DampG=2.000 DampE=0.500 DampFc=1.0000 IDamp=-1.
 RMSDP=2.85D-03 MaxDP=1.39D-01              OVMax= 1.31D-01

 Cycle   2  Pass 1  IDiag  1:
 RMSU=  2.84D-03    CP:  9.91D-01
 E= -2024.69131406342     Delta-E=       -0.237036757361 Rises=F Damp=F
 DIIS: error= 1.94D-02 at cycle   2 NSaved=   2.
 NSaved= 2 IEnMin= 2 EnMin= -2024.69131406342     IErMin= 2 ErrMin= 1.94D-02
 ErrMax= 1.94D-02  0.00D+00 EMaxC= 1.00D-01 BMatC= 5.82D-01 BMatP= 1.62D+00
 IDIUse=3 WtCom= 8.06D-01 WtEn= 1.94D-01
 Coeff-Com:  0.350D+00 0.650D+00
 Coeff-En:   0.331D+00 0.669D+00
 Coeff:      0.346D+00 0.654D+00
 Gap=     0.297 Goal=   None    Shift=    0.000
 RMSDP=1.33D-03 MaxDP=8.29D-02 DE=-2.37D-01 OVMax= 8.95D-02

 Cycle   3  Pass 1  IDiag  1:
 RMSU=  8.53D-04    CP:  9.97D-01  6.42D-01
 E= -2024.95481024596     Delta-E=       -0.263496182535 Rises=F Damp=F
 DIIS: error= 6.98D-03 at cycle   3 NSaved=   3.
 NSaved= 3 IEnMin= 3 EnMin= -2024.95481024596     IErMin= 3 ErrMin= 6.98D-03
 ErrMax= 6.98D-03  0.00D+00 EMaxC= 1.00D-01 BMatC= 1.21D-01 BMatP= 5.82D-01
 IDIUse=3 WtCom= 9.30D-01 WtEn= 6.98D-02
 Coeff-Com:  0.720D-01 0.329D+00 0.599D+00
 Coeff-En:   0.000D+00 0.151D+00 0.849D+00
 Coeff:      0.670D-01 0.316D+00 0.617D+00
 Gap=     0.297 Goal=   None    Shift=    0.000
 RMSDP=6.17D-04 MaxDP=4.31D-02 DE=-2.63D-01 OVMax= 6.42D-02

 Cycle   4  Pass 1  IDiag  1:
 RMSU=  3.29D-04    CP:  9.92D-01  7.31D-01  4.73D-01
 E= -2025.02573911095     Delta-E=       -0.070928864990 Rises=F Damp=F
 DIIS: error= 2.57D-03 at cycle   4 NSaved=   4.
 NSaved= 4 IEnMin= 4 EnMin= -2025.02573911095     IErMin= 4 ErrMin= 2.57D-03
 ErrMax= 2.57D-03  0.00D+00 EMaxC= 1.00D-01 BMatC= 1.08D-02 BMatP= 1.21D-01
 IDIUse=3 WtCom= 9.74D-01 WtEn= 2.57D-02
 Coeff-Com:  0.539D-02 0.990D-01 0.313D+00 0.583D+00
 Coeff-En:   0.000D+00 0.000D+00 0.312D-01 0.969D+00
 Coeff:      0.525D-02 0.965D-01 0.305D+00 0.593D+00
 Gap=     0.284 Goal=   None    Shift=    0.000
 RMSDP=1.81D-04 MaxDP=1.49D-02 DE=-7.09D-02 OVMax= 2.13D-02

 Cycle   5  Pass 1  IDiag  1:
 RMSU=  8.12D-05    CP:  9.93D-01  7.32D-01  6.12D-01  6.63D-01
 E= -2025.03333811908     Delta-E=       -0.007599008135 Rises=F Damp=F
 DIIS: error= 7.07D-04 at cycle   5 NSaved=   5.
 NSaved= 5 IEnMin= 5 EnMin= -2025.03333811908     IErMin= 5 ErrMin= 7.07D-04
 ErrMax= 7.07D-04  0.00D+00 EMaxC= 1.00D-01 BMatC= 6.44D-04 BMatP= 1.08D-02
 IDIUse=3 WtCom= 9.93D-01 WtEn= 7.07D-03
 Coeff-Com:  0.334D-03 0.416D-01 0.150D+00 0.336D+00 0.472D+00
 Coeff-En:   0.000D+00 0.000D+00 0.000D+00 0.000D+00 0.100D+01
 Coeff:      0.331D-03 0.413D-01 0.149D+00 0.333D+00 0.476D+00
 Gap=     0.283 Goal=   None    Shift=    0.000
 RMSDP=3.97D-05 MaxDP=3.21D-03 DE=-7.60D-03 OVMax= 5.79D-03

 Cycle   6  Pass 1  IDiag  1:
 RMSU=  2.47D-05    CP:  9.93D-01  7.34D-01  6.10D-01  6.74D-01  6.28D-01
 E= -2025.03379583646     Delta-E=       -0.000457717382 Rises=F Damp=F
 DIIS: error= 9.89D-05 at cycle   6 NSaved=   6.
 NSaved= 6 IEnMin= 6 EnMin= -2025.03379583646     IErMin= 6 ErrMin= 9.89D-05
 ErrMax= 9.89D-05  0.00D+00 EMaxC= 1.00D-01 BMatC= 2.13D-05 BMatP= 6.44D-04
 IDIUse=1 WtCom= 1.00D+00 WtEn= 0.00D+00
 Coeff-Com: -0.557D-03 0.102D-02 0.984D-02 0.328D-01 0.165D+00 0.792D+00
 Coeff:     -0.557D-03 0.102D-02 0.984D-02 0.328D-01 0.165D+00 0.792D+00
 Gap=     0.284 Goal=   None    Shift=    0.000
 RMSDP=1.19D-05 MaxDP=6.27D-04 DE=-4.58D-04 OVMax= 1.03D-03

 Cycle   7  Pass 1  IDiag  1:
 RMSU=  7.60D-06    CP:  9.93D-01  7.34D-01  6.13D-01  6.89D-01  7.13D-01
                    CP:  9.24D-01
 E= -2025.03381293780     Delta-E=       -0.000017101334 Rises=F Damp=F
 DIIS: error= 3.92D-05 at cycle   7 NSaved=   7.
 NSaved= 7 IEnMin= 7 EnMin= -2025.03381293780     IErMin= 7 ErrMin= 3.92D-05
 ErrMax= 3.92D-05  0.00D+00 EMaxC= 1.00D-01 BMatC= 3.60D-06 BMatP= 2.13D-05
 IDIUse=1 WtCom= 1.00D+00 WtEn= 0.00D+00
 Coeff-Com: -0.241D-03-0.392D-02-0.108D-01-0.194D-01 0.353D-01 0.371D+00
 Coeff-Com:  0.628D+00
 Coeff:     -0.241D-03-0.392D-02-0.108D-01-0.194D-01 0.353D-01 0.371D+00
 Coeff:      0.628D+00
 Gap=     0.284 Goal=   None    Shift=    0.000
 RMSDP=3.51D-06 MaxDP=2.16D-04 DE=-1.71D-05 OVMax= 2.70D-04

 Cycle   8  Pass 1  IDiag  1:
 RMSU=  2.51D-06    CP:  9.93D-01  7.34D-01  6.14D-01  6.89D-01  7.26D-01
                    CP:  9.97D-01  8.64D-01
 E= -2025.03381574830     Delta-E=       -0.000002810499 Rises=F Damp=F
 DIIS: error= 1.57D-05 at cycle   8 NSaved=   8.
 NSaved= 8 IEnMin= 8 EnMin= -2025.03381574830     IErMin= 8 ErrMin= 1.57D-05
 ErrMax= 1.57D-05  0.00D+00 EMaxC= 1.00D-01 BMatC= 2.67D-07 BMatP= 3.60D-06
 IDIUse=1 WtCom= 1.00D+00 WtEn= 0.00D+00
 Coeff-Com: -0.313D-04-0.164D-02-0.512D-02-0.114D-01-0.787D-03 0.581D-01
 Coeff-Com:  0.241D+00 0.719D+00
 Coeff:     -0.313D-04-0.164D-02-0.512D-02-0.114D-01-0.787D-03 0.581D-01
 Coeff:      0.241D+00 0.719D+00
 Gap=     0.284 Goal=   None    Shift=    0.000
 RMSDP=1.29D-06 MaxDP=7.29D-05 DE=-2.81D-06 OVMax= 1.49D-04

 Cycle   9  Pass 1  IDiag  1:
 RMSU=  8.87D-07    CP:  9.93D-01  7.34D-01  6.14D-01  6.89D-01  7.33D-01
                    CP:  1.01D+00  9.32D-01  1.02D+00
 E= -2025.03381601692     Delta-E=       -0.000000268626 Rises=F Damp=F
 DIIS: error= 4.33D-06 at cycle   9 NSaved=   9.
 NSaved= 9 IEnMin= 9 EnMin= -2025.03381601692     IErMin= 9 ErrMin= 4.33D-06
 ErrMax= 4.33D-06  0.00D+00 EMaxC= 1.00D-01 BMatC= 2.82D-08 BMatP= 2.67D-07
 IDIUse=1 WtCom= 1.00D+00 WtEn= 0.00D+00
 Coeff-Com:  0.140D-04-0.761D-04-0.347D-03-0.158D-02-0.366D-02-0.310D-01
 Coeff-Com: -0.112D-02 0.215D+00 0.823D+00
 Coeff:      0.140D-04-0.761D-04-0.347D-03-0.158D-02-0.366D-02-0.310D-01
 Coeff:     -0.112D-02 0.215D+00 0.823D+00
 Gap=     0.284 Goal=   None    Shift=    0.000
 RMSDP=6.05D-07 MaxDP=5.39D-05 DE=-2.69D-07 OVMax= 5.94D-05

 Cycle  10  Pass 1  IDiag  1:
 RMSU=  3.41D-07    CP:  9.93D-01  7.34D-01  6.14D-01  6.89D-01  7.36D-01
                    CP:  1.02D+00  9.66D-01  1.13D+00  1.04D+00
 E= -2025.03381605260     Delta-E=       -0.000000035675 Rises=F Damp=F
 DIIS: error= 2.12D-06 at cycle  10 NSaved=  10.
 NSaved=10 IEnMin=10 EnMin= -2025.03381605260     IErMin=10 ErrMin= 2.12D-06
 ErrMax= 2.12D-06  0.00D+00 EMaxC= 1.00D-01 BMatC= 6.69D-09 BMatP= 2.82D-08
 IDIUse=1 WtCom= 1.00D+00 WtEn= 0.00D+00
 Coeff-Com:  0.115D-04 0.184D-03 0.523D-03 0.724D-03-0.125D-02-0.233D-01
 Coeff-Com: -0.320D-01 0.603D-02 0.404D+00 0.645D+00
 Coeff:      0.115D-04 0.184D-03 0.523D-03 0.724D-03-0.125D-02-0.233D-01
 Coeff:     -0.320D-01 0.603D-02 0.404D+00 0.645D+00
 Gap=     0.284 Goal=   None    Shift=    0.000
 RMSDP=2.07D-07 MaxDP=1.57D-05 DE=-3.57D-08 OVMax= 3.26D-05

 Cycle  11  Pass 1  IDiag  1:
 RMSU=  1.34D-07    CP:  9.93D-01  7.34D-01  6.14D-01  6.89D-01  7.37D-01
                    CP:  1.02D+00  9.76D-01  1.17D+00  1.14D+00  8.67D-01
 E= -2025.03381605863     Delta-E=       -0.000000006033 Rises=F Damp=F
 DIIS: error= 1.05D-06 at cycle  11 NSaved=  11.
 NSaved=11 IEnMin=11 EnMin= -2025.03381605863     IErMin=11 ErrMin= 1.05D-06
 ErrMax= 1.05D-06  0.00D+00 EMaxC= 1.00D-01 BMatC= 1.24D-09 BMatP= 6.69D-09
 IDIUse=1 WtCom= 1.00D+00 WtEn= 0.00D+00
 Coeff-Com:  0.450D-05 0.113D-03 0.337D-03 0.625D-03 0.592D-04-0.782D-02
 Coeff-Com: -0.160D-01-0.288D-01 0.909D-01 0.350D+00 0.611D+00
 Coeff:      0.450D-05 0.113D-03 0.337D-03 0.625D-03 0.592D-04-0.782D-02
 Coeff:     -0.160D-01-0.288D-01 0.909D-01 0.350D+00 0.611D+00
 Gap=     0.284 Goal=   None    Shift=    0.000
 RMSDP=8.15D-08 MaxDP=6.49D-06 DE=-6.03D-09 OVMax= 9.74D-06

 Cycle  12  Pass 1  IDiag  1:
 RMSU=  4.96D-08    CP:  9.93D-01  7.34D-01  6.14D-01  6.89D-01  7.37D-01
                    CP:  1.02D+00  9.78D-01  1.18D+00  1.17D+00  9.62D-01
                    CP:  8.25D-01
 E= -2025.03381605985     Delta-E=       -0.000000001223 Rises=F Damp=F
 DIIS: error= 2.32D-07 at cycle  12 NSaved=  12.
 NSaved=12 IEnMin=12 EnMin= -2025.03381605985     IErMin=12 ErrMin= 2.32D-07
 ErrMax= 2.32D-07  0.00D+00 EMaxC= 1.00D-01 BMatC= 7.25D-11 BMatP= 1.24D-09
 IDIUse=1 WtCom= 1.00D+00 WtEn= 0.00D+00
 Coeff-Com: -0.845D-07 0.139D-04 0.455D-04 0.116D-03 0.265D-03 0.496D-03
 Coeff-Com: -0.810D-03-0.106D-01-0.260D-01 0.240D-01 0.191D+00 0.822D+00
 Coeff:     -0.845D-07 0.139D-04 0.455D-04 0.116D-03 0.265D-03 0.496D-03
 Coeff:     -0.810D-03-0.106D-01-0.260D-01 0.240D-01 0.191D+00 0.822D+00
 Gap=     0.284 Goal=   None    Shift=    0.000
 RMSDP=2.67D-08 MaxDP=1.58D-06 DE=-1.22D-09 OVMax= 4.45D-06

 Cycle  13  Pass 1  IDiag  1:
 RMSU=  1.55D-08    CP:  9.93D-01  7.34D-01  6.14D-01  6.89D-01  7.37D-01
                    CP:  1.02D+00  9.78D-01  1.18D+00  1.19D+00  9.93D-01
                    CP:  9.29D-01  1.02D+00
 E= -2025.03381605991     Delta-E=       -0.000000000055 Rises=F Damp=F
 DIIS: error= 1.05D-07 at cycle  13 NSaved=  13.
 NSaved=13 IEnMin=13 EnMin= -2025.03381605991     IErMin=13 ErrMin= 1.05D-07
 ErrMax= 1.05D-07  0.00D+00 EMaxC= 1.00D-01 BMatC= 1.72D-11 BMatP= 7.25D-11
 IDIUse=1 WtCom= 1.00D+00 WtEn= 0.00D+00
 Coeff-Com: -0.636D-06-0.639D-05-0.165D-04-0.158D-04 0.141D-03 0.119D-02
 Coeff-Com:  0.158D-02-0.189D-02-0.241D-01-0.298D-01 0.219D-01 0.408D+00
 Coeff-Com:  0.623D+00
 Coeff:     -0.636D-06-0.639D-05-0.165D-04-0.158D-04 0.141D-03 0.119D-02
 Coeff:      0.158D-02-0.189D-02-0.241D-01-0.298D-01 0.219D-01 0.408D+00
 Coeff:      0.623D+00
 Gap=     0.284 Goal=   None    Shift=    0.000
 RMSDP=9.24D-09 MaxDP=4.97D-07 DE=-5.46D-11 OVMax= 1.29D-06

 Error on total polarization charges =  0.00314
 SCF Done:  E(RCAM-B3LYP) =  -2025.03381606     A.U. after   13 cycles
            NFock= 13  Conv=0.92D-08     -V/T= 2.0077
 KE= 2.009658560793D+03 PE=-1.293004285816D+04 EE= 4.816005522503D+03
 Leave Link  502 at Mon Feb  3 22:01:17 2025, MaxMem=  5368709120 cpu:      1099.0
 (Enter /home/k0335/k033513/app/g09/l601.exe)
 Copying SCF densities to generalized density rwf, IOpCl= 0 IROHF=0.

 **********************************************************************

            Population analysis using the SCF density.

 **********************************************************************

 Alpha  occ. eigenvalues --  -24.83730 -24.83412 -24.83155 -24.83119 -24.82918
 Alpha  occ. eigenvalues --  -24.82359 -24.81965 -24.81867 -24.81602 -24.81210
 Alpha  occ. eigenvalues --  -19.31769 -19.29997 -19.25457 -19.21941 -14.45224
 Alpha  occ. eigenvalues --  -14.38047 -10.53051 -10.49355 -10.49183 -10.47467
 Alpha  occ. eigenvalues --  -10.47027 -10.44464 -10.42972 -10.39917 -10.30559
 Alpha  occ. eigenvalues --  -10.27875 -10.27204 -10.26660 -10.26526 -10.26456
 Alpha  occ. eigenvalues --  -10.26268 -10.25919  -1.40871  -1.38729  -1.37603
 Alpha  occ. eigenvalues --   -1.37190  -1.34835  -1.34420  -1.33110  -1.32015
 Alpha  occ. eigenvalues --   -1.30465  -1.30338  -1.22104  -1.20098  -1.13981
 Alpha  occ. eigenvalues --   -1.12341  -1.02131  -0.97880  -0.96649  -0.93302
 Alpha  occ. eigenvalues --   -0.90403  -0.88031  -0.85766  -0.83248  -0.82559
 Alpha  occ. eigenvalues --   -0.79019  -0.77476  -0.76038  -0.74245  -0.73640
 Alpha  occ. eigenvalues --   -0.71167  -0.70530  -0.69787  -0.68544  -0.68024
 Alpha  occ. eigenvalues --   -0.67437  -0.67239  -0.66298  -0.65973  -0.65030
 Alpha  occ. eigenvalues --   -0.64628  -0.64276  -0.63695  -0.62755  -0.61786
 Alpha  occ. eigenvalues --   -0.58574  -0.58171  -0.57687  -0.56792  -0.56433
 Alpha  occ. eigenvalues --   -0.55598  -0.55463  -0.55263  -0.54950  -0.54745
 Alpha  occ. eigenvalues --   -0.54393  -0.53887  -0.53630  -0.53169  -0.52751
 Alpha  occ. eigenvalues --   -0.52658  -0.52483  -0.52348  -0.51922  -0.51589
 Alpha  occ. eigenvalues --   -0.50902  -0.50304  -0.50173  -0.49557  -0.49379
 Alpha  occ. eigenvalues --   -0.49152  -0.48755  -0.48505  -0.48065  -0.47382
 Alpha  occ. eigenvalues --   -0.46964  -0.46024  -0.45693  -0.45489  -0.44002
 Alpha  occ. eigenvalues --   -0.43752  -0.42436  -0.42167  -0.41049  -0.40995
 Alpha  occ. eigenvalues --   -0.39300  -0.37740  -0.34881  -0.33077  -0.30393
 Alpha  occ. eigenvalues --   -0.29824  -0.29153
 Alpha virt. eigenvalues --   -0.00764   0.02124   0.04083   0.04400   0.04986
 Alpha virt. eigenvalues --    0.07705   0.09181   0.11862   0.13465   0.13960
 Alpha virt. eigenvalues --    0.14096   0.14202   0.16164   0.18086   0.18389
 Alpha virt. eigenvalues --    0.18674   0.19662   0.20224   0.21166   0.22056
 Alpha virt. eigenvalues --    0.22137   0.22667   0.23184   0.24164   0.24692
 Alpha virt. eigenvalues --    0.25251   0.25823   0.26722   0.26790   0.28445
 Alpha virt. eigenvalues --    0.28600   0.29209   0.30035   0.31182   0.32194
 Alpha virt. eigenvalues --    0.32293   0.32804   0.33483   0.34520   0.36052
 Alpha virt. eigenvalues --    0.37576   0.37934   0.38323   0.38805   0.40747
 Alpha virt. eigenvalues --    0.41898   0.42204   0.43476   0.48358   0.49730
 Alpha virt. eigenvalues --    0.50548   0.51227   0.51757   0.53993   0.55091
 Alpha virt. eigenvalues --    0.55941   0.56230   0.57155   0.57736   0.59459
 Alpha virt. eigenvalues --    0.59844   0.60285   0.61428   0.61521   0.62030
 Alpha virt. eigenvalues --    0.62687   0.63226   0.63895   0.64275   0.64976
 Alpha virt. eigenvalues --    0.65604   0.66241   0.66998   0.67388   0.68486
 Alpha virt. eigenvalues --    0.68738   0.69204   0.70400   0.70850   0.71504
 Alpha virt. eigenvalues --    0.71901   0.73466   0.74067   0.74886   0.76111
 Alpha virt. eigenvalues --    0.76972   0.78775   0.79074   0.79982   0.80307
 Alpha virt. eigenvalues --    0.80727   0.81311   0.81773   0.82471   0.84490
 Alpha virt. eigenvalues --    0.84806   0.86304   0.87186   0.87427   0.88266
 Alpha virt. eigenvalues --    0.89249   0.90238   0.90772   0.91203   0.92222
 Alpha virt. eigenvalues --    0.92722   0.93655   0.94083   0.94968   0.95653
 Alpha virt. eigenvalues --    0.97135   0.97786   0.98377   1.00455   1.00600
 Alpha virt. eigenvalues --    1.00999   1.01591   1.02522   1.04698   1.05274
 Alpha virt. eigenvalues --    1.05692   1.06543   1.07231   1.07818   1.08993
 Alpha virt. eigenvalues --    1.09939   1.10068   1.11189   1.11969   1.14290
 Alpha virt. eigenvalues --    1.14735   1.15304   1.16446   1.18179   1.18854
 Alpha virt. eigenvalues --    1.19173   1.20932   1.21664   1.22271   1.23120
 Alpha virt. eigenvalues --    1.23700   1.24427   1.25396   1.26142   1.27588
 Alpha virt. eigenvalues --    1.29844   1.30701   1.31374   1.32038   1.32791
 Alpha virt. eigenvalues --    1.33213   1.34424   1.34646   1.35948   1.36775
 Alpha virt. eigenvalues --    1.37283   1.38143   1.38205   1.39122   1.39862
 Alpha virt. eigenvalues --    1.41176   1.41373   1.41740   1.42307   1.42797
 Alpha virt. eigenvalues --    1.43284   1.44098   1.44681   1.45161   1.46076
 Alpha virt. eigenvalues --    1.46943   1.47650   1.48394   1.48795   1.48890
 Alpha virt. eigenvalues --    1.49701   1.50694   1.51093   1.51856   1.52517
 Alpha virt. eigenvalues --    1.52761   1.53468   1.54890   1.55900   1.57006
 Alpha virt. eigenvalues --    1.58074   1.59181   1.59406   1.60528   1.61968
 Alpha virt. eigenvalues --    1.63957   1.65286   1.65551   1.66679   1.67942
 Alpha virt. eigenvalues --    1.69431   1.69733   1.70331   1.71569   1.72544
 Alpha virt. eigenvalues --    1.73154   1.74143   1.75135   1.76253   1.76730
 Alpha virt. eigenvalues --    1.77857   1.78796   1.80343   1.80870   1.81381
 Alpha virt. eigenvalues --    1.81899   1.82542   1.83902   1.84086   1.84450
 Alpha virt. eigenvalues --    1.85626   1.86614   1.87511   1.87889   1.89207
 Alpha virt. eigenvalues --    1.89536   1.90053   1.90298   1.91521   1.91831
 Alpha virt. eigenvalues --    1.92313   1.92696   1.93225   1.93582   1.93881
 Alpha virt. eigenvalues --    1.94732   1.95481   1.96185   1.97117   1.97480
 Alpha virt. eigenvalues --    1.98161   1.98306   1.99631   2.00090   2.00504
 Alpha virt. eigenvalues --    2.01799   2.02833   2.03340   2.03537   2.04105
 Alpha virt. eigenvalues --    2.05026   2.05188   2.05888   2.06150   2.06942
 Alpha virt. eigenvalues --    2.07184   2.08396   2.08898   2.09318   2.09729
 Alpha virt. eigenvalues --    2.10752   2.11276   2.11576   2.12451   2.13596
 Alpha virt. eigenvalues --    2.13882   2.14605   2.15900   2.16990   2.17615
 Alpha virt. eigenvalues --    2.19557   2.19912   2.21247   2.21410   2.23452
 Alpha virt. eigenvalues --    2.23937   2.25163   2.25998   2.26222   2.26455
 Alpha virt. eigenvalues --    2.28125   2.28987   2.29166   2.29809   2.31677
 Alpha virt. eigenvalues --    2.32818   2.32990   2.34070   2.34768   2.35016
 Alpha virt. eigenvalues --    2.36215   2.36585   2.37884   2.38545   2.39511
 Alpha virt. eigenvalues --    2.39880   2.40525   2.41256   2.42224   2.42482
 Alpha virt. eigenvalues --    2.43352   2.44467   2.46621   2.47326   2.48567
 Alpha virt. eigenvalues --    2.49166   2.49322   2.49588   2.51403   2.51656
 Alpha virt. eigenvalues --    2.53500   2.55595   2.55749   2.57351   2.59116
 Alpha virt. eigenvalues --    2.59464   2.60413   2.60529   2.61459   2.61927
 Alpha virt. eigenvalues --    2.63064   2.64445   2.65283   2.66170   2.67718
 Alpha virt. eigenvalues --    2.68864   2.70221   2.70829   2.71643   2.72485
 Alpha virt. eigenvalues --    2.74121   2.75161   2.75373   2.75761   2.77160
 Alpha virt. eigenvalues --    2.78125   2.79144   2.79855   2.81281   2.81898
 Alpha virt. eigenvalues --    2.82874   2.83241   2.84241   2.85383   2.86409
 Alpha virt. eigenvalues --    2.86591   2.88317   2.89667   2.91237   2.92635
 Alpha virt. eigenvalues --    2.93169   2.94564   2.95286   2.96575   2.97486
 Alpha virt. eigenvalues --    2.98884   3.00816   3.02140   3.03888   3.04248
 Alpha virt. eigenvalues --    3.06057   3.06427   3.09092   3.10657   3.12541
 Alpha virt. eigenvalues --    3.13497   3.13765   3.15590   3.17317   3.19743
 Alpha virt. eigenvalues --    3.20505   3.21648   3.27246   3.27681   3.28960
 Alpha virt. eigenvalues --    3.30306   3.31722   3.34187   3.35382   3.36229
 Alpha virt. eigenvalues --    3.36742   3.38059   3.39963   3.47506   3.48094
 Alpha virt. eigenvalues --    3.51687   3.53506   3.54737   3.58539   3.63306
 Alpha virt. eigenvalues --    3.90779   4.02869   4.04543   4.11632   4.12165
 Alpha virt. eigenvalues --    4.21365   4.26503   4.26982   4.29609   4.33984
 Alpha virt. eigenvalues --    4.35019   4.43049   4.45986   4.48818   4.50757
 Alpha virt. eigenvalues --    4.57396   4.59681   4.60813   4.66541   4.72600
 Alpha virt. eigenvalues --    4.76956   4.81612   4.92814   5.05810   5.17917
 Alpha virt. eigenvalues --    5.21499   5.39318   5.41977   5.68077   5.76499
 Alpha virt. eigenvalues --    6.10142   6.48188   6.88679
          Condensed to atoms (all electrons):
               1          2          3          4          5          6
     1  F    9.040235   0.308155  -0.041764  -0.023182  -0.000477  -0.000109
     2  C    0.308155   4.426804   0.256589   0.192158  -0.022391  -0.023582
     3  F   -0.041764   0.256589   9.095192  -0.030616   0.000367   0.000161
     4  C   -0.023182   0.192158  -0.030616   4.809706   0.243330   0.282785
     5  F   -0.000477  -0.022391   0.000367   0.243330   9.112531  -0.041247
     6  F   -0.000109  -0.023582   0.000161   0.282785  -0.041247   9.056728
     7  C    0.002352  -0.082553   0.005208   0.112290  -0.030040  -0.038441
     8  F   -0.000002   0.001751  -0.000001  -0.012680  -0.001804  -0.000123
     9  C   -0.000012   0.001067  -0.003120  -0.027263   0.001717   0.007494
    10  F    0.000000  -0.000030   0.000001   0.001645  -0.000001   0.000003
    11  C    0.000013   0.003620   0.019999  -0.005845  -0.000027  -0.001886
    12  O   -0.000002  -0.001572  -0.005293   0.005170   0.000001   0.000307
    13  O    0.000000   0.000755  -0.003444  -0.000649   0.000000   0.000006
    14  F    0.000000  -0.000024   0.000006  -0.000497  -0.000004  -0.000169
    15  C    0.000388  -0.009941   0.000109  -0.047206   0.003055   0.002316
    16  F   -0.000003   0.000141   0.000001   0.001826   0.000000  -0.000001
    17  C    0.000141   0.002580   0.000020  -0.007911   0.002929   0.000013
    18  F   -0.000066   0.002780   0.000000   0.000604  -0.002440   0.000000
    19  C   -0.000001   0.000130   0.000001   0.000481  -0.000251  -0.000001
    20  N    0.000000  -0.000005   0.000000  -0.000002   0.000008   0.000000
    21  C    0.000000   0.000000   0.000000   0.000001   0.000000   0.000000
    22  C    0.000000   0.000000   0.000000  -0.000006   0.000000   0.000000
    23  C    0.000000   0.000000   0.000000   0.000002   0.000000   0.000000
    24  C    0.000000   0.000000   0.000000  -0.000002   0.000000   0.000000
    25  C    0.000000   0.000000   0.000000   0.000000   0.000000   0.000000
    26  N    0.000000   0.000000   0.000000   0.000000   0.000000   0.000000
    27  C    0.000000   0.000000   0.000000   0.000000   0.000000   0.000000
    28  C    0.000000   0.000000   0.000000   0.000000   0.000000   0.000000
    29  C    0.000000   0.000000   0.000000   0.000000   0.000000   0.000000
    30  O    0.000000  -0.000001   0.000000   0.000031   0.000000   0.000000
    31  F    0.000000   0.000063   0.000000   0.000026  -0.000002   0.000000
    32  O   -0.042204   0.198463  -0.052522  -0.035094  -0.000706   0.000727
    33  H    0.000001   0.000135   0.000787  -0.000015   0.000000   0.000043
    34  H    0.000000  -0.000002   0.000000  -0.000011   0.000056   0.000000
    35  H    0.000000   0.000000   0.000000   0.000000   0.000000   0.000000
    36  H    0.000000   0.000000   0.000000   0.000000   0.000000   0.000000
    37  H    0.000000   0.000000   0.000000   0.000001   0.000000   0.000000
    38  H    0.000000   0.000000   0.000000   0.000000   0.000000   0.000000
    39  H    0.000000   0.000000   0.000000   0.000001   0.000000   0.000000
    40  H    0.000000   0.000000   0.000000   0.000000   0.000000   0.000000
    41  H    0.000000   0.000000   0.000000   0.000000   0.000000   0.000000
    42  H    0.000000   0.000000   0.000000   0.000000   0.000000   0.000000
    43  H    0.000000   0.000000   0.000000   0.000000   0.000000   0.000000
    44  H    0.000000   0.000000   0.000000   0.000000   0.000000   0.000000
               7          8          9         10         11         12
     1  F    0.002352  -0.000002  -0.000012   0.000000   0.000013  -0.000002
     2  C   -0.082553   0.001751   0.001067  -0.000030   0.003620  -0.001572
     3  F    0.005208  -0.000001  -0.003120   0.000001   0.019999  -0.005293
     4  C    0.112290  -0.012680  -0.027263   0.001645  -0.005845   0.005170
     5  F   -0.030040  -0.001804   0.001717  -0.000001  -0.000027   0.000001
     6  F   -0.038441  -0.000123   0.007494   0.000003  -0.001886   0.000307
     7  C    5.589851   0.202859   0.210887  -0.023586  -0.067246   0.000761
     8  F    0.202859   9.129654  -0.017178  -0.001137   0.001903  -0.000003
     9  C    0.210887  -0.017178   4.595984   0.263392   0.194284  -0.069068
    10  F   -0.023586  -0.001137   0.263392   9.094299  -0.031065   0.000699
    11  C   -0.067246   0.001903   0.194284  -0.031065   4.655604   0.234383
    12  O    0.000761  -0.000003  -0.069068   0.000699   0.234383   8.118002
    13  O   -0.000888  -0.000003  -0.052567  -0.000974   0.537113  -0.093211
    14  F   -0.026787  -0.001715   0.261265  -0.040713  -0.033181   0.002567
    15  C    0.074430  -0.034020  -0.025597  -0.000196   0.001840  -0.000378
    16  F   -0.033977   0.000369   0.009871  -0.000843  -0.001113   0.000013
    17  C   -0.041967   0.006462   0.002576  -0.000385  -0.000220  -0.000002
    18  F    0.007809  -0.001120   0.000062   0.000000   0.000000   0.000000
    19  C   -0.003621   0.014608  -0.000336   0.000695   0.000056   0.000000
    20  N    0.001215  -0.001925   0.000004   0.000003   0.000000   0.000000
    21  C   -0.000013  -0.000742  -0.000003  -0.000001   0.000000   0.000000
    22  C    0.000104   0.000669   0.000003   0.000005   0.000000   0.000000
    23  C    0.000192   0.001967   0.000087  -0.000037   0.000001   0.000000
    24  C   -0.000006  -0.000107   0.000099   0.000031   0.000001   0.000000
    25  C    0.000013  -0.000063  -0.000108  -0.000655  -0.000003   0.000000
    26  N    0.000000   0.000000   0.000001   0.000002   0.000000   0.000000
    27  C   -0.000010  -0.000005   0.000006   0.000001   0.000000   0.000000
    28  C   -0.000001  -0.000003  -0.000001   0.000000   0.000000   0.000000
    29  C    0.000010  -0.000012  -0.000001   0.000000   0.000000   0.000000
    30  O   -0.000314  -0.002310  -0.000214   0.000188  -0.000003   0.000000
    31  F    0.002006   0.000009  -0.000010   0.000000  -0.000001   0.000000
    32  O   -0.027917   0.000873  -0.001720   0.000013   0.000793   0.000035
    33  H   -0.000275   0.000001   0.007261  -0.000050  -0.011786   0.281460
    34  H   -0.000006   0.000337   0.000003   0.000000   0.000000   0.000000
    35  H    0.000001  -0.000002   0.000000   0.000000   0.000000   0.000000
    36  H    0.000001   0.000001   0.000000   0.000000   0.000000   0.000000
    37  H    0.000012  -0.000030   0.000004   0.000235   0.000000   0.000000
    38  H    0.000000   0.000000  -0.000004  -0.000001   0.000000   0.000000
    39  H   -0.000121   0.000084   0.000800   0.003541   0.000034   0.000000
    40  H    0.000000   0.000000   0.000000   0.000000   0.000000   0.000000
    41  H    0.000000   0.000000   0.000000   0.000000   0.000000   0.000000
    42  H    0.000000   0.000000   0.000000   0.000000   0.000000   0.000000
    43  H    0.000000   0.000000   0.000000   0.000000   0.000000   0.000000
    44  H    0.000000   0.000001   0.000000   0.000000   0.000000   0.000000
              13         14         15         16         17         18
     1  F    0.000000   0.000000   0.000388  -0.000003   0.000141  -0.000066
     2  C    0.000755  -0.000024  -0.009941   0.000141   0.002580   0.002780
     3  F   -0.003444   0.000006   0.000109   0.000001   0.000020   0.000000
     4  C   -0.000649  -0.000497  -0.047206   0.001826  -0.007911   0.000604
     5  F    0.000000  -0.000004   0.003055   0.000000   0.002929  -0.002440
     6  F    0.000006  -0.000169   0.002316  -0.000001   0.000013   0.000000
     7  C   -0.000888  -0.026787   0.074430  -0.033977  -0.041967   0.007809
     8  F   -0.000003  -0.001715  -0.034020   0.000369   0.006462  -0.001120
     9  C   -0.052567   0.261265  -0.025597   0.009871   0.002576   0.000062
    10  F   -0.000974  -0.040713  -0.000196  -0.000843  -0.000385   0.000000
    11  C    0.537113  -0.033181   0.001840  -0.001113  -0.000220   0.000000
    12  O   -0.093211   0.002567  -0.000378   0.000013  -0.000002   0.000000
    13  O    8.033858   0.000736   0.006255  -0.001576   0.000046   0.000000
    14  F    0.000736   9.111760   0.002095   0.000005  -0.000028   0.000000
    15  C    0.006255   0.002095   5.069005   0.252402   0.202089  -0.034442
    16  F   -0.001576   0.000005   0.252402   9.095582  -0.023706   0.000292
    17  C    0.000046  -0.000028   0.202089  -0.023706   4.694346   0.237136
    18  F    0.000000   0.000000  -0.034442   0.000292   0.237136   9.132650
    19  C   -0.000001   0.000002  -0.063676  -0.000116   0.247351  -0.034601
    20  N    0.000000   0.000000   0.001590   0.000022  -0.080319  -0.002042
    21  C    0.000000   0.000000  -0.000023   0.000001   0.004753   0.000096
    22  C    0.000000   0.000000   0.000050   0.000000  -0.000507   0.000010
    23  C    0.000000  -0.000018  -0.000004   0.000000  -0.000045   0.000000
    24  C    0.000000   0.000017   0.000001   0.000000   0.000003   0.000000
    25  C    0.000000  -0.000119   0.000000   0.000000   0.000000   0.000000
    26  N    0.000000   0.000000   0.000000   0.000000   0.000000   0.000000
    27  C    0.000000   0.000002   0.000000   0.000000   0.000001   0.000000
    28  C    0.000000   0.000000   0.000000   0.000000  -0.000002   0.000000
    29  C    0.000000   0.000000   0.000000   0.000000  -0.000028  -0.000003
    30  O    0.000000   0.000000   0.009520  -0.001227  -0.060974   0.000743
    31  F    0.000000   0.000000  -0.024410  -0.000346   0.263378  -0.039414
    32  O   -0.000609  -0.000005   0.147966  -0.044764  -0.028118  -0.000358
    33  H    0.008506  -0.000094  -0.000004   0.000002   0.000000   0.000000
    34  H    0.000000   0.000000   0.000494  -0.000003  -0.003059   0.015806
    35  H    0.000000   0.000000  -0.000002   0.000000  -0.000144  -0.000005
    36  H    0.000000   0.000000  -0.000023   0.000000   0.000296  -0.000010
    37  H    0.000000  -0.000001  -0.000010   0.000000   0.000127  -0.000001
    38  H    0.000000  -0.000002   0.000000   0.000000   0.000000   0.000000
    39  H    0.000000   0.000952   0.000000   0.000000   0.000000   0.000000
    40  H    0.000000   0.000000   0.000000   0.000000   0.000000   0.000000
    41  H    0.000000   0.000000   0.000000   0.000000   0.000000   0.000000
    42  H    0.000000   0.000000   0.000000   0.000000   0.000000   0.000000
    43  H    0.000000   0.000000   0.000000   0.000000   0.000000   0.000000
    44  H    0.000000   0.000000   0.000000   0.000000   0.000000   0.000000
              19         20         21         22         23         24
     1  F   -0.000001   0.000000   0.000000   0.000000   0.000000   0.000000
     2  C    0.000130  -0.000005   0.000000   0.000000   0.000000   0.000000
     3  F    0.000001   0.000000   0.000000   0.000000   0.000000   0.000000
     4  C    0.000481  -0.000002   0.000001  -0.000006   0.000002  -0.000002
     5  F   -0.000251   0.000008   0.000000   0.000000   0.000000   0.000000
     6  F   -0.000001   0.000000   0.000000   0.000000   0.000000   0.000000
     7  C   -0.003621   0.001215  -0.000013   0.000104   0.000192  -0.000006
     8  F    0.014608  -0.001925  -0.000742   0.000669   0.001967  -0.000107
     9  C   -0.000336   0.000004  -0.000003   0.000003   0.000087   0.000099
    10  F    0.000695   0.000003  -0.000001   0.000005  -0.000037   0.000031
    11  C    0.000056   0.000000   0.000000   0.000000   0.000001   0.000001
    12  O    0.000000   0.000000   0.000000   0.000000   0.000000   0.000000
    13  O   -0.000001   0.000000   0.000000   0.000000   0.000000   0.000000
    14  F    0.000002   0.000000   0.000000   0.000000  -0.000018   0.000017
    15  C   -0.063676   0.001590  -0.000023   0.000050  -0.000004   0.000001
    16  F   -0.000116   0.000022   0.000001   0.000000   0.000000   0.000000
    17  C    0.247351  -0.080319   0.004753  -0.000507  -0.000045   0.000003
    18  F   -0.034601  -0.002042   0.000096   0.000010   0.000000   0.000000
    19  C    4.580687   0.237610  -0.026774  -0.003352   0.004463  -0.000088
    20  N    0.237610   7.037455   0.250564  -0.076314  -0.006298  -0.000153
    21  C   -0.026774   0.250564   4.908382   0.350481  -0.042983   0.005028
    22  C   -0.003352  -0.076314   0.350481   4.803459   0.527382  -0.026919
    23  C    0.004463  -0.006298  -0.042983   0.527382   4.943952   0.510298
    24  C   -0.000088  -0.000153   0.005028  -0.026919   0.510298   4.758555
    25  C    0.000001   0.000005  -0.000169   0.005088  -0.049579   0.363720
    26  N    0.000000   0.000000   0.000000  -0.000065   0.006361  -0.067690
    27  C    0.000001   0.000016   0.000660  -0.038803  -0.045141   0.553054
    28  C   -0.000005  -0.000001   0.005119  -0.024225  -0.048170  -0.023457
    29  C   -0.000373  -0.001144  -0.054388   0.544874  -0.044475  -0.036483
    30  O    0.549669  -0.100033   0.006393  -0.004161  -0.000734   0.000145
    31  F   -0.024987  -0.000147  -0.000046   0.000000   0.000000   0.000000
    32  O    0.002322  -0.000029   0.000000   0.000000   0.000000   0.000000
    33  H    0.000000   0.000000   0.000000   0.000000   0.000000   0.000000
    34  H   -0.026081   0.337871  -0.027091   0.000484   0.000043   0.000012
    35  H    0.005120  -0.039772   0.383323  -0.040051   0.003868  -0.000152
    36  H   -0.004926  -0.033371   0.385329  -0.032351  -0.004170   0.000052
    37  H    0.000893  -0.001011  -0.007019  -0.041749   0.372461  -0.039508
    38  H    0.000000   0.000000   0.000002  -0.000155   0.006557  -0.041038
    39  H    0.000001   0.000000  -0.000003  -0.000040  -0.009934  -0.020869
    40  H    0.000000   0.000000   0.000000  -0.000020  -0.000639  -0.003547
    41  H    0.000000   0.000000   0.000000   0.000008  -0.000035   0.006209
    42  H    0.000000   0.000000   0.000007   0.000399   0.005426  -0.041968
    43  H    0.000000   0.000002  -0.000165   0.003350   0.001006   0.003412
    44  H    0.000040   0.000274  -0.007514  -0.046588   0.004901   0.000466
              25         26         27         28         29         30
     1  F    0.000000   0.000000   0.000000   0.000000   0.000000   0.000000
     2  C    0.000000   0.000000   0.000000   0.000000   0.000000  -0.000001
     3  F    0.000000   0.000000   0.000000   0.000000   0.000000   0.000000
     4  C    0.000000   0.000000   0.000000   0.000000   0.000000   0.000031
     5  F    0.000000   0.000000   0.000000   0.000000   0.000000   0.000000
     6  F    0.000000   0.000000   0.000000   0.000000   0.000000   0.000000
     7  C    0.000013   0.000000  -0.000010  -0.000001   0.000010  -0.000314
     8  F   -0.000063   0.000000  -0.000005  -0.000003  -0.000012  -0.002310
     9  C   -0.000108   0.000001   0.000006  -0.000001  -0.000001  -0.000214
    10  F   -0.000655   0.000002   0.000001   0.000000   0.000000   0.000188
    11  C   -0.000003   0.000000   0.000000   0.000000   0.000000  -0.000003
    12  O    0.000000   0.000000   0.000000   0.000000   0.000000   0.000000
    13  O    0.000000   0.000000   0.000000   0.000000   0.000000   0.000000
    14  F   -0.000119   0.000000   0.000002   0.000000   0.000000   0.000000
    15  C    0.000000   0.000000   0.000000   0.000000   0.000000   0.009520
    16  F    0.000000   0.000000   0.000000   0.000000   0.000000  -0.001227
    17  C    0.000000   0.000000   0.000001  -0.000002  -0.000028  -0.060974
    18  F    0.000000   0.000000   0.000000   0.000000  -0.000003   0.000743
    19  C    0.000001   0.000000   0.000001  -0.000005  -0.000373   0.549669
    20  N    0.000005   0.000000   0.000016  -0.000001  -0.001144  -0.100033
    21  C   -0.000169   0.000000   0.000660   0.005119  -0.054388   0.006393
    22  C    0.005088  -0.000065  -0.038803  -0.024225   0.544874  -0.004161
    23  C   -0.049579   0.006361  -0.045141  -0.048170  -0.044475  -0.000734
    24  C    0.363720  -0.067690   0.553054  -0.023457  -0.036483   0.000145
    25  C    4.893623   0.291495  -0.055955   0.006095   0.000493  -0.000011
    26  N    0.291495   6.788501  -0.001682  -0.000106   0.000018   0.000000
    27  C   -0.055955  -0.001682   4.895676   0.523133  -0.044316   0.000002
    28  C    0.006095  -0.000106   0.523133   4.829889   0.536350   0.000000
    29  C    0.000493   0.000018  -0.044316   0.536350   4.882964  -0.000045
    30  O   -0.000011   0.000000   0.000002   0.000000  -0.000045   8.088536
    31  F    0.000000   0.000000   0.000000   0.000000   0.000000  -0.000510
    32  O    0.000000   0.000000   0.000000   0.000000   0.000000   0.000001
    33  H    0.000000   0.000000   0.000000   0.000000   0.000000   0.000000
    34  H    0.000000   0.000000  -0.000007  -0.000040   0.002597   0.002805
    35  H    0.000002   0.000000  -0.000004   0.000150  -0.005029   0.000369
    36  H   -0.000002  -0.000001   0.000006  -0.000180   0.003724   0.007686
    37  H   -0.008415   0.002670   0.005303   0.000090   0.004815   0.007163
    38  H    0.380550  -0.053654  -0.009663   0.000195  -0.000011   0.000000
    39  H    0.368195  -0.039678   0.004358  -0.000271   0.000033   0.000000
    40  H   -0.038259   0.339275   0.003456  -0.000088  -0.000010   0.000000
    41  H   -0.034061   0.340572   0.000032   0.000006   0.000000   0.000000
    42  H   -0.009076   0.000093   0.371945  -0.041382   0.004653   0.000000
    43  H   -0.000169   0.000001  -0.035090   0.369553  -0.036090   0.000000
    44  H    0.000007   0.000000   0.004561  -0.037964   0.372375   0.000000
              31         32         33         34         35         36
     1  F    0.000000  -0.042204   0.000001   0.000000   0.000000   0.000000
     2  C    0.000063   0.198463   0.000135  -0.000002   0.000000   0.000000
     3  F    0.000000  -0.052522   0.000787   0.000000   0.000000   0.000000
     4  C    0.000026  -0.035094  -0.000015  -0.000011   0.000000   0.000000
     5  F   -0.000002  -0.000706   0.000000   0.000056   0.000000   0.000000
     6  F    0.000000   0.000727   0.000043   0.000000   0.000000   0.000000
     7  C    0.002006  -0.027917  -0.000275  -0.000006   0.000001   0.000001
     8  F    0.000009   0.000873   0.000001   0.000337  -0.000002   0.000001
     9  C   -0.000010  -0.001720   0.007261   0.000003   0.000000   0.000000
    10  F    0.000000   0.000013  -0.000050   0.000000   0.000000   0.000000
    11  C   -0.000001   0.000793  -0.011786   0.000000   0.000000   0.000000
    12  O    0.000000   0.000035   0.281460   0.000000   0.000000   0.000000
    13  O    0.000000  -0.000609   0.008506   0.000000   0.000000   0.000000
    14  F    0.000000  -0.000005  -0.000094   0.000000   0.000000   0.000000
    15  C   -0.024410   0.147966  -0.000004   0.000494  -0.000002  -0.000023
    16  F   -0.000346  -0.044764   0.000002  -0.000003   0.000000   0.000000
    17  C    0.263378  -0.028118   0.000000  -0.003059  -0.000144   0.000296
    18  F   -0.039414  -0.000358   0.000000   0.015806  -0.000005  -0.000010
    19  C   -0.024987   0.002322   0.000000  -0.026081   0.005120  -0.004926
    20  N   -0.000147  -0.000029   0.000000   0.337871  -0.039772  -0.033371
    21  C   -0.000046   0.000000   0.000000  -0.027091   0.383323   0.385329
    22  C    0.000000   0.000000   0.000000   0.000484  -0.040051  -0.032351
    23  C    0.000000   0.000000   0.000000   0.000043   0.003868  -0.004170
    24  C    0.000000   0.000000   0.000000   0.000012  -0.000152   0.000052
    25  C    0.000000   0.000000   0.000000   0.000000   0.000002  -0.000002
    26  N    0.000000   0.000000   0.000000   0.000000   0.000000  -0.000001
    27  C    0.000000   0.000000   0.000000  -0.000007  -0.000004   0.000006
    28  C    0.000000   0.000000   0.000000  -0.000040   0.000150  -0.000180
    29  C    0.000000   0.000000   0.000000   0.002597  -0.005029   0.003724
    30  O   -0.000510   0.000001   0.000000   0.002805   0.000369   0.007686
    31  F    9.094440  -0.000084   0.000000   0.000311   0.000001  -0.000002
    32  O   -0.000084   8.376591   0.000010  -0.000002   0.000000   0.000000
    33  H    0.000000   0.000010   0.353789   0.000000   0.000000   0.000000
    34  H    0.000311  -0.000002   0.000000   0.407073  -0.003528   0.003888
    35  H    0.000001   0.000000   0.000000  -0.003528   0.591385  -0.027017
    36  H   -0.000002   0.000000   0.000000   0.003888  -0.027017   0.541138
    37  H    0.000000   0.000000   0.000000  -0.000025   0.000043   0.003327
    38  H    0.000000   0.000000   0.000000   0.000000   0.000000   0.000000
    39  H    0.000000   0.000000   0.000000   0.000000   0.000000   0.000001
    40  H    0.000000   0.000000   0.000000   0.000000   0.000000   0.000000
    41  H    0.000000   0.000000   0.000000   0.000000   0.000000   0.000000
    42  H    0.000000   0.000000   0.000000   0.000000   0.000000   0.000000
    43  H    0.000000   0.000000   0.000000   0.000001  -0.000004   0.000002
    44  H    0.000000   0.000000   0.000000   0.000467   0.004260   0.000093
              37         38         39         40         41         42
     1  F    0.000000   0.000000   0.000000   0.000000   0.000000   0.000000
     2  C    0.000000   0.000000   0.000000   0.000000   0.000000   0.000000
     3  F    0.000000   0.000000   0.000000   0.000000   0.000000   0.000000
     4  C    0.000001   0.000000   0.000001   0.000000   0.000000   0.000000
     5  F    0.000000   0.000000   0.000000   0.000000   0.000000   0.000000
     6  F    0.000000   0.000000   0.000000   0.000000   0.000000   0.000000
     7  C    0.000012   0.000000  -0.000121   0.000000   0.000000   0.000000
     8  F   -0.000030   0.000000   0.000084   0.000000   0.000000   0.000000
     9  C    0.000004  -0.000004   0.000800   0.000000   0.000000   0.000000
    10  F    0.000235  -0.000001   0.003541   0.000000   0.000000   0.000000
    11  C    0.000000   0.000000   0.000034   0.000000   0.000000   0.000000
    12  O    0.000000   0.000000   0.000000   0.000000   0.000000   0.000000
    13  O    0.000000   0.000000   0.000000   0.000000   0.000000   0.000000
    14  F   -0.000001  -0.000002   0.000952   0.000000   0.000000   0.000000
    15  C   -0.000010   0.000000   0.000000   0.000000   0.000000   0.000000
    16  F    0.000000   0.000000   0.000000   0.000000   0.000000   0.000000
    17  C    0.000127   0.000000   0.000000   0.000000   0.000000   0.000000
    18  F   -0.000001   0.000000   0.000000   0.000000   0.000000   0.000000
    19  C    0.000893   0.000000   0.000001   0.000000   0.000000   0.000000
    20  N   -0.001011   0.000000   0.000000   0.000000   0.000000   0.000000
    21  C   -0.007019   0.000002  -0.000003   0.000000   0.000000   0.000007
    22  C   -0.041749  -0.000155  -0.000040  -0.000020   0.000008   0.000399
    23  C    0.372461   0.006557  -0.009934  -0.000639  -0.000035   0.005426
    24  C   -0.039508  -0.041038  -0.020869  -0.003547   0.006209  -0.041968
    25  C   -0.008415   0.380550   0.368195  -0.038259  -0.034061  -0.009076
    26  N    0.002670  -0.053654  -0.039678   0.339275   0.340572   0.000093
    27  C    0.005303  -0.009663   0.004358   0.003456   0.000032   0.371945
    28  C    0.000090   0.000195  -0.000271  -0.000088   0.000006  -0.041382
    29  C    0.004815  -0.000011   0.000033  -0.000010   0.000000   0.004653
    30  O    0.007163   0.000000   0.000000   0.000000   0.000000   0.000000
    31  F    0.000000   0.000000   0.000000   0.000000   0.000000   0.000000
    32  O    0.000000   0.000000   0.000000   0.000000   0.000000   0.000000
    33  H    0.000000   0.000000   0.000000   0.000000   0.000000   0.000000
    34  H   -0.000025   0.000000   0.000000   0.000000   0.000000   0.000000
    35  H    0.000043   0.000000   0.000000   0.000000   0.000000   0.000000
    36  H    0.003327   0.000000   0.000001   0.000000   0.000000   0.000000
    37  H    0.578880   0.000200   0.002621  -0.000012  -0.000113  -0.000141
    38  H    0.000200   0.686309  -0.047943  -0.005585  -0.004446   0.005572
    39  H    0.002621  -0.047943   0.620343   0.006762  -0.003935   0.000095
    40  H   -0.000012  -0.005585   0.006762   0.488309  -0.031910   0.000177
    41  H   -0.000113  -0.004446  -0.003935  -0.031910   0.483362  -0.000041
    42  H   -0.000141   0.005572   0.000095   0.000177  -0.000041   0.618929
    43  H    0.000014  -0.000003   0.000003   0.000001   0.000000  -0.005429
    44  H   -0.000146   0.000000   0.000000   0.000000   0.000000  -0.000174
              43         44
     1  F    0.000000   0.000000
     2  C    0.000000   0.000000
     3  F    0.000000   0.000000
     4  C    0.000000   0.000000
     5  F    0.000000   0.000000
     6  F    0.000000   0.000000
     7  C    0.000000   0.000000
     8  F    0.000000   0.000001
     9  C    0.000000   0.000000
    10  F    0.000000   0.000000
    11  C    0.000000   0.000000
    12  O    0.000000   0.000000
    13  O    0.000000   0.000000
    14  F    0.000000   0.000000
    15  C    0.000000   0.000000
    16  F    0.000000   0.000000
    17  C    0.000000   0.000000
    18  F    0.000000   0.000000
    19  C    0.000000   0.000040
    20  N    0.000002   0.000274
    21  C   -0.000165  -0.007514
    22  C    0.003350  -0.046588
    23  C    0.001006   0.004901
    24  C    0.003412   0.000466
    25  C   -0.000169   0.000007
    26  N    0.000001   0.000000
    27  C   -0.035090   0.004561
    28  C    0.369553  -0.037964
    29  C   -0.036090   0.372375
    30  O    0.000000   0.000000
    31  F    0.000000   0.000000
    32  O    0.000000   0.000000
    33  H    0.000000   0.000000
    34  H    0.000001   0.000467
    35  H   -0.000004   0.004260
    36  H    0.000002   0.000093
    37  H    0.000014  -0.000146
    38  H   -0.000003   0.000000
    39  H    0.000003   0.000000
    40  H    0.000001   0.000000
    41  H    0.000000   0.000000
    42  H   -0.005429  -0.000174
    43  H    0.607996  -0.005439
    44  H   -0.005439   0.622639
 Mulliken charges:
               1
     1  F   -0.243464
     2  C    0.744911
     3  F   -0.241681
     4  C    0.540921
     5  F   -0.264604
     6  F   -0.245024
     7  C    0.167768
     8  F   -0.286560
     9  C    0.640336
    10  F   -0.265078
    11  C    0.502729
    12  O   -0.473870
    13  O   -0.433352
    14  F   -0.276053
    15  C    0.466326
    16  F   -0.252852
    17  C    0.583168
    18  F   -0.283485
    19  C    0.545059
    20  N   -0.524072
    21  C   -0.133207
    22  C    0.098942
    23  C   -0.136703
    24  C    0.100885
    25  C   -0.112643
    26  N   -0.606112
    27  C   -0.131534
    28  C   -0.094686
    29  C   -0.130500
    30  O   -0.502717
    31  F   -0.270276
    32  O   -0.493662
    33  H    0.360230
    34  H    0.287605
    35  H    0.127187
    36  H    0.156509
    37  H    0.119321
    38  H    0.083119
    39  H    0.114971
    40  H    0.242088
    41  H    0.244353
    42  H    0.090914
    43  H    0.097048
    44  H    0.087743
 Sum of Mulliken charges =   0.00000
 Mulliken charges with hydrogens summed into heavy atoms:
               1
     1  F   -0.243464
     2  C    0.744911
     3  F   -0.241681
     4  C    0.540921
     5  F   -0.264604
     6  F   -0.245024
     7  C    0.167768
     8  F   -0.286560
     9  C    0.640336
    10  F   -0.265078
    11  C    0.502729
    12  O   -0.113640
    13  O   -0.433352
    14  F   -0.276053
    15  C    0.466326
    16  F   -0.252852
    17  C    0.583168
    18  F   -0.283485
    19  C    0.545059
    20  N   -0.236467
    21  C    0.150489
    22  C    0.098942
    23  C   -0.017382
    24  C    0.100885
    25  C    0.085447
    26  N   -0.119671
    27  C   -0.040619
    28  C    0.002362
    29  C   -0.042758
    30  O   -0.502717
    31  F   -0.270276
    32  O   -0.493662
 Electronic spatial extent (au):  <R**2>=          11732.7164
 Charge=              0.0000 electrons
 Dipole moment (field-independent basis, Debye):
    X=             -2.2457    Y=             -1.2646    Z=             -4.1083  Tot=              4.8498
 Quadrupole moment (field-independent basis, Debye-Ang):
   XX=           -178.5364   YY=           -150.6530   ZZ=           -178.5913
   XY=             -2.5940   XZ=             -7.6062   YZ=             -7.3444
 Traceless Quadrupole moment (field-independent basis, Debye-Ang):
   XX=             -9.2762   YY=             18.6072   ZZ=             -9.3311
   XY=             -2.5940   XZ=             -7.6062   YZ=             -7.3444
 Octapole moment (field-independent basis, Debye-Ang**2):
  XXX=            220.4541  YYY=             19.2113  ZZZ=           -401.3912  XYY=             64.2113
  XXY=            -21.4939  XXZ=           -115.2436  XZZ=             79.7777  YZZ=            -13.7970
  YYZ=            -80.8217  XYZ=             44.7494
 Hexadecapole moment (field-independent basis, Debye-Ang**3):
 XXXX=          -4402.1390 YYYY=          -3418.4602 ZZZZ=          -5445.2114 XXXY=           -490.6303
 XXXZ=           1481.5414 YYYX=           -321.2735 YYYZ=            316.2348 ZZZX=           1463.4346
 ZZZY=            647.9519 XXYY=          -1246.6355 XXZZ=          -1548.9935 YYZZ=          -1426.6219
 XXYZ=            221.9022 YYXZ=            383.8334 ZZXY=           -138.6424
 N-N= 4.079344958803D+03 E-N=-1.293004288124D+04  KE= 2.009658560793D+03
 No NMR shielding tensors so no spin-rotation constants.
 Leave Link  601 at Mon Feb  3 22:01:18 2025, MaxMem=  5368709120 cpu:         4.0
 (Enter /home/k0335/k033513/app/g09/l9999.exe)
 1\1\GINC-C15U05N1\SP\RCAM-B3LYP\6-31G(d,p)\C16H12F10N2O4\K033513\03-Fe
 b-2025\0\\#p CAM-B3LYP/6-31G(d,p) SCRF=(PCM,Solvent=Generic,Read) NoSy
 mm out=wfn\\Title mXD2_neu\\0,1\F,0,-4.542124,-0.514505,2.50271\C,0,-3
 .269217,-0.948767,2.444179\F,0,-3.236115,-2.160288,3.033663\C,0,-2.706
 865,-0.985742,1.03897\F,0,-3.208022,0.07062,0.336007\F,0,-3.015041,-2.
 084655,0.333108\C,0,-1.238295,-0.768278,1.252352\F,0,-0.741499,-0.1033
 72,0.160012\C,0,-0.407988,-2.032765,1.393152\F,0,0.906347,-1.668639,1.
 520681\C,0,-0.803493,-2.981733,2.522398\O,0,-1.618382,-3.982639,2.1179
 46\O,0,-0.503573,-2.891553,3.701296\F,0,-0.455499,-2.686984,0.186078\C
 ,0,-1.2336,0.13978,2.476373\F,0,-0.21868,-0.193552,3.308945\C,0,-1.151
 048,1.645268,2.134159\F,0,-2.224195,1.992224,1.355302\C,0,0.175126,2.0
 13281,1.451353\N,0,0.039197,2.913015,0.402442\C,0,1.13882,3.179832,-0.
 501466\C,0,1.180473,2.146342,-1.596538\C,0,1.903727,0.955607,-1.412035
 \C,0,1.888883,-0.062331,-2.375198\C,0,2.627911,-1.349365,-2.130354\N,0
 ,4.06132,-1.187122,-2.327681\C,0,1.16185,0.136154,-3.553867\C,0,0.4365
 35,1.314103,-3.75037\C,0,0.437533,2.310204,-2.773113\O,0,1.263419,1.57
 9682,1.822775\F,0,-1.308834,2.372257,3.283243\O,0,-2.444779,-0.104167,
 3.231486\H,0,-1.803352,-4.50998,2.925787\H,0,-0.897663,3.08519,0.05268
 7\H,0,0.981909,4.181726,-0.922169\H,0,2.085107,3.202621,0.05143\H,0,2.
 471866,0.803765,-0.493529\H,0,2.254995,-2.131652,-2.801432\H,0,2.42837
 7,-1.695529,-1.110207\H,0,4.228493,-0.919287,-3.296577\H,0,4.509784,-2
 .092756,-2.198969\H,0,1.138079,-0.63555,-4.322723\H,0,-0.142176,1.4414
 02,-4.661633\H,0,-0.149313,3.208136,-2.935124\\Version=ES64L-G09RevD.0
 1\HF=-2025.0338161\RMSD=9.244e-09\Dipole=-0.8835298,-0.4975159,-1.6163
 121\Quadrupole=-6.8966154,13.8340317,-6.9374164,-1.9285909,-5.6550423,
 -5.4603848\PG=C01 [X(C16H12F10N2O4)]\\@

 Writing a WFN file to "cytop/mXD2/mXD2_neu.wfn"


 The theorems and results in mathematical physics are
 not theorems and results about Nature, but about our
 description of it.
                   --Gerard 't Hooft
 Job cpu time:       0 days  0 hours 18 minutes 54.8 seconds.
 File lengths (MBytes):  RWF=    338 Int=      0 D2E=      0 Chk=     12 Scr=      1
 Normal termination of Gaussian 09 at Mon Feb  3 22:01:18 2025.
