 Entering Gaussian System, Link 0=g09
 Initial command:
 /home/k0335/k033513/app/g09/l1.exe "/home/k0335/k033513/app/g09/scratch/Gau-555943.inp" -scrdir="/home/k0335/k033513/app/g09/scratch/"
 Default is to use a total of  36 processors:
                               36 via shared-memory
                                1 via Linda
 Entering Link 1 = /home/k0335/k033513/app/g09/l1.exe PID=    555944.
  
 Copyright (c) 1988,1990,1992,1993,1995,1998,2003,2009,2013,
            Gaussian, Inc.  All Rights Reserved.
  
 This is part of the Gaussian(R) 09 program.  It is based on
 the Gaussian(R) 03 system (copyright 2003, Gaussian, Inc.),
 the Gaussian(R) 98 system (copyright 1998, Gaussian, Inc.),
 the Gaussian(R) 94 system (copyright 1995, Gaussian, Inc.),
 the Gaussian 92(TM) system (copyright 1992, Gaussian, Inc.),
 the Gaussian 90(TM) system (copyright 1990, Gaussian, Inc.),
 the Gaussian 88(TM) system (copyright 1988, Gaussian, Inc.),
 the Gaussian 86(TM) system (copyright 1986, Carnegie Mellon
 University), and the Gaussian 82(TM) system (copyright 1983,
 Carnegie Mellon University). Gaussian is a federally registered
 trademark of Gaussian, Inc.
  
 This software contains proprietary and confidential information,
 including trade secrets, belonging to Gaussian, Inc.
  
 This software is provided under written license and may be
 used, copied, transmitted, or stored only in accord with that
 written license.
  
 The following legend is applicable only to US Government
 contracts under FAR:
  
                    RESTRICTED RIGHTS LEGEND
  
 Use, reproduction and disclosure by the US Government is
 subject to restrictions as set forth in subparagraphs (a)
 and (c) of the Commercial Computer Software - Restricted
 Rights clause in FAR 52.227-19.
  
 Gaussian, Inc.
 340 Quinnipiac St., Bldg. 40, Wallingford CT 06492
  
  
 ---------------------------------------------------------------
 Warning -- This program may not be used in any manner that
 competes with the business of Gaussian, Inc. or will provide
 assistance to any competitor of Gaussian, Inc.  The licensee
 of this program is prohibited from giving any competitor of
 Gaussian, Inc. access to this program.  By using this program,
 the user acknowledges that Gaussian, Inc. is engaged in the
 business of creating and licensing software in the field of
 computational chemistry and represents and warrants to the
 licensee that it is not a competitor of Gaussian, Inc. and that
 it will not use this program in any manner prohibited above.
 ---------------------------------------------------------------
  

 Cite this work as:
 Gaussian 09, Revision D.01,
 M. J. Frisch, G. W. Trucks, H. B. Schlegel, G. E. Scuseria, 
 M. A. Robb, J. R. Cheeseman, G. Scalmani, V. Barone, B. Mennucci, 
 G. A. Petersson, H. Nakatsuji, M. Caricato, X. Li, H. P. Hratchian, 
 A. F. Izmaylov, J. Bloino, G. Zheng, J. L. Sonnenberg, M. Hada, 
 M. Ehara, K. Toyota, R. Fukuda, J. Hasegawa, M. Ishida, T. Nakajima, 
 Y. Honda, O. Kitao, H. Nakai, T. Vreven, J. A. Montgomery, Jr., 
 J. E. Peralta, F. Ogliaro, M. Bearpark, J. J. Heyd, E. Brothers, 
 K. N. Kudin, V. N. Staroverov, T. Keith, R. Kobayashi, J. Normand, 
 K. Raghavachari, A. Rendell, J. C. Burant, S. S. Iyengar, J. Tomasi, 
 M. Cossi, N. Rega, J. M. Millam, M. Klene, J. E. Knox, J. B. Cross, 
 V. Bakken, C. Adamo, J. Jaramillo, R. Gomperts, R. E. Stratmann, 
 O. Yazyev, A. J. Austin, R. Cammi, C. Pomelli, J. W. Ochterski, 
 R. L. Martin, K. Morokuma, V. G. Zakrzewski, G. A. Voth, 
 P. Salvador, J. J. Dannenberg, S. Dapprich, A. D. Daniels, 
 O. Farkas, J. B. Foresman, J. V. Ortiz, J. Cioslowski, 
 and D. J. Fox, Gaussian, Inc., Wallingford CT, 2013.
 
 ******************************************
 Gaussian 09:  ES64L-G09RevD.01 24-Apr-2013
                 3-Mar-2024 
 ******************************************
 %nprocshared=24
 Will use up to   24 processors via shared memory.
 %mem=40GB
 %rwf=A230421842/A230421842_p1.rwf
 %nosave
 %chk=A230421842/A230421842_p1.chk
 ----------------------------------------------------------------------
 #p CAM-B3LYP/6-31G(d,p) SCRF=(PCM,Solvent=Generic,Read) NoSymm out=wfn
 ----------------------------------------------------------------------
 1/38=1,40=2/1;
 2/12=2,15=1,17=6,18=5,40=1/2;
 3/5=1,6=6,7=101,11=2,16=1,25=1,30=1,70=2203,72=-2,74=-40/1,2,3;
 4//1;
 5/5=2,38=5/2;
 6/7=2,8=2,9=2,10=2,28=1/1;
 99/5=1,6=100,9=1/99;
 Leave Link    1 at Sun Mar  3 18:10:02 2024, MaxMem=  5368709120 cpu:         1.5
 (Enter /home/k0335/k033513/app/g09/l101.exe)
 -------------------
 Title A230421842_p1
 -------------------
 Symbolic Z-matrix:
 Charge =  1 Multiplicity = 2
 C                    -2.88467  -1.91616   2.48058 
 C                    -2.17337  -0.57282   2.56223 
 N                    -1.55643  -0.21169   1.28645 
 C                    -2.30319   0.51834   0.38542 
 O                    -3.48857   0.7885    0.58275 
 N                    -1.63517   0.92924  -0.74966 
 C                    -2.34396   1.79604  -1.69051 
 C                    -3.10848   0.991    -2.73223 
 C                    -0.37587   0.48168  -1.09042 
 O                     0.1916    0.87863  -2.10693 
 N                     0.20798  -0.41951  -0.23638 
 C                     1.52552  -0.92207  -0.58848 
 F                     1.46268  -1.32895  -1.90154 
 F                     1.77824  -2.0984    0.06261 
 C                     2.76013   0.00939  -0.43655 
 F                     2.5586    1.16132  -1.14056 
 O                     3.87194  -0.65221  -1.06775 
 C                     5.09459   0.00873  -0.88726 
 F                     4.96183   1.33826  -1.00949 
 F                     5.96178  -0.42969  -1.81869 
 F                     5.58177  -0.29679   0.32723 
 C                     2.92941   0.35289   1.0444 
 F                     3.95404   1.2169    1.24433 
 F                     3.18199  -0.73259   1.80137 
 F                     1.83255   0.9734    1.54018 
 C                    -0.2851   -0.67099   1.01744 
 O                     0.38025  -1.25603   1.87123 
 H                    -3.33966  -2.16434   3.44435 
 H                    -2.18637  -2.71672   2.21549 
 H                    -3.67497  -1.89863   1.72306 
 H                    -2.88949   0.20226   2.85812 
 H                    -1.40657  -0.61354   3.34399 
 H                    -1.62779   2.45589  -2.19315 
 H                    -3.04134   2.44016  -1.14281 
 H                    -2.43239   0.35829  -3.31643 
 H                    -3.85079   0.33895  -2.26056 
 H                    -3.63074   1.66124  -3.42179 
 
 NAtoms=     37 NQM=       37 NQMF=       0 NMMI=      0 NMMIF=      0
                NMic=       0 NMicF=      0.
                    Isotopes and Nuclear Properties:
 (Nuclear quadrupole moments (NQMom) in fm**2, nuclear magnetic moments (NMagM)
  in nuclear magnetons)

  Atom         1           2           3           4           5           6           7           8           9          10
 IAtWgt=          12          12          14          12          16          14          12          12          12          16
 AtmWgt=  12.0000000  12.0000000  14.0030740  12.0000000  15.9949146  14.0030740  12.0000000  12.0000000  12.0000000  15.9949146
 NucSpn=           0           0           2           0           0           2           0           0           0           0
 AtZEff=   0.0000000   0.0000000   0.0000000   0.0000000   0.0000000   0.0000000   0.0000000   0.0000000   0.0000000   0.0000000
 NQMom=    0.0000000   0.0000000   2.0440000   0.0000000   0.0000000   2.0440000   0.0000000   0.0000000   0.0000000   0.0000000
 NMagM=    0.0000000   0.0000000   0.4037610   0.0000000   0.0000000   0.4037610   0.0000000   0.0000000   0.0000000   0.0000000
 AtZNuc=   6.0000000   6.0000000   7.0000000   6.0000000   8.0000000   7.0000000   6.0000000   6.0000000   6.0000000   8.0000000

  Atom        11          12          13          14          15          16          17          18          19          20
 IAtWgt=          14          12          19          19          12          19          16          12          19          19
 AtmWgt=  14.0030740  12.0000000  18.9984033  18.9984033  12.0000000  18.9984033  15.9949146  12.0000000  18.9984033  18.9984033
 NucSpn=           2           0           1           1           0           1           0           0           1           1
 AtZEff=   0.0000000   0.0000000   0.0000000   0.0000000   0.0000000   0.0000000   0.0000000   0.0000000   0.0000000   0.0000000
 NQMom=    2.0440000   0.0000000   0.0000000   0.0000000   0.0000000   0.0000000   0.0000000   0.0000000   0.0000000   0.0000000
 NMagM=    0.4037610   0.0000000   2.6288670   2.6288670   0.0000000   2.6288670   0.0000000   0.0000000   2.6288670   2.6288670
 AtZNuc=   7.0000000   6.0000000   9.0000000   9.0000000   6.0000000   9.0000000   8.0000000   6.0000000   9.0000000   9.0000000

  Atom        21          22          23          24          25          26          27          28          29          30
 IAtWgt=          19          12          19          19          19          12          16           1           1           1
 AtmWgt=  18.9984033  12.0000000  18.9984033  18.9984033  18.9984033  12.0000000  15.9949146   1.0078250   1.0078250   1.0078250
 NucSpn=           1           0           1           1           1           0           0           1           1           1
 AtZEff=   0.0000000   0.0000000   0.0000000   0.0000000   0.0000000   0.0000000   0.0000000   0.0000000   0.0000000   0.0000000
 NQMom=    0.0000000   0.0000000   0.0000000   0.0000000   0.0000000   0.0000000   0.0000000   0.0000000   0.0000000   0.0000000
 NMagM=    2.6288670   0.0000000   2.6288670   2.6288670   2.6288670   0.0000000   0.0000000   2.7928460   2.7928460   2.7928460
 AtZNuc=   9.0000000   6.0000000   9.0000000   9.0000000   9.0000000   6.0000000   8.0000000   1.0000000   1.0000000   1.0000000

  Atom        31          32          33          34          35          36          37
 IAtWgt=           1           1           1           1           1           1           1
 AtmWgt=   1.0078250   1.0078250   1.0078250   1.0078250   1.0078250   1.0078250   1.0078250
 NucSpn=           1           1           1           1           1           1           1
 AtZEff=   0.0000000   0.0000000   0.0000000   0.0000000   0.0000000   0.0000000   0.0000000
 NQMom=    0.0000000   0.0000000   0.0000000   0.0000000   0.0000000   0.0000000   0.0000000
 NMagM=    2.7928460   2.7928460   2.7928460   2.7928460   2.7928460   2.7928460   2.7928460
 AtZNuc=   1.0000000   1.0000000   1.0000000   1.0000000   1.0000000   1.0000000   1.0000000
 Leave Link  101 at Sun Mar  3 18:10:02 2024, MaxMem=  5368709120 cpu:         1.0
 (Enter /home/k0335/k033513/app/g09/l202.exe)
                          Input orientation:                          
 ---------------------------------------------------------------------
 Center     Atomic      Atomic             Coordinates (Angstroms)
 Number     Number       Type             X           Y           Z
 ---------------------------------------------------------------------
      1          6           0       -2.884670   -1.916161    2.480584
      2          6           0       -2.173372   -0.572818    2.562225
      3          7           0       -1.556433   -0.211691    1.286449
      4          6           0       -2.303191    0.518344    0.385415
      5          8           0       -3.488567    0.788498    0.582754
      6          7           0       -1.635172    0.929244   -0.749659
      7          6           0       -2.343959    1.796041   -1.690514
      8          6           0       -3.108481    0.991002   -2.732234
      9          6           0       -0.375868    0.481679   -1.090422
     10          8           0        0.191600    0.878633   -2.106931
     11          7           0        0.207979   -0.419508   -0.236380
     12          6           0        1.525523   -0.922070   -0.588481
     13          9           0        1.462678   -1.328950   -1.901543
     14          9           0        1.778242   -2.098397    0.062610
     15          6           0        2.760129    0.009389   -0.436554
     16          9           0        2.558596    1.161318   -1.140557
     17          8           0        3.871943   -0.652208   -1.067754
     18          6           0        5.094593    0.008731   -0.887264
     19          9           0        4.961834    1.338256   -1.009492
     20          9           0        5.961783   -0.429693   -1.818693
     21          9           0        5.581767   -0.296786    0.327234
     22          6           0        2.929409    0.352890    1.044398
     23          9           0        3.954044    1.216897    1.244326
     24          9           0        3.181991   -0.732591    1.801369
     25          9           0        1.832551    0.973403    1.540181
     26          6           0       -0.285103   -0.670988    1.017443
     27          8           0        0.380245   -1.256027    1.871227
     28          1           0       -3.339655   -2.164343    3.444346
     29          1           0       -2.186366   -2.716715    2.215488
     30          1           0       -3.674966   -1.898625    1.723060
     31          1           0       -2.889489    0.202259    2.858119
     32          1           0       -1.406569   -0.613543    3.343991
     33          1           0       -1.627794    2.455886   -2.193146
     34          1           0       -3.041343    2.440161   -1.142805
     35          1           0       -2.432387    0.358288   -3.316434
     36          1           0       -3.850786    0.338954   -2.260561
     37          1           0       -3.630735    1.661242   -3.421794
 ---------------------------------------------------------------------
                    Distance matrix (angstroms):
                    1          2          3          4          5
     1  C    0.000000
     2  C    1.522229   0.000000
     3  N    2.468884   1.462406   0.000000
     4  C    3.264149   2.438440   1.379297   0.000000
     5  O    3.358814   2.738836   2.286636   1.231683   0.000000
     6  N    4.482415   3.676197   2.335309   1.379667   2.286965
     7  C    5.609890   4.870973   3.676070   2.437961   2.737338
     8  C    5.972869   5.599219   4.472710   3.254479   3.342846
     9  C    4.979539   4.205332   2.742993   2.427759   3.547189
    10  O    6.190283   5.431466   3.969818   3.544796   4.559184
    11  N    4.380222   3.677843   2.339946   2.751758   3.974256
    12  C    5.464172   4.871422   3.676745   4.205035   5.425766
    13  F    6.200588   5.806705   4.530628   4.777493   5.930442
    14  F    5.255717   4.918406   4.022126   4.858974   6.028598
    15  C    6.639367   5.802678   4.652991   5.154792   6.379044
    16  F    7.225834   6.253746   4.970812   5.136047   6.298966
    17  O    7.735638   7.051871   5.933262   6.450905   7.679643
    18  C    8.872218   8.066008   7.000697   7.523737   8.742976
    19  F    9.183653   8.204909   7.082477   7.443024   8.616656
    20  F    9.947517   9.240870   8.137137   8.606199   9.826497
    21  F    8.884810   8.075491   7.202863   7.927193   9.138604
    22  C    6.404275   5.403620   4.527706   5.276527   6.449286
    23  F    7.623149   6.518064   5.692802   6.354423   7.484228
    24  F    6.218243   5.411501   4.794699   5.801464   6.949466
    25  F    5.611249   4.413932   3.599172   4.317977   5.409728
    26  C    3.232489   2.441628   1.378259   2.426242   3.547004
    27  O    3.386261   2.732254   2.276692   3.543566   4.561573
    28  H    1.094277   2.161320   3.413100   4.198586   4.114627
    29  H    1.094893   2.171794   2.745009   3.718659   4.080204
    30  H    1.094860   2.171807   2.743093   3.084283   2.925008
    31  H    2.151804   1.095957   2.102032   2.560844   2.424842
    32  H    2.151062   1.095812   2.101767   3.292153   3.731603
    33  H    6.522138   5.664297   4.385047   3.295331   3.734740
    34  H    5.668424   4.853727   3.890829   2.563924   2.430135
    35  H    6.243644   5.957573   4.720032   3.707559   4.062544
    36  H    5.338294   5.186937   4.260111   3.070573   2.901333
    37  H    6.942081   6.551596   5.475231   4.190875   4.101012
                    6          7          8          9         10
     6  N    0.000000
     7  C    1.462506   0.000000
     8  C    2.470841   1.522420   0.000000
     9  C    1.379232   2.441524   3.228332   0.000000
    10  O    2.276367   2.728388   3.360679   1.229993   0.000000
    11  N    2.340896   3.679069   4.383803   1.372007   2.276928
    12  C    3.666515   4.855460   5.452478   2.416142   2.706949
    13  F    4.002868   4.929563   5.193045   2.704911   2.555630
    14  F    4.634413   5.935708   6.421495   3.553374   4.010866
    15  C    4.501426   5.551239   6.377640   3.238067   3.184821
    16  F    4.218335   4.973969   5.888820   3.012557   2.572248
    17  O    5.738509   6.709634   7.361858   4.396602   4.119258
    18  C    6.793822   7.692317   8.465175   5.494624   5.126759
    19  F    6.614778   7.351732   8.259444   5.406601   4.916377
    20  F    7.791230   8.599748   9.226192   6.444129   5.923665
    21  F    7.399125   8.442059   9.302642   6.173263   6.029981
    22  C    4.938241   6.113169   7.150262   3.936864   4.207479
    23  F    5.941217   6.972341   8.108225   4.973905   5.049884
    24  F    5.698640   7.008805   7.943196   4.742918   5.178155
    25  F    4.155769   5.343909   6.532047   3.469723   4.000391
    26  C    2.739722   4.202160   4.979332   2.404158   3.519984
    27  O    3.963125   5.424242   6.197758   3.516062   4.518639
    28  H    5.483176   6.560704   6.939725   6.029062   7.248872
    29  H    4.731694   5.970482   6.251193   4.943346   6.104470
    30  H    4.274569   5.203328   5.340458   4.946269   6.110018
    31  H    3.888172   4.850547   5.649966   4.689066   5.882373
    32  H    4.380687   5.659597   6.510882   4.682507   5.873098
    33  H    2.101034   1.095868   2.151496   2.584727   2.409430
    34  H    2.101131   1.096002   2.151942   3.308044   3.717503
    35  H    2.747704   2.172227   1.094861   3.033088   2.935807
    36  H    2.745945   2.172230   1.094833   3.669421   4.081144
    37  H    3.414440   2.161318   1.094287   4.173826   4.117230
                   11         12         13         14         15
    11  N    0.000000
    12  C    1.453432   0.000000
    13  F    2.274670   1.376093   0.000000
    14  F    2.318143   1.368039   2.132962   0.000000
    15  C    2.595668   1.554011   2.370806   2.378241   0.000000
    16  F    2.973541   2.390091   2.825167   3.561222   1.364982
    17  O    3.764301   2.410024   2.637753   2.784380   1.439533
    18  C    4.948337   3.700530   4.001120   4.042330   2.377575
    19  F    5.127043   4.134556   4.489302   4.805751   2.634701
    20  F    5.967418   4.629931   4.588842   4.881177   3.514782
    21  F    5.404657   4.205072   4.795801   4.216946   2.939176
    22  C    3.105346   2.502541   3.695735   2.880608   1.529663
    23  F    4.347794   3.719150   4.752340   4.137843   2.389323
    24  F    3.618728   2.913961   4.125923   2.619011   2.395162
    25  F    2.781295   2.866755   4.157295   3.409123   2.386882
    26  C    1.370563   2.433187   3.465275   2.684510   3.442449
    27  O    2.274082   2.733743   3.925656   2.436202   3.548377
    28  H    5.401657   6.440256   7.234557   6.134603   7.549428
    29  H    4.125737   4.986092   5.673743   4.553605   6.239614
    30  H    4.593958   5.774250   6.313293   5.703900   7.050879
    31  H    4.422310   5.712749   6.628751   5.907250   6.542954
    32  H    3.932362   4.914945   6.021629   4.807835   5.660560
    33  H    3.932796   4.891722   4.895001   6.118089   5.322108
    34  H    4.422376   5.698082   5.921831   6.729037   6.329654
    35  H    4.130766   4.974545   4.474396   5.931495   5.947912
    36  H    4.598494   5.769812   5.580654   6.559250   6.865844
    37  H    5.404823   6.425586   6.098792   7.452046   7.244544
                   16         17         18         19         20
    16  F    0.000000
    17  O    2.240325   0.000000
    18  C    2.797123   1.401531   0.000000
    19  F    2.413304   2.270067   1.341716   0.000000
    20  F    3.817442   2.231783   1.346029   2.186401   0.000000
    21  F    3.663337   2.235132   1.343758   2.201026   2.183364
    22  C    2.359044   2.521860   2.921949   3.052894   4.243232
    23  F    2.763699   2.974224   2.702627   2.471854   4.015515
    24  F    3.553933   2.952010   3.381768   3.918825   4.574258
    25  F    2.783668   3.688232   4.178995   4.052945   5.504659
    26  C    4.012597   4.650745   5.747265   5.972928   6.864800
    27  O    4.433916   4.603712   5.606600   6.001650   6.741803
    28  H    8.177452   8.640182   9.727365  10.050850  10.827065
    29  H    6.986905   7.193398   8.370633   8.828366   9.375362
    30  H    7.511381   8.142360   9.346495   9.619696  10.371533
    31  H    6.825748   7.865085   8.821049   8.825654  10.030800
    32  H    6.243704   6.879511   7.781764   7.957317   8.998873
    33  H    4.506630   6.416686   7.272165   6.787734   8.128251
    34  H    5.744107   7.573764   8.495329   8.079778   9.473604
    35  H    5.503563   6.769213   7.916974   7.807485   8.563074
    36  H    6.558267   7.876911   9.056202   8.956900   9.852542
    37  H    6.615269   8.196568   9.235041   8.930608   9.947781
                   21         22         23         24         25
    21  F    0.000000
    22  C    2.823368   0.000000
    23  F    2.404532   1.355122   0.000000
    24  F    2.849899   1.347246   2.169531   0.000000
    25  F    4.140198   1.354228   2.155818   2.190804   0.000000
    26  C    5.919170   3.373743   4.646069   3.555148   2.731618
    27  O    5.509981   3.125779   4.390945   2.851078   2.681258
    28  H    9.633064   7.169196   8.334922   6.876129   6.342161
    29  H    8.352571   6.079891   7.356704   5.738249   5.497700
    30  H    9.497438   7.010540   8.254542   6.955834   6.214075
    31  H    8.855315   6.096872   7.104067   6.233260   4.962790
    32  H    7.618267   5.002282   6.041132   4.842390   4.032868
    33  H    8.118330   5.972636   6.671448   7.018302   5.301837
    34  H    9.165693   6.692566   7.492010   7.580528   5.753663
    35  H    8.827916   6.911276   7.894570   7.674840   6.492671
    36  H    9.801730   7.542811   8.600604   8.191913   6.866475
    37  H   10.137025   8.043267   8.916221   8.912076   7.412274
                   26         27         28         29         30
    26  C    0.000000
    27  O    1.230409   0.000000
    28  H    4.177350   4.139734   0.000000
    29  H    3.038933   2.973149   1.773494   0.000000
    30  H    3.673712   4.108482   1.773659   1.768527   0.000000
    31  H    3.306581   3.713720   2.479338   3.070467   2.513771
    32  H    2.583372   2.403024   2.480297   2.510963   3.069931
    33  H    4.678466   5.859151   7.487209   6.819374   6.203978
    34  H    4.684312   5.869707   6.506335   6.213090   5.238294
    35  H    4.944970   6.117903   7.272891   6.333903   5.659873
    36  H    4.947665   6.125133   6.250897   5.669429   4.572407
    37  H    6.028215   7.253585   7.865348   7.282284   6.256527
                   31         32         33         34         35
    31  H    0.000000
    32  H    1.760868   0.000000
    33  H    5.673270   6.334842   0.000000
    34  H    4.586792   5.668239   1.761132   0.000000
    35  H    6.193415   6.808672   2.511785   3.070779   0.000000
    36  H    5.209958   6.188089   3.070446   2.513891   1.768360
    37  H    6.489637   7.476457   2.480485   2.479494   1.773366
                   36         37
    36  H    0.000000
    37  H    1.773508   0.000000
 Symmetry turned off by external request.
 Stoichiometry    C11H10F9N3O4(1+,2)
 Framework group  C1[X(C11H10F9N3O4)]
 Deg. of freedom   105
 Full point group                 C1      NOp   1
 Rotational constants (GHZ):      0.3775578      0.1333229      0.1155115
 Leave Link  202 at Sun Mar  3 18:10:02 2024, MaxMem=  5368709120 cpu:         0.0
 (Enter /home/k0335/k033513/app/g09/l301.exe)
 Standard basis: 6-31G(d,p) (6D, 7F)
 Ernie: Thresh=  0.10000D-02 Tol=  0.10000D-05 Strict=F.
   455 basis functions,   826 primitive gaussians,   455 cartesian basis functions
   105 alpha electrons      104 beta electrons
       nuclear repulsion energy      3169.9169266648 Hartrees.
 IExCor=20419 DFT=T Ex+Corr=CAM-B3LYP ExCW=0 ScaHFX=  1.000000
 ScaDFX=  1.000000  1.000000  1.000000  0.810000 ScalE2=  1.000000  1.000000
 IRadAn=      0 IRanWt=     -1 IRanGd=            0 ICorTp=0 IEmpDi=  4
  HFx wShort=  0.000000 wLong=  0.330000 cFull=  0.190000 cShort=  0.000000 cLong=  0.460000
  DFx wShort=  0.000000 wLong=  0.330000 cFull=  0.190000 cShort=  0.000000 cLong=  0.460000
 NAtoms=   37 NActive=   37 NUniq=   37 SFac= 1.00D+00 NAtFMM=   60 NAOKFM=F Big=F
 Integral buffers will be    131072 words long.
 Raffenetti 2 integral format.
 Two-electron integral symmetry is turned off.
 Using the following non-standard input for PCM:
 eps=4.9
 --- end of non-standard input.
 ------------------------------------------------------------------------------
 Polarizable Continuum Model (PCM)
 =================================
 Model                : PCM (using non-symmetric T matrix).
 Atomic radii         : UFF (Universal Force Field).
 Polarization charges : Total charges.
 Charge compensation  : None.
 Solution method      : On-the-fly selection.
 Cavity type          : Scaled VdW (van der Waals Surface) (Alpha=1.100).
 Cavity algorithm     : GePol (No added spheres)
                        Default sphere list used, NSphG=   37.
                        Lebedev-Laikov grids with approx.  5.0 points / Ang**2.
                        Smoothing algorithm: Karplus/York (Gamma=1.0000).
                        Polarization charges: spherical gaussians, with
                                              point-specific exponents (IZeta= 3).
                        Self-potential: point-specific (ISelfS= 7).
                        Self-field    : sphere-specific E.n sum rule (ISelfD= 2).
 Solvent              : Generic,
                        Eps                           =   4.900000
                        Eps(infinity)                 =   0.000000
                        RSolv                         =   0.000000 Ang.
                        Molar volume                  =   0.000000 cm**3/mol
                        Thermal expansion coefficient =   0.000000 K**-1
                        Absolute temperature          = 298.150000 K
                        Numeral density               =   0.000000 Ang**-3
                        Hydrogen bond acidity         =   0.000000
                        Hydrogen bond basicity        =   0.000000
                        Surface tension at interface  =   0.000000 (cal/mol)*Ang**-2
                        Carbon aromaticity            =   0.000000
                        Electronegative halogenicity  =   0.000000
 ------------------------------------------------------------------------------
 GePol: Number of generator spheres                  =      37
 GePol: Total number of spheres                      =      37
 GePol: Number of exposed spheres                    =      37 (100.00%)
 GePol: Number of points                             =    2883
 GePol: Average weight of points                     =       0.13
 GePol: Minimum weight of points                     =   0.30D-11
 GePol: Maximum weight of points                     =    0.20577
 GePol: Number of points with low weight             =     157
 GePol: Fraction of low-weight points (<1% of avg)   =       5.45%
 GePol: Cavity surface area                          =    364.621 Ang**2
 GePol: Cavity volume                                =    411.160 Ang**3
 Leave Link  301 at Sun Mar  3 18:10:02 2024, MaxMem=  5368709120 cpu:         1.0
 (Enter /home/k0335/k033513/app/g09/l302.exe)
 NPDir=0 NMtPBC=     1 NCelOv=     1 NCel=       1 NClECP=     1 NCelD=      1
         NCelK=      1 NCelE2=     1 NClLst=     1 CellRange=     0.0.
 One-electron integrals computed using PRISM.
 NBasis=   455 RedAO= T EigKep=  1.30D-03  NBF=   455
 NBsUse=   455 1.00D-06 EigRej= -1.00D+00 NBFU=   455
 Precomputing XC quadrature grid using
 IXCGrd= 4 IRadAn=           0 IRanWt=          -1 IRanGd=           0 AccXCQ= 0.00D+00.
 Generated NRdTot=       0 NPtTot=           0 NUsed=           0 NTot=          32
 NSgBfM=   448   448   449   449   449 MxSgAt=    37 MxSgA2=    37.
 Leave Link  302 at Sun Mar  3 18:10:03 2024, MaxMem=  5368709120 cpu:         7.5
 (Enter /home/k0335/k033513/app/g09/l303.exe)
 DipDrv:  MaxL=1.
 Leave Link  303 at Sun Mar  3 18:10:03 2024, MaxMem=  5368709120 cpu:         0.8
 (Enter /home/k0335/k033513/app/g09/l401.exe)
 ExpMin= 1.61D-01 ExpMax= 7.00D+03 ExpMxC= 1.05D+03 IAcc=1 IRadAn=         1 AccDes= 0.00D+00
 Harris functional with IExCor=20419 and IRadAn=       1 diagonalized for initial guess.
 HarFok:  IExCor=20419 AccDes= 0.00D+00 IRadAn=         1 IDoV= 1 UseB2=F ITyADJ=14
 ICtDFT=  3500011 ScaDFX=  1.000000  1.000000  1.000000  1.000000
 FoFCou: FMM=F IPFlag=           0 FMFlag=      100000 FMFlg1=           0
         NFxFlg=           0 DoJE=T BraDBF=F KetDBF=T FulRan=T
         wScrn=  0.000000 ICntrl=     500 IOpCl=  0 I1Cent=   200000004 NGrid=           0
         NMat0=    1 NMatS0=      1 NMatT0=    0 NMatD0=    1 NMtDS0=    0 NMtDT0=    0
 Symmetry not used in FoFCou.
 Harris En= -1732.02877968786    
 JPrj=0 DoOrth=F DoCkMO=F.
 Initial guess <Sx>= 0.0000 <Sy>= 0.0000 <Sz>= 0.5000 <S**2>= 0.7500 S= 0.5000
 Leave Link  401 at Sun Mar  3 18:10:03 2024, MaxMem=  5368709120 cpu:        10.1
 (Enter /home/k0335/k033513/app/g09/l502.exe)
 UHF open shell SCF:
 Using DIIS extrapolation, IDIIS=  1040.
 Two-electron integral symmetry not used.
 IVT=      653349 IEndB=      653349 NGot=  5368709120 MDV=  5368279892
 LenX=  5368279892 LenY=  5368072412
 Requested convergence on RMS density matrix=1.00D-08 within 128 cycles.
 Requested convergence on MAX density matrix=1.00D-06.
 Requested convergence on             energy=1.00D-06.
 No special actions if energy rises.
 Fock matrices will be formed incrementally for  20 cycles.

 Cycle   1  Pass 1  IDiag  1:
 FoFJK:  IHMeth= 1 ICntrl=       0 DoSepK=T KAlg= 0 I1Cent=   0 FoldK=F
 IRaf=         1 NMat=   1 IRICut=       1 DoRegI=T DoRafI=F ISym2E= 0.
 FoFCou: FMM=F IPFlag=           0 FMFlag=      100000 FMFlg1=           0
         NFxFlg=           0 DoJE=T BraDBF=F KetDBF=F FulRan=T
         wScrn=  0.000000 ICntrl=     500 IOpCl=  0 I1Cent=           0 NGrid=           0
         NMat0=    1 NMatS0=      1 NMatT0=    0 NMatD0=    1 NMtDS0=    0 NMtDT0=    0
 Symmetry not used in FoFCou.
 Inv3:  Mode=1 IEnd=    24935067.
 Iteration    1 A*A^-1 deviation from unit magnitude is 7.11D-15 for   2881.
 Iteration    1 A*A^-1 deviation from orthogonality  is 3.56D-15 for   2170    592.
 Iteration    1 A^-1*A deviation from unit magnitude is 7.11D-15 for   2881.
 Iteration    1 A^-1*A deviation from orthogonality  is 3.55D-11 for   2657   2626.
 E= -1787.27694912369    
 DIIS: error= 4.60D-02 at cycle   1 NSaved=   1.
 NSaved= 1 IEnMin= 1 EnMin= -1787.27694912369     IErMin= 1 ErrMin= 4.60D-02
 ErrMax= 4.60D-02  0.00D+00 EMaxC= 1.00D-01 BMatC= 6.67D+00 BMatP= 6.67D+00
 IDIUse=3 WtCom= 5.40D-01 WtEn= 4.60D-01
 Coeff-Com:  0.100D+01
 Coeff-En:   0.100D+01
 Coeff:      0.100D+01
 Gap=     0.551 Goal=   None    Shift=    0.000
 Gap=    -0.041 Goal=   None    Shift=    0.000
 GapD=   -0.041 DampG=0.250 DampE=0.500 DampFc=0.2500 IDamp=-1.
 Damping current iteration by 2.50D-01
 RMSDP=4.10D-03 MaxDP=1.63D-01              OVMax= 4.76D-01

 Cycle   2  Pass 1  IDiag  1:
 RMSU=  1.03D-03    CP:  1.00D+00
 E= -1787.53527064872     Delta-E=       -0.258321525030 Rises=F Damp=T
 DIIS: error= 3.51D-02 at cycle   2 NSaved=   2.
 NSaved= 2 IEnMin= 2 EnMin= -1787.53527064872     IErMin= 2 ErrMin= 3.51D-02
 ErrMax= 3.51D-02  0.00D+00 EMaxC= 1.00D-01 BMatC= 2.73D+00 BMatP= 6.67D+00
 IDIUse=3 WtCom= 6.49D-01 WtEn= 3.51D-01
 Coeff-Com: -0.135D+01 0.235D+01
 Coeff-En:   0.000D+00 0.100D+01
 Coeff:     -0.877D+00 0.188D+01
 Gap=     0.457 Goal=   None    Shift=    0.000
 Gap=     0.046 Goal=   None    Shift=    0.000
 RMSDP=2.19D-03 MaxDP=7.43D-02 DE=-2.58D-01 OVMax= 4.91D-01

 Cycle   3  Pass 1  IDiag  1:
 RMSU=  1.48D-03    CP:  9.99D-01  2.58D+00
 E= -1787.98902937556     Delta-E=       -0.453758726842 Rises=F Damp=F
 DIIS: error= 9.60D-03 at cycle   3 NSaved=   3.
 NSaved= 3 IEnMin= 3 EnMin= -1787.98902937556     IErMin= 3 ErrMin= 9.60D-03
 ErrMax= 9.60D-03  0.00D+00 EMaxC= 1.00D-01 BMatC= 4.20D-01 BMatP= 2.73D+00
 IDIUse=3 WtCom= 9.04D-01 WtEn= 9.60D-02
 Coeff-Com: -0.550D+00 0.950D+00 0.600D+00
 Coeff-En:   0.000D+00 0.000D+00 0.100D+01
 Coeff:     -0.497D+00 0.858D+00 0.639D+00
 Gap=     0.378 Goal=   None    Shift=    0.000
 Gap=     0.083 Goal=   None    Shift=    0.000
 RMSDP=9.69D-04 MaxDP=1.41D-01 DE=-4.54D-01 OVMax= 1.95D-01

 Cycle   4  Pass 1  IDiag  1:
 RMSU=  8.04D-04    CP:  9.99D-01  2.70D+00  6.46D-01
 E= -1788.03710965183     Delta-E=       -0.048080276270 Rises=F Damp=F
 DIIS: error= 7.58D-03 at cycle   4 NSaved=   4.
 NSaved= 4 IEnMin= 4 EnMin= -1788.03710965183     IErMin= 4 ErrMin= 7.58D-03
 ErrMax= 7.58D-03  0.00D+00 EMaxC= 1.00D-01 BMatC= 1.97D-01 BMatP= 4.20D-01
 IDIUse=3 WtCom= 9.24D-01 WtEn= 7.58D-02
 Coeff-Com: -0.445D-01 0.909D-01 0.401D+00 0.552D+00
 Coeff-En:   0.000D+00 0.000D+00 0.315D+00 0.685D+00
 Coeff:     -0.411D-01 0.840D-01 0.395D+00 0.562D+00
 Gap=     0.385 Goal=   None    Shift=    0.000
 Gap=     0.115 Goal=   None    Shift=    0.000
 RMSDP=4.93D-04 MaxDP=6.93D-02 DE=-4.81D-02 OVMax= 1.18D-01

 Cycle   5  Pass 1  IDiag  1:
 RMSU=  3.22D-04    CP:  9.98D-01  2.66D+00  8.42D-01  7.14D-01
 E= -1788.07339535083     Delta-E=       -0.036285699004 Rises=F Damp=F
 DIIS: error= 2.01D-03 at cycle   5 NSaved=   5.
 NSaved= 5 IEnMin= 5 EnMin= -1788.07339535083     IErMin= 5 ErrMin= 2.01D-03
 ErrMax= 2.01D-03  0.00D+00 EMaxC= 1.00D-01 BMatC= 2.15D-02 BMatP= 1.97D-01
 IDIUse=3 WtCom= 9.80D-01 WtEn= 2.01D-02
 Coeff-Com:  0.179D-01-0.213D-01 0.193D+00 0.345D+00 0.465D+00
 Coeff-En:   0.000D+00 0.000D+00 0.000D+00 0.000D+00 0.100D+01
 Coeff:      0.175D-01-0.209D-01 0.189D+00 0.338D+00 0.476D+00
 Gap=     0.362 Goal=   None    Shift=    0.000
 Gap=     0.117 Goal=   None    Shift=    0.000
 RMSDP=1.87D-04 MaxDP=2.56D-02 DE=-3.63D-02 OVMax= 4.67D-02

 Cycle   6  Pass 1  IDiag  1:
 RMSU=  1.67D-04    CP:  9.98D-01  2.66D+00  8.36D-01  8.06D-01  8.81D-01
 E= -1788.07873997985     Delta-E=       -0.005344629012 Rises=F Damp=F
 DIIS: error= 1.05D-03 at cycle   6 NSaved=   6.
 NSaved= 6 IEnMin= 6 EnMin= -1788.07873997985     IErMin= 6 ErrMin= 1.05D-03
 ErrMax= 1.05D-03  0.00D+00 EMaxC= 1.00D-01 BMatC= 2.77D-03 BMatP= 2.15D-02
 IDIUse=3 WtCom= 9.89D-01 WtEn= 1.05D-02
 Coeff-Com:  0.100D-01-0.159D-01 0.262D-01 0.741D-01 0.251D+00 0.655D+00
 Coeff-En:   0.000D+00 0.000D+00 0.000D+00 0.000D+00 0.000D+00 0.100D+01
 Coeff:      0.991D-02-0.157D-01 0.260D-01 0.733D-01 0.248D+00 0.658D+00
 Gap=     0.362 Goal=   None    Shift=    0.000
 Gap=     0.123 Goal=   None    Shift=    0.000
 RMSDP=1.20D-04 MaxDP=8.30D-03 DE=-5.34D-03 OVMax= 3.39D-02

 Cycle   7  Pass 1  IDiag  1:
 RMSU=  7.31D-05    CP:  9.98D-01  2.67D+00  8.39D-01  8.37D-01  1.15D+00
                    CP:  1.18D+00
 E= -1788.08069867926     Delta-E=       -0.001958699415 Rises=F Damp=F
 DIIS: error= 6.07D-04 at cycle   7 NSaved=   7.
 NSaved= 7 IEnMin= 7 EnMin= -1788.08069867926     IErMin= 7 ErrMin= 6.07D-04
 ErrMax= 6.07D-04  0.00D+00 EMaxC= 1.00D-01 BMatC= 7.85D-04 BMatP= 2.77D-03
 IDIUse=3 WtCom= 9.94D-01 WtEn= 6.07D-03
 Coeff-Com: -0.987D-02 0.130D-01-0.547D-01-0.853D-01-0.605D-01 0.301D+00
 Coeff-Com:  0.896D+00
 Coeff-En:   0.000D+00 0.000D+00 0.000D+00 0.000D+00 0.000D+00 0.000D+00
 Coeff-En:   0.100D+01
 Coeff:     -0.981D-02 0.129D-01-0.543D-01-0.848D-01-0.601D-01 0.299D+00
 Coeff:      0.897D+00
 Gap=     0.364 Goal=   None    Shift=    0.000
 Gap=     0.131 Goal=   None    Shift=    0.000
 RMSDP=1.32D-04 MaxDP=6.42D-03 DE=-1.96D-03 OVMax= 4.10D-02

 Cycle   8  Pass 1  IDiag  1:
 RMSU=  5.03D-05    CP:  9.98D-01  2.66D+00  8.34D-01  8.65D-01  1.38D+00
                    CP:  1.71D+00  1.49D+00
 E= -1788.08217113292     Delta-E=       -0.001472453662 Rises=F Damp=F
 DIIS: error= 4.83D-04 at cycle   8 NSaved=   8.
 NSaved= 8 IEnMin= 8 EnMin= -1788.08217113292     IErMin= 8 ErrMin= 4.83D-04
 ErrMax= 4.83D-04  0.00D+00 EMaxC= 1.00D-01 BMatC= 3.17D-04 BMatP= 7.85D-04
 IDIUse=3 WtCom= 9.95D-01 WtEn= 4.83D-03
 Coeff-Com: -0.795D-02 0.116D-01-0.175D-01-0.195D-01-0.719D-01-0.122D+00
 Coeff-Com:  0.267D+00 0.960D+00
 Coeff-En:   0.000D+00 0.000D+00 0.000D+00 0.000D+00 0.000D+00 0.000D+00
 Coeff-En:   0.000D+00 0.100D+01
 Coeff:     -0.791D-02 0.115D-01-0.174D-01-0.195D-01-0.716D-01-0.121D+00
 Coeff:      0.266D+00 0.960D+00
 Gap=     0.365 Goal=   None    Shift=    0.000
 Gap=     0.132 Goal=   None    Shift=    0.000
 RMSDP=9.69D-05 MaxDP=5.77D-03 DE=-1.47D-03 OVMax= 3.51D-02

 Cycle   9  Pass 1  IDiag  1:
 RMSU=  2.53D-05    CP:  9.98D-01  2.66D+00  8.27D-01  8.69D-01  1.52D+00
                    CP:  2.01D+00  2.13D+00  1.81D+00
 E= -1788.08292646241     Delta-E=       -0.000755329488 Rises=F Damp=F
 DIIS: error= 3.62D-04 at cycle   9 NSaved=   9.
 NSaved= 9 IEnMin= 9 EnMin= -1788.08292646241     IErMin= 9 ErrMin= 3.62D-04
 ErrMax= 3.62D-04  0.00D+00 EMaxC= 1.00D-01 BMatC= 2.11D-04 BMatP= 3.17D-04
 IDIUse=3 WtCom= 9.96D-01 WtEn= 3.62D-03
 Coeff-Com: -0.215D-02 0.337D-02 0.190D-01 0.500D-01 0.124D-02-0.177D+00
 Coeff-Com: -0.223D+00 0.399D+00 0.930D+00
 Coeff-En:   0.000D+00 0.000D+00 0.000D+00 0.000D+00 0.000D+00 0.000D+00
 Coeff-En:   0.000D+00 0.000D+00 0.100D+01
 Coeff:     -0.215D-02 0.336D-02 0.189D-01 0.498D-01 0.124D-02-0.176D+00
 Coeff:     -0.222D+00 0.397D+00 0.930D+00
 Gap=     0.367 Goal=   None    Shift=    0.000
 Gap=     0.132 Goal=   None    Shift=    0.000
 RMSDP=8.15D-05 MaxDP=4.97D-03 DE=-7.55D-04 OVMax= 3.51D-02

 Cycle  10  Pass 1  IDiag  1:
 RMSU=  1.82D-05    CP:  9.98D-01  2.66D+00  8.20D-01  8.63D-01  1.60D+00
                    CP:  2.21D+00  2.63D+00  2.78D+00  1.94D+00
 E= -1788.08343245271     Delta-E=       -0.000505990300 Rises=F Damp=F
 DIIS: error= 3.42D-04 at cycle  10 NSaved=  10.
 NSaved=10 IEnMin=10 EnMin= -1788.08343245271     IErMin=10 ErrMin= 3.42D-04
 ErrMax= 3.42D-04  0.00D+00 EMaxC= 1.00D-01 BMatC= 1.55D-04 BMatP= 2.11D-04
 IDIUse=3 WtCom= 9.97D-01 WtEn= 3.42D-03
 Coeff-Com: -0.177D-02 0.216D-02 0.654D-02 0.302D-01 0.119D-01 0.226D-01
 Coeff-Com: -0.923D-01-0.297D+00 0.877D-01 0.123D+01
 Coeff-En:   0.000D+00 0.000D+00 0.000D+00 0.000D+00 0.000D+00 0.000D+00
 Coeff-En:   0.000D+00 0.000D+00 0.000D+00 0.100D+01
 Coeff:     -0.177D-02 0.216D-02 0.651D-02 0.301D-01 0.119D-01 0.225D-01
 Coeff:     -0.920D-01-0.296D+00 0.874D-01 0.123D+01
 Gap=     0.369 Goal=   None    Shift=    0.000
 Gap=     0.132 Goal=   None    Shift=    0.000
 RMSDP=8.62D-05 MaxDP=6.65D-03 DE=-5.06D-04 OVMax= 4.17D-02

 Cycle  11  Pass 1  IDiag  1:
 RMSU=  4.58D-05    CP:  9.98D-01  2.66D+00  8.14D-01  8.49D-01  1.67D+00
                    CP:  2.38D+00  3.00D+00  3.00D+00  3.00D+00  2.26D+00
 E= -1788.08388213619     Delta-E=       -0.000449683474 Rises=F Damp=F
 DIIS: error= 3.43D-04 at cycle  11 NSaved=  11.
 NSaved=11 IEnMin=11 EnMin= -1788.08388213619     IErMin=10 ErrMin= 3.42D-04
 ErrMax= 3.43D-04  0.00D+00 EMaxC= 1.00D-01 BMatC= 1.57D-04 BMatP= 1.55D-04
 IDIUse=3 WtCom= 9.97D-01 WtEn= 3.42D-03
 Coeff-Com: -0.317D-02 0.405D-02-0.794D-02 0.399D-02 0.194D-02 0.151D+00
 Coeff-Com:  0.925D-01-0.514D+00-0.587D+00 0.101D+01 0.845D+00
 Coeff-En:   0.000D+00 0.000D+00 0.000D+00 0.000D+00 0.000D+00 0.000D+00
 Coeff-En:   0.000D+00 0.000D+00 0.000D+00 0.000D+00 0.100D+01
 Coeff:     -0.316D-02 0.403D-02-0.791D-02 0.398D-02 0.193D-02 0.150D+00
 Coeff:      0.922D-01-0.512D+00-0.585D+00 0.101D+01 0.846D+00
 Gap=     0.371 Goal=   None    Shift=    0.000
 Gap=     0.132 Goal=   None    Shift=    0.000
 RMSDP=8.86D-05 MaxDP=7.60D-03 DE=-4.50D-04 OVMax= 4.44D-02

 Cycle  12  Pass 1  IDiag  1:
 RMSU=  3.99D-05    CP:  9.98D-01  2.66D+00  8.06D-01  8.29D-01  1.71D+00
                    CP:  2.52D+00  3.00D+00  3.00D+00  3.00D+00  3.00D+00
                    CP:  2.46D+00
 E= -1788.08429006643     Delta-E=       -0.000407930245 Rises=F Damp=F
 DIIS: error= 3.26D-04 at cycle  12 NSaved=  12.
 NSaved=12 IEnMin=12 EnMin= -1788.08429006643     IErMin=12 ErrMin= 3.26D-04
 ErrMax= 3.26D-04  0.00D+00 EMaxC= 1.00D-01 BMatC= 1.25D-04 BMatP= 1.55D-04
 IDIUse=3 WtCom= 9.97D-01 WtEn= 3.26D-03
 Coeff-Com: -0.472D-02 0.659D-02-0.740D-02 0.195D-02-0.175D-01 0.745D-01
 Coeff-Com:  0.995D-01-0.501D-01-0.359D+00-0.185D+00 0.686D-01 0.137D+01
 Coeff-En:   0.000D+00 0.000D+00 0.000D+00 0.000D+00 0.000D+00 0.000D+00
 Coeff-En:   0.000D+00 0.000D+00 0.000D+00 0.000D+00 0.000D+00 0.100D+01
 Coeff:     -0.471D-02 0.657D-02-0.738D-02 0.194D-02-0.175D-01 0.743D-01
 Coeff:      0.992D-01-0.499D-01-0.358D+00-0.185D+00 0.684D-01 0.137D+01
 Gap=     0.373 Goal=   None    Shift=    0.000
 Gap=     0.132 Goal=   None    Shift=    0.000
 RMSDP=1.06D-04 MaxDP=1.03D-02 DE=-4.08D-04 OVMax= 5.53D-02

 Cycle  13  Pass 1  IDiag  1:
 RMSU=  6.08D-05    CP:  9.98D-01  2.65D+00  7.98D-01  7.99D-01  1.74D+00
                    CP:  2.63D+00  3.00D+00  3.00D+00  3.00D+00  3.00D+00
                    CP:  3.00D+00  2.37D+00
 E= -1788.08471807826     Delta-E=       -0.000428011826 Rises=F Damp=F
 DIIS: error= 3.25D-04 at cycle  13 NSaved=  13.
 NSaved=13 IEnMin=13 EnMin= -1788.08471807826     IErMin=13 ErrMin= 3.25D-04
 ErrMax= 3.25D-04  0.00D+00 EMaxC= 1.00D-01 BMatC= 1.25D-04 BMatP= 1.25D-04
 IDIUse=3 WtCom= 9.97D-01 WtEn= 3.25D-03
 Coeff-Com: -0.459D-02 0.644D-02-0.126D-02 0.118D-01-0.266D-01-0.229D-01
 Coeff-Com: -0.258D-02 0.268D+00 0.992D-01-0.635D+00-0.694D+00 0.105D+01
 Coeff-Com:  0.946D+00
 Coeff-En:   0.000D+00 0.000D+00 0.000D+00 0.000D+00 0.000D+00 0.000D+00
 Coeff-En:   0.000D+00 0.000D+00 0.000D+00 0.000D+00 0.000D+00 0.000D+00
 Coeff-En:   0.100D+01
 Coeff:     -0.457D-02 0.642D-02-0.125D-02 0.117D-01-0.265D-01-0.228D-01
 Coeff:     -0.257D-02 0.267D+00 0.989D-01-0.633D+00-0.691D+00 0.105D+01
 Coeff:      0.946D+00
 Gap=     0.374 Goal=   None    Shift=    0.000
 Gap=     0.132 Goal=   None    Shift=    0.000
 RMSDP=1.04D-04 MaxDP=1.05D-02 DE=-4.28D-04 OVMax= 5.50D-02

 Cycle  14  Pass 1  IDiag  1:
 RMSU=  3.13D-05    CP:  9.98D-01  2.65D+00  7.88D-01  7.69D-01  1.77D+00
                    CP:  2.72D+00  3.00D+00  3.00D+00  3.00D+00  3.00D+00
                    CP:  3.00D+00  3.00D+00  2.35D+00
 E= -1788.08509341935     Delta-E=       -0.000375341097 Rises=F Damp=F
 DIIS: error= 2.84D-04 at cycle  14 NSaved=  14.
 NSaved=14 IEnMin=14 EnMin= -1788.08509341935     IErMin=14 ErrMin= 2.84D-04
 ErrMax= 2.84D-04  0.00D+00 EMaxC= 1.00D-01 BMatC= 9.75D-05 BMatP= 1.25D-04
 IDIUse=3 WtCom= 9.97D-01 WtEn= 2.84D-03
 Coeff-Com: -0.308D-02 0.425D-02 0.106D-02 0.143D-01-0.156D-01 0.530D-02
 Coeff-Com: -0.565D-01 0.957D-01 0.134D+00-0.107D-01-0.399D+00-0.475D-01
 Coeff-Com: -0.625D-02 0.128D+01
 Coeff-En:   0.000D+00 0.000D+00 0.000D+00 0.000D+00 0.000D+00 0.000D+00
 Coeff-En:   0.000D+00 0.000D+00 0.000D+00 0.000D+00 0.000D+00 0.000D+00
 Coeff-En:   0.000D+00 0.100D+01
 Coeff:     -0.307D-02 0.424D-02 0.106D-02 0.143D-01-0.156D-01 0.529D-02
 Coeff:     -0.563D-01 0.954D-01 0.134D+00-0.107D-01-0.398D+00-0.474D-01
 Coeff:     -0.623D-02 0.128D+01
 Gap=     0.375 Goal=   None    Shift=    0.000
 Gap=     0.131 Goal=   None    Shift=    0.000
 RMSDP=8.44D-05 MaxDP=8.78D-03 DE=-3.75D-04 OVMax= 4.49D-02

 Cycle  15  Pass 1  IDiag  1:
 RMSU=  3.05D-05    CP:  9.98D-01  2.64D+00  7.81D-01  7.42D-01  1.78D+00
                    CP:  2.76D+00  3.00D+00  3.00D+00  3.00D+00  3.00D+00
                    CP:  3.00D+00  3.00D+00  3.00D+00  2.38D+00
 E= -1788.08537015721     Delta-E=       -0.000276737860 Rises=F Damp=F
 DIIS: error= 2.56D-04 at cycle  15 NSaved=  15.
 NSaved=15 IEnMin=15 EnMin= -1788.08537015721     IErMin=15 ErrMin= 2.56D-04
 ErrMax= 2.56D-04  0.00D+00 EMaxC= 1.00D-01 BMatC= 8.14D-05 BMatP= 9.75D-05
 IDIUse=3 WtCom= 9.97D-01 WtEn= 2.56D-03
 Coeff-Com: -0.211D-02 0.284D-02-0.173D-02 0.600D-02-0.258D-02 0.914D-01
 Coeff-Com: -0.158D-01-0.277D+00-0.159D+00 0.633D+00 0.518D+00-0.798D+00
 Coeff-Com: -0.136D+01 0.104D+01 0.133D+01
 Coeff-En:   0.000D+00 0.000D+00 0.000D+00 0.000D+00 0.000D+00 0.000D+00
 Coeff-En:   0.000D+00 0.000D+00 0.000D+00 0.000D+00 0.000D+00 0.000D+00
 Coeff-En:   0.000D+00 0.000D+00 0.100D+01
 Coeff:     -0.211D-02 0.284D-02-0.172D-02 0.599D-02-0.257D-02 0.912D-01
 Coeff:     -0.158D-01-0.276D+00-0.159D+00 0.631D+00 0.517D+00-0.796D+00
 Coeff:     -0.136D+01 0.104D+01 0.133D+01
 Gap=     0.375 Goal=   None    Shift=    0.000
 Gap=     0.130 Goal=   None    Shift=    0.000
 RMSDP=1.35D-04 MaxDP=1.37D-02 DE=-2.77D-04 OVMax= 7.15D-02

 Cycle  16  Pass 1  IDiag  1:
 RMSU=  7.33D-05    CP:  9.98D-01  2.63D+00  7.66D-01  6.98D-01  1.77D+00
                    CP:  2.82D+00  3.00D+00  3.00D+00  3.00D+00  3.00D+00
                    CP:  3.00D+00  3.00D+00  3.00D+00  3.00D+00  3.00D+00
 E= -1788.08575275376     Delta-E=       -0.000382596545 Rises=F Damp=F
 DIIS: error= 2.11D-04 at cycle  16 NSaved=  16.
 NSaved=16 IEnMin=16 EnMin= -1788.08575275376     IErMin=16 ErrMin= 2.11D-04
 ErrMax= 2.11D-04  0.00D+00 EMaxC= 1.00D-01 BMatC= 3.60D-05 BMatP= 8.14D-05
 IDIUse=3 WtCom= 9.98D-01 WtEn= 2.11D-03
 Coeff-Com: -0.703D-03 0.979D-03-0.632D-02-0.113D-01 0.567D-02 0.105D+00
 Coeff-Com:  0.924D-01-0.328D+00-0.396D+00 0.295D+00 0.972D+00 0.447D-01
 Coeff-Com: -0.973D+00-0.119D+01 0.414D+00 0.198D+01
 Coeff-En:   0.000D+00 0.000D+00 0.000D+00 0.000D+00 0.000D+00 0.000D+00
 Coeff-En:   0.000D+00 0.000D+00 0.000D+00 0.000D+00 0.000D+00 0.000D+00
 Coeff-En:   0.000D+00 0.000D+00 0.000D+00 0.100D+01
 Coeff:     -0.702D-03 0.977D-03-0.631D-02-0.113D-01 0.566D-02 0.105D+00
 Coeff:      0.923D-01-0.327D+00-0.395D+00 0.294D+00 0.970D+00 0.446D-01
 Coeff:     -0.971D+00-0.119D+01 0.413D+00 0.197D+01
 Gap=     0.374 Goal=   None    Shift=    0.000
 Gap=     0.128 Goal=   None    Shift=    0.000
 RMSDP=1.91D-04 MaxDP=1.82D-02 DE=-3.83D-04 OVMax= 9.98D-02

 Cycle  17  Pass 1  IDiag  1:
 RMSU=  7.28D-05    CP:  9.98D-01  2.62D+00  7.43D-01  6.34D-01  1.73D+00
                    CP:  2.82D+00  3.00D+00  3.00D+00  3.00D+00  3.00D+00
                    CP:  3.00D+00  3.00D+00  3.00D+00  3.00D+00  3.00D+00
                    CP:  3.00D+00
 E= -1788.08613289533     Delta-E=       -0.000380141570 Rises=F Damp=F
 DIIS: error= 1.46D-04 at cycle  17 NSaved=  17.
 NSaved=17 IEnMin=17 EnMin= -1788.08613289533     IErMin=17 ErrMin= 1.46D-04
 ErrMax= 1.46D-04  0.00D+00 EMaxC= 1.00D-01 BMatC= 1.11D-05 BMatP= 3.60D-05
 IDIUse=3 WtCom= 9.99D-01 WtEn= 1.46D-03
 Coeff-Com:  0.427D-03-0.549D-03-0.214D-02-0.889D-02 0.320D-02 0.468D-02
 Coeff-Com:  0.473D-01 0.970D-02-0.840D-01-0.272D+00 0.186D+00 0.417D+00
 Coeff-Com:  0.435D+00-0.113D+01-0.231D+00 0.687D+00 0.938D+00
 Coeff-En:   0.000D+00 0.000D+00 0.000D+00 0.000D+00 0.000D+00 0.000D+00
 Coeff-En:   0.000D+00 0.000D+00 0.000D+00 0.000D+00 0.000D+00 0.000D+00
 Coeff-En:   0.000D+00 0.000D+00 0.000D+00 0.000D+00 0.100D+01
 Coeff:      0.427D-03-0.548D-03-0.214D-02-0.888D-02 0.320D-02 0.467D-02
 Coeff:      0.472D-01 0.969D-02-0.839D-01-0.272D+00 0.185D+00 0.417D+00
 Coeff:      0.434D+00-0.113D+01-0.230D+00 0.686D+00 0.938D+00
 Gap=     0.372 Goal=   None    Shift=    0.000
 Gap=     0.128 Goal=   None    Shift=    0.000
 RMSDP=4.23D-05 MaxDP=3.98D-03 DE=-3.80D-04 OVMax= 2.19D-02

 Cycle  18  Pass 1  IDiag  1:
 RMSU=  2.80D-05    CP:  9.98D-01  2.62D+00  7.40D-01  6.17D-01  1.72D+00
                    CP:  2.80D+00  3.00D+00  3.00D+00  3.00D+00  3.00D+00
                    CP:  3.00D+00  3.00D+00  3.00D+00  3.00D+00  3.00D+00
                    CP:  3.00D+00  1.38D+00
 E= -1788.08619057010     Delta-E=       -0.000057674767 Rises=F Damp=F
 DIIS: error= 1.17D-04 at cycle  18 NSaved=  18.
 NSaved=18 IEnMin=18 EnMin= -1788.08619057010     IErMin=18 ErrMin= 1.17D-04
 ErrMax= 1.17D-04  0.00D+00 EMaxC= 1.00D-01 BMatC= 5.03D-06 BMatP= 1.11D-05
 IDIUse=3 WtCom= 9.99D-01 WtEn= 1.17D-03
 Coeff-Com:  0.132D-03-0.144D-03 0.380D-03-0.266D-03 0.120D-02-0.164D-01
 Coeff-Com:  0.155D-01 0.561D-01 0.239D-01-0.110D+00-0.100D+00-0.574D-02
 Coeff-Com:  0.397D+00-0.153D+00-0.196D+00-0.326D+00 0.179D+00 0.124D+01
 Coeff-En:   0.000D+00 0.000D+00 0.000D+00 0.000D+00 0.000D+00 0.000D+00
 Coeff-En:   0.000D+00 0.000D+00 0.000D+00 0.000D+00 0.000D+00 0.000D+00
 Coeff-En:   0.000D+00 0.000D+00 0.000D+00 0.000D+00 0.000D+00 0.100D+01
 Coeff:      0.132D-03-0.144D-03 0.379D-03-0.266D-03 0.119D-02-0.163D-01
 Coeff:      0.155D-01 0.560D-01 0.239D-01-0.110D+00-0.100D+00-0.573D-02
 Coeff:      0.397D+00-0.153D+00-0.196D+00-0.326D+00 0.179D+00 0.123D+01
 Gap=     0.370 Goal=   None    Shift=    0.000
 Gap=     0.127 Goal=   None    Shift=    0.000
 RMSDP=8.83D-05 MaxDP=7.20D-03 DE=-5.77D-05 OVMax= 4.64D-02

 Cycle  19  Pass 1  IDiag  1:
 RMSU=  1.33D-05    CP:  9.98D-01  2.61D+00  7.28D-01  5.87D-01  1.68D+00
                    CP:  2.78D+00  3.00D+00  3.00D+00  3.00D+00  3.00D+00
                    CP:  3.00D+00  3.00D+00  3.00D+00  3.00D+00  3.00D+00
                    CP:  3.00D+00  2.12D+00  3.00D+00
 E= -1788.08626092279     Delta-E=       -0.000070352696 Rises=F Damp=F
 DIIS: error= 7.70D-05 at cycle  19 NSaved=  19.
 NSaved=19 IEnMin=19 EnMin= -1788.08626092279     IErMin=19 ErrMin= 7.70D-05
 ErrMax= 7.70D-05  0.00D+00 EMaxC= 1.00D-01 BMatC= 8.57D-06 BMatP= 5.03D-06
 IDIUse=1 WtCom= 1.00D+00 WtEn= 0.00D+00
 Coeff-Com:  0.210D-03-0.292D-03 0.404D-03 0.107D-02 0.181D-02 0.703D-02
 Coeff-Com: -0.249D-02-0.348D-01-0.519D-02 0.145D+00 0.699D-01-0.329D+00
 Coeff-Com: -0.150D+00 0.303D+00 0.319D+00-0.344D+00-0.546D+00 0.631D+00
 Coeff-Com:  0.933D+00
 Coeff:      0.210D-03-0.292D-03 0.404D-03 0.107D-02 0.181D-02 0.703D-02
 Coeff:     -0.249D-02-0.348D-01-0.519D-02 0.145D+00 0.699D-01-0.329D+00
 Coeff:     -0.150D+00 0.303D+00 0.319D+00-0.344D+00-0.546D+00 0.631D+00
 Coeff:      0.933D+00
 Gap=     0.370 Goal=   None    Shift=    0.000
 Gap=     0.127 Goal=   None    Shift=    0.000
 RMSDP=1.05D-05 MaxDP=1.06D-03 DE=-7.04D-05 OVMax= 4.34D-03

 Cycle  20  Pass 1  IDiag  1:
 RMSU=  7.69D-06    CP:  9.98D-01  2.61D+00  7.28D-01  5.82D-01  1.68D+00
                    CP:  2.77D+00  3.00D+00  3.00D+00  3.00D+00  3.00D+00
                    CP:  3.00D+00  3.00D+00  3.00D+00  3.00D+00  3.00D+00
                    CP:  3.00D+00  2.19D+00  3.00D+00  9.35D-01
 E= -1788.08626826735     Delta-E=       -0.000007344557 Rises=F Damp=F
 DIIS: error= 5.57D-05 at cycle  20 NSaved=  20.
 NSaved=20 IEnMin=20 EnMin= -1788.08626826735     IErMin=20 ErrMin= 5.57D-05
 ErrMax= 5.57D-05  0.00D+00 EMaxC= 1.00D-01 BMatC= 2.52D-06 BMatP= 5.03D-06
 IDIUse=1 WtCom= 1.00D+00 WtEn= 0.00D+00
 Coeff-Com:  0.264D-05-0.263D-04-0.845D-03-0.760D-03 0.690D-03 0.209D-01
 Coeff-Com:  0.578D-02-0.763D-01-0.629D-01 0.159D+00 0.200D+00-0.256D+00
 Coeff-Com: -0.326D+00 0.111D+00 0.333D+00 0.794D-01-0.556D+00-0.324D-01
 Coeff-Com:  0.749D+00 0.653D+00
 Coeff:      0.264D-05-0.263D-04-0.845D-03-0.760D-03 0.690D-03 0.209D-01
 Coeff:      0.578D-02-0.763D-01-0.629D-01 0.159D+00 0.200D+00-0.256D+00
 Coeff:     -0.326D+00 0.111D+00 0.333D+00 0.794D-01-0.556D+00-0.324D-01
 Coeff:      0.749D+00 0.653D+00
 Gap=     0.370 Goal=   None    Shift=    0.000
 Gap=     0.127 Goal=   None    Shift=    0.000
 RMSDP=3.59D-05 MaxDP=2.51D-03 DE=-7.34D-06 OVMax= 1.92D-02

 Cycle  21  Pass 1  IDiag  1:
 Restarting incremental Fock formation.
 E= -1788.08627974958     Delta-E=       -0.000011482235 Rises=F Damp=F
 DIIS: error= 4.30D-05 at cycle  21 NSaved=  20.
 NSaved=20 IEnMin=20 EnMin= -1788.08627974958     IErMin=20 ErrMin= 4.30D-05
 ErrMax= 4.30D-05  0.00D+00 EMaxC= 1.00D-01 BMatC= 5.15D-06 BMatP= 2.52D-06
 IDIUse=1 WtCom= 1.00D+00 WtEn= 0.00D+00
 Coeff-Com:  0.119D-04-0.201D-03-0.997D-03 0.176D-02 0.182D-01-0.421D-02
 Coeff-Com: -0.552D-01-0.490D-01 0.119D+00 0.151D+00-0.141D+00-0.256D+00
 Coeff-Com: -0.301D-01 0.363D+00 0.131D+00-0.286D+00-0.313D+00 0.351D-01
 Coeff-Com:  0.454D+00 0.863D+00
 Coeff:      0.119D-04-0.201D-03-0.997D-03 0.176D-02 0.182D-01-0.421D-02
 Coeff:     -0.552D-01-0.490D-01 0.119D+00 0.151D+00-0.141D+00-0.256D+00
 Coeff:     -0.301D-01 0.363D+00 0.131D+00-0.286D+00-0.313D+00 0.351D-01
 Coeff:      0.454D+00 0.863D+00
 Gap=     0.370 Goal=   None    Shift=    0.000
 Gap=     0.126 Goal=   None    Shift=    0.000
 RMSDP=7.35D-06 MaxDP=6.63D-04 DE=-1.15D-05 OVMax= 1.75D-03

 Cycle  22  Pass 1  IDiag  1:
 RMSU=  7.35D-06    CP:  1.00D+00
 E= -1788.08628226950     Delta-E=       -0.000002519917 Rises=F Damp=F
 DIIS: error= 3.07D-05 at cycle  22 NSaved=  20.
 NSaved=20 IEnMin=20 EnMin= -1788.08628226950     IErMin=20 ErrMin= 3.07D-05
 ErrMax= 3.07D-05  0.00D+00 EMaxC= 1.00D-01 BMatC= 9.43D-07 BMatP= 2.52D-06
 IDIUse=1 WtCom= 1.00D+00 WtEn= 0.00D+00
 Coeff-Com:  0.208D-03-0.997D-04 0.114D-02-0.262D-02-0.112D-02 0.170D-01
 Coeff-Com: -0.958D-02-0.405D-01-0.229D-01 0.104D+00 0.121D+00-0.275D+00
 Coeff-Com: -0.231D-01 0.890D-01 0.227D+00-0.710D-01-0.383D+00-0.459D+00
 Coeff-Com:  0.374D+00 0.135D+01
 Coeff:      0.208D-03-0.997D-04 0.114D-02-0.262D-02-0.112D-02 0.170D-01
 Coeff:     -0.958D-02-0.405D-01-0.229D-01 0.104D+00 0.121D+00-0.275D+00
 Coeff:     -0.231D-01 0.890D-01 0.227D+00-0.710D-01-0.383D+00-0.459D+00
 Coeff:      0.374D+00 0.135D+01
 Gap=     0.369 Goal=   None    Shift=    0.000
 Gap=     0.126 Goal=   None    Shift=    0.000
 RMSDP=2.96D-05 MaxDP=1.84D-03 DE=-2.52D-06 OVMax= 1.60D-02

 Cycle  23  Pass 1  IDiag  1:
 RMSU=  2.89D-05    CP:  1.00D+00  1.70D-01
 E= -1788.08628693121     Delta-E=       -0.000004661713 Rises=F Damp=F
 DIIS: error= 2.65D-05 at cycle  23 NSaved=  20.
 NSaved=20 IEnMin=20 EnMin= -1788.08628693121     IErMin=20 ErrMin= 2.65D-05
 ErrMax= 2.65D-05  0.00D+00 EMaxC= 1.00D-01 BMatC= 2.07D-06 BMatP= 9.43D-07
 IDIUse=1 WtCom= 1.00D+00 WtEn= 0.00D+00
 Coeff-Com: -0.309D-03 0.527D-03-0.352D-02 0.164D-02 0.157D-01-0.356D-02
 Coeff-Com: -0.297D-01-0.368D-01 0.556D-01 0.128D+00-0.151D+00 0.478D-02
 Coeff-Com: -0.275D-01 0.131D+00 0.936D-01-0.173D+00-0.481D+00-0.243D+00
 Coeff-Com:  0.888D+00 0.831D+00
 Coeff:     -0.309D-03 0.527D-03-0.352D-02 0.164D-02 0.157D-01-0.356D-02
 Coeff:     -0.297D-01-0.368D-01 0.556D-01 0.128D+00-0.151D+00 0.478D-02
 Coeff:     -0.275D-01 0.131D+00 0.936D-01-0.173D+00-0.481D+00-0.243D+00
 Coeff:      0.888D+00 0.831D+00
 Gap=     0.370 Goal=   None    Shift=    0.000
 Gap=     0.126 Goal=   None    Shift=    0.000
 RMSDP=6.21D-06 MaxDP=4.71D-04 DE=-4.66D-06 OVMax= 1.83D-03

 Cycle  24  Pass 1  IDiag  1:
 RMSU=  2.00D-06    CP:  1.00D+00  9.65D-01  9.78D-01
 E= -1788.08628810815     Delta-E=       -0.000001176933 Rises=F Damp=F
 DIIS: error= 1.15D-05 at cycle  24 NSaved=  20.
 NSaved=20 IEnMin=20 EnMin= -1788.08628810815     IErMin=20 ErrMin= 1.15D-05
 ErrMax= 1.15D-05  0.00D+00 EMaxC= 1.00D-01 BMatC= 2.56D-07 BMatP= 9.43D-07
 IDIUse=1 WtCom= 1.00D+00 WtEn= 0.00D+00
 Coeff-Com:  0.677D-04-0.144D-02 0.138D-02 0.330D-02-0.197D-02 0.182D-02
 Coeff-Com: -0.744D-03-0.277D-01 0.531D-01-0.335D-01 0.279D-01-0.416D-01
 Coeff-Com: -0.328D-01 0.920D-01 0.183D+00-0.219D+00-0.149D+00-0.181D+00
 Coeff-Com:  0.118D+00 0.121D+01
 Coeff:      0.677D-04-0.144D-02 0.138D-02 0.330D-02-0.197D-02 0.182D-02
 Coeff:     -0.744D-03-0.277D-01 0.531D-01-0.335D-01 0.279D-01-0.416D-01
 Coeff:     -0.328D-01 0.920D-01 0.183D+00-0.219D+00-0.149D+00-0.181D+00
 Coeff:      0.118D+00 0.121D+01
 Gap=     0.370 Goal=   None    Shift=    0.000
 Gap=     0.126 Goal=   None    Shift=    0.000
 RMSDP=7.14D-06 MaxDP=5.98D-04 DE=-1.18D-06 OVMax= 3.54D-03

 Cycle  25  Pass 1  IDiag  1:
 RMSU=  1.03D-06    CP:  1.00D+00  9.99D-01  1.22D+00  1.76D+00
 E= -1788.08628875962     Delta-E=       -0.000000651470 Rises=F Damp=F
 DIIS: error= 9.92D-06 at cycle  25 NSaved=  20.
 NSaved=20 IEnMin=20 EnMin= -1788.08628875962     IErMin=20 ErrMin= 9.92D-06
 ErrMax= 9.92D-06  0.00D+00 EMaxC= 1.00D-01 BMatC= 1.78D-07 BMatP= 2.56D-07
 IDIUse=1 WtCom= 1.00D+00 WtEn= 0.00D+00
 Coeff-Com:  0.122D-02-0.162D-02-0.137D-02-0.509D-02 0.162D-01 0.119D-01
 Coeff-Com: -0.418D-01 0.213D-01-0.154D-01 0.666D-01-0.367D-01-0.593D-01
 Coeff-Com:  0.150D-02 0.181D+00-0.138D+00 0.140D+00-0.275D+00-0.302D+00
 Coeff-Com:  0.730D+00 0.708D+00
 Coeff:      0.122D-02-0.162D-02-0.137D-02-0.509D-02 0.162D-01 0.119D-01
 Coeff:     -0.418D-01 0.213D-01-0.154D-01 0.666D-01-0.367D-01-0.593D-01
 Coeff:      0.150D-02 0.181D+00-0.138D+00 0.140D+00-0.275D+00-0.302D+00
 Coeff:      0.730D+00 0.708D+00
 Gap=     0.370 Goal=   None    Shift=    0.000
 Gap=     0.126 Goal=   None    Shift=    0.000
 RMSDP=2.55D-06 MaxDP=1.48D-04 DE=-6.51D-07 OVMax= 8.05D-04

 Cycle  26  Pass 1  IDiag  1:
 RMSU=  3.97D-07    CP:  1.00D+00  1.26D+00  1.18D+00  2.18D+00  1.84D+00
 E= -1788.08628881720     Delta-E=       -0.000000057584 Rises=F Damp=F
 DIIS: error= 1.40D-05 at cycle  26 NSaved=  20.
 NSaved=20 IEnMin=20 EnMin= -1788.08628881720     IErMin=19 ErrMin= 9.92D-06
 ErrMax= 1.40D-05  0.00D+00 EMaxC= 1.00D-01 BMatC= 5.93D-07 BMatP= 1.78D-07
 IDIUse=1 WtCom= 1.00D+00 WtEn= 0.00D+00
 Coeff-Com: -0.157D-02 0.638D-02-0.452D-02-0.130D-02-0.440D-02-0.336D-02
 Coeff-Com:  0.551D-01-0.650D-01 0.284D-01-0.175D-01 0.191D-01-0.278D-01
 Coeff-Com:  0.862D-01-0.228D+00 0.269D+00-0.553D-01-0.183D+00 0.216D+00
 Coeff-Com: -0.241D+00 0.115D+01
 Coeff:     -0.157D-02 0.638D-02-0.452D-02-0.130D-02-0.440D-02-0.336D-02
 Coeff:      0.551D-01-0.650D-01 0.284D-01-0.175D-01 0.191D-01-0.278D-01
 Coeff:      0.862D-01-0.228D+00 0.269D+00-0.553D-01-0.183D+00 0.216D+00
 Coeff:     -0.241D+00 0.115D+01
 Gap=     0.370 Goal=   None    Shift=    0.000
 Gap=     0.126 Goal=   None    Shift=    0.000
 RMSDP=2.87D-06 MaxDP=2.33D-04 DE=-5.76D-08 OVMax= 1.27D-03

 Cycle  27  Pass 1  IDiag  1:
 RMSU=  2.10D-07    CP:  1.00D+00  1.13D+00  1.26D+00  2.33D+00  2.90D+00
                    CP:  2.14D+00
 E= -1788.08628911097     Delta-E=       -0.000000293771 Rises=F Damp=F
 DIIS: error= 1.03D-05 at cycle  27 NSaved=  20.
 NSaved=20 IEnMin=20 EnMin= -1788.08628911097     IErMin=18 ErrMin= 9.92D-06
 ErrMax= 1.03D-05  0.00D+00 EMaxC= 1.00D-01 BMatC= 2.08D-07 BMatP= 1.78D-07
 IDIUse=1 WtCom= 1.00D+00 WtEn= 0.00D+00
 Coeff-Com:  0.556D-02-0.707D-02-0.629D-03-0.740D-02-0.975D-04 0.541D-01
 Coeff-Com: -0.604D-01 0.311D-01-0.247D-01 0.183D-01 0.537D-03 0.777D-01
 Coeff-Com: -0.244D+00 0.155D+00 0.253D-01-0.432D-01 0.234D+00-0.934D+00
 Coeff-Com:  0.585D+00 0.114D+01
 Coeff:      0.556D-02-0.707D-02-0.629D-03-0.740D-02-0.975D-04 0.541D-01
 Coeff:     -0.604D-01 0.311D-01-0.247D-01 0.183D-01 0.537D-03 0.777D-01
 Coeff:     -0.244D+00 0.155D+00 0.253D-01-0.432D-01 0.234D+00-0.934D+00
 Coeff:      0.585D+00 0.114D+01
 Gap=     0.370 Goal=   None    Shift=    0.000
 Gap=     0.126 Goal=   None    Shift=    0.000
 RMSDP=1.93D-06 MaxDP=1.16D-04 DE=-2.94D-07 OVMax= 1.04D-03

 Cycle  28  Pass 1  IDiag  1:
 RMSU=  1.34D-06    CP:  1.00D+00  1.22D+00  1.26D+00  2.77D+00  3.00D+00
                    CP:  3.00D+00  2.47D+00
 E= -1788.08628933969     Delta-E=       -0.000000228715 Rises=F Damp=F
 DIIS: error= 1.01D-05 at cycle  28 NSaved=  20.
 NSaved=20 IEnMin=20 EnMin= -1788.08628933969     IErMin=17 ErrMin= 9.92D-06
 ErrMax= 1.01D-05  0.00D+00 EMaxC= 1.00D-01 BMatC= 2.28D-07 BMatP= 1.78D-07
 IDIUse=1 WtCom= 1.00D+00 WtEn= 0.00D+00
 Coeff-Com: -0.650D-02 0.119D-01-0.714D-03-0.159D-01 0.337D-01-0.457D-01
 Coeff-Com:  0.423D-01-0.275D-01-0.178D-02 0.284D-01 0.945D-01-0.224D+00
 Coeff-Com:  0.361D-01 0.291D-01-0.676D-03 0.467D+00-0.926D+00-0.261D+00
 Coeff-Com:  0.115D-01 0.176D+01
 Coeff:     -0.650D-02 0.119D-01-0.714D-03-0.159D-01 0.337D-01-0.457D-01
 Coeff:      0.423D-01-0.275D-01-0.178D-02 0.284D-01 0.945D-01-0.224D+00
 Coeff:      0.361D-01 0.291D-01-0.676D-03 0.467D+00-0.926D+00-0.261D+00
 Coeff:      0.115D-01 0.176D+01
 Gap=     0.370 Goal=   None    Shift=    0.000
 Gap=     0.126 Goal=   None    Shift=    0.000
 RMSDP=3.65D-06 MaxDP=2.88D-04 DE=-2.29D-07 OVMax= 1.95D-03

 Cycle  29  Pass 1  IDiag  1:
 RMSU=  1.39D-06    CP:  1.00D+00  1.28D+00  1.31D+00  3.00D+00  3.00D+00
                    CP:  3.00D+00  3.00D+00  3.00D+00
 E= -1788.08628980123     Delta-E=       -0.000000461547 Rises=F Damp=F
 DIIS: error= 9.25D-06 at cycle  29 NSaved=  20.
 NSaved=20 IEnMin=20 EnMin= -1788.08628980123     IErMin=20 ErrMin= 9.25D-06
 ErrMax= 9.25D-06  0.00D+00 EMaxC= 1.00D-01 BMatC= 1.45D-07 BMatP= 1.78D-07
 IDIUse=1 WtCom= 1.00D+00 WtEn= 0.00D+00
 Coeff-Com:  0.133D-01-0.470D-02-0.333D-01 0.283D-01-0.190D-01 0.542D-01
 Coeff-Com: -0.461D-01-0.408D-01 0.514D-01 0.155D+00-0.154D+00-0.454D-01
 Coeff-Com: -0.937D-01-0.114D+00 0.731D+00-0.310D+00-0.423D+00-0.163D+01
 Coeff-Com:  0.145D+01 0.143D+01
 Coeff:      0.133D-01-0.470D-02-0.333D-01 0.283D-01-0.190D-01 0.542D-01
 Coeff:     -0.461D-01-0.408D-01 0.514D-01 0.155D+00-0.154D+00-0.454D-01
 Coeff:     -0.937D-01-0.114D+00 0.731D+00-0.310D+00-0.423D+00-0.163D+01
 Coeff:      0.145D+01 0.143D+01
 Gap=     0.370 Goal=   None    Shift=    0.000
 Gap=     0.126 Goal=   None    Shift=    0.000
 RMSDP=5.87D-06 MaxDP=3.67D-04 DE=-4.62D-07 OVMax= 3.21D-03

 Cycle  30  Pass 1  IDiag  1:
 RMSU=  4.38D-06    CP:  1.00D+00  1.51D+00  1.33D+00  3.00D+00  3.00D+00
                    CP:  3.00D+00  3.00D+00  3.00D+00  3.00D+00
 E= -1788.08629049706     Delta-E=       -0.000000695824 Rises=F Damp=F
 DIIS: error= 8.68D-06 at cycle  30 NSaved=  20.
 NSaved=20 IEnMin=20 EnMin= -1788.08629049706     IErMin=20 ErrMin= 8.68D-06
 ErrMax= 8.68D-06  0.00D+00 EMaxC= 1.00D-01 BMatC= 1.49D-07 BMatP= 1.45D-07
 IDIUse=1 WtCom= 1.00D+00 WtEn= 0.00D+00
 Coeff-Com: -0.458D-02-0.880D-02 0.452D-01-0.448D-01 0.273D-01-0.282D-01
 Coeff-Com: -0.178D-01 0.326D-01 0.113D+00-0.182D+00 0.548D-01-0.423D-01
 Coeff-Com: -0.152D+00 0.599D+00-0.184D+00 0.477D+00-0.220D+01 0.530D-01
 Coeff-Com:  0.665D+00 0.180D+01
 Coeff:     -0.458D-02-0.880D-02 0.452D-01-0.448D-01 0.273D-01-0.282D-01
 Coeff:     -0.178D-01 0.326D-01 0.113D+00-0.182D+00 0.548D-01-0.423D-01
 Coeff:     -0.152D+00 0.599D+00-0.184D+00 0.477D+00-0.220D+01 0.530D-01
 Coeff:      0.665D+00 0.180D+01
 Gap=     0.370 Goal=   None    Shift=    0.000
 Gap=     0.126 Goal=   None    Shift=    0.000
 RMSDP=1.22D-05 MaxDP=8.72D-04 DE=-6.96D-07 OVMax= 6.68D-03

 Cycle  31  Pass 1  IDiag  1:
 RMSU=  5.95D-06    CP:  1.00D+00  1.86D+00  1.43D+00  3.00D+00  3.00D+00
                    CP:  3.00D+00  3.00D+00  3.00D+00  3.00D+00  3.00D+00
 E= -1788.08629188637     Delta-E=       -0.000001389313 Rises=F Damp=F
 DIIS: error= 7.50D-06 at cycle  31 NSaved=  20.
 NSaved=20 IEnMin=20 EnMin= -1788.08629188637     IErMin=20 ErrMin= 7.50D-06
 ErrMax= 7.50D-06  0.00D+00 EMaxC= 1.00D-01 BMatC= 1.06D-07 BMatP= 1.45D-07
 IDIUse=1 WtCom= 1.00D+00 WtEn= 0.00D+00
 Coeff-Com: -0.419D-02 0.268D-01-0.478D-01 0.214D-01-0.119D-01-0.189D-01
 Coeff-Com:  0.345D-01 0.106D+00-0.128D+00 0.355D-01-0.431D-01-0.165D+00
 Coeff-Com:  0.516D+00-0.908D-01 0.111D+01-0.147D+01-0.887D+00-0.136D+01
 Coeff-Com:  0.151D+01 0.186D+01
 Coeff:     -0.419D-02 0.268D-01-0.478D-01 0.214D-01-0.119D-01-0.189D-01
 Coeff:      0.345D-01 0.106D+00-0.128D+00 0.355D-01-0.431D-01-0.165D+00
 Coeff:      0.516D+00-0.908D-01 0.111D+01-0.147D+01-0.887D+00-0.136D+01
 Coeff:      0.151D+01 0.186D+01
 Gap=     0.370 Goal=   None    Shift=    0.000
 Gap=     0.126 Goal=   None    Shift=    0.000
 RMSDP=2.66D-05 MaxDP=1.84D-03 DE=-1.39D-06 OVMax= 1.46D-02

 Cycle  32  Pass 1  IDiag  1:
 RMSU=  1.95D-05    CP:  1.00D+00  2.68D+00  1.61D+00  3.00D+00  3.00D+00
                    CP:  3.00D+00  3.00D+00  3.00D+00  3.00D+00  3.00D+00
                    CP:  3.00D+00
 E= -1788.08629446769     Delta-E=       -0.000002581315 Rises=F Damp=F
 DIIS: error= 1.06D-05 at cycle  32 NSaved=  20.
 NSaved=20 IEnMin=20 EnMin= -1788.08629446769     IErMin=19 ErrMin= 7.50D-06
 ErrMax= 1.06D-05  0.00D+00 EMaxC= 1.00D-01 BMatC= 3.01D-07 BMatP= 1.06D-07
 IDIUse=1 WtCom= 1.00D+00 WtEn= 0.00D+00
 Coeff-Com:  0.101D-01-0.385D-01 0.310D-01-0.602D-02-0.172D-01 0.187D-01
 Coeff-Com:  0.610D-01-0.807D-01 0.170D-01 0.404D-01-0.153D+00 0.275D+00
 Coeff-Com: -0.673D+00 0.117D+01-0.198D+00 0.269D+00-0.226D+01 0.107D+00
 Coeff-Com:  0.126D+01 0.117D+01
 Coeff:      0.101D-01-0.385D-01 0.310D-01-0.602D-02-0.172D-01 0.187D-01
 Coeff:      0.610D-01-0.807D-01 0.170D-01 0.404D-01-0.153D+00 0.275D+00
 Coeff:     -0.673D+00 0.117D+01-0.198D+00 0.269D+00-0.226D+01 0.107D+00
 Coeff:      0.126D+01 0.117D+01
 Gap=     0.370 Goal=   None    Shift=    0.000
 Gap=     0.126 Goal=   None    Shift=    0.000
 RMSDP=2.78D-05 MaxDP=1.74D-03 DE=-2.58D-06 OVMax= 1.52D-02

 Cycle  33  Pass 1  IDiag  1:
 RMSU=  1.33D-05    CP:  1.00D+00  3.00D+00  1.72D+00  3.00D+00  3.00D+00
                    CP:  3.00D+00  3.00D+00  3.00D+00  3.00D+00  3.00D+00
                    CP:  3.00D+00  2.20D+00
 E= -1788.08629670103     Delta-E=       -0.000002233346 Rises=F Damp=F
 DIIS: error= 8.39D-06 at cycle  33 NSaved=  20.
 NSaved=20 IEnMin=20 EnMin= -1788.08629670103     IErMin=18 ErrMin= 7.50D-06
 ErrMax= 8.39D-06  0.00D+00 EMaxC= 1.00D-01 BMatC= 2.11D-07 BMatP= 1.06D-07
 IDIUse=1 WtCom= 1.00D+00 WtEn= 0.00D+00
 Coeff-Com: -0.295D-01 0.365D-01-0.545D-02-0.232D-01 0.134D-01 0.622D-01
 Coeff-Com: -0.679D-01 0.923D-02 0.340D-01-0.130D+00 0.266D+00-0.757D+00
 Coeff-Com:  0.754D+00-0.167D+00 0.786D+00-0.156D+01-0.870D-01 0.685D+00
 Coeff-Com:  0.653D+00 0.526D+00
 Coeff:     -0.295D-01 0.365D-01-0.545D-02-0.232D-01 0.134D-01 0.622D-01
 Coeff:     -0.679D-01 0.923D-02 0.340D-01-0.130D+00 0.266D+00-0.757D+00
 Coeff:      0.754D+00-0.167D+00 0.786D+00-0.156D+01-0.870D-01 0.685D+00
 Coeff:      0.653D+00 0.526D+00
 Gap=     0.370 Goal=   None    Shift=    0.000
 Gap=     0.126 Goal=   None    Shift=    0.000
 RMSDP=4.83D-06 MaxDP=3.10D-04 DE=-2.23D-06 OVMax= 2.65D-03

 Cycle  34  Pass 1  IDiag  1:
 RMSU=  3.78D-07    CP:  1.00D+00  3.00D+00  1.74D+00  3.00D+00  3.00D+00
                    CP:  3.00D+00  3.00D+00  3.00D+00  3.00D+00  3.00D+00
                    CP:  3.00D+00  2.41D+00  1.19D+00
 E= -1788.08629704458     Delta-E=       -0.000000343551 Rises=F Damp=F
 DIIS: error= 7.88D-06 at cycle  34 NSaved=  20.
 NSaved=20 IEnMin=20 EnMin= -1788.08629704458     IErMin=17 ErrMin= 7.50D-06
 ErrMax= 7.88D-06  0.00D+00 EMaxC= 1.00D-01 BMatC= 1.84D-07 BMatP= 1.06D-07
 IDIUse=1 WtCom= 1.00D+00 WtEn= 0.00D+00
 Coeff-Com:  0.194D-01-0.364D-01-0.483D-01 0.689D-01 0.140D+00-0.296D-01
 Coeff-Com: -0.169D+00-0.154D+00-0.870D-01 0.721D+00 0.448D+00-0.285D+00
 Coeff-Com: -0.189D+01 0.452D+00 0.753D+00 0.808D+00-0.408D+00-0.818D+00
 Coeff-Com: -0.177D+01 0.329D+01
 Coeff:      0.194D-01-0.364D-01-0.483D-01 0.689D-01 0.140D+00-0.296D-01
 Coeff:     -0.169D+00-0.154D+00-0.870D-01 0.721D+00 0.448D+00-0.285D+00
 Coeff:     -0.189D+01 0.452D+00 0.753D+00 0.808D+00-0.408D+00-0.818D+00
 Coeff:     -0.177D+01 0.329D+01
 Gap=     0.370 Goal=   None    Shift=    0.000
 Gap=     0.126 Goal=   None    Shift=    0.000
 RMSDP=1.30D-05 MaxDP=8.37D-04 DE=-3.44D-07 OVMax= 7.06D-03

 Cycle  35  Pass 1  IDiag  1:
 RMSU=  9.66D-07    CP:  1.00D+00  3.00D+00  1.78D+00  3.00D+00  3.00D+00
                    CP:  3.00D+00  3.00D+00  3.00D+00  3.00D+00  3.00D+00
                    CP:  3.00D+00  2.96D+00  1.71D+00  3.00D+00
 E= -1788.08629790523     Delta-E=       -0.000000860643 Rises=F Damp=F
 DIIS: error= 3.75D-06 at cycle  35 NSaved=  20.
 NSaved=20 IEnMin=20 EnMin= -1788.08629790523     IErMin=20 ErrMin= 3.75D-06
 ErrMax= 3.75D-06  0.00D+00 EMaxC= 1.00D-01 BMatC= 3.35D-08 BMatP= 1.06D-07
 IDIUse=1 WtCom= 1.00D+00 WtEn= 0.00D+00
 Coeff-Com: -0.102D-01 0.101D-01 0.269D-01 0.425D-02-0.806D-01-0.129D+00
 Coeff-Com:  0.110D+00 0.169D+00 0.261D+00-0.437D+00-0.931D+00-0.355D+00
 Coeff-Com:  0.826D+00 0.389D+00 0.716D+00-0.985D+00-0.255D+00-0.118D+01
 Coeff-Com:  0.111D+01 0.174D+01
 Coeff:     -0.102D-01 0.101D-01 0.269D-01 0.425D-02-0.806D-01-0.129D+00
 Coeff:      0.110D+00 0.169D+00 0.261D+00-0.437D+00-0.931D+00-0.355D+00
 Coeff:      0.826D+00 0.389D+00 0.716D+00-0.985D+00-0.255D+00-0.118D+01
 Coeff:      0.111D+01 0.174D+01
 Gap=     0.370 Goal=   None    Shift=    0.000
 Gap=     0.126 Goal=   None    Shift=    0.000
 RMSDP=4.73D-05 MaxDP=3.12D-03 DE=-8.61D-07 OVMax= 2.59D-02

 Cycle  36  Pass 1  IDiag  1:
 RMSU=  3.97D-05    CP:  1.00D+00  3.00D+00  2.07D+00  3.00D+00  3.00D+00
                    CP:  3.00D+00  3.00D+00  3.00D+00  3.00D+00  3.00D+00
                    CP:  3.00D+00  3.00D+00  3.00D+00  3.00D+00  3.00D+00
 E= -1788.08629984973     Delta-E=       -0.000001944503 Rises=F Damp=F
 DIIS: error= 1.06D-05 at cycle  36 NSaved=  20.
 NSaved=20 IEnMin=20 EnMin= -1788.08629984973     IErMin=19 ErrMin= 3.75D-06
 ErrMax= 1.06D-05  0.00D+00 EMaxC= 1.00D-01 BMatC= 2.88D-07 BMatP= 3.35D-08
 IDIUse=1 WtCom= 1.00D+00 WtEn= 0.00D+00
 Coeff-Com: -0.789D-03-0.463D-03 0.431D-02-0.317D-01-0.745D-04 0.341D-01
 Coeff-Com:  0.165D-01 0.101D+00-0.566D-01-0.688D-01-0.445D+00-0.728D+00
 Coeff-Com: -0.536D+00 0.138D+01 0.765D+00 0.101D+00-0.192D+01 0.185D+00
 Coeff-Com:  0.138D+01 0.813D+00
 Coeff:     -0.789D-03-0.463D-03 0.431D-02-0.317D-01-0.745D-04 0.341D-01
 Coeff:      0.165D-01 0.101D+00-0.566D-01-0.688D-01-0.445D+00-0.728D+00
 Coeff:     -0.536D+00 0.138D+01 0.765D+00 0.101D+00-0.192D+01 0.185D+00
 Coeff:      0.138D+01 0.813D+00
 Gap=     0.370 Goal=   None    Shift=    0.000
 Gap=     0.126 Goal=   None    Shift=    0.000
 RMSDP=5.61D-06 MaxDP=3.83D-04 DE=-1.94D-06 OVMax= 3.04D-03

 Cycle  37  Pass 1  IDiag  1:
 RMSU=  2.45D-06    CP:  1.00D+00  3.00D+00  2.09D+00  3.00D+00  3.00D+00
                    CP:  3.00D+00  3.00D+00  3.00D+00  3.00D+00  3.00D+00
                    CP:  3.00D+00  3.00D+00  3.00D+00  3.00D+00  3.00D+00
                    CP:  1.13D+00
 E= -1788.08630007726     Delta-E=       -0.000000227533 Rises=F Damp=F
 DIIS: error= 4.38D-06 at cycle  37 NSaved=  20.
 NSaved=20 IEnMin=20 EnMin= -1788.08630007726     IErMin=18 ErrMin= 3.75D-06
 ErrMax= 4.38D-06  0.00D+00 EMaxC= 1.00D-01 BMatC= 4.75D-08 BMatP= 3.35D-08
 IDIUse=1 WtCom= 1.00D+00 WtEn= 0.00D+00
 Coeff-Com: -0.141D-01 0.429D-02 0.478D-02 0.937D-01-0.402D-01-0.841D-01
 Coeff-Com: -0.827D-01 0.240D+00 0.682D+00 0.146D+00-0.140D+01-0.134D+01
 Coeff-Com:  0.775D+00 0.136D+01 0.549D+00-0.116D+01-0.735D+00 0.545D+00
 Coeff-Com:  0.170D+00 0.128D+01
 Coeff:     -0.141D-01 0.429D-02 0.478D-02 0.937D-01-0.402D-01-0.841D-01
 Coeff:     -0.827D-01 0.240D+00 0.682D+00 0.146D+00-0.140D+01-0.134D+01
 Coeff:      0.775D+00 0.136D+01 0.549D+00-0.116D+01-0.735D+00 0.545D+00
 Coeff:      0.170D+00 0.128D+01
 Gap=     0.370 Goal=   None    Shift=    0.000
 Gap=     0.126 Goal=   None    Shift=    0.000
 RMSDP=2.44D-05 MaxDP=1.59D-03 DE=-2.28D-07 OVMax= 1.34D-02

 Cycle  38  Pass 1  IDiag  1:
 RMSU=  4.69D-06    CP:  1.00D+00  3.00D+00  2.23D+00  3.00D+00  3.00D+00
                    CP:  3.00D+00  3.00D+00  3.00D+00  3.00D+00  3.00D+00
                    CP:  3.00D+00  3.00D+00  3.00D+00  3.00D+00  3.00D+00
                    CP:  1.69D+00  3.00D+00
 E= -1788.08630043063     Delta-E=       -0.000000353365 Rises=F Damp=F
 DIIS: error= 5.60D-06 at cycle  38 NSaved=  20.
 NSaved=20 IEnMin=20 EnMin= -1788.08630043063     IErMin=17 ErrMin= 3.75D-06
 ErrMax= 5.60D-06  0.00D+00 EMaxC= 1.00D-01 BMatC= 8.51D-08 BMatP= 3.35D-08
 IDIUse=1 WtCom= 1.00D+00 WtEn= 0.00D+00
 Coeff-Com: -0.149D-02 0.306D-02 0.179D-01-0.767D-02-0.152D-01-0.330D-01
 Coeff-Com:  0.286D-01 0.263D+00 0.197D+00-0.479D+00-0.716D+00 0.224D+00
 Coeff-Com:  0.668D+00 0.276D+00-0.594D+00 0.405D-01 0.139D+00-0.588D+00
 Coeff-Com:  0.653D+00 0.923D+00
 Coeff:     -0.149D-02 0.306D-02 0.179D-01-0.767D-02-0.152D-01-0.330D-01
 Coeff:      0.286D-01 0.263D+00 0.197D+00-0.479D+00-0.716D+00 0.224D+00
 Coeff:      0.668D+00 0.276D+00-0.594D+00 0.405D-01 0.139D+00-0.588D+00
 Coeff:      0.653D+00 0.923D+00
 Gap=     0.370 Goal=   None    Shift=    0.000
 Gap=     0.126 Goal=   None    Shift=    0.000
 RMSDP=3.01D-06 MaxDP=2.07D-04 DE=-3.53D-07 OVMax= 1.59D-03

 Cycle  39  Pass 1  IDiag  1:
 RMSU=  3.98D-07    CP:  1.00D+00  3.00D+00  2.20D+00  3.00D+00  3.00D+00
                    CP:  3.00D+00  3.00D+00  3.00D+00  3.00D+00  3.00D+00
                    CP:  3.00D+00  3.00D+00  3.00D+00  3.00D+00  3.00D+00
                    CP:  1.62D+00  3.00D+00  7.80D-01
 E= -1788.08630044000     Delta-E=       -0.000000009371 Rises=F Damp=F
 DIIS: error= 6.44D-07 at cycle  39 NSaved=  20.
 NSaved=20 IEnMin=20 EnMin= -1788.08630044000     IErMin=20 ErrMin= 6.44D-07
 ErrMax= 6.44D-07  0.00D+00 EMaxC= 1.00D-01 BMatC= 1.43D-09 BMatP= 3.35D-08
 IDIUse=1 WtCom= 1.00D+00 WtEn= 0.00D+00
 Coeff-Com: -0.297D-02-0.177D-01 0.173D-01 0.244D-01-0.450D-02-0.145D+00
 Coeff-Com: -0.435D-01 0.188D+00 0.206D+00-0.525D-01-0.192D+00-0.185D+00
 Coeff-Com:  0.596D-01 0.260D+00 0.251D-01-0.165D-01-0.426D+00 0.577D-01
 Coeff-Com:  0.453D+00 0.795D+00
 Coeff:     -0.297D-02-0.177D-01 0.173D-01 0.244D-01-0.450D-02-0.145D+00
 Coeff:     -0.435D-01 0.188D+00 0.206D+00-0.525D-01-0.192D+00-0.185D+00
 Coeff:      0.596D-01 0.260D+00 0.251D-01-0.165D-01-0.426D+00 0.577D-01
 Coeff:      0.453D+00 0.795D+00
 Gap=     0.370 Goal=   None    Shift=    0.000
 Gap=     0.126 Goal=   None    Shift=    0.000
 RMSDP=8.74D-06 MaxDP=5.69D-04 DE=-9.37D-09 OVMax= 4.78D-03

 Cycle  40  Pass 1  IDiag  1:
 RMSU=  3.83D-07    CP:  1.00D+00  3.00D+00  2.26D+00  3.00D+00  3.00D+00
                    CP:  3.00D+00  3.00D+00  3.00D+00  3.00D+00  3.00D+00
                    CP:  3.00D+00  3.00D+00  3.00D+00  3.00D+00  3.00D+00
                    CP:  1.82D+00  3.00D+00  1.44D+00  2.64D+00
 E= -1788.08630048137     Delta-E=       -0.000000041367 Rises=F Damp=F
 DIIS: error= 2.07D-06 at cycle  40 NSaved=  20.
 NSaved=20 IEnMin=20 EnMin= -1788.08630048137     IErMin=19 ErrMin= 6.44D-07
 ErrMax= 2.07D-06  0.00D+00 EMaxC= 1.00D-01 BMatC= 1.16D-08 BMatP= 1.43D-09
 IDIUse=1 WtCom= 1.00D+00 WtEn= 0.00D+00
 Coeff-Com: -0.230D-01 0.153D-01 0.186D-01 0.283D-01-0.531D-01-0.134D+00
 Coeff-Com: -0.658D-01 0.186D+00 0.180D+00-0.552D-01-0.227D+00-0.513D-01
 Coeff-Com:  0.150D+00 0.122D+00 0.434D-01-0.122D+00-0.197D+00-0.200D+00
 Coeff-Com:  0.472D+00 0.912D+00
 Coeff:     -0.230D-01 0.153D-01 0.186D-01 0.283D-01-0.531D-01-0.134D+00
 Coeff:     -0.658D-01 0.186D+00 0.180D+00-0.552D-01-0.227D+00-0.513D-01
 Coeff:      0.150D+00 0.122D+00 0.434D-01-0.122D+00-0.197D+00-0.200D+00
 Coeff:      0.472D+00 0.912D+00
 Gap=     0.370 Goal=   None    Shift=    0.000
 Gap=     0.126 Goal=   None    Shift=    0.000
 RMSDP=2.11D-06 MaxDP=1.43D-04 DE=-4.14D-08 OVMax= 1.16D-03

 Cycle  41  Pass 1  IDiag  1:
 Restarting incremental Fock formation.
 E= -1788.08630048676     Delta-E=       -0.000000005400 Rises=F Damp=F
 DIIS: error= 1.43D-06 at cycle  41 NSaved=  20.
 NSaved=20 IEnMin=20 EnMin= -1788.08630048676     IErMin=18 ErrMin= 6.44D-07
 ErrMax= 1.43D-06  0.00D+00 EMaxC= 1.00D-01 BMatC= 5.47D-09 BMatP= 1.43D-09
 IDIUse=1 WtCom= 1.00D+00 WtEn= 0.00D+00
 Coeff-Com: -0.416D-02 0.248D-02 0.437D-02 0.468D-01-0.246D-01-0.622D-01
 Coeff-Com: -0.104D+00 0.491D-01 0.113D+00 0.338D-01-0.311D-01-0.193D+00
 Coeff-Com:  0.600D-01 0.116D+00 0.790D-01-0.576D-02-0.349D+00 0.470D-01
 Coeff-Com:  0.131D+00 0.109D+01
 Coeff:     -0.416D-02 0.248D-02 0.437D-02 0.468D-01-0.246D-01-0.622D-01
 Coeff:     -0.104D+00 0.491D-01 0.113D+00 0.338D-01-0.311D-01-0.193D+00
 Coeff:      0.600D-01 0.116D+00 0.790D-01-0.576D-02-0.349D+00 0.470D-01
 Coeff:      0.131D+00 0.109D+01
 Gap=     0.370 Goal=   None    Shift=    0.000
 Gap=     0.126 Goal=   None    Shift=    0.000
 RMSDP=5.13D-07 MaxDP=3.16D-05 DE=-5.40D-09 OVMax= 2.65D-04

 Cycle  42  Pass 1  IDiag  1:
 RMSU=  5.13D-07    CP:  1.00D+00
 E= -1788.08630048844     Delta-E=       -0.000000001674 Rises=F Damp=F
 DIIS: error= 1.52D-07 at cycle  42 NSaved=  20.
 NSaved=20 IEnMin=20 EnMin= -1788.08630048844     IErMin=20 ErrMin= 1.52D-07
 ErrMax= 1.52D-07  0.00D+00 EMaxC= 1.00D-01 BMatC= 4.34D-11 BMatP= 1.43D-09
 IDIUse=1 WtCom= 1.00D+00 WtEn= 0.00D+00
 Coeff-Com:  0.514D-03 0.235D-03 0.593D-02-0.593D-02 0.685D-03-0.296D-01
 Coeff-Com: -0.182D-01 0.226D-01 0.165D-01 0.138D-01-0.539D-01-0.108D-01
 Coeff-Com:  0.584D-01 0.444D-01-0.358D-02-0.149D+00-0.114D-01-0.125D-01
 Coeff-Com:  0.420D+00 0.712D+00
 Coeff:      0.514D-03 0.235D-03 0.593D-02-0.593D-02 0.685D-03-0.296D-01
 Coeff:     -0.182D-01 0.226D-01 0.165D-01 0.138D-01-0.539D-01-0.108D-01
 Coeff:      0.584D-01 0.444D-01-0.358D-02-0.149D+00-0.114D-01-0.125D-01
 Coeff:      0.420D+00 0.712D+00
 Gap=     0.370 Goal=   None    Shift=    0.000
 Gap=     0.126 Goal=   None    Shift=    0.000
 RMSDP=1.49D-06 MaxDP=9.62D-05 DE=-1.67D-09 OVMax= 8.18D-04

 Cycle  43  Pass 1  IDiag  1:
 RMSU=  4.34D-07    CP:  1.00D+00 -1.79D+00
 E= -1788.08630048871     Delta-E=       -0.000000000268 Rises=F Damp=F
 DIIS: error= 5.97D-07 at cycle  43 NSaved=  20.
 NSaved=20 IEnMin=20 EnMin= -1788.08630048871     IErMin=19 ErrMin= 1.52D-07
 ErrMax= 5.97D-07  0.00D+00 EMaxC= 1.00D-01 BMatC= 1.00D-09 BMatP= 4.34D-11
 IDIUse=1 WtCom= 1.00D+00 WtEn= 0.00D+00
 Coeff-Com: -0.145D-02-0.767D-02 0.147D-01 0.369D-01-0.964D-02-0.415D-01
 Coeff-Com: -0.289D-01 0.449D-01 0.193D-01-0.127D-01-0.833D-02-0.929D-02
 Coeff-Com: -0.221D-01 0.414D-01 0.645D-01-0.221D-01-0.181D+00-0.396D+00
 Coeff-Com:  0.362D+00 0.116D+01
 Coeff:     -0.145D-02-0.767D-02 0.147D-01 0.369D-01-0.964D-02-0.415D-01
 Coeff:     -0.289D-01 0.449D-01 0.193D-01-0.127D-01-0.833D-02-0.929D-02
 Coeff:     -0.221D-01 0.414D-01 0.645D-01-0.221D-01-0.181D+00-0.396D+00
 Coeff:      0.362D+00 0.116D+01
 Gap=     0.370 Goal=   None    Shift=    0.000
 Gap=     0.126 Goal=   None    Shift=    0.000
 RMSDP=8.46D-07 MaxDP=5.39D-05 DE=-2.68D-10 OVMax= 4.60D-04

 Cycle  44  Pass 1  IDiag  1:
 RMSU=  4.19D-08    CP:  1.00D+00 -1.81D-01  5.66D-01
 E= -1788.08630048893     Delta-E=       -0.000000000224 Rises=F Damp=F
 DIIS: error= 2.06D-07 at cycle  44 NSaved=  20.
 NSaved=20 IEnMin=20 EnMin= -1788.08630048893     IErMin=18 ErrMin= 1.52D-07
 ErrMax= 2.06D-07  0.00D+00 EMaxC= 1.00D-01 BMatC= 1.51D-10 BMatP= 4.34D-11
 IDIUse=1 WtCom= 1.00D+00 WtEn= 0.00D+00
 Coeff-Com: -0.116D-01 0.110D-01 0.324D-01 0.472D-02-0.252D-01-0.327D-01
 Coeff-Com:  0.142D-01 0.933D-02 0.335D-01-0.197D-01-0.245D-01-0.212D-01
 Coeff-Com:  0.243D-01 0.962D-01-0.641D-02-0.648D-01-0.416D+00-0.234D-01
 Coeff-Com:  0.658D+00 0.762D+00
 Coeff:     -0.116D-01 0.110D-01 0.324D-01 0.472D-02-0.252D-01-0.327D-01
 Coeff:      0.142D-01 0.933D-02 0.335D-01-0.197D-01-0.245D-01-0.212D-01
 Coeff:      0.243D-01 0.962D-01-0.641D-02-0.648D-01-0.416D+00-0.234D-01
 Coeff:      0.658D+00 0.762D+00
 Gap=     0.370 Goal=   None    Shift=    0.000
 Gap=     0.126 Goal=   None    Shift=    0.000
 RMSDP=6.02D-07 MaxDP=3.82D-05 DE=-2.24D-10 OVMax= 3.29D-04

 Cycle  45  Pass 1  IDiag  1:
 RMSU=  1.26D-08    CP:  1.00D+00 -1.31D+00  9.59D-01  1.30D+00
 E= -1788.08630048912     Delta-E=       -0.000000000192 Rises=F Damp=F
 DIIS: error= 5.04D-08 at cycle  45 NSaved=  20.
 NSaved=20 IEnMin=20 EnMin= -1788.08630048912     IErMin=20 ErrMin= 5.04D-08
 ErrMax= 5.04D-08  0.00D+00 EMaxC= 1.00D-01 BMatC= 9.50D-12 BMatP= 4.34D-11
 IDIUse=1 WtCom= 1.00D+00 WtEn= 0.00D+00
 Coeff-Com: -0.650D-03-0.135D-01 0.831D-02 0.149D-01-0.989D-03-0.124D-01
 Coeff-Com: -0.667D-02 0.194D-01 0.155D-03-0.641D-02-0.109D-02-0.107D-01
 Coeff-Com: -0.456D-02 0.137D-01 0.763D-01 0.184D-01-0.191D+00-0.303D+00
 Coeff-Com:  0.267D+00 0.113D+01
 Coeff:     -0.650D-03-0.135D-01 0.831D-02 0.149D-01-0.989D-03-0.124D-01
[...]
 ZZZY=            211.7523 XXYY=          -1402.0572 XXZZ=          -1466.5761 YYZZ=           -471.6634
 XXYZ=            -10.7061 YYXZ=             97.9191 ZZXY=             30.5297
 N-N= 3.169916926665D+03 E-N=-1.052421499392D+04  KE= 1.774299252467D+03
                          Isotropic Fermi Contact Couplings
        Atom                 a.u.       MegaHertz       Gauss      10(-4) cm-1
     1  C(13)              0.01563      17.57427       6.27094       5.86214
     2  C(13)             -0.01271     -14.28485      -5.09719      -4.76491
     3  N(14)              0.06548      21.15833       7.54982       7.05766
     4  C(13)             -0.01868     -21.00135      -7.49380      -7.00529
     5  O(17)             -0.00314       1.90352       0.67922       0.63495
     6  N(14)              0.05863      18.94300       6.75933       6.31870
     7  C(13)             -0.01149     -12.91833      -4.60958      -4.30909
     8  C(13)              0.01413      15.88157       5.66694       5.29752
     9  C(13)             -0.01889     -21.23558      -7.57738      -7.08343
    10  O(17)              0.01869     -11.33038      -4.04296      -3.77941
    11  N(14)             -0.00877      -2.83237      -1.01066      -0.94478
    12  C(13)              0.00001       0.00930       0.00332       0.00310
    13  F(19)              0.00004       0.16771       0.05984       0.05594
    14  F(19)              0.00073       3.07874       1.09857       1.02696
    15  C(13)             -0.00095      -1.07216      -0.38257      -0.35764
    16  F(19)              0.00056       2.37149       0.84621       0.79104
    17  O(17)             -0.00039       0.23854       0.08512       0.07957
    18  C(13)             -0.00006      -0.06299      -0.02248      -0.02101
    19  F(19)              0.00000       0.01500       0.00535       0.00500
    20  F(19)             -0.00001      -0.04183      -0.01492      -0.01395
    21  F(19)              0.00000      -0.00851      -0.00304      -0.00284
    22  C(13)              0.00003       0.02966       0.01058       0.00989
    23  F(19)             -0.00002      -0.07841      -0.02798      -0.02616
    24  F(19)             -0.00004      -0.18762      -0.06695      -0.06258
    25  F(19)              0.00019       0.78489       0.28007       0.26181
    26  C(13)             -0.02129     -23.93647      -8.54113      -7.98435
    27  O(17)              0.02196     -13.31228      -4.75015      -4.44050
    28  H(1)               0.00191       8.55267       3.05181       2.85286
    29  H(1)              -0.00013      -0.57701      -0.20589      -0.19247
    30  H(1)              -0.00083      -3.69135      -1.31717      -1.23130
    31  H(1)               0.00799      35.70665      12.74102      11.91046
    32  H(1)               0.00419      18.74337       6.68810       6.25212
    33  H(1)               0.00349      15.60137       5.56696       5.20406
    34  H(1)               0.00757      33.84286      12.07597      11.28876
    35  H(1)              -0.00003      -0.12954      -0.04622      -0.04321
    36  H(1)              -0.00076      -3.37923      -1.20579      -1.12719
    37  H(1)               0.00166       7.40400       2.64193       2.46971
 --------------------------------------------------------
       Center         ----  Spin Dipole Couplings  ----
                      3XX-RR        3YY-RR        3ZZ-RR
 --------------------------------------------------------
     1   Atom       -0.015364      0.055369     -0.040005
     2   Atom       -0.028175      0.043592     -0.015417
     3   Atom       -0.184073      0.408197     -0.224124
     4   Atom        0.009705     -0.027361      0.017656
     5   Atom       -0.005137     -0.132193      0.137330
     6   Atom       -0.164982      0.340810     -0.175828
     7   Atom       -0.024729      0.018587      0.006142
     8   Atom       -0.010116     -0.020112      0.030228
     9   Atom        0.032762     -0.044937      0.012175
    10   Atom       -0.265959      0.353153     -0.087195
    11   Atom        0.012259     -0.028032      0.015773
    12   Atom       -0.000752     -0.000881      0.001633
    13   Atom        0.002030      0.004455     -0.006485
    14   Atom        0.002955     -0.008405      0.005450
    15   Atom        0.001306     -0.001417      0.000111
    16   Atom        0.007555     -0.004302     -0.003253
    17   Atom        0.000811     -0.000439     -0.000371
    18   Atom        0.000798     -0.000477     -0.000321
    19   Atom        0.000918     -0.000494     -0.000424
    20   Atom        0.000461     -0.000272     -0.000189
    21   Atom        0.000753     -0.000414     -0.000339
    22   Atom        0.002008     -0.001047     -0.000961
    23   Atom        0.001296     -0.000653     -0.000643
    24   Atom        0.003187     -0.001656     -0.001531
    25   Atom        0.000353      0.003730     -0.004083
    26   Atom        0.044629     -0.070875      0.026246
    27   Atom       -0.357091      0.529960     -0.172870
    28   Atom       -0.002502     -0.002207      0.004709
    29   Atom       -0.000299      0.005785     -0.005486
    30   Atom        0.003610     -0.001657     -0.001954
    31   Atom        0.005558     -0.004844     -0.000714
    32   Atom       -0.000586     -0.005647      0.006233
    33   Atom       -0.001281     -0.000014      0.001295
    34   Atom        0.005121     -0.000472     -0.004649
    35   Atom       -0.000001     -0.003288      0.003289
    36   Atom        0.003278     -0.002343     -0.000936
    37   Atom       -0.001521      0.000733      0.000788
 --------------------------------------------------------
                        XY            XZ            YZ
 --------------------------------------------------------
     1   Atom        0.050418     -0.006230     -0.012107
     2   Atom        0.018834     -0.000852      0.021139
     3   Atom        0.488174      0.249481      0.442837
     4   Atom       -0.011434     -0.003412     -0.035260
     5   Atom       -0.072700     -0.036563     -0.285144
     6   Atom        0.428741      0.240292      0.412639
     7   Atom        0.008752      0.015643      0.032596
     8   Atom        0.021761      0.043016      0.034046
     9   Atom       -0.040072     -0.043251     -0.054829
    10   Atom        0.205219      0.113954      0.399195
    11   Atom       -0.034439     -0.017550     -0.028371
    12   Atom       -0.001076     -0.000616     -0.001727
    13   Atom       -0.009282      0.004926     -0.005019
    14   Atom       -0.002240     -0.013410      0.002164
    15   Atom       -0.001148     -0.000444     -0.000978
    16   Atom       -0.000364      0.001936     -0.000595
    17   Atom       -0.000454     -0.000301     -0.000078
    18   Atom       -0.000109     -0.000194     -0.000085
    19   Atom        0.000180     -0.000112     -0.000091
    20   Atom       -0.000125     -0.000168     -0.000004
    21   Atom       -0.000051     -0.000065     -0.000059
    22   Atom        0.000872     -0.000193     -0.000599
    23   Atom        0.000668      0.000156     -0.000147
    24   Atom        0.000466     -0.000202     -0.000279
    25   Atom        0.005953     -0.000834     -0.003069
    26   Atom       -0.062208     -0.009297     -0.052636
    27   Atom        0.157941      0.084553      0.437051
    28   Atom        0.002592     -0.005030     -0.001889
    29   Atom       -0.000635     -0.002748     -0.001234
    30   Atom        0.005509      0.003303     -0.001110
    31   Atom       -0.006680     -0.006451      0.002091
    32   Atom       -0.003345      0.002141     -0.003253
    33   Atom       -0.000265     -0.003404     -0.006283
    34   Atom       -0.008291     -0.002729     -0.000536
    35   Atom       -0.002113      0.000995      0.004156
    36   Atom        0.005269      0.002486     -0.000621
    37   Atom       -0.002952      0.004740     -0.003242
 --------------------------------------------------------


 ---------------------------------------------------------------------------------
              Anisotropic Spin Dipole Couplings in Principal Axis System
 ---------------------------------------------------------------------------------

       Atom             a.u.   MegaHertz   Gauss  10(-4) cm-1        Axes

              Baa    -0.0416    -5.584    -1.993    -1.863  0.7494 -0.4502 -0.4856
     1 C(13)  Bbb    -0.0415    -5.566    -1.986    -1.857  0.4777 -0.1403  0.8673
              Bcc     0.0831    11.150     3.979     3.719  0.4585  0.8819 -0.1099
 
              Baa    -0.0352    -4.718    -1.684    -1.574  0.8770 -0.3086  0.3683
     2 C(13)  Bbb    -0.0190    -2.555    -0.912    -0.852 -0.4316 -0.1693  0.8860
              Bcc     0.0542     7.273     2.595     2.426  0.2111  0.9360  0.2816
 
              Baa    -0.4589   -17.699    -6.316    -5.904  0.8750 -0.4839 -0.0170
     3 N(14)  Bbb    -0.4518   -17.424    -6.217    -5.812 -0.1843 -0.3653  0.9125
              Bcc     0.9107    35.123    12.533    11.716  0.4478  0.7952  0.4088
 
              Baa    -0.0490    -6.576    -2.347    -2.194  0.1951  0.8628  0.4664
     4 C(13)  Bbb     0.0118     1.581     0.564     0.527  0.9760 -0.1242 -0.1786
              Bcc     0.0372     4.995     1.782     1.666  0.0962 -0.4900  0.8664
 
              Baa    -0.3328    24.084     8.594     8.033  0.2400  0.8217  0.5170
     5 O(17)  Bbb     0.0147    -1.062    -0.379    -0.354  0.9704 -0.1890 -0.1501
              Bcc     0.3182   -23.022    -8.215    -7.679  0.0256 -0.5377  0.8427
 
              Baa    -0.4120   -15.889    -5.669    -5.300  0.8578 -0.2392 -0.4549
     6 N(14)  Bbb    -0.4037   -15.569    -5.555    -5.193  0.2518 -0.5760  0.7777
              Bcc     0.8156    31.458    11.225    10.493  0.4481  0.7816  0.4339
 
              Baa    -0.0321    -4.302    -1.535    -1.435  0.8518  0.1714 -0.4951
     7 C(13)  Bbb    -0.0173    -2.320    -0.828    -0.774 -0.4747  0.6525 -0.5907
              Bcc     0.0494     6.622     2.363     2.209  0.2217  0.7382  0.6371
 
              Baa    -0.0375    -5.033    -1.796    -1.679  0.8464 -0.4213 -0.3257
     8 C(13)  Bbb    -0.0373    -5.001    -1.785    -1.668  0.1995  0.8179 -0.5397
              Bcc     0.0748    10.034     3.580     3.347  0.4938  0.3918  0.7763
 
              Baa    -0.1023   -13.729    -4.899    -4.580  0.3910  0.7638  0.5135
     9 C(13)  Bbb     0.0353     4.734     1.689     1.579 -0.5137  0.6441 -0.5668
              Bcc     0.0670     8.995     3.210     3.001  0.7637  0.0421 -0.6442
 
              Baa    -0.3308    23.933     8.540     7.983  0.7686 -0.4785  0.4246
    10 O(17)  Bbb    -0.3183    23.031     8.218     7.682 -0.5895 -0.2720  0.7606
              Bcc     0.6490   -46.965   -16.758   -15.666  0.2484  0.8349  0.4911
 
              Baa    -0.0621    -2.394    -0.854    -0.799  0.4613  0.7950  0.3938
    11 N(14)  Bbb     0.0296     1.142     0.408     0.381  0.1586 -0.5106  0.8451
              Bcc     0.0324     1.251     0.447     0.417  0.8729 -0.3274 -0.3617
 
              Baa    -0.0026    -0.348    -0.124    -0.116  0.5581  0.7364  0.3823
    12 C(13)  Bbb     0.0001     0.011     0.004     0.004  0.8295 -0.5069 -0.2346
              Bcc     0.0025     0.337     0.120     0.113 -0.0210 -0.4481  0.8938
 
              Baa    -0.0088    -4.440    -1.584    -1.481 -0.3050  0.1426  0.9416
    13 F(19)  Bbb    -0.0061    -3.048    -1.087    -1.017  0.7132  0.6894  0.1266
              Bcc     0.0149     7.488     2.672     2.498 -0.6311  0.7102 -0.3119
 
              Baa    -0.0093    -4.688    -1.673    -1.564  0.7232  0.3275  0.6081
    14 F(19)  Bbb    -0.0087    -4.370    -1.559    -1.458 -0.1692  0.9376 -0.3037
              Bcc     0.0180     9.058     3.232     3.021 -0.6696  0.1168  0.7335
 
              Baa    -0.0023    -0.310    -0.111    -0.103  0.3214  0.8561  0.4047
    15 C(13)  Bbb     0.0006     0.078     0.028     0.026 -0.0781 -0.4020  0.9123
              Bcc     0.0017     0.232     0.083     0.077  0.9437 -0.3249 -0.0623
 
              Baa    -0.0046    -2.306    -0.823    -0.769 -0.0470  0.8859  0.4614
    16 F(19)  Bbb    -0.0033    -1.666    -0.594    -0.556 -0.1705 -0.4623  0.8702
              Bcc     0.0079     3.972     1.417     1.325  0.9842 -0.0377  0.1727
 
              Baa    -0.0007     0.050     0.018     0.017  0.3413  0.7851  0.5168
    17 O(17)  Bbb    -0.0003     0.023     0.008     0.008  0.0013 -0.5502  0.8350
              Bcc     0.0010    -0.073    -0.026    -0.024  0.9399 -0.2843 -0.1888
 
              Baa    -0.0005    -0.072    -0.026    -0.024  0.1383  0.8756  0.4628
    18 C(13)  Bbb    -0.0003    -0.040    -0.014    -0.013  0.1070 -0.4777  0.8720
              Bcc     0.0008     0.112     0.040     0.037  0.9846 -0.0710 -0.1598
 
              Baa    -0.0006    -0.282    -0.101    -0.094 -0.0659  0.8574  0.5104
    19 F(19)  Bbb    -0.0004    -0.196    -0.070    -0.065  0.1419 -0.4982  0.8554
              Bcc     0.0010     0.478     0.171     0.159  0.9877  0.1288 -0.0889
 
              Baa    -0.0003    -0.153    -0.055    -0.051  0.2268  0.9044  0.3615
    20 F(19)  Bbb    -0.0002    -0.108    -0.039    -0.036  0.1505 -0.3993  0.9044
              Bcc     0.0005     0.261     0.093     0.087  0.9622 -0.1507 -0.2266
 
              Baa    -0.0005    -0.227    -0.081    -0.076  0.0637  0.8674  0.4935
    21 F(19)  Bbb    -0.0003    -0.154    -0.055    -0.052  0.0291 -0.4959  0.8679
              Bcc     0.0008     0.381     0.136     0.127  0.9975 -0.0409 -0.0568
 
              Baa    -0.0017    -0.226    -0.081    -0.075 -0.1525  0.7802  0.6066
    22 C(13)  Bbb    -0.0006    -0.080    -0.028    -0.027  0.2476 -0.5641  0.7877
              Bcc     0.0023     0.305     0.109     0.102  0.9568  0.2703 -0.1072
 
              Baa    -0.0010    -0.486    -0.173    -0.162 -0.2761  0.8189  0.5032
    23 F(19)  Bbb    -0.0005    -0.271    -0.097    -0.090  0.1066 -0.4942  0.8628
              Bcc     0.0015     0.757     0.270     0.253  0.9552  0.2918  0.0492
 
              Baa    -0.0019    -0.950    -0.339    -0.317 -0.0500  0.8032  0.5936
    24 F(19)  Bbb    -0.0014    -0.678    -0.242    -0.226  0.0961 -0.5877  0.8033
              Bcc     0.0032     1.628     0.581     0.543  0.9941  0.0972 -0.0478
 
              Baa    -0.0056    -2.836    -1.012    -0.946 -0.3884  0.4999  0.7741
    25 F(19)  Bbb    -0.0033    -1.636    -0.584    -0.546  0.7229 -0.3556  0.5924
              Bcc     0.0089     4.473     1.596     1.492  0.5714  0.7897 -0.2233
 
              Baa    -0.1170   -15.696    -5.601    -5.236  0.3546  0.8699  0.3427
    26 C(13)  Bbb     0.0407     5.458     1.948     1.821 -0.4547 -0.1599  0.8762
              Bcc     0.0763    10.238     3.653     3.415  0.8170 -0.4665  0.3389
 
              Baa    -0.3920    28.365    10.121     9.461  0.7664  0.1632 -0.6213
    27 O(17)  Bbb    -0.3758    27.195     9.704     9.071  0.6228 -0.4254  0.6566
              Bcc     0.7678   -55.560   -19.825   -18.533  0.1571  0.8902  0.4277
 
              Baa    -0.0058    -3.089    -1.102    -1.030  0.8394 -0.4367  0.3236
    28 H(1)   Bbb    -0.0023    -1.233    -0.440    -0.411  0.2799  0.8576  0.4314
              Bcc     0.0081     4.322     1.542     1.442 -0.4659 -0.2715  0.8421
 
              Baa    -0.0068    -3.640    -1.299    -1.214  0.3948  0.1092  0.9123
    29 H(1)   Bbb     0.0009     0.472     0.168     0.157  0.9168  0.0182 -0.3990
              Bcc     0.0059     3.169     1.131     1.057 -0.0602  0.9939 -0.0929
 
              Baa    -0.0068    -3.609    -1.288    -1.204 -0.5241  0.6775  0.5161
    30 H(1)   Bbb    -0.0009    -0.458    -0.163    -0.153  0.0843 -0.5618  0.8230
              Bcc     0.0076     4.067     1.451     1.357  0.8475  0.4748  0.2373
 
              Baa    -0.0083    -4.425    -1.579    -1.476  0.4966  0.8472  0.1890
    31 H(1)   Bbb    -0.0040    -2.137    -0.763    -0.713  0.3194 -0.3808  0.8678
              Bcc     0.0123     6.562     2.342     2.189  0.8071 -0.3706 -0.4597
 
              Baa    -0.0076    -4.064    -1.450    -1.356  0.3859  0.9096  0.1540
    32 H(1)   Bbb    -0.0005    -0.255    -0.091    -0.085  0.8600 -0.2942 -0.4169
              Bcc     0.0081     4.319     1.541     1.441  0.3339 -0.2933  0.8958
 
              Baa    -0.0069    -3.660    -1.306    -1.221  0.4301  0.6194  0.6567
    33 H(1)   Bbb    -0.0008    -0.402    -0.143    -0.134  0.8620 -0.4979 -0.0949
              Bcc     0.0076     4.062     1.450     1.355 -0.2682 -0.6069  0.7481
 
              Baa    -0.0078    -4.167    -1.487    -1.390  0.5270  0.6366  0.5630
    34 H(1)   Bbb    -0.0035    -1.865    -0.666    -0.622 -0.2432 -0.5218  0.8177
              Bcc     0.0113     6.032     2.152     2.012  0.8143 -0.5678 -0.1202
 
              Baa    -0.0062    -3.299    -1.177    -1.100  0.3535  0.8424 -0.4068
    35 H(1)   Bbb     0.0009     0.470     0.168     0.157  0.9354 -0.3159  0.1587
              Bcc     0.0053     2.828     1.009     0.943 -0.0052  0.4366  0.8996
 
              Baa    -0.0062    -3.289    -1.174    -1.097 -0.5249  0.7793  0.3422
    36 H(1)   Bbb    -0.0007    -0.379    -0.135    -0.126 -0.0208 -0.4137  0.9102
              Bcc     0.0069     3.668     1.309     1.223  0.8509  0.4707  0.2334
 
              Baa    -0.0053    -2.812    -1.003    -0.938  0.8051  0.0783 -0.5880
    37 H(1)   Bbb    -0.0021    -1.131    -0.403    -0.377  0.2723  0.8318  0.4837
              Bcc     0.0074     3.942     1.407     1.315  0.5270 -0.5495  0.6483
 

 ---------------------------------------------------------------------------------

 No NMR shielding tensors so no spin-rotation constants.
 Leave Link  601 at Sun Mar  3 18:12:21 2024, MaxMem=  5368709120 cpu:         5.3
 (Enter /home/k0335/k033513/app/g09/l9999.exe)
 1\1\GINC-C18U05N1\SP\UCAM-B3LYP\6-31G(d,p)\C11H10F9N3O4(1+,2)\K033513\
 03-Mar-2024\0\\#p CAM-B3LYP/6-31G(d,p) SCRF=(PCM,Solvent=Generic,Read)
  NoSymm out=wfn\\Title A230421842_p1\\1,2\C,0,-2.88467,-1.916161,2.480
 584\C,0,-2.173372,-0.572818,2.562225\N,0,-1.556433,-0.211691,1.286449\
 C,0,-2.303191,0.518344,0.385415\O,0,-3.488567,0.788498,0.582754\N,0,-1
 .635172,0.929244,-0.749659\C,0,-2.343959,1.796041,-1.690514\C,0,-3.108
 481,0.991002,-2.732234\C,0,-0.375868,0.481679,-1.090422\O,0,0.1916,0.8
 78633,-2.106931\N,0,0.207979,-0.419508,-0.23638\C,0,1.525523,-0.92207,
 -0.588481\F,0,1.462678,-1.32895,-1.901543\F,0,1.778242,-2.098397,0.062
 61\C,0,2.760129,0.009389,-0.436554\F,0,2.558596,1.161318,-1.140557\O,0
 ,3.871943,-0.652208,-1.067754\C,0,5.094593,0.008731,-0.887264\F,0,4.96
 1834,1.338256,-1.009492\F,0,5.961783,-0.429693,-1.818693\F,0,5.581767,
 -0.296786,0.327234\C,0,2.929409,0.35289,1.044398\F,0,3.954044,1.216897
 ,1.244326\F,0,3.181991,-0.732591,1.801369\F,0,1.832551,0.973403,1.5401
 81\C,0,-0.285103,-0.670988,1.017443\O,0,0.380245,-1.256027,1.871227\H,
 0,-3.339655,-2.164343,3.444346\H,0,-2.186366,-2.716715,2.215488\H,0,-3
 .674966,-1.898625,1.72306\H,0,-2.889489,0.202259,2.858119\H,0,-1.40656
 9,-0.613543,3.343991\H,0,-1.627794,2.455886,-2.193146\H,0,-3.041343,2.
 440161,-1.142805\H,0,-2.432387,0.358288,-3.316434\H,0,-3.850786,0.3389
 54,-2.260561\H,0,-3.630735,1.661242,-3.421794\\Version=ES64L-G09RevD.0
 1\HF=-1788.0863005\S2=0.780994\S2-1=0.\S2A=0.750708\RMSD=2.599e-09\Dip
 ole=-5.6843758,0.5749507,0.7510671\Quadrupole=3.0620005,-4.99117,1.929
 1695,0.16083,-0.492899,-6.2911368\PG=C01 [X(C11H10F9N3O4)]\\@

 Writing a WFN file to "A230421842/A230421842_p1.wfn"


 If fifty million people say a stupid thing,
 it is still a stupid thing.
                   -- Anatole France
 Job cpu time:       0 days  0 hours 54 minutes 32.4 seconds.
 File lengths (MBytes):  RWF=    333 Int=      0 D2E=      0 Chk=     12 Scr=      1
 Normal termination of Gaussian 09 at Sun Mar  3 18:12:22 2024.
