 Entering Gaussian System, Link 0=g09
 Initial command:
 /home/k0335/k033513/app/g09/l1.exe "/home/k0335/k033513/app/g09/scratch/Gau-378194.inp" -scrdir="/home/k0335/k033513/app/g09/scratch/"
 Default is to use a total of  36 processors:
                               36 via shared-memory
                                1 via Linda
 Entering Link 1 = /home/k0335/k033513/app/g09/l1.exe PID=    378195.
  
 Copyright (c) 1988,1990,1992,1993,1995,1998,2003,2009,2013,
            Gaussian, Inc.  All Rights Reserved.
  
 This is part of the Gaussian(R) 09 program.  It is based on
 the Gaussian(R) 03 system (copyright 2003, Gaussian, Inc.),
 the Gaussian(R) 98 system (copyright 1998, Gaussian, Inc.),
 the Gaussian(R) 94 system (copyright 1995, Gaussian, Inc.),
 the Gaussian 92(TM) system (copyright 1992, Gaussian, Inc.),
 the Gaussian 90(TM) system (copyright 1990, Gaussian, Inc.),
 the Gaussian 88(TM) system (copyright 1988, Gaussian, Inc.),
 the Gaussian 86(TM) system (copyright 1986, Carnegie Mellon
 University), and the Gaussian 82(TM) system (copyright 1983,
 Carnegie Mellon University). Gaussian is a federally registered
 trademark of Gaussian, Inc.
  
 This software contains proprietary and confidential information,
 including trade secrets, belonging to Gaussian, Inc.
  
 This software is provided under written license and may be
 used, copied, transmitted, or stored only in accord with that
 written license.
  
 The following legend is applicable only to US Government
 contracts under FAR:
  
                    RESTRICTED RIGHTS LEGEND
  
 Use, reproduction and disclosure by the US Government is
 subject to restrictions as set forth in subparagraphs (a)
 and (c) of the Commercial Computer Software - Restricted
 Rights clause in FAR 52.227-19.
  
 Gaussian, Inc.
 340 Quinnipiac St., Bldg. 40, Wallingford CT 06492
  
  
 ---------------------------------------------------------------
 Warning -- This program may not be used in any manner that
 competes with the business of Gaussian, Inc. or will provide
 assistance to any competitor of Gaussian, Inc.  The licensee
 of this program is prohibited from giving any competitor of
 Gaussian, Inc. access to this program.  By using this program,
 the user acknowledges that Gaussian, Inc. is engaged in the
 business of creating and licensing software in the field of
 computational chemistry and represents and warrants to the
 licensee that it is not a competitor of Gaussian, Inc. and that
 it will not use this program in any manner prohibited above.
 ---------------------------------------------------------------
  

 Cite this work as:
 Gaussian 09, Revision D.01,
 M. J. Frisch, G. W. Trucks, H. B. Schlegel, G. E. Scuseria, 
 M. A. Robb, J. R. Cheeseman, G. Scalmani, V. Barone, B. Mennucci, 
 G. A. Petersson, H. Nakatsuji, M. Caricato, X. Li, H. P. Hratchian, 
 A. F. Izmaylov, J. Bloino, G. Zheng, J. L. Sonnenberg, M. Hada, 
 M. Ehara, K. Toyota, R. Fukuda, J. Hasegawa, M. Ishida, T. Nakajima, 
 Y. Honda, O. Kitao, H. Nakai, T. Vreven, J. A. Montgomery, Jr., 
 J. E. Peralta, F. Ogliaro, M. Bearpark, J. J. Heyd, E. Brothers, 
 K. N. Kudin, V. N. Staroverov, T. Keith, R. Kobayashi, J. Normand, 
 K. Raghavachari, A. Rendell, J. C. Burant, S. S. Iyengar, J. Tomasi, 
 M. Cossi, N. Rega, J. M. Millam, M. Klene, J. E. Knox, J. B. Cross, 
 V. Bakken, C. Adamo, J. Jaramillo, R. Gomperts, R. E. Stratmann, 
 O. Yazyev, A. J. Austin, R. Cammi, C. Pomelli, J. W. Ochterski, 
 R. L. Martin, K. Morokuma, V. G. Zakrzewski, G. A. Voth, 
 P. Salvador, J. J. Dannenberg, S. Dapprich, A. D. Daniels, 
 O. Farkas, J. B. Foresman, J. V. Ortiz, J. Cioslowski, 
 and D. J. Fox, Gaussian, Inc., Wallingford CT, 2013.
 
 ******************************************
 Gaussian 09:  ES64L-G09RevD.01 24-Apr-2013
                 3-Mar-2024 
 ******************************************
 %nprocshared=24
 Will use up to   24 processors via shared memory.
 %mem=40GB
 %rwf=A230421842/A230421842_0.rwf
 %nosave
 %chk=A230421842/A230421842_0.chk
 ----------------------------------------------------------------------
 #p CAM-B3LYP/6-31G(d,p) SCRF=(PCM,Solvent=Generic,Read) NoSymm out=wfn
 ----------------------------------------------------------------------
 1/38=1,40=2/1;
 2/12=2,15=1,17=6,18=5,40=1/2;
 3/5=1,6=6,7=101,11=2,16=1,25=1,30=1,70=2203,72=-2,74=-40/1,2,3;
 4//1;
 5/5=2,38=5/2;
 6/7=2,8=2,9=2,10=2,28=1/1;
 99/5=1,6=100,9=1/99;
 Leave Link    1 at Sun Mar  3 18:09:59 2024, MaxMem=  5368709120 cpu:         1.1
 (Enter /home/k0335/k033513/app/g09/l101.exe)
 ------------------
 Title A230421842_0
 ------------------
 Symbolic Z-matrix:
 Charge =  0 Multiplicity = 1
 C                    -2.88467  -1.91616   2.48058 
 C                    -2.17337  -0.57282   2.56223 
 N                    -1.55643  -0.21169   1.28645 
 C                    -2.30319   0.51834   0.38542 
 O                    -3.48857   0.7885    0.58275 
 N                    -1.63517   0.92924  -0.74966 
 C                    -2.34396   1.79604  -1.69051 
 C                    -3.10848   0.991    -2.73223 
 C                    -0.37587   0.48168  -1.09042 
 O                     0.1916    0.87863  -2.10693 
 N                     0.20798  -0.41951  -0.23638 
 C                     1.52552  -0.92207  -0.58848 
 F                     1.46268  -1.32895  -1.90154 
 F                     1.77824  -2.0984    0.06261 
 C                     2.76013   0.00939  -0.43655 
 F                     2.5586    1.16132  -1.14056 
 O                     3.87194  -0.65221  -1.06775 
 C                     5.09459   0.00873  -0.88726 
 F                     4.96183   1.33826  -1.00949 
 F                     5.96178  -0.42969  -1.81869 
 F                     5.58177  -0.29679   0.32723 
 C                     2.92941   0.35289   1.0444 
 F                     3.95404   1.2169    1.24433 
 F                     3.18199  -0.73259   1.80137 
 F                     1.83255   0.9734    1.54018 
 C                    -0.2851   -0.67099   1.01744 
 O                     0.38025  -1.25603   1.87123 
 H                    -3.33966  -2.16434   3.44435 
 H                    -2.18637  -2.71672   2.21549 
 H                    -3.67497  -1.89863   1.72306 
 H                    -2.88949   0.20226   2.85812 
 H                    -1.40657  -0.61354   3.34399 
 H                    -1.62779   2.45589  -2.19315 
 H                    -3.04134   2.44016  -1.14281 
 H                    -2.43239   0.35829  -3.31643 
 H                    -3.85079   0.33895  -2.26056 
 H                    -3.63074   1.66124  -3.42179 
 
 NAtoms=     37 NQM=       37 NQMF=       0 NMMI=      0 NMMIF=      0
                NMic=       0 NMicF=      0.
                    Isotopes and Nuclear Properties:
 (Nuclear quadrupole moments (NQMom) in fm**2, nuclear magnetic moments (NMagM)
  in nuclear magnetons)

  Atom         1           2           3           4           5           6           7           8           9          10
 IAtWgt=          12          12          14          12          16          14          12          12          12          16
 AtmWgt=  12.0000000  12.0000000  14.0030740  12.0000000  15.9949146  14.0030740  12.0000000  12.0000000  12.0000000  15.9949146
 NucSpn=           0           0           2           0           0           2           0           0           0           0
 AtZEff=   0.0000000   0.0000000   0.0000000   0.0000000   0.0000000   0.0000000   0.0000000   0.0000000   0.0000000   0.0000000
 NQMom=    0.0000000   0.0000000   2.0440000   0.0000000   0.0000000   2.0440000   0.0000000   0.0000000   0.0000000   0.0000000
 NMagM=    0.0000000   0.0000000   0.4037610   0.0000000   0.0000000   0.4037610   0.0000000   0.0000000   0.0000000   0.0000000
 AtZNuc=   6.0000000   6.0000000   7.0000000   6.0000000   8.0000000   7.0000000   6.0000000   6.0000000   6.0000000   8.0000000

  Atom        11          12          13          14          15          16          17          18          19          20
 IAtWgt=          14          12          19          19          12          19          16          12          19          19
 AtmWgt=  14.0030740  12.0000000  18.9984033  18.9984033  12.0000000  18.9984033  15.9949146  12.0000000  18.9984033  18.9984033
 NucSpn=           2           0           1           1           0           1           0           0           1           1
 AtZEff=   0.0000000   0.0000000   0.0000000   0.0000000   0.0000000   0.0000000   0.0000000   0.0000000   0.0000000   0.0000000
 NQMom=    2.0440000   0.0000000   0.0000000   0.0000000   0.0000000   0.0000000   0.0000000   0.0000000   0.0000000   0.0000000
 NMagM=    0.4037610   0.0000000   2.6288670   2.6288670   0.0000000   2.6288670   0.0000000   0.0000000   2.6288670   2.6288670
 AtZNuc=   7.0000000   6.0000000   9.0000000   9.0000000   6.0000000   9.0000000   8.0000000   6.0000000   9.0000000   9.0000000

  Atom        21          22          23          24          25          26          27          28          29          30
 IAtWgt=          19          12          19          19          19          12          16           1           1           1
 AtmWgt=  18.9984033  12.0000000  18.9984033  18.9984033  18.9984033  12.0000000  15.9949146   1.0078250   1.0078250   1.0078250
 NucSpn=           1           0           1           1           1           0           0           1           1           1
 AtZEff=   0.0000000   0.0000000   0.0000000   0.0000000   0.0000000   0.0000000   0.0000000   0.0000000   0.0000000   0.0000000
 NQMom=    0.0000000   0.0000000   0.0000000   0.0000000   0.0000000   0.0000000   0.0000000   0.0000000   0.0000000   0.0000000
 NMagM=    2.6288670   0.0000000   2.6288670   2.6288670   2.6288670   0.0000000   0.0000000   2.7928460   2.7928460   2.7928460
 AtZNuc=   9.0000000   6.0000000   9.0000000   9.0000000   9.0000000   6.0000000   8.0000000   1.0000000   1.0000000   1.0000000

  Atom        31          32          33          34          35          36          37
 IAtWgt=           1           1           1           1           1           1           1
 AtmWgt=   1.0078250   1.0078250   1.0078250   1.0078250   1.0078250   1.0078250   1.0078250
 NucSpn=           1           1           1           1           1           1           1
 AtZEff=   0.0000000   0.0000000   0.0000000   0.0000000   0.0000000   0.0000000   0.0000000
 NQMom=    0.0000000   0.0000000   0.0000000   0.0000000   0.0000000   0.0000000   0.0000000
 NMagM=    2.7928460   2.7928460   2.7928460   2.7928460   2.7928460   2.7928460   2.7928460
 AtZNuc=   1.0000000   1.0000000   1.0000000   1.0000000   1.0000000   1.0000000   1.0000000
 Leave Link  101 at Sun Mar  3 18:09:59 2024, MaxMem=  5368709120 cpu:         1.0
 (Enter /home/k0335/k033513/app/g09/l202.exe)
                          Input orientation:                          
 ---------------------------------------------------------------------
 Center     Atomic      Atomic             Coordinates (Angstroms)
 Number     Number       Type             X           Y           Z
 ---------------------------------------------------------------------
      1          6           0       -2.884670   -1.916161    2.480584
      2          6           0       -2.173372   -0.572818    2.562225
      3          7           0       -1.556433   -0.211691    1.286449
      4          6           0       -2.303191    0.518344    0.385415
      5          8           0       -3.488567    0.788498    0.582754
      6          7           0       -1.635172    0.929244   -0.749659
      7          6           0       -2.343959    1.796041   -1.690514
      8          6           0       -3.108481    0.991002   -2.732234
      9          6           0       -0.375868    0.481679   -1.090422
     10          8           0        0.191600    0.878633   -2.106931
     11          7           0        0.207979   -0.419508   -0.236380
     12          6           0        1.525523   -0.922070   -0.588481
     13          9           0        1.462678   -1.328950   -1.901543
     14          9           0        1.778242   -2.098397    0.062610
     15          6           0        2.760129    0.009389   -0.436554
     16          9           0        2.558596    1.161318   -1.140557
     17          8           0        3.871943   -0.652208   -1.067754
     18          6           0        5.094593    0.008731   -0.887264
     19          9           0        4.961834    1.338256   -1.009492
     20          9           0        5.961783   -0.429693   -1.818693
     21          9           0        5.581767   -0.296786    0.327234
     22          6           0        2.929409    0.352890    1.044398
     23          9           0        3.954044    1.216897    1.244326
     24          9           0        3.181991   -0.732591    1.801369
     25          9           0        1.832551    0.973403    1.540181
     26          6           0       -0.285103   -0.670988    1.017443
     27          8           0        0.380245   -1.256027    1.871227
     28          1           0       -3.339655   -2.164343    3.444346
     29          1           0       -2.186366   -2.716715    2.215488
     30          1           0       -3.674966   -1.898625    1.723060
     31          1           0       -2.889489    0.202259    2.858119
     32          1           0       -1.406569   -0.613543    3.343991
     33          1           0       -1.627794    2.455886   -2.193146
     34          1           0       -3.041343    2.440161   -1.142805
     35          1           0       -2.432387    0.358288   -3.316434
     36          1           0       -3.850786    0.338954   -2.260561
     37          1           0       -3.630735    1.661242   -3.421794
 ---------------------------------------------------------------------
                    Distance matrix (angstroms):
                    1          2          3          4          5
     1  C    0.000000
     2  C    1.522229   0.000000
     3  N    2.468884   1.462406   0.000000
     4  C    3.264149   2.438440   1.379297   0.000000
     5  O    3.358814   2.738836   2.286636   1.231683   0.000000
     6  N    4.482415   3.676197   2.335309   1.379667   2.286965
     7  C    5.609890   4.870973   3.676070   2.437961   2.737338
     8  C    5.972869   5.599219   4.472710   3.254479   3.342846
     9  C    4.979539   4.205332   2.742993   2.427759   3.547189
    10  O    6.190283   5.431466   3.969818   3.544796   4.559184
    11  N    4.380222   3.677843   2.339946   2.751758   3.974256
    12  C    5.464172   4.871422   3.676745   4.205035   5.425766
    13  F    6.200588   5.806705   4.530628   4.777493   5.930442
    14  F    5.255717   4.918406   4.022126   4.858974   6.028598
    15  C    6.639367   5.802678   4.652991   5.154792   6.379044
    16  F    7.225834   6.253746   4.970812   5.136047   6.298966
    17  O    7.735638   7.051871   5.933262   6.450905   7.679643
    18  C    8.872218   8.066008   7.000697   7.523737   8.742976
    19  F    9.183653   8.204909   7.082477   7.443024   8.616656
    20  F    9.947517   9.240870   8.137137   8.606199   9.826497
    21  F    8.884810   8.075491   7.202863   7.927193   9.138604
    22  C    6.404275   5.403620   4.527706   5.276527   6.449286
    23  F    7.623149   6.518064   5.692802   6.354423   7.484228
    24  F    6.218243   5.411501   4.794699   5.801464   6.949466
    25  F    5.611249   4.413932   3.599172   4.317977   5.409728
    26  C    3.232489   2.441628   1.378259   2.426242   3.547004
    27  O    3.386261   2.732254   2.276692   3.543566   4.561573
    28  H    1.094277   2.161320   3.413100   4.198586   4.114627
    29  H    1.094893   2.171794   2.745009   3.718659   4.080204
    30  H    1.094860   2.171807   2.743093   3.084283   2.925008
    31  H    2.151804   1.095957   2.102032   2.560844   2.424842
    32  H    2.151062   1.095812   2.101767   3.292153   3.731603
    33  H    6.522138   5.664297   4.385047   3.295331   3.734740
    34  H    5.668424   4.853727   3.890829   2.563924   2.430135
    35  H    6.243644   5.957573   4.720032   3.707559   4.062544
    36  H    5.338294   5.186937   4.260111   3.070573   2.901333
    37  H    6.942081   6.551596   5.475231   4.190875   4.101012
                    6          7          8          9         10
     6  N    0.000000
     7  C    1.462506   0.000000
     8  C    2.470841   1.522420   0.000000
     9  C    1.379232   2.441524   3.228332   0.000000
    10  O    2.276367   2.728388   3.360679   1.229993   0.000000
    11  N    2.340896   3.679069   4.383803   1.372007   2.276928
    12  C    3.666515   4.855460   5.452478   2.416142   2.706949
    13  F    4.002868   4.929563   5.193045   2.704911   2.555630
    14  F    4.634413   5.935708   6.421495   3.553374   4.010866
    15  C    4.501426   5.551239   6.377640   3.238067   3.184821
    16  F    4.218335   4.973969   5.888820   3.012557   2.572248
    17  O    5.738509   6.709634   7.361858   4.396602   4.119258
    18  C    6.793822   7.692317   8.465175   5.494624   5.126759
    19  F    6.614778   7.351732   8.259444   5.406601   4.916377
    20  F    7.791230   8.599748   9.226192   6.444129   5.923665
    21  F    7.399125   8.442059   9.302642   6.173263   6.029981
    22  C    4.938241   6.113169   7.150262   3.936864   4.207479
    23  F    5.941217   6.972341   8.108225   4.973905   5.049884
    24  F    5.698640   7.008805   7.943196   4.742918   5.178155
    25  F    4.155769   5.343909   6.532047   3.469723   4.000391
    26  C    2.739722   4.202160   4.979332   2.404158   3.519984
    27  O    3.963125   5.424242   6.197758   3.516062   4.518639
    28  H    5.483176   6.560704   6.939725   6.029062   7.248872
    29  H    4.731694   5.970482   6.251193   4.943346   6.104470
    30  H    4.274569   5.203328   5.340458   4.946269   6.110018
    31  H    3.888172   4.850547   5.649966   4.689066   5.882373
    32  H    4.380687   5.659597   6.510882   4.682507   5.873098
    33  H    2.101034   1.095868   2.151496   2.584727   2.409430
    34  H    2.101131   1.096002   2.151942   3.308044   3.717503
    35  H    2.747704   2.172227   1.094861   3.033088   2.935807
    36  H    2.745945   2.172230   1.094833   3.669421   4.081144
    37  H    3.414440   2.161318   1.094287   4.173826   4.117230
                   11         12         13         14         15
    11  N    0.000000
    12  C    1.453432   0.000000
    13  F    2.274670   1.376093   0.000000
    14  F    2.318143   1.368039   2.132962   0.000000
    15  C    2.595668   1.554011   2.370806   2.378241   0.000000
    16  F    2.973541   2.390091   2.825167   3.561222   1.364982
    17  O    3.764301   2.410024   2.637753   2.784380   1.439533
    18  C    4.948337   3.700530   4.001120   4.042330   2.377575
    19  F    5.127043   4.134556   4.489302   4.805751   2.634701
    20  F    5.967418   4.629931   4.588842   4.881177   3.514782
    21  F    5.404657   4.205072   4.795801   4.216946   2.939176
    22  C    3.105346   2.502541   3.695735   2.880608   1.529663
    23  F    4.347794   3.719150   4.752340   4.137843   2.389323
    24  F    3.618728   2.913961   4.125923   2.619011   2.395162
    25  F    2.781295   2.866755   4.157295   3.409123   2.386882
    26  C    1.370563   2.433187   3.465275   2.684510   3.442449
    27  O    2.274082   2.733743   3.925656   2.436202   3.548377
    28  H    5.401657   6.440256   7.234557   6.134603   7.549428
    29  H    4.125737   4.986092   5.673743   4.553605   6.239614
    30  H    4.593958   5.774250   6.313293   5.703900   7.050879
    31  H    4.422310   5.712749   6.628751   5.907250   6.542954
    32  H    3.932362   4.914945   6.021629   4.807835   5.660560
    33  H    3.932796   4.891722   4.895001   6.118089   5.322108
    34  H    4.422376   5.698082   5.921831   6.729037   6.329654
    35  H    4.130766   4.974545   4.474396   5.931495   5.947912
    36  H    4.598494   5.769812   5.580654   6.559250   6.865844
    37  H    5.404823   6.425586   6.098792   7.452046   7.244544
                   16         17         18         19         20
    16  F    0.000000
    17  O    2.240325   0.000000
    18  C    2.797123   1.401531   0.000000
    19  F    2.413304   2.270067   1.341716   0.000000
    20  F    3.817442   2.231783   1.346029   2.186401   0.000000
    21  F    3.663337   2.235132   1.343758   2.201026   2.183364
    22  C    2.359044   2.521860   2.921949   3.052894   4.243232
    23  F    2.763699   2.974224   2.702627   2.471854   4.015515
    24  F    3.553933   2.952010   3.381768   3.918825   4.574258
    25  F    2.783668   3.688232   4.178995   4.052945   5.504659
    26  C    4.012597   4.650745   5.747265   5.972928   6.864800
    27  O    4.433916   4.603712   5.606600   6.001650   6.741803
    28  H    8.177452   8.640182   9.727365  10.050850  10.827065
    29  H    6.986905   7.193398   8.370633   8.828366   9.375362
    30  H    7.511381   8.142360   9.346495   9.619696  10.371533
    31  H    6.825748   7.865085   8.821049   8.825654  10.030800
    32  H    6.243704   6.879511   7.781764   7.957317   8.998873
    33  H    4.506630   6.416686   7.272165   6.787734   8.128251
    34  H    5.744107   7.573764   8.495329   8.079778   9.473604
    35  H    5.503563   6.769213   7.916974   7.807485   8.563074
    36  H    6.558267   7.876911   9.056202   8.956900   9.852542
    37  H    6.615269   8.196568   9.235041   8.930608   9.947781
                   21         22         23         24         25
    21  F    0.000000
    22  C    2.823368   0.000000
    23  F    2.404532   1.355122   0.000000
    24  F    2.849899   1.347246   2.169531   0.000000
    25  F    4.140198   1.354228   2.155818   2.190804   0.000000
    26  C    5.919170   3.373743   4.646069   3.555148   2.731618
    27  O    5.509981   3.125779   4.390945   2.851078   2.681258
    28  H    9.633064   7.169196   8.334922   6.876129   6.342161
    29  H    8.352571   6.079891   7.356704   5.738249   5.497700
    30  H    9.497438   7.010540   8.254542   6.955834   6.214075
    31  H    8.855315   6.096872   7.104067   6.233260   4.962790
    32  H    7.618267   5.002282   6.041132   4.842390   4.032868
    33  H    8.118330   5.972636   6.671448   7.018302   5.301837
    34  H    9.165693   6.692566   7.492010   7.580528   5.753663
    35  H    8.827916   6.911276   7.894570   7.674840   6.492671
    36  H    9.801730   7.542811   8.600604   8.191913   6.866475
    37  H   10.137025   8.043267   8.916221   8.912076   7.412274
                   26         27         28         29         30
    26  C    0.000000
    27  O    1.230409   0.000000
    28  H    4.177350   4.139734   0.000000
    29  H    3.038933   2.973149   1.773494   0.000000
    30  H    3.673712   4.108482   1.773659   1.768527   0.000000
    31  H    3.306581   3.713720   2.479338   3.070467   2.513771
    32  H    2.583372   2.403024   2.480297   2.510963   3.069931
    33  H    4.678466   5.859151   7.487209   6.819374   6.203978
    34  H    4.684312   5.869707   6.506335   6.213090   5.238294
    35  H    4.944970   6.117903   7.272891   6.333903   5.659873
    36  H    4.947665   6.125133   6.250897   5.669429   4.572407
    37  H    6.028215   7.253585   7.865348   7.282284   6.256527
                   31         32         33         34         35
    31  H    0.000000
    32  H    1.760868   0.000000
    33  H    5.673270   6.334842   0.000000
    34  H    4.586792   5.668239   1.761132   0.000000
    35  H    6.193415   6.808672   2.511785   3.070779   0.000000
    36  H    5.209958   6.188089   3.070446   2.513891   1.768360
    37  H    6.489637   7.476457   2.480485   2.479494   1.773366
                   36         37
    36  H    0.000000
    37  H    1.773508   0.000000
 Symmetry turned off by external request.
 Stoichiometry    C11H10F9N3O4
 Framework group  C1[X(C11H10F9N3O4)]
 Deg. of freedom   105
 Full point group                 C1      NOp   1
 Rotational constants (GHZ):      0.3775578      0.1333229      0.1155115
 Leave Link  202 at Sun Mar  3 18:09:59 2024, MaxMem=  5368709120 cpu:         0.1
 (Enter /home/k0335/k033513/app/g09/l301.exe)
 Standard basis: 6-31G(d,p) (6D, 7F)
 Ernie: Thresh=  0.10000D-02 Tol=  0.10000D-05 Strict=F.
   455 basis functions,   826 primitive gaussians,   455 cartesian basis functions
   105 alpha electrons      105 beta electrons
       nuclear repulsion energy      3169.9169266648 Hartrees.
 IExCor=20419 DFT=T Ex+Corr=CAM-B3LYP ExCW=0 ScaHFX=  1.000000
 ScaDFX=  1.000000  1.000000  1.000000  0.810000 ScalE2=  1.000000  1.000000
 IRadAn=      0 IRanWt=     -1 IRanGd=            0 ICorTp=0 IEmpDi=  4
  HFx wShort=  0.000000 wLong=  0.330000 cFull=  0.190000 cShort=  0.000000 cLong=  0.460000
  DFx wShort=  0.000000 wLong=  0.330000 cFull=  0.190000 cShort=  0.000000 cLong=  0.460000
 NAtoms=   37 NActive=   37 NUniq=   37 SFac= 1.00D+00 NAtFMM=   60 NAOKFM=F Big=F
 Integral buffers will be    131072 words long.
 Raffenetti 2 integral format.
 Two-electron integral symmetry is turned off.
 Using the following non-standard input for PCM:
 eps=4.9
 --- end of non-standard input.
 ------------------------------------------------------------------------------
 Polarizable Continuum Model (PCM)
 =================================
 Model                : PCM (using non-symmetric T matrix).
 Atomic radii         : UFF (Universal Force Field).
 Polarization charges : Total charges.
 Charge compensation  : None.
 Solution method      : On-the-fly selection.
 Cavity type          : Scaled VdW (van der Waals Surface) (Alpha=1.100).
 Cavity algorithm     : GePol (No added spheres)
                        Default sphere list used, NSphG=   37.
                        Lebedev-Laikov grids with approx.  5.0 points / Ang**2.
                        Smoothing algorithm: Karplus/York (Gamma=1.0000).
                        Polarization charges: spherical gaussians, with
                                              point-specific exponents (IZeta= 3).
                        Self-potential: point-specific (ISelfS= 7).
                        Self-field    : sphere-specific E.n sum rule (ISelfD= 2).
 Solvent              : Generic,
                        Eps                           =   4.900000
                        Eps(infinity)                 =   0.000000
                        RSolv                         =   0.000000 Ang.
                        Molar volume                  =   0.000000 cm**3/mol
                        Thermal expansion coefficient =   0.000000 K**-1
                        Absolute temperature          = 298.150000 K
                        Numeral density               =   0.000000 Ang**-3
                        Hydrogen bond acidity         =   0.000000
                        Hydrogen bond basicity        =   0.000000
                        Surface tension at interface  =   0.000000 (cal/mol)*Ang**-2
                        Carbon aromaticity            =   0.000000
                        Electronegative halogenicity  =   0.000000
 ------------------------------------------------------------------------------
 GePol: Number of generator spheres                  =      37
 GePol: Total number of spheres                      =      37
 GePol: Number of exposed spheres                    =      37 (100.00%)
 GePol: Number of points                             =    2883
 GePol: Average weight of points                     =       0.13
 GePol: Minimum weight of points                     =   0.30D-11
 GePol: Maximum weight of points                     =    0.20577
 GePol: Number of points with low weight             =     157
 GePol: Fraction of low-weight points (<1% of avg)   =       5.45%
 GePol: Cavity surface area                          =    364.621 Ang**2
 GePol: Cavity volume                                =    411.160 Ang**3
 Leave Link  301 at Sun Mar  3 18:09:59 2024, MaxMem=  5368709120 cpu:         0.9
 (Enter /home/k0335/k033513/app/g09/l302.exe)
 NPDir=0 NMtPBC=     1 NCelOv=     1 NCel=       1 NClECP=     1 NCelD=      1
         NCelK=      1 NCelE2=     1 NClLst=     1 CellRange=     0.0.
 One-electron integrals computed using PRISM.
 NBasis=   455 RedAO= T EigKep=  1.30D-03  NBF=   455
 NBsUse=   455 1.00D-06 EigRej= -1.00D+00 NBFU=   455
 Precomputing XC quadrature grid using
 IXCGrd= 4 IRadAn=           0 IRanWt=          -1 IRanGd=           0 AccXCQ= 0.00D+00.
 Generated NRdTot=       0 NPtTot=           0 NUsed=           0 NTot=          32
 NSgBfM=   448   448   449   449   449 MxSgAt=    37 MxSgA2=    37.
 Leave Link  302 at Sun Mar  3 18:10:00 2024, MaxMem=  5368709120 cpu:         8.1
 (Enter /home/k0335/k033513/app/g09/l303.exe)
 DipDrv:  MaxL=1.
 Leave Link  303 at Sun Mar  3 18:10:00 2024, MaxMem=  5368709120 cpu:         0.7
 (Enter /home/k0335/k033513/app/g09/l401.exe)
 ExpMin= 1.61D-01 ExpMax= 7.00D+03 ExpMxC= 1.05D+03 IAcc=1 IRadAn=         1 AccDes= 0.00D+00
 Harris functional with IExCor=20419 and IRadAn=       1 diagonalized for initial guess.
 HarFok:  IExCor=20419 AccDes= 0.00D+00 IRadAn=         1 IDoV= 1 UseB2=F ITyADJ=14
 ICtDFT=  3500011 ScaDFX=  1.000000  1.000000  1.000000  1.000000
 FoFCou: FMM=F IPFlag=           0 FMFlag=      100000 FMFlg1=           0
         NFxFlg=           0 DoJE=T BraDBF=F KetDBF=T FulRan=T
         wScrn=  0.000000 ICntrl=     500 IOpCl=  0 I1Cent=   200000004 NGrid=           0
         NMat0=    1 NMatS0=      1 NMatT0=    0 NMatD0=    1 NMtDS0=    0 NMtDT0=    0
 Symmetry not used in FoFCou.
 Harris En= -1732.13167093677    
 JPrj=0 DoOrth=F DoCkMO=F.
 Leave Link  401 at Sun Mar  3 18:10:00 2024, MaxMem=  5368709120 cpu:         9.0
 (Enter /home/k0335/k033513/app/g09/l502.exe)
 Closed shell SCF:
 Using DIIS extrapolation, IDIIS=  1040.
 Two-electron integral symmetry not used.
 IVT=      653349 IEndB=      653349 NGot=  5368709120 MDV=  5368279892
 LenX=  5368279892 LenY=  5368072412
 Requested convergence on RMS density matrix=1.00D-08 within 128 cycles.
 Requested convergence on MAX density matrix=1.00D-06.
 Requested convergence on             energy=1.00D-06.
 No special actions if energy rises.
 Fock matrices will be formed incrementally for  20 cycles.

 Cycle   1  Pass 1  IDiag  1:
 FoFJK:  IHMeth= 1 ICntrl=       0 DoSepK=T KAlg= 0 I1Cent=   0 FoldK=F
 IRaf=         1 NMat=   1 IRICut=       1 DoRegI=T DoRafI=F ISym2E= 0.
 FoFCou: FMM=F IPFlag=           0 FMFlag=      100000 FMFlg1=           0
         NFxFlg=           0 DoJE=T BraDBF=F KetDBF=F FulRan=T
         wScrn=  0.000000 ICntrl=     500 IOpCl=  0 I1Cent=           0 NGrid=           0
         NMat0=    1 NMatS0=      1 NMatT0=    0 NMatD0=    1 NMtDS0=    0 NMtDT0=    0
 Symmetry not used in FoFCou.
 Inv3:  Mode=1 IEnd=    24935067.
 Iteration    1 A*A^-1 deviation from unit magnitude is 7.11D-15 for   2881.
 Iteration    1 A*A^-1 deviation from orthogonality  is 2.89D-15 for   2170    592.
 Iteration    1 A^-1*A deviation from unit magnitude is 7.11D-15 for   2881.
 Iteration    1 A^-1*A deviation from orthogonality  is 3.29D-11 for   2657   2626.
 E= -1787.80540970046    
 DIIS: error= 4.59D-02 at cycle   1 NSaved=   1.
 NSaved= 1 IEnMin= 1 EnMin= -1787.80540970046     IErMin= 1 ErrMin= 4.59D-02
 ErrMax= 4.59D-02  0.00D+00 EMaxC= 1.00D-01 BMatC= 1.48D+00 BMatP= 1.48D+00
 IDIUse=3 WtCom= 5.41D-01 WtEn= 4.59D-01
 Coeff-Com:  0.100D+01
 Coeff-En:   0.100D+01
 Coeff:      0.100D+01
 Gap=     0.459 Goal=   None    Shift=    0.000
 GapD=    0.459 DampG=2.000 DampE=0.500 DampFc=1.0000 IDamp=-1.
 RMSDP=3.42D-03 MaxDP=1.34D-01              OVMax= 1.92D-01

 Cycle   2  Pass 1  IDiag  1:
 RMSU=  3.42D-03    CP:  1.01D+00
 E= -1787.96948559910     Delta-E=       -0.164075898636 Rises=F Damp=F
 DIIS: error= 1.90D-02 at cycle   2 NSaved=   2.
 NSaved= 2 IEnMin= 2 EnMin= -1787.96948559910     IErMin= 2 ErrMin= 1.90D-02
 ErrMax= 1.90D-02  0.00D+00 EMaxC= 1.00D-01 BMatC= 6.30D-01 BMatP= 1.48D+00
 IDIUse=3 WtCom= 8.10D-01 WtEn= 1.90D-01
 Coeff-Com:  0.372D+00 0.628D+00
 Coeff-En:   0.402D+00 0.598D+00
 Coeff:      0.378D+00 0.622D+00
 Gap=     0.409 Goal=   None    Shift=    0.000
 RMSDP=1.95D-03 MaxDP=1.22D-01 DE=-1.64D-01 OVMax= 1.32D-01

 Cycle   3  Pass 1  IDiag  1:
 RMSU=  1.20D-03    CP:  1.00D+00  5.53D-01
 E= -1788.27564870851     Delta-E=       -0.306163109409 Rises=F Damp=F
 DIIS: error= 1.35D-02 at cycle   3 NSaved=   3.
 NSaved= 3 IEnMin= 3 EnMin= -1788.27564870851     IErMin= 3 ErrMin= 1.35D-02
 ErrMax= 1.35D-02  0.00D+00 EMaxC= 1.00D-01 BMatC= 1.77D-01 BMatP= 6.30D-01
 IDIUse=3 WtCom= 8.65D-01 WtEn= 1.35D-01
 Coeff-Com:  0.110D+00 0.355D+00 0.535D+00
 Coeff-En:   0.000D+00 0.223D+00 0.777D+00
 Coeff:      0.950D-01 0.337D+00 0.568D+00
 Gap=     0.380 Goal=   None    Shift=    0.000
 RMSDP=9.04D-04 MaxDP=5.94D-02 DE=-3.06D-01 OVMax= 9.03D-02

 Cycle   4  Pass 1  IDiag  1:
 RMSU=  3.86D-04    CP:  1.00D+00  6.78D-01  4.21D-01
 E= -1788.39195682788     Delta-E=       -0.116308119374 Rises=F Damp=F
 DIIS: error= 4.42D-03 at cycle   4 NSaved=   4.
 NSaved= 4 IEnMin= 4 EnMin= -1788.39195682788     IErMin= 4 ErrMin= 4.42D-03
 ErrMax= 4.42D-03  0.00D+00 EMaxC= 1.00D-01 BMatC= 1.70D-02 BMatP= 1.77D-01
 IDIUse=3 WtCom= 9.56D-01 WtEn= 4.42D-02
 Coeff-Com:  0.606D-02 0.925D-01 0.290D+00 0.611D+00
 Coeff-En:   0.000D+00 0.000D+00 0.454D-01 0.955D+00
 Coeff:      0.579D-02 0.884D-01 0.280D+00 0.626D+00
 Gap=     0.366 Goal=   None    Shift=    0.000
 RMSDP=2.61D-04 MaxDP=1.69D-02 DE=-1.16D-01 OVMax= 1.89D-02

 Cycle   5  Pass 1  IDiag  1:
 RMSU=  1.06D-04    CP:  1.00D+00  6.68D-01  5.87D-01  6.76D-01
 E= -1788.40326233607     Delta-E=       -0.011305508188 Rises=F Damp=F
 DIIS: error= 6.99D-04 at cycle   5 NSaved=   5.
 NSaved= 5 IEnMin= 5 EnMin= -1788.40326233607     IErMin= 5 ErrMin= 6.99D-04
 ErrMax= 6.99D-04  0.00D+00 EMaxC= 1.00D-01 BMatC= 8.59D-04 BMatP= 1.70D-02
 IDIUse=3 WtCom= 9.93D-01 WtEn= 6.99D-03
 Coeff-Com: -0.165D-02 0.274D-01 0.113D+00 0.322D+00 0.540D+00
 Coeff-En:   0.000D+00 0.000D+00 0.000D+00 0.000D+00 0.100D+01
 Coeff:     -0.164D-02 0.272D-01 0.112D+00 0.319D+00 0.543D+00
 Gap=     0.363 Goal=   None    Shift=    0.000
 RMSDP=5.37D-05 MaxDP=2.53D-03 DE=-1.13D-02 OVMax= 3.91D-03

 Cycle   6  Pass 1  IDiag  1:
 RMSU=  3.00D-05    CP:  1.00D+00  6.72D-01  5.76D-01  7.12D-01  6.51D-01
 E= -1788.40386821327     Delta-E=       -0.000605877199 Rises=F Damp=F
 DIIS: error= 1.53D-04 at cycle   6 NSaved=   6.
 NSaved= 6 IEnMin= 6 EnMin= -1788.40386821327     IErMin= 6 ErrMin= 1.53D-04
 ErrMax= 1.53D-04  0.00D+00 EMaxC= 1.00D-01 BMatC= 2.59D-05 BMatP= 8.59D-04
 IDIUse=3 WtCom= 9.98D-01 WtEn= 1.53D-03
 Coeff-Com: -0.864D-03-0.114D-02 0.411D-02 0.320D-01 0.171D+00 0.795D+00
 Coeff-En:   0.000D+00 0.000D+00 0.000D+00 0.000D+00 0.000D+00 0.100D+01
 Coeff:     -0.863D-03-0.114D-02 0.410D-02 0.320D-01 0.171D+00 0.795D+00
 Gap=     0.363 Goal=   None    Shift=    0.000
 RMSDP=1.36D-05 MaxDP=7.11D-04 DE=-6.06D-04 OVMax= 7.44D-04

 Cycle   7  Pass 1  IDiag  1:
 RMSU=  9.39D-06    CP:  1.00D+00  6.72D-01  5.79D-01  7.25D-01  7.18D-01
                    CP:  9.42D-01
 E= -1788.40388838889     Delta-E=       -0.000020175623 Rises=F Damp=F
 DIIS: error= 6.28D-05 at cycle   7 NSaved=   7.
 NSaved= 7 IEnMin= 7 EnMin= -1788.40388838889     IErMin= 7 ErrMin= 6.28D-05
 ErrMax= 6.28D-05  0.00D+00 EMaxC= 1.00D-01 BMatC= 4.19D-06 BMatP= 2.59D-05
 IDIUse=1 WtCom= 1.00D+00 WtEn= 0.00D+00
 Coeff-Com: -0.140D-03-0.307D-02-0.835D-02-0.151D-01 0.301D-01 0.356D+00
 Coeff-Com:  0.640D+00
 Coeff:     -0.140D-03-0.307D-02-0.835D-02-0.151D-01 0.301D-01 0.356D+00
 Coeff:      0.640D+00
 Gap=     0.363 Goal=   None    Shift=    0.000
 RMSDP=4.37D-06 MaxDP=2.22D-04 DE=-2.02D-05 OVMax= 3.16D-04

 Cycle   8  Pass 1  IDiag  1:
 RMSU=  2.67D-06    CP:  1.00D+00  6.72D-01  5.80D-01  7.25D-01  7.32D-01
                    CP:  1.02D+00  8.04D-01
 E= -1788.40389224183     Delta-E=       -0.000003852940 Rises=F Damp=F
 DIIS: error= 9.22D-06 at cycle   8 NSaved=   8.
 NSaved= 8 IEnMin= 8 EnMin= -1788.40389224183     IErMin= 8 ErrMin= 9.22D-06
 ErrMax= 9.22D-06  0.00D+00 EMaxC= 1.00D-01 BMatC= 1.47D-07 BMatP= 4.19D-06
 IDIUse=1 WtCom= 1.00D+00 WtEn= 0.00D+00
 Coeff-Com:  0.172D-04-0.730D-03-0.228D-02-0.658D-02-0.648D-02 0.174D-01
 Coeff-Com:  0.132D+00 0.867D+00
 Coeff:      0.172D-04-0.730D-03-0.228D-02-0.658D-02-0.648D-02 0.174D-01
 Coeff:      0.132D+00 0.867D+00
 Gap=     0.363 Goal=   None    Shift=    0.000
 RMSDP=1.49D-06 MaxDP=1.06D-04 DE=-3.85D-06 OVMax= 1.43D-04

 Cycle   9  Pass 1  IDiag  1:
 RMSU=  8.82D-07    CP:  1.00D+00  6.72D-01  5.80D-01  7.25D-01  7.37D-01
                    CP:  1.04D+00  8.77D-01  1.12D+00
 E= -1788.40389242103     Delta-E=       -0.000000179196 Rises=F Damp=F
 DIIS: error= 4.89D-06 at cycle   9 NSaved=   9.
 NSaved= 9 IEnMin= 9 EnMin= -1788.40389242103     IErMin= 9 ErrMin= 4.89D-06
 ErrMax= 4.89D-06  0.00D+00 EMaxC= 1.00D-01 BMatC= 4.37D-08 BMatP= 1.47D-07
 IDIUse=1 WtCom= 1.00D+00 WtEn= 0.00D+00
 Coeff-Com:  0.231D-04 0.111D-03 0.244D-03-0.848D-03-0.727D-02-0.451D-01
 Coeff-Com: -0.313D-01 0.412D+00 0.672D+00
 Coeff:      0.231D-04 0.111D-03 0.244D-03-0.848D-03-0.727D-02-0.451D-01
 Coeff:     -0.313D-01 0.412D+00 0.672D+00
 Gap=     0.363 Goal=   None    Shift=    0.000
 RMSDP=5.62D-07 MaxDP=3.69D-05 DE=-1.79D-07 OVMax= 5.85D-05

 Cycle  10  Pass 1  IDiag  1:
 RMSU=  3.19D-07    CP:  1.00D+00  6.72D-01  5.80D-01  7.25D-01  7.38D-01
                    CP:  1.05D+00  8.96D-01  1.23D+00  8.98D-01
 E= -1788.40389246015     Delta-E=       -0.000000039122 Rises=F Damp=F
 DIIS: error= 1.08D-06 at cycle  10 NSaved=  10.
 NSaved=10 IEnMin=10 EnMin= -1788.40389246015     IErMin=10 ErrMin= 1.08D-06
 ErrMax= 1.08D-06  0.00D+00 EMaxC= 1.00D-01 BMatC= 2.24D-09 BMatP= 4.37D-08
 IDIUse=1 WtCom= 1.00D+00 WtEn= 0.00D+00
 Coeff-Com:  0.577D-05 0.100D-03 0.306D-03 0.322D-03-0.139D-02-0.152D-01
 Coeff-Com: -0.209D-01 0.500D-01 0.210D+00 0.776D+00
 Coeff:      0.577D-05 0.100D-03 0.306D-03 0.322D-03-0.139D-02-0.152D-01
 Coeff:     -0.209D-01 0.500D-01 0.210D+00 0.776D+00
 Gap=     0.363 Goal=   None    Shift=    0.000
 RMSDP=1.61D-07 MaxDP=1.18D-05 DE=-3.91D-08 OVMax= 1.60D-05

 Cycle  11  Pass 1  IDiag  1:
 RMSU=  1.00D-07    CP:  1.00D+00  6.72D-01  5.80D-01  7.25D-01  7.38D-01
                    CP:  1.05D+00  9.01D-01  1.26D+00  9.74D-01  9.71D-01
 E= -1788.40389246218     Delta-E=       -0.000000002028 Rises=F Damp=F
 DIIS: error= 6.39D-07 at cycle  11 NSaved=  11.
 NSaved=11 IEnMin=11 EnMin= -1788.40389246218     IErMin=11 ErrMin= 6.39D-07
 ErrMax= 6.39D-07  0.00D+00 EMaxC= 1.00D-01 BMatC= 4.44D-10 BMatP= 2.24D-09
 IDIUse=1 WtCom= 1.00D+00 WtEn= 0.00D+00
 Coeff-Com:  0.124D-05 0.397D-04 0.135D-03 0.217D-03-0.154D-04-0.372D-02
 Coeff-Com: -0.770D-02-0.103D-01 0.431D-01 0.360D+00 0.618D+00
 Coeff:      0.124D-05 0.397D-04 0.135D-03 0.217D-03-0.154D-04-0.372D-02
 Coeff:     -0.770D-02-0.103D-01 0.431D-01 0.360D+00 0.618D+00
 Gap=     0.363 Goal=   None    Shift=    0.000
 RMSDP=5.37D-08 MaxDP=3.96D-06 DE=-2.03D-09 OVMax= 5.65D-06

 Cycle  12  Pass 1  IDiag  1:
 RMSU=  3.48D-08    CP:  1.00D+00  6.72D-01  5.80D-01  7.25D-01  7.39D-01
                    CP:  1.05D+00  9.02D-01  1.26D+00  9.89D-01  1.05D+00
                    CP:  8.49D-01
 E= -1788.40389246265     Delta-E=       -0.000000000469 Rises=F Damp=F
 DIIS: error= 2.44D-07 at cycle  12 NSaved=  12.
 NSaved=12 IEnMin=12 EnMin= -1788.40389246265     IErMin=12 ErrMin= 2.44D-07
 ErrMax= 2.44D-07  0.00D+00 EMaxC= 1.00D-01 BMatC= 6.26D-11 BMatP= 4.44D-10
 IDIUse=1 WtCom= 1.00D+00 WtEn= 0.00D+00
 Coeff-Com: -0.353D-06 0.175D-05 0.161D-04 0.477D-04 0.283D-03 0.894D-03
 Coeff-Com:  0.536D-04-0.132D-01-0.164D-01 0.300D-01 0.275D+00 0.724D+00
 Coeff:     -0.353D-06 0.175D-05 0.161D-04 0.477D-04 0.283D-03 0.894D-03
 Coeff:      0.536D-04-0.132D-01-0.164D-01 0.300D-01 0.275D+00 0.724D+00
 Gap=     0.363 Goal=   None    Shift=    0.000
 RMSDP=2.24D-08 MaxDP=1.99D-06 DE=-4.69D-10 OVMax= 1.74D-06

 Cycle  13  Pass 1  IDiag  1:
 RMSU=  1.18D-08    CP:  1.00D+00  6.72D-01  5.80D-01  7.25D-01  7.39D-01
                    CP:  1.05D+00  9.02D-01  1.27D+00  9.98D-01  1.07D+00
                    CP:  9.47D-01  8.41D-01
 E= -1788.40389246257     Delta-E=        0.000000000075 Rises=F Damp=F
 DIIS: error= 9.32D-08 at cycle  13 NSaved=  13.
 NSaved=13 IEnMin=12 EnMin= -1788.40389246265     IErMin=13 ErrMin= 9.32D-08
 ErrMax= 9.32D-08  0.00D+00 EMaxC= 1.00D-01 BMatC= 6.34D-12 BMatP= 6.26D-11
 IDIUse=1 WtCom= 1.00D+00 WtEn= 0.00D+00
 Coeff-Com: -0.286D-06-0.287D-05-0.376D-05 0.203D-05 0.138D-03 0.748D-03
 Coeff-Com:  0.769D-03-0.473D-02-0.112D-01-0.224D-01 0.565D-01 0.314D+00
 Coeff-Com:  0.667D+00
 Coeff:     -0.286D-06-0.287D-05-0.376D-05 0.203D-05 0.138D-03 0.748D-03
 Coeff:      0.769D-03-0.473D-02-0.112D-01-0.224D-01 0.565D-01 0.314D+00
 Coeff:      0.667D+00
 Gap=     0.363 Goal=   None    Shift=    0.000
 RMSDP=6.45D-09 MaxDP=3.93D-07 DE= 7.55D-11 OVMax= 4.79D-07

 Error on total polarization charges =  0.00461
 SCF Done:  E(RCAM-B3LYP) =  -1788.40389246     A.U. after   13 cycles
            NFock= 13  Conv=0.65D-08     -V/T= 2.0077
 KE= 1.774669965978D+03 PE=-1.055469287946D+04 EE= 3.821702094356D+03
 Leave Link  502 at Sun Mar  3 18:10:32 2024, MaxMem=  5368709120 cpu:       709.0
 (Enter /home/k0335/k033513/app/g09/l601.exe)
 Copying SCF densities to generalized density rwf, IOpCl= 0 IROHF=0.

 **********************************************************************

            Population analysis using the SCF density.

 **********************************************************************

 Alpha  occ. eigenvalues --  -24.83963 -24.83482 -24.83308 -24.83234 -24.83052
 Alpha  occ. eigenvalues --  -24.82838 -24.82597 -24.82339 -24.81467 -19.32671
 Alpha  occ. eigenvalues --  -19.22986 -19.22813 -19.22676 -14.52281 -14.49406
 Alpha  occ. eigenvalues --  -14.49404 -10.59335 -10.55491 -10.52885 -10.48815
 Alpha  occ. eigenvalues --  -10.44897 -10.44848 -10.43811 -10.31141 -10.31128
 Alpha  occ. eigenvalues --  -10.25766 -10.25742  -1.43059  -1.41831  -1.38096
 Alpha  occ. eigenvalues --   -1.35389  -1.33286  -1.33264  -1.32886  -1.32223
 Alpha  occ. eigenvalues --   -1.30518  -1.21577  -1.20110  -1.16532  -1.16300
 Alpha  occ. eigenvalues --   -1.08608  -1.06367  -1.04832  -0.93298  -0.87653
 Alpha  occ. eigenvalues --   -0.85499  -0.83604  -0.82250  -0.78995  -0.77796
 Alpha  occ. eigenvalues --   -0.76193  -0.74132  -0.73080  -0.72409  -0.71367
 Alpha  occ. eigenvalues --   -0.70365  -0.70158  -0.69429  -0.68653  -0.67346
 Alpha  occ. eigenvalues --   -0.66941  -0.65781  -0.63695  -0.61351  -0.60043
 Alpha  occ. eigenvalues --   -0.59097  -0.57424  -0.56962  -0.56735  -0.55898
 Alpha  occ. eigenvalues --   -0.55714  -0.55568  -0.54789  -0.54224  -0.54038
 Alpha  occ. eigenvalues --   -0.53959  -0.53814  -0.53008  -0.52840  -0.52351
 Alpha  occ. eigenvalues --   -0.52183  -0.51809  -0.51504  -0.50849  -0.50682
 Alpha  occ. eigenvalues --   -0.50470  -0.50304  -0.49906  -0.49242  -0.48712
 Alpha  occ. eigenvalues --   -0.48354  -0.46324  -0.46194  -0.45638  -0.44916
 Alpha  occ. eigenvalues --   -0.44890  -0.44232  -0.42132  -0.41972  -0.38851
 Alpha  occ. eigenvalues --   -0.38628  -0.37923  -0.35974  -0.35161  -0.34647
 Alpha virt. eigenvalues --    0.01661   0.02484   0.06603   0.07647   0.12151
 Alpha virt. eigenvalues --    0.14684   0.15477   0.16201   0.16699   0.17511
 Alpha virt. eigenvalues --    0.19068   0.19591   0.19987   0.20149   0.20480
 Alpha virt. eigenvalues --    0.21596   0.21926   0.22365   0.22633   0.22913
 Alpha virt. eigenvalues --    0.23389   0.24095   0.24761   0.25113   0.25402
 Alpha virt. eigenvalues --    0.25709   0.27170   0.27396   0.28043   0.28704
 Alpha virt. eigenvalues --    0.28891   0.29682   0.30180   0.33991   0.36104
 Alpha virt. eigenvalues --    0.37642   0.39217   0.40586   0.41027   0.47223
 Alpha virt. eigenvalues --    0.48663   0.49904   0.51060   0.52278   0.52469
 Alpha virt. eigenvalues --    0.53977   0.54549   0.55308   0.55414   0.56525
 Alpha virt. eigenvalues --    0.57211   0.57626   0.58397   0.58846   0.59579
 Alpha virt. eigenvalues --    0.60147   0.60948   0.62361   0.63592   0.64639
 Alpha virt. eigenvalues --    0.66159   0.66602   0.67114   0.68458   0.70077
 Alpha virt. eigenvalues --    0.70594   0.71778   0.72849   0.75514   0.78597
 Alpha virt. eigenvalues --    0.79111   0.81542   0.81589   0.83496   0.84239
 Alpha virt. eigenvalues --    0.85165   0.86303   0.86935   0.87963   0.88607
 Alpha virt. eigenvalues --    0.91322   0.91490   0.92087   0.92495   0.92912
 Alpha virt. eigenvalues --    0.93151   0.93915   0.94563   0.95843   0.96370
 Alpha virt. eigenvalues --    0.97342   0.98470   0.99565   1.00758   1.01733
 Alpha virt. eigenvalues --    1.02656   1.03093   1.04663   1.05457   1.07878
 Alpha virt. eigenvalues --    1.08695   1.09218   1.10365   1.10945   1.11761
 Alpha virt. eigenvalues --    1.12783   1.13952   1.14810   1.16992   1.18280
 Alpha virt. eigenvalues --    1.18829   1.19127   1.20182   1.20625   1.21196
 Alpha virt. eigenvalues --    1.21523   1.21829   1.23963   1.25477   1.25593
 Alpha virt. eigenvalues --    1.26593   1.28449   1.29599   1.31773   1.32526
 Alpha virt. eigenvalues --    1.33851   1.34715   1.35659   1.35877   1.37029
 Alpha virt. eigenvalues --    1.38127   1.39501   1.39720   1.40161   1.40972
 Alpha virt. eigenvalues --    1.41321   1.41948   1.42195   1.43985   1.45197
 Alpha virt. eigenvalues --    1.46351   1.47538   1.48145   1.50192   1.50801
 Alpha virt. eigenvalues --    1.51894   1.53004   1.55074   1.55689   1.55990
 Alpha virt. eigenvalues --    1.57126   1.57679   1.58299   1.60045   1.61029
 Alpha virt. eigenvalues --    1.62432   1.64171   1.66180   1.66212   1.67175
 Alpha virt. eigenvalues --    1.68414   1.70029   1.70773   1.71817   1.72586
 Alpha virt. eigenvalues --    1.74167   1.74536   1.75461   1.76751   1.77516
 Alpha virt. eigenvalues --    1.78984   1.80406   1.81398   1.82064   1.82907
 Alpha virt. eigenvalues --    1.84705   1.84825   1.85125   1.85792   1.86095
 Alpha virt. eigenvalues --    1.86734   1.88369   1.88507   1.89121   1.89529
 Alpha virt. eigenvalues --    1.90738   1.91131   1.92025   1.92501   1.93011
 Alpha virt. eigenvalues --    1.93469   1.93951   1.94729   1.94829   1.95281
 Alpha virt. eigenvalues --    1.96813   1.97444   1.98001   1.98568   1.99616
 Alpha virt. eigenvalues --    2.00260   2.00412   2.01000   2.02011   2.02374
 Alpha virt. eigenvalues --    2.03367   2.03893   2.04263   2.05042   2.05245
 Alpha virt. eigenvalues --    2.06352   2.07947   2.08152   2.09453   2.10423
 Alpha virt. eigenvalues --    2.11191   2.12038   2.12338   2.12641   2.13912
 Alpha virt. eigenvalues --    2.14164   2.14367   2.14909   2.16089   2.18213
 Alpha virt. eigenvalues --    2.18488   2.19444   2.20846   2.21022   2.21185
 Alpha virt. eigenvalues --    2.21831   2.22242   2.23760   2.25306   2.27013
 Alpha virt. eigenvalues --    2.27697   2.28132   2.29596   2.30006   2.30889
 Alpha virt. eigenvalues --    2.31779   2.33424   2.34066   2.34503   2.36423
 Alpha virt. eigenvalues --    2.38055   2.39759   2.42514   2.42959   2.43502
 Alpha virt. eigenvalues --    2.44381   2.44476   2.45015   2.46652   2.48845
 Alpha virt. eigenvalues --    2.50457   2.50762   2.52499   2.52777   2.56053
 Alpha virt. eigenvalues --    2.56528   2.58694   2.61912   2.62599   2.63774
 Alpha virt. eigenvalues --    2.65271   2.66644   2.67263   2.68879   2.70175
 Alpha virt. eigenvalues --    2.72537   2.74826   2.75373   2.76035   2.76658
 Alpha virt. eigenvalues --    2.78621   2.79888   2.81132   2.81668   2.82534
 Alpha virt. eigenvalues --    2.84442   2.85520   2.85924   2.88611   2.89671
 Alpha virt. eigenvalues --    2.90111   2.92228   2.92776   2.94441   2.94917
 Alpha virt. eigenvalues --    2.96213   2.96270   2.98834   2.99099   2.99844
 Alpha virt. eigenvalues --    3.00306   3.02345   3.04938   3.05362   3.06559
 Alpha virt. eigenvalues --    3.07574   3.09658   3.12883   3.14651   3.17921
 Alpha virt. eigenvalues --    3.18996   3.19799   3.26012   3.26899   3.27215
 Alpha virt. eigenvalues --    3.29851   3.31049   3.35567   3.36937   3.37688
 Alpha virt. eigenvalues --    3.43291   3.46467   3.48101   3.51305   3.53353
 Alpha virt. eigenvalues --    3.59052   3.61442   3.61868   4.03696   4.14237
 Alpha virt. eigenvalues --    4.17765   4.19175   4.26929   4.29491   4.35982
 Alpha virt. eigenvalues --    4.36769   4.42923   4.44004   4.46949   4.49571
 Alpha virt. eigenvalues --    4.55625   4.63335   4.65567   4.69337   4.71826
 Alpha virt. eigenvalues --    4.77779   4.82295   4.87109   5.01174   5.24482
 Alpha virt. eigenvalues --    5.49041   5.61514   5.64012   6.32054   6.35946
          Condensed to atoms (all electrons):
               1          2          3          4          5          6
     1  C    4.933505   0.370958  -0.054352  -0.003152  -0.002924  -0.000266
     2  C    0.370958   4.792157   0.252082  -0.023645   0.001706   0.003278
     3  N   -0.054352   0.252082   7.303726   0.257859  -0.090512  -0.095817
     4  C   -0.003152  -0.023645   0.257859   4.148207   0.594738   0.257204
     5  O   -0.002924   0.001706  -0.090512   0.594738   8.088726  -0.090833
     6  N   -0.000266   0.003278  -0.095817   0.257204  -0.090833   7.293223
     7  C    0.000005  -0.000075   0.003301  -0.024072   0.001983   0.251509
     8  C   -0.000001   0.000004  -0.000276  -0.003107  -0.003145  -0.054031
     9  C    0.000037   0.000227  -0.003940  -0.020747   0.000367   0.266880
    10  O    0.000000   0.000003   0.000129   0.000222  -0.000025  -0.090711
    11  N   -0.000299   0.003178  -0.094702  -0.000730   0.000019  -0.094239
    12  C    0.000005  -0.000028   0.001363   0.000259   0.000001   0.001981
    13  F    0.000000   0.000000  -0.000029   0.000000   0.000000   0.000038
    14  F    0.000000   0.000004   0.000058   0.000002   0.000000  -0.000020
    15  C    0.000000   0.000002  -0.000149   0.000038   0.000000  -0.000274
    16  F    0.000000   0.000000   0.000001   0.000002   0.000000  -0.000004
    17  O    0.000000   0.000000   0.000000   0.000000   0.000000   0.000000
    18  C    0.000000   0.000000   0.000000   0.000000   0.000000   0.000000
    19  F    0.000000   0.000000   0.000000   0.000000   0.000000   0.000000
    20  F    0.000000   0.000000   0.000000   0.000000   0.000000   0.000000
    21  F    0.000000   0.000000   0.000000   0.000000   0.000000   0.000000
    22  C    0.000000  -0.000002  -0.000077  -0.000004   0.000000   0.000028
    23  F    0.000000   0.000000   0.000000   0.000000   0.000000   0.000000
    24  F    0.000000   0.000000  -0.000004   0.000000   0.000000   0.000000
    25  F    0.000000   0.000006  -0.001156   0.000160   0.000000  -0.000118
    26  C   -0.002429  -0.025200   0.256242  -0.020270   0.000305  -0.003645
    27  O   -0.002531  -0.000468  -0.089709   0.000225  -0.000026   0.000153
    28  H    0.385623  -0.028246   0.004113  -0.000012  -0.000006   0.000002
    29  H    0.389837  -0.032267  -0.006085  -0.000059   0.000028   0.000000
    30  H    0.389442  -0.032311  -0.005755   0.003651   0.003781  -0.000022
    31  H   -0.038210   0.391845  -0.034158  -0.003123   0.007870   0.000410
    32  H   -0.038497   0.391159  -0.034488   0.004211   0.000514  -0.000076
    33  H    0.000000   0.000001  -0.000077   0.004287   0.000518  -0.034045
    34  H    0.000001  -0.000007   0.000405  -0.003279   0.007728  -0.034143
    35  H    0.000000   0.000000   0.000001  -0.000070   0.000034  -0.006175
    36  H    0.000001   0.000001  -0.000023   0.003777   0.003995  -0.005900
    37  H    0.000000   0.000000   0.000002  -0.000015  -0.000004   0.004102
               7          8          9         10         11         12
     1  C    0.000005  -0.000001   0.000037   0.000000  -0.000299   0.000005
     2  C   -0.000075   0.000004   0.000227   0.000003   0.003178  -0.000028
     3  N    0.003301  -0.000276  -0.003940   0.000129  -0.094702   0.001363
     4  C   -0.024072  -0.003107  -0.020747   0.000222  -0.000730   0.000259
     5  O    0.001983  -0.003145   0.000367  -0.000025   0.000019   0.000001
     6  N    0.251509  -0.054031   0.266880  -0.090711  -0.094239   0.001981
     7  C    4.790301   0.370627  -0.024650   0.000226   0.003168  -0.000036
     8  C    0.370627   4.934981  -0.002438  -0.002761  -0.000302   0.000005
     9  C   -0.024650  -0.002438   4.172708   0.574451   0.206317  -0.013457
    10  O    0.000226  -0.002761   0.574451   8.106527  -0.088548   0.015300
    11  N    0.003168  -0.000302   0.206317  -0.088548   7.587087   0.168541
    12  C   -0.000036   0.000005  -0.013457   0.015300   0.168541   4.377341
    13  F    0.000005  -0.000001   0.007470  -0.008356  -0.048152   0.271355
    14  F    0.000000   0.000000   0.000563   0.000011  -0.038870   0.278956
    15  C   -0.000001   0.000000  -0.002958  -0.001259  -0.069226   0.223971
    16  F    0.000005   0.000000   0.009203  -0.005887  -0.000728  -0.022797
    17  O    0.000000   0.000000   0.000164  -0.000045   0.001681  -0.020182
    18  C    0.000000   0.000000  -0.000003  -0.000004  -0.000004   0.000958
    19  F    0.000000   0.000000   0.000001   0.000000   0.000000   0.000193
    20  F    0.000000   0.000000   0.000000   0.000000   0.000000  -0.000042
    21  F    0.000000   0.000000   0.000000   0.000000   0.000000  -0.000171
    22  C    0.000000   0.000000  -0.000193  -0.000080  -0.002064  -0.037473
    23  F    0.000000   0.000000   0.000003   0.000000  -0.000018   0.001477
    24  F    0.000000   0.000000   0.000023   0.000000  -0.000430   0.002372
    25  F    0.000000   0.000000   0.001936  -0.000009  -0.003075  -0.004516
    26  C    0.000218   0.000049  -0.011120   0.000085   0.192740  -0.006236
    27  O    0.000003   0.000000  -0.000096  -0.000032  -0.088470   0.012828
    28  H    0.000000   0.000000   0.000000   0.000000   0.000002   0.000000
    29  H    0.000000   0.000000   0.000002   0.000000  -0.000125   0.000001
    30  H    0.000001   0.000001   0.000000   0.000000  -0.000002   0.000000
    31  H   -0.000008   0.000001  -0.000020   0.000000  -0.000082   0.000001
    32  H    0.000001   0.000000  -0.000028   0.000000   0.000490   0.000007
    33  H    0.391395  -0.038468  -0.004625   0.008889   0.000435   0.000006
    34  H    0.392010  -0.038330   0.004218   0.000537  -0.000083   0.000001
    35  H   -0.032095   0.389731   0.004235   0.003170  -0.000115  -0.000001
    36  H   -0.032210   0.389361  -0.000159   0.000026   0.000000   0.000000
    37  H   -0.028183   0.385555  -0.000046  -0.000017   0.000002   0.000000
              13         14         15         16         17         18
     1  C    0.000000   0.000000   0.000000   0.000000   0.000000   0.000000
     2  C    0.000000   0.000004   0.000002   0.000000   0.000000   0.000000
     3  N   -0.000029   0.000058  -0.000149   0.000001   0.000000   0.000000
     4  C    0.000000   0.000002   0.000038   0.000002   0.000000   0.000000
     5  O    0.000000   0.000000   0.000000   0.000000   0.000000   0.000000
     6  N    0.000038  -0.000020  -0.000274  -0.000004   0.000000   0.000000
     7  C    0.000005   0.000000  -0.000001   0.000005   0.000000   0.000000
     8  C   -0.000001   0.000000   0.000000   0.000000   0.000000   0.000000
     9  C    0.007470   0.000563  -0.002958   0.009203   0.000164  -0.000003
    10  O   -0.008356   0.000011  -0.001259  -0.005887  -0.000045  -0.000004
    11  N   -0.048152  -0.038870  -0.069226  -0.000728   0.001681  -0.000004
    12  C    0.271355   0.278956   0.223971  -0.022797  -0.020182   0.000958
    13  F    9.112639  -0.043328  -0.023475  -0.000273  -0.000257   0.000024
    14  F   -0.043328   9.091801  -0.037449   0.000285   0.000152  -0.000073
    15  C   -0.023475  -0.037449   5.004435   0.226959   0.159659  -0.001810
    16  F   -0.000273   0.000285   0.226959   9.117649  -0.049411  -0.000595
    17  O   -0.000257   0.000152   0.159659  -0.049411   8.347612   0.237211
    18  C    0.000024  -0.000073  -0.001810  -0.000595   0.237211   3.825825
    19  F    0.000000   0.000000   0.012823  -0.002539  -0.044859   0.294970
    20  F    0.000000   0.000000   0.000667  -0.000023  -0.039252   0.338370
    21  F    0.000000   0.000001  -0.009351  -0.000017  -0.048342   0.301139
    22  C    0.001507   0.005550   0.171330  -0.016629  -0.029991  -0.004152
    23  F   -0.000001  -0.000001  -0.025962  -0.000164  -0.001461   0.012137
    24  F    0.000000   0.000197  -0.034093   0.000317   0.000530  -0.000331
    25  F    0.000002  -0.000171  -0.022212  -0.000346   0.000590   0.000053
    26  C    0.000363   0.007918  -0.001471  -0.000219   0.000044   0.000000
    27  O    0.000014  -0.015321  -0.004773   0.000005   0.000004   0.000000
    28  H    0.000000   0.000000   0.000000   0.000000   0.000000   0.000000
    29  H    0.000000  -0.000001   0.000000   0.000000   0.000000   0.000000
    30  H    0.000000   0.000000   0.000000   0.000000   0.000000   0.000000
    31  H    0.000000   0.000000   0.000000   0.000000   0.000000   0.000000
    32  H    0.000000   0.000002  -0.000001   0.000000   0.000000   0.000000
    33  H    0.000002   0.000000   0.000000  -0.000003   0.000000   0.000000
    34  H    0.000000   0.000000   0.000000   0.000000   0.000000   0.000000
    35  H   -0.000001   0.000000   0.000000   0.000000   0.000000   0.000000
    36  H    0.000000   0.000000   0.000000   0.000000   0.000000   0.000000
    37  H    0.000000   0.000000   0.000000   0.000000   0.000000   0.000000
              19         20         21         22         23         24
     1  C    0.000000   0.000000   0.000000   0.000000   0.000000   0.000000
     2  C    0.000000   0.000000   0.000000  -0.000002   0.000000   0.000000
     3  N    0.000000   0.000000   0.000000  -0.000077   0.000000  -0.000004
     4  C    0.000000   0.000000   0.000000  -0.000004   0.000000   0.000000
     5  O    0.000000   0.000000   0.000000   0.000000   0.000000   0.000000
     6  N    0.000000   0.000000   0.000000   0.000028   0.000000   0.000000
     7  C    0.000000   0.000000   0.000000   0.000000   0.000000   0.000000
     8  C    0.000000   0.000000   0.000000   0.000000   0.000000   0.000000
     9  C    0.000001   0.000000   0.000000  -0.000193   0.000003   0.000023
    10  O    0.000000   0.000000   0.000000  -0.000080   0.000000   0.000000
    11  N    0.000000   0.000000   0.000000  -0.002064  -0.000018  -0.000430
    12  C    0.000193  -0.000042  -0.000171  -0.037473   0.001477   0.002372
    13  F    0.000000   0.000000   0.000000   0.001507  -0.000001   0.000000
    14  F    0.000000   0.000000   0.000001   0.005550  -0.000001   0.000197
    15  C    0.012823   0.000667  -0.009351   0.171330  -0.025962  -0.034093
    16  F   -0.002539  -0.000023  -0.000017  -0.016629  -0.000164   0.000317
    17  O   -0.044859  -0.039252  -0.048342  -0.029991  -0.001461   0.000530
    18  C    0.294970   0.338370   0.301139  -0.004152   0.012137  -0.000331
    19  F    9.059895  -0.036305  -0.033911  -0.004700  -0.001987   0.000011
    20  F   -0.036305   9.014057  -0.037704  -0.000012  -0.000005   0.000000
    21  F   -0.033911  -0.037704   9.064744   0.017873  -0.007576  -0.000442
    22  C   -0.004700  -0.000012   0.017873   4.256169   0.274120   0.275381
    23  F   -0.001987  -0.000005  -0.007576   0.274120   9.083886  -0.038701
    24  F    0.000011   0.000000  -0.000442   0.275381  -0.038701   9.065555
    25  F    0.000000   0.000000   0.000000   0.268474  -0.039998  -0.035062
    26  C    0.000000   0.000000   0.000000   0.001711   0.000009  -0.000442
    27  O    0.000000   0.000000   0.000000   0.007162  -0.000002   0.000026
    28  H    0.000000   0.000000   0.000000   0.000000   0.000000   0.000000
    29  H    0.000000   0.000000   0.000000   0.000000   0.000000   0.000000
    30  H    0.000000   0.000000   0.000000   0.000000   0.000000   0.000000
    31  H    0.000000   0.000000   0.000000   0.000000   0.000000   0.000000
    32  H    0.000000   0.000000   0.000000   0.000004   0.000000   0.000000
    33  H    0.000000   0.000000   0.000000   0.000000   0.000000   0.000000
    34  H    0.000000   0.000000   0.000000   0.000000   0.000000   0.000000
    35  H    0.000000   0.000000   0.000000   0.000000   0.000000   0.000000
    36  H    0.000000   0.000000   0.000000   0.000000   0.000000   0.000000
    37  H    0.000000   0.000000   0.000000   0.000000   0.000000   0.000000
              25         26         27         28         29         30
     1  C    0.000000  -0.002429  -0.002531   0.385623   0.389837   0.389442
     2  C    0.000006  -0.025200  -0.000468  -0.028246  -0.032267  -0.032311
     3  N   -0.001156   0.256242  -0.089709   0.004113  -0.006085  -0.005755
     4  C    0.000160  -0.020270   0.000225  -0.000012  -0.000059   0.003651
     5  O    0.000000   0.000305  -0.000026  -0.000006   0.000028   0.003781
     6  N   -0.000118  -0.003645   0.000153   0.000002   0.000000  -0.000022
     7  C    0.000000   0.000218   0.000003   0.000000   0.000000   0.000001
     8  C    0.000000   0.000049   0.000000   0.000000   0.000000   0.000001
     9  C    0.001936  -0.011120  -0.000096   0.000000   0.000002   0.000000
    10  O   -0.000009   0.000085  -0.000032   0.000000   0.000000   0.000000
    11  N   -0.003075   0.192740  -0.088470   0.000002  -0.000125  -0.000002
    12  C   -0.004516  -0.006236   0.012828   0.000000   0.000001   0.000000
    13  F    0.000002   0.000363   0.000014   0.000000   0.000000   0.000000
    14  F   -0.000171   0.007918  -0.015321   0.000000  -0.000001   0.000000
    15  C   -0.022212  -0.001471  -0.004773   0.000000   0.000000   0.000000
    16  F   -0.000346  -0.000219   0.000005   0.000000   0.000000   0.000000
    17  O    0.000590   0.000044   0.000004   0.000000   0.000000   0.000000
    18  C    0.000053   0.000000   0.000000   0.000000   0.000000   0.000000
    19  F    0.000000   0.000000   0.000000   0.000000   0.000000   0.000000
    20  F    0.000000   0.000000   0.000000   0.000000   0.000000   0.000000
    21  F    0.000000   0.000000   0.000000   0.000000   0.000000   0.000000
    22  C    0.268474   0.001711   0.007162   0.000000   0.000000   0.000000
    23  F   -0.039998   0.000009  -0.000002   0.000000   0.000000   0.000000
    24  F   -0.035062  -0.000442   0.000026   0.000000   0.000000   0.000000
    25  F    9.075948   0.015516  -0.005728   0.000000   0.000000   0.000000
    26  C    0.015516   4.195449   0.562072  -0.000044   0.004257  -0.000171
    27  O   -0.005728   0.562072   8.129947  -0.000018   0.002857   0.000019
    28  H    0.000000  -0.000044  -0.000018   0.564832  -0.025316  -0.025203
    29  H    0.000000   0.004257   0.002857  -0.025316   0.572676  -0.031460
    30  H    0.000000  -0.000171   0.000019  -0.025203  -0.031460   0.571638
    31  H    0.000000   0.004275   0.000542  -0.001476   0.004508  -0.005056
    32  H   -0.000005  -0.004484   0.009636  -0.001348  -0.005074   0.004485
    33  H    0.000000  -0.000031   0.000000   0.000000   0.000000   0.000000
    34  H    0.000000  -0.000025   0.000000   0.000000   0.000000   0.000000
    35  H    0.000000   0.000001   0.000000   0.000000   0.000000   0.000000
    36  H    0.000000  -0.000001   0.000000   0.000000   0.000000   0.000001
    37  H    0.000000   0.000000   0.000000   0.000000   0.000000   0.000000
              31         32         33         34         35         36
     1  C   -0.038210  -0.038497   0.000000   0.000001   0.000000   0.000001
     2  C    0.391845   0.391159   0.000001  -0.000007   0.000000   0.000001
     3  N   -0.034158  -0.034488  -0.000077   0.000405   0.000001  -0.000023
     4  C   -0.003123   0.004211   0.004287  -0.003279  -0.000070   0.003777
     5  O    0.007870   0.000514   0.000518   0.007728   0.000034   0.003995
     6  N    0.000410  -0.000076  -0.034045  -0.034143  -0.006175  -0.005900
     7  C   -0.000008   0.000001   0.391395   0.392010  -0.032095  -0.032210
     8  C    0.000001   0.000000  -0.038468  -0.038330   0.389731   0.389361
     9  C   -0.000020  -0.000028  -0.004625   0.004218   0.004235  -0.000159
    10  O    0.000000   0.000000   0.008889   0.000537   0.003170   0.000026
    11  N   -0.000082   0.000490   0.000435  -0.000083  -0.000115   0.000000
    12  C    0.000001   0.000007   0.000006   0.000001  -0.000001   0.000000
    13  F    0.000000   0.000000   0.000002   0.000000  -0.000001   0.000000
    14  F    0.000000   0.000002   0.000000   0.000000   0.000000   0.000000
    15  C    0.000000  -0.000001   0.000000   0.000000   0.000000   0.000000
    16  F    0.000000   0.000000  -0.000003   0.000000   0.000000   0.000000
    17  O    0.000000   0.000000   0.000000   0.000000   0.000000   0.000000
    18  C    0.000000   0.000000   0.000000   0.000000   0.000000   0.000000
    19  F    0.000000   0.000000   0.000000   0.000000   0.000000   0.000000
    20  F    0.000000   0.000000   0.000000   0.000000   0.000000   0.000000
    21  F    0.000000   0.000000   0.000000   0.000000   0.000000   0.000000
    22  C    0.000000   0.000004   0.000000   0.000000   0.000000   0.000000
    23  F    0.000000   0.000000   0.000000   0.000000   0.000000   0.000000
    24  F    0.000000   0.000000   0.000000   0.000000   0.000000   0.000000
    25  F    0.000000  -0.000005   0.000000   0.000000   0.000000   0.000000
    26  C    0.004275  -0.004484  -0.000031  -0.000025   0.000001  -0.000001
    27  O    0.000542   0.009636   0.000000   0.000000   0.000000   0.000000
    28  H   -0.001476  -0.001348   0.000000   0.000000   0.000000   0.000000
    29  H    0.004508  -0.005074   0.000000   0.000000   0.000000   0.000000
    30  H   -0.005056   0.004485   0.000000   0.000000   0.000000   0.000001
    31  H    0.549288  -0.028675   0.000000   0.000002   0.000000   0.000000
    32  H   -0.028675   0.547649   0.000000   0.000000   0.000000   0.000000
    33  H    0.000000   0.000000   0.548737  -0.028801  -0.005074   0.004484
    34  H    0.000002   0.000000  -0.028801   0.550055   0.004501  -0.005055
    35  H    0.000000   0.000000  -0.005074   0.004501   0.571670  -0.031348
    36  H    0.000000   0.000000   0.004484  -0.005055  -0.031348   0.571128
    37  H    0.000000   0.000000  -0.001374  -0.001476  -0.025289  -0.025194
              37
     1  C    0.000000
     2  C    0.000000
     3  N    0.000002
     4  C   -0.000015
     5  O   -0.000004
     6  N    0.004102
     7  C   -0.028183
     8  C    0.385555
     9  C   -0.000046
    10  O   -0.000017
    11  N    0.000002
    12  C    0.000000
    13  F    0.000000
    14  F    0.000000
    15  C    0.000000
    16  F    0.000000
    17  O    0.000000
    18  C    0.000000
    19  F    0.000000
    20  F    0.000000
    21  F    0.000000
    22  C    0.000000
    23  F    0.000000
    24  F    0.000000
    25  F    0.000000
    26  C    0.000000
    27  O    0.000000
    28  H    0.000000
    29  H    0.000000
    30  H    0.000000
    31  H    0.000000
    32  H    0.000000
    33  H   -0.001374
    34  H   -0.001476
    35  H   -0.025289
    36  H   -0.025194
    37  H    0.564994
 Mulliken charges:
               1
     1  C   -0.326750
     2  C   -0.064361
     3  N   -0.567971
     4  C    0.827442
     5  O   -0.524839
     6  N   -0.568488
     7  C   -0.063427
     8  C   -0.327454
     9  C    0.835677
    10  O   -0.511840
    11  N   -0.633393
    12  C    0.748019
    13  F   -0.269546
    14  F   -0.250266
    15  C    0.434579
    16  F   -0.254791
    17  O   -0.513846
    18  C    0.996285
    19  F   -0.243591
    20  F   -0.239750
    21  F   -0.246243
    22  C    0.816067
    23  F   -0.255758
    24  F   -0.234907
    25  F   -0.250290
    26  C    0.834534
    27  O   -0.518322
    28  H    0.127096
    29  H    0.126221
    30  H    0.126961
    31  H    0.152066
    32  H    0.154520
    33  H    0.153743
    34  H    0.151740
    35  H    0.126825
    36  H    0.127116
    37  H    0.126942
 Sum of Mulliken charges =   0.00000
 Mulliken charges with hydrogens summed into heavy atoms:
               1
     1  C    0.053528
     2  C    0.242225
     3  N   -0.567971
     4  C    0.827442
     5  O   -0.524839
     6  N   -0.568488
     7  C    0.242057
     8  C    0.053429
     9  C    0.835677
    10  O   -0.511840
    11  N   -0.633393
    12  C    0.748019
    13  F   -0.269546
    14  F   -0.250266
    15  C    0.434579
    16  F   -0.254791
    17  O   -0.513846
    18  C    0.996285
    19  F   -0.243591
    20  F   -0.239750
    21  F   -0.246243
    22  C    0.816067
    23  F   -0.255758
    24  F   -0.234907
    25  F   -0.250290
    26  C    0.834534
    27  O   -0.518322
 Electronic spatial extent (au):  <R**2>=          10044.9502
 Charge=              0.0000 electrons
 Dipole moment (field-independent basis, Debye):
    X=             -2.8644    Y=              0.9673    Z=              0.7514  Tot=              3.1153
 Quadrupole moment (field-independent basis, Debye-Ang):
   XX=           -152.8813   YY=           -146.6698   ZZ=           -148.2009
   XY=              3.0127   XZ=              1.6912   YZ=             -0.3257
 Traceless Quadrupole moment (field-independent basis, Debye-Ang):
   XX=             -3.6307   YY=              2.5809   ZZ=              1.0498
   XY=              3.0127   XZ=              1.6912   YZ=             -0.3257
 Octapole moment (field-independent basis, Debye-Ang**2):
  XXX=           -336.3382  YYY=             13.5971  ZZZ=             40.6157  XYY=           -138.2452
  XXY=             -4.3322  XXZ=             -3.3060  XZZ=           -160.7111  YZZ=              5.2195
  YYZ=             -0.5688  XYZ=             17.1168
 Hexadecapole moment (field-independent basis, Debye-Ang**3):
 XXXX=          -8057.0815 YYYY=          -1035.4332 ZZZZ=          -2073.1503 XXXY=            133.8430
 XXXZ=            307.5830 YYYX=             64.2409 YYYZ=            272.9592 ZZZX=            240.8036
 ZZZY=            277.1104 XXYY=          -1473.3296 XXZZ=          -1607.4092 YYZZ=           -523.6461
 XXYZ=             39.6531 YYXZ=            103.3141 ZZXY=             29.7381
 N-N= 3.169916926665D+03 E-N=-1.055469288304D+04  KE= 1.774669965978D+03
 No NMR shielding tensors so no spin-rotation constants.
 Leave Link  601 at Sun Mar  3 18:10:32 2024, MaxMem=  5368709120 cpu:         2.7
 (Enter /home/k0335/k033513/app/g09/l9999.exe)
 1\1\GINC-C24U17N4\SP\RCAM-B3LYP\6-31G(d,p)\C11H10F9N3O4\K033513\03-Mar
 -2024\0\\#p CAM-B3LYP/6-31G(d,p) SCRF=(PCM,Solvent=Generic,Read) NoSym
 m out=wfn\\Title A230421842_0\\0,1\C,0,-2.88467,-1.916161,2.480584\C,0
 ,-2.173372,-0.572818,2.562225\N,0,-1.556433,-0.211691,1.286449\C,0,-2.
 303191,0.518344,0.385415\O,0,-3.488567,0.788498,0.582754\N,0,-1.635172
 ,0.929244,-0.749659\C,0,-2.343959,1.796041,-1.690514\C,0,-3.108481,0.9
 91002,-2.732234\C,0,-0.375868,0.481679,-1.090422\O,0,0.1916,0.878633,-
 2.106931\N,0,0.207979,-0.419508,-0.23638\C,0,1.525523,-0.92207,-0.5884
 81\F,0,1.462678,-1.32895,-1.901543\F,0,1.778242,-2.098397,0.06261\C,0,
 2.760129,0.009389,-0.436554\F,0,2.558596,1.161318,-1.140557\O,0,3.8719
 43,-0.652208,-1.067754\C,0,5.094593,0.008731,-0.887264\F,0,4.961834,1.
 338256,-1.009492\F,0,5.961783,-0.429693,-1.818693\F,0,5.581767,-0.2967
 86,0.327234\C,0,2.929409,0.35289,1.044398\F,0,3.954044,1.216897,1.2443
 26\F,0,3.181991,-0.732591,1.801369\F,0,1.832551,0.973403,1.540181\C,0,
 -0.285103,-0.670988,1.017443\O,0,0.380245,-1.256027,1.871227\H,0,-3.33
 9655,-2.164343,3.444346\H,0,-2.186366,-2.716715,2.215488\H,0,-3.674966
 ,-1.898625,1.72306\H,0,-2.889489,0.202259,2.858119\H,0,-1.406569,-0.61
 3543,3.343991\H,0,-1.627794,2.455886,-2.193146\H,0,-3.041343,2.440161,
 -1.142805\H,0,-2.432387,0.358288,-3.316434\H,0,-3.850786,0.338954,-2.2
 60561\H,0,-3.630735,1.661242,-3.421794\\Version=ES64L-G09RevD.01\HF=-1
 788.4038925\RMSD=6.451e-09\Dipole=-1.126946,0.3805503,0.2956399\Quadru
 pole=-2.6993051,1.9188005,0.7805047,2.2398873,1.2573794,-0.2421399\PG=
 C01 [X(C11H10F9N3O4)]\\@

 Writing a WFN file to "A230421842/A230421842_0.wfn"


 IT PROBABLY IS NOT POSSIBLE FOR A SCIENTIST TO INTERROGATE NATURE 
 FROM A WHOLLY DISINTERESTED VIEWPOINT.
 EVEN IF HE HAS NO PARTICULAR AXE TO GRIND, HE IS LIKELY TO HAVE 
 A DISTINCTIVE WAY OF VIEWING NATURE.

                                                   -- JOHN LOSEE
 Job cpu time:       0 days  0 hours 12 minutes 15.1 seconds.
 File lengths (MBytes):  RWF=    249 Int=      0 D2E=      0 Chk=      9 Scr=      1
 Normal termination of Gaussian 09 at Sun Mar  3 18:10:32 2024.
