 Entering Gaussian System, Link 0=g09
 Initial command:
 /home/k0335/k033513/app/g09/l1.exe "/home/k0335/k033513/app/g09/scratch/Gau-530824.inp" -scrdir="/home/k0335/k033513/app/g09/scratch/"
 Default is to use a total of  36 processors:
                               36 via shared-memory
                                1 via Linda
 Entering Link 1 = /home/k0335/k033513/app/g09/l1.exe PID=    530825.
  
 Copyright (c) 1988,1990,1992,1993,1995,1998,2003,2009,2013,
            Gaussian, Inc.  All Rights Reserved.
  
 This is part of the Gaussian(R) 09 program.  It is based on
 the Gaussian(R) 03 system (copyright 2003, Gaussian, Inc.),
 the Gaussian(R) 98 system (copyright 1998, Gaussian, Inc.),
 the Gaussian(R) 94 system (copyright 1995, Gaussian, Inc.),
 the Gaussian 92(TM) system (copyright 1992, Gaussian, Inc.),
 the Gaussian 90(TM) system (copyright 1990, Gaussian, Inc.),
 the Gaussian 88(TM) system (copyright 1988, Gaussian, Inc.),
 the Gaussian 86(TM) system (copyright 1986, Carnegie Mellon
 University), and the Gaussian 82(TM) system (copyright 1983,
 Carnegie Mellon University). Gaussian is a federally registered
 trademark of Gaussian, Inc.
  
 This software contains proprietary and confidential information,
 including trade secrets, belonging to Gaussian, Inc.
  
 This software is provided under written license and may be
 used, copied, transmitted, or stored only in accord with that
 written license.
  
 The following legend is applicable only to US Government
 contracts under FAR:
  
                    RESTRICTED RIGHTS LEGEND
  
 Use, reproduction and disclosure by the US Government is
 subject to restrictions as set forth in subparagraphs (a)
 and (c) of the Commercial Computer Software - Restricted
 Rights clause in FAR 52.227-19.
  
 Gaussian, Inc.
 340 Quinnipiac St., Bldg. 40, Wallingford CT 06492
  
  
 ---------------------------------------------------------------
 Warning -- This program may not be used in any manner that
 competes with the business of Gaussian, Inc. or will provide
 assistance to any competitor of Gaussian, Inc.  The licensee
 of this program is prohibited from giving any competitor of
 Gaussian, Inc. access to this program.  By using this program,
 the user acknowledges that Gaussian, Inc. is engaged in the
 business of creating and licensing software in the field of
 computational chemistry and represents and warrants to the
 licensee that it is not a competitor of Gaussian, Inc. and that
 it will not use this program in any manner prohibited above.
 ---------------------------------------------------------------
  

 Cite this work as:
 Gaussian 09, Revision D.01,
 M. J. Frisch, G. W. Trucks, H. B. Schlegel, G. E. Scuseria, 
 M. A. Robb, J. R. Cheeseman, G. Scalmani, V. Barone, B. Mennucci, 
 G. A. Petersson, H. Nakatsuji, M. Caricato, X. Li, H. P. Hratchian, 
 A. F. Izmaylov, J. Bloino, G. Zheng, J. L. Sonnenberg, M. Hada, 
 M. Ehara, K. Toyota, R. Fukuda, J. Hasegawa, M. Ishida, T. Nakajima, 
 Y. Honda, O. Kitao, H. Nakai, T. Vreven, J. A. Montgomery, Jr., 
 J. E. Peralta, F. Ogliaro, M. Bearpark, J. J. Heyd, E. Brothers, 
 K. N. Kudin, V. N. Staroverov, T. Keith, R. Kobayashi, J. Normand, 
 K. Raghavachari, A. Rendell, J. C. Burant, S. S. Iyengar, J. Tomasi, 
 M. Cossi, N. Rega, J. M. Millam, M. Klene, J. E. Knox, J. B. Cross, 
 V. Bakken, C. Adamo, J. Jaramillo, R. Gomperts, R. E. Stratmann, 
 O. Yazyev, A. J. Austin, R. Cammi, C. Pomelli, J. W. Ochterski, 
 R. L. Martin, K. Morokuma, V. G. Zakrzewski, G. A. Voth, 
 P. Salvador, J. J. Dannenberg, S. Dapprich, A. D. Daniels, 
 O. Farkas, J. B. Foresman, J. V. Ortiz, J. Cioslowski, 
 and D. J. Fox, Gaussian, Inc., Wallingford CT, 2013.
 
 ******************************************
 Gaussian 09:  ES64L-G09RevD.01 24-Apr-2013
                 3-Mar-2024 
 ******************************************
 %nprocshared=24
 Will use up to   24 processors via shared memory.
 %mem=40GB
 %rwf=A892693591/A892693591_p1.rwf
 %nosave
 %chk=A892693591/A892693591_p1.chk
 ----------------------------------------------------------------------
 #p CAM-B3LYP/6-31G(d,p) SCRF=(PCM,Solvent=Generic,Read) NoSymm out=wfn
 ----------------------------------------------------------------------
 1/38=1,40=2/1;
 2/12=2,15=1,17=6,18=5,40=1/2;
 3/5=1,6=6,7=101,11=2,16=1,25=1,30=1,70=2203,72=-2,74=-40/1,2,3;
 4//1;
 5/5=2,38=5/2;
 6/7=2,8=2,9=2,10=2,28=1/1;
 99/5=1,6=100,9=1/99;
 Leave Link    1 at Sun Mar  3 18:02:38 2024, MaxMem=  5368709120 cpu:         1.2
 (Enter /home/k0335/k033513/app/g09/l101.exe)
 -------------------
 Title A892693591_p1
 -------------------
 Symbolic Z-matrix:
 Charge =  1 Multiplicity = 2
 C                    -0.07403   5.71746   0.13829 
 C                    -1.30759   4.89642   0.48048 
 C                    -1.18513   3.42258   0.09056 
 C                    -0.10139   2.67836   0.87445 
 N                    -0.08765   1.24981   0.57346 
 C                     0.46171   0.81448  -0.67195 
 N                     0.92189  -0.5306   -0.52597 
 C                     2.15322  -0.94215  -1.19103 
 C                     3.37454  -0.68134  -0.30826 
 C                     4.70064  -0.99566  -1.00195 
 C                     4.88367  -2.47166  -1.31952 
 C                     0.16581  -1.42036   0.20613 
 O                     0.52138  -2.58382   0.35695 
 N                    -0.98259  -0.90144   0.75364 
 C                    -1.91223  -1.80491   1.4118 
 F                    -1.45006  -2.11389   2.65559 
 F                    -3.07953  -1.124     1.62244 
 C                    -2.28969  -3.11496   0.65621 
 F                    -1.33538  -4.0739    0.90763 
 O                    -2.28214  -3.01202  -0.77809 
 C                    -3.38318  -2.3358   -1.32073 
 F                    -3.11748  -2.05771  -2.61043 
 F                    -3.58612  -1.18058  -0.67396 
 F                    -4.47589  -3.10784  -1.25776 
 C                    -3.58022  -3.64549   1.29489 
 F                    -4.63486  -2.8171    1.12771 
 F                    -3.4493   -3.86364   2.62203 
 F                    -3.93514  -4.83064   0.73475 
 C                    -0.94793   0.39171   1.2405 
 O                    -1.60083   0.77941   2.20674 
 H                     0.79235   5.40498   0.72847 
 H                    -0.2561    6.77553   0.35241 
 H                     0.17768   5.62513  -0.92293 
 H                    -2.16858   5.32487  -0.04634 
 H                    -1.51759   4.98268   1.5529 
 H                    -2.15465   2.93851   0.26275 
 H                    -0.98901   3.34181  -0.98565 
 H                     0.89479   3.07566   0.65267 
 H                    -0.2696    2.81044   1.94957 
 H                    -0.30884   0.84891  -1.45004 
 H                     1.29903   1.46314  -0.94882 
 H                     2.08352  -2.0089   -1.42838 
 H                     2.23021  -0.40219  -2.14182 
 H                     3.29363  -1.26254   0.61879 
 H                     3.38514   0.37381  -0.00732 
 H                     4.78719  -0.41016  -1.92462 
 H                     5.51963  -0.67665  -0.34626 
 H                     5.88594  -2.64714  -1.72348 
 H                     4.16174  -2.81406  -2.06659 
 H                     4.76902  -3.08454  -0.41991 
 
 NAtoms=     50 NQM=       50 NQMF=       0 NMMI=      0 NMMIF=      0
                NMic=       0 NMicF=      0.
                    Isotopes and Nuclear Properties:
 (Nuclear quadrupole moments (NQMom) in fm**2, nuclear magnetic moments (NMagM)
  in nuclear magnetons)

  Atom         1           2           3           4           5           6           7           8           9          10
 IAtWgt=          12          12          12          12          14          12          14          12          12          12
 AtmWgt=  12.0000000  12.0000000  12.0000000  12.0000000  14.0030740  12.0000000  14.0030740  12.0000000  12.0000000  12.0000000
 NucSpn=           0           0           0           0           2           0           2           0           0           0
 AtZEff=   0.0000000   0.0000000   0.0000000   0.0000000   0.0000000   0.0000000   0.0000000   0.0000000   0.0000000   0.0000000
 NQMom=    0.0000000   0.0000000   0.0000000   0.0000000   2.0440000   0.0000000   2.0440000   0.0000000   0.0000000   0.0000000
 NMagM=    0.0000000   0.0000000   0.0000000   0.0000000   0.4037610   0.0000000   0.4037610   0.0000000   0.0000000   0.0000000
 AtZNuc=   6.0000000   6.0000000   6.0000000   6.0000000   7.0000000   6.0000000   7.0000000   6.0000000   6.0000000   6.0000000

  Atom        11          12          13          14          15          16          17          18          19          20
 IAtWgt=          12          12          16          14          12          19          19          12          19          16
 AtmWgt=  12.0000000  12.0000000  15.9949146  14.0030740  12.0000000  18.9984033  18.9984033  12.0000000  18.9984033  15.9949146
 NucSpn=           0           0           0           2           0           1           1           0           1           0
 AtZEff=   0.0000000   0.0000000   0.0000000   0.0000000   0.0000000   0.0000000   0.0000000   0.0000000   0.0000000   0.0000000
 NQMom=    0.0000000   0.0000000   0.0000000   2.0440000   0.0000000   0.0000000   0.0000000   0.0000000   0.0000000   0.0000000
 NMagM=    0.0000000   0.0000000   0.0000000   0.4037610   0.0000000   2.6288670   2.6288670   0.0000000   2.6288670   0.0000000
 AtZNuc=   6.0000000   6.0000000   8.0000000   7.0000000   6.0000000   9.0000000   9.0000000   6.0000000   9.0000000   8.0000000

  Atom        21          22          23          24          25          26          27          28          29          30
 IAtWgt=          12          19          19          19          12          19          19          19          12          16
 AtmWgt=  12.0000000  18.9984033  18.9984033  18.9984033  12.0000000  18.9984033  18.9984033  18.9984033  12.0000000  15.9949146
 NucSpn=           0           1           1           1           0           1           1           1           0           0
 AtZEff=   0.0000000   0.0000000   0.0000000   0.0000000   0.0000000   0.0000000   0.0000000   0.0000000   0.0000000   0.0000000
 NQMom=    0.0000000   0.0000000   0.0000000   0.0000000   0.0000000   0.0000000   0.0000000   0.0000000   0.0000000   0.0000000
 NMagM=    0.0000000   2.6288670   2.6288670   2.6288670   0.0000000   2.6288670   2.6288670   2.6288670   0.0000000   0.0000000
 AtZNuc=   6.0000000   9.0000000   9.0000000   9.0000000   6.0000000   9.0000000   9.0000000   9.0000000   6.0000000   8.0000000

  Atom        31          32          33          34          35          36          37          38          39          40
 IAtWgt=           1           1           1           1           1           1           1           1           1           1
 AtmWgt=   1.0078250   1.0078250   1.0078250   1.0078250   1.0078250   1.0078250   1.0078250   1.0078250   1.0078250   1.0078250
 NucSpn=           1           1           1           1           1           1           1           1           1           1
 AtZEff=   0.0000000   0.0000000   0.0000000   0.0000000   0.0000000   0.0000000   0.0000000   0.0000000   0.0000000   0.0000000
 NQMom=    0.0000000   0.0000000   0.0000000   0.0000000   0.0000000   0.0000000   0.0000000   0.0000000   0.0000000   0.0000000
 NMagM=    2.7928460   2.7928460   2.7928460   2.7928460   2.7928460   2.7928460   2.7928460   2.7928460   2.7928460   2.7928460
 AtZNuc=   1.0000000   1.0000000   1.0000000   1.0000000   1.0000000   1.0000000   1.0000000   1.0000000   1.0000000   1.0000000

  Atom        41          42          43          44          45          46          47          48          49          50
 IAtWgt=           1           1           1           1           1           1           1           1           1           1
 AtmWgt=   1.0078250   1.0078250   1.0078250   1.0078250   1.0078250   1.0078250   1.0078250   1.0078250   1.0078250   1.0078250
 NucSpn=           1           1           1           1           1           1           1           1           1           1
 AtZEff=   0.0000000   0.0000000   0.0000000   0.0000000   0.0000000   0.0000000   0.0000000   0.0000000   0.0000000   0.0000000
 NQMom=    0.0000000   0.0000000   0.0000000   0.0000000   0.0000000   0.0000000   0.0000000   0.0000000   0.0000000   0.0000000
 NMagM=    2.7928460   2.7928460   2.7928460   2.7928460   2.7928460   2.7928460   2.7928460   2.7928460   2.7928460   2.7928460
 AtZNuc=   1.0000000   1.0000000   1.0000000   1.0000000   1.0000000   1.0000000   1.0000000   1.0000000   1.0000000   1.0000000
 Leave Link  101 at Sun Mar  3 18:02:38 2024, MaxMem=  5368709120 cpu:         1.1
 (Enter /home/k0335/k033513/app/g09/l202.exe)
                          Input orientation:                          
 ---------------------------------------------------------------------
 Center     Atomic      Atomic             Coordinates (Angstroms)
 Number     Number       Type             X           Y           Z
 ---------------------------------------------------------------------
      1          6           0       -0.074032    5.717457    0.138286
      2          6           0       -1.307591    4.896420    0.480479
      3          6           0       -1.185127    3.422580    0.090558
      4          6           0       -0.101386    2.678359    0.874452
      5          7           0       -0.087648    1.249806    0.573464
      6          6           0        0.461706    0.814475   -0.671946
      7          7           0        0.921889   -0.530604   -0.525967
      8          6           0        2.153221   -0.942147   -1.191031
      9          6           0        3.374544   -0.681336   -0.308264
     10          6           0        4.700644   -0.995657   -1.001952
     11          6           0        4.883666   -2.471660   -1.319520
     12          6           0        0.165809   -1.420363    0.206131
     13          8           0        0.521376   -2.583824    0.356946
     14          7           0       -0.982593   -0.901439    0.753639
     15          6           0       -1.912233   -1.804908    1.411800
     16          9           0       -1.450055   -2.113887    2.655590
     17          9           0       -3.079531   -1.123995    1.622437
     18          6           0       -2.289692   -3.114957    0.656209
     19          9           0       -1.335376   -4.073905    0.907633
     20          8           0       -2.282137   -3.012025   -0.778086
     21          6           0       -3.383181   -2.335804   -1.320734
     22          9           0       -3.117483   -2.057707   -2.610425
     23          9           0       -3.586124   -1.180577   -0.673958
     24          9           0       -4.475891   -3.107841   -1.257759
     25          6           0       -3.580222   -3.645485    1.294893
     26          9           0       -4.634856   -2.817098    1.127714
     27          9           0       -3.449302   -3.863643    2.622025
     28          9           0       -3.935140   -4.830642    0.734747
     29          6           0       -0.947932    0.391710    1.240497
     30          8           0       -1.600829    0.779413    2.206738
     31          1           0        0.792345    5.404979    0.728472
     32          1           0       -0.256103    6.775533    0.352405
     33          1           0        0.177684    5.625126   -0.922926
     34          1           0       -2.168580    5.324866   -0.046343
     35          1           0       -1.517587    4.982683    1.552897
     36          1           0       -2.154649    2.938511    0.262754
     37          1           0       -0.989008    3.341808   -0.985646
     38          1           0        0.894793    3.075661    0.652673
     39          1           0       -0.269602    2.810442    1.949569
     40          1           0       -0.308836    0.848907   -1.450039
     41          1           0        1.299027    1.463137   -0.948822
     42          1           0        2.083524   -2.008898   -1.428381
     43          1           0        2.230208   -0.402194   -2.141816
     44          1           0        3.293628   -1.262541    0.618788
     45          1           0        3.385135    0.373808   -0.007318
     46          1           0        4.787190   -0.410158   -1.924619
     47          1           0        5.519632   -0.676653   -0.346261
     48          1           0        5.885944   -2.647144   -1.723476
     49          1           0        4.161740   -2.814057   -2.066595
     50          1           0        4.769022   -3.084536   -0.419912
 ---------------------------------------------------------------------
                    Distance matrix (angstroms):
                    1          2          3          4          5
     1  C    0.000000
     2  C    1.520811   0.000000
     3  C    2.550151   1.529457   0.000000
     4  C    3.127108   2.555375   1.530637   0.000000
     5  N    4.488816   3.846388   2.481654   1.459982   0.000000
     6  C    4.998272   4.595734   3.177370   2.486460   1.429108
     7  N    6.361710   5.952823   4.521867   3.647699   2.323311
     8  C    7.146892   6.989995   5.642506   4.738938   3.597165
     9  C    7.282626   7.325016   6.147502   4.976792   4.061222
    10  C    8.316464   8.544768   7.440208   6.330780   5.518313
    11  C    9.683264   9.790825   8.576750   7.495796   6.492046
    12  C    7.142171   6.492143   5.029163   4.161438   2.707208
    13  O    8.325478   7.701586   6.249800   5.324116   3.887738
    14  N    6.709242   5.813382   4.379251   3.688641   2.336931
    15  C    7.847726   6.792698   5.440680   4.864935   3.655570
    16  F    8.340276   7.341376   6.107540   5.287436   4.183997
    17  F    7.618477   6.378812   5.158174   4.887405   3.960636
    18  C    9.120797   8.073262   6.654278   6.196678   4.889479
    19  F    9.902204   8.980532   7.542379   6.864175   5.478174
    20  O    9.050929   8.067046   6.584992   6.314034   4.980529
    21  C    8.828036   7.736763   6.323146   6.382073   5.225430
    22  F    8.790403   7.822358   6.408030   6.608444   5.500608
    23  F    7.783149   6.591990   5.247697   5.425160   4.438711
    24  F    9.960481   8.782243   7.435959   7.560604   6.449740
    25  C   10.064581   8.876501   7.559395   7.229805   6.056600
    26  F    9.727215   8.425436   7.204853   7.128572   6.125684
    27  F   10.457480   9.268864   8.038897   7.553830   6.453269
    28  F   11.248392  10.078909   8.723143   8.432217   7.197295
    29  C    5.508371   4.582510   3.250353   2.465642   1.386128
    30  O    5.567215   4.473892   3.411357   2.762121   2.275647
    31  H    1.093879   2.174825   2.871800   2.873068   4.250162
    32  H    1.094770   2.157104   3.489118   4.133196   5.532712
    33  H    1.094558   2.169470   2.781297   3.462930   4.631739
    34  H    2.139006   1.096544   2.145836   3.482119   4.617418
    35  H    2.150551   1.096184   2.163998   2.788516   4.115627
    36  H    3.473759   2.144369   1.097245   2.158180   2.687147
    37  H    2.782825   2.160518   1.096906   2.165179   2.760389
    38  H    2.860472   2.862745   2.182291   1.095175   2.074900
    39  H    3.430704   2.754442   2.160745   1.096184   2.088626
    40  H    5.126469   4.594211   3.124919   2.965331   2.074659
    41  H    4.600688   4.541453   3.330278   2.600432   2.070201
    42  H    8.173497   7.926337   6.518605   5.661029   4.397786
    43  H    6.925209   6.889685   5.592576   4.901429   3.933739
    44  H    7.764817   7.689158   6.502971   5.207896   4.212715
    45  H    6.367230   6.535567   5.494714   4.271335   3.628347
    46  H    8.089173   8.431525   7.376950   6.424322   5.723630
    47  H    8.509319   8.851758   7.870725   6.658986   5.999894
    48  H   10.438104  10.654094   9.493804   8.423677   7.493060
    49  H    9.777014   9.790435   8.493405   7.549214   6.445323
    50  H   10.061900  10.071325   8.834876   7.655535   6.584874
                    6          7          8          9         10
     6  C    0.000000
     7  N    1.429096   0.000000
     8  C    2.493270   1.458717   0.000000
     9  C    3.294593   2.466907   1.529356   0.000000
    10  C    4.621047   3.836903   2.554991   1.529229   0.000000
    11  C    5.547230   4.482533   3.132291   2.550558   1.520832
    12  C    2.419313   1.378149   2.475996   3.332678   4.712172
    13  O    3.551143   2.270607   2.784646   3.493212   4.672811
    14  N    2.657565   2.324212   3.690085   4.490070   5.948963
    15  C    4.103505   3.662109   4.903774   5.671953   7.085988
    16  F    4.827280   4.272611   5.399358   5.840667   7.242869
    17  F    4.643514   4.580296   5.943935   6.751195   8.211882
    18  C    4.977411   4.288435   5.279477   6.239895   7.490376
    19  F    5.442502   4.439081   5.136400   5.930538   7.039578
    20  O    4.709782   4.060394   4.911957   6.136032   7.271526
    21  C    5.012818   4.735402   5.710591   7.030591   8.200356
    22  F    4.981739   4.795157   5.571308   7.024298   8.052220
    23  F    4.512778   4.557033   5.767521   6.988124   8.295318
    24  F    6.333056   6.026085   6.974225   8.271566   9.419955
    25  C    6.332210   5.769490   6.808834   7.728199   8.992765
    26  F    6.511685   6.232185   7.414176   8.412728   9.747035
    27  F    6.930441   6.334533   7.379892   8.079514   9.369107
    28  F    7.292351   6.608363   7.476440   8.469716   9.607289
    29  C    2.413141   2.732634   4.160367   4.715282   6.233761
    30  O    3.541483   3.943086   5.348037   5.763103   7.290756
    31  H    4.810740   6.068076   6.769231   6.692220   7.696578
    32  H    6.090875   7.452439   8.231016   8.320035   9.316384
    33  H    4.825559   6.213246   6.863214   7.097125   8.018615
    34  H    5.258651   6.638341   7.698294   8.177364   9.383413
    35  H    5.122644   6.377229   7.490500   7.712197   8.996344
    36  H    3.497214   4.703395   5.977520   6.633350   8.004511
    37  H    2.930937   4.342627   5.316771   5.973702   7.154440
    38  H    2.656152   3.794084   4.596267   4.602998   5.813598
    39  H    3.375061   4.325566   5.460345   5.529026   6.921070
    40  H    1.095605   2.066796   3.055599   4.148805   5.357060
    41  H    1.094774   2.072690   2.563923   3.052352   4.197557
    42  H    3.342742   2.085450   1.095057   2.164212   2.838629
    43  H    2.601615   2.083064   1.096115   2.179298   2.784698
    44  H    3.741627   2.733376   2.163013   1.097165   2.162804
    45  H    3.030240   2.674797   2.156508   1.097274   2.143664
    46  H    4.666768   4.112333   2.785490   2.163726   1.096181
    47  H    5.283195   4.603571   3.480926   2.145430   1.096556
    48  H    6.520037   5.527713   4.138083   3.489177   2.157068
    49  H    5.366707   4.252567   2.881806   2.874005   2.174962
    50  H    5.815392   4.618901   3.467978   2.780720   2.169530
                   11         12         13         14         15
    11  C    0.000000
    12  C    5.068630   0.000000
    13  O    4.674686   1.225893   0.000000
    14  N    6.416898   1.373999   2.291224   0.000000
    15  C    7.354516   2.433058   2.764395   1.453844   0.000000
    16  F    7.486356   3.015268   3.064498   2.303469   1.362384
    17  F    8.595570   3.553307   4.086453   2.280678   1.367697
    18  C    7.468226   3.017235   2.876415   2.572482   1.558724
    19  F    6.797344   3.128410   2.443589   3.195733   2.394848
    20  O    7.206516   3.081316   3.054724   2.913687   2.527758
    21  C    8.267963   3.970476   4.256958   3.481846   3.148377
    22  F    8.115182   4.372551   4.724763   4.148691   4.206522
    23  F    8.591914   3.861225   4.461325   2.982335   2.746286
    24  F    9.381356   5.151304   5.277740   4.595331   3.923840
    25  C    8.935906   4.491026   4.339352   3.817122   2.486680
    26  F    9.834152   5.083952   5.218738   4.141100   2.918546
    27  F    9.322647   4.987503   4.747084   4.283710   2.840003
    28  F    9.357144   5.359778   5.005143   4.914929   3.702110
    29  C    6.982844   2.365151   3.434142   1.382196   2.405068
    30  O    8.065522   3.458678   4.385983   2.306291   2.721693
    31  H    9.109041   6.873913   8.002027   6.551484   7.730728
    32  H   10.710889   8.208052   9.391595   7.721702   8.802787
    33  H    9.373446   7.135392   8.315230   6.837629   8.063752
    34  H   10.589663   7.142215   8.363366   6.388537   7.281866
    35  H   10.236896   6.756227   7.927149   5.962208   6.800518
    36  H    9.017284   4.938372   6.137277   4.044737   4.886624
    37  H    8.270198   5.043036   6.260745   4.585880   5.752285
    38  H    7.111499   4.576576   5.679495   4.399102   5.681164
    39  H    8.071166   4.596615   5.679806   3.964425   4.928376
    40  H    6.164842   2.849171   3.967126   2.893762   4.219448
    41  H    5.335699   3.306459   4.322923   3.700727   5.154110
    42  H    2.840210   2.587592   2.440950   3.922850   4.906558
    43  H    3.464058   3.288049   3.731411   4.353734   5.635212
    44  H    2.783384   3.158868   3.082163   4.293559   5.293772
    45  H    3.473350   3.691703   4.132964   4.613281   5.901085
    46  H    2.150638   5.188234   5.303540   6.380033   7.613100
    47  H    2.138629   5.433384   5.395773   6.598427   7.719868
    48  H    1.094777   6.160221   5.754195   7.507355   8.446945
    49  H    1.093862   4.803658   4.379362   6.170574   7.071829
    50  H    1.094557   4.934670   4.347035   6.262923   7.044983
                   16         17         18         19         20
    16  F    0.000000
    17  F    2.168521   0.000000
    18  C    2.388442   2.349760   0.000000
    19  F    2.628721   3.500713   1.376050   0.000000
    20  O    3.645428   3.156423   1.438004   2.205809   0.000000
    21  C    4.426892   3.197333   2.389791   3.490003   1.401442
    22  F    5.523983   4.334787   3.531843   4.429186   2.228451
    23  F    4.064449   2.352290   2.681773   3.992323   2.250650
    24  F    5.045585   3.765766   2.905648   3.935103   2.247626
    25  C    2.955486   2.591503   1.534550   2.317940   2.526566
    26  F    3.601648   2.351677   2.410567   3.537593   3.034033
    27  F    2.657021   2.939656   2.402011   2.729841   3.694358
    28  F    4.152836   3.906314   2.378496   2.713174   2.885905
    29  C    2.921067   2.643285   3.799793   4.494733   4.176146
    30  O    2.931789   2.480107   4.247916   5.031186   4.873229
    31  H    8.079325   7.643173   9.060545   9.716406   9.086700
    32  H    9.260236   8.484531  10.101959  10.917116  10.058783
    33  H    8.680301   7.914478   9.217953   9.985565   8.981763
    34  H    7.946809   6.723278   8.469880   9.483733   8.369713
    35  H    7.182047   6.303651   8.183640   9.081374   8.362618
    36  H    5.634611   4.382705   6.067744   7.089503   6.042225
    37  H    6.575391   5.578152   6.788025   7.661415   6.487408
    38  H    6.036671   5.862832   6.961660   7.493661   7.014262
    39  H    5.112822   4.845876   6.392488   7.043844   6.737323
    40  H    5.190060   4.583580   4.906352   5.553961   4.387737
    41  H    5.774456   5.698806   6.034399   6.406664   5.734192
    42  H    5.401483   6.061987   4.969296   4.627104   4.526383
    43  H    6.284054   6.548582   5.968042   5.957683   5.388157
    44  H    5.232197   6.453190   5.882713   5.423548   6.008420
    45  H    6.054648   6.833112   6.694431   6.550001   6.646497
    46  H    7.923650   8.658895   8.003679   7.676621   7.619687
    47  H    7.723554   8.832977   8.242318   7.752722   8.155246
    48  H    8.560226   9.689936   8.527765   7.817023   8.230702
    49  H    7.367599   8.300679   7.008936   6.375856   6.574420
    50  H    7.005554   8.343542   7.140336   6.324943   7.060622
                   21         22         23         24         25
    21  C    0.000000
    22  F    1.345822   0.000000
    23  F    1.339423   2.176898   0.000000
    24  F    1.339411   2.185809   2.201558   0.000000
    25  C    2.931824   4.241070   3.154708   2.758136   0.000000
    26  F    2.791636   4.105214   2.650295   2.408378   1.351454
    27  F    4.228949   5.545272   4.252184   4.083852   1.351300
    28  F    3.279311   4.421302   3.928007   2.688965   1.358060
    29  C    4.464266   5.053335   3.619017   5.561891   4.819840
    30  O    5.032337   5.792629   4.010158   5.948064   4.932462
    31  H    9.030724   9.062377   8.031647  10.206249  10.067327
    32  H    9.777243   9.746383   8.685744  10.866477  10.978874
    33  H    8.730087   8.528288   7.781120   9.901141  10.246209
    34  H    7.860356   7.872567   6.687609   8.826197   9.179262
    35  H    8.080746   8.334267   6.871936   9.061343   8.875039
    36  H    5.642262   5.843321   4.460206   6.652706   6.815172
    37  H    6.170869   6.027029   5.224378   7.336918   7.793427
    38  H    7.174911   7.286812   6.320928   8.410095   8.100124
    39  H    6.846393   7.252782   5.814675   7.937625   7.284765
    40  H    4.428397   4.205163   3.932140   5.749537   6.199692
    41  H    6.040972   5.887515   5.561427   7.371496   7.412108
    42  H    5.477529   5.333862   5.779289   6.653023   6.494048
    43  H    5.993593   5.617661   6.048984   7.285180   7.489393
    44  H    7.035156   7.222358   7.000636   8.203169   7.306528
    45  H    7.407912   7.414342   7.173491   8.687992   8.146574
    46  H    8.415923   8.103617   8.501181   9.670929   9.531326
    47  H    9.108373   9.035126   9.125575  10.327245   9.711575
    48  H    9.283093   9.066191   9.642219  10.382522   9.985767
    49  H    7.596767   7.338590   8.039720   8.680391   8.481088
    50  H    8.235927   8.249223   8.573101   9.282831   8.541961
                   26         27         28         29         30
    26  F    0.000000
    27  F    2.175721   0.000000
    28  F    2.167576   2.175533   0.000000
    29  C    4.889026   5.125768   6.037562   0.000000
    30  O    4.827474   5.014707   6.252078   1.228906   0.000000
    31  H    9.859841  10.367472  11.274622   5.331379   5.413725
    32  H   10.573228  11.337538  12.181330   6.482324   6.418746
    33  H    9.931607  10.759110  11.357213   5.773738   6.036459
    34  H    8.587928   9.653452  10.337562   5.242325   5.104886
    35  H    8.410394   9.117677  10.139787   4.636716   4.254635
    36  H    6.326659   7.315161   7.984527   2.983009   2.957616
    37  H    7.462615   8.425370   8.855980   3.696008   4.139023
    38  H    8.094893   8.420419   9.265237   3.308287   3.730416
    39  H    7.169386   7.423348   8.561432   2.610207   2.442003
    40  H    6.228872   6.975124   7.083830   2.802937   3.878929
    41  H    7.605484   7.979484   8.357186   3.315102   4.339839
    42  H    7.233494   7.103382   6.990399   4.698463   5.879050
    43  H    7.978138   8.181237   8.117714   4.708598   5.914640
    44  H    8.095462   7.499720   8.062250   4.594986   5.535962
    45  H    8.705770   8.460435   9.012402   4.509194   5.470502
    46  H   10.192401  10.021893  10.133704   6.599438   7.699998
    47  H   10.481781   9.970426  10.383492   6.744523   7.703174
    48  H   10.901624  10.368706  10.356844   8.044975   9.123576
    49  H    9.358617   9.000708   8.801909   6.879139   8.023815
    50  H    9.534128   8.797797   8.952349   6.893824   7.899645
                   31         32         33         34         35
    31  H    0.000000
    32  H    1.766094   0.000000
    33  H    1.775778   1.771462   0.000000
    34  H    3.061672   2.433311   2.522600   0.000000
    35  H    2.488734   2.499367   3.068611   1.760241   0.000000
    36  H    3.871063   4.281968   3.750135   2.406330   2.499791
    37  H    3.219952   3.757392   2.564887   2.491224   3.068561
    38  H    2.332802   3.886358   3.081644   3.864169   3.204171
    39  H    3.057848   4.274700   4.046448   3.729894   2.536424
    40  H    5.168781   6.194875   4.829784   5.046109   5.250410
    41  H    4.313718   5.686227   4.310479   5.267990   5.155494
    42  H    7.828456   9.263438   7.884544   8.589209   8.410602
    43  H    6.635455   7.995164   6.482834   7.519279   7.529527
    44  H    7.122097   8.791029   7.715306   8.583242   7.938714
    45  H    5.707594   7.373608   6.221127   7.440312   6.907437
    46  H    7.537473   9.069388   7.659999   9.208754   8.995892
    47  H    7.777438   9.454223   8.281387   9.757909   9.228073
    48  H    9.838368  11.437695  10.082438  11.456050  11.124799
    49  H    9.312238  10.831857   9.402154  10.506971  10.302652
    50  H    9.444819  11.093661   9.858581  10.908158  10.416019
                   36         37         38         39         40
    36  H    0.000000
    37  H    1.754956   0.000000
    38  H    3.077327   2.510703   0.000000
    39  H    2.532814   3.068449   1.762979   0.000000
    40  H    3.272175   2.625424   3.290677   3.925111   0.000000
    41  H    3.946204   2.960720   2.308338   3.560407   1.792685
    42  H    6.730446   6.185994   5.621086   6.338279   3.727050
    43  H    6.014087   5.071255   4.657035   5.771439   2.913855
    44  H    6.889073   6.489623   4.957374   5.572861   4.660043
    45  H    6.110634   5.375805   3.733283   4.808710   3.994069
    46  H    8.011699   6.951502   5.826158   7.138119   5.270669
    47  H    8.504993   7.675887   6.038780   7.137639   6.125088
    48  H    9.989784   9.147508   7.956643   9.009287   7.118458
    49  H    8.855206   8.098971   7.263342   8.209833   5.812357
    50  H    9.202193   8.647130   7.355822   8.108819   6.505212
                   41         42         43         44         45
    41  H    0.000000
    42  H    3.591718   0.000000
    43  H    2.402039   1.764087   0.000000
    44  H    3.723594   2.492449   3.080908   0.000000
    45  H    2.534741   3.064457   2.547963   1.754429   0.000000
    46  H    4.077830   3.179942   2.566202   3.070212   2.501280
    47  H    4.770250   3.840924   3.757613   2.495932   2.403004
    48  H    6.207601   3.866890   4.310361   3.758115   4.280817
    49  H    5.266776   2.318314   3.090883   3.220575   3.873786
    50  H    5.744732   3.063643   4.074983   2.564245   3.747735
                   46         47         48         49         50
    46  H    0.000000
    47  H    1.760314   0.000000
    48  H    2.500365   2.431818   0.000000
    49  H    2.487986   3.061358   1.765919   0.000000
    50  H    3.068676   2.523240   1.771470   1.775814   0.000000
 Symmetry turned off by external request.
 Stoichiometry    C15H20F9N3O3(1+,2)
 Framework group  C1[X(C15H20F9N3O3)]
 Deg. of freedom   144
 Full point group                 C1      NOp   1
 Rotational constants (GHZ):      0.1840897      0.1114761      0.0862790
 Leave Link  202 at Sun Mar  3 18:02:39 2024, MaxMem=  5368709120 cpu:         0.1
 (Enter /home/k0335/k033513/app/g09/l301.exe)
 Standard basis: 6-31G(d,p) (6D, 7F)
 Ernie: Thresh=  0.10000D-02 Tol=  0.10000D-05 Strict=F.
   550 basis functions,   980 primitive gaussians,   550 cartesian basis functions
   118 alpha electrons      117 beta electrons
       nuclear repulsion energy      3683.0865397823 Hartrees.
 IExCor=20419 DFT=T Ex+Corr=CAM-B3LYP ExCW=0 ScaHFX=  1.000000
 ScaDFX=  1.000000  1.000000  1.000000  0.810000 ScalE2=  1.000000  1.000000
 IRadAn=      0 IRanWt=     -1 IRanGd=            0 ICorTp=0 IEmpDi=  4
  HFx wShort=  0.000000 wLong=  0.330000 cFull=  0.190000 cShort=  0.000000 cLong=  0.460000
  DFx wShort=  0.000000 wLong=  0.330000 cFull=  0.190000 cShort=  0.000000 cLong=  0.460000
 NAtoms=   50 NActive=   50 NUniq=   50 SFac= 1.00D+00 NAtFMM=   60 NAOKFM=F Big=F
 Integral buffers will be    131072 words long.
 Raffenetti 2 integral format.
 Two-electron integral symmetry is turned off.
 Using the following non-standard input for PCM:
 eps=4.9
 --- end of non-standard input.
 ------------------------------------------------------------------------------
 Polarizable Continuum Model (PCM)
 =================================
 Model                : PCM (using non-symmetric T matrix).
 Atomic radii         : UFF (Universal Force Field).
 Polarization charges : Total charges.
 Charge compensation  : None.
 Solution method      : On-the-fly selection.
 Cavity type          : Scaled VdW (van der Waals Surface) (Alpha=1.100).
 Cavity algorithm     : GePol (No added spheres)
                        Default sphere list used, NSphG=   50.
                        Lebedev-Laikov grids with approx.  5.0 points / Ang**2.
                        Smoothing algorithm: Karplus/York (Gamma=1.0000).
                        Polarization charges: spherical gaussians, with
                                              point-specific exponents (IZeta= 3).
                        Self-potential: point-specific (ISelfS= 7).
                        Self-field    : sphere-specific E.n sum rule (ISelfD= 2).
 Solvent              : Generic,
                        Eps                           =   4.900000
                        Eps(infinity)                 =   0.000000
                        RSolv                         =   0.000000 Ang.
                        Molar volume                  =   0.000000 cm**3/mol
                        Thermal expansion coefficient =   0.000000 K**-1
                        Absolute temperature          = 298.150000 K
                        Numeral density               =   0.000000 Ang**-3
                        Hydrogen bond acidity         =   0.000000
                        Hydrogen bond basicity        =   0.000000
                        Surface tension at interface  =   0.000000 (cal/mol)*Ang**-2
                        Carbon aromaticity            =   0.000000
                        Electronegative halogenicity  =   0.000000
 ------------------------------------------------------------------------------
 GePol: Number of generator spheres                  =      50
 GePol: Total number of spheres                      =      50
 GePol: Number of exposed spheres                    =      49 ( 98.00%)
 GePol: Number of points                             =    3561
 GePol: Average weight of points                     =       0.13
 GePol: Minimum weight of points                     =   0.11D-11
 GePol: Maximum weight of points                     =    0.20577
 GePol: Number of points with low weight             =     191
 GePol: Fraction of low-weight points (<1% of avg)   =       5.36%
 GePol: Cavity surface area                          =    457.982 Ang**2
 GePol: Cavity volume                                =    511.243 Ang**3
 Leave Link  301 at Sun Mar  3 18:02:39 2024, MaxMem=  5368709120 cpu:         1.0
 (Enter /home/k0335/k033513/app/g09/l302.exe)
 NPDir=0 NMtPBC=     1 NCelOv=     1 NCel=       1 NClECP=     1 NCelD=      1
         NCelK=      1 NCelE2=     1 NClLst=     1 CellRange=     0.0.
 One-electron integrals computed using PRISM.
 NBasis=   550 RedAO= T EigKep=  1.06D-03  NBF=   550
 NBsUse=   550 1.00D-06 EigRej= -1.00D+00 NBFU=   550
 Precomputing XC quadrature grid using
 IXCGrd= 4 IRadAn=           0 IRanWt=          -1 IRanGd=           0 AccXCQ= 0.00D+00.
 Generated NRdTot=       0 NPtTot=           0 NUsed=           0 NTot=          32
 NSgBfM=   532   532   532   532   532 MxSgAt=    50 MxSgA2=    50.
 Leave Link  302 at Sun Mar  3 18:02:39 2024, MaxMem=  5368709120 cpu:        11.6
 (Enter /home/k0335/k033513/app/g09/l303.exe)
 DipDrv:  MaxL=1.
 Leave Link  303 at Sun Mar  3 18:02:39 2024, MaxMem=  5368709120 cpu:         1.0
 (Enter /home/k0335/k033513/app/g09/l401.exe)
 ExpMin= 1.61D-01 ExpMax= 7.00D+03 ExpMxC= 1.05D+03 IAcc=1 IRadAn=         1 AccDes= 0.00D+00
 Harris functional with IExCor=20419 and IRadAn=       1 diagonalized for initial guess.
 HarFok:  IExCor=20419 AccDes= 0.00D+00 IRadAn=         1 IDoV= 1 UseB2=F ITyADJ=14
 ICtDFT=  3500011 ScaDFX=  1.000000  1.000000  1.000000  1.000000
 FoFCou: FMM=F IPFlag=           0 FMFlag=      100000 FMFlg1=           0
         NFxFlg=           0 DoJE=T BraDBF=F KetDBF=T FulRan=T
         wScrn=  0.000000 ICntrl=     500 IOpCl=  0 I1Cent=   200000004 NGrid=           0
         NMat0=    1 NMatS0=      1 NMatT0=    0 NMatD0=    1 NMtDS0=    0 NMtDT0=    0
 Symmetry not used in FoFCou.
 Harris En= -1810.09355106209    
 JPrj=0 DoOrth=F DoCkMO=F.
 Initial guess <Sx>= 0.0000 <Sy>= 0.0000 <Sz>= 0.5000 <S**2>= 0.7500 S= 0.5000
 Leave Link  401 at Sun Mar  3 18:02:40 2024, MaxMem=  5368709120 cpu:        25.8
 (Enter /home/k0335/k033513/app/g09/l502.exe)
 UHF open shell SCF:
 Using DIIS extrapolation, IDIIS=  1040.
 Two-electron integral symmetry not used.
 IVT=      942650 IEndB=      942650 NGot=  5368709120 MDV=  5368086161
 LenX=  5368086161 LenY=  5367783111
 Requested convergence on RMS density matrix=1.00D-08 within 128 cycles.
 Requested convergence on MAX density matrix=1.00D-06.
 Requested convergence on             energy=1.00D-06.
 No special actions if energy rises.
 Fock matrices will be formed incrementally for  20 cycles.

 Cycle   1  Pass 1  IDiag  1:
 FoFJK:  IHMeth= 1 ICntrl=       0 DoSepK=T KAlg= 0 I1Cent=   0 FoldK=F
 IRaf=         1 NMat=   1 IRICut=       1 DoRegI=T DoRafI=F ISym2E= 0.
 FoFCou: FMM=F IPFlag=           0 FMFlag=      100000 FMFlg1=           0
         NFxFlg=           0 DoJE=T BraDBF=F KetDBF=F FulRan=T
         wScrn=  0.000000 ICntrl=     500 IOpCl=  0 I1Cent=           0 NGrid=           0
         NMat0=    1 NMatS0=      1 NMatT0=    0 NMatD0=    1 NMtDS0=    0 NMtDT0=    0
 Symmetry not used in FoFCou.
 Inv3:  Mode=1 IEnd=    38042163.
 Iteration    1 A*A^-1 deviation from unit magnitude is 8.66D-15 for   3541.
 Iteration    1 A*A^-1 deviation from orthogonality  is 7.07D-15 for   3549   3070.
 Iteration    1 A^-1*A deviation from unit magnitude is 8.88D-15 for   3541.
 Iteration    1 A^-1*A deviation from orthogonality  is 2.12D-11 for   3269   3098.
 E= -1870.42201074498    
 DIIS: error= 6.49D-02 at cycle   1 NSaved=   1.
 NSaved= 1 IEnMin= 1 EnMin= -1870.42201074498     IErMin= 1 ErrMin= 6.49D-02
 ErrMax= 6.49D-02  0.00D+00 EMaxC= 1.00D-01 BMatC= 6.84D+00 BMatP= 6.84D+00
 IDIUse=3 WtCom= 3.51D-01 WtEn= 6.49D-01
 Coeff-Com:  0.100D+01
 Coeff-En:   0.100D+01
 Coeff:      0.100D+01
 Gap=     0.656 Goal=   None    Shift=    0.000
 Gap=    -0.059 Goal=   None    Shift=    0.000
 GapD=   -0.059 DampG=0.250 DampE=0.500 DampFc=0.2500 IDamp=-1.
 Damping current iteration by 2.50D-01
 RMSDP=3.17D-03 MaxDP=1.34D-01              OVMax= 6.15D-01

 Cycle   2  Pass 1  IDiag  1:
 RMSU=  7.93D-04    CP:  1.00D+00
 E= -1870.68209565235     Delta-E=       -0.260084907373 Rises=F Damp=T
 DIIS: error= 4.70D-02 at cycle   2 NSaved=   2.
 NSaved= 2 IEnMin= 2 EnMin= -1870.68209565235     IErMin= 2 ErrMin= 4.70D-02
 ErrMax= 4.70D-02  0.00D+00 EMaxC= 1.00D-01 BMatC= 2.85D+00 BMatP= 6.84D+00
 IDIUse=3 WtCom= 5.30D-01 WtEn= 4.70D-01
 Coeff-Com: -0.146D+01 0.246D+01
 Coeff-En:   0.000D+00 0.100D+01
 Coeff:     -0.774D+00 0.177D+01
 Gap=     0.463 Goal=   None    Shift=    0.000
 Gap=    -0.003 Goal=   None    Shift=    0.000
 RMSDP=1.93D-03 MaxDP=1.32D-01 DE=-2.60D-01 OVMax= 6.47D-01

 Cycle   3  Pass 1  IDiag  1:
 RMSU=  1.38D-03    CP:  9.98D-01  2.70D+00
 E= -1871.15303533255     Delta-E=       -0.470939680196 Rises=F Damp=F
 DIIS: error= 5.91D-03 at cycle   3 NSaved=   3.
 NSaved= 3 IEnMin= 3 EnMin= -1871.15303533255     IErMin= 3 ErrMin= 5.91D-03
 ErrMax= 5.91D-03  0.00D+00 EMaxC= 1.00D-01 BMatC= 3.96D-01 BMatP= 2.85D+00
 IDIUse=3 WtCom= 9.41D-01 WtEn= 5.91D-02
 Coeff-Com: -0.464D+00 0.844D+00 0.619D+00
 Coeff-En:   0.000D+00 0.000D+00 0.100D+01
 Coeff:     -0.436D+00 0.794D+00 0.642D+00
 Gap=     0.510 Goal=   None    Shift=    0.000
 Gap=     0.039 Goal=   None    Shift=    0.000
 RMSDP=8.65D-04 MaxDP=6.81D-02 DE=-4.71D-01 OVMax= 2.62D-01

 Cycle   4  Pass 1  IDiag  1:
 RMSU=  8.45D-04    CP:  9.97D-01  2.61D+00  8.77D-01
 E= -1871.22576930696     Delta-E=       -0.072733974414 Rises=F Damp=F
 DIIS: error= 3.52D-03 at cycle   4 NSaved=   4.
 NSaved= 4 IEnMin= 4 EnMin= -1871.22576930696     IErMin= 4 ErrMin= 3.52D-03
 ErrMax= 3.52D-03  0.00D+00 EMaxC= 1.00D-01 BMatC= 9.71D-02 BMatP= 3.96D-01
 IDIUse=3 WtCom= 9.65D-01 WtEn= 3.52D-02
 Coeff-Com: -0.808D-01 0.142D+00 0.303D+00 0.635D+00
 Coeff-En:   0.000D+00 0.000D+00 0.887D-01 0.911D+00
 Coeff:     -0.779D-01 0.137D+00 0.296D+00 0.645D+00
 Gap=     0.354 Goal=   None    Shift=    0.000
 Gap=     0.104 Goal=   None    Shift=    0.000
 RMSDP=3.71D-04 MaxDP=5.60D-02 DE=-7.27D-02 OVMax= 1.20D-01

 Cycle   5  Pass 1  IDiag  1:
 RMSU=  2.83D-04    CP:  9.96D-01  2.65D+00  9.35D-01  7.37D-01
 E= -1871.24433982320     Delta-E=       -0.018570516238 Rises=F Damp=F
 DIIS: error= 2.15D-03 at cycle   5 NSaved=   5.
 NSaved= 5 IEnMin= 5 EnMin= -1871.24433982320     IErMin= 5 ErrMin= 2.15D-03
 ErrMax= 2.15D-03  0.00D+00 EMaxC= 1.00D-01 BMatC= 2.29D-02 BMatP= 9.71D-02
 IDIUse=3 WtCom= 9.78D-01 WtEn= 2.15D-02
 Coeff-Com: -0.410D-01 0.581D-01 0.926D-01 0.362D+00 0.529D+00
 Coeff-En:   0.000D+00 0.000D+00 0.000D+00 0.720D-01 0.928D+00
 Coeff:     -0.401D-01 0.569D-01 0.906D-01 0.355D+00 0.537D+00
 Gap=     0.345 Goal=   None    Shift=    0.000
 Gap=     0.107 Goal=   None    Shift=    0.000
 RMSDP=1.27D-04 MaxDP=1.46D-02 DE=-1.86D-02 OVMax= 3.12D-02

 Cycle   6  Pass 1  IDiag  1:
 RMSU=  1.00D-04    CP:  9.97D-01  2.68D+00  9.30D-01  8.10D-01  8.44D-01
 E= -1871.24937164937     Delta-E=       -0.005031826165 Rises=F Damp=F
 DIIS: error= 5.48D-04 at cycle   6 NSaved=   6.
 NSaved= 6 IEnMin= 6 EnMin= -1871.24937164937     IErMin= 6 ErrMin= 5.48D-04
 ErrMax= 5.48D-04  0.00D+00 EMaxC= 1.00D-01 BMatC= 1.01D-03 BMatP= 2.29D-02
 IDIUse=3 WtCom= 9.95D-01 WtEn= 5.48D-03
 Coeff-Com: -0.166D-01 0.202D-01-0.373D-01-0.112D-01 0.609D-01 0.984D+00
 Coeff-En:   0.000D+00 0.000D+00 0.000D+00 0.000D+00 0.000D+00 0.100D+01
 Coeff:     -0.165D-01 0.201D-01-0.371D-01-0.111D-01 0.606D-01 0.984D+00
 Gap=     0.345 Goal=   None    Shift=    0.000
 Gap=     0.116 Goal=   None    Shift=    0.000
 RMSDP=7.61D-05 MaxDP=5.85D-03 DE=-5.03D-03 OVMax= 2.21D-02

 Cycle   7  Pass 1  IDiag  1:
 RMSU=  4.17D-05    CP:  9.96D-01  2.69D+00  9.30D-01  8.28D-01  1.02D+00
                    CP:  1.36D+00
 E= -1871.25026669727     Delta-E=       -0.000895047903 Rises=F Damp=F
 DIIS: error= 2.98D-04 at cycle   7 NSaved=   7.
 NSaved= 7 IEnMin= 7 EnMin= -1871.25026669727     IErMin= 7 ErrMin= 2.98D-04
 ErrMax= 2.98D-04  0.00D+00 EMaxC= 1.00D-01 BMatC= 5.09D-04 BMatP= 1.01D-03
 IDIUse=3 WtCom= 9.97D-01 WtEn= 2.98D-03
 Coeff-Com: -0.108D-01 0.143D-01-0.375D-01-0.602D-01-0.874D-01 0.425D+00
 Coeff-Com:  0.757D+00
 Coeff-En:   0.000D+00 0.000D+00 0.000D+00 0.000D+00 0.000D+00 0.000D+00
 Coeff-En:   0.100D+01
 Coeff:     -0.108D-01 0.143D-01-0.373D-01-0.600D-01-0.872D-01 0.424D+00
 Coeff:      0.757D+00
 Gap=     0.344 Goal=   None    Shift=    0.000
 Gap=     0.118 Goal=   None    Shift=    0.000
 RMSDP=4.34D-05 MaxDP=3.31D-03 DE=-8.95D-04 OVMax= 1.27D-02

 Cycle   8  Pass 1  IDiag  1:
 RMSU=  2.40D-05    CP:  9.96D-01  2.69D+00  9.28D-01  8.27D-01  1.09D+00
                    CP:  1.62D+00  1.28D+00
 E= -1871.25060155415     Delta-E=       -0.000334856879 Rises=F Damp=F
 DIIS: error= 1.68D-04 at cycle   8 NSaved=   8.
 NSaved= 8 IEnMin= 8 EnMin= -1871.25060155415     IErMin= 8 ErrMin= 1.68D-04
 ErrMax= 1.68D-04  0.00D+00 EMaxC= 1.00D-01 BMatC= 1.57D-04 BMatP= 5.09D-04
 IDIUse=3 WtCom= 9.98D-01 WtEn= 1.68D-03
 Coeff-Com: -0.287D-02 0.402D-02-0.973D-02-0.165D-01-0.701D-01-0.999D-01
 Coeff-Com:  0.313D+00 0.882D+00
 Coeff-En:   0.000D+00 0.000D+00 0.000D+00 0.000D+00 0.000D+00 0.000D+00
 Coeff-En:   0.000D+00 0.100D+01
 Coeff:     -0.287D-02 0.401D-02-0.972D-02-0.164D-01-0.700D-01-0.997D-01
 Coeff:      0.312D+00 0.882D+00
 Gap=     0.343 Goal=   None    Shift=    0.000
 Gap=     0.119 Goal=   None    Shift=    0.000
 RMSDP=3.61D-05 MaxDP=2.69D-03 DE=-3.35D-04 OVMax= 1.01D-02

 Cycle   9  Pass 1  IDiag  1:
 RMSU=  1.37D-05    CP:  9.96D-01  2.70D+00  9.27D-01  8.26D-01  1.15D+00
                    CP:  1.81D+00  1.77D+00  1.46D+00
 E= -1871.25076624758     Delta-E=       -0.000164693431 Rises=F Damp=F
 DIIS: error= 1.31D-04 at cycle   9 NSaved=   9.
 NSaved= 9 IEnMin= 9 EnMin= -1871.25076624758     IErMin= 9 ErrMin= 1.31D-04
 ErrMax= 1.31D-04  0.00D+00 EMaxC= 1.00D-01 BMatC= 5.53D-05 BMatP= 1.57D-04
 IDIUse=3 WtCom= 9.99D-01 WtEn= 1.31D-03
 Coeff-Com:  0.158D-03-0.124D-03 0.322D-02 0.115D-01-0.228D-01-0.153D+00
 Coeff-Com: -0.379D-01 0.403D+00 0.796D+00
 Coeff-En:   0.000D+00 0.000D+00 0.000D+00 0.000D+00 0.000D+00 0.000D+00
 Coeff-En:   0.000D+00 0.000D+00 0.100D+01
 Coeff:      0.158D-03-0.123D-03 0.322D-02 0.114D-01-0.227D-01-0.153D+00
 Coeff:     -0.378D-01 0.403D+00 0.796D+00
 Gap=     0.342 Goal=   None    Shift=    0.000
 Gap=     0.120 Goal=   None    Shift=    0.000
 RMSDP=2.51D-05 MaxDP=2.21D-03 DE=-1.65D-04 OVMax= 9.93D-03

 Cycle  10  Pass 1  IDiag  1:
 RMSU=  9.17D-06    CP:  9.96D-01  2.70D+00  9.27D-01  8.21D-01  1.17D+00
                    CP:  1.90D+00  2.06D+00  1.99D+00  1.64D+00
 E= -1871.25084390095     Delta-E=       -0.000077653367 Rises=F Damp=F
 DIIS: error= 1.05D-04 at cycle  10 NSaved=  10.
 NSaved=10 IEnMin=10 EnMin= -1871.25084390095     IErMin=10 ErrMin= 1.05D-04
 ErrMax= 1.05D-04  0.00D+00 EMaxC= 1.00D-01 BMatC= 2.89D-05 BMatP= 5.53D-05
 IDIUse=3 WtCom= 9.99D-01 WtEn= 1.05D-03
 Coeff-Com:  0.162D-03-0.304D-03 0.624D-03 0.678D-02-0.418D-02 0.184D-01
 Coeff-Com: -0.663D-01-0.198D+00 0.300D+00 0.943D+00
 Coeff-En:   0.000D+00 0.000D+00 0.000D+00 0.000D+00 0.000D+00 0.000D+00
 Coeff-En:   0.000D+00 0.000D+00 0.000D+00 0.100D+01
 Coeff:      0.162D-03-0.304D-03 0.623D-03 0.677D-02-0.417D-02 0.183D-01
 Coeff:     -0.662D-01-0.197D+00 0.299D+00 0.943D+00
 Gap=     0.340 Goal=   None    Shift=    0.000
 Gap=     0.120 Goal=   None    Shift=    0.000
 RMSDP=2.21D-05 MaxDP=1.53D-03 DE=-7.77D-05 OVMax= 1.11D-02

 Cycle  11  Pass 1  IDiag  1:
 RMSU=  4.69D-06    CP:  9.96D-01  2.70D+00  9.28D-01  8.15D-01  1.19D+00
                    CP:  1.94D+00  2.27D+00  2.40D+00  2.58D+00  1.85D+00
 E= -1871.25089892598     Delta-E=       -0.000055025032 Rises=F Damp=F
 DIIS: error= 1.00D-04 at cycle  11 NSaved=  11.
 NSaved=11 IEnMin=11 EnMin= -1871.25089892598     IErMin=11 ErrMin= 1.00D-04
 ErrMax= 1.00D-04  0.00D+00 EMaxC= 1.00D-01 BMatC= 1.76D-05 BMatP= 2.89D-05
 IDIUse=3 WtCom= 9.99D-01 WtEn= 1.00D-03
 Coeff-Com: -0.568D-03 0.661D-03-0.356D-02-0.290D-02-0.812D-02 0.907D-01
 Coeff-Com:  0.205D-01-0.282D+00-0.177D+00 0.741D-01 0.129D+01
 Coeff-En:   0.000D+00 0.000D+00 0.000D+00 0.000D+00 0.000D+00 0.000D+00
 Coeff-En:   0.000D+00 0.000D+00 0.000D+00 0.000D+00 0.100D+01
 Coeff:     -0.567D-03 0.661D-03-0.355D-02-0.290D-02-0.811D-02 0.906D-01
 Coeff:      0.205D-01-0.281D+00-0.177D+00 0.740D-01 0.129D+01
 Gap=     0.339 Goal=   None    Shift=    0.000
 Gap=     0.121 Goal=   None    Shift=    0.000
 RMSDP=2.93D-05 MaxDP=2.25D-03 DE=-5.50D-05 OVMax= 1.67D-02

 Cycle  12  Pass 1  IDiag  1:
 RMSU=  1.25D-05    CP:  9.96D-01  2.70D+00  9.30D-01  8.06D-01  1.21D+00
                    CP:  1.97D+00  2.50D+00  2.88D+00  3.00D+00  3.00D+00
                    CP:  2.44D+00
 E= -1871.25096011240     Delta-E=       -0.000061186418 Rises=F Damp=F
 DIIS: error= 9.00D-05 at cycle  12 NSaved=  12.
 NSaved=12 IEnMin=12 EnMin= -1871.25096011240     IErMin=12 ErrMin= 9.00D-05
 ErrMax= 9.00D-05  0.00D+00 EMaxC= 1.00D-01 BMatC= 1.46D-05 BMatP= 1.76D-05
 IDIUse=1 WtCom= 1.00D+00 WtEn= 0.00D+00
 Coeff-Com: -0.462D-03 0.541D-03-0.388D-02-0.477D-02-0.157D-01 0.324D-01
 Coeff-Com:  0.750D-01-0.511D-02-0.160D+00-0.793D+00 0.852D+00 0.102D+01
 Coeff:     -0.462D-03 0.541D-03-0.388D-02-0.477D-02-0.157D-01 0.324D-01
 Coeff:      0.750D-01-0.511D-02-0.160D+00-0.793D+00 0.852D+00 0.102D+01
 Gap=     0.337 Goal=   None    Shift=    0.000
 Gap=     0.121 Goal=   None    Shift=    0.000
 RMSDP=3.00D-05 MaxDP=2.44D-03 DE=-6.12D-05 OVMax= 1.79D-02

 Cycle  13  Pass 1  IDiag  1:
 RMSU=  1.49D-05    CP:  9.96D-01  2.70D+00  9.31D-01  7.96D-01  1.23D+00
                    CP:  2.00D+00  2.69D+00  3.00D+00  3.00D+00  3.00D+00
                    CP:  3.00D+00  2.64D+00
 E= -1871.25101440178     Delta-E=       -0.000054289386 Rises=F Damp=F
 DIIS: error= 9.31D-05 at cycle  13 NSaved=  13.
 NSaved=13 IEnMin=13 EnMin= -1871.25101440178     IErMin=12 ErrMin= 9.00D-05
 ErrMax= 9.31D-05  0.00D+00 EMaxC= 1.00D-01 BMatC= 8.84D-06 BMatP= 1.46D-05
 IDIUse=1 WtCom= 1.00D+00 WtEn= 0.00D+00
 Coeff-Com: -0.209D-03 0.288D-03-0.125D-02-0.569D-03-0.124D-01-0.316D-01
 Coeff-Com:  0.433D-01 0.133D+00 0.953D-01-0.535D+00-0.320D-01-0.278D+00
 Coeff-Com:  0.162D+01
 Coeff:     -0.209D-03 0.288D-03-0.125D-02-0.569D-03-0.124D-01-0.316D-01
 Coeff:      0.433D-01 0.133D+00 0.953D-01-0.535D+00-0.320D-01-0.278D+00
 Coeff:      0.162D+01
 Gap=     0.335 Goal=   None    Shift=    0.000
 Gap=     0.122 Goal=   None    Shift=    0.000
 RMSDP=3.91D-05 MaxDP=3.37D-03 DE=-5.43D-05 OVMax= 2.46D-02

 Cycle  14  Pass 1  IDiag  1:
 RMSU=  2.32D-05    CP:  9.96D-01  2.70D+00  9.33D-01  7.82D-01  1.24D+00
                    CP:  2.02D+00  2.90D+00  3.00D+00  3.00D+00  3.00D+00
                    CP:  3.00D+00  3.00D+00  2.54D+00
 E= -1871.25107474254     Delta-E=       -0.000060340754 Rises=F Damp=F
 DIIS: error= 8.31D-05 at cycle  14 NSaved=  14.
 NSaved=14 IEnMin=14 EnMin= -1871.25107474254     IErMin=14 ErrMin= 8.31D-05
 ErrMax= 8.31D-05  0.00D+00 EMaxC= 1.00D-01 BMatC= 6.67D-06 BMatP= 8.84D-06
 IDIUse=1 WtCom= 1.00D+00 WtEn= 0.00D+00
 Coeff-Com:  0.175D-03-0.249D-03 0.686D-04 0.160D-02-0.397D-02-0.120D-01
 Coeff-Com: -0.399D-02-0.604D-02 0.142D+00 0.134D+00-0.697D-01-0.117D+01
 Coeff-Com:  0.899D+00 0.109D+01
 Coeff:      0.175D-03-0.249D-03 0.686D-04 0.160D-02-0.397D-02-0.120D-01
 Coeff:     -0.399D-02-0.604D-02 0.142D+00 0.134D+00-0.697D-01-0.117D+01
 Coeff:      0.899D+00 0.109D+01
 Gap=     0.333 Goal=   None    Shift=    0.000
 Gap=     0.122 Goal=   None    Shift=    0.000
 RMSDP=3.12D-05 MaxDP=2.81D-03 DE=-6.03D-05 OVMax= 2.00D-02

 Cycle  15  Pass 1  IDiag  1:
 RMSU=  1.21D-05    CP:  9.96D-01  2.70D+00  9.34D-01  7.72D-01  1.26D+00
                    CP:  2.02D+00  3.00D+00  3.00D+00  3.00D+00  3.00D+00
                    CP:  3.00D+00  3.00D+00  3.00D+00  1.96D+00
 E= -1871.25111669026     Delta-E=       -0.000041947717 Rises=F Damp=F
 DIIS: error= 7.69D-05 at cycle  15 NSaved=  15.
 NSaved=15 IEnMin=15 EnMin= -1871.25111669026     IErMin=15 ErrMin= 7.69D-05
 ErrMax= 7.69D-05  0.00D+00 EMaxC= 1.00D-01 BMatC= 4.33D-06 BMatP= 6.67D-06
 IDIUse=1 WtCom= 1.00D+00 WtEn= 0.00D+00
 Coeff-Com: -0.772D-04 0.600D-04-0.548D-03 0.104D-03 0.313D-03 0.422D-01
 Coeff-Com: -0.145D-01-0.172D+00-0.628D-02 0.346D+00 0.433D+00-0.425D+00
 Coeff-Com: -0.936D+00-0.306D+00 0.204D+01
 Coeff:     -0.772D-04 0.600D-04-0.548D-03 0.104D-03 0.313D-03 0.422D-01
 Coeff:     -0.145D-01-0.172D+00-0.628D-02 0.346D+00 0.433D+00-0.425D+00
 Coeff:     -0.936D+00-0.306D+00 0.204D+01
 Gap=     0.331 Goal=   None    Shift=    0.000
 Gap=     0.122 Goal=   None    Shift=    0.000
 RMSDP=4.61D-05 MaxDP=4.30D-03 DE=-4.19D-05 OVMax= 2.98D-02

 Cycle  16  Pass 1  IDiag  1:
 RMSU=  1.09D-05    CP:  9.96D-01  2.70D+00  9.36D-01  7.55D-01  1.27D+00
                    CP:  2.00D+00  3.00D+00  3.00D+00  3.00D+00  3.00D+00
                    CP:  3.00D+00  3.00D+00  3.00D+00  3.00D+00  3.00D+00
 E= -1871.25116810701     Delta-E=       -0.000051416758 Rises=F Damp=F
 DIIS: error= 5.91D-05 at cycle  16 NSaved=  16.
 NSaved=16 IEnMin=16 EnMin= -1871.25116810701     IErMin=16 ErrMin= 5.91D-05
 ErrMax= 5.91D-05  0.00D+00 EMaxC= 1.00D-01 BMatC= 3.05D-06 BMatP= 4.33D-06
 IDIUse=1 WtCom= 1.00D+00 WtEn= 0.00D+00
 Coeff-Com: -0.207D-03 0.209D-03-0.146D-02-0.204D-02-0.299D-02 0.371D-01
 Coeff-Com:  0.144D-01-0.104D+00-0.106D+00-0.151D+00 0.525D+00 0.855D+00
 Coeff-Com: -0.115D+01-0.172D+01 0.147D+01 0.134D+01
 Coeff:     -0.207D-03 0.209D-03-0.146D-02-0.204D-02-0.299D-02 0.371D-01
 Coeff:      0.144D-01-0.104D+00-0.106D+00-0.151D+00 0.525D+00 0.855D+00
 Coeff:     -0.115D+01-0.172D+01 0.147D+01 0.134D+01
 Gap=     0.329 Goal=   None    Shift=    0.000
 Gap=     0.123 Goal=   None    Shift=    0.000
 RMSDP=5.22D-05 MaxDP=5.05D-03 DE=-5.14D-05 OVMax= 3.35D-02

 Cycle  17  Pass 1  IDiag  1:
 RMSU=  3.11D-05    CP:  9.96D-01  2.70D+00  9.36D-01  7.37D-01  1.29D+00
                    CP:  1.99D+00  3.00D+00  3.00D+00  3.00D+00  3.00D+00
                    CP:  3.00D+00  3.00D+00  3.00D+00  3.00D+00  3.00D+00
                    CP:  3.00D+00
 E= -1871.25120666195     Delta-E=       -0.000038554936 Rises=F Damp=F
 DIIS: error= 3.80D-05 at cycle  17 NSaved=  17.
 NSaved=17 IEnMin=17 EnMin= -1871.25120666195     IErMin=17 ErrMin= 3.80D-05
 ErrMax= 3.80D-05  0.00D+00 EMaxC= 1.00D-01 BMatC= 1.16D-06 BMatP= 3.05D-06
 IDIUse=1 WtCom= 1.00D+00 WtEn= 0.00D+00
 Coeff-Com: -0.283D-03 0.374D-03-0.102D-02-0.186D-02-0.240D-02 0.493D-02
 Coeff-Com:  0.282D-01 0.679D-02-0.515D-01-0.312D+00 0.165D+00 0.861D+00
 Coeff-Com: -0.306D+00-0.926D+00-0.956D-03 0.754D+00 0.783D+00
 Coeff:     -0.283D-03 0.374D-03-0.102D-02-0.186D-02-0.240D-02 0.493D-02
 Coeff:      0.282D-01 0.679D-02-0.515D-01-0.312D+00 0.165D+00 0.861D+00
 Coeff:     -0.306D+00-0.926D+00-0.956D-03 0.754D+00 0.783D+00
 Gap=     0.329 Goal=   None    Shift=    0.000
 Gap=     0.123 Goal=   None    Shift=    0.000
 RMSDP=9.99D-06 MaxDP=8.97D-04 DE=-3.86D-05 OVMax= 5.75D-03

 Cycle  18  Pass 1  IDiag  1:
 RMSU=  5.41D-06    CP:  9.96D-01  2.70D+00  9.36D-01  7.34D-01  1.29D+00
                    CP:  1.97D+00  3.00D+00  3.00D+00  3.00D+00  3.00D+00
                    CP:  3.00D+00  3.00D+00  3.00D+00  3.00D+00  3.00D+00
                    CP:  3.00D+00  1.25D+00
 E= -1871.25121182788     Delta-E=       -0.000005165934 Rises=F Damp=F
 DIIS: error= 2.49D-05 at cycle  18 NSaved=  18.
 NSaved=18 IEnMin=18 EnMin= -1871.25121182788     IErMin=18 ErrMin= 2.49D-05
 ErrMax= 2.49D-05  0.00D+00 EMaxC= 1.00D-01 BMatC= 1.23D-06 BMatP= 1.16D-06
 IDIUse=1 WtCom= 1.00D+00 WtEn= 0.00D+00
 Coeff-Com: -0.576D-04 0.883D-04-0.137D-03-0.713D-03-0.456D-03-0.179D-01
 Coeff-Com:  0.210D-01 0.649D-01 0.283D-01-0.254D+00-0.141D+00 0.292D+00
 Coeff-Com:  0.406D+00-0.267D-01-0.826D+00-0.121D+00 0.762D+00 0.813D+00
 Coeff:     -0.576D-04 0.883D-04-0.137D-03-0.713D-03-0.456D-03-0.179D-01
 Coeff:      0.210D-01 0.649D-01 0.283D-01-0.254D+00-0.141D+00 0.292D+00
 Coeff:      0.406D+00-0.267D-01-0.826D+00-0.121D+00 0.762D+00 0.813D+00
 Gap=     0.327 Goal=   None    Shift=    0.000
 Gap=     0.124 Goal=   None    Shift=    0.000
 RMSDP=3.21D-05 MaxDP=3.24D-03 DE=-5.17D-06 OVMax= 2.06D-02

 Cycle  19  Pass 1  IDiag  1:
 RMSU=  6.49D-06    CP:  9.96D-01  2.70D+00  9.36D-01  7.22D-01  1.30D+00
                    CP:  1.95D+00  3.00D+00  3.00D+00  3.00D+00  3.00D+00
                    CP:  3.00D+00  3.00D+00  3.00D+00  3.00D+00  3.00D+00
                    CP:  3.00D+00  2.18D+00  2.29D+00
 E= -1871.25122082470     Delta-E=       -0.000008996817 Rises=F Damp=F
 DIIS: error= 1.11D-05 at cycle  19 NSaved=  19.
 NSaved=19 IEnMin=19 EnMin= -1871.25122082470     IErMin=19 ErrMin= 1.11D-05
 ErrMax= 1.11D-05  0.00D+00 EMaxC= 1.00D-01 BMatC= 4.66D-07 BMatP= 1.16D-06
 IDIUse=1 WtCom= 1.00D+00 WtEn= 0.00D+00
 Coeff-Com:  0.220D-03-0.296D-03 0.436D-03 0.265D-03 0.228D-02-0.560D-02
 Coeff-Com: -0.210D-02-0.463D-02 0.383D-01 0.590D-01-0.725D-01-0.238D+00
 Coeff-Com:  0.122D+00 0.432D+00-0.134D+00-0.346D+00-0.296D+00 0.329D+00
 Coeff-Com:  0.111D+01
 Coeff:      0.220D-03-0.296D-03 0.436D-03 0.265D-03 0.228D-02-0.560D-02
 Coeff:     -0.210D-02-0.463D-02 0.383D-01 0.590D-01-0.725D-01-0.238D+00
 Coeff:      0.122D+00 0.432D+00-0.134D+00-0.346D+00-0.296D+00 0.329D+00
 Coeff:      0.111D+01
 Gap=     0.327 Goal=   None    Shift=    0.000
 Gap=     0.123 Goal=   None    Shift=    0.000
 RMSDP=5.07D-06 MaxDP=4.76D-04 DE=-9.00D-06 OVMax= 2.85D-03

 Cycle  20  Pass 1  IDiag  1:
 RMSU=  1.21D-06    CP:  9.96D-01  2.70D+00  9.36D-01  7.20D-01  1.30D+00
                    CP:  1.94D+00  3.00D+00  3.00D+00  3.00D+00  3.00D+00
                    CP:  3.00D+00  3.00D+00  3.00D+00  3.00D+00  3.00D+00
                    CP:  3.00D+00  2.29D+00  2.78D+00  1.06D+00
 E= -1871.25122156461     Delta-E=       -0.000000739911 Rises=F Damp=F
 DIIS: error= 3.85D-06 at cycle  20 NSaved=  20.
 NSaved=20 IEnMin=20 EnMin= -1871.25122156461     IErMin=20 ErrMin= 3.85D-06
 ErrMax= 3.85D-06  0.00D+00 EMaxC= 1.00D-01 BMatC= 1.04D-07 BMatP= 4.66D-07
 IDIUse=1 WtCom= 1.00D+00 WtEn= 0.00D+00
 Coeff-Com:  0.116D-03-0.153D-03 0.151D-03 0.772D-04 0.355D-03 0.346D-02
 Coeff-Com: -0.341D-02-0.194D-01 0.758D-02 0.496D-01 0.454D-01-0.143D+00
 Coeff-Com: -0.629D-01 0.531D-01 0.203D+00-0.449D-01-0.235D+00-0.190D+00
 Coeff-Com:  0.373D+00 0.963D+00
 Coeff:      0.116D-03-0.153D-03 0.151D-03 0.772D-04 0.355D-03 0.346D-02
 Coeff:     -0.341D-02-0.194D-01 0.758D-02 0.496D-01 0.454D-01-0.143D+00
 Coeff:     -0.629D-01 0.531D-01 0.203D+00-0.449D-01-0.235D+00-0.190D+00
 Coeff:      0.373D+00 0.963D+00
 Gap=     0.327 Goal=   None    Shift=    0.000
 Gap=     0.123 Goal=   None    Shift=    0.000
 RMSDP=6.99D-06 MaxDP=7.12D-04 DE=-7.40D-07 OVMax= 4.42D-03

 Cycle  21  Pass 1  IDiag  1:
 Restarting incremental Fock formation.
 E= -1871.25122185765     Delta-E=       -0.000000293037 Rises=F Damp=F
 DIIS: error= 3.12D-06 at cycle  21 NSaved=  20.
 NSaved=20 IEnMin=20 EnMin= -1871.25122185765     IErMin=20 ErrMin= 3.12D-06
 ErrMax= 3.12D-06  0.00D+00 EMaxC= 1.00D-01 BMatC= 3.52D-08 BMatP= 1.04D-07
 IDIUse=1 WtCom= 1.00D+00 WtEn= 0.00D+00
 Coeff-Com:  0.318D-05-0.436D-04-0.983D-04-0.407D-03 0.284D-02 0.247D-03
 Coeff-Com: -0.725D-02-0.827D-02-0.735D-02 0.433D-01 0.404D-01-0.732D-01
 Coeff-Com: -0.121D+00 0.119D+00 0.105D+00-0.900D-02-0.153D+00-0.250D+00
 Coeff-Com:  0.402D+00 0.916D+00
 Coeff:      0.318D-05-0.436D-04-0.983D-04-0.407D-03 0.284D-02 0.247D-03
 Coeff:     -0.725D-02-0.827D-02-0.735D-02 0.433D-01 0.404D-01-0.732D-01
 Coeff:     -0.121D+00 0.119D+00 0.105D+00-0.900D-02-0.153D+00-0.250D+00
 Coeff:      0.402D+00 0.916D+00
 Gap=     0.327 Goal=   None    Shift=    0.000
 Gap=     0.123 Goal=   None    Shift=    0.000
 RMSDP=7.33D-07 MaxDP=4.84D-05 DE=-2.93D-07 OVMax= 2.74D-04

 Cycle  22  Pass 1  IDiag  1:
 RMSU=  7.32D-07    CP:  1.00D+00
 E= -1871.25122188874     Delta-E=       -0.000000031088 Rises=F Damp=F
 DIIS: error= 1.69D-06 at cycle  22 NSaved=  20.
 NSaved=20 IEnMin=20 EnMin= -1871.25122188874     IErMin=20 ErrMin= 1.69D-06
 ErrMax= 1.69D-06  0.00D+00 EMaxC= 1.00D-01 BMatC= 8.46D-09 BMatP= 3.52D-08
 IDIUse=1 WtCom= 1.00D+00 WtEn= 0.00D+00
 Coeff-Com: -0.313D-05-0.334D-05-0.857D-04-0.104D-02 0.517D-03 0.251D-02
 Coeff-Com: -0.200D-03-0.134D-01-0.126D-02 0.386D-01-0.861D-03-0.383D-01
 Coeff-Com: -0.167D-01 0.385D-01 0.511D-01 0.137D-01-0.202D+00-0.115D+00
 Coeff-Com:  0.307D+00 0.937D+00
 Coeff:     -0.313D-05-0.334D-05-0.857D-04-0.104D-02 0.517D-03 0.251D-02
 Coeff:     -0.200D-03-0.134D-01-0.126D-02 0.386D-01-0.861D-03-0.383D-01
 Coeff:     -0.167D-01 0.385D-01 0.511D-01 0.137D-01-0.202D+00-0.115D+00
 Coeff:      0.307D+00 0.937D+00
 Gap=     0.327 Goal=   None    Shift=    0.000
 Gap=     0.123 Goal=   None    Shift=    0.000
 RMSDP=5.91D-07 MaxDP=5.10D-05 DE=-3.11D-08 OVMax= 3.37D-04

 Cycle  23  Pass 1  IDiag  1:
 RMSU=  5.88D-07    CP:  1.00D+00  9.26D-01
 E= -1871.25122190315     Delta-E=       -0.000000014415 Rises=F Damp=F
 DIIS: error= 1.14D-06 at cycle  23 NSaved=  20.
 NSaved=20 IEnMin=20 EnMin= -1871.25122190315     IErMin=20 ErrMin= 1.14D-06
 ErrMax= 1.14D-06  0.00D+00 EMaxC= 1.00D-01 BMatC= 3.78D-09 BMatP= 8.46D-09
 IDIUse=1 WtCom= 1.00D+00 WtEn= 0.00D+00
 Coeff-Com: -0.251D-05 0.731D-04-0.126D-02 0.931D-03 0.370D-02 0.396D-02
 Coeff-Com: -0.106D-01-0.946D-02 0.100D-02 0.364D-01 0.157D-01-0.529D-01
 Coeff-Com: -0.269D-01 0.488D-01 0.460D-01 0.256D-01-0.203D+00-0.228D+00
 Coeff-Com:  0.187D+00 0.116D+01
 Coeff:     -0.251D-05 0.731D-04-0.126D-02 0.931D-03 0.370D-02 0.396D-02
 Coeff:     -0.106D-01-0.946D-02 0.100D-02 0.364D-01 0.157D-01-0.529D-01
 Coeff:     -0.269D-01 0.488D-01 0.460D-01 0.256D-01-0.203D+00-0.228D+00
 Coeff:      0.187D+00 0.116D+01
 Gap=     0.327 Goal=   None    Shift=    0.000
 Gap=     0.123 Goal=   None    Shift=    0.000
 RMSDP=3.93D-07 MaxDP=3.41D-05 DE=-1.44D-08 OVMax= 2.17D-04

 Cycle  24  Pass 1  IDiag  1:
 RMSU=  1.40D-07    CP:  1.00D+00  8.99D-01  1.62D+00
 E= -1871.25122190893     Delta-E=       -0.000000005776 Rises=F Damp=F
 DIIS: error= 6.46D-07 at cycle  24 NSaved=  20.
 NSaved=20 IEnMin=20 EnMin= -1871.25122190893     IErMin=20 ErrMin= 6.46D-07
 ErrMax= 6.46D-07  0.00D+00 EMaxC= 1.00D-01 BMatC= 2.08D-09 BMatP= 3.78D-09
 IDIUse=1 WtCom= 1.00D+00 WtEn= 0.00D+00
 Coeff-Com: -0.190D-05-0.174D-03 0.230D-03 0.360D-03 0.229D-02-0.325D-02
 Coeff-Com:  0.842D-03-0.153D-01 0.195D-01 0.133D-01-0.131D-01-0.236D-01
 Coeff-Com:  0.951D-02-0.221D-02 0.755D-01-0.281D-01-0.132D+00-0.255D+00
 Coeff-Com:  0.338D+00 0.101D+01
 Coeff:     -0.190D-05-0.174D-03 0.230D-03 0.360D-03 0.229D-02-0.325D-02
 Coeff:      0.842D-03-0.153D-01 0.195D-01 0.133D-01-0.131D-01-0.236D-01
 Coeff:      0.951D-02-0.221D-02 0.755D-01-0.281D-01-0.132D+00-0.255D+00
 Coeff:      0.338D+00 0.101D+01
 Gap=     0.327 Goal=   None    Shift=    0.000
 Gap=     0.123 Goal=   None    Shift=    0.000
 RMSDP=2.34D-07 MaxDP=1.75D-05 DE=-5.78D-09 OVMax= 1.03D-04

 Cycle  25  Pass 1  IDiag  1:
 RMSU=  9.56D-08    CP:  1.00D+00  1.14D+00  1.48D+00  1.63D+00
 E= -1871.25122191051     Delta-E=       -0.000000001580 Rises=F Damp=F
 DIIS: error= 3.03D-07 at cycle  25 NSaved=  20.
 NSaved=20 IEnMin=20 EnMin= -1871.25122191051     IErMin=20 ErrMin= 3.03D-07
 ErrMax= 3.03D-07  0.00D+00 EMaxC= 1.00D-01 BMatC= 3.07D-10 BMatP= 2.08D-09
 IDIUse=1 WtCom= 1.00D+00 WtEn= 0.00D+00
 Coeff-Com:  0.338D-03-0.316D-03-0.130D-02-0.268D-03 0.323D-02 0.297D-02
 Coeff-Com: -0.424D-02-0.876D-02 0.864D-03 0.147D-01 0.232D-02-0.166D-01
 Coeff-Com: -0.125D-01 0.495D-02 0.641D-01 0.458D-01-0.124D+00-0.337D+00
 Coeff-Com:  0.268D+00 0.110D+01
 Coeff:      0.338D-03-0.316D-03-0.130D-02-0.268D-03 0.323D-02 0.297D-02
 Coeff:     -0.424D-02-0.876D-02 0.864D-03 0.147D-01 0.232D-02-0.166D-01
 Coeff:     -0.125D-01 0.495D-02 0.641D-01 0.458D-01-0.124D+00-0.337D+00
 Coeff:      0.268D+00 0.110D+01
 Gap=     0.327 Goal=   None    Shift=    0.000
 Gap=     0.123 Goal=   None    Shift=    0.000
 RMSDP=1.81D-07 MaxDP=1.83D-05 DE=-1.58D-09 OVMax= 1.12D-04

 Cycle  26  Pass 1  IDiag  1:
 RMSU=  3.15D-08    CP:  1.00D+00  1.05D+00  1.75D+00  1.94D+00  1.07D+00
 E= -1871.25122191120     Delta-E=       -0.000000000689 Rises=F Damp=F
 DIIS: error= 1.28D-07 at cycle  26 NSaved=  20.
 NSaved=20 IEnMin=20 EnMin= -1871.25122191120     IErMin=20 ErrMin= 1.28D-07
 ErrMax= 1.28D-07  0.00D+00 EMaxC= 1.00D-01 BMatC= 6.31D-11 BMatP= 3.07D-10
 IDIUse=1 WtCom= 1.00D+00 WtEn= 0.00D+00
 Coeff-Com: -0.975D-04-0.395D-04-0.351D-03 0.660D-03-0.240D-03 0.375D-02
 Coeff-Com: -0.578D-02-0.266D-02 0.515D-02 0.561D-02-0.511D-02-0.104D-02
 Coeff-Com: -0.189D-01 0.235D-01 0.396D-01 0.265D-01-0.166D+00-0.140D+00
 Coeff-Com:  0.323D+00 0.912D+00
 Coeff:     -0.975D-04-0.395D-04-0.351D-03 0.660D-03-0.240D-03 0.375D-02
 Coeff:     -0.578D-02-0.266D-02 0.515D-02 0.561D-02-0.511D-02-0.104D-02
 Coeff:     -0.189D-01 0.235D-01 0.396D-01 0.265D-01-0.166D+00-0.140D+00
 Coeff:      0.323D+00 0.912D+00
 Gap=     0.327 Goal=   None    Shift=    0.000
 Gap=     0.123 Goal=   None    Shift=    0.000
 RMSDP=1.05D-07 MaxDP=1.10D-05 DE=-6.89D-10 OVMax= 6.73D-05

 Cycle  27  Pass 1  IDiag  1:
 RMSU=  9.48D-09    CP:  1.00D+00  9.81D-01  1.90D+00  2.00D+00  1.02D+00
                    CP:  1.50D+00
 E= -1871.25122191125     Delta-E=       -0.000000000055 Rises=F Damp=F
 DIIS: error= 9.55D-08 at cycle  27 NSaved=  20.
 NSaved=20 IEnMin=20 EnMin= -1871.25122191125     IErMin=20 ErrMin= 9.55D-08
 ErrMax= 9.55D-08  0.00D+00 EMaxC= 1.00D-01 BMatC= 2.86D-11 BMatP= 6.31D-11
 IDIUse=1 WtCom= 1.00D+00 WtEn= 0.00D+00
 Coeff-Com:  0.328D-04-0.200D-03-0.252D-03 0.311D-04 0.213D-02-0.120D-02
 Coeff-Com: -0.269D-02 0.609D-03 0.207D-02 0.223D-02-0.119D-03-0.920D-02
 Coeff-Com: -0.104D-02 0.107D-01 0.358D-01 0.192D-02-0.121D+00-0.148D+00
 Coeff-Com:  0.358D+00 0.870D+00
 Coeff:      0.328D-04-0.200D-03-0.252D-03 0.311D-04 0.213D-02-0.120D-02
 Coeff:     -0.269D-02 0.609D-03 0.207D-02 0.223D-02-0.119D-03-0.920D-02
 Coeff:     -0.104D-02 0.107D-01 0.358D-01 0.192D-02-0.121D+00-0.148D+00
 Coeff:      0.358D+00 0.870D+00
 Gap=     0.327 Goal=   None    Shift=    0.000
 Gap=     0.123 Goal=   None    Shift=    0.000
 RMSDP=5.29D-08 MaxDP=4.86D-06 DE=-5.55D-11 OVMax= 3.19D-05

 Cycle  28  Pass 1  IDiag  1:
 RMSU=  6.51D-09    CP:  1.00D+00  1.03D+00  1.84D+00  2.05D+00  1.17D+00
                    CP:  1.65D+00  1.18D+00
 E= -1871.25122191123     Delta-E=        0.000000000024 Rises=F Damp=F
 DIIS: error= 3.85D-08 at cycle  28 NSaved=  20.
 NSaved=20 IEnMin=19 EnMin= -1871.25122191125     IErMin=20 ErrMin= 3.85D-08
 ErrMax= 3.85D-08  0.00D+00 EMaxC= 1.00D-01 BMatC= 7.67D-12 BMatP= 2.86D-11
 IDIUse=1 WtCom= 1.00D+00 WtEn= 0.00D+00
 Coeff-Com:  0.731D-04-0.124D-03 0.642D-04 0.191D-04 0.429D-03-0.560D-03
 Coeff-Com: -0.364D-03 0.865D-04 0.118D-02 0.208D-03-0.976D-03-0.291D-02
 Coeff-Com: -0.360D-02 0.444D-02 0.245D-01 0.187D-02-0.876D-01-0.806D-01
 Coeff-Com:  0.209D+00 0.935D+00
 Coeff:      0.731D-04-0.124D-03 0.642D-04 0.191D-04 0.429D-03-0.560D-03
 Coeff:     -0.364D-03 0.865D-04 0.118D-02 0.208D-03-0.976D-03-0.291D-02
 Coeff:     -0.360D-02 0.444D-02 0.245D-01 0.187D-02-0.876D-01-0.806D-01
 Coeff:      0.209D+00 0.935D+00
 Gap=     0.327 Goal=   None    Shift=    0.000
 Gap=     0.123 Goal=   None    Shift=    0.000
 RMSDP=1.92D-08 MaxDP=1.93D-06 DE= 2.36D-11 OVMax= 1.20D-05

 Cycle  29  Pass 1  IDiag  1:
 RMSU=  2.10D-09    CP:  1.00D+00  1.01D+00  1.87D+00  2.05D+00  1.14D+00
                    CP:  1.75D+00  1.41D+00  1.23D+00
 E= -1871.25122191130     Delta-E=       -0.000000000075 Rises=F Damp=F
 DIIS: error= 2.01D-08 at cycle  29 NSaved=  20.
 NSaved=20 IEnMin=20 EnMin= -1871.25122191130     IErMin=20 ErrMin= 2.01D-08
 ErrMax= 2.01D-08  0.00D+00 EMaxC= 1.00D-01 BMatC= 8.61D-13 BMatP= 7.67D-12
 IDIUse=1 WtCom= 1.00D+00 WtEn= 0.00D+00
 Coeff-Com: -0.146D-03 0.897D-04-0.514D-04 0.143D-03 0.292D-04-0.136D-03
 Coeff-Com: -0.246D-04-0.221D-03 0.688D-04 0.636D-03 0.500D-03-0.640D-03
 Coeff-Com: -0.324D-02 0.787D-03 0.168D-01 0.166D-02-0.836D-01-0.966D-01
 Coeff-Com:  0.285D+00 0.879D+00
 Coeff:     -0.146D-03 0.897D-04-0.514D-04 0.143D-03 0.292D-04-0.136D-03
 Coeff:     -0.246D-04-0.221D-03 0.688D-04 0.636D-03 0.500D-03-0.640D-03
 Coeff:     -0.324D-02 0.787D-03 0.168D-01 0.166D-02-0.836D-01-0.966D-01
 Coeff:      0.285D+00 0.879D+00
 Gap=     0.327 Goal=   None    Shift=    0.000
 Gap=     0.123 Goal=   None    Shift=    0.000
 RMSDP=1.53D-08 MaxDP=1.50D-06 DE=-7.46D-11 OVMax= 9.48D-06

 Cycle  30  Pass 1  IDiag  1:
 RMSU=  1.65D-09    CP:  1.00D+00  1.03D+00  1.85D+00  2.05D+00  1.18D+00
                    CP:  1.76D+00  1.49D+00  1.52D+00  1.06D+00
 E= -1871.25122191121     Delta-E=        0.000000000095 Rises=F Damp=F
 DIIS: error= 2.25D-08 at cycle  30 NSaved=  20.
 NSaved=20 IEnMin=19 EnMin= -1871.25122191130     IErMin=19 ErrMin= 2.01D-08
 ErrMax= 2.25D-08  0.00D+00 EMaxC= 1.00D-01 BMatC= 2.01D-12 BMatP= 8.61D-13
 IDIUse=1 WtCom= 1.00D+00 WtEn= 0.00D+00
 Coeff-Com:  0.486D-04-0.766D-04-0.113D-03 0.154D-03 0.184D-03 0.561D-04
 Coeff-Com: -0.627D-03-0.338D-04 0.704D-03 0.152D-02 0.294D-04-0.583D-02
 Coeff-Com: -0.709D-02 0.205D-01 0.322D-01-0.400D-01-0.136D+00-0.135D+00
 Coeff-Com:  0.456D+00 0.814D+00
 Coeff:      0.486D-04-0.766D-04-0.113D-03 0.154D-03 0.184D-03 0.561D-04
 Coeff:     -0.627D-03-0.338D-04 0.704D-03 0.152D-02 0.294D-04-0.583D-02
 Coeff:     -0.709D-02 0.205D-01 0.322D-01-0.400D-01-0.136D+00-0.135D+00
 Coeff:      0.456D+00 0.814D+00
 Gap=     0.327 Goal=   None    Shift=    0.000
 Gap=     0.123 Goal=   None    Shift=    0.000
 RMSDP=1.69D-08 MaxDP=1.71D-06 DE= 9.46D-11 OVMax= 1.08D-05

 Cycle  31  Pass 1  IDiag  1:
 RMSU=  8.49D-10    CP:  1.00D+00  1.01D+00  1.87D+00  2.05D+00  1.15D+00
                    CP:  1.79D+00  1.58D+00  1.58D+00  1.48D+00  1.18D+00
 E= -1871.25122191126     Delta-E=       -0.000000000054 Rises=F Damp=F
 DIIS: error= 6.77D-09 at cycle  31 NSaved=  20.
 NSaved=20 IEnMin=18 EnMin= -1871.25122191130     IErMin=20 ErrMin= 6.77D-09
 ErrMax= 6.77D-09  0.00D+00 EMaxC= 1.00D-01 BMatC= 2.58D-13 BMatP= 8.61D-13
 IDIUse=1 WtCom= 1.00D+00 WtEn= 0.00D+00
 Coeff-Com: -0.140D-04-0.406D-04 0.790D-05 0.516D-04 0.195D-04-0.982D-04
 Coeff-Com: -0.620D-04 0.172D-03 0.505D-03 0.551D-03-0.135D-02-0.472D-02
 Coeff-Com:  0.284D-02 0.119D-01 0.768D-02-0.245D-01-0.124D+00 0.184D-01
 Coeff-Com:  0.268D+00 0.845D+00
 Coeff:     -0.140D-04-0.406D-04 0.790D-05 0.516D-04 0.195D-04-0.982D-04
 Coeff:     -0.620D-04 0.172D-03 0.505D-03 0.551D-03-0.135D-02-0.472D-02
 Coeff:      0.284D-02 0.119D-01 0.768D-02-0.245D-01-0.124D+00 0.184D-01
 Coeff:      0.268D+00 0.845D+00
 Gap=     0.327 Goal=   None    Shift=    0.000
 Gap=     0.123 Goal=   None    Shift=    0.000
 RMSDP=7.14D-09 MaxDP=7.07D-07 DE=-5.37D-11 OVMax= 4.45D-06

 Error on total polarization charges =  0.00629
 SCF Done:  E(UCAM-B3LYP) =  -1871.25122191     A.U. after   31 cycles
            NFock= 31  Conv=0.71D-08     -V/T= 2.0079
 <Sx>= 0.0000 <Sy>= 0.0000 <Sz>= 0.5000 <S**2>= 0.7671 S= 0.5085
 <L.S>= 0.000000000000E+00
 KE= 1.856672319094D+03 PE=-1.173870359138D+04 EE= 4.327693510593D+03
 Annihilation of the first spin contaminant:
 S**2 before annihilation     0.7671,   after     0.7501
 Leave Link  502 at Sun Mar  3 18:04:44 2024, MaxMem=  5368709120 cpu:      2887.7
 (Enter /home/k0335/k033513/app/g09/l601.exe)
 Copying SCF densities to generalized density rwf, IOpCl= 1 IROHF=0.

 **********************************************************************

            Population analysis using the SCF density.

 **********************************************************************

 Alpha  occ. eigenvalues --  -24.86726 -24.85766 -24.85707 -24.85571 -24.85504
 Alpha  occ. eigenvalues --  -24.85086 -24.84550 -24.84201 -24.84200 -19.35567
 Alpha  occ. eigenvalues --  -19.33420 -19.26155 -14.64492 -14.56830 -14.51924
 Alpha  occ. eigenvalues --  -10.62013 -10.57069 -10.56024 -10.52562 -10.51412
 Alpha  occ. eigenvalues --  -10.47831 -10.43944 -10.39386 -10.34231 -10.33311
 Alpha  occ. eigenvalues --  -10.30093 -10.28877 -10.27867 -10.27718 -10.26216
 Alpha  occ. eigenvalues --   -1.45809  -1.43462  -1.41592  -1.36760  -1.36491
 Alpha  occ. eigenvalues --   -1.35615  -1.34689  -1.34018  -1.33537  -1.28590
 Alpha  occ. eigenvalues --   -1.23035  -1.22046  -1.19208  -1.13074  -1.09737
 Alpha  occ. eigenvalues --   -0.96535  -0.95109  -0.92400  -0.91222  -0.89124
 Alpha  occ. eigenvalues --   -0.86594  -0.84589  -0.84132  -0.81720  -0.80106
 Alpha  occ. eigenvalues --   -0.77907  -0.76615  -0.75897  -0.75151  -0.73400
 Alpha  occ. eigenvalues --   -0.73168  -0.72783  -0.72026  -0.71680  -0.70535
 Alpha  occ. eigenvalues --   -0.69771  -0.69043  -0.68914  -0.67641  -0.66898
 Alpha  occ. eigenvalues --   -0.65694  -0.64719  -0.62050  -0.61879  -0.61364
 Alpha  occ. eigenvalues --   -0.60605  -0.60026  -0.59672  -0.59256  -0.58767
 Alpha  occ. eigenvalues --   -0.58266  -0.57467  -0.57193  -0.56961  -0.56571
 Alpha  occ. eigenvalues --   -0.56038  -0.55832  -0.55639  -0.55450  -0.55004
 Alpha  occ. eigenvalues --   -0.54697  -0.53417  -0.53379  -0.53002  -0.52888
 Alpha  occ. eigenvalues --   -0.52553  -0.52347  -0.52094  -0.51738  -0.51275
 Alpha  occ. eigenvalues --   -0.50568  -0.50468  -0.50070  -0.49392  -0.49294
 Alpha  occ. eigenvalues --   -0.47597  -0.46480  -0.46359  -0.45398  -0.44587
 Alpha  occ. eigenvalues --   -0.44083  -0.43987  -0.43252  -0.42424  -0.41706
 Alpha  occ. eigenvalues --   -0.41653  -0.40276  -0.37160
 Alpha virt. eigenvalues --   -0.04489   0.00950   0.04163   0.05179   0.06535
 Alpha virt. eigenvalues --    0.08138   0.09454   0.10557   0.11581   0.12114
 Alpha virt. eigenvalues --    0.13238   0.13778   0.14430   0.15072   0.15660
 Alpha virt. eigenvalues --    0.15788   0.16204   0.16495   0.17170   0.17937
 Alpha virt. eigenvalues --    0.18053   0.18414   0.18933   0.19168   0.19793
 Alpha virt. eigenvalues --    0.19994   0.20346   0.20450   0.20710   0.20992
 Alpha virt. eigenvalues --    0.21578   0.21815   0.22158   0.23067   0.23329
 Alpha virt. eigenvalues --    0.23876   0.24033   0.24438   0.24972   0.25748
 Alpha virt. eigenvalues --    0.26233   0.27523   0.27733   0.27965   0.29087
 Alpha virt. eigenvalues --    0.29407   0.30251   0.31692   0.34540   0.34791
 Alpha virt. eigenvalues --    0.38961   0.42115   0.43798   0.44387   0.45982
 Alpha virt. eigenvalues --    0.47505   0.48349   0.48659   0.49594   0.50747
 Alpha virt. eigenvalues --    0.51328   0.51866   0.52706   0.52874   0.53566
 Alpha virt. eigenvalues --    0.53943   0.54314   0.55178   0.55447   0.55837
 Alpha virt. eigenvalues --    0.57284   0.58247   0.58475   0.59703   0.60543
 Alpha virt. eigenvalues --    0.61611   0.62021   0.62932   0.63749   0.63913
 Alpha virt. eigenvalues --    0.64449   0.65478   0.65975   0.66694   0.68837
 Alpha virt. eigenvalues --    0.68957   0.70373   0.71542   0.73169   0.73857
 Alpha virt. eigenvalues --    0.74355   0.75448   0.76000   0.77014   0.77863
 Alpha virt. eigenvalues --    0.78607   0.80554   0.81962   0.82138   0.83407
 Alpha virt. eigenvalues --    0.83769   0.85160   0.86002   0.86285   0.87158
 Alpha virt. eigenvalues --    0.87359   0.87923   0.88799   0.89469   0.89939
 Alpha virt. eigenvalues --    0.90452   0.90842   0.91487   0.92015   0.92393
 Alpha virt. eigenvalues --    0.93471   0.94790   0.95234   0.95411   0.96501
 Alpha virt. eigenvalues --    0.96807   0.97422   0.97539   0.98156   0.99066
 Alpha virt. eigenvalues --    0.99614   1.00714   1.01863   1.02414   1.02773
 Alpha virt. eigenvalues --    1.03350   1.04082   1.06360   1.07048   1.07754
 Alpha virt. eigenvalues --    1.08127   1.10318   1.10949   1.11276   1.11998
 Alpha virt. eigenvalues --    1.13298   1.14212   1.15348   1.16112   1.16676
 Alpha virt. eigenvalues --    1.18178   1.18737   1.19067   1.20074   1.21295
 Alpha virt. eigenvalues --    1.22604   1.23843   1.26016   1.26749   1.27692
 Alpha virt. eigenvalues --    1.28760   1.30035   1.30371   1.30937   1.32110
 Alpha virt. eigenvalues --    1.32905   1.33511   1.33762   1.34458   1.34932
 Alpha virt. eigenvalues --    1.35375   1.37132   1.37700   1.38673   1.39672
 Alpha virt. eigenvalues --    1.39863   1.40321   1.40788   1.41525   1.42970
 Alpha virt. eigenvalues --    1.43839   1.44017   1.45101   1.48137   1.48730
 Alpha virt. eigenvalues --    1.49654   1.51029   1.51739   1.52800   1.54193
 Alpha virt. eigenvalues --    1.55258   1.55717   1.56160   1.58450   1.59038
 Alpha virt. eigenvalues --    1.59153   1.60035   1.60421   1.61189   1.62285
 Alpha virt. eigenvalues --    1.62984   1.64457   1.65056   1.65778   1.67329
 Alpha virt. eigenvalues --    1.67742   1.70150   1.70884   1.71643   1.72238
 Alpha virt. eigenvalues --    1.72747   1.73661   1.73750   1.74610   1.75879
 Alpha virt. eigenvalues --    1.76713   1.77114   1.78613   1.79120   1.79602
 Alpha virt. eigenvalues --    1.80022   1.80898   1.81621   1.82395   1.82945
 Alpha virt. eigenvalues --    1.84332   1.84460   1.84775   1.85429   1.85664
 Alpha virt. eigenvalues --    1.86905   1.87140   1.87512   1.87848   1.88743
 Alpha virt. eigenvalues --    1.89354   1.89564   1.90224   1.91052   1.91261
 Alpha virt. eigenvalues --    1.91357   1.91898   1.92770   1.93013   1.93904
 Alpha virt. eigenvalues --    1.94484   1.94817   1.95295   1.96328   1.97406
 Alpha virt. eigenvalues --    1.97928   1.98583   1.99001   1.99368   2.00369
 Alpha virt. eigenvalues --    2.01053   2.02029   2.02527   2.02909   2.03884
[...]
    31   Atom       -0.000905      0.002780     -0.001874
    32   Atom       -0.001094      0.002355     -0.001261
    33   Atom       -0.001240      0.002013     -0.000773
    34   Atom        0.000770      0.000688     -0.001458
    35   Atom       -0.002636      0.002674     -0.000038
    36   Atom        0.009356     -0.000562     -0.008794
    37   Atom       -0.007138     -0.000868      0.008006
    38   Atom       -0.000292      0.007602     -0.007310
    39   Atom       -0.007089      0.002383      0.004706
    40   Atom       -0.001059     -0.011892      0.012951
    41   Atom        0.002172     -0.006066      0.003894
    42   Atom       -0.000469      0.001335     -0.000866
    43   Atom        0.000420     -0.001285      0.000865
    44   Atom        0.001463     -0.000082     -0.001381
    45   Atom        0.004256     -0.001976     -0.002280
    46   Atom        0.000875     -0.000594     -0.000281
    47   Atom        0.000995     -0.000500     -0.000494
    48   Atom        0.000305     -0.000057     -0.000249
    49   Atom        0.000172      0.000110     -0.000282
    50   Atom        0.000296      0.000156     -0.000452
 --------------------------------------------------------
                        XY            XZ            YZ
 --------------------------------------------------------
     1   Atom       -0.001558      0.000562     -0.001051
     2   Atom       -0.016254      0.001570     -0.003788
     3   Atom       -0.079537      0.058642     -0.055892
     4   Atom       -0.026629      0.052514     -0.015993
     5   Atom       -0.376389      1.041396     -0.252965
     6   Atom       -0.002423      0.024788      0.011870
     7   Atom       -0.043807      0.033849     -0.022145
     8   Atom       -0.006283     -0.002292      0.002059
     9   Atom       -0.001848     -0.000270      0.000537
    10   Atom       -0.000917     -0.001138      0.000270
    11   Atom       -0.000681     -0.000331      0.000243
    12   Atom       -0.000872     -0.000479     -0.001468
    13   Atom        0.008592     -0.007869     -0.011673
    14   Atom       -0.001800     -0.008432     -0.008647
    15   Atom        0.001991     -0.000554      0.000658
    16   Atom        0.006529     -0.005086     -0.011488
    17   Atom        0.008189     -0.003083     -0.005238
    18   Atom        0.000906     -0.000103      0.000082
    19   Atom        0.000100     -0.000676      0.000096
    20   Atom        0.001124      0.000128      0.000473
    21   Atom        0.001117      0.000484      0.000688
    22   Atom        0.000832      0.000662      0.000817
    23   Atom        0.002099      0.000850      0.000873
    24   Atom        0.000717      0.000303      0.000349
    25   Atom        0.000822     -0.000011     -0.000016
    26   Atom        0.000983      0.000013      0.000054
    27   Atom        0.000702     -0.000182     -0.000316
    28   Atom        0.000379      0.000011      0.000050
    29   Atom        0.050023     -0.109999      0.018801
    30   Atom       -0.348764      0.557997     -0.342067
    31   Atom        0.001532      0.000693     -0.000015
    32   Atom        0.000413      0.000046      0.000102
    33   Atom        0.000718     -0.000477     -0.001599
    34   Atom       -0.002296      0.002828     -0.000751
    35   Atom       -0.002503     -0.000947      0.002404
    36   Atom       -0.002721      0.000816     -0.004202
    37   Atom       -0.005402      0.000312     -0.004366
    38   Atom        0.011599     -0.004496     -0.001828
    39   Atom       -0.000363     -0.006160      0.010081
    40   Atom       -0.001540      0.009827      0.003096
    41   Atom        0.003985     -0.012647     -0.003550
    42   Atom       -0.001732     -0.000860      0.001652
    43   Atom       -0.001639     -0.002912      0.001451
    44   Atom       -0.002369      0.000212     -0.000154
    45   Atom       -0.001606     -0.000926      0.000403
    46   Atom       -0.000508     -0.000773      0.000166
    47   Atom       -0.000495     -0.000151      0.000149
    48   Atom       -0.000415     -0.000230      0.000157
    49   Atom       -0.000663     -0.000408      0.000397
    50   Atom       -0.000694     -0.000133      0.000113
 --------------------------------------------------------


 ---------------------------------------------------------------------------------
              Anisotropic Spin Dipole Couplings in Principal Axis System
 ---------------------------------------------------------------------------------

       Atom             a.u.   MegaHertz   Gauss  10(-4) cm-1        Axes

              Baa    -0.0037    -0.495    -0.177    -0.165 -0.0942  0.1261  0.9875
     1 C(13)  Bbb    -0.0005    -0.067    -0.024    -0.022  0.9233  0.3821  0.0392
              Bcc     0.0042     0.562     0.200     0.187 -0.3724  0.9155 -0.1524
 
              Baa    -0.0141    -1.893    -0.676    -0.632  0.6333  0.3837  0.6721
     2 C(13)  Bbb    -0.0136    -1.825    -0.651    -0.609 -0.6389 -0.2308  0.7338
              Bcc     0.0277     3.719     1.327     1.240 -0.4366  0.8942 -0.0990
 
              Baa    -0.0672    -9.023    -3.220    -3.010 -0.5717  0.0050  0.8205
     3 C(13)  Bbb    -0.0665    -8.919    -3.182    -2.975  0.5088  0.7867  0.3497
              Bcc     0.1337    17.942     6.402     5.985  0.6437 -0.6173  0.4523
 
              Baa    -0.0483    -6.487    -2.315    -2.164 -0.6539 -0.1535  0.7409
     4 C(13)  Bbb    -0.0228    -3.063    -1.093    -1.022  0.1683  0.9252  0.3402
              Bcc     0.0712     9.550     3.408     3.186  0.7377 -0.3471  0.5791
 
              Baa    -0.7800   -30.083   -10.734   -10.035  0.4544  0.8067 -0.3779
     5 N(14)  Bbb    -0.7746   -29.876   -10.660    -9.966 -0.3697  0.5567  0.7439
              Bcc     1.5546    59.959    21.395    20.000  0.8105 -0.1983  0.5511
 
              Baa    -0.0347    -4.659    -1.662    -1.554  0.2161  0.9305 -0.2958
     6 C(13)  Bbb    -0.0067    -0.903    -0.322    -0.301  0.7658 -0.3495 -0.5399
              Bcc     0.0414     5.562     1.985     1.855  0.6057  0.1098  0.7881
 
              Baa    -0.0409    -1.577    -0.563    -0.526  0.7001  0.6426 -0.3112
     7 N(14)  Bbb    -0.0292    -1.127    -0.402    -0.376 -0.1160  0.5325  0.8385
              Bcc     0.0701     2.704     0.965     0.902  0.7045 -0.5509  0.4474
 
              Baa    -0.0054    -0.725    -0.259    -0.242  0.4399  0.8277 -0.3485
     8 C(13)  Bbb    -0.0039    -0.530    -0.189    -0.177  0.3772  0.1819  0.9081
              Bcc     0.0093     1.255     0.448     0.418  0.8150 -0.5309 -0.2322
 
              Baa    -0.0030    -0.407    -0.145    -0.136 -0.0968 -0.5214  0.8478
     9 C(13)  Bbb    -0.0020    -0.273    -0.098    -0.091  0.2492  0.8120  0.5278
              Bcc     0.0051     0.681     0.243     0.227  0.9636 -0.2623 -0.0514
 
              Baa    -0.0015    -0.207    -0.074    -0.069  0.2736 -0.0228  0.9616
    10 C(13)  Bbb    -0.0014    -0.187    -0.067    -0.062  0.2245  0.9736 -0.0408
              Bcc     0.0029     0.394     0.140     0.131  0.9353 -0.2270 -0.2715
 
              Baa    -0.0005    -0.070    -0.025    -0.023  0.6382  0.7241  0.2614
    11 C(13)  Bbb    -0.0005    -0.067    -0.024    -0.022  0.0528 -0.3799  0.9235
              Bcc     0.0010     0.137     0.049     0.046  0.7680 -0.5756 -0.2807
 
              Baa    -0.0060    -0.800    -0.286    -0.267  0.2744  0.1053  0.9558
    12 C(13)  Bbb    -0.0039    -0.517    -0.184    -0.172  0.9598  0.0317 -0.2791
              Bcc     0.0098     1.317     0.470     0.439 -0.0597  0.9939 -0.0924
 
              Baa    -0.0395     2.861     1.021     0.954  0.0712  0.2634  0.9620
    13 O(17)  Bbb     0.0010    -0.074    -0.026    -0.025 -0.2888  0.9286 -0.2329
              Bcc     0.0385    -2.787    -0.994    -0.930  0.9547  0.2613 -0.1422
 
              Baa    -0.0213    -0.820    -0.293    -0.274  0.3934  0.2229  0.8919
    14 N(14)  Bbb     0.0026     0.098     0.035     0.033  0.9192 -0.1149 -0.3768
              Bcc     0.0187     0.722     0.258     0.241  0.0185  0.9681 -0.2501
 
              Baa    -0.0030    -0.398    -0.142    -0.133  0.7381 -0.2785  0.6145
    15 C(13)  Bbb    -0.0015    -0.197    -0.070    -0.066 -0.6046  0.1313  0.7856
              Bcc     0.0044     0.595     0.212     0.199  0.2995  0.9514  0.0715
 
              Baa    -0.0139    -6.992    -2.495    -2.332  0.2268  0.3485  0.9095
    16 F(19)  Bbb    -0.0059    -2.959    -1.056    -0.987  0.9174 -0.3899 -0.0793
              Bcc     0.0198     9.951     3.551     3.319  0.3270  0.8524 -0.4082
 
              Baa    -0.0076    -3.817    -1.362    -1.273 -0.6278  0.7084  0.3226
    17 F(19)  Bbb    -0.0043    -2.139    -0.763    -0.714  0.5065  0.0570  0.8604
              Bcc     0.0119     5.957     2.125     1.987  0.5911  0.7035 -0.3946
 
              Baa    -0.0010    -0.135    -0.048    -0.045  0.6919 -0.2837  0.6640
    18 C(13)  Bbb    -0.0008    -0.101    -0.036    -0.034 -0.6216  0.2338  0.7476
              Bcc     0.0018     0.236     0.084     0.079  0.3673  0.9300  0.0146
 
              Baa    -0.0009    -0.456    -0.163    -0.152  0.6127 -0.1049  0.7833
    19 F(19)  Bbb     0.0004     0.203     0.072     0.068 -0.0951  0.9742  0.2049
              Bcc     0.0005     0.254     0.090     0.085  0.7846  0.2000 -0.5869
 
              Baa    -0.0010     0.074     0.026     0.025  0.6500 -0.4846  0.5853
    20 O(17)  Bbb    -0.0008     0.056     0.020     0.019 -0.5923  0.1595  0.7898
              Bcc     0.0018    -0.129    -0.046    -0.043  0.4761  0.8601  0.1834
 
              Baa    -0.0009    -0.125    -0.045    -0.042 -0.6179  0.6925 -0.3722
    21 C(13)  Bbb    -0.0008    -0.102    -0.036    -0.034 -0.5203 -0.0052  0.8540
              Bcc     0.0017     0.227     0.081     0.076  0.5895  0.7214  0.3636
 
              Baa    -0.0008    -0.412    -0.147    -0.137 -0.5579  0.7597 -0.3342
    22 F(19)  Bbb    -0.0007    -0.369    -0.132    -0.123 -0.6264 -0.1213  0.7700
              Bcc     0.0016     0.781     0.279     0.261  0.5444  0.6389  0.5435
 
              Baa    -0.0018    -0.898    -0.321    -0.300 -0.4922  0.8054 -0.3303
    23 F(19)  Bbb    -0.0012    -0.618    -0.220    -0.206 -0.4280  0.1065  0.8975
              Bcc     0.0030     1.516     0.541     0.506  0.7580  0.5832  0.2923
 
              Baa    -0.0006    -0.277    -0.099    -0.092 -0.6101  0.7205 -0.3296
    24 F(19)  Bbb    -0.0005    -0.249    -0.089    -0.083 -0.4547  0.0222  0.8904
              Bcc     0.0010     0.525     0.187     0.175  0.6488  0.6931  0.3140
 
              Baa    -0.0006    -0.086    -0.031    -0.029  0.8635 -0.5029  0.0394
    25 C(13)  Bbb    -0.0006    -0.081    -0.029    -0.027 -0.0287  0.0290  0.9992
              Bcc     0.0012     0.167     0.060     0.056  0.5036  0.8639 -0.0106
 
              Baa    -0.0007    -0.344    -0.123    -0.115  0.6438 -0.6116  0.4599
    26 F(19)  Bbb    -0.0006    -0.311    -0.111    -0.104 -0.3527  0.2962  0.8876
              Bcc     0.0013     0.654     0.234     0.218  0.6791  0.7336  0.0250
 
              Baa    -0.0006    -0.289    -0.103    -0.096  0.8701 -0.4914  0.0377
    27 F(19)  Bbb    -0.0006    -0.280    -0.100    -0.093  0.0768  0.2107  0.9745
              Bcc     0.0011     0.569     0.203     0.190  0.4868  0.8451 -0.2211
 
              Baa    -0.0003    -0.167    -0.060    -0.056  0.8523 -0.4419  0.2799
    28 F(19)  Bbb    -0.0003    -0.145    -0.052    -0.048 -0.2741  0.0785  0.9585
              Bcc     0.0006     0.312     0.111     0.104  0.4455  0.8936  0.0543
 
              Baa    -0.1454   -19.509    -6.961    -6.508  0.7532 -0.2653  0.6019
    29 C(13)  Bbb     0.0468     6.280     2.241     2.095 -0.0273  0.9017  0.4316
              Bcc     0.0986    13.230     4.721     4.413 -0.6572 -0.3415  0.6719
 
              Baa    -0.4562    33.011    11.779    11.011  0.4372  0.8931  0.1061
    30 O(17)  Bbb    -0.4344    31.431    11.215    10.484 -0.6218  0.2150  0.7531
              Bcc     0.8906   -64.442   -22.994   -21.496  0.6498 -0.3952  0.6493
 
              Baa    -0.0024    -1.260    -0.450    -0.420 -0.5641  0.1705  0.8079
    31 H(1)   Bbb    -0.0010    -0.524    -0.187    -0.175  0.7501 -0.3031  0.5877
              Bcc     0.0033     1.784     0.636     0.595  0.3451  0.9376  0.0431
 
              Baa    -0.0013    -0.679    -0.242    -0.227 -0.2540  0.0017  0.9672
    32 H(1)   Bbb    -0.0011    -0.605    -0.216    -0.202  0.9600 -0.1209  0.2524
              Bcc     0.0024     1.284     0.458     0.428  0.1174  0.9927  0.0291
 
              Baa    -0.0016    -0.853    -0.304    -0.284  0.5771  0.2320  0.7830
    33 H(1)   Bbb    -0.0013    -0.703    -0.251    -0.234  0.7916 -0.3946 -0.4665
              Bcc     0.0029     1.555     0.555     0.519  0.2007  0.8891 -0.4114
 
              Baa    -0.0035    -1.877    -0.670    -0.626 -0.6110 -0.1967  0.7668
    34 H(1)   Bbb    -0.0007    -0.384    -0.137    -0.128  0.3399  0.8097  0.4785
              Bcc     0.0042     2.261     0.807     0.754  0.7150 -0.5529  0.4279
 
              Baa    -0.0036    -1.937    -0.691    -0.646  0.9291  0.3699 -0.0026
    35 H(1)   Bbb    -0.0014    -0.728    -0.260    -0.243  0.1711 -0.4235  0.8896
              Bcc     0.0050     2.665     0.951     0.889 -0.3280  0.8269  0.4568
 
              Baa    -0.0106    -5.637    -2.011    -1.880  0.0157  0.3909  0.9203
    36 H(1)   Bbb     0.0003     0.172     0.061     0.057  0.2981  0.8767 -0.3775
              Bcc     0.0102     5.465     1.950     1.823  0.9544 -0.2803  0.1028
 
              Baa    -0.0105    -5.581    -1.991    -1.862  0.8438  0.5253  0.1099
    37 H(1)   Bbb     0.0003     0.167     0.059     0.056 -0.5154  0.7362  0.4386
              Bcc     0.0101     5.414     1.932     1.806  0.1495 -0.4268  0.8919
 
              Baa    -0.0109    -5.805    -2.071    -1.936  0.6657 -0.3527  0.6576
    38 H(1)   Bbb    -0.0057    -3.062    -1.093    -1.021 -0.4598  0.5003  0.7337
              Bcc     0.0166     8.867     3.164     2.958  0.5878  0.7908 -0.1709
 
              Baa    -0.0112    -5.981    -2.134    -1.995  0.7607 -0.3734  0.5309
    39 H(1)   Bbb    -0.0036    -1.914    -0.683    -0.638  0.6098  0.6914 -0.3875
              Bcc     0.0148     7.895     2.817     2.633 -0.2224  0.6185  0.7537
 
              Baa    -0.0131    -7.008    -2.501    -2.338  0.2998  0.9276 -0.2230
    40 H(1)   Bbb    -0.0050    -2.679    -0.956    -0.894  0.8412 -0.3673 -0.3967
              Bcc     0.0182     9.687     3.457     3.231  0.4499  0.0687  0.8904
 
              Baa    -0.0097    -5.195    -1.854    -1.733  0.7439 -0.1874  0.6414
    41 H(1)   Bbb    -0.0072    -3.842    -1.371    -1.282 -0.0116  0.9561  0.2927
              Bcc     0.0169     9.037     3.225     3.014 -0.6681 -0.2252  0.7091
 
              Baa    -0.0018    -0.939    -0.335    -0.313 -0.1639 -0.5342  0.8293
    42 H(1)   Bbb    -0.0015    -0.784    -0.280    -0.261  0.8710  0.3163  0.3759
              Bcc     0.0032     1.723     0.615     0.575 -0.4632  0.7839  0.4135
 
              Baa    -0.0024    -1.289    -0.460    -0.430  0.7371  0.5293  0.4201
    43 H(1)   Bbb    -0.0020    -1.058    -0.377    -0.353 -0.2078  0.7691 -0.6044
              Bcc     0.0044     2.347     0.837     0.783 -0.6430  0.3582  0.6769
 
              Baa    -0.0018    -0.961    -0.343    -0.321  0.5873  0.8093  0.0018
    44 H(1)   Bbb    -0.0014    -0.745    -0.266    -0.248 -0.0473  0.0321  0.9984
              Bcc     0.0032     1.706     0.609     0.569  0.8080 -0.5865  0.0571
 
              Baa    -0.0026    -1.369    -0.489    -0.457 -0.0518 -0.6549  0.7539
    45 H(1)   Bbb    -0.0022    -1.184    -0.422    -0.395  0.2698  0.7177  0.6420
              Bcc     0.0048     2.553     0.911     0.852  0.9615 -0.2367 -0.1396
 
              Baa    -0.0008    -0.419    -0.149    -0.140  0.4337  0.8074  0.4000
    46 H(1)   Bbb    -0.0006    -0.330    -0.118    -0.110  0.2400 -0.5314  0.8124
              Bcc     0.0014     0.748     0.267     0.250  0.8685 -0.2563 -0.4243
 
              Baa    -0.0007    -0.374    -0.134    -0.125  0.2097  0.8601 -0.4651
    47 H(1)   Bbb    -0.0005    -0.247    -0.088    -0.082  0.2326  0.4181  0.8781
              Bcc     0.0012     0.621     0.222     0.207  0.9497 -0.2923 -0.1124
 
              Baa    -0.0003    -0.180    -0.064    -0.060 -0.0709 -0.5653  0.8218
    48 H(1)   Bbb    -0.0003    -0.174    -0.062    -0.058  0.5968  0.6361  0.4891
              Bcc     0.0007     0.354     0.126     0.118  0.7992 -0.5251 -0.2923
 
              Baa    -0.0005    -0.282    -0.101    -0.094 -0.1681 -0.6400  0.7497
    49 H(1)   Bbb    -0.0005    -0.277    -0.099    -0.092  0.7284  0.4318  0.5319
              Bcc     0.0010     0.559     0.200     0.187  0.6642 -0.6356 -0.3936
 
              Baa    -0.0005    -0.255    -0.091    -0.085  0.5123  0.4288  0.7441
    50 H(1)   Bbb    -0.0005    -0.249    -0.089    -0.083 -0.4418 -0.6115  0.6565
              Bcc     0.0009     0.505     0.180     0.168  0.7365 -0.6650 -0.1238
 

 ---------------------------------------------------------------------------------

 No NMR shielding tensors so no spin-rotation constants.
 Leave Link  601 at Sun Mar  3 18:04:45 2024, MaxMem=  5368709120 cpu:         6.5
 (Enter /home/k0335/k033513/app/g09/l9999.exe)
 1\1\GINC-C18U06N4\SP\UCAM-B3LYP\6-31G(d,p)\C15H20F9N3O3(1+,2)\K033513\
 03-Mar-2024\0\\#p CAM-B3LYP/6-31G(d,p) SCRF=(PCM,Solvent=Generic,Read)
  NoSymm out=wfn\\Title A892693591_p1\\1,2\C,0,-0.074032,5.717457,0.138
 286\C,0,-1.307591,4.89642,0.480479\C,0,-1.185127,3.42258,0.090558\C,0,
 -0.101386,2.678359,0.874452\N,0,-0.087648,1.249806,0.573464\C,0,0.4617
 06,0.814475,-0.671946\N,0,0.921889,-0.530604,-0.525967\C,0,2.153221,-0
 .942147,-1.191031\C,0,3.374544,-0.681336,-0.308264\C,0,4.700644,-0.995
 657,-1.001952\C,0,4.883666,-2.47166,-1.31952\C,0,0.165809,-1.420363,0.
 206131\O,0,0.521376,-2.583824,0.356946\N,0,-0.982593,-0.901439,0.75363
 9\C,0,-1.912233,-1.804908,1.4118\F,0,-1.450055,-2.113887,2.65559\F,0,-
 3.079531,-1.123995,1.622437\C,0,-2.289692,-3.114957,0.656209\F,0,-1.33
 5376,-4.073905,0.907633\O,0,-2.282137,-3.012025,-0.778086\C,0,-3.38318
 1,-2.335804,-1.320734\F,0,-3.117483,-2.057707,-2.610425\F,0,-3.586124,
 -1.180577,-0.673958\F,0,-4.475891,-3.107841,-1.257759\C,0,-3.580222,-3
 .645485,1.294893\F,0,-4.634856,-2.817098,1.127714\F,0,-3.449302,-3.863
 643,2.622025\F,0,-3.93514,-4.830642,0.734747\C,0,-0.947932,0.39171,1.2
 40497\O,0,-1.600829,0.779413,2.206738\H,0,0.792345,5.404979,0.728472\H
 ,0,-0.256103,6.775533,0.352405\H,0,0.177684,5.625126,-0.922926\H,0,-2.
 16858,5.324866,-0.046343\H,0,-1.517587,4.982683,1.552897\H,0,-2.154649
 ,2.938511,0.262754\H,0,-0.989008,3.341808,-0.985646\H,0,0.894793,3.075
 661,0.652673\H,0,-0.269602,2.810442,1.949569\H,0,-0.308836,0.848907,-1
 .450039\H,0,1.299027,1.463137,-0.948822\H,0,2.083524,-2.008898,-1.4283
 81\H,0,2.230208,-0.402194,-2.141816\H,0,3.293628,-1.262541,0.618788\H,
 0,3.385135,0.373808,-0.007318\H,0,4.78719,-0.410158,-1.924619\H,0,5.51
 9632,-0.676653,-0.346261\H,0,5.885944,-2.647144,-1.723476\H,0,4.16174,
 -2.814057,-2.066595\H,0,4.769022,-3.084536,-0.419912\\Version=ES64L-G0
 9RevD.01\HF=-1871.2512219\S2=0.767098\S2-1=0.\S2A=0.750119\RMSD=7.140e
 -09\Dipole=2.8868271,6.1229409,-1.4537055\Quadrupole=-0.4245182,7.8673
 687,-7.4428505,-3.0491215,-0.0110975,3.3911663\PG=C01 [X(C15H20F9N3O3)
 ]\\@

 Writing a WFN file to "A892693591/A892693591_p1.wfn"


 ACCORDING TO HEN3RY, LIFE IS MUCH LIKE A SEWER........
 YOU GET OUT OF IT JUST WHAT YOU PUT INTO IT...........
                         TOM LEHRER - (THE 3 IS SILENT)
 Job cpu time:       0 days  0 hours 49 minutes  1.6 seconds.
 File lengths (MBytes):  RWF=    494 Int=      0 D2E=      0 Chk=     16 Scr=      1
 Normal termination of Gaussian 09 at Sun Mar  3 18:04:45 2024.
