 Entering Gaussian System, Link 0=g09
 Initial command:
 /home/k0335/k033513/app/g09/l1.exe "/home/k0335/k033513/app/g09/scratch/Gau-535302.inp" -scrdir="/home/k0335/k033513/app/g09/scratch/"
 Default is to use a total of  36 processors:
                               36 via shared-memory
                                1 via Linda
 Entering Link 1 = /home/k0335/k033513/app/g09/l1.exe PID=    535303.
  
 Copyright (c) 1988,1990,1992,1993,1995,1998,2003,2009,2013,
            Gaussian, Inc.  All Rights Reserved.
  
 This is part of the Gaussian(R) 09 program.  It is based on
 the Gaussian(R) 03 system (copyright 2003, Gaussian, Inc.),
 the Gaussian(R) 98 system (copyright 1998, Gaussian, Inc.),
 the Gaussian(R) 94 system (copyright 1995, Gaussian, Inc.),
 the Gaussian 92(TM) system (copyright 1992, Gaussian, Inc.),
 the Gaussian 90(TM) system (copyright 1990, Gaussian, Inc.),
 the Gaussian 88(TM) system (copyright 1988, Gaussian, Inc.),
 the Gaussian 86(TM) system (copyright 1986, Carnegie Mellon
 University), and the Gaussian 82(TM) system (copyright 1983,
 Carnegie Mellon University). Gaussian is a federally registered
 trademark of Gaussian, Inc.
  
 This software contains proprietary and confidential information,
 including trade secrets, belonging to Gaussian, Inc.
  
 This software is provided under written license and may be
 used, copied, transmitted, or stored only in accord with that
 written license.
  
 The following legend is applicable only to US Government
 contracts under FAR:
  
                    RESTRICTED RIGHTS LEGEND
  
 Use, reproduction and disclosure by the US Government is
 subject to restrictions as set forth in subparagraphs (a)
 and (c) of the Commercial Computer Software - Restricted
 Rights clause in FAR 52.227-19.
  
 Gaussian, Inc.
 340 Quinnipiac St., Bldg. 40, Wallingford CT 06492
  
  
 ---------------------------------------------------------------
 Warning -- This program may not be used in any manner that
 competes with the business of Gaussian, Inc. or will provide
 assistance to any competitor of Gaussian, Inc.  The licensee
 of this program is prohibited from giving any competitor of
 Gaussian, Inc. access to this program.  By using this program,
 the user acknowledges that Gaussian, Inc. is engaged in the
 business of creating and licensing software in the field of
 computational chemistry and represents and warrants to the
 licensee that it is not a competitor of Gaussian, Inc. and that
 it will not use this program in any manner prohibited above.
 ---------------------------------------------------------------
  

 Cite this work as:
 Gaussian 09, Revision D.01,
 M. J. Frisch, G. W. Trucks, H. B. Schlegel, G. E. Scuseria, 
 M. A. Robb, J. R. Cheeseman, G. Scalmani, V. Barone, B. Mennucci, 
 G. A. Petersson, H. Nakatsuji, M. Caricato, X. Li, H. P. Hratchian, 
 A. F. Izmaylov, J. Bloino, G. Zheng, J. L. Sonnenberg, M. Hada, 
 M. Ehara, K. Toyota, R. Fukuda, J. Hasegawa, M. Ishida, T. Nakajima, 
 Y. Honda, O. Kitao, H. Nakai, T. Vreven, J. A. Montgomery, Jr., 
 J. E. Peralta, F. Ogliaro, M. Bearpark, J. J. Heyd, E. Brothers, 
 K. N. Kudin, V. N. Staroverov, T. Keith, R. Kobayashi, J. Normand, 
 K. Raghavachari, A. Rendell, J. C. Burant, S. S. Iyengar, J. Tomasi, 
 M. Cossi, N. Rega, J. M. Millam, M. Klene, J. E. Knox, J. B. Cross, 
 V. Bakken, C. Adamo, J. Jaramillo, R. Gomperts, R. E. Stratmann, 
 O. Yazyev, A. J. Austin, R. Cammi, C. Pomelli, J. W. Ochterski, 
 R. L. Martin, K. Morokuma, V. G. Zakrzewski, G. A. Voth, 
 P. Salvador, J. J. Dannenberg, S. Dapprich, A. D. Daniels, 
 O. Farkas, J. B. Foresman, J. V. Ortiz, J. Cioslowski, 
 and D. J. Fox, Gaussian, Inc., Wallingford CT, 2013.
 
 ******************************************
 Gaussian 09:  ES64L-G09RevD.01 24-Apr-2013
                 3-Mar-2024 
 ******************************************
 %nprocshared=24
 Will use up to   24 processors via shared memory.
 %mem=40GB
 %rwf=A603415622/A603415622_p1.rwf
 %nosave
 %chk=A603415622/A603415622_p1.chk
 ----------------------------------------------------------------------
 #p CAM-B3LYP/6-31G(d,p) SCRF=(PCM,Solvent=Generic,Read) NoSymm out=wfn
 ----------------------------------------------------------------------
 1/38=1,40=2/1;
 2/12=2,15=1,17=6,18=5,40=1/2;
 3/5=1,6=6,7=101,11=2,16=1,25=1,30=1,70=2203,72=-2,74=-40/1,2,3;
 4//1;
 5/5=2,38=5/2;
 6/7=2,8=2,9=2,10=2,28=1/1;
 99/5=1,6=100,9=1/99;
 Leave Link    1 at Sun Mar  3 18:22:02 2024, MaxMem=  5368709120 cpu:         0.8
 (Enter /home/k0335/k033513/app/g09/l101.exe)
 -------------------
 Title A603415622_p1
 -------------------
 Symbolic Z-matrix:
 Charge =  1 Multiplicity = 2
 C                     0.56927   5.68663  -0.64682 
 C                     0.30251   4.48158   0.1396 
 C                     0.08413   3.49237   0.78551 
 C                    -0.17929   2.27435   1.56869 
 N                    -0.12232   1.10003   0.70509 
 C                     1.09543   0.49009   0.51135 
 O                     2.10323   0.86646   1.10142 
 N                     1.1288   -0.56477  -0.35615 
 C                     2.34372  -1.361    -0.50981 
 F                     2.31217  -2.35186   0.42844 
 F                     2.24269  -2.01854  -1.71145 
 C                     3.77551  -0.7335   -0.51812 
 F                     4.66377  -1.71306  -0.9096 
 O                     4.33823  -0.20762   0.6824 
 C                     4.35429  -1.12596   1.74524 
 F                     4.74501  -2.34593   1.34173 
 F                     5.21996  -0.68537   2.67873 
 F                     3.13332  -1.2095    2.30405 
 C                     3.78883   0.31938  -1.62725 
 F                     3.48051  -0.2059   -2.83612 
 F                     2.90385   1.32051  -1.41442 
 F                     5.0091    0.89636  -1.75347 
 C                    -0.04769  -1.1949   -0.70432 
 O                    -0.10908  -2.3975   -0.94126 
 N                    -1.16964  -0.4058   -0.72992 
 C                    -2.39552  -0.98826  -1.26312 
 F                    -2.08399  -1.64907  -2.41586 
 F                    -3.20255   0.02524  -1.69288 
 C                    -3.18302  -1.92132  -0.30349 
 F                    -2.44537  -3.04206  -0.05528 
 O                    -3.33736  -1.28734   0.97128 
 C                    -4.24451  -1.94777   1.81364 
 F                    -4.03993  -3.27325   1.80155 
 F                    -5.49834  -1.6658    1.42715 
 F                    -4.06494  -1.49319   3.06786 
 C                    -4.46089  -2.29928  -1.06675 
 F                    -4.21075  -2.81154  -2.29114 
 F                    -5.17523  -3.2406   -0.40302 
 F                    -5.28219  -1.2382   -1.23224 
 C                    -1.28849   0.67438   0.10627 
 O                    -2.37105   1.20476   0.34826 
 H                     1.58878   5.67378  -1.0439 
 H                    -0.12315   5.76125  -1.49075 
 H                     0.45492   6.58507  -0.03283 
 H                     0.55898   2.1822    2.3732 
 H                    -1.16168   2.34443   2.04851 
 
 NAtoms=     46 NQM=       46 NQMF=       0 NMMI=      0 NMMIF=      0
                NMic=       0 NMicF=      0.
                    Isotopes and Nuclear Properties:
 (Nuclear quadrupole moments (NQMom) in fm**2, nuclear magnetic moments (NMagM)
  in nuclear magnetons)

  Atom         1           2           3           4           5           6           7           8           9          10
 IAtWgt=          12          12          12          12          14          12          16          14          12          19
 AtmWgt=  12.0000000  12.0000000  12.0000000  12.0000000  14.0030740  12.0000000  15.9949146  14.0030740  12.0000000  18.9984033
 NucSpn=           0           0           0           0           2           0           0           2           0           1
 AtZEff=   0.0000000   0.0000000   0.0000000   0.0000000   0.0000000   0.0000000   0.0000000   0.0000000   0.0000000   0.0000000
 NQMom=    0.0000000   0.0000000   0.0000000   0.0000000   2.0440000   0.0000000   0.0000000   2.0440000   0.0000000   0.0000000
 NMagM=    0.0000000   0.0000000   0.0000000   0.0000000   0.4037610   0.0000000   0.0000000   0.4037610   0.0000000   2.6288670
 AtZNuc=   6.0000000   6.0000000   6.0000000   6.0000000   7.0000000   6.0000000   8.0000000   7.0000000   6.0000000   9.0000000

  Atom        11          12          13          14          15          16          17          18          19          20
 IAtWgt=          19          12          19          16          12          19          19          19          12          19
 AtmWgt=  18.9984033  12.0000000  18.9984033  15.9949146  12.0000000  18.9984033  18.9984033  18.9984033  12.0000000  18.9984033
 NucSpn=           1           0           1           0           0           1           1           1           0           1
 AtZEff=   0.0000000   0.0000000   0.0000000   0.0000000   0.0000000   0.0000000   0.0000000   0.0000000   0.0000000   0.0000000
 NQMom=    0.0000000   0.0000000   0.0000000   0.0000000   0.0000000   0.0000000   0.0000000   0.0000000   0.0000000   0.0000000
 NMagM=    2.6288670   0.0000000   2.6288670   0.0000000   0.0000000   2.6288670   2.6288670   2.6288670   0.0000000   2.6288670
 AtZNuc=   9.0000000   6.0000000   9.0000000   8.0000000   6.0000000   9.0000000   9.0000000   9.0000000   6.0000000   9.0000000

  Atom        21          22          23          24          25          26          27          28          29          30
 IAtWgt=          19          19          12          16          14          12          19          19          12          19
 AtmWgt=  18.9984033  18.9984033  12.0000000  15.9949146  14.0030740  12.0000000  18.9984033  18.9984033  12.0000000  18.9984033
 NucSpn=           1           1           0           0           2           0           1           1           0           1
 AtZEff=   0.0000000   0.0000000   0.0000000   0.0000000   0.0000000   0.0000000   0.0000000   0.0000000   0.0000000   0.0000000
 NQMom=    0.0000000   0.0000000   0.0000000   0.0000000   2.0440000   0.0000000   0.0000000   0.0000000   0.0000000   0.0000000
 NMagM=    2.6288670   2.6288670   0.0000000   0.0000000   0.4037610   0.0000000   2.6288670   2.6288670   0.0000000   2.6288670
 AtZNuc=   9.0000000   9.0000000   6.0000000   8.0000000   7.0000000   6.0000000   9.0000000   9.0000000   6.0000000   9.0000000

  Atom        31          32          33          34          35          36          37          38          39          40
 IAtWgt=          16          12          19          19          19          12          19          19          19          12
 AtmWgt=  15.9949146  12.0000000  18.9984033  18.9984033  18.9984033  12.0000000  18.9984033  18.9984033  18.9984033  12.0000000
 NucSpn=           0           0           1           1           1           0           1           1           1           0
 AtZEff=   0.0000000   0.0000000   0.0000000   0.0000000   0.0000000   0.0000000   0.0000000   0.0000000   0.0000000   0.0000000
 NQMom=    0.0000000   0.0000000   0.0000000   0.0000000   0.0000000   0.0000000   0.0000000   0.0000000   0.0000000   0.0000000
 NMagM=    0.0000000   0.0000000   2.6288670   2.6288670   2.6288670   0.0000000   2.6288670   2.6288670   2.6288670   0.0000000
 AtZNuc=   8.0000000   6.0000000   9.0000000   9.0000000   9.0000000   6.0000000   9.0000000   9.0000000   9.0000000   6.0000000

  Atom        41          42          43          44          45          46
 IAtWgt=          16           1           1           1           1           1
 AtmWgt=  15.9949146   1.0078250   1.0078250   1.0078250   1.0078250   1.0078250
 NucSpn=           0           1           1           1           1           1
 AtZEff=   0.0000000   0.0000000   0.0000000   0.0000000   0.0000000   0.0000000
 NQMom=    0.0000000   0.0000000   0.0000000   0.0000000   0.0000000   0.0000000
 NMagM=    0.0000000   2.7928460   2.7928460   2.7928460   2.7928460   2.7928460
 AtZNuc=   8.0000000   1.0000000   1.0000000   1.0000000   1.0000000   1.0000000
 Leave Link  101 at Sun Mar  3 18:22:02 2024, MaxMem=  5368709120 cpu:         1.2
 (Enter /home/k0335/k033513/app/g09/l202.exe)
                          Input orientation:                          
 ---------------------------------------------------------------------
 Center     Atomic      Atomic             Coordinates (Angstroms)
 Number     Number       Type             X           Y           Z
 ---------------------------------------------------------------------
      1          6           0        0.569265    5.686633   -0.646820
      2          6           0        0.302511    4.481576    0.139600
      3          6           0        0.084132    3.492367    0.785505
      4          6           0       -0.179291    2.274347    1.568691
      5          7           0       -0.122318    1.100033    0.705091
      6          6           0        1.095427    0.490086    0.511347
      7          8           0        2.103234    0.866460    1.101415
      8          7           0        1.128802   -0.564774   -0.356147
      9          6           0        2.343719   -1.360996   -0.509805
     10          9           0        2.312174   -2.351855    0.428440
     11          9           0        2.242693   -2.018541   -1.711447
     12          6           0        3.775506   -0.733501   -0.518116
     13          9           0        4.663771   -1.713058   -0.909596
     14          8           0        4.338234   -0.207615    0.682402
     15          6           0        4.354291   -1.125956    1.745236
     16          9           0        4.745010   -2.345925    1.341728
     17          9           0        5.219962   -0.685367    2.678732
     18          9           0        3.133316   -1.209504    2.304046
     19          6           0        3.788827    0.319378   -1.627254
     20          9           0        3.480511   -0.205897   -2.836120
     21          9           0        2.903848    1.320512   -1.414424
     22          9           0        5.009095    0.896363   -1.753468
     23          6           0       -0.047685   -1.194897   -0.704318
     24          8           0       -0.109083   -2.397500   -0.941262
     25          7           0       -1.169639   -0.405798   -0.729919
     26          6           0       -2.395522   -0.988257   -1.263117
     27          9           0       -2.083985   -1.649068   -2.415860
     28          9           0       -3.202554    0.025241   -1.692876
     29          6           0       -3.183024   -1.921323   -0.303490
     30          9           0       -2.445369   -3.042058   -0.055282
     31          8           0       -3.337363   -1.287336    0.971278
     32          6           0       -4.244514   -1.947769    1.813636
     33          9           0       -4.039926   -3.273247    1.801550
     34          9           0       -5.498338   -1.665801    1.427152
     35          9           0       -4.064945   -1.493189    3.067860
     36          6           0       -4.460895   -2.299278   -1.066745
     37          9           0       -4.210754   -2.811543   -2.291142
     38          9           0       -5.175232   -3.240603   -0.403019
     39          9           0       -5.282189   -1.238202   -1.232244
     40          6           0       -1.288493    0.674381    0.106267
     41          8           0       -2.371050    1.204761    0.348264
     42          1           0        1.588779    5.673778   -1.043903
     43          1           0       -0.123154    5.761250   -1.490745
     44          1           0        0.454917    6.585068   -0.032831
     45          1           0        0.558979    2.182197    2.373200
     46          1           0       -1.161679    2.344427    2.048512
 ---------------------------------------------------------------------
                    Distance matrix (angstroms):
                    1          2          3          4          5
     1  C    0.000000
     2  C    1.463481   0.000000
     3  C    2.664904   1.201423   0.000000
     4  C    4.136728   2.673255   1.471851   0.000000
     5  N    4.831444   3.454720   2.402572   1.458789   0.000000
     6  C    5.349981   4.086429   3.179870   2.434434   1.375673
     7  O    5.351958   4.151717   3.327455   2.722207   2.272600
     8  N    6.283125   5.137526   4.342246   3.671065   2.337330
     9  C    7.268874   6.222853   5.508057   4.888910   3.689712
    10  F    8.295252   7.128671   6.264710   5.376738   4.233062
    11  F    7.956350   7.031515   6.423726   5.920659   4.599830
    12  C    7.177372   6.300104   5.760523   5.389094   4.477847
    13  F    8.461055   7.648195   7.137430   6.745113   5.781638
    14  O    7.121385   6.210492   5.638961   5.230074   4.648331
    15  C    8.152283   7.102070   6.362723   5.669797   5.106560
    16  F    9.268935   8.233813   7.491250   6.756269   5.997567
    17  F    8.560997   7.571381   6.885820   6.256519   5.968490
    18  F    7.927085   6.714661   5.806124   4.863263   4.299973
    19  C    6.335160   5.709647   5.441877   5.457282   4.620207
    20  F    6.927503   6.397421   6.191019   6.240843   5.217854
    21  F    5.010240   4.378843   4.184189   4.394829   3.701167
    22  F    6.624458   6.212036   6.118895   6.313076   5.693627
    23  C    6.909370   5.749537   4.920101   4.149644   2.694199
    24  O    8.117885   6.975626   6.140813   5.303862   3.865668
    25  N    6.336277   5.177810   4.366250   3.667093   2.328876
    26  C    7.329662   6.258280   5.515571   4.855451   3.660909
    27  F    7.998859   7.057658   6.433026   5.907427   4.598481
    28  F    6.882747   5.958387   5.381974   4.983615   4.048861
    29  C    8.489908   7.303588   6.416250   5.489182   4.417437
    30  F    9.253539   8.012109   7.057195   6.003046   4.809537
    31  O    8.155748   6.871733   5.881046   4.797490   4.013340
    32  C    9.354700   8.050734   7.027753   5.866200   5.245042
    33  F   10.369118   9.041909   7.988350   6.762731   5.972893
    34  F    9.755791   8.549730   7.627737   6.620956   6.088744
    35  F    9.317972   7.959095   6.876027   5.616061   5.277479
    36  C    9.447413   8.374084   7.591525   6.796742   5.789470
    37  F    9.887941   8.914463   8.225028   7.550979   6.402589
    38  F   10.618579   9.483256   8.625914   7.698165   6.752849
    39  F    9.084909   8.110899   7.432832   6.798736   5.987059
    40  C    5.398247   4.126395   3.207259   2.434934   1.378308
    41  O    5.451864   4.234263   3.384116   2.727135   2.279274
    42  H    1.094189   2.115777   3.220132   4.637656   5.187097
    43  H    1.094176   2.115841   3.220576   4.639159   5.152537
    44  H    1.094186   2.116043   3.220552   4.642134   5.564471
    45  H    4.626197   3.215881   2.112534   1.095796   2.101864
    46  H    4.629398   3.217950   2.113054   1.095548   2.105604
                    6          7          8          9         10
     6  C    0.000000
     7  O    1.226993   0.000000
     8  N    1.366159   2.263280   0.000000
     9  C    2.455094   2.759606   1.460686   0.000000
    10  F    3.092568   3.294557   2.282456   1.364954   0.000000
    11  F    3.542632   4.031733   2.278383   1.373505   2.166805
    12  C    3.120862   2.824757   2.657018   1.563276   2.378314
    13  F    4.427866   4.153845   3.757774   2.380425   2.780002
    14  O    3.321422   2.514843   3.392138   2.594173   2.960943
    15  C    3.841129   3.074327   3.890310   3.030322   2.721584
    16  F    4.695950   4.166071   4.374041   3.188175   2.598619
    17  F    4.805313   3.822315   5.095353   4.346955   4.036859
    18  F    3.202400   2.610942   3.392695   2.926460   2.344598
    19  C    3.443423   3.253638   3.077852   2.482073   3.679928
    20  F    4.168759   4.307090   3.436509   2.835188   4.077683
    21  F    2.769222   2.678916   2.797328   2.884886   4.151205
    22  F    4.539961   4.073730   4.375397   3.707640   4.752371
    23  C    2.371437   3.483722   1.379275   2.405044   2.861927
    24  O    3.449503   4.440756   2.287707   2.697542   2.782203
    25  N    2.733839   3.960318   2.334054   3.647539   4.153547
    26  C    4.185803   5.410156   3.663713   4.813192   5.184898
    27  F    4.822155   6.019295   3.967381   4.829140   5.283007
    28  F    4.852558   6.055336   4.571171   5.838018   6.368893
    29  C    4.978353   6.139219   4.520491   5.558905   5.560421
    30  F    5.033324   6.107721   4.359146   5.095873   4.831623
    31  O    4.797957   5.852851   4.714953   5.871433   5.774525
    32  C    6.012825   6.980046   5.957613   7.010527   6.713584
    33  F    6.496087   7.440818   6.221514   7.053367   6.563807
    34  F    6.997448   8.018874   6.950640   8.083475   7.903935
    35  F    6.090860   6.890666   6.289737   7.340854   6.954962
    36  C    6.414331   7.603329   5.895606   6.891540   6.936340
    37  F    6.849106   8.056277   6.107621   6.945384   7.082092
    38  F    7.353589   8.491605   6.848584   7.751061   7.585674
    39  F    6.833818   8.026210   6.505525   7.661036   7.853180
    40  C    2.425104   3.539919   2.755476   4.208951   4.714520
    41  O    3.543137   4.549824   3.984522   5.435848   5.881202
    42  H    5.434415   5.289363   6.293180   7.095297   8.191574
    43  H    5.768750   5.969511   6.547770   7.600927   8.685423
    44  H    6.152657   6.058543   7.188803   8.181382   9.139517
    45  H    2.572453   2.394436   3.914062   4.904205   5.235782
    46  H    3.300907   3.706890   4.414990   5.706396   6.061959
                   11         12         13         14         15
    11  F    0.000000
    12  C    2.329138   0.000000
    13  F    2.568638   1.379059   0.000000
    14  O    3.660773   1.426346   2.215128   0.000000
    15  C    4.147796   2.368919   2.736531   1.404715   0.000000
    16  F    3.961142   2.645538   2.339996   2.274323   1.343058
    17  F    5.469475   3.508362   3.773804   2.234060   1.347190
    18  F    4.191889   2.933187   3.594907   2.255069   1.345373
    19  C    2.804190   1.529352   2.326232   2.431888   3.712469
    20  F    2.466325   2.395523   2.717192   3.621559   4.753822
    21  F    3.416815   2.404605   3.543265   2.964678   4.251169
    22  F    4.018882   2.388366   2.764136   2.757224   4.093833
    23  C    2.634109   3.855431   4.744307   4.704679   5.038101
    24  O    2.503527   4.247114   4.821784   5.216369   5.362444
    25  N    3.899788   4.960515   5.980793   5.689516   6.095804
    26  C    4.772371   6.221054   7.105205   7.052511   7.391152
    27  F    4.399187   6.226823   6.914126   7.274745   7.683734
    28  F    5.816193   7.116816   8.094089   7.909466   8.381633
    29  C    5.606264   7.062445   7.872924   7.776767   7.851179
    30  F    5.076258   6.651536   7.282580   7.388878   7.290315
    31  O    6.234477   7.288205   8.230253   7.756548   7.732179
    32  C    7.383432   8.439919   9.318188   8.830141   8.638258
    33  F    7.306623   8.538860   9.248721   8.991338   8.664693
    34  F    8.360550   9.521420  10.427420   9.971916   9.872533
    35  F    7.931208   8.655000   9.594737   8.829299   8.530400
    36  C    6.740367   8.401842   9.144828   9.211908   9.326919
    37  F    6.527777   8.440511   9.048344   9.418471   9.617357
    38  F    7.630926   9.295941   9.969754  10.044062   9.994926
    39  F    7.580397   9.099810   9.962515   9.863089  10.086612
    40  C    4.798457   5.293021   6.493173   5.724500   6.145604
    41  O    5.993222   6.502894   7.719105   6.864470   7.253550
    42  H    7.748870   6.790541   8.002435   6.717917   7.852626
    43  H    8.134561   7.637234   8.894811   7.762339   8.829082
    44  H    8.946283   8.051290   9.345698   7.856987   8.821935
    45  H    6.096346   5.216038   6.542100   4.780457   5.073717
    46  H    6.690481   6.359011   7.690868   6.215160   6.523914
                   16         17         18         19         20
    16  F    0.000000
    17  F    2.184173   0.000000
    18  F    2.194326   2.183850   0.000000
    19  C    4.102801   4.647491   4.268758   0.000000
    20  F    4.861388   5.802514   5.248722   1.353636   0.000000
    21  F    4.942571   5.112911   4.503405   1.353053   2.164182
    22  F    4.490257   4.710704   4.941320   1.355690   2.173403
    23  C    5.336768   6.281143   4.378268   4.226543   4.239206
    24  O    5.364413   6.665919   4.738830   4.800595   4.612894
    25  N    6.560403   7.247349   5.326003   5.090921   5.108810
    26  C    7.721119   8.580531   6.583438   6.331562   6.133041
    27  F    7.825615   8.957189   7.049181   6.243925   5.763938
    28  F    8.831479   9.516023   7.592314   6.997873   6.784084
    29  C    8.108067   9.001745   6.870377   7.441760   7.332094
    30  F    7.357839   8.472669   6.328223   7.255036   7.133928
    31  O    8.159816   8.746747   6.606967   7.753482   7.883476
    32  C    9.010703   9.587406   7.430876   9.028524   9.183156
    33  F    8.845703   9.654641   7.481105   9.271085   9.352732
    34  F   10.266258  10.835574   8.688072   9.976060  10.046220
    35  F    9.017871   9.328102   7.244229   9.327981   9.666851
    36  C    9.515861  10.504870   8.379850   8.673491   8.401123
    37  F    9.675756  10.870082   8.810088   8.616073   8.138916
    38  F   10.112161  11.139411   8.971373   9.722478   9.489537
    39  F   10.411393  11.220363   9.128357   9.212243   8.967886
    40  C    6.859429   7.129269   5.285040   5.376830   5.672383
    41  O    8.014528   8.162544   6.320744   6.529216   6.809627
    42  H    8.942520   8.214757   7.808580   5.818085   6.431273
    43  H    9.871586   9.353732   8.578837   6.703447   7.099527
    44  H   10.002847   9.105902   8.566806   7.274339   7.945430
    45  H    6.252254   5.480970   4.258595   5.468605   6.432368
    46  H    7.575482   7.092402   5.580565   6.489961   7.205117
                   21         22         23         24         25
    21  F    0.000000
    22  F    2.174148   0.000000
    23  C    3.942471   5.571814   0.000000
    24  O    4.808872   6.140436   1.227260   0.000000
    25  N    4.476828   6.396877   1.371901   2.266345   0.000000
    26  C    5.782442   7.656408   2.422250   2.705062   1.458200
    27  F    5.890650   7.565036   2.698549   2.575816   2.285639
    28  F    6.248472   8.257948   3.524086   4.000520   2.290376
    29  C    6.985247   8.783656   3.243256   3.175313   2.555851
    30  F    7.035155   8.600234   3.095503   2.580436   3.005410
    31  O    7.172528   9.047438   3.692986   3.913063   2.893131
    32  C    8.497124  10.317102   4.951796   4.989340   4.278107
    33  F    8.925307  10.578685   5.151398   4.872523   4.782170
    34  F    9.358918  11.273295   5.871502   5.932018   4.997819
    35  F    8.750535  10.549567   5.518757   5.704356   4.897789
    36  C    8.213598  10.018204   4.563708   4.354729   3.811966
    37  F    8.274060   9.952049   4.739483   4.337893   4.180120
    38  F    9.332644  11.075140   5.528782   5.163951   4.918105
    39  F    8.578544  10.523239   5.261237   5.309394   4.225908
    40  C    4.506186   6.570198   2.385551   3.453227   1.371175
    41  O    5.562824   7.679774   3.502044   4.444734   2.280300
    42  H    4.562633   5.918255   7.069090   8.248563   6.683465
    43  H    5.374823   7.076449   7.000867   8.177245   6.301307
    44  H    5.968384   7.487489   7.825047   9.045986   7.210917
    45  H    4.537291   6.203732   4.609113   5.692591   4.394905
    46  H    5.437724   7.391238   4.620159   5.703734   3.909409
                   26         27         28         29         30
    26  C    0.000000
    27  F    1.364750   0.000000
    28  F    1.364980   2.139442   0.000000
    29  C    1.552951   2.396689   2.391628   0.000000
    30  F    2.383159   2.764661   3.558562   1.364474   0.000000
    31  O    2.443161   3.629671   2.973003   1.432059   2.220029
    32  C    3.715622   4.758754   4.156209   2.368477   2.815536
    33  F    4.161421   4.924450   4.877728   2.644461   2.458432
    34  F    4.162221   5.140703   4.226680   2.901912   3.662283
    35  F    4.668971   5.832640   5.070893   3.510995   3.843961
    36  C    2.454201   2.809375   2.716404   1.535696   2.374263
    37  F    2.770609   2.426942   3.069484   2.408211   2.858110
    38  F    3.679622   4.017502   4.027521   2.391505   2.759075
    39  F    2.897632   3.434860   2.476560   2.394939   3.561837
    40  C    2.421795   3.520277   2.705906   3.239572   3.895687
    41  O    2.721484   3.983356   2.499784   3.294918   4.266596
    42  H    7.765656   8.306355   7.435322   9.000215   9.654922
    43  H    7.125399   7.720978   6.513475   8.354299   9.216912
    44  H    8.184978   8.940126   7.691825   9.255623  10.054537
    45  H    5.657177   6.678244   5.944288   6.164911   6.497420
    46  H    4.857575   6.060468   4.851987   5.273933   5.923515
                   31         32         33         34         35
    31  O    0.000000
    32  C    1.403090   0.000000
    33  F    2.264241   1.341229   0.000000
    34  F    2.240730   1.341995   2.202504   0.000000
    35  F    2.228768   1.346093   2.184668   2.185482   0.000000
    36  C    2.537694   2.909807   3.058259   2.774365   4.231018
    37  F    3.705321   4.194812   4.122194   4.098330   5.520708
    38  F    3.013587   2.729691   2.479941   2.435965   4.041435
    39  F    2.939434   3.295093   3.858566   2.702212   4.476337
    40  C    2.965543   4.304514   5.101778   4.994395   4.601965
    41  O    2.744532   3.949130   4.994972   4.379961   4.188606
    42  H    8.762702  10.014031  10.946606  10.497750  10.011823
    43  H    8.128669   9.345240  10.382796   9.621217   9.431091
    44  H    8.795702   9.914807  10.988855  10.278601   9.762258
    45  H    5.402270   6.359503   7.158113   7.238314   5.947410
    46  H    4.368494   5.289800   6.316926   5.939245   4.918874
                   36         37         38         39         40
    36  C    0.000000
    37  F    1.350605   0.000000
    38  F    1.355324   2.163173   0.000000
    39  F    1.351960   2.178219   2.169946   0.000000
    40  C    4.503636   5.141872   5.540145   4.625926   0.000000
    41  O    4.318332   5.146035   5.309343   4.115921   1.229551
    42  H   10.008431  10.353302  11.208424   9.747879   5.881799
    43  H    9.163399   9.531101  10.379788   8.699126   5.457536
    44  H   10.206164  10.731484  11.330465   9.775302   6.164012
    45  H    7.557511   8.333299   8.366321   7.669263   3.290235
    46  H    6.492584   7.396856   7.301450   6.370023   2.564654
                   41         42         43         44         45
    41  O    0.000000
    42  H    6.131108   0.000000
    43  H    5.403386   1.771450   0.000000
    44  H    6.089255   1.771541   1.771540   0.000000
    45  H    3.693348   4.992817   5.310838   5.018475   0.000000
    46  H    2.377448   5.311556   5.027878   4.992836   1.758523
                   46
    46  H    0.000000
 Symmetry turned off by external request.
 Stoichiometry    C15H5F18N3O5(1+,2)
 Framework group  C1[X(C15H5F18N3O5)]
 Deg. of freedom   132
 Full point group                 C1      NOp   1
 Rotational constants (GHZ):      0.1397893      0.0544853      0.0506194
 Leave Link  202 at Sun Mar  3 18:22:02 2024, MaxMem=  5368709120 cpu:         0.1
 (Enter /home/k0335/k033513/app/g09/l301.exe)
 Standard basis: 6-31G(d,p) (6D, 7F)
 Ernie: Thresh=  0.10000D-02 Tol=  0.10000D-05 Strict=F.
   640 basis functions,  1183 primitive gaussians,   640 cartesian basis functions
   159 alpha electrons      158 beta electrons
       nuclear repulsion energy      6171.0564339969 Hartrees.
 IExCor=20419 DFT=T Ex+Corr=CAM-B3LYP ExCW=0 ScaHFX=  1.000000
 ScaDFX=  1.000000  1.000000  1.000000  0.810000 ScalE2=  1.000000  1.000000
 IRadAn=      0 IRanWt=     -1 IRanGd=            0 ICorTp=0 IEmpDi=  4
  HFx wShort=  0.000000 wLong=  0.330000 cFull=  0.190000 cShort=  0.000000 cLong=  0.460000
  DFx wShort=  0.000000 wLong=  0.330000 cFull=  0.190000 cShort=  0.000000 cLong=  0.460000
 NAtoms=   46 NActive=   46 NUniq=   46 SFac= 1.00D+00 NAtFMM=   60 NAOKFM=F Big=F
 Integral buffers will be    131072 words long.
 Raffenetti 2 integral format.
 Two-electron integral symmetry is turned off.
 Using the following non-standard input for PCM:
 eps=4.9
 --- end of non-standard input.
 ------------------------------------------------------------------------------
 Polarizable Continuum Model (PCM)
 =================================
 Model                : PCM (using non-symmetric T matrix).
 Atomic radii         : UFF (Universal Force Field).
 Polarization charges : Total charges.
 Charge compensation  : None.
 Solution method      : On-the-fly selection.
 Cavity type          : Scaled VdW (van der Waals Surface) (Alpha=1.100).
 Cavity algorithm     : GePol (No added spheres)
                        Default sphere list used, NSphG=   46.
                        Lebedev-Laikov grids with approx.  5.0 points / Ang**2.
                        Smoothing algorithm: Karplus/York (Gamma=1.0000).
                        Polarization charges: spherical gaussians, with
                                              point-specific exponents (IZeta= 3).
                        Self-potential: point-specific (ISelfS= 7).
                        Self-field    : sphere-specific E.n sum rule (ISelfD= 2).
 Solvent              : Generic,
                        Eps                           =   4.900000
                        Eps(infinity)                 =   0.000000
                        RSolv                         =   0.000000 Ang.
                        Molar volume                  =   0.000000 cm**3/mol
                        Thermal expansion coefficient =   0.000000 K**-1
                        Absolute temperature          = 298.150000 K
                        Numeral density               =   0.000000 Ang**-3
                        Hydrogen bond acidity         =   0.000000
                        Hydrogen bond basicity        =   0.000000
                        Surface tension at interface  =   0.000000 (cal/mol)*Ang**-2
                        Carbon aromaticity            =   0.000000
                        Electronegative halogenicity  =   0.000000
 ------------------------------------------------------------------------------
 GePol: Number of generator spheres                  =      46
 GePol: Total number of spheres                      =      46
 GePol: Number of exposed spheres                    =      46 (100.00%)
 GePol: Number of points                             =    3858
 GePol: Average weight of points                     =       0.13
 GePol: Minimum weight of points                     =   0.38D-11
 GePol: Maximum weight of points                     =    0.20577
 GePol: Number of points with low weight             =     178
 GePol: Fraction of low-weight points (<1% of avg)   =       4.61%
 GePol: Cavity surface area                          =    486.155 Ang**2
 GePol: Cavity volume                                =    558.745 Ang**3
 Leave Link  301 at Sun Mar  3 18:22:02 2024, MaxMem=  5368709120 cpu:         1.0
 (Enter /home/k0335/k033513/app/g09/l302.exe)
 NPDir=0 NMtPBC=     1 NCelOv=     1 NCel=       1 NClECP=     1 NCelD=      1
         NCelK=      1 NCelE2=     1 NClLst=     1 CellRange=     0.0.
 One-electron integrals computed using PRISM.
 NBasis=   640 RedAO= T EigKep=  2.16D-04  NBF=   640
 NBsUse=   640 1.00D-06 EigRej= -1.00D+00 NBFU=   640
 Precomputing XC quadrature grid using
 IXCGrd= 4 IRadAn=           0 IRanWt=          -1 IRanGd=           0 AccXCQ= 0.00D+00.
 Generated NRdTot=       0 NPtTot=           0 NUsed=           0 NTot=          32
 NSgBfM=   618   618   618   618   618 MxSgAt=    46 MxSgA2=    46.
 Leave Link  302 at Sun Mar  3 18:22:03 2024, MaxMem=  5368709120 cpu:        16.3
 (Enter /home/k0335/k033513/app/g09/l303.exe)
 DipDrv:  MaxL=1.
 Leave Link  303 at Sun Mar  3 18:22:03 2024, MaxMem=  5368709120 cpu:         1.1
 (Enter /home/k0335/k033513/app/g09/l401.exe)
 ExpMin= 1.61D-01 ExpMax= 7.00D+03 ExpMxC= 1.05D+03 IAcc=1 IRadAn=         1 AccDes= 0.00D+00
 Harris functional with IExCor=20419 and IRadAn=       1 diagonalized for initial guess.
 HarFok:  IExCor=20419 AccDes= 0.00D+00 IRadAn=         1 IDoV= 1 UseB2=F ITyADJ=14
 ICtDFT=  3500011 ScaDFX=  1.000000  1.000000  1.000000  1.000000
 FoFCou: FMM=F IPFlag=           0 FMFlag=      100000 FMFlg1=           0
         NFxFlg=           0 DoJE=T BraDBF=F KetDBF=T FulRan=T
         wScrn=  0.000000 ICntrl=     500 IOpCl=  0 I1Cent=   200000004 NGrid=           0
         NMat0=    1 NMatS0=      1 NMatT0=    0 NMatD0=    1 NMtDS0=    0 NMtDT0=    0
 Symmetry not used in FoFCou.
 Harris En= -2823.24569690264    
 JPrj=0 DoOrth=F DoCkMO=F.
 Initial guess <Sx>= 0.0000 <Sy>= 0.0000 <Sz>= 0.5000 <S**2>= 0.7500 S= 0.5000
 Leave Link  401 at Sun Mar  3 18:22:04 2024, MaxMem=  5368709120 cpu:        18.3
 (Enter /home/k0335/k033513/app/g09/l502.exe)
 UHF open shell SCF:
 Using DIIS extrapolation, IDIIS=  1040.
 Two-electron integral symmetry not used.
 IVT=     1266642 IEndB=     1266642 NGot=  5368709120 MDV=  5367869359
 LenX=  5367869359 LenY=  5367459119
 Requested convergence on RMS density matrix=1.00D-08 within 128 cycles.
 Requested convergence on MAX density matrix=1.00D-06.
 Requested convergence on             energy=1.00D-06.
 No special actions if energy rises.
 Fock matrices will be formed incrementally for  20 cycles.

 Cycle   1  Pass 1  IDiag  1:
 FoFJK:  IHMeth= 1 ICntrl=       0 DoSepK=T KAlg= 0 I1Cent=   0 FoldK=F
 IRaf=         1 NMat=   1 IRICut=       1 DoRegI=T DoRafI=F ISym2E= 0.
 FoFCou: FMM=F IPFlag=           0 FMFlag=      100000 FMFlg1=           0
         NFxFlg=           0 DoJE=T BraDBF=F KetDBF=F FulRan=T
         wScrn=  0.000000 ICntrl=     500 IOpCl=  0 I1Cent=           0 NGrid=           0
         NMat0=    1 NMatS0=      1 NMatT0=    0 NMatD0=    1 NMtDS0=    0 NMtDT0=    0
 Symmetry not used in FoFCou.
 Inv3:  Mode=1 IEnd=    44652492.
 Iteration    1 A*A^-1 deviation from unit magnitude is 8.22D-15 for    612.
 Iteration    1 A*A^-1 deviation from orthogonality  is 4.12D-15 for   3745    284.
 Iteration    1 A^-1*A deviation from unit magnitude is 1.03D-14 for   1283.
 Iteration    1 A^-1*A deviation from orthogonality  is 1.36D-14 for   3821   3810.
 E= -2909.75702732068    
 DIIS: error= 4.61D-02 at cycle   1 NSaved=   1.
 NSaved= 1 IEnMin= 1 EnMin= -2909.75702732068     IErMin= 1 ErrMin= 4.61D-02
 ErrMax= 4.61D-02  0.00D+00 EMaxC= 1.00D-01 BMatC= 1.02D+01 BMatP= 1.02D+01
 IDIUse=3 WtCom= 5.39D-01 WtEn= 4.61D-01
 Coeff-Com:  0.100D+01
 Coeff-En:   0.100D+01
 Coeff:      0.100D+01
 Gap=     0.683 Goal=   None    Shift=    0.000
 Gap=     0.099 Goal=   None    Shift=    0.000
 GapD=    0.099 DampG=0.500 DampE=0.500 DampFc=0.2500 IDamp=-1.
 Damping current iteration by 2.50D-01
 RMSDP=3.30D-03 MaxDP=1.69D-01              OVMax= 5.31D-01

 Cycle   2  Pass 1  IDiag  1:
 RMSU=  8.24D-04    CP:  1.00D+00
 E= -2910.13606625443     Delta-E=       -0.379038933748 Rises=F Damp=T
 DIIS: error= 3.60D-02 at cycle   2 NSaved=   2.
 NSaved= 2 IEnMin= 2 EnMin= -2910.13606625443     IErMin= 2 ErrMin= 3.60D-02
 ErrMax= 3.60D-02  0.00D+00 EMaxC= 1.00D-01 BMatC= 4.25D+00 BMatP= 1.02D+01
 IDIUse=3 WtCom= 6.40D-01 WtEn= 3.60D-01
 Coeff-Com: -0.150D+01 0.250D+01
 Coeff-En:   0.000D+00 0.100D+01
 Coeff:     -0.958D+00 0.196D+01
 Gap=     0.400 Goal=   None    Shift=    0.000
 Gap=     0.102 Goal=   None    Shift=    0.000
 RMSDP=1.79D-03 MaxDP=1.12D-01 DE=-3.79D-01 OVMax= 1.23D-01

 Cycle   3  Pass 1  IDiag  1:
 RMSU=  9.69D-04    CP:  9.98D-01  2.83D+00
 E= -2910.83971618478     Delta-E=       -0.703649930352 Rises=F Damp=F
 DIIS: error= 6.79D-03 at cycle   3 NSaved=   3.
 NSaved= 3 IEnMin= 3 EnMin= -2910.83971618478     IErMin= 3 ErrMin= 6.79D-03
 ErrMax= 6.79D-03  0.00D+00 EMaxC= 1.00D-01 BMatC= 3.39D-01 BMatP= 4.25D+00
 IDIUse=3 WtCom= 9.32D-01 WtEn= 6.79D-02
 Coeff-Com: -0.438D+00 0.766D+00 0.672D+00
 Coeff-En:   0.000D+00 0.000D+00 0.100D+01
 Coeff:     -0.408D+00 0.714D+00 0.694D+00
 Gap=     0.410 Goal=   None    Shift=    0.000
 Gap=     0.073 Goal=   None    Shift=    0.000
 RMSDP=6.21D-04 MaxDP=5.56D-02 DE=-7.04D-01 OVMax= 7.64D-02

 Cycle   4  Pass 1  IDiag  1:
 RMSU=  5.68D-04    CP:  9.97D-01  2.84D+00  7.39D-01
 E= -2910.87955065101     Delta-E=       -0.039834466228 Rises=F Damp=F
 DIIS: error= 5.01D-03 at cycle   4 NSaved=   4.
 NSaved= 4 IEnMin= 4 EnMin= -2910.87955065101     IErMin= 4 ErrMin= 5.01D-03
 ErrMax= 5.01D-03  0.00D+00 EMaxC= 1.00D-01 BMatC= 1.36D-01 BMatP= 3.39D-01
 IDIUse=3 WtCom= 9.50D-01 WtEn= 5.01D-02
 Coeff-Com:  0.451D-01-0.462D-01 0.387D+00 0.614D+00
 Coeff-En:   0.000D+00 0.000D+00 0.276D+00 0.724D+00
 Coeff:      0.429D-01-0.439D-01 0.381D+00 0.619D+00
 Gap=     0.355 Goal=   None    Shift=    0.000
 Gap=     0.125 Goal=   None    Shift=    0.000
 RMSDP=2.79D-04 MaxDP=2.88D-02 DE=-3.98D-02 OVMax= 3.62D-02

 Cycle   5  Pass 1  IDiag  1:
 RMSU=  1.41D-04    CP:  9.96D-01  2.78D+00  9.16D-01  7.16D-01
 E= -2910.90290881087     Delta-E=       -0.023358159855 Rises=F Damp=F
 DIIS: error= 7.85D-04 at cycle   5 NSaved=   5.
 NSaved= 5 IEnMin= 5 EnMin= -2910.90290881087     IErMin= 5 ErrMin= 7.85D-04
 ErrMax= 7.85D-04  0.00D+00 EMaxC= 1.00D-01 BMatC= 7.04D-03 BMatP= 1.36D-01
 IDIUse=3 WtCom= 9.92D-01 WtEn= 7.85D-03
 Coeff-Com:  0.448D-01-0.600D-01 0.165D+00 0.320D+00 0.530D+00
 Coeff-En:   0.000D+00 0.000D+00 0.000D+00 0.000D+00 0.100D+01
 Coeff:      0.445D-01-0.596D-01 0.164D+00 0.317D+00 0.534D+00
 Gap=     0.353 Goal=   None    Shift=    0.000
 Gap=     0.129 Goal=   None    Shift=    0.000
 RMSDP=5.80D-05 MaxDP=4.63D-03 DE=-2.34D-02 OVMax= 6.83D-03

 Cycle   6  Pass 1  IDiag  1:
 RMSU=  4.68D-05    CP:  9.97D-01  2.80D+00  9.08D-01  7.43D-01  8.11D-01
 E= -2910.90418396920     Delta-E=       -0.001275158334 Rises=F Damp=F
 DIIS: error= 3.17D-04 at cycle   6 NSaved=   6.
 NSaved= 6 IEnMin= 6 EnMin= -2910.90418396920     IErMin= 6 ErrMin= 3.17D-04
 ErrMax= 3.17D-04  0.00D+00 EMaxC= 1.00D-01 BMatC= 3.41D-04 BMatP= 7.04D-03
 IDIUse=3 WtCom= 9.97D-01 WtEn= 3.17D-03
 Coeff-Com:  0.434D-02-0.743D-02-0.415D-02-0.222D-02 0.154D+00 0.856D+00
 Coeff-En:   0.000D+00 0.000D+00 0.000D+00 0.000D+00 0.000D+00 0.100D+01
 Coeff:      0.433D-02-0.741D-02-0.414D-02-0.222D-02 0.153D+00 0.856D+00
 Gap=     0.352 Goal=   None    Shift=    0.000
 Gap=     0.131 Goal=   None    Shift=    0.000
 RMSDP=2.34D-05 MaxDP=2.33D-03 DE=-1.28D-03 OVMax= 6.03D-03

 Cycle   7  Pass 1  IDiag  1:
 RMSU=  1.98D-05    CP:  9.96D-01  2.79D+00  9.14D-01  7.49D-01  8.81D-01
                    CP:  1.01D+00
 E= -2910.90429486086     Delta-E=       -0.000110891655 Rises=F Damp=F
 DIIS: error= 2.10D-04 at cycle   7 NSaved=   7.
 NSaved= 7 IEnMin= 7 EnMin= -2910.90429486086     IErMin= 7 ErrMin= 2.10D-04
 ErrMax= 2.10D-04  0.00D+00 EMaxC= 1.00D-01 BMatC= 5.62D-05 BMatP= 3.41D-04
 IDIUse=3 WtCom= 9.98D-01 WtEn= 2.10D-03
 Coeff-Com: -0.210D-02 0.252D-02-0.151D-01-0.294D-01 0.133D-01 0.332D+00
 Coeff-Com:  0.699D+00
 Coeff-En:   0.000D+00 0.000D+00 0.000D+00 0.000D+00 0.000D+00 0.000D+00
 Coeff-En:   0.100D+01
 Coeff:     -0.210D-02 0.251D-02-0.151D-01-0.293D-01 0.133D-01 0.331D+00
 Coeff:      0.699D+00
 Gap=     0.353 Goal=   None    Shift=    0.000
 Gap=     0.132 Goal=   None    Shift=    0.000
 RMSDP=9.17D-06 MaxDP=8.90D-04 DE=-1.11D-04 OVMax= 3.42D-03

 Cycle   8  Pass 1  IDiag  1:
 RMSU=  7.45D-06    CP:  9.96D-01  2.79D+00  9.14D-01  7.47D-01  9.00D-01
                    CP:  1.10D+00  1.05D+00
 E= -2910.90431801699     Delta-E=       -0.000023156132 Rises=F Damp=F
 DIIS: error= 9.60D-05 at cycle   8 NSaved=   8.
 NSaved= 8 IEnMin= 8 EnMin= -2910.90431801699     IErMin= 8 ErrMin= 9.60D-05
 ErrMax= 9.60D-05  0.00D+00 EMaxC= 1.00D-01 BMatC= 1.62D-05 BMatP= 5.62D-05
 IDIUse=1 WtCom= 1.00D+00 WtEn= 0.00D+00
 Coeff-Com: -0.109D-02 0.164D-02-0.582D-02-0.124D-01-0.256D-01-0.377D-01
 Coeff-Com:  0.335D+00 0.746D+00
 Coeff:     -0.109D-02 0.164D-02-0.582D-02-0.124D-01-0.256D-01-0.377D-01
 Coeff:      0.335D+00 0.746D+00
 Gap=     0.352 Goal=   None    Shift=    0.000
 Gap=     0.133 Goal=   None    Shift=    0.000
 RMSDP=5.55D-06 MaxDP=5.63D-04 DE=-2.32D-05 OVMax= 2.54D-03

 Cycle   9  Pass 1  IDiag  1:
 RMSU=  3.06D-06    CP:  9.96D-01  2.79D+00  9.14D-01  7.46D-01  9.09D-01
                    CP:  1.13D+00  1.26D+00  1.07D+00
 E= -2910.90432591980     Delta-E=       -0.000007902809 Rises=F Damp=F
 DIIS: error= 4.30D-05 at cycle   9 NSaved=   9.
 NSaved= 9 IEnMin= 9 EnMin= -2910.90432591980     IErMin= 9 ErrMin= 4.30D-05
 ErrMax= 4.30D-05  0.00D+00 EMaxC= 1.00D-01 BMatC= 3.06D-06 BMatP= 1.62D-05
 IDIUse=1 WtCom= 1.00D+00 WtEn= 0.00D+00
 Coeff-Com:  0.605D-03-0.761D-03 0.158D-02 0.299D-02-0.146D-01-0.107D+00
 Coeff-Com: -0.235D-02 0.329D+00 0.791D+00
 Coeff:      0.605D-03-0.761D-03 0.158D-02 0.299D-02-0.146D-01-0.107D+00
 Coeff:     -0.235D-02 0.329D+00 0.791D+00
 Gap=     0.352 Goal=   None    Shift=    0.000
 Gap=     0.132 Goal=   None    Shift=    0.000
 RMSDP=3.15D-06 MaxDP=3.32D-04 DE=-7.90D-06 OVMax= 1.66D-03

 Cycle  10  Pass 1  IDiag  1:
 RMSU=  1.56D-06    CP:  9.96D-01  2.79D+00  9.15D-01  7.46D-01  9.10D-01
                    CP:  1.15D+00  1.36D+00  1.28D+00  1.12D+00
 E= -2910.90432810651     Delta-E=       -0.000002186713 Rises=F Damp=F
 DIIS: error= 1.85D-05 at cycle  10 NSaved=  10.
 NSaved=10 IEnMin=10 EnMin= -2910.90432810651     IErMin=10 ErrMin= 1.85D-05
 ErrMax= 1.85D-05  0.00D+00 EMaxC= 1.00D-01 BMatC= 4.74D-07 BMatP= 3.06D-06
 IDIUse=1 WtCom= 1.00D+00 WtEn= 0.00D+00
 Coeff-Com:  0.490D-03-0.673D-03 0.174D-02 0.370D-02-0.555D-03-0.337D-01
 Coeff-Com: -0.595D-01-0.237D-01 0.271D+00 0.842D+00
 Coeff:      0.490D-03-0.673D-03 0.174D-02 0.370D-02-0.555D-03-0.337D-01
 Coeff:     -0.595D-01-0.237D-01 0.271D+00 0.842D+00
 Gap=     0.352 Goal=   None    Shift=    0.000
 Gap=     0.133 Goal=   None    Shift=    0.000
 RMSDP=1.52D-06 MaxDP=1.35D-04 DE=-2.19D-06 OVMax= 9.11D-04

 Cycle  11  Pass 1  IDiag  1:
 RMSU=  7.08D-07    CP:  9.96D-01  2.79D+00  9.15D-01  7.46D-01  9.10D-01
                    CP:  1.16D+00  1.40D+00  1.34D+00  1.36D+00  1.38D+00
 E= -2910.90432857347     Delta-E=       -0.000000466966 Rises=F Damp=F
 DIIS: error= 6.55D-06 at cycle  11 NSaved=  11.
 NSaved=11 IEnMin=11 EnMin= -2910.90432857347     IErMin=11 ErrMin= 6.55D-06
 ErrMax= 6.55D-06  0.00D+00 EMaxC= 1.00D-01 BMatC= 1.19D-07 BMatP= 4.74D-07
 IDIUse=1 WtCom= 1.00D+00 WtEn= 0.00D+00
 Coeff-Com: -0.419D-04 0.499D-04 0.945D-04 0.337D-03 0.306D-02 0.148D-01
 Coeff-Com: -0.165D-01-0.844D-01-0.986D-01 0.316D+00 0.866D+00
 Coeff:     -0.419D-04 0.499D-04 0.945D-04 0.337D-03 0.306D-02 0.148D-01
 Coeff:     -0.165D-01-0.844D-01-0.986D-01 0.316D+00 0.866D+00
 Gap=     0.352 Goal=   None    Shift=    0.000
 Gap=     0.133 Goal=   None    Shift=    0.000
 RMSDP=8.34D-07 MaxDP=7.92D-05 DE=-4.67D-07 OVMax= 5.21D-04

 Cycle  12  Pass 1  IDiag  1:
 RMSU=  3.34D-07    CP:  9.96D-01  2.79D+00  9.15D-01  7.46D-01  9.11D-01
                    CP:  1.16D+00  1.41D+00  1.38D+00  1.49D+00  1.72D+00
                    CP:  1.27D+00
 E= -2910.90432870231     Delta-E=       -0.000000128839 Rises=F Damp=F
 DIIS: error= 2.62D-06 at cycle  12 NSaved=  12.
 NSaved=12 IEnMin=12 EnMin= -2910.90432870231     IErMin=12 ErrMin= 2.62D-06
 ErrMax= 2.62D-06  0.00D+00 EMaxC= 1.00D-01 BMatC= 2.17D-08 BMatP= 1.19D-07
 IDIUse=1 WtCom= 1.00D+00 WtEn= 0.00D+00
 Coeff-Com: -0.113D-03 0.150D-03-0.313D-03-0.572D-03 0.812D-03 0.986D-02
 Coeff-Com:  0.512D-02-0.194D-01-0.771D-01-0.581D-01 0.231D+00 0.909D+00
 Coeff:     -0.113D-03 0.150D-03-0.313D-03-0.572D-03 0.812D-03 0.986D-02
 Coeff:      0.512D-02-0.194D-01-0.771D-01-0.581D-01 0.231D+00 0.909D+00
 Gap=     0.352 Goal=   None    Shift=    0.000
 Gap=     0.133 Goal=   None    Shift=    0.000
 RMSDP=4.50D-07 MaxDP=3.93D-05 DE=-1.29D-07 OVMax= 2.68D-04

 Cycle  13  Pass 1  IDiag  1:
 RMSU=  1.62D-07    CP:  9.96D-01  2.79D+00  9.15D-01  7.46D-01  9.11D-01
                    CP:  1.16D+00  1.42D+00  1.39D+00  1.55D+00  1.88D+00
                    CP:  1.53D+00  1.46D+00
 E= -2910.90432873617     Delta-E=       -0.000000033857 Rises=F Damp=F
 DIIS: error= 1.49D-06 at cycle  13 NSaved=  13.
 NSaved=13 IEnMin=13 EnMin= -2910.90432873617     IErMin=13 ErrMin= 1.49D-06
 ErrMax= 1.49D-06  0.00D+00 EMaxC= 1.00D-01 BMatC= 6.36D-09 BMatP= 2.17D-08
 IDIUse=1 WtCom= 1.00D+00 WtEn= 0.00D+00
 Coeff-Com: -0.157D-04 0.205D-04-0.118D-03-0.213D-03-0.542D-03-0.656D-03
 Coeff-Com:  0.602D-02 0.168D-01 0.223D-02-0.974D-01-0.159D+00 0.255D+00
 Coeff-Com:  0.978D+00
 Coeff:     -0.157D-04 0.205D-04-0.118D-03-0.213D-03-0.542D-03-0.656D-03
 Coeff:      0.602D-02 0.168D-01 0.223D-02-0.974D-01-0.159D+00 0.255D+00
 Coeff:      0.978D+00
 Gap=     0.352 Goal=   None    Shift=    0.000
 Gap=     0.133 Goal=   None    Shift=    0.000
 RMSDP=2.84D-07 MaxDP=2.84D-05 DE=-3.39D-08 OVMax= 1.57D-04

 Cycle  14  Pass 1  IDiag  1:
 RMSU=  7.32D-08    CP:  9.96D-01  2.79D+00  9.15D-01  7.46D-01  9.11D-01
                    CP:  1.16D+00  1.42D+00  1.40D+00  1.58D+00  1.98D+00
                    CP:  1.71D+00  1.91D+00  1.42D+00
 E= -2910.90432874785     Delta-E=       -0.000000011680 Rises=F Damp=F
 DIIS: error= 7.42D-07 at cycle  14 NSaved=  14.
 NSaved=14 IEnMin=14 EnMin= -2910.90432874785     IErMin=14 ErrMin= 7.42D-07
 ErrMax= 7.42D-07  0.00D+00 EMaxC= 1.00D-01 BMatC= 1.39D-09 BMatP= 6.36D-09
 IDIUse=1 WtCom= 1.00D+00 WtEn= 0.00D+00
 Coeff-Com:  0.206D-04-0.272D-04 0.344D-04 0.677D-04-0.381D-03-0.268D-02
 Coeff-Com:  0.216D-03 0.856D-02 0.194D-01-0.824D-02-0.918D-01-0.189D+00
 Coeff-Com:  0.216D+00 0.105D+01
 Coeff:      0.206D-04-0.272D-04 0.344D-04 0.677D-04-0.381D-03-0.268D-02
 Coeff:      0.216D-03 0.856D-02 0.194D-01-0.824D-02-0.918D-01-0.189D+00
 Coeff:      0.216D+00 0.105D+01
 Gap=     0.352 Goal=   None    Shift=    0.000
 Gap=     0.133 Goal=   None    Shift=    0.000
 RMSDP=1.64D-07 MaxDP=1.70D-05 DE=-1.17D-08 OVMax= 9.15D-05

 Cycle  15  Pass 1  IDiag  1:
 RMSU=  3.64D-08    CP:  9.96D-01  2.79D+00  9.15D-01  7.46D-01  9.11D-01
                    CP:  1.16D+00  1.42D+00  1.40D+00  1.59D+00  2.02D+00
                    CP:  1.80D+00  2.16D+00  1.81D+00  1.43D+00
 E= -2910.90432875074     Delta-E=       -0.000000002894 Rises=F Damp=F
 DIIS: error= 3.04D-07 at cycle  15 NSaved=  15.
 NSaved=15 IEnMin=15 EnMin= -2910.90432875074     IErMin=15 ErrMin= 3.04D-07
 ErrMax= 3.04D-07  0.00D+00 EMaxC= 1.00D-01 BMatC= 3.71D-10 BMatP= 1.39D-09
 IDIUse=1 WtCom= 1.00D+00 WtEn= 0.00D+00
 Coeff-Com:  0.954D-05-0.122D-04 0.327D-04 0.566D-04-0.242D-04-0.850D-03
 Coeff-Com: -0.102D-02-0.363D-03 0.668D-02 0.158D-01 0.633D-04-0.124D+00
 Coeff-Com: -0.119D+00 0.401D+00 0.822D+00
 Coeff:      0.954D-05-0.122D-04 0.327D-04 0.566D-04-0.242D-04-0.850D-03
 Coeff:     -0.102D-02-0.363D-03 0.668D-02 0.158D-01 0.633D-04-0.124D+00
 Coeff:     -0.119D+00 0.401D+00 0.822D+00
 Gap=     0.352 Goal=   None    Shift=    0.000
 Gap=     0.133 Goal=   None    Shift=    0.000
 RMSDP=5.57D-08 MaxDP=5.88D-06 DE=-2.89D-09 OVMax= 2.96D-05

 Cycle  16  Pass 1  IDiag  1:
 RMSU=  1.58D-08    CP:  9.96D-01  2.79D+00  9.15D-01  7.46D-01  9.11D-01
                    CP:  1.16D+00  1.42D+00  1.40D+00  1.60D+00  2.04D+00
                    CP:  1.83D+00  2.24D+00  1.94D+00  1.71D+00  1.24D+00
 E= -2910.90432875123     Delta-E=       -0.000000000487 Rises=F Damp=F
 DIIS: error= 2.35D-07 at cycle  16 NSaved=  16.
 NSaved=16 IEnMin=16 EnMin= -2910.90432875123     IErMin=16 ErrMin= 2.35D-07
 ErrMax= 2.35D-07  0.00D+00 EMaxC= 1.00D-01 BMatC= 7.91D-11 BMatP= 3.71D-10
 IDIUse=1 WtCom= 1.00D+00 WtEn= 0.00D+00
 Coeff-Com: -0.925D-06 0.129D-05 0.493D-05 0.432D-05 0.931D-04 0.322D-03
 Coeff-Com: -0.409D-03-0.220D-02-0.199D-02 0.703D-02 0.219D-01 0.174D-02
 Coeff-Com: -0.902D-01-0.110D+00 0.284D+00 0.890D+00
 Coeff:     -0.925D-06 0.129D-05 0.493D-05 0.432D-05 0.931D-04 0.322D-03
 Coeff:     -0.409D-03-0.220D-02-0.199D-02 0.703D-02 0.219D-01 0.174D-02
 Coeff:     -0.902D-01-0.110D+00 0.284D+00 0.890D+00
 Gap=     0.352 Goal=   None    Shift=    0.000
 Gap=     0.133 Goal=   None    Shift=    0.000
 RMSDP=2.16D-08 MaxDP=3.09D-06 DE=-4.87D-10 OVMax= 9.31D-06

 Cycle  17  Pass 1  IDiag  1:
 RMSU=  8.00D-09    CP:  9.96D-01  2.79D+00  9.15D-01  7.46D-01  9.11D-01
                    CP:  1.16D+00  1.42D+00  1.40D+00  1.60D+00  2.04D+00
                    CP:  1.83D+00  2.26D+00  1.99D+00  1.83D+00  1.49D+00
                    CP:  1.23D+00
 E= -2910.90432875109     Delta-E=        0.000000000146 Rises=F Damp=F
 DIIS: error= 8.60D-08 at cycle  17 NSaved=  17.
 NSaved=17 IEnMin=16 EnMin= -2910.90432875123     IErMin=17 ErrMin= 8.60D-08
 ErrMax= 8.60D-08  0.00D+00 EMaxC= 1.00D-01 BMatC= 1.67D-11 BMatP= 7.91D-11
 IDIUse=1 WtCom= 1.00D+00 WtEn= 0.00D+00
 Coeff-Com: -0.183D-05 0.231D-05-0.364D-05-0.795D-05 0.385D-04 0.257D-03
 Coeff-Com: -0.152D-04-0.788D-03-0.183D-02-0.195D-03 0.815D-02 0.230D-01
 Coeff-Com: -0.115D-01-0.112D+00-0.507D-01 0.313D+00 0.832D+00
 Coeff:     -0.183D-05 0.231D-05-0.364D-05-0.795D-05 0.385D-04 0.257D-03
 Coeff:     -0.152D-04-0.788D-03-0.183D-02-0.195D-03 0.815D-02 0.230D-01
 Coeff:     -0.115D-01-0.112D+00-0.507D-01 0.313D+00 0.832D+00
 Gap=     0.352 Goal=   None    Shift=    0.000
 Gap=     0.133 Goal=   None    Shift=    0.000
 RMSDP=8.14D-09 MaxDP=1.46D-06 DE= 1.46D-10 OVMax= 3.13D-06

 Cycle  18  Pass 1  IDiag  1:
 RMSU=  4.27D-09    CP:  9.96D-01  2.79D+00  9.15D-01  7.46D-01  9.11D-01
                    CP:  1.16D+00  1.42D+00  1.40D+00  1.60D+00  2.04D+00
                    CP:  1.83D+00  2.26D+00  2.00D+00  1.87D+00  1.59D+00
                    CP:  1.48D+00  1.31D+00
 E= -2910.90432875116     Delta-E=       -0.000000000073 Rises=F Damp=F
 DIIS: error= 6.07D-08 at cycle  18 NSaved=  18.
 NSaved=18 IEnMin=16 EnMin= -2910.90432875123     IErMin=18 ErrMin= 6.07D-08
 ErrMax= 6.07D-08  0.00D+00 EMaxC= 1.00D-01 BMatC= 4.79D-12 BMatP= 1.67D-11
 IDIUse=1 WtCom= 1.00D+00 WtEn= 0.00D+00
 Coeff-Com: -0.397D-06 0.507D-06-0.215D-05-0.314D-05-0.102D-04 0.728D-05
 Coeff-Com:  0.842D-04 0.281D-03-0.536D-04-0.172D-02-0.277D-02 0.713D-02
 Coeff-Com:  0.170D-01-0.736D-02-0.823D-01-0.116D+00 0.260D+00 0.925D+00
 Coeff:     -0.397D-06 0.507D-06-0.215D-05-0.314D-05-0.102D-04 0.728D-05
 Coeff:      0.842D-04 0.281D-03-0.536D-04-0.172D-02-0.277D-02 0.713D-02
 Coeff:      0.170D-01-0.736D-02-0.823D-01-0.116D+00 0.260D+00 0.925D+00
 Gap=     0.352 Goal=   None    Shift=    0.000
 Gap=     0.133 Goal=   None    Shift=    0.000
 RMSDP=5.46D-09 MaxDP=8.00D-07 DE=-7.28D-11 OVMax= 3.36D-06

 Error on total polarization charges =  0.00184
 SCF Done:  E(UCAM-B3LYP) =  -2910.90432875     A.U. after   18 cycles
            NFock= 18  Conv=0.55D-08     -V/T= 2.0074
 <Sx>= 0.0000 <Sy>= 0.0000 <Sz>= 0.5000 <S**2>= 0.7518 S= 0.5009
 <L.S>= 0.000000000000E+00
 KE= 2.889530785102D+03 PE=-1.918560309648D+04 EE= 7.214111548632D+03
 Annihilation of the first spin contaminant:
 S**2 before annihilation     0.7518,   after     0.7500
 Leave Link  502 at Sun Mar  3 18:23:40 2024, MaxMem=  5368709120 cpu:      2222.6
 (Enter /home/k0335/k033513/app/g09/l601.exe)
 Copying SCF densities to generalized density rwf, IOpCl= 1 IROHF=0.

 **********************************************************************

            Population analysis using the SCF density.

 **********************************************************************

 Alpha  occ. eigenvalues --  -24.86206 -24.85364 -24.85340 -24.85304 -24.85206
 Alpha  occ. eigenvalues --  -24.85175 -24.85061 -24.85018 -24.84878 -24.84873
 Alpha  occ. eigenvalues --  -24.84775 -24.84751 -24.84708 -24.84546 -24.84536
 Alpha  occ. eigenvalues --  -24.84516 -24.84422 -24.84193 -19.35002 -19.34307
 Alpha  occ. eigenvalues --  -19.28413 -19.28231 -19.28028 -14.56581 -14.56540
 Alpha  occ. eigenvalues --  -14.56264 -10.61290 -10.60900 -10.57635 -10.57008
 Alpha  occ. eigenvalues --  -10.56192 -10.55967 -10.51515 -10.51026 -10.50331
 Alpha  occ. eigenvalues --  -10.50173 -10.50007 -10.46344 -10.45531 -10.43547
 Alpha  occ. eigenvalues --  -10.37287  -1.44864  -1.44425  -1.43972  -1.43333
 Alpha  occ. eigenvalues --   -1.41391  -1.41144  -1.37453  -1.36916  -1.35141
 Alpha  occ. eigenvalues --   -1.35116  -1.34937  -1.34671  -1.34568  -1.34392
 Alpha  occ. eigenvalues --   -1.34307  -1.33689  -1.33635  -1.33611  -1.27548
 Alpha  occ. eigenvalues --   -1.22795  -1.22392  -1.21871  -1.21739  -1.14012
 Alpha  occ. eigenvalues --   -1.12464  -1.12033  -1.04345  -0.96569  -0.95444
 Alpha  occ. eigenvalues --   -0.94651  -0.90508  -0.88171  -0.87548  -0.84031
 Alpha  occ. eigenvalues --   -0.83083  -0.82618  -0.82582  -0.79927  -0.78688
 Alpha  occ. eigenvalues --   -0.77471  -0.75999  -0.74630  -0.74010  -0.73827
 Alpha  occ. eigenvalues --   -0.72512  -0.72173  -0.71977  -0.71310  -0.71044
 Alpha  occ. eigenvalues --   -0.70839  -0.70179  -0.69637  -0.69504  -0.69217
 Alpha  occ. eigenvalues --   -0.68659  -0.68285  -0.68127  -0.67330  -0.66582
 Alpha  occ. eigenvalues --   -0.66408  -0.64883  -0.63661  -0.63049  -0.61813
 Alpha  occ. eigenvalues --   -0.61668  -0.60511  -0.59669  -0.59481  -0.59234
 Alpha  occ. eigenvalues --   -0.58921  -0.58809  -0.58601  -0.58589  -0.58304
 Alpha  occ. eigenvalues --   -0.58243  -0.57970  -0.57790  -0.57506  -0.57178
 Alpha  occ. eigenvalues --   -0.57026  -0.56801  -0.56716  -0.56343  -0.55966
 Alpha  occ. eigenvalues --   -0.55560  -0.55224  -0.55173  -0.54561  -0.54185
 Alpha  occ. eigenvalues --   -0.54085  -0.53973  -0.53785  -0.53598  -0.53193
 Alpha  occ. eigenvalues --   -0.52934  -0.52737  -0.52578  -0.52220  -0.52081
 Alpha  occ. eigenvalues --   -0.51913  -0.51543  -0.51489  -0.50792  -0.50622
 Alpha  occ. eigenvalues --   -0.50505  -0.50350  -0.49416  -0.48511  -0.48011
 Alpha  occ. eigenvalues --   -0.47825  -0.46595  -0.46183  -0.44403  -0.43912
 Alpha  occ. eigenvalues --   -0.42827  -0.42194  -0.41593  -0.39904
 Alpha virt. eigenvalues --   -0.04717  -0.03993  -0.03541  -0.02815   0.02858
 Alpha virt. eigenvalues --    0.03425   0.04309   0.06988   0.08275   0.09750
 Alpha virt. eigenvalues --    0.10461   0.10649   0.11757   0.13099   0.14235
 Alpha virt. eigenvalues --    0.14762   0.15463   0.15498   0.16631   0.17076
 Alpha virt. eigenvalues --    0.17502   0.17898   0.18413   0.19130   0.20113
 Alpha virt. eigenvalues --    0.20409   0.20788   0.21078   0.21222   0.21441
 Alpha virt. eigenvalues --    0.22067   0.22223   0.22485   0.22997   0.23533
 Alpha virt. eigenvalues --    0.24062   0.24414   0.25672   0.26270   0.27037
 Alpha virt. eigenvalues --    0.27535   0.28486   0.30730   0.31529   0.33051
 Alpha virt. eigenvalues --    0.34152   0.34946   0.35370   0.36220   0.37622
 Alpha virt. eigenvalues --    0.38443   0.43319   0.43887   0.44087   0.45633
 Alpha virt. eigenvalues --    0.46318   0.47828   0.48067   0.49571   0.49630
 Alpha virt. eigenvalues --    0.50577   0.50779   0.51263   0.51321   0.51979
 Alpha virt. eigenvalues --    0.52312   0.52797   0.53390   0.54488   0.54899
 Alpha virt. eigenvalues --    0.55427   0.55618   0.56550   0.57012   0.57664
 Alpha virt. eigenvalues --    0.59038   0.59346   0.59568   0.60716   0.60938
 Alpha virt. eigenvalues --    0.61760   0.63115   0.63490   0.64838   0.66439
 Alpha virt. eigenvalues --    0.67674   0.69009   0.69804   0.70162   0.70422
 Alpha virt. eigenvalues --    0.70596   0.72722   0.73494   0.75725   0.77037
 Alpha virt. eigenvalues --    0.77774   0.79090   0.80841   0.81490   0.82431
 Alpha virt. eigenvalues --    0.82723   0.83262   0.84321   0.84834   0.85074
 Alpha virt. eigenvalues --    0.85651   0.86719   0.88170   0.88784   0.89217
 Alpha virt. eigenvalues --    0.89959   0.91259   0.91714   0.92140   0.93759
 Alpha virt. eigenvalues --    0.95031   0.96798   0.96896   0.99111   1.00105
 Alpha virt. eigenvalues --    1.00708   1.01240   1.01454   1.02470   1.03027
 Alpha virt. eigenvalues --    1.04425   1.05375   1.06199   1.06617   1.07208
 Alpha virt. eigenvalues --    1.07746   1.08637   1.09732   1.10142   1.10428
 Alpha virt. eigenvalues --    1.11749   1.12378   1.12587   1.13176   1.13635
 Alpha virt. eigenvalues --    1.13998   1.14978   1.15904   1.16296   1.16387
 Alpha virt. eigenvalues --    1.16996   1.17717   1.18359   1.19831   1.20398
 Alpha virt. eigenvalues --    1.20969   1.22228   1.22657   1.24462   1.25446
 Alpha virt. eigenvalues --    1.25999   1.26501   1.26884   1.27407   1.27772
 Alpha virt. eigenvalues --    1.29143   1.29436   1.30119   1.31254   1.32077
 Alpha virt. eigenvalues --    1.32792   1.32945   1.33378   1.33634   1.34129
 Alpha virt. eigenvalues --    1.34507   1.35388   1.35562   1.36407   1.36638
 Alpha virt. eigenvalues --    1.37516   1.37766   1.38001   1.38556   1.38726
 Alpha virt. eigenvalues --    1.39024   1.39321   1.40433   1.40635   1.40749
 Alpha virt. eigenvalues --    1.41555   1.42076   1.42464   1.43548   1.43714
 Alpha virt. eigenvalues --    1.44110   1.44698   1.45265   1.45814   1.46004
 Alpha virt. eigenvalues --    1.46646   1.46949   1.47416   1.48248   1.48766
 Alpha virt. eigenvalues --    1.49758   1.49979   1.50616   1.51402   1.51487
 Alpha virt. eigenvalues --    1.52199   1.53060   1.53613   1.55019   1.55538
 Alpha virt. eigenvalues --    1.56037   1.56753   1.57281   1.57963   1.59174
 Alpha virt. eigenvalues --    1.59813   1.61890   1.62397   1.63108   1.63618
 Alpha virt. eigenvalues --    1.64341   1.64706   1.65639   1.66739   1.67437
 Alpha virt. eigenvalues --    1.67756   1.68619   1.69352   1.69816   1.70813
 Alpha virt. eigenvalues --    1.71549   1.72025   1.72394   1.73180   1.73825
 Alpha virt. eigenvalues --    1.74760   1.75873   1.76195   1.77411   1.78104
 Alpha virt. eigenvalues --    1.78870   1.79167   1.79874   1.80061   1.80389
 Alpha virt. eigenvalues --    1.81223   1.81630   1.81973   1.82743   1.82987
 Alpha virt. eigenvalues --    1.83233   1.83841   1.83891   1.84558   1.84873
 Alpha virt. eigenvalues --    1.85602   1.85737   1.86156   1.86682   1.87032
 Alpha virt. eigenvalues --    1.87257   1.87922   1.87970   1.88938   1.89266
 Alpha virt. eigenvalues --    1.89679   1.89758   1.90208   1.91215   1.91655
 Alpha virt. eigenvalues --    1.91923   1.92337   1.92447   1.93539   1.93821
 Alpha virt. eigenvalues --    1.94416   1.95099   1.95703   1.95914   1.96330
 Alpha virt. eigenvalues --    1.97142   1.97562   1.98138   1.98273   1.98969
 Alpha virt. eigenvalues --    1.99412   1.99906   2.00357   2.00541   2.01027
 Alpha virt. eigenvalues --    2.01347   2.01602   2.01825   2.02163   2.02520
 Alpha virt. eigenvalues --    2.02745   2.03171   2.03414   2.03553   2.04023
 Alpha virt. eigenvalues --    2.04146   2.04322   2.05471   2.05890   2.06432
 Alpha virt. eigenvalues --    2.06882   2.07396   2.07560   2.07598   2.08809
 Alpha virt. eigenvalues --    2.09101   2.09265   2.09649   2.10383   2.10827
 Alpha virt. eigenvalues --    2.11163   2.11997   2.12593   2.13322   2.13997
 Alpha virt. eigenvalues --    2.14685   2.15475   2.16517   2.16770   2.17215
 Alpha virt. eigenvalues --    2.18383   2.18932   2.19092   2.20027   2.21768
 Alpha virt. eigenvalues --    2.22145   2.24694   2.25678   2.26466   2.27181
 Alpha virt. eigenvalues --    2.27639   2.27848   2.29036   2.29589   2.31328
 Alpha virt. eigenvalues --    2.32183   2.33283   2.35410   2.35849   2.36329
 Alpha virt. eigenvalues --    2.37539   2.37714   2.39444   2.39672   2.40518
 Alpha virt. eigenvalues --    2.42039   2.43971   2.44874   2.46022   2.46688
 Alpha virt. eigenvalues --    2.47755   2.48097   2.48877   2.49672   2.50663
 Alpha virt. eigenvalues --    2.51709   2.52582   2.54135   2.56516   2.57322
 Alpha virt. eigenvalues --    2.58044   2.58044   2.60166   2.60436   2.61428
 Alpha virt. eigenvalues --    2.63642   2.64236   2.64894   2.65425   2.66802
 Alpha virt. eigenvalues --    2.67636   2.69066   2.70588   2.71281   2.73337
 Alpha virt. eigenvalues --    2.73733   2.74259   2.75001   2.75340   2.78115
 Alpha virt. eigenvalues --    2.79134   2.79569   2.81184   2.82305   2.82841
 Alpha virt. eigenvalues --    2.84345   2.85151   2.85975   2.86877   2.88189
 Alpha virt. eigenvalues --    2.89248   2.89455   2.90603   2.91162   2.92217
 Alpha virt. eigenvalues --    2.94015   2.94833   2.96135   2.97014   2.97881
 Alpha virt. eigenvalues --    2.98163   2.99623   3.01533   3.02265   3.03327
 Alpha virt. eigenvalues --    3.03502   3.03582   3.05182   3.05716   3.06555
 Alpha virt. eigenvalues --    3.08829   3.10234   3.11088   3.12688   3.13271
 Alpha virt. eigenvalues --    3.13689   3.14736   3.16720   3.17065   3.19471
 Alpha virt. eigenvalues --    3.21089   3.23002   3.24233   3.24277   3.27572
 Alpha virt. eigenvalues --    3.29153   3.30055   3.31778   3.34950   3.40110
 Alpha virt. eigenvalues --    3.40915   3.41235   3.44282   3.46474   3.48734
 Alpha virt. eigenvalues --    4.02797   4.07896   4.10183   4.12443   4.14533
 Alpha virt. eigenvalues --    4.19861   4.23351   4.26030   4.26261   4.31745
 Alpha virt. eigenvalues --    4.34472   4.39627   4.40799   4.43460   4.43905
 Alpha virt. eigenvalues --    4.46358   4.52861   4.56243   4.58343   4.60054
 Alpha virt. eigenvalues --    4.63619   4.67623   4.74850   4.81562   4.82881
 Alpha virt. eigenvalues --    4.84940   4.87938   4.89617   4.94668   5.08171
 Alpha virt. eigenvalues --    5.23112   5.28998   5.31296   5.41090   5.52985
 Alpha virt. eigenvalues --    5.65996   6.04502   6.21036   6.41214   6.50652
 Alpha virt. eigenvalues --    6.58323
  Beta  occ. eigenvalues --  -24.86206 -24.85364 -24.85340 -24.85304 -24.85206
  Beta  occ. eigenvalues --  -24.85175 -24.85061 -24.85018 -24.84878 -24.84873
  Beta  occ. eigenvalues --  -24.84775 -24.84751 -24.84708 -24.84546 -24.84536
  Beta  occ. eigenvalues --  -24.84516 -24.84422 -24.84193 -19.35002 -19.34307
  Beta  occ. eigenvalues --  -19.28405 -19.28219 -19.28027 -14.56581 -14.56545
  Beta  occ. eigenvalues --  -14.56264 -10.61290 -10.60900 -10.57635 -10.57008
  Beta  occ. eigenvalues --  -10.56192 -10.55967 -10.51515 -10.51026 -10.50330
  Beta  occ. eigenvalues --  -10.50173 -10.50007 -10.45678 -10.44834 -10.43544
  Beta  occ. eigenvalues --  -10.37277  -1.44864  -1.44425  -1.43972  -1.43333
  Beta  occ. eigenvalues --   -1.41391  -1.41144  -1.37453  -1.36916  -1.35141
  Beta  occ. eigenvalues --   -1.35116  -1.34937  -1.34671  -1.34568  -1.34392
  Beta  occ. eigenvalues --   -1.34307  -1.33689  -1.33635  -1.33611  -1.27542
  Beta  occ. eigenvalues --   -1.22788  -1.22389  -1.21863  -1.21733  -1.13999
  Beta  occ. eigenvalues --   -1.12389  -1.12026  -1.01245  -0.96429  -0.95435
  Beta  occ. eigenvalues --   -0.94335  -0.89525  -0.88062  -0.87541  -0.84030
  Beta  occ. eigenvalues --   -0.83034  -0.82591  -0.82524  -0.79888  -0.78653
  Beta  occ. eigenvalues --   -0.77471  -0.75981  -0.74629  -0.74009  -0.73823
  Beta  occ. eigenvalues --   -0.72481  -0.72173  -0.71958  -0.71307  -0.70995
  Beta  occ. eigenvalues --   -0.70639  -0.70151  -0.69635  -0.69415  -0.69200
  Beta  occ. eigenvalues --   -0.68567  -0.68178  -0.68122  -0.67311  -0.66566
  Beta  occ. eigenvalues --   -0.66314  -0.64480  -0.63245  -0.61811  -0.61677
  Beta  occ. eigenvalues --   -0.60593  -0.60345  -0.59561  -0.59010  -0.58839
  Beta  occ. eigenvalues --   -0.58792  -0.58599  -0.58564  -0.58292  -0.58253
  Beta  occ. eigenvalues --   -0.57969  -0.57804  -0.57590  -0.57429  -0.57149
  Beta  occ. eigenvalues --   -0.56903  -0.56718  -0.56662  -0.56290  -0.55951
  Beta  occ. eigenvalues --   -0.55535  -0.55222  -0.55091  -0.54547  -0.54180
  Beta  occ. eigenvalues --   -0.54082  -0.53970  -0.53776  -0.53593  -0.53184
  Beta  occ. eigenvalues --   -0.52922  -0.52729  -0.52571  -0.52218  -0.52080
  Beta  occ. eigenvalues --   -0.51912  -0.51541  -0.51488  -0.50789  -0.50599
  Beta  occ. eigenvalues --   -0.50505  -0.50349  -0.48215  -0.47872  -0.47378
  Beta  occ. eigenvalues --   -0.46598  -0.46164  -0.44411  -0.43862  -0.42749
  Beta  occ. eigenvalues --   -0.42158  -0.41582  -0.39891
  Beta virt. eigenvalues --   -0.26636  -0.03670  -0.03501  -0.02587   0.00653
  Beta virt. eigenvalues --    0.02866   0.03466   0.04362   0.07008   0.08397
  Beta virt. eigenvalues --    0.10152   0.10652   0.10694   0.12033   0.13301
  Beta virt. eigenvalues --    0.14411   0.14780   0.15512   0.16263   0.17030
  Beta virt. eigenvalues --    0.17434   0.17582   0.17909   0.18505   0.19202
  Beta virt. eigenvalues --    0.20462   0.20609   0.20945   0.21086   0.21233
  Beta virt. eigenvalues --    0.21491   0.22139   0.22258   0.22493   0.23013
  Beta virt. eigenvalues --    0.23535   0.24086   0.24466   0.25673   0.26279
  Beta virt. eigenvalues --    0.27038   0.27542   0.28497   0.30737   0.31545
  Beta virt. eigenvalues --    0.33134   0.34348   0.35268   0.35458   0.36280
  Beta virt. eigenvalues --    0.38069   0.38508   0.43469   0.43947   0.45142
  Beta virt. eigenvalues --    0.45942   0.46647   0.47879   0.48541   0.49583
  Beta virt. eigenvalues --    0.49634   0.50582   0.50894   0.51319   0.51380
  Beta virt. eigenvalues --    0.52078   0.52370   0.52889   0.53449   0.54554
  Beta virt. eigenvalues --    0.54956   0.55457   0.55988   0.56656   0.57075
  Beta virt. eigenvalues --    0.58002   0.59046   0.59367   0.59671   0.60927
  Beta virt. eigenvalues --    0.61299   0.62006   0.63251   0.63853   0.65010
  Beta virt. eigenvalues --    0.66555   0.67697   0.69056   0.70132   0.70800
  Beta virt. eigenvalues --    0.71065   0.71247   0.72988   0.73533   0.75884
  Beta virt. eigenvalues --    0.77202   0.77891   0.79215   0.80882   0.81799
  Beta virt. eigenvalues --    0.82756   0.83074   0.83588   0.84399   0.85087
  Beta virt. eigenvalues --    0.85225   0.85766   0.86785   0.88279   0.88894
  Beta virt. eigenvalues --    0.89522   0.90075   0.91411   0.91834   0.92214
  Beta virt. eigenvalues --    0.93822   0.95071   0.96815   0.97013   0.99248
  Beta virt. eigenvalues --    1.00250   1.00727   1.01259   1.01574   1.02574
  Beta virt. eigenvalues --    1.03545   1.04512   1.05455   1.06265   1.06804
  Beta virt. eigenvalues --    1.07220   1.07971   1.08654   1.09754   1.10161
  Beta virt. eigenvalues --    1.10653   1.11758   1.12444   1.12648   1.13215
  Beta virt. eigenvalues --    1.13666   1.14098   1.15015   1.15948   1.16323
  Beta virt. eigenvalues --    1.16426   1.17011   1.17769   1.18381   1.19869
  Beta virt. eigenvalues --    1.20422   1.21059   1.22242   1.22708   1.24492
  Beta virt. eigenvalues --    1.25461   1.26013   1.26515   1.26893   1.27450
  Beta virt. eigenvalues --    1.27777   1.29149   1.29451   1.30139   1.31262
  Beta virt. eigenvalues --    1.32136   1.32810   1.32966   1.33437   1.33666
  Beta virt. eigenvalues --    1.34131   1.34558   1.35445   1.35592   1.36464
  Beta virt. eigenvalues --    1.36754   1.37744   1.37820   1.38553   1.38786
  Beta virt. eigenvalues --    1.38866   1.39361   1.39750   1.40567   1.40720
  Beta virt. eigenvalues --    1.40979   1.41999   1.42170   1.43412   1.43822
  Beta virt. eigenvalues --    1.44095   1.44449   1.45170   1.45696   1.46120
  Beta virt. eigenvalues --    1.46693   1.46802   1.47246   1.47423   1.48686
  Beta virt. eigenvalues --    1.49296   1.49844   1.50024   1.50638   1.51501
  Beta virt. eigenvalues --    1.51744   1.52373   1.53117   1.53906   1.55095
  Beta virt. eigenvalues --    1.55622   1.56139   1.56837   1.57297   1.57983
  Beta virt. eigenvalues --    1.59210   1.59844   1.62049   1.62755   1.63295
  Beta virt. eigenvalues --    1.63802   1.64546   1.65163   1.65761   1.67009
  Beta virt. eigenvalues --    1.67663   1.68059   1.69081   1.69378   1.69928
  Beta virt. eigenvalues --    1.70817   1.71570   1.72032   1.72408   1.73228
  Beta virt. eigenvalues --    1.73844   1.74801   1.75908   1.76259   1.77468
  Beta virt. eigenvalues --    1.78123   1.78932   1.79218   1.80062   1.80559
  Beta virt. eigenvalues --    1.80921   1.81736   1.82071   1.82154   1.83021
  Beta virt. eigenvalues --    1.83145   1.83744   1.83950   1.84526   1.84883
  Beta virt. eigenvalues --    1.85110   1.85717   1.85754   1.86182   1.86696
  Beta virt. eigenvalues --    1.87061   1.87306   1.88012   1.88104   1.88946
  Beta virt. eigenvalues --    1.89391   1.89701   1.89868   1.90530   1.91233
  Beta virt. eigenvalues --    1.91691   1.91937   1.92405   1.92484   1.93587
  Beta virt. eigenvalues --    1.93858   1.94444   1.95162   1.95855   1.96247
  Beta virt. eigenvalues --    1.96590   1.97164   1.97637   1.98193   1.98464
  Beta virt. eigenvalues --    1.99026   1.99418   1.99962   2.00401   2.00613
  Beta virt. eigenvalues --    2.01114   2.01366   2.01672   2.01834   2.02185
  Beta virt. eigenvalues --    2.02759   2.03137   2.03229   2.03436   2.03612
  Beta virt. eigenvalues --    2.04034   2.04197   2.04425   2.05480   2.06179
  Beta virt. eigenvalues --    2.06690   2.07064   2.07458   2.07604   2.07666
  Beta virt. eigenvalues --    2.08881   2.09109   2.09588   2.09660   2.10415
  Beta virt. eigenvalues --    2.10840   2.11281   2.12092   2.12682   2.13814
  Beta virt. eigenvalues --    2.14224   2.14978   2.15492   2.16621   2.16789
  Beta virt. eigenvalues --    2.17331   2.18391   2.18966   2.19133   2.20076
  Beta virt. eigenvalues --    2.21783   2.22432   2.24708   2.25706   2.26480
  Beta virt. eigenvalues --    2.27235   2.27867   2.28050   2.29135   2.29661
  Beta virt. eigenvalues --    2.31339   2.32258   2.33358   2.35510   2.35947
  Beta virt. eigenvalues --    2.36500   2.37633   2.37761   2.39484   2.39685
  Beta virt. eigenvalues --    2.40546   2.42060   2.44046   2.44885   2.46125
  Beta virt. eigenvalues --    2.46702   2.47991   2.48766   2.49110   2.49705
  Beta virt. eigenvalues --    2.50705   2.51759   2.52622   2.54164   2.56609
  Beta virt. eigenvalues --    2.57413   2.58065   2.58150   2.60214   2.60483
  Beta virt. eigenvalues --    2.61434   2.63665   2.64272   2.64908   2.65583
  Beta virt. eigenvalues --    2.66998   2.67727   2.69195   2.70843   2.71507
  Beta virt. eigenvalues --    2.73444   2.73785   2.74507   2.75400   2.75725
  Beta virt. eigenvalues --    2.78144   2.79178   2.79776   2.81399   2.82319
  Beta virt. eigenvalues --    2.82872   2.84455   2.85173   2.85997   2.86889
  Beta virt. eigenvalues --    2.88204   2.89253   2.89463   2.90683   2.91166
  Beta virt. eigenvalues --    2.92246   2.94040   2.94884   2.96215   2.97187
  Beta virt. eigenvalues --    2.98168   2.98878   2.99849   3.01728   3.02400
  Beta virt. eigenvalues --    3.03345   3.03532   3.03688   3.05201   3.05723
  Beta virt. eigenvalues --    3.06560   3.08864   3.10242   3.11092   3.13245
  Beta virt. eigenvalues --    3.13306   3.13743   3.14776   3.16727   3.17078
  Beta virt. eigenvalues --    3.19521   3.21098   3.23008   3.24239   3.24762
  Beta virt. eigenvalues --    3.27583   3.29154   3.30060   3.31784   3.34952
  Beta virt. eigenvalues --    3.40411   3.41356   3.41440   3.44819   3.46890
  Beta virt. eigenvalues --    3.49358   4.02832   4.08725   4.10650   4.12602
  Beta virt. eigenvalues --    4.14557   4.19920   4.23441   4.26222   4.26694
  Beta virt. eigenvalues --    4.31800   4.34473   4.39632   4.40803   4.43464
  Beta virt. eigenvalues --    4.43923   4.46359   4.52862   4.56245   4.58580
  Beta virt. eigenvalues --    4.60132   4.63929   4.67671   4.74884   4.81756
  Beta virt. eigenvalues --    4.82892   4.84958   4.88240   4.89621   4.94676
  Beta virt. eigenvalues --    5.08172   5.23113   5.28999   5.31297   5.41090
  Beta virt. eigenvalues --    5.52985   5.65996   6.04502   6.21036   6.41214
  Beta virt. eigenvalues --    6.50652   6.58323
          Condensed to atoms (all electrons):
               1          2          3          4          5          6
     1  C    5.010145   0.383901  -0.061071   0.002046  -0.000002  -0.000007
     2  C    0.383901   4.849481   0.640751  -0.065231   0.000974  -0.000927
     3  C   -0.061071   0.640751   4.928726   0.324478  -0.062589  -0.003886
     4  C    0.002046  -0.065231   0.324478   4.969613   0.254159  -0.019503
     5  N   -0.000002   0.000974  -0.062589   0.254159   7.409915   0.211712
     6  C   -0.000007  -0.000927  -0.003886  -0.019503   0.211712   4.198270
     7  O   -0.000003  -0.000930  -0.001698   0.004068  -0.089595   0.554314
     8  N    0.000000  -0.000012  -0.000447   0.003467  -0.099531   0.213469
     9  C    0.000000   0.000001   0.000003  -0.000058   0.000788  -0.013112
    10  F    0.000000   0.000000   0.000000   0.000001  -0.000031   0.004109
    11  F    0.000000   0.000000   0.000000   0.000000  -0.000027   0.001936
    12  C    0.000000   0.000000   0.000001  -0.000001   0.000067  -0.006899
    13  F    0.000000   0.000000   0.000000   0.000000   0.000000   0.000062
    14  O    0.000000   0.000000  -0.000001   0.000003  -0.000003   0.003106
    15  C    0.000000   0.000000   0.000000   0.000000   0.000003   0.000467
    16  F    0.000000   0.000000   0.000000   0.000000   0.000000   0.000004
    17  F    0.000000   0.000000   0.000000   0.000000   0.000000   0.000012
    18  F    0.000000   0.000000   0.000000   0.000003  -0.000002   0.006782
    19  C    0.000000   0.000001   0.000002   0.000001  -0.000111   0.000456
    20  F    0.000000   0.000000   0.000000   0.000000   0.000000   0.000013
    21  F   -0.000001   0.000016   0.000035  -0.000032  -0.000707   0.013411
    22  F    0.000000   0.000000   0.000000   0.000000   0.000000   0.000000
    23  C    0.000000   0.000004   0.000123   0.000049   0.003513  -0.015620
    24  O    0.000000   0.000000   0.000000   0.000002   0.000121   0.000027
    25  N    0.000000  -0.000014  -0.000488   0.003864  -0.096454  -0.004274
    26  C    0.000000   0.000001   0.000002  -0.000044   0.001433   0.000306
    27  F    0.000000   0.000000   0.000000   0.000000  -0.000027   0.000004
    28  F    0.000000   0.000000  -0.000001   0.000007   0.000059   0.000001
    29  C    0.000000   0.000000   0.000000   0.000001  -0.000029   0.000034
    30  F    0.000000   0.000000   0.000000   0.000000   0.000002   0.000000
    31  O    0.000000   0.000000   0.000000   0.000005  -0.000530   0.000016
    32  C    0.000000   0.000000   0.000000   0.000000  -0.000007   0.000000
    33  F    0.000000   0.000000   0.000000   0.000000   0.000000   0.000000
    34  F    0.000000   0.000000   0.000000   0.000000   0.000000   0.000000
    35  F    0.000000   0.000000   0.000000   0.000000   0.000000   0.000000
    36  C    0.000000   0.000000   0.000000   0.000000  -0.000002   0.000000
    37  F    0.000000   0.000000   0.000000   0.000000   0.000000   0.000000
    38  F    0.000000   0.000000   0.000000   0.000000   0.000000   0.000000
    39  F    0.000000   0.000000   0.000000   0.000000   0.000000   0.000000
    40  C   -0.000008  -0.000952  -0.004513  -0.018669   0.219994  -0.011250
    41  O   -0.000002  -0.000737  -0.002088   0.003533  -0.089221   0.000321
    42  H    0.360368  -0.015078   0.002294   0.000012   0.000003   0.000000
    43  H    0.362560  -0.016268   0.002298   0.000016   0.000005   0.000000
    44  H    0.375567  -0.022245   0.000231  -0.000032  -0.000002   0.000000
    45  H   -0.000023  -0.000344  -0.028851   0.374617  -0.034160  -0.001104
    46  H   -0.000022  -0.000201  -0.028287   0.372561  -0.034036   0.003193
               7          8          9         10         11         12
     1  C   -0.000003   0.000000   0.000000   0.000000   0.000000   0.000000
     2  C   -0.000930  -0.000012   0.000001   0.000000   0.000000   0.000000
     3  C   -0.001698  -0.000447   0.000003   0.000000   0.000000   0.000001
     4  C    0.004068   0.003467  -0.000058   0.000001   0.000000  -0.000001
     5  N   -0.089595  -0.099531   0.000788  -0.000031  -0.000027   0.000067
[...]
     4   Atom        0.048042     -0.019485     -0.028557
     5   Atom       -0.003136      0.006072     -0.002937
     6   Atom       -0.001742      0.004268     -0.002526
     7   Atom       -0.002259     -0.004316      0.006575
     8   Atom       -0.001218      0.001942     -0.000723
     9   Atom       -0.000446      0.001061     -0.000615
    10   Atom       -0.000352      0.000842     -0.000489
    11   Atom       -0.000310      0.000652     -0.000342
    12   Atom        0.000036      0.000539     -0.000575
    13   Atom        0.000027      0.000280     -0.000307
    14   Atom        0.000534      0.000283     -0.000817
    15   Atom        0.000108      0.000351     -0.000459
    16   Atom        0.000010      0.000292     -0.000302
    17   Atom        0.000211      0.000083     -0.000295
    18   Atom       -0.000185      0.000705     -0.000520
    19   Atom        0.000153      0.000257     -0.000411
    20   Atom       -0.000125      0.000194     -0.000069
    21   Atom        0.000136      0.000395     -0.000531
    22   Atom        0.000473     -0.000120     -0.000353
    23   Atom       -0.000816      0.001588     -0.000772
    24   Atom        0.000544      0.000748     -0.001292
    25   Atom       -0.001142      0.001821     -0.000680
    26   Atom       -0.000365      0.000816     -0.000451
    27   Atom       -0.000236      0.000384     -0.000148
    28   Atom       -0.000229      0.000419     -0.000190
    29   Atom       -0.000145      0.000578     -0.000433
    30   Atom       -0.000232      0.000570     -0.000338
    31   Atom       -0.000059      0.000660     -0.000601
    32   Atom        0.000022      0.000318     -0.000340
    33   Atom       -0.000063      0.000298     -0.000235
    34   Atom        0.000152      0.000131     -0.000283
    35   Atom        0.000013      0.000249     -0.000262
    36   Atom       -0.000002      0.000252     -0.000250
    37   Atom       -0.000055      0.000204     -0.000148
    38   Atom        0.000006      0.000184     -0.000190
    39   Atom        0.000152      0.000108     -0.000260
    40   Atom       -0.001286      0.003377     -0.002092
    41   Atom       -0.007259     -0.008162      0.015421
    42   Atom        0.005244     -0.004201     -0.001043
    43   Atom       -0.007745     -0.003278      0.011023
    44   Atom       -0.005490      0.010339     -0.004849
    45   Atom       -0.006702     -0.002486      0.009188
    46   Atom        0.002333     -0.003436      0.001103
 --------------------------------------------------------
                        XY            XZ            YZ
 --------------------------------------------------------
     1   Atom       -0.006989      0.016254     -0.008205
     2   Atom       -0.069536      0.147221     -0.048460
     3   Atom       -0.072394      0.153526     -0.046884
     4   Atom       -0.005424      0.014273     -0.005970
     5   Atom        0.000700      0.000025      0.001239
     6   Atom       -0.001837     -0.000806      0.001166
     7   Atom       -0.003224     -0.007628     -0.000385
     8   Atom       -0.000486     -0.000527      0.000509
     9   Atom       -0.000721     -0.000158      0.000396
    10   Atom       -0.000407     -0.000048      0.000084
    11   Atom       -0.000536     -0.000253      0.000513
    12   Atom       -0.000917     -0.000252      0.000299
    13   Atom       -0.000497     -0.000142      0.000172
    14   Atom       -0.001168     -0.000035     -0.000018
    15   Atom       -0.000715      0.000144     -0.000196
    16   Atom       -0.000431      0.000039     -0.000078
    17   Atom       -0.000544      0.000239     -0.000232
    18   Atom       -0.000782      0.000229     -0.000436
    19   Atom       -0.001014     -0.000635      0.000620
    20   Atom       -0.000569     -0.000471      0.000592
    21   Atom       -0.002021     -0.001481      0.001421
    22   Atom       -0.000721     -0.000539      0.000331
    23   Atom        0.000089      0.000055      0.000665
    24   Atom       -0.000103      0.000495      0.000337
    25   Atom        0.000760      0.000378      0.000745
    26   Atom        0.000758      0.000296      0.000614
    27   Atom        0.000411      0.000344      0.000526
    28   Atom        0.000936      0.000556      0.001023
    29   Atom        0.000581      0.000111      0.000186
    30   Atom        0.000347      0.000030      0.000089
    31   Atom        0.000849     -0.000030     -0.000065
    32   Atom        0.000517     -0.000095     -0.000137
    33   Atom        0.000320     -0.000049     -0.000087
    34   Atom        0.000434     -0.000058     -0.000063
    35   Atom        0.000510     -0.000225     -0.000295
    36   Atom        0.000402      0.000112      0.000149
    37   Atom        0.000282      0.000122      0.000189
    38   Atom        0.000283      0.000043      0.000055
    39   Atom        0.000451      0.000167      0.000152
    40   Atom        0.002303      0.001221      0.001994
    41   Atom        0.003465      0.005533      0.002185
    42   Atom        0.004181     -0.012624     -0.005190
    43   Atom       -0.000740      0.007566     -0.007061
    44   Atom        0.001208      0.000363      0.000921
    45   Atom       -0.000958      0.008079     -0.007976
    46   Atom        0.003346     -0.012398     -0.005060
 --------------------------------------------------------


 ---------------------------------------------------------------------------------
              Anisotropic Spin Dipole Couplings in Principal Axis System
 ---------------------------------------------------------------------------------

       Atom             a.u.   MegaHertz   Gauss  10(-4) cm-1        Axes

              Baa    -0.0372    -4.994    -1.782    -1.666 -0.1159  0.4877  0.8653
     1 C(13)  Bbb    -0.0214    -2.867    -1.023    -0.956  0.1789  0.8671 -0.4648
              Bcc     0.0586     7.861     2.805     2.622  0.9770 -0.1009  0.1877
 
              Baa    -0.3105   -41.668   -14.868   -13.899 -0.0972  0.5731  0.8137
     2 C(13)  Bbb    -0.2364   -31.721   -11.319   -10.581  0.1840  0.8139 -0.5512
              Bcc     0.5469    73.389    26.187    24.480  0.9781 -0.0961  0.1845
 
              Baa    -0.3205   -43.008   -15.346   -14.346 -0.0970  0.5753  0.8122
     3 C(13)  Bbb    -0.2509   -33.664   -12.012   -11.229  0.1829  0.8124 -0.5536
              Bcc     0.5714    76.672    27.359    25.575  0.9783 -0.0948  0.1840
 
              Baa    -0.0330    -4.426    -1.579    -1.476 -0.1393  0.3531  0.9252
     4 C(13)  Bbb    -0.0182    -2.444    -0.872    -0.815  0.1480  0.9312 -0.3331
              Bcc     0.0512     6.870     2.451     2.292  0.9791 -0.0905  0.1820
 
              Baa    -0.0032    -0.124    -0.044    -0.042  0.8681 -0.1292  0.4793
     5 N(14)  Bbb    -0.0031    -0.118    -0.042    -0.039 -0.4909 -0.0801  0.8675
              Bcc     0.0063     0.243     0.087     0.081  0.0737  0.9884  0.1329
 
              Baa    -0.0030    -0.407    -0.145    -0.136  0.5272 -0.0030  0.8497
     6 C(13)  Bbb    -0.0020    -0.268    -0.095    -0.089  0.8032  0.3282 -0.4972
              Bcc     0.0050     0.674     0.241     0.225 -0.2774  0.9446  0.1755
 
              Baa    -0.0087     0.631     0.225     0.210  0.7307  0.5681  0.3787
     7 O(17)  Bbb    -0.0024     0.171     0.061     0.057 -0.4539  0.8185 -0.3521
              Bcc     0.0111    -0.802    -0.286    -0.267 -0.5100  0.0854  0.8559
 
              Baa    -0.0016    -0.060    -0.021    -0.020  0.8570  0.0445  0.5133
     8 N(14)  Bbb    -0.0006    -0.022    -0.008    -0.007 -0.4858 -0.2623  0.8338
              Bcc     0.0021     0.082     0.029     0.027 -0.1717  0.9640  0.2032
 
              Baa    -0.0007    -0.099    -0.035    -0.033  0.9241  0.3799 -0.0410
     9 C(13)  Bbb    -0.0007    -0.094    -0.034    -0.032  0.1145 -0.1729  0.9783
              Bcc     0.0014     0.193     0.069     0.064 -0.3645  0.9087  0.2033
 
              Baa    -0.0005    -0.256    -0.091    -0.085  0.5440  0.1123  0.8315
    10 F(19)  Bbb    -0.0005    -0.233    -0.083    -0.078  0.7855  0.2801 -0.5518
              Bcc     0.0010     0.489     0.174     0.163 -0.2949  0.9534  0.0641
 
              Baa    -0.0006    -0.291    -0.104    -0.097  0.6374 -0.0428  0.7693
    11 F(19)  Bbb    -0.0005    -0.269    -0.096    -0.090  0.6680  0.5282 -0.5242
              Bcc     0.0011     0.560     0.200     0.187 -0.3839  0.8481  0.3653
 
              Baa    -0.0007    -0.091    -0.033    -0.030  0.6952  0.3729  0.6145
    12 C(13)  Bbb    -0.0006    -0.086    -0.031    -0.029 -0.4025 -0.5063  0.7627
              Bcc     0.0013     0.177     0.063     0.059 -0.5955  0.7776  0.2019
 
              Baa    -0.0004    -0.183    -0.065    -0.061  0.7089  0.3901  0.5876
    13 F(19)  Bbb    -0.0004    -0.176    -0.063    -0.059 -0.3699 -0.5036  0.7807
              Bcc     0.0007     0.359     0.128     0.120 -0.6005  0.7708  0.2127
 
              Baa    -0.0008     0.061     0.022     0.020  0.3152  0.3433  0.8848
    14 O(17)  Bbb    -0.0007     0.054     0.019     0.018  0.5893  0.6600 -0.4660
              Bcc     0.0016    -0.115    -0.041    -0.038  0.7439 -0.6682 -0.0058
 
              Baa    -0.0005    -0.069    -0.025    -0.023  0.4217  0.5170  0.7449
    15 C(13)  Bbb    -0.0005    -0.065    -0.023    -0.022  0.6473  0.4036 -0.6466
              Bcc     0.0010     0.134     0.048     0.045 -0.6350  0.7548 -0.1644
 
              Baa    -0.0003    -0.161    -0.058    -0.054  0.4418  0.4126  0.7966
    16 F(19)  Bbb    -0.0003    -0.147    -0.052    -0.049  0.6814  0.4232 -0.5971
              Bcc     0.0006     0.308     0.110     0.103 -0.5835  0.8066 -0.0941
 
              Baa    -0.0004    -0.207    -0.074    -0.069  0.3635  0.6912  0.6246
    17 F(19)  Bbb    -0.0004    -0.193    -0.069    -0.064 -0.6003 -0.3390  0.7244
              Bcc     0.0008     0.400     0.143     0.134  0.7124 -0.6383  0.2917
 
              Baa    -0.0007    -0.336    -0.120    -0.112  0.4040  0.4778  0.7800
    18 F(19)  Bbb    -0.0006    -0.314    -0.112    -0.105  0.7771  0.2705 -0.5683
              Bcc     0.0013     0.650     0.232     0.217 -0.4826  0.8357 -0.2620
 
              Baa    -0.0008    -0.112    -0.040    -0.037  0.7289  0.3385  0.5951
    19 C(13)  Bbb    -0.0008    -0.104    -0.037    -0.035 -0.2567 -0.6707  0.6959
              Bcc     0.0016     0.216     0.077     0.072 -0.6347  0.6600  0.4020
 
              Baa    -0.0006    -0.286    -0.102    -0.096  0.8072  0.1617  0.5678
    20 F(19)  Bbb    -0.0005    -0.271    -0.097    -0.090  0.2914  0.7273 -0.6214
              Bcc     0.0011     0.558     0.199     0.186 -0.5134  0.6670  0.5399
 
              Baa    -0.0018    -0.907    -0.324    -0.303  0.7899  0.4729  0.3905
    21 F(19)  Bbb    -0.0016    -0.785    -0.280    -0.262 -0.0293 -0.6068  0.7943
              Bcc     0.0034     1.692     0.604     0.564 -0.6126  0.6388  0.4654
 
              Baa    -0.0006    -0.316    -0.113    -0.105  0.6012  0.4036  0.6897
    22 F(19)  Bbb    -0.0006    -0.293    -0.104    -0.098  0.2018  0.7585 -0.6197
              Bcc     0.0012     0.609     0.217     0.203  0.7732 -0.5117 -0.3746
 
              Baa    -0.0010    -0.128    -0.046    -0.043 -0.2220 -0.2395  0.9452
    23 C(13)  Bbb    -0.0008    -0.109    -0.039    -0.036  0.9743 -0.0929  0.2053
              Bcc     0.0018     0.237     0.085     0.079  0.0386  0.9665  0.2539
 
              Baa    -0.0015     0.107     0.038     0.036 -0.2431 -0.1564  0.9573
    24 O(17)  Bbb     0.0007    -0.048    -0.017    -0.016  0.9567  0.1244  0.2632
              Bcc     0.0008    -0.058    -0.021    -0.019 -0.1602  0.9798  0.1194
 
              Baa    -0.0014    -0.054    -0.019    -0.018  0.9283 -0.1394 -0.3448
    25 N(14)  Bbb    -0.0008    -0.032    -0.012    -0.011  0.2839 -0.3332  0.8991
              Bcc     0.0022     0.086     0.031     0.029  0.2402  0.9325  0.2697
 
              Baa    -0.0007    -0.099    -0.035    -0.033  0.8809 -0.4650  0.0883
    26 C(13)  Bbb    -0.0007    -0.094    -0.033    -0.031 -0.2329 -0.2634  0.9362
              Bcc     0.0014     0.192     0.069     0.064  0.4121  0.8452  0.3403
 
              Baa    -0.0005    -0.273    -0.097    -0.091 -0.6556 -0.1309  0.7436
    27 F(19)  Bbb    -0.0004    -0.202    -0.072    -0.067  0.6337 -0.6310  0.4475
              Bcc     0.0009     0.475     0.170     0.159  0.4106  0.7646  0.4967
 
              Baa    -0.0010    -0.506    -0.180    -0.169 -0.4171  0.6946 -0.5861
    28 F(19)  Bbb    -0.0008    -0.384    -0.137    -0.128  0.7736 -0.0671 -0.6301
              Bcc     0.0018     0.889     0.317     0.297  0.4770  0.7163  0.5093
 
              Baa    -0.0005    -0.064    -0.023    -0.021 -0.6791  0.2534  0.6889
    29 C(13)  Bbb    -0.0005    -0.062    -0.022    -0.021  0.5549 -0.4371  0.7078
              Bcc     0.0009     0.126     0.045     0.042  0.4805  0.8630  0.1562
 
              Baa    -0.0004    -0.182    -0.065    -0.061  0.9170 -0.3580  0.1761
    30 F(19)  Bbb    -0.0003    -0.174    -0.062    -0.058 -0.1963 -0.0208  0.9803
              Bcc     0.0007     0.355     0.127     0.119  0.3473  0.9335  0.0893
 
              Baa    -0.0006     0.045     0.016     0.015  0.7484 -0.5153 -0.4175
    31 O(17)  Bbb    -0.0006     0.043     0.015     0.014  0.3679 -0.2012  0.9078
              Bcc     0.0012    -0.089    -0.032    -0.030  0.5518  0.8330 -0.0390
 
              Baa    -0.0004    -0.050    -0.018    -0.017 -0.5554  0.5404  0.6321
    32 C(13)  Bbb    -0.0004    -0.048    -0.017    -0.016  0.5819 -0.2904  0.7596
              Bcc     0.0007     0.098     0.035     0.033  0.5940  0.7897 -0.1532
 
              Baa    -0.0003    -0.126    -0.045    -0.042  0.6307 -0.4661 -0.6204
    33 F(19)  Bbb    -0.0002    -0.124    -0.044    -0.041  0.5938 -0.2248  0.7726
              Bcc     0.0005     0.251     0.089     0.084  0.4996  0.8557 -0.1350
 
              Baa    -0.0003    -0.149    -0.053    -0.050 -0.4974  0.5977  0.6288
    34 F(19)  Bbb    -0.0003    -0.144    -0.052    -0.048  0.4961 -0.3986  0.7713
              Bcc     0.0006     0.293     0.105     0.098  0.7117  0.6956 -0.0982
 
              Baa    -0.0004    -0.201    -0.072    -0.067 -0.4052  0.6229  0.6691
    35 F(19)  Bbb    -0.0004    -0.194    -0.069    -0.065  0.7024 -0.2564  0.6641
              Bcc     0.0008     0.395     0.141     0.132  0.5852  0.7391 -0.3336
 
              Baa    -0.0003    -0.040    -0.014    -0.013  0.8038 -0.5023 -0.3186
    36 C(13)  Bbb    -0.0003    -0.039    -0.014    -0.013  0.1417 -0.3585  0.9227
              Bcc     0.0006     0.079     0.028     0.026  0.5777  0.7868  0.2170
 
              Baa    -0.0002    -0.119    -0.042    -0.040  0.8617 -0.4742 -0.1805
    37 F(19)  Bbb    -0.0002    -0.116    -0.041    -0.039 -0.0204 -0.3878  0.9215
              Bcc     0.0005     0.234     0.084     0.078  0.5070  0.7904  0.3438
 
              Baa    -0.0002    -0.102    -0.036    -0.034  0.7656 -0.5035 -0.4004
    38 F(19)  Bbb    -0.0002    -0.099    -0.035    -0.033  0.2617 -0.3248  0.9089
              Bcc     0.0004     0.201     0.072     0.067  0.5877  0.8006  0.1169
 
              Baa    -0.0003    -0.163    -0.058    -0.054  0.6751 -0.5210 -0.5224
    39 F(19)  Bbb    -0.0003    -0.157    -0.056    -0.053  0.2220 -0.5318  0.8172
              Bcc     0.0006     0.320     0.114     0.107  0.7036  0.6677  0.2434
 
              Baa    -0.0030    -0.402    -0.144    -0.134 -0.4914 -0.0933  0.8659
    40 C(13)  Bbb    -0.0021    -0.278    -0.099    -0.093  0.7856 -0.4766  0.3945
              Bcc     0.0051     0.680     0.243     0.227  0.3759  0.8742  0.3075
 
              Baa    -0.0114     0.824     0.294     0.275  0.7078 -0.7007 -0.0890
    41 O(17)  Bbb    -0.0057     0.409     0.146     0.136  0.6657  0.7039 -0.2477
              Bcc     0.0170    -1.233    -0.440    -0.411  0.2362  0.1161  0.9647
 
              Baa    -0.0113    -6.042    -2.156    -2.015  0.5417  0.2636  0.7982
    42 H(1)   Bbb    -0.0058    -3.080    -1.099    -1.027 -0.3920  0.9192 -0.0376
              Bcc     0.0171     9.122     3.255     3.043  0.7436  0.2925 -0.6012
 
              Baa    -0.0109    -5.813    -2.074    -1.939  0.8766 -0.2786 -0.3923
    43 H(1)   Bbb    -0.0053    -2.808    -1.002    -0.937  0.3812  0.8996  0.2130
              Bcc     0.0162     8.622     3.076     2.876  0.2936 -0.3363  0.8948
 
              Baa    -0.0057    -3.036    -1.083    -1.013  0.9358 -0.0505 -0.3488
    44 H(1)   Bbb    -0.0048    -2.560    -0.914    -0.854  0.3440 -0.0843  0.9352
              Bcc     0.0105     5.596     1.997     1.867  0.0766  0.9952  0.0616
 
              Baa    -0.0109    -5.821    -2.077    -1.942  0.8139 -0.3480 -0.4653
    45 H(1)   Bbb    -0.0050    -2.641    -0.942    -0.881  0.4816  0.8520  0.2054
              Bcc     0.0159     8.463     3.020     2.823  0.3249 -0.3913  0.8610
 
              Baa    -0.0110    -5.866    -2.093    -1.957  0.6357  0.2149  0.7414
    46 H(1)   Bbb    -0.0049    -2.639    -0.942    -0.880 -0.3610  0.9317  0.0395
              Bcc     0.0159     8.506     3.035     2.837  0.6823  0.2927 -0.6699
 

 ---------------------------------------------------------------------------------

 No NMR shielding tensors so no spin-rotation constants.
 Leave Link  601 at Sun Mar  3 18:23:40 2024, MaxMem=  5368709120 cpu:         8.9
 (Enter /home/k0335/k033513/app/g09/l9999.exe)
 1\1\GINC-C18U06N4\SP\UCAM-B3LYP\6-31G(d,p)\C15H5F18N3O5(1+,2)\K033513\
 03-Mar-2024\0\\#p CAM-B3LYP/6-31G(d,p) SCRF=(PCM,Solvent=Generic,Read)
  NoSymm out=wfn\\Title A603415622_p1\\1,2\C,0,0.569265,5.686633,-0.646
 82\C,0,0.302511,4.481576,0.1396\C,0,0.084132,3.492367,0.785505\C,0,-0.
 179291,2.274347,1.568691\N,0,-0.122318,1.100033,0.705091\C,0,1.095427,
 0.490086,0.511347\O,0,2.103234,0.86646,1.101415\N,0,1.128802,-0.564774
 ,-0.356147\C,0,2.343719,-1.360996,-0.509805\F,0,2.312174,-2.351855,0.4
 2844\F,0,2.242693,-2.018541,-1.711447\C,0,3.775506,-0.733501,-0.518116
 \F,0,4.663771,-1.713058,-0.909596\O,0,4.338234,-0.207615,0.682402\C,0,
 4.354291,-1.125956,1.745236\F,0,4.74501,-2.345925,1.341728\F,0,5.21996
 2,-0.685367,2.678732\F,0,3.133316,-1.209504,2.304046\C,0,3.788827,0.31
 9378,-1.627254\F,0,3.480511,-0.205897,-2.83612\F,0,2.903848,1.320512,-
 1.414424\F,0,5.009095,0.896363,-1.753468\C,0,-0.047685,-1.194897,-0.70
 4318\O,0,-0.109083,-2.3975,-0.941262\N,0,-1.169639,-0.405798,-0.729919
 \C,0,-2.395522,-0.988257,-1.263117\F,0,-2.083985,-1.649068,-2.41586\F,
 0,-3.202554,0.025241,-1.692876\C,0,-3.183024,-1.921323,-0.30349\F,0,-2
 .445369,-3.042058,-0.055282\O,0,-3.337363,-1.287336,0.971278\C,0,-4.24
 4514,-1.947769,1.813636\F,0,-4.039926,-3.273247,1.80155\F,0,-5.498338,
 -1.665801,1.427152\F,0,-4.064945,-1.493189,3.06786\C,0,-4.460895,-2.29
 9278,-1.066745\F,0,-4.210754,-2.811543,-2.291142\F,0,-5.175232,-3.2406
 03,-0.403019\F,0,-5.282189,-1.238202,-1.232244\C,0,-1.288493,0.674381,
 0.106267\O,0,-2.37105,1.204761,0.348264\H,0,1.588779,5.673778,-1.04390
 3\H,0,-0.123154,5.76125,-1.490745\H,0,0.454917,6.585068,-0.032831\H,0,
 0.558979,2.182197,2.3732\H,0,-1.161679,2.344427,2.048512\\Version=ES64
 L-G09RevD.01\HF=-2910.9043288\S2=0.751801\S2-1=0.\S2A=0.750003\RMSD=5.
 457e-09\Dipole=0.4647943,9.4405766,0.9760692\Quadrupole=-29.1139754,45
 .2293305,-16.115355,6.7361836,-3.025049,-2.577589\PG=C01 [X(C15H5F18N3
 O5)]\\@

 Writing a WFN file to "A603415622/A603415622_p1.wfn"


 ALL PAPERS THAT YOU SAVE WILL NEVER BE NEEDED UNTIL
 SUCH TIME AS THEY ARE DISPOSED OF, WHEN THEY BECOME
 ESSENTIAL.

           -- JOHN CORCORAN IN
              PAUL DICKSON'S "THE OFFICIAL RULES"
 Job cpu time:       0 days  0 hours 37 minutes 59.0 seconds.
 File lengths (MBytes):  RWF=    629 Int=      0 D2E=      0 Chk=     21 Scr=      1
 Normal termination of Gaussian 09 at Sun Mar  3 18:23:41 2024.
