 Entering Gaussian System, Link 0=g09
 Initial command:
 /home/k0335/k033513/app/g09/l1.exe "/home/k0335/k033513/app/g09/scratch/Gau-617891.inp" -scrdir="/home/k0335/k033513/app/g09/scratch/"
 Default is to use a total of  36 processors:
                               36 via shared-memory
                                1 via Linda
 Entering Link 1 = /home/k0335/k033513/app/g09/l1.exe PID=    617892.
  
 Copyright (c) 1988,1990,1992,1993,1995,1998,2003,2009,2013,
            Gaussian, Inc.  All Rights Reserved.
  
 This is part of the Gaussian(R) 09 program.  It is based on
 the Gaussian(R) 03 system (copyright 2003, Gaussian, Inc.),
 the Gaussian(R) 98 system (copyright 1998, Gaussian, Inc.),
 the Gaussian(R) 94 system (copyright 1995, Gaussian, Inc.),
 the Gaussian 92(TM) system (copyright 1992, Gaussian, Inc.),
 the Gaussian 90(TM) system (copyright 1990, Gaussian, Inc.),
 the Gaussian 88(TM) system (copyright 1988, Gaussian, Inc.),
 the Gaussian 86(TM) system (copyright 1986, Carnegie Mellon
 University), and the Gaussian 82(TM) system (copyright 1983,
 Carnegie Mellon University). Gaussian is a federally registered
 trademark of Gaussian, Inc.
  
 This software contains proprietary and confidential information,
 including trade secrets, belonging to Gaussian, Inc.
  
 This software is provided under written license and may be
 used, copied, transmitted, or stored only in accord with that
 written license.
  
 The following legend is applicable only to US Government
 contracts under FAR:
  
                    RESTRICTED RIGHTS LEGEND
  
 Use, reproduction and disclosure by the US Government is
 subject to restrictions as set forth in subparagraphs (a)
 and (c) of the Commercial Computer Software - Restricted
 Rights clause in FAR 52.227-19.
  
 Gaussian, Inc.
 340 Quinnipiac St., Bldg. 40, Wallingford CT 06492
  
  
 ---------------------------------------------------------------
 Warning -- This program may not be used in any manner that
 competes with the business of Gaussian, Inc. or will provide
 assistance to any competitor of Gaussian, Inc.  The licensee
 of this program is prohibited from giving any competitor of
 Gaussian, Inc. access to this program.  By using this program,
 the user acknowledges that Gaussian, Inc. is engaged in the
 business of creating and licensing software in the field of
 computational chemistry and represents and warrants to the
 licensee that it is not a competitor of Gaussian, Inc. and that
 it will not use this program in any manner prohibited above.
 ---------------------------------------------------------------
  

 Cite this work as:
 Gaussian 09, Revision D.01,
 M. J. Frisch, G. W. Trucks, H. B. Schlegel, G. E. Scuseria, 
 M. A. Robb, J. R. Cheeseman, G. Scalmani, V. Barone, B. Mennucci, 
 G. A. Petersson, H. Nakatsuji, M. Caricato, X. Li, H. P. Hratchian, 
 A. F. Izmaylov, J. Bloino, G. Zheng, J. L. Sonnenberg, M. Hada, 
 M. Ehara, K. Toyota, R. Fukuda, J. Hasegawa, M. Ishida, T. Nakajima, 
 Y. Honda, O. Kitao, H. Nakai, T. Vreven, J. A. Montgomery, Jr., 
 J. E. Peralta, F. Ogliaro, M. Bearpark, J. J. Heyd, E. Brothers, 
 K. N. Kudin, V. N. Staroverov, T. Keith, R. Kobayashi, J. Normand, 
 K. Raghavachari, A. Rendell, J. C. Burant, S. S. Iyengar, J. Tomasi, 
 M. Cossi, N. Rega, J. M. Millam, M. Klene, J. E. Knox, J. B. Cross, 
 V. Bakken, C. Adamo, J. Jaramillo, R. Gomperts, R. E. Stratmann, 
 O. Yazyev, A. J. Austin, R. Cammi, C. Pomelli, J. W. Ochterski, 
 R. L. Martin, K. Morokuma, V. G. Zakrzewski, G. A. Voth, 
 P. Salvador, J. J. Dannenberg, S. Dapprich, A. D. Daniels, 
 O. Farkas, J. B. Foresman, J. V. Ortiz, J. Cioslowski, 
 and D. J. Fox, Gaussian, Inc., Wallingford CT, 2013.
 
 ******************************************
 Gaussian 09:  ES64L-G09RevD.01 24-Apr-2013
                 3-Feb-2025 
 ******************************************
 %nprocshared=24
 Will use up to   24 processors via shared memory.
 %mem=40GB
 %rwf=cytop/AEPYridine0/AEPYridine0_neu.rwf
 %nosave
 %chk=cytop/AEPYridine0/AEPYridine0_neu.chk
 ----------------------------------------------------------------------
 #p CAM-B3LYP/6-31G(d,p) SCRF=(PCM,Solvent=Generic,Read) NoSymm out=wfn
 ----------------------------------------------------------------------
 1/38=1,40=2/1;
 2/12=2,15=1,17=6,18=5,40=1/2;
 3/5=1,6=6,7=101,11=2,16=1,25=1,30=1,70=2203,72=-2,74=-40/1,2,3;
 4//1;
 5/5=2,38=5/2;
 6/7=2,8=2,9=2,10=2,28=1/1;
 99/5=1,6=100,9=1/99;
 Leave Link    1 at Mon Feb  3 21:36:15 2025, MaxMem=  5368709120 cpu:         0.8
 (Enter /home/k0335/k033513/app/g09/l101.exe)
 ---------------------
 Title AEPYridine0_neu
 ---------------------
 Symbolic Z-matrix:
 Charge =  0 Multiplicity = 1
 F                    -2.92103   3.38477   1.95998 
 C                    -3.20362   2.39916   1.08752 
 F                    -3.57944   2.98634  -0.06916 
 C                    -4.24581   1.41664   1.58903 
 F                    -4.06289   1.20059   2.92454 
 F                    -5.51658   1.829     1.4573 
 C                    -3.88188   0.16463   0.82684 
 F                    -4.36297  -0.92543   1.48789 
 C                    -4.432     0.18096  -0.59498 
 F                    -5.70078   0.6876   -0.58143 
 C                    -4.47678  -1.2196   -1.2184 
 O                    -5.49438  -1.98584  -0.76814 
 O                    -3.71089  -1.67141  -2.0557 
 F                    -3.71896   1.04875  -1.36108 
 C                    -2.3593    0.27769   0.96989 
 F                    -2.05373   0.01411   2.27586 
 C                    -1.52505  -0.64208   0.08371 
 F                    -1.664    -0.24617  -1.21577 
 C                    -0.04733  -0.60516   0.49649 
 N                     0.741     0.25409  -0.25606 
 C                     2.16724   0.38345  -0.01934 
 C                     2.96191  -0.78497  -0.6085 
 C                     4.43904  -0.61999  -0.38814 
 C                     5.02875  -0.99178   0.81699 
 N                     6.34457  -0.84996   1.09136 
 C                     7.11345  -0.3143    0.1202 
 C                     6.62638   0.09007  -1.11134 
 C                     5.26687  -0.06385  -1.36625 
 O                     0.41157  -1.27125   1.42218 
 F                    -2.03796  -1.90316   0.14883 
 O                    -2.01046   1.66773   0.79739 
 H                    -5.41277  -2.83837  -1.24835 
 H                     0.35374   0.64465  -1.11074 
 H                     2.48024   1.33201  -0.46972 
 H                     2.33326   0.45684   1.06195 
 H                     2.63421  -1.73597  -0.16997 
 H                     2.75396  -0.8722   -1.68285 
 H                     4.44156  -1.42655   1.62286 
 H                     8.1667   -0.21479   0.36626 
 H                     7.29108   0.51526  -1.85478 
 H                     4.86308   0.24848  -2.32574 
 
 NAtoms=     41 NQM=       41 NQMF=       0 NMMI=      0 NMMIF=      0
                NMic=       0 NMicF=      0.
                    Isotopes and Nuclear Properties:
 (Nuclear quadrupole moments (NQMom) in fm**2, nuclear magnetic moments (NMagM)
  in nuclear magnetons)

  Atom         1           2           3           4           5           6           7           8           9          10
 IAtWgt=          19          12          19          12          19          19          12          19          12          19
 AtmWgt=  18.9984033  12.0000000  18.9984033  12.0000000  18.9984033  18.9984033  12.0000000  18.9984033  12.0000000  18.9984033
 NucSpn=           1           0           1           0           1           1           0           1           0           1
 AtZEff=   0.0000000   0.0000000   0.0000000   0.0000000   0.0000000   0.0000000   0.0000000   0.0000000   0.0000000   0.0000000
 NQMom=    0.0000000   0.0000000   0.0000000   0.0000000   0.0000000   0.0000000   0.0000000   0.0000000   0.0000000   0.0000000
 NMagM=    2.6288670   0.0000000   2.6288670   0.0000000   2.6288670   2.6288670   0.0000000   2.6288670   0.0000000   2.6288670
 AtZNuc=   9.0000000   6.0000000   9.0000000   6.0000000   9.0000000   9.0000000   6.0000000   9.0000000   6.0000000   9.0000000

  Atom        11          12          13          14          15          16          17          18          19          20
 IAtWgt=          12          16          16          19          12          19          12          19          12          14
 AtmWgt=  12.0000000  15.9949146  15.9949146  18.9984033  12.0000000  18.9984033  12.0000000  18.9984033  12.0000000  14.0030740
 NucSpn=           0           0           0           1           0           1           0           1           0           2
 AtZEff=   0.0000000   0.0000000   0.0000000   0.0000000   0.0000000   0.0000000   0.0000000   0.0000000   0.0000000   0.0000000
 NQMom=    0.0000000   0.0000000   0.0000000   0.0000000   0.0000000   0.0000000   0.0000000   0.0000000   0.0000000   2.0440000
 NMagM=    0.0000000   0.0000000   0.0000000   2.6288670   0.0000000   2.6288670   0.0000000   2.6288670   0.0000000   0.4037610
 AtZNuc=   6.0000000   8.0000000   8.0000000   9.0000000   6.0000000   9.0000000   6.0000000   9.0000000   6.0000000   7.0000000

  Atom        21          22          23          24          25          26          27          28          29          30
 IAtWgt=          12          12          12          12          14          12          12          12          16          19
 AtmWgt=  12.0000000  12.0000000  12.0000000  12.0000000  14.0030740  12.0000000  12.0000000  12.0000000  15.9949146  18.9984033
 NucSpn=           0           0           0           0           2           0           0           0           0           1
 AtZEff=   0.0000000   0.0000000   0.0000000   0.0000000   0.0000000   0.0000000   0.0000000   0.0000000   0.0000000   0.0000000
 NQMom=    0.0000000   0.0000000   0.0000000   0.0000000   2.0440000   0.0000000   0.0000000   0.0000000   0.0000000   0.0000000
 NMagM=    0.0000000   0.0000000   0.0000000   0.0000000   0.4037610   0.0000000   0.0000000   0.0000000   0.0000000   2.6288670
 AtZNuc=   6.0000000   6.0000000   6.0000000   6.0000000   7.0000000   6.0000000   6.0000000   6.0000000   8.0000000   9.0000000

  Atom        31          32          33          34          35          36          37          38          39          40
 IAtWgt=          16           1           1           1           1           1           1           1           1           1
 AtmWgt=  15.9949146   1.0078250   1.0078250   1.0078250   1.0078250   1.0078250   1.0078250   1.0078250   1.0078250   1.0078250
 NucSpn=           0           1           1           1           1           1           1           1           1           1
 AtZEff=   0.0000000   0.0000000   0.0000000   0.0000000   0.0000000   0.0000000   0.0000000   0.0000000   0.0000000   0.0000000
 NQMom=    0.0000000   0.0000000   0.0000000   0.0000000   0.0000000   0.0000000   0.0000000   0.0000000   0.0000000   0.0000000
 NMagM=    0.0000000   2.7928460   2.7928460   2.7928460   2.7928460   2.7928460   2.7928460   2.7928460   2.7928460   2.7928460
 AtZNuc=   8.0000000   1.0000000   1.0000000   1.0000000   1.0000000   1.0000000   1.0000000   1.0000000   1.0000000   1.0000000

  Atom        41
 IAtWgt=           1
 AtmWgt=   1.0078250
 NucSpn=           1
 AtZEff=   0.0000000
 NQMom=    0.0000000
 NMagM=    2.7928460
 AtZNuc=   1.0000000
 Leave Link  101 at Mon Feb  3 21:36:15 2025, MaxMem=  5368709120 cpu:         0.7
 (Enter /home/k0335/k033513/app/g09/l202.exe)
                          Input orientation:                          
 ---------------------------------------------------------------------
 Center     Atomic      Atomic             Coordinates (Angstroms)
 Number     Number       Type             X           Y           Z
 ---------------------------------------------------------------------
      1          9           0       -2.921027    3.384765    1.959979
      2          6           0       -3.203621    2.399165    1.087524
      3          9           0       -3.579442    2.986343   -0.069161
      4          6           0       -4.245810    1.416636    1.589033
      5          9           0       -4.062889    1.200592    2.924538
      6          9           0       -5.516576    1.829004    1.457296
      7          6           0       -3.881882    0.164631    0.826843
      8          9           0       -4.362969   -0.925425    1.487893
      9          6           0       -4.432002    0.180962   -0.594978
     10          9           0       -5.700782    0.687595   -0.581431
     11          6           0       -4.476780   -1.219599   -1.218401
     12          8           0       -5.494377   -1.985836   -0.768142
     13          8           0       -3.710891   -1.671412   -2.055700
     14          9           0       -3.718961    1.048745   -1.361082
     15          6           0       -2.359301    0.277690    0.969891
     16          9           0       -2.053732    0.014111    2.275862
     17          6           0       -1.525048   -0.642081    0.083705
     18          9           0       -1.663999   -0.246165   -1.215771
     19          6           0       -0.047329   -0.605164    0.496490
     20          7           0        0.741004    0.254087   -0.256057
     21          6           0        2.167243    0.383450   -0.019339
     22          6           0        2.961909   -0.784967   -0.608502
     23          6           0        4.439043   -0.619991   -0.388136
     24          6           0        5.028752   -0.991778    0.816994
     25          7           0        6.344571   -0.849962    1.091362
     26          6           0        7.113454   -0.314300    0.120195
     27          6           0        6.626378    0.090067   -1.111344
     28          6           0        5.266867   -0.063845   -1.366252
     29          8           0        0.411569   -1.271252    1.422179
     30          9           0       -2.037963   -1.903156    0.148826
     31          8           0       -2.010457    1.667732    0.797394
     32          1           0       -5.412774   -2.838371   -1.248345
     33          1           0        0.353739    0.644654   -1.110740
     34          1           0        2.480235    1.332006   -0.469719
     35          1           0        2.333260    0.456838    1.061955
     36          1           0        2.634209   -1.735965   -0.169966
     37          1           0        2.753964   -0.872201   -1.682846
     38          1           0        4.441561   -1.426548    1.622859
     39          1           0        8.166695   -0.214791    0.366261
     40          1           0        7.291076    0.515256   -1.854784
     41          1           0        4.863082    0.248478   -2.325743
 ---------------------------------------------------------------------
                    Distance matrix (angstroms):
                    1          2          3          4          5
     1  F    0.000000
     2  C    1.346271   0.000000
     3  F    2.170175   1.350533   0.000000
     4  C    2.401288   1.517575   2.378578   0.000000
     5  F    2.646665   2.355746   3.519213   1.365177   0.000000
     6  F    3.067565   2.410721   2.724333   1.342478   2.158913
     7  C    3.546336   2.349710   2.975962   1.510263   2.346551
     8  F    4.569442   3.543626   4.282553   2.347170   2.583398
     9  C    4.367517   3.043051   2.978843   2.516240   3.682782
    10  F    4.632551   3.456978   3.169660   2.712814   3.903547
    11  C    5.807119   4.475900   4.451507   3.858078   4.815867
    12  O    6.550430   5.283871   5.373836   4.323426   5.083145
    13  O    6.504959   5.167860   5.065402   4.806897   5.759781
    14  F    4.138011   2.843392   2.332983   3.019287   4.302079
    15  C    3.309037   2.286344   3.147249   2.288985   2.752200
    16  F    3.494752   2.902219   4.081799   2.691471   2.421824
    17  C    4.656678   3.615859   4.172453   3.729192   4.231597
    18  F    4.984893   3.830584   3.928453   4.159036   4.998994
    19  C    5.130251   4.397442   5.068995   4.786290   5.028011
    20  N    5.303059   4.686858   5.115311   5.442811   5.838617
    21  C    6.230255   5.842468   6.308876   6.691904   6.938925
    22  C    7.654587   7.143456   7.569871   7.850314   8.110031
    23  C    8.701859   8.348844   8.797925   9.136943   9.304363
    24  C    9.146558   8.907505   9.524270   9.613220   9.586770
    25  N   10.224418  10.085872  10.702807  10.841647  10.764782
    26  C   10.851668  10.711706  11.192324  11.583890  11.621957
    27  C   10.556562  10.334207  10.659893  11.280793  11.479636
    28  C    9.486745   9.156233   9.446866  10.070579  10.346692
    29  O    5.750993   5.162708   6.023237   5.379941   5.328027
    30  F    5.658815   4.555203   5.131362   4.239081   4.630135
    31  O    2.264717   1.429269   2.225167   2.384648   2.992564
    32  H    7.431660   6.145602   6.219234   5.245722   5.962245
    33  H    5.259431   4.534918   4.694498   5.388931   6.008256
    34  H    6.268244   5.989161   6.294201   7.034579   7.372294
    35  H    6.081672   5.867737   6.529768   6.669572   6.703216
    36  H    7.849789   7.263666   7.805115   7.769661   7.940431
    37  H    7.974801   7.339592   7.589754   8.058586   8.484924
    38  H    8.801709   8.565715   9.309835   9.140856   8.995660
    39  H   11.765811  11.689186  12.182306  12.578832  12.574212
    40  H   11.272690  11.060965  11.289946  12.073612  12.337914
    41  H    9.423166   9.019287   9.157744   9.983085  10.399275
                    6          7          8          9         10
     6  F    0.000000
     7  C    2.416575   0.000000
     8  F    2.986407   1.362591   0.000000
     9  C    2.846783   1.524622   2.359493   0.000000
    10  F    2.343748   2.359052   2.945111   1.366259   0.000000
    11  C    4.187423   2.540279   2.724613   1.533699   2.353997
    12  O    4.416568   3.125480   2.737563   2.419430   2.687880
    13  O    5.277741   3.421892   3.679505   2.466779   3.420241
    14  F    3.432707   2.365421   3.525444   1.359555   2.160069
    15  C    3.551412   1.533459   2.393846   2.598896   3.706766
    16  F    3.994393   2.337615   2.614613   3.731719   4.681739
    17  C    4.891350   2.599559   3.178966   3.096513   4.432516
    18  F    5.127764   3.043030   3.880159   2.868739   4.191648
    19  C    6.063084   3.924986   4.439617   4.586355   5.898701
    20  N    6.676320   4.748868   5.521155   5.184612   6.464550
    21  C    7.956831   6.111941   6.828512   6.627397   7.893939
    22  C    9.109614   7.056871   7.620265   7.456750   8.787001
    23  C   10.417176   8.445685   9.004898   8.909531  10.225615
    24  C   10.934841   8.985365   9.415887   9.637160  10.949830
    25  N   12.165425  10.280064  10.715146  10.956326  12.257767
    26  C   12.880188  11.028424  11.573779  11.578183  12.872479
    27  C   12.532883  10.685769  11.338122  11.070802  12.353005
    28  C   11.306544   9.410711  10.080784   9.732567  11.021340
    29  O    6.689972   4.566170   4.787497   5.444082   6.724014
    30  F    5.267054   2.852278   2.855646   3.260094   4.545493
    31  O    3.571323   2.400502   3.568692   3.164343   4.059597
    32  H    5.395893   3.958290   3.499779   3.241169   3.600022
    33  H    6.515987   4.682428   5.609401   4.835735   6.077766
    34  H    8.240715   6.596997   7.467107   7.008539   8.207118
    35  H    7.978663   6.226448   6.850661   6.970675   8.203645
    36  H    9.043909   6.860418   7.236434   7.333934   8.689938
    37  H    9.249802   7.169938   7.791480   7.343754   8.667688
    38  H   10.478097   8.511474   8.819812   9.286711  10.592243
    39  H   13.878017  12.063345  12.599823  12.641510  13.929082
    40  H   13.294050  11.495610  12.209251  11.795314  13.055248
    41  H   11.160051   9.296248  10.051959   9.455088  10.715907
                   11         12         13         14         15
    11  C    0.000000
    12  O    1.351057   0.000000
    13  O    1.221389   2.222046   0.000000
    14  F    2.395836   3.565440   2.807457   0.000000
    15  C    3.393260   4.239459   3.844476   2.806535   0.000000
    16  F    4.427536   5.010368   4.934531   4.131684   1.366897
    17  C    3.277458   4.276318   3.227148   3.124029   1.525543
    18  F    2.976461   4.230676   2.631839   2.433264   2.352655
    19  C    4.789407   5.759851   4.590452   4.434735   2.519673
    20  N    5.506644   6.645259   5.173551   4.663030   3.333976
    21  C    6.939060   8.054480   6.551464   6.073738   4.634583
    22  C    7.476294   8.542619   6.885233   6.968709   5.651180
    23  C    8.974451  10.034080   8.384968   8.383575   6.990533
    24  C    9.723676  10.688173   9.224729   9.242848   7.497883
    25  N   11.071282  12.037801  10.568401  10.530634   8.777456
    26  C   11.702347  12.749140  11.123970  11.017862   9.529193
    27  C   11.180644  12.302027  10.528711  10.392664   9.225463
    28  C    9.813067  10.947884   9.146570   9.054446   7.983273
    29  O    5.556194   6.339427   5.408368   5.494561   3.206479
    30  F    2.878261   3.576935   2.777108   3.717431   2.352338
    31  O    4.299170   5.285562   4.709724   2.821551   1.443490
    32  H    1.870135   0.981871   2.215857   4.241625   4.894293
    33  H    5.178894   6.421628   4.772665   4.100347   3.438644
    34  H    7.447904   8.642428   7.061579   6.269354   5.158020
    35  H    7.374762   8.401655   7.126078   6.546055   4.696882
    36  H    7.206387   8.154395   6.619702   7.038191   5.503565
    37  H    7.253968   8.373291   6.524731   6.759610   5.874074
    38  H    9.362286  10.234869   8.947303   9.034661   7.041486
    39  H   12.781950  13.822024  12.209205  12.076798  10.554786
    40  H   11.912059  13.073028  11.218964  11.034005  10.058081
    41  H    9.519164  10.709586   8.790444   8.673088   7.938821
                   16         17         18         19         20
    16  F    0.000000
    17  C    2.348541   0.000000
    18  F    3.522944   1.365538   0.000000
    19  C    2.752330   1.534734   2.382087   0.000000
    20  N    3.778724   2.460396   2.637298   1.387843   0.000000
    21  C    4.818816   3.833451   4.062792   2.479469   1.451526
    22  C    5.840782   4.542285   4.696606   3.210740   2.477150
    23  C    7.046637   5.982767   6.170239   4.572780   3.802230
    24  C    7.300801   6.603961   7.034272   5.100862   4.592211
    25  N    8.525324   7.936592   8.356113   6.424187   5.868085
    26  C    9.422954   8.644795   8.878802   7.176560   6.408802
    27  C    9.317899   8.271029   8.297850   6.899771   5.949458
    28  C    8.176933   6.968991   6.934896   5.657165   4.670872
    29  O    2.908374   2.436771   3.509639   1.229293   2.291651
    30  F    2.863642   1.362950   2.178897   2.401724   3.541227
    31  O    2.218604   2.465808   2.799262   3.018356   3.267826
    32  H    5.642681   4.659663   4.557840   6.067921   6.958226
    33  H    4.202687   2.571425   2.208134   2.075112   1.016366
    34  H    5.461860   4.499510   4.496876   3.327877   2.057300
    35  H    4.573322   4.129302   4.654066   2.667359   2.076907
    36  H    5.569707   4.308172   4.667741   2.985552   2.748080
    37  H    6.290537   4.635041   4.486477   3.559221   2.712243
    38  H    6.685113   6.211667   6.835860   4.700374   4.477609
    39  H   10.399813   9.705272   9.957226   8.224326   7.466459
    40  H   10.229312   9.100616   9.010076   7.786913   6.747413
    41  H    8.310957   6.885255   6.639239   5.727638   4.612500
                   21         22         23         24         25
    21  C    0.000000
    22  C    1.530949   0.000000
    23  C    2.510773   1.502566   0.000000
    24  C    3.283129   2.519256   1.392236   0.000000
    25  N    4.495001   3.786313   2.423394   1.351580   0.000000
    26  C    4.997132   4.241209   2.739402   2.300106   1.349548
    27  C    4.600264   3.800904   2.410736   2.727872   2.411428
    28  C    3.409093   2.531212   1.396890   2.384182   2.796300
    29  O    2.810410   3.296115   4.463399   4.665054   5.957133
    30  F    4.789635   5.179055   6.624685   7.156502   8.500851
    31  O    4.446303   5.719851   6.945157   7.524881   8.731076
    32  H    8.327499   8.646455  10.135061  10.802824  12.151673
    33  H    2.132646   3.016390   4.337187   5.315055   6.555395
    34  H    1.095703   2.175510   2.766564   3.681106   4.704365
    35  H    1.096423   2.174329   2.774283   3.069881   4.218911
    36  H    2.175469   1.097314   2.133172   2.694762   4.017802
    37  H    2.165215   1.097755   2.139947   3.382035   4.537531
    38  H    3.338477   2.753174   2.166712   1.087767   2.058249
    39  H    6.041523   5.325886   3.824747   3.263978   2.061395
    40  H    5.444253   4.688868   3.402049   3.811517   3.382228
    41  H    3.550389   2.762496   2.165264   3.382673   3.883038
                   26         27         28         29         30
    26  C    0.000000
    27  C    1.384718   0.000000
    28  C    2.383723   1.391739   0.000000
    29  O    6.893924   6.848049   5.727748   0.000000
    30  F    9.288365   8.979520   7.683688   2.832126   0.000000
    31  O    9.361239   8.984833   7.787115   3.859300   3.629413
    32  H   12.851079  12.390952  11.034792   6.596251   3.770419
    33  H    6.937474   6.297108   4.970521   3.176432   3.714577
    34  H    4.952276   4.375454   3.243068   3.825651   5.591331
    35  H    4.932730   4.825828   3.843612   2.609397   5.050838
    36  H    4.708393   4.489766   3.340355   2.773267   4.686019
    37  H    4.750512   4.030901   2.658637   3.909890   5.232634
    38  H    3.260998   3.814369   3.387163   4.037973   6.662144
    39  H    1.086171   2.156115   3.381329   7.897661  10.345671
    40  H    2.149478   1.084118   2.161352   7.826731   9.843482
    41  H    3.370980   2.146875   1.086835   6.014355   7.640513
                   31         32         33         34         35
    31  O    0.000000
    32  H    6.005479   0.000000
    33  H    3.205790   6.738180   0.000000
    34  H    4.678098   8.960909   2.324940   0.000000
    35  H    4.517094   8.729085   2.945230   1.770182   0.000000
    36  H    5.838995   8.193420   3.428257   3.086423   2.533098
    37  H    5.941596   8.411315   2.896418   2.530836   3.078517
    38  H    7.203089  10.360742   5.335984   3.979360   2.882133
    39  H   10.358774  13.924514   7.997653   5.952081   5.913040
    40  H    9.740676  13.153037   6.978323   5.072443   5.752453
    41  H    7.682044  10.783443   4.686935   3.208866   4.233192
                   36         37         38         39         40
    36  H    0.000000
    37  H    1.746206   0.000000
    38  H    2.564465   3.752728   0.000000
    39  H    5.762804   5.824833   4.113881   0.000000
    40  H    5.439947   4.747629   4.897381   2.496541   0.000000
    41  H    3.681476   2.473382   4.309855   4.286649   2.487595
                   41
    41  H    0.000000
 Symmetry turned off by external request.
 Stoichiometry    C15H10F10N2O4
 Framework group  C1[X(C15H10F10N2O4)]
 Deg. of freedom   117
 Full point group                 C1      NOp   1
 Rotational constants (GHZ):      0.3190225      0.0681271      0.0636853
 Leave Link  202 at Mon Feb  3 21:36:16 2025, MaxMem=  5368709120 cpu:         0.1
 (Enter /home/k0335/k033513/app/g09/l301.exe)
 Standard basis: 6-31G(d,p) (6D, 7F)
 Ernie: Thresh=  0.10000D-02 Tol=  0.10000D-05 Strict=F.
   515 basis functions,   938 primitive gaussians,   515 cartesian basis functions
   118 alpha electrons      118 beta electrons
       nuclear repulsion energy      3651.8983850311 Hartrees.
 IExCor=20419 DFT=T Ex+Corr=CAM-B3LYP ExCW=0 ScaHFX=  1.000000
 ScaDFX=  1.000000  1.000000  1.000000  0.810000 ScalE2=  1.000000  1.000000
 IRadAn=      0 IRanWt=     -1 IRanGd=            0 ICorTp=0 IEmpDi=  4
  HFx wShort=  0.000000 wLong=  0.330000 cFull=  0.190000 cShort=  0.000000 cLong=  0.460000
  DFx wShort=  0.000000 wLong=  0.330000 cFull=  0.190000 cShort=  0.000000 cLong=  0.460000
 NAtoms=   41 NActive=   41 NUniq=   41 SFac= 1.00D+00 NAtFMM=   60 NAOKFM=F Big=F
 Integral buffers will be    131072 words long.
 Raffenetti 2 integral format.
 Two-electron integral symmetry is turned off.
 Using the following non-standard input for PCM:
 eps=2.05
 --- end of non-standard input.
 ------------------------------------------------------------------------------
 Polarizable Continuum Model (PCM)
 =================================
 Model                : PCM (using non-symmetric T matrix).
 Atomic radii         : UFF (Universal Force Field).
 Polarization charges : Total charges.
 Charge compensation  : None.
 Solution method      : On-the-fly selection.
 Cavity type          : Scaled VdW (van der Waals Surface) (Alpha=1.100).
 Cavity algorithm     : GePol (No added spheres)
                        Default sphere list used, NSphG=   41.
                        Lebedev-Laikov grids with approx.  5.0 points / Ang**2.
                        Smoothing algorithm: Karplus/York (Gamma=1.0000).
                        Polarization charges: spherical gaussians, with
                                              point-specific exponents (IZeta= 3).
                        Self-potential: point-specific (ISelfS= 7).
                        Self-field    : sphere-specific E.n sum rule (ISelfD= 2).
 Solvent              : Generic,
                        Eps                           =   2.050000
                        Eps(infinity)                 =   0.000000
                        RSolv                         =   0.000000 Ang.
                        Molar volume                  =   0.000000 cm**3/mol
                        Thermal expansion coefficient =   0.000000 K**-1
                        Absolute temperature          = 298.150000 K
                        Numeral density               =   0.000000 Ang**-3
                        Hydrogen bond acidity         =   0.000000
                        Hydrogen bond basicity        =   0.000000
                        Surface tension at interface  =   0.000000 (cal/mol)*Ang**-2
                        Carbon aromaticity            =   0.000000
                        Electronegative halogenicity  =   0.000000
 ------------------------------------------------------------------------------
 GePol: Number of generator spheres                  =      41
 GePol: Total number of spheres                      =      41
 GePol: Number of exposed spheres                    =      41 (100.00%)
 GePol: Number of points                             =    3245
 GePol: Average weight of points                     =       0.13
 GePol: Minimum weight of points                     =   0.45D-11
 GePol: Maximum weight of points                     =    0.20577
 GePol: Number of points with low weight             =     167
 GePol: Fraction of low-weight points (<1% of avg)   =       5.15%
 GePol: Cavity surface area                          =    415.463 Ang**2
 GePol: Cavity volume                                =    468.326 Ang**3
 Leave Link  301 at Mon Feb  3 21:36:16 2025, MaxMem=  5368709120 cpu:         0.7
 (Enter /home/k0335/k033513/app/g09/l302.exe)
 NPDir=0 NMtPBC=     1 NCelOv=     1 NCel=       1 NClECP=     1 NCelD=      1
         NCelK=      1 NCelE2=     1 NClLst=     1 CellRange=     0.0.
 One-electron integrals computed using PRISM.
 NBasis=   515 RedAO= T EigKep=  7.41D-04  NBF=   515
 NBsUse=   515 1.00D-06 EigRej= -1.00D+00 NBFU=   515
 Precomputing XC quadrature grid using
 IXCGrd= 4 IRadAn=           0 IRanWt=          -1 IRanGd=           0 AccXCQ= 0.00D+00.
 Generated NRdTot=       0 NPtTot=           0 NUsed=           0 NTot=          32
 NSgBfM=   496   496   496   496   496 MxSgAt=    41 MxSgA2=    41.
 Leave Link  302 at Mon Feb  3 21:36:16 2025, MaxMem=  5368709120 cpu:         8.6
 (Enter /home/k0335/k033513/app/g09/l303.exe)
 DipDrv:  MaxL=1.
 Leave Link  303 at Mon Feb  3 21:36:17 2025, MaxMem=  5368709120 cpu:         0.7
 (Enter /home/k0335/k033513/app/g09/l401.exe)
 ExpMin= 1.61D-01 ExpMax= 7.00D+03 ExpMxC= 1.05D+03 IAcc=1 IRadAn=         1 AccDes= 0.00D+00
 Harris functional with IExCor=20419 and IRadAn=       1 diagonalized for initial guess.
 HarFok:  IExCor=20419 AccDes= 0.00D+00 IRadAn=         1 IDoV= 1 UseB2=F ITyADJ=14
 ICtDFT=  3500011 ScaDFX=  1.000000  1.000000  1.000000  1.000000
 FoFCou: FMM=F IPFlag=           0 FMFlag=      100000 FMFlg1=           0
         NFxFlg=           0 DoJE=T BraDBF=F KetDBF=T FulRan=T
         wScrn=  0.000000 ICntrl=     500 IOpCl=  0 I1Cent=   200000004 NGrid=           0
         NMat0=    1 NMatS0=      1 NMatT0=    0 NMatD0=    1 NMtDS0=    0 NMtDT0=    0
 Symmetry not used in FoFCou.
 Harris En= -1922.67890007942    
 JPrj=0 DoOrth=F DoCkMO=F.
 Leave Link  401 at Mon Feb  3 21:36:17 2025, MaxMem=  5368709120 cpu:        10.3
 (Enter /home/k0335/k033513/app/g09/l502.exe)
 Closed shell SCF:
 Using DIIS extrapolation, IDIIS=  1040.
 Two-electron integral symmetry not used.
 IVT=      829757 IEndB=      829757 NGot=  5368709120 MDV=  5368161744
 LenX=  5368161744 LenY=  5367896004
 Requested convergence on RMS density matrix=1.00D-08 within 128 cycles.
 Requested convergence on MAX density matrix=1.00D-06.
 Requested convergence on             energy=1.00D-06.
 No special actions if energy rises.
 Fock matrices will be formed incrementally for  20 cycles.

 Cycle   1  Pass 1  IDiag  1:
 FoFJK:  IHMeth= 1 ICntrl=       0 DoSepK=T KAlg= 0 I1Cent=   0 FoldK=F
 IRaf=         1 NMat=   1 IRICut=       1 DoRegI=T DoRafI=F ISym2E= 0.
 FoFCou: FMM=F IPFlag=           0 FMFlag=      100000 FMFlg1=           0
         NFxFlg=           0 DoJE=T BraDBF=F KetDBF=F FulRan=T
         wScrn=  0.000000 ICntrl=     500 IOpCl=  0 I1Cent=           0 NGrid=           0
         NMat0=    1 NMatS0=      1 NMatT0=    0 NMatD0=    1 NMtDS0=    0 NMtDT0=    0
 Symmetry not used in FoFCou.
 Inv3:  Mode=1 IEnd=    31590075.
 Iteration    1 A*A^-1 deviation from unit magnitude is 5.66D-15 for   3238.
 Iteration    1 A*A^-1 deviation from orthogonality  is 4.58D-15 for   3235   1981.
 Iteration    1 A^-1*A deviation from unit magnitude is 5.55D-15 for   3238.
 Iteration    1 A^-1*A deviation from orthogonality  is 2.88D-15 for   3243   1588.
 E= -1985.18376268057    
 DIIS: error= 4.64D-02 at cycle   1 NSaved=   1.
 NSaved= 1 IEnMin= 1 EnMin= -1985.18376268057     IErMin= 1 ErrMin= 4.64D-02
 ErrMax= 4.64D-02  0.00D+00 EMaxC= 1.00D-01 BMatC= 1.58D+00 BMatP= 1.58D+00
 IDIUse=3 WtCom= 5.36D-01 WtEn= 4.64D-01
 Coeff-Com:  0.100D+01
 Coeff-En:   0.100D+01
 Coeff:      0.100D+01
 Gap=     0.536 Goal=   None    Shift=    0.000
 GapD=    0.536 DampG=2.000 DampE=0.500 DampFc=1.0000 IDamp=-1.
 RMSDP=2.88D-03 MaxDP=1.18D-01              OVMax= 1.24D-01

 Cycle   2  Pass 1  IDiag  1:
 RMSU=  2.88D-03    CP:  9.94D-01
 E= -1985.40112061086     Delta-E=       -0.217357930293 Rises=F Damp=F
 DIIS: error= 1.84D-02 at cycle   2 NSaved=   2.
 NSaved= 2 IEnMin= 2 EnMin= -1985.40112061086     IErMin= 2 ErrMin= 1.84D-02
 ErrMax= 1.84D-02  0.00D+00 EMaxC= 1.00D-01 BMatC= 5.65D-01 BMatP= 1.58D+00
 IDIUse=3 WtCom= 8.16D-01 WtEn= 1.84D-01
 Coeff-Com:  0.350D+00 0.650D+00
 Coeff-En:   0.342D+00 0.658D+00
 Coeff:      0.348D+00 0.652D+00
 Gap=     0.312 Goal=   None    Shift=    0.000
 RMSDP=1.38D-03 MaxDP=7.06D-02 DE=-2.17D-01 OVMax= 8.89D-02

 Cycle   3  Pass 1  IDiag  1:
 RMSU=  8.87D-04    CP:  1.00D+00  6.36D-01
 E= -1985.66323444708     Delta-E=       -0.262113836214 Rises=F Damp=F
 DIIS: error= 6.63D-03 at cycle   3 NSaved=   3.
 NSaved= 3 IEnMin= 3 EnMin= -1985.66323444708     IErMin= 3 ErrMin= 6.63D-03
 ErrMax= 6.63D-03  0.00D+00 EMaxC= 1.00D-01 BMatC= 1.13D-01 BMatP= 5.65D-01
 IDIUse=3 WtCom= 9.34D-01 WtEn= 6.63D-02
 Coeff-Com:  0.705D-01 0.325D+00 0.604D+00
 Coeff-En:   0.000D+00 0.148D+00 0.852D+00
 Coeff:      0.658D-01 0.314D+00 0.621D+00
 Gap=     0.337 Goal=   None    Shift=    0.000
 RMSDP=6.32D-04 MaxDP=3.61D-02 DE=-2.62D-01 OVMax= 6.26D-02

 Cycle   4  Pass 1  IDiag  1:
 RMSU=  3.31D-04    CP:  9.95D-01  7.29D-01  4.80D-01
 E= -1985.73232956945     Delta-E=       -0.069095122368 Rises=F Damp=F
 DIIS: error= 2.75D-03 at cycle   4 NSaved=   4.
 NSaved= 4 IEnMin= 4 EnMin= -1985.73232956945     IErMin= 4 ErrMin= 2.75D-03
 ErrMax= 2.75D-03  0.00D+00 EMaxC= 1.00D-01 BMatC= 9.47D-03 BMatP= 1.13D-01
 IDIUse=3 WtCom= 9.73D-01 WtEn= 2.75D-02
 Coeff-Com:  0.535D-02 0.981D-01 0.310D+00 0.587D+00
 Coeff-En:   0.000D+00 0.000D+00 0.125D-01 0.987D+00
 Coeff:      0.520D-02 0.954D-01 0.302D+00 0.598D+00
 Gap=     0.307 Goal=   None    Shift=    0.000
 RMSDP=1.78D-04 MaxDP=1.29D-02 DE=-6.91D-02 OVMax= 2.21D-02

 Cycle   5  Pass 1  IDiag  1:
 RMSU=  8.00D-05    CP:  9.95D-01  7.30D-01  6.09D-01  6.66D-01
 E= -1985.73900088647     Delta-E=       -0.006671317029 Rises=F Damp=F
 DIIS: error= 7.62D-04 at cycle   5 NSaved=   5.
 NSaved= 5 IEnMin= 5 EnMin= -1985.73900088647     IErMin= 5 ErrMin= 7.62D-04
 ErrMax= 7.62D-04  0.00D+00 EMaxC= 1.00D-01 BMatC= 5.71D-04 BMatP= 9.47D-03
 IDIUse=3 WtCom= 9.92D-01 WtEn= 7.62D-03
 Coeff-Com:  0.297D-03 0.407D-01 0.147D+00 0.335D+00 0.477D+00
 Coeff-En:   0.000D+00 0.000D+00 0.000D+00 0.000D+00 0.100D+01
 Coeff:      0.295D-03 0.404D-01 0.146D+00 0.333D+00 0.481D+00
 Gap=     0.306 Goal=   None    Shift=    0.000
 RMSDP=3.83D-05 MaxDP=3.33D-03 DE=-6.67D-03 OVMax= 6.86D-03

 Cycle   6  Pass 1  IDiag  1:
 RMSU=  2.39D-05    CP:  9.96D-01  7.31D-01  6.08D-01  6.80D-01  6.36D-01
 E= -1985.73940461070     Delta-E=       -0.000403724227 Rises=F Damp=F
 DIIS: error= 1.44D-04 at cycle   6 NSaved=   6.
 NSaved= 6 IEnMin= 6 EnMin= -1985.73940461070     IErMin= 6 ErrMin= 1.44D-04
 ErrMax= 1.44D-04  0.00D+00 EMaxC= 1.00D-01 BMatC= 2.11D-05 BMatP= 5.71D-04
 IDIUse=3 WtCom= 9.99D-01 WtEn= 1.44D-03
 Coeff-Com: -0.499D-03 0.244D-02 0.145D-01 0.428D-01 0.176D+00 0.764D+00
 Coeff-En:   0.000D+00 0.000D+00 0.000D+00 0.000D+00 0.000D+00 0.100D+01
 Coeff:     -0.498D-03 0.244D-02 0.145D-01 0.428D-01 0.176D+00 0.765D+00
 Gap=     0.307 Goal=   None    Shift=    0.000
 RMSDP=1.21D-05 MaxDP=8.26D-04 DE=-4.04D-04 OVMax= 1.21D-03

 Cycle   7  Pass 1  IDiag  1:
 RMSU=  8.57D-06    CP:  9.96D-01  7.31D-01  6.10D-01  6.94D-01  7.17D-01
                    CP:  9.21D-01
 E= -1985.73942048256     Delta-E=       -0.000015871860 Rises=F Damp=F
 DIIS: error= 4.61D-05 at cycle   7 NSaved=   7.
 NSaved= 7 IEnMin= 7 EnMin= -1985.73942048256     IErMin= 7 ErrMin= 4.61D-05
 ErrMax= 4.61D-05  0.00D+00 EMaxC= 1.00D-01 BMatC= 4.09D-06 BMatP= 2.11D-05
 IDIUse=1 WtCom= 1.00D+00 WtEn= 0.00D+00
 Coeff-Com: -0.236D-03-0.403D-02-0.113D-01-0.213D-01 0.340D-01 0.377D+00
 Coeff-Com:  0.625D+00
 Coeff:     -0.236D-03-0.403D-02-0.113D-01-0.213D-01 0.340D-01 0.377D+00
 Coeff:      0.625D+00
 Gap=     0.307 Goal=   None    Shift=    0.000
 RMSDP=4.01D-06 MaxDP=2.52D-04 DE=-1.59D-05 OVMax= 4.90D-04

 Cycle   8  Pass 1  IDiag  1:
 RMSU=  2.63D-06    CP:  9.96D-01  7.32D-01  6.11D-01  6.93D-01  7.34D-01
                    CP:  1.01D+00  8.20D-01
 E= -1985.73942379738     Delta-E=       -0.000003314823 Rises=F Damp=F
 DIIS: error= 1.55D-05 at cycle   8 NSaved=   8.
 NSaved= 8 IEnMin= 8 EnMin= -1985.73942379738     IErMin= 8 ErrMin= 1.55D-05
 ErrMax= 1.55D-05  0.00D+00 EMaxC= 1.00D-01 BMatC= 2.25D-07 BMatP= 4.09D-06
 IDIUse=1 WtCom= 1.00D+00 WtEn= 0.00D+00
 Coeff-Com: -0.365D-04-0.168D-02-0.526D-02-0.119D-01-0.854D-03 0.608D-01
 Coeff-Com:  0.220D+00 0.739D+00
 Coeff:     -0.365D-04-0.168D-02-0.526D-02-0.119D-01-0.854D-03 0.608D-01
 Coeff:      0.220D+00 0.739D+00
 Gap=     0.307 Goal=   None    Shift=    0.000
 RMSDP=1.33D-06 MaxDP=7.28D-05 DE=-3.31D-06 OVMax= 1.49D-04

 Cycle   9  Pass 1  IDiag  1:
 RMSU=  8.61D-07    CP:  9.96D-01  7.32D-01  6.11D-01  6.94D-01  7.41D-01
                    CP:  1.03D+00  8.90D-01  1.05D+00
 E= -1985.73942402868     Delta-E=       -0.000000231300 Rises=F Damp=F
 DIIS: error= 4.06D-06 at cycle   9 NSaved=   9.
 NSaved= 9 IEnMin= 9 EnMin= -1985.73942402868     IErMin= 9 ErrMin= 4.06D-06
 ErrMax= 4.06D-06  0.00D+00 EMaxC= 1.00D-01 BMatC= 2.85D-08 BMatP= 2.25D-07
 IDIUse=1 WtCom= 1.00D+00 WtEn= 0.00D+00
 Coeff-Com:  0.150D-04-0.882D-04-0.415D-03-0.175D-02-0.361D-02-0.311D-01
 Coeff-Com: -0.298D-02 0.242D+00 0.797D+00
 Coeff:      0.150D-04-0.882D-04-0.415D-03-0.175D-02-0.361D-02-0.311D-01
 Coeff:     -0.298D-02 0.242D+00 0.797D+00
 Gap=     0.307 Goal=   None    Shift=    0.000
 RMSDP=6.09D-07 MaxDP=4.81D-05 DE=-2.31D-07 OVMax= 7.18D-05

 Cycle  10  Pass 1  IDiag  1:
 RMSU=  3.28D-07    CP:  9.96D-01  7.32D-01  6.11D-01  6.94D-01  7.44D-01
                    CP:  1.03D+00  9.22D-01  1.16D+00  1.02D+00
 E= -1985.73942406443     Delta-E=       -0.000000035746 Rises=F Damp=F
 DIIS: error= 2.52D-06 at cycle  10 NSaved=  10.
 NSaved=10 IEnMin=10 EnMin= -1985.73942406443     IErMin=10 ErrMin= 2.52D-06
 ErrMax= 2.52D-06  0.00D+00 EMaxC= 1.00D-01 BMatC= 4.47D-09 BMatP= 2.85D-08
 IDIUse=1 WtCom= 1.00D+00 WtEn= 0.00D+00
 Coeff-Com:  0.110D-04 0.185D-03 0.529D-03 0.808D-03-0.918D-03-0.216D-01
 Coeff-Com: -0.299D-01-0.250D-02 0.324D+00 0.729D+00
 Coeff:      0.110D-04 0.185D-03 0.529D-03 0.808D-03-0.918D-03-0.216D-01
 Coeff:     -0.299D-01-0.250D-02 0.324D+00 0.729D+00
 Gap=     0.307 Goal=   None    Shift=    0.000
 RMSDP=2.14D-07 MaxDP=1.42D-05 DE=-3.57D-08 OVMax= 2.63D-05

 Cycle  11  Pass 1  IDiag  1:
 RMSU=  1.15D-07    CP:  9.96D-01  7.32D-01  6.11D-01  6.94D-01  7.45D-01
                    CP:  1.03D+00  9.32D-01  1.20D+00  1.14D+00  9.12D-01
 E= -1985.73942406908     Delta-E=       -0.000000004646 Rises=F Damp=F
 DIIS: error= 1.01D-06 at cycle  11 NSaved=  11.
 NSaved=11 IEnMin=11 EnMin= -1985.73942406908     IErMin=11 ErrMin= 1.01D-06
 ErrMax= 1.01D-06  0.00D+00 EMaxC= 1.00D-01 BMatC= 1.01D-09 BMatP= 4.47D-09
 IDIUse=1 WtCom= 1.00D+00 WtEn= 0.00D+00
 Coeff-Com:  0.445D-05 0.115D-03 0.347D-03 0.650D-03 0.909D-04-0.808D-02
 Coeff-Com: -0.155D-01-0.299D-01 0.824D-01 0.400D+00 0.570D+00
 Coeff:      0.445D-05 0.115D-03 0.347D-03 0.650D-03 0.909D-04-0.808D-02
 Coeff:     -0.155D-01-0.299D-01 0.824D-01 0.400D+00 0.570D+00
 Gap=     0.307 Goal=   None    Shift=    0.000
 RMSDP=7.18D-08 MaxDP=6.35D-06 DE=-4.65D-09 OVMax= 9.73D-06

 Cycle  12  Pass 1  IDiag  1:
 RMSU=  4.61D-08    CP:  9.96D-01  7.32D-01  6.11D-01  6.93D-01  7.45D-01
                    CP:  1.03D+00  9.33D-01  1.21D+00  1.16D+00  1.01D+00
                    CP:  8.13D-01
 E= -1985.73942406986     Delta-E=       -0.000000000784 Rises=F Damp=F
 DIIS: error= 2.88D-07 at cycle  12 NSaved=  12.
 NSaved=12 IEnMin=12 EnMin= -1985.73942406986     IErMin=12 ErrMin= 2.88D-07
 ErrMax= 2.88D-07  0.00D+00 EMaxC= 1.00D-01 BMatC= 7.40D-11 BMatP= 1.01D-09
 IDIUse=1 WtCom= 1.00D+00 WtEn= 0.00D+00
 Coeff-Com:  0.100D-06 0.176D-04 0.584D-04 0.132D-03 0.275D-03 0.166D-03
 Coeff-Com: -0.130D-02-0.110D-01-0.164D-01 0.490D-01 0.221D+00 0.758D+00
 Coeff:      0.100D-06 0.176D-04 0.584D-04 0.132D-03 0.275D-03 0.166D-03
 Coeff:     -0.130D-02-0.110D-01-0.164D-01 0.490D-01 0.221D+00 0.758D+00
 Gap=     0.307 Goal=   None    Shift=    0.000
 RMSDP=2.55D-08 MaxDP=1.44D-06 DE=-7.84D-10 OVMax= 3.48D-06

 Cycle  13  Pass 1  IDiag  1:
 RMSU=  1.72D-08    CP:  9.96D-01  7.32D-01  6.11D-01  6.93D-01  7.45D-01
                    CP:  1.03D+00  9.34D-01  1.21D+00  1.17D+00  1.04D+00
                    CP:  9.06D-01  8.99D-01
 E= -1985.73942406989     Delta-E=       -0.000000000032 Rises=F Damp=F
 DIIS: error= 1.12D-07 at cycle  13 NSaved=  13.
 NSaved=13 IEnMin=13 EnMin= -1985.73942406989     IErMin=13 ErrMin= 1.12D-07
 ErrMax= 1.12D-07  0.00D+00 EMaxC= 1.00D-01 BMatC= 1.55D-11 BMatP= 7.40D-11
 IDIUse=1 WtCom= 1.00D+00 WtEn= 0.00D+00
 Coeff-Com: -0.527D-06-0.478D-05-0.114D-04-0.116D-04 0.133D-03 0.101D-02
 Coeff-Com:  0.118D-02-0.210D-02-0.190D-01-0.275D-01 0.312D-01 0.378D+00
 Coeff-Com:  0.637D+00
 Coeff:     -0.527D-06-0.478D-05-0.114D-04-0.116D-04 0.133D-03 0.101D-02
 Coeff:      0.118D-02-0.210D-02-0.190D-01-0.275D-01 0.312D-01 0.378D+00
 Coeff:      0.637D+00
 Gap=     0.307 Goal=   None    Shift=    0.000
 RMSDP=9.93D-09 MaxDP=7.86D-07 DE=-3.18D-11 OVMax= 1.02D-06

 Error on total polarization charges =  0.00313
 SCF Done:  E(RCAM-B3LYP) =  -1985.73942407     A.U. after   13 cycles
            NFock= 13  Conv=0.99D-08     -V/T= 2.0076
 KE= 1.970772021762D+03 PE=-1.198323913901D+04 EE= 4.374829308152D+03
 Leave Link  502 at Mon Feb  3 21:36:54 2025, MaxMem=  5368709120 cpu:       831.4
 (Enter /home/k0335/k033513/app/g09/l601.exe)
 Copying SCF densities to generalized density rwf, IOpCl= 0 IROHF=0.

 **********************************************************************

            Population analysis using the SCF density.

 **********************************************************************

 Alpha  occ. eigenvalues --  -24.82975 -24.82885 -24.82846 -24.82743 -24.82667
 Alpha  occ. eigenvalues --  -24.82559 -24.82433 -24.82293 -24.82275 -24.81706
 Alpha  occ. eigenvalues --  -19.31949 -19.30076 -19.25300 -19.22202 -14.45809
 Alpha  occ. eigenvalues --  -14.40626 -10.52762 -10.49619 -10.48701 -10.48126
 Alpha  occ. eigenvalues --  -10.47197 -10.44408 -10.42953 -10.40244 -10.31166
 Alpha  occ. eigenvalues --  -10.29606 -10.29579 -10.28315 -10.28044 -10.27298
 Alpha  occ. eigenvalues --  -10.27293  -1.40439  -1.38495  -1.37997  -1.37813
 Alpha  occ. eigenvalues --   -1.35538  -1.33998  -1.32367  -1.32008  -1.31446
 Alpha  occ. eigenvalues --   -1.30944  -1.22056  -1.19949  -1.14193  -1.12233
 Alpha  occ. eigenvalues --   -1.02297  -1.01867  -0.97391  -0.91613  -0.90459
 Alpha  occ. eigenvalues --   -0.87886  -0.86549  -0.83900  -0.81455  -0.77710
 Alpha  occ. eigenvalues --   -0.76780  -0.74401  -0.73663  -0.71303  -0.70822
 Alpha  occ. eigenvalues --   -0.70803  -0.69679  -0.68530  -0.67872  -0.67346
 Alpha  occ. eigenvalues --   -0.66980  -0.66322  -0.65837  -0.65320  -0.64507
 Alpha  occ. eigenvalues --   -0.63912  -0.63619  -0.62599  -0.59404  -0.58384
 Alpha  occ. eigenvalues --   -0.57946  -0.56917  -0.56518  -0.56409  -0.56167
 Alpha  occ. eigenvalues --   -0.55532  -0.55177  -0.54741  -0.54303  -0.54061
 Alpha  occ. eigenvalues --   -0.53313  -0.53108  -0.52772  -0.52744  -0.52378
 Alpha  occ. eigenvalues --   -0.52031  -0.51501  -0.51392  -0.50681  -0.50428
 Alpha  occ. eigenvalues --   -0.50215  -0.49620  -0.49543  -0.49374  -0.48967
 Alpha  occ. eigenvalues --   -0.48259  -0.47407  -0.47076  -0.46721  -0.46216
 Alpha  occ. eigenvalues --   -0.45112  -0.44913  -0.43760  -0.43002  -0.42457
 Alpha  occ. eigenvalues --   -0.41345  -0.40856  -0.37606  -0.35022  -0.34412
 Alpha  occ. eigenvalues --   -0.33475  -0.31974  -0.30970
 Alpha virt. eigenvalues --   -0.00299   0.01848   0.02219   0.03835   0.05090
 Alpha virt. eigenvalues --    0.08396   0.10174   0.11539   0.12576   0.13370
 Alpha virt. eigenvalues --    0.14544   0.15209   0.16712   0.17477   0.18133
 Alpha virt. eigenvalues --    0.19291   0.20434   0.20925   0.21376   0.21532
 Alpha virt. eigenvalues --    0.22130   0.22769   0.23759   0.24628   0.24712
 Alpha virt. eigenvalues --    0.25889   0.27414   0.27878   0.28687   0.28934
 Alpha virt. eigenvalues --    0.29309   0.29953   0.30773   0.31274   0.32009
 Alpha virt. eigenvalues --    0.32746   0.34324   0.35383   0.37294   0.37812
 Alpha virt. eigenvalues --    0.38334   0.39782   0.41682   0.42040   0.44140
 Alpha virt. eigenvalues --    0.46839   0.47829   0.50622   0.50910   0.51613
 Alpha virt. eigenvalues --    0.52082   0.54233   0.55639   0.56072   0.56873
 Alpha virt. eigenvalues --    0.57293   0.58121   0.59048   0.59469   0.59871
 Alpha virt. eigenvalues --    0.60525   0.61178   0.63186   0.63406   0.63910
 Alpha virt. eigenvalues --    0.64688   0.65275   0.65969   0.66027   0.66740
 Alpha virt. eigenvalues --    0.66785   0.68200   0.68796   0.69010   0.70425
 Alpha virt. eigenvalues --    0.70905   0.71699   0.71728   0.73182   0.74260
 Alpha virt. eigenvalues --    0.75015   0.75356   0.77057   0.77620   0.78736
 Alpha virt. eigenvalues --    0.80265   0.81212   0.82511   0.83492   0.85604
 Alpha virt. eigenvalues --    0.86750   0.87254   0.87780   0.88111   0.89239
 Alpha virt. eigenvalues --    0.89443   0.89938   0.90963   0.91895   0.92256
 Alpha virt. eigenvalues --    0.92692   0.93414   0.94870   0.95420   0.96457
 Alpha virt. eigenvalues --    0.96507   0.97917   0.98163   0.99482   1.01051
 Alpha virt. eigenvalues --    1.01822   1.03569   1.04689   1.05308   1.06075
 Alpha virt. eigenvalues --    1.06483   1.07784   1.08631   1.10523   1.10925
 Alpha virt. eigenvalues --    1.11562   1.12135   1.13741   1.13855   1.14643
 Alpha virt. eigenvalues --    1.15267   1.16870   1.17244   1.17558   1.19635
 Alpha virt. eigenvalues --    1.21137   1.22069   1.23372   1.24586   1.25745
 Alpha virt. eigenvalues --    1.26438   1.26692   1.27787   1.29993   1.30966
 Alpha virt. eigenvalues --    1.31446   1.31940   1.32071   1.33459   1.35007
 Alpha virt. eigenvalues --    1.35677   1.36132   1.36479   1.37198   1.37671
 Alpha virt. eigenvalues --    1.38279   1.39157   1.40015   1.40294   1.41395
 Alpha virt. eigenvalues --    1.41490   1.41905   1.42639   1.43380   1.44455
 Alpha virt. eigenvalues --    1.45174   1.46818   1.47247   1.47548   1.47924
 Alpha virt. eigenvalues --    1.48827   1.50260   1.50576   1.50859   1.51218
 Alpha virt. eigenvalues --    1.51690   1.53659   1.54382   1.54848   1.55124
 Alpha virt. eigenvalues --    1.55606   1.56647   1.57582   1.58511   1.60468
 Alpha virt. eigenvalues --    1.60848   1.61690   1.62428   1.63420   1.64692
 Alpha virt. eigenvalues --    1.66927   1.68638   1.69502   1.71114   1.72587
 Alpha virt. eigenvalues --    1.73886   1.74357   1.75456   1.75678   1.77163
 Alpha virt. eigenvalues --    1.78124   1.78449   1.79177   1.79640   1.80886
 Alpha virt. eigenvalues --    1.81527   1.81810   1.83181   1.83538   1.85179
 Alpha virt. eigenvalues --    1.86037   1.86149   1.86635   1.86957   1.87301
 Alpha virt. eigenvalues --    1.87818   1.87854   1.88460   1.89161   1.89643
 Alpha virt. eigenvalues --    1.90643   1.90863   1.91606   1.93563   1.93775
 Alpha virt. eigenvalues --    1.94623   1.95471   1.96312   1.96933   1.97526
 Alpha virt. eigenvalues --    1.97863   2.00039   2.00680   2.01568   2.02474
 Alpha virt. eigenvalues --    2.02718   2.04082   2.04418   2.04936   2.05334
 Alpha virt. eigenvalues --    2.05704   2.06241   2.07261   2.07756   2.08224
 Alpha virt. eigenvalues --    2.08650   2.09139   2.10003   2.10845   2.11182
 Alpha virt. eigenvalues --    2.11317   2.12065   2.13610   2.15020   2.15528
 Alpha virt. eigenvalues --    2.16232   2.16766   2.18230   2.18521   2.19899
 Alpha virt. eigenvalues --    2.20568   2.20820   2.21588   2.22170   2.23173
 Alpha virt. eigenvalues --    2.23975   2.24934   2.25839   2.27588   2.29008
 Alpha virt. eigenvalues --    2.29890   2.30863   2.32088   2.32577   2.33936
 Alpha virt. eigenvalues --    2.34740   2.36721   2.37073   2.37497   2.38532
 Alpha virt. eigenvalues --    2.38924   2.40270   2.40679   2.40925   2.41275
 Alpha virt. eigenvalues --    2.42552   2.43176   2.44277   2.45871   2.46143
 Alpha virt. eigenvalues --    2.46378   2.48692   2.49148   2.49754   2.50062
 Alpha virt. eigenvalues --    2.52877   2.53674   2.55121   2.55829   2.56602
 Alpha virt. eigenvalues --    2.58155   2.59069   2.59907   2.60691   2.61489
 Alpha virt. eigenvalues --    2.62380   2.63111   2.64178   2.65182   2.66232
 Alpha virt. eigenvalues --    2.66559   2.68982   2.70587   2.71728   2.72065
 Alpha virt. eigenvalues --    2.73484   2.75226   2.76068   2.76756   2.77115
 Alpha virt. eigenvalues --    2.78233   2.79103   2.80013   2.80703   2.82386
 Alpha virt. eigenvalues --    2.83490   2.84293   2.86406   2.87326   2.88190
 Alpha virt. eigenvalues --    2.90992   2.91440   2.91942   2.93364   2.94349
 Alpha virt. eigenvalues --    2.94841   2.95197   2.96955   2.97649   3.00471
 Alpha virt. eigenvalues --    3.01464   3.02782   3.06195   3.08102   3.08698
 Alpha virt. eigenvalues --    3.09712   3.10851   3.12205   3.14385   3.16993
 Alpha virt. eigenvalues --    3.17254   3.18746   3.20262   3.22761   3.24937
 Alpha virt. eigenvalues --    3.26652   3.29885   3.30159   3.30332   3.32636
 Alpha virt. eigenvalues --    3.34346   3.34863   3.36151   3.40499   3.45764
 Alpha virt. eigenvalues --    3.47405   3.47861   3.53955   3.55894   3.62148
 Alpha virt. eigenvalues --    3.87150   4.00303   4.15038   4.17031   4.22858
 Alpha virt. eigenvalues --    4.24121   4.24844   4.26644   4.31863   4.36652
 Alpha virt. eigenvalues --    4.39109   4.42639   4.45514   4.50155   4.54500
 Alpha virt. eigenvalues --    4.57752   4.65823   4.71595   4.73819   4.81482
 Alpha virt. eigenvalues --    4.82900   4.90199   5.05057   5.08923   5.17964
 Alpha virt. eigenvalues --    5.36610   5.46734   5.66247   5.88144   6.19341
 Alpha virt. eigenvalues --    6.95859   7.24260
          Condensed to atoms (all electrons):
               1          2          3          4          5          6
     1  F    9.037937   0.307670  -0.041542  -0.021476  -0.000343  -0.000131
     2  C    0.307670   4.432099   0.269111   0.189704  -0.021044  -0.022193
     3  F   -0.041542   0.269111   9.091765  -0.029237   0.000341   0.000025
     4  C   -0.021476   0.189704  -0.029237   4.736222   0.244247   0.285611
     5  F   -0.000343  -0.021044   0.000341   0.244247   9.115856  -0.041783
     6  F   -0.000131  -0.022193   0.000025   0.285611  -0.041783   9.064289
     7  C    0.002453  -0.100306  -0.002449   0.171569  -0.031153  -0.032530
     8  F   -0.000001   0.002071  -0.000001  -0.008460  -0.001154  -0.000293
     9  C    0.000060  -0.000139   0.014680  -0.028854   0.001870   0.002441
    10  F    0.000000  -0.001612  -0.000326   0.005537   0.000002  -0.006074
    11  C    0.000000  -0.000243   0.000105   0.002775  -0.000026  -0.000005
    12  O    0.000000   0.000003   0.000000  -0.000241   0.000000   0.000002
    13  O    0.000000   0.000001   0.000000  -0.000067   0.000000   0.000000
    14  F   -0.000001   0.010504  -0.008944  -0.003312  -0.000001  -0.000118
    15  C    0.000177  -0.015007  -0.000837  -0.031251   0.006361   0.001584
    16  F   -0.000037   0.003316  -0.000005  -0.002716  -0.002233   0.000000
    17  C   -0.000040  -0.000853  -0.000092   0.003061   0.000101  -0.000024
    18  F    0.000000  -0.000096   0.000000   0.000046   0.000000   0.000000
    19  C   -0.000002  -0.000106   0.000004  -0.000264   0.000002   0.000000
    20  N    0.000000   0.000146   0.000000  -0.000012   0.000000   0.000000
    21  C    0.000000   0.000000   0.000000   0.000000   0.000000   0.000000
    22  C    0.000000   0.000000   0.000000   0.000000   0.000000   0.000000
    23  C    0.000000   0.000000   0.000000   0.000000   0.000000   0.000000
    24  C    0.000000   0.000000   0.000000   0.000000   0.000000   0.000000
    25  N    0.000000   0.000000   0.000000   0.000000   0.000000   0.000000
    26  C    0.000000   0.000000   0.000000   0.000000   0.000000   0.000000
    27  C    0.000000   0.000000   0.000000   0.000000   0.000000   0.000000
    28  C    0.000000   0.000000   0.000000   0.000000   0.000000   0.000000
    29  O    0.000000  -0.000007   0.000000   0.000002   0.000000   0.000000
    30  F    0.000000   0.000001   0.000000   0.000188   0.000000   0.000000
    31  O   -0.041292   0.179514  -0.048578  -0.034281  -0.000910   0.000763
    32  H    0.000000   0.000000   0.000000   0.000014   0.000000   0.000000
    33  H    0.000000   0.000008   0.000000   0.000002   0.000000   0.000000
    34  H    0.000000   0.000000   0.000000   0.000000   0.000000   0.000000
    35  H    0.000000  -0.000001   0.000000   0.000000   0.000000   0.000000
    36  H    0.000000   0.000000   0.000000   0.000000   0.000000   0.000000
    37  H    0.000000   0.000000   0.000000   0.000000   0.000000   0.000000
    38  H    0.000000   0.000000   0.000000   0.000000   0.000000   0.000000
    39  H    0.000000   0.000000   0.000000   0.000000   0.000000   0.000000
    40  H    0.000000   0.000000   0.000000   0.000000   0.000000   0.000000
    41  H    0.000000   0.000000   0.000000   0.000000   0.000000   0.000000
               7          8          9         10         11         12
     1  F    0.002453  -0.000001   0.000060   0.000000   0.000000   0.000000
     2  C   -0.100306   0.002071  -0.000139  -0.001612  -0.000243   0.000003
     3  F   -0.002449  -0.000001   0.014680  -0.000326   0.000105   0.000000
     4  C    0.171569  -0.008460  -0.028854   0.005537   0.002775  -0.000241
     5  F   -0.031153  -0.001154   0.001870   0.000002  -0.000026   0.000000
     6  F   -0.032530  -0.000293   0.002441  -0.006074  -0.000005   0.000002
     7  C    5.524184   0.222280   0.138932  -0.024477  -0.064770   0.005436
     8  F    0.222280   9.118499  -0.031154  -0.000166   0.007254  -0.001217
     9  C    0.138932  -0.031154   4.752275   0.244943   0.223747  -0.074640
    10  F   -0.024477  -0.000166   0.244943   9.115458  -0.028304   0.001458
    11  C   -0.064770   0.007254   0.223747  -0.028304   4.559514   0.257755
    12  O    0.005436  -0.001217  -0.074640   0.001458   0.257755   8.096073
    13  O    0.000822  -0.000102  -0.052821   0.000726   0.534674  -0.093951
    14  F   -0.037259   0.000350   0.250410  -0.040652  -0.027405   0.000597
    15  C    0.109401  -0.020394  -0.043091   0.002439  -0.008268   0.000423
    16  F   -0.019647  -0.000433   0.001938  -0.000001   0.000014   0.000000
    17  C   -0.023999  -0.003468  -0.002272  -0.000027   0.003100  -0.000339
    18  F   -0.007556   0.000009   0.013421   0.000002  -0.000845   0.000007
    19  C    0.003775  -0.000052   0.000043   0.000000   0.000022  -0.000002
    20  N   -0.000065   0.000000   0.000005   0.000000  -0.000005   0.000000
    21  C    0.000004   0.000000   0.000000   0.000000   0.000000   0.000000
    22  C    0.000000   0.000000   0.000000   0.000000   0.000000   0.000000
    23  C    0.000000   0.000000   0.000000   0.000000   0.000000   0.000000
    24  C    0.000000   0.000000   0.000000   0.000000   0.000000   0.000000
    25  N    0.000000   0.000000   0.000000   0.000000   0.000000   0.000000
    26  C    0.000000   0.000000   0.000000   0.000000   0.000000   0.000000
    27  C    0.000000   0.000000   0.000000   0.000000   0.000000   0.000000
    28  C    0.000000   0.000000   0.000000   0.000000   0.000000   0.000000
    29  O   -0.000111   0.000000   0.000000   0.000000   0.000000   0.000000
    30  F    0.006975   0.000160  -0.005889   0.000000   0.012819  -0.000254
    31  O   -0.025789   0.000731  -0.000424  -0.000008   0.000266   0.000000
    32  H   -0.000368   0.000201   0.007596  -0.000142  -0.012533   0.282636
    33  H   -0.000016   0.000000  -0.000008   0.000000   0.000000   0.000000
    34  H    0.000000   0.000000   0.000000   0.000000   0.000000   0.000000
    35  H    0.000000   0.000000   0.000000   0.000000   0.000000   0.000000
    36  H    0.000000   0.000000   0.000000   0.000000   0.000000   0.000000
    37  H    0.000000   0.000000   0.000000   0.000000   0.000000   0.000000
    38  H    0.000000   0.000000   0.000000   0.000000   0.000000   0.000000
    39  H    0.000000   0.000000   0.000000   0.000000   0.000000   0.000000
    40  H    0.000000   0.000000   0.000000   0.000000   0.000000   0.000000
    41  H    0.000000   0.000000   0.000000   0.000000   0.000000   0.000000
              13         14         15         16         17         18
     1  F    0.000000  -0.000001   0.000177  -0.000037  -0.000040   0.000000
     2  C    0.000001   0.010504  -0.015007   0.003316  -0.000853  -0.000096
     3  F    0.000000  -0.008944  -0.000837  -0.000005  -0.000092   0.000000
     4  C   -0.000067  -0.003312  -0.031251  -0.002716   0.003061   0.000046
     5  F    0.000000  -0.000001   0.006361  -0.002233   0.000101   0.000000
     6  F    0.000000  -0.000118   0.001584   0.000000  -0.000024   0.000000
     7  C    0.000822  -0.037259   0.109401  -0.019647  -0.023999  -0.007556
     8  F   -0.000102   0.000350  -0.020394  -0.000433  -0.003468   0.000009
     9  C   -0.052821   0.250410  -0.043091   0.001938  -0.002272   0.013421
    10  F    0.000726  -0.040652   0.002439  -0.000001  -0.000027   0.000002
    11  C    0.534674  -0.027405  -0.008268   0.000014   0.003100  -0.000845
    12  O   -0.093951   0.000597   0.000423   0.000000  -0.000339   0.000007
    13  O    8.049225  -0.001000  -0.000193   0.000000   0.006270  -0.002678
    14  F   -0.001000   9.113500   0.010162   0.000001  -0.001176  -0.003079
    15  C   -0.000193   0.010162   4.995343   0.230258   0.217896  -0.030720
    16  F    0.000000   0.000001   0.230258   9.144277  -0.037946   0.000338
    17  C    0.006270  -0.001176   0.217896  -0.037946   4.702279   0.235176
    18  F   -0.002678  -0.003079  -0.030720   0.000338   0.235176   9.125057
    19  C    0.000042   0.000036  -0.064836   0.008814   0.277649  -0.035279
    20  N    0.000002  -0.000001  -0.000188  -0.000023  -0.091489   0.000382
    21  C    0.000000   0.000000  -0.000136   0.000012   0.004410   0.000186
    22  C    0.000000   0.000000   0.000000   0.000000  -0.000374   0.000001
    23  C    0.000000   0.000000   0.000000   0.000000   0.000000   0.000000
    24  C    0.000000   0.000000   0.000000   0.000000   0.000000   0.000000
    25  N    0.000000   0.000000   0.000000   0.000000   0.000000   0.000000
    26  C    0.000000   0.000000   0.000000   0.000000   0.000000   0.000000
    27  C    0.000000   0.000000   0.000000   0.000000   0.000000   0.000000
    28  C    0.000000   0.000000   0.000000   0.000000   0.000000   0.000000
    29  O    0.000000   0.000000   0.001617  -0.001517  -0.053114   0.000678
    30  F   -0.004270   0.000017  -0.024479  -0.000025   0.243693  -0.037406
    31  O    0.000000  -0.001989   0.160014  -0.054769  -0.039026   0.001750
    32  H    0.008352  -0.000035  -0.000019   0.000000   0.000004   0.000003
    33  H    0.000004   0.000013   0.000423  -0.000003  -0.000943   0.013501
    34  H    0.000000   0.000000   0.000001   0.000000  -0.000113  -0.000008
    35  H    0.000000   0.000000  -0.000003  -0.000003   0.000233  -0.000009
    36  H    0.000000   0.000000   0.000000   0.000000   0.000044  -0.000002
    37  H    0.000000   0.000000   0.000001   0.000000   0.000019  -0.000006
    38  H    0.000000   0.000000   0.000000   0.000000   0.000000   0.000000
    39  H    0.000000   0.000000   0.000000   0.000000   0.000000   0.000000
    40  H    0.000000   0.000000   0.000000   0.000000   0.000000   0.000000
    41  H    0.000000   0.000000   0.000000   0.000000   0.000000   0.000000
              19         20         21         22         23         24
     1  F   -0.000002   0.000000   0.000000   0.000000   0.000000   0.000000
     2  C   -0.000106   0.000146   0.000000   0.000000   0.000000   0.000000
     3  F    0.000004   0.000000   0.000000   0.000000   0.000000   0.000000
     4  C   -0.000264  -0.000012   0.000000   0.000000   0.000000   0.000000
     5  F    0.000002   0.000000   0.000000   0.000000   0.000000   0.000000
     6  F    0.000000   0.000000   0.000000   0.000000   0.000000   0.000000
     7  C    0.003775  -0.000065   0.000004   0.000000   0.000000   0.000000
     8  F   -0.000052   0.000000   0.000000   0.000000   0.000000   0.000000
     9  C    0.000043   0.000005   0.000000   0.000000   0.000000   0.000000
    10  F    0.000000   0.000000   0.000000   0.000000   0.000000   0.000000
    11  C    0.000022  -0.000005   0.000000   0.000000   0.000000   0.000000
    12  O   -0.000002   0.000000   0.000000   0.000000   0.000000   0.000000
    13  O    0.000042   0.000002   0.000000   0.000000   0.000000   0.000000
    14  F    0.000036  -0.000001   0.000000   0.000000   0.000000   0.000000
    15  C   -0.064836  -0.000188  -0.000136   0.000000   0.000000   0.000000
    16  F    0.008814  -0.000023   0.000012   0.000000   0.000000   0.000000
    17  C    0.277649  -0.091489   0.004410  -0.000374   0.000000   0.000000
    18  F   -0.035279   0.000382   0.000186   0.000001   0.000000   0.000000
    19  C    4.555095   0.233332  -0.029223  -0.003831   0.000082  -0.000003
    20  N    0.233332   7.051689   0.235190  -0.055115   0.003715   0.000083
    21  C   -0.029223   0.235190   4.827450   0.359805  -0.043550  -0.004213
    22  C   -0.003831  -0.055115   0.359805   5.051366   0.336666  -0.048297
    23  C    0.000082   0.003715  -0.043550   0.336666   4.813034   0.497720
    24  C   -0.000003   0.000083  -0.004213  -0.048297   0.497720   4.797905
    25  N    0.000000   0.000000   0.000027   0.005268  -0.020687   0.451747
    26  C    0.000000   0.000000   0.000017   0.000178  -0.032033  -0.076188
    27  C    0.000000   0.000001  -0.000098   0.007028  -0.025827  -0.041150
    28  C   -0.000006   0.000017  -0.002555  -0.058653   0.545839  -0.034712
    29  O    0.568214  -0.105795   0.005952  -0.003359  -0.000076  -0.000004
    30  F   -0.022363   0.001396  -0.000014   0.000002   0.000000   0.000000
    31  O   -0.002551   0.001779   0.000007   0.000000   0.000000   0.000000
    32  H    0.000000   0.000000   0.000000   0.000000   0.000000   0.000000
    33  H   -0.026425   0.341765  -0.025133   0.000665  -0.000064   0.000002
    34  H    0.005103  -0.034305   0.387579  -0.044986   0.000972   0.000042
    35  H   -0.004282  -0.036211   0.392515  -0.043223  -0.000002   0.003317
    36  H    0.004406  -0.006812  -0.030006   0.380390  -0.026904  -0.004686
    37  H    0.000098   0.000091  -0.037663   0.374046  -0.027985   0.003515
    38  H    0.000008  -0.000039   0.000140  -0.003224  -0.062428   0.394942
    39  H    0.000000   0.000000   0.000000   0.000012   0.000658   0.004436
    40  H    0.000000   0.000000   0.000000  -0.000106   0.004577   0.000321
    41  H    0.000000  -0.000031   0.000188  -0.008724  -0.045261   0.005162
              25         26         27         28         29         30
     1  F    0.000000   0.000000   0.000000   0.000000   0.000000   0.000000
     2  C    0.000000   0.000000   0.000000   0.000000  -0.000007   0.000001
     3  F    0.000000   0.000000   0.000000   0.000000   0.000000   0.000000
     4  C    0.000000   0.000000   0.000000   0.000000   0.000002   0.000188
     5  F    0.000000   0.000000   0.000000   0.000000   0.000000   0.000000
     6  F    0.000000   0.000000   0.000000   0.000000   0.000000   0.000000
     7  C    0.000000   0.000000   0.000000   0.000000  -0.000111   0.006975
     8  F    0.000000   0.000000   0.000000   0.000000   0.000000   0.000160
     9  C    0.000000   0.000000   0.000000   0.000000   0.000000  -0.005889
    10  F    0.000000   0.000000   0.000000   0.000000   0.000000   0.000000
    11  C    0.000000   0.000000   0.000000   0.000000   0.000000   0.012819
    12  O    0.000000   0.000000   0.000000   0.000000   0.000000  -0.000254
    13  O    0.000000   0.000000   0.000000   0.000000   0.000000  -0.004270
    14  F    0.000000   0.000000   0.000000   0.000000   0.000000   0.000017
    15  C    0.000000   0.000000   0.000000   0.000000   0.001617  -0.024479
    16  F    0.000000   0.000000   0.000000   0.000000  -0.001517  -0.000025
    17  C    0.000000   0.000000   0.000000   0.000000  -0.053114   0.243693
    18  F    0.000000   0.000000   0.000000   0.000000   0.000678  -0.037406
    19  C    0.000000   0.000000   0.000000  -0.000006   0.568214  -0.022363
    20  N    0.000000   0.000000   0.000001   0.000017  -0.105795   0.001396
    21  C    0.000027   0.000017  -0.000098  -0.002555   0.005952  -0.000014
    22  C    0.005268   0.000178   0.007028  -0.058653  -0.003359   0.000002
    23  C   -0.020687  -0.032033  -0.025827   0.545839  -0.000076   0.000000
    24  C    0.451747  -0.076188  -0.041150  -0.034712  -0.000004   0.000000
    25  N    6.712800   0.468891  -0.028927  -0.053064   0.000000   0.000000
    26  C    0.468891   4.713026   0.518910  -0.038935   0.000000   0.000000
    27  C   -0.028927   0.518910   4.880075   0.521214   0.000000   0.000000
    28  C   -0.053064  -0.038935   0.521214   4.866449  -0.000002   0.000000
    29  O    0.000000   0.000000   0.000000  -0.000002   8.073445  -0.001511
    30  F    0.000000   0.000000   0.000000   0.000000  -0.001511   9.102105
    31  O    0.000000   0.000000   0.000000   0.000000  -0.000076   0.000672
    32  H    0.000000   0.000000   0.000000   0.000000   0.000000  -0.000008
    33  H    0.000000   0.000000   0.000000  -0.000004   0.002756   0.000176
    34  H   -0.000009  -0.000008  -0.000114   0.002722   0.000386   0.000000
    35  H   -0.000090  -0.000004   0.000001   0.000056   0.007668   0.000000
    36  H    0.000043   0.000017  -0.000220   0.003286   0.005382  -0.000002
    37  H   -0.000148   0.000019   0.000088  -0.005489   0.000081   0.000000
    38  H   -0.047530   0.004610   0.000301   0.003721   0.000113   0.000000
    39  H   -0.049845   0.392836  -0.057517   0.003420   0.000000   0.000000
    40  H    0.004520  -0.034205   0.368215  -0.036606   0.000000   0.000000
    41  H   -0.000238   0.004545  -0.041940   0.379082   0.000000   0.000000
              31         32         33         34         35         36
     1  F   -0.041292   0.000000   0.000000   0.000000   0.000000   0.000000
     2  C    0.179514   0.000000   0.000008   0.000000  -0.000001   0.000000
     3  F   -0.048578   0.000000   0.000000   0.000000   0.000000   0.000000
     4  C   -0.034281   0.000014   0.000002   0.000000   0.000000   0.000000
     5  F   -0.000910   0.000000   0.000000   0.000000   0.000000   0.000000
     6  F    0.000763   0.000000   0.000000   0.000000   0.000000   0.000000
     7  C   -0.025789  -0.000368  -0.000016   0.000000   0.000000   0.000000
     8  F    0.000731   0.000201   0.000000   0.000000   0.000000   0.000000
     9  C   -0.000424   0.007596  -0.000008   0.000000   0.000000   0.000000
    10  F   -0.000008  -0.000142   0.000000   0.000000   0.000000   0.000000
    11  C    0.000266  -0.012533   0.000000   0.000000   0.000000   0.000000
    12  O    0.000000   0.282636   0.000000   0.000000   0.000000   0.000000
    13  O    0.000000   0.008352   0.000004   0.000000   0.000000   0.000000
    14  F   -0.001989  -0.000035   0.000013   0.000000   0.000000   0.000000
    15  C    0.160014  -0.000019   0.000423   0.000001  -0.000003   0.000000
    16  F   -0.054769   0.000000  -0.000003   0.000000  -0.000003   0.000000
    17  C   -0.039026   0.000004  -0.000943  -0.000113   0.000233   0.000044
    18  F    0.001750   0.000003   0.013501  -0.000008  -0.000009  -0.000002
    19  C   -0.002551   0.000000  -0.026425   0.005103  -0.004282   0.004406
    20  N    0.001779   0.000000   0.341765  -0.034305  -0.036211  -0.006812
    21  C    0.000007   0.000000  -0.025133   0.387579   0.392515  -0.030006
    22  C    0.000000   0.000000   0.000665  -0.044986  -0.043223   0.380390
    23  C    0.000000   0.000000  -0.000064   0.000972  -0.000002  -0.026904
    24  C    0.000000   0.000000   0.000002   0.000042   0.003317  -0.004686
    25  N    0.000000   0.000000   0.000000  -0.000009  -0.000090   0.000043
    26  C    0.000000   0.000000   0.000000  -0.000008  -0.000004   0.000017
    27  C    0.000000   0.000000   0.000000  -0.000114   0.000001  -0.000220
    28  C    0.000000   0.000000  -0.000004   0.002722   0.000056   0.003286
    29  O   -0.000076   0.000000   0.002756   0.000386   0.007668   0.005382
    30  F    0.000672  -0.000008   0.000176   0.000000   0.000000  -0.000002
    31  O    8.411572   0.000000   0.000594  -0.000001   0.000003   0.000000
    32  H    0.000000   0.352959   0.000000   0.000000   0.000000   0.000000
    33  H    0.000594   0.000000   0.400286  -0.004897   0.003678  -0.000195
    34  H   -0.000001   0.000000  -0.004897   0.589392  -0.028111   0.004808
    35  H    0.000003   0.000000   0.003678  -0.028111   0.553831  -0.005061
    36  H    0.000000   0.000000  -0.000195   0.004808  -0.005061   0.565455
    37  H    0.000000   0.000000   0.001548  -0.004737   0.005023  -0.034052
    38  H    0.000000   0.000000   0.000000   0.000034   0.000689   0.003396
    39  H    0.000000   0.000000   0.000000   0.000000   0.000000   0.000000
    40  H    0.000000   0.000000   0.000000   0.000001   0.000000   0.000003
    41  H    0.000000   0.000000   0.000002   0.000335   0.000009   0.000081
              37         38         39         40         41
     1  F    0.000000   0.000000   0.000000   0.000000   0.000000
     2  C    0.000000   0.000000   0.000000   0.000000   0.000000
     3  F    0.000000   0.000000   0.000000   0.000000   0.000000
     4  C    0.000000   0.000000   0.000000   0.000000   0.000000
     5  F    0.000000   0.000000   0.000000   0.000000   0.000000
     6  F    0.000000   0.000000   0.000000   0.000000   0.000000
     7  C    0.000000   0.000000   0.000000   0.000000   0.000000
     8  F    0.000000   0.000000   0.000000   0.000000   0.000000
     9  C    0.000000   0.000000   0.000000   0.000000   0.000000
    10  F    0.000000   0.000000   0.000000   0.000000   0.000000
    11  C    0.000000   0.000000   0.000000   0.000000   0.000000
    12  O    0.000000   0.000000   0.000000   0.000000   0.000000
    13  O    0.000000   0.000000   0.000000   0.000000   0.000000
    14  F    0.000000   0.000000   0.000000   0.000000   0.000000
    15  C    0.000001   0.000000   0.000000   0.000000   0.000000
    16  F    0.000000   0.000000   0.000000   0.000000   0.000000
    17  C    0.000019   0.000000   0.000000   0.000000   0.000000
    18  F   -0.000006   0.000000   0.000000   0.000000   0.000000
    19  C    0.000098   0.000008   0.000000   0.000000   0.000000
    20  N    0.000091  -0.000039   0.000000   0.000000  -0.000031
    21  C   -0.037663   0.000140   0.000000   0.000000   0.000188
    22  C    0.374046  -0.003224   0.000012  -0.000106  -0.008724
    23  C   -0.027985  -0.062428   0.000658   0.004577  -0.045261
    24  C    0.003515   0.394942   0.004436   0.000321   0.005162
    25  N   -0.000148  -0.047530  -0.049845   0.004520  -0.000238
    26  C    0.000019   0.004610   0.392836  -0.034205   0.004545
    27  C    0.000088   0.000301  -0.057517   0.368215  -0.041940
    28  C   -0.005489   0.003721   0.003420  -0.036606   0.379082
    29  O    0.000081   0.000113   0.000000   0.000000   0.000000
    30  F    0.000000   0.000000   0.000000   0.000000   0.000000
    31  O    0.000000   0.000000   0.000000   0.000000   0.000000
    32  H    0.000000   0.000000   0.000000   0.000000   0.000000
    33  H    0.001548   0.000000   0.000000   0.000000   0.000002
    34  H   -0.004737   0.000034   0.000000   0.000001   0.000335
    35  H    0.005023   0.000689   0.000000   0.000000   0.000009
    36  H   -0.034052   0.003396   0.000000   0.000003   0.000081
    37  H    0.611570  -0.000027   0.000000  -0.000011   0.004520
    38  H   -0.000027   0.588016  -0.000191   0.000022  -0.000150
    39  H    0.000000  -0.000191   0.598922  -0.002604  -0.000171
    40  H   -0.000011   0.000022  -0.002604   0.593367  -0.005814
    41  H    0.004520  -0.000150  -0.000171  -0.005814   0.602063
 Mulliken charges:
               1
     1  F   -0.243433
     2  C    0.767460
     3  F   -0.244018
     4  C    0.521193
     5  F   -0.270133
     6  F   -0.251565
     7  C    0.184664
     8  F   -0.284660
     9  C    0.586928
    10  F   -0.268776
    11  C    0.540360
    12  O   -0.473745
    13  O   -0.445036
    14  F   -0.260618
    15  C    0.503324
    16  F   -0.269612
    17  C    0.561360
    18  F   -0.272874
    19  C    0.532502
    20  N   -0.539502
    21  C   -0.040891
    22  C   -0.245535
    23  C    0.081552
    24  C    0.050059
    25  N   -0.442758
    26  C    0.078324
    27  C   -0.100040
    28  C   -0.095777
    29  O   -0.500720
    30  F   -0.271983
    31  O   -0.507972
    32  H    0.361340
    33  H    0.292262
    34  H    0.125915
    35  H    0.149980
    36  H    0.140629
    37  H    0.109500
    38  H    0.117600
    39  H    0.110043
    40  H    0.108320
    41  H    0.106339
 Sum of Mulliken charges =   0.00000
 Mulliken charges with hydrogens summed into heavy atoms:
               1
     1  F   -0.243433
     2  C    0.767460
     3  F   -0.244018
     4  C    0.521193
     5  F   -0.270133
     6  F   -0.251565
     7  C    0.184664
     8  F   -0.284660
     9  C    0.586928
    10  F   -0.268776
    11  C    0.540360
    12  O   -0.112405
    13  O   -0.445036
    14  F   -0.260618
    15  C    0.503324
    16  F   -0.269612
    17  C    0.561360
    18  F   -0.272874
    19  C    0.532502
    20  N   -0.247240
    21  C    0.235003
    22  C    0.004593
    23  C    0.081552
    24  C    0.167659
    25  N   -0.442758
    26  C    0.188366
    27  C    0.008280
    28  C    0.010562
    29  O   -0.500720
    30  F   -0.271983
    31  O   -0.507972
 Electronic spatial extent (au):  <R**2>=          17082.4077
 Charge=              0.0000 electrons
 Dipole moment (field-independent basis, Debye):
    X=             -0.6363    Y=              0.9814    Z=             -4.9155  Tot=              5.0528
 Quadrupole moment (field-independent basis, Debye-Ang):
   XX=           -165.1664   YY=           -167.4428   ZZ=           -174.6820
   XY=             17.9700   XZ=            -12.1384   YZ=              3.2376
 Traceless Quadrupole moment (field-independent basis, Debye-Ang):
   XX=              3.9307   YY=              1.6543   ZZ=             -5.5850
   XY=             17.9700   XZ=            -12.1384   YZ=              3.2376
 Octapole moment (field-independent basis, Debye-Ang**2):
  XXX=            353.8779  YYY=            -74.9100  ZZZ=           -129.6700  XYY=             88.4256
  XXY=            -24.7523  XXZ=           -162.6757  XZZ=            139.1065  YZZ=             -4.9382
  YYZ=            -51.5707  XYZ=            -12.1895
 Hexadecapole moment (field-independent basis, Debye-Ang**3):
 XXXX=         -16364.5160 YYYY=          -1799.6704 ZZZZ=          -1633.0497 XXXY=           1411.6210
 XXXZ=             44.7232 YYYX=            883.5222 YYYZ=           -257.3133 ZZZX=            410.8484
 ZZZY=           -307.9133 XXYY=          -2977.0453 XXZZ=          -3096.5369 YYZZ=           -588.1924
 XXYZ=             30.0469 YYXZ=            204.8328 ZZXY=            279.1975
 N-N= 3.651898385031D+03 E-N=-1.198323913873D+04  KE= 1.970772021762D+03
 No NMR shielding tensors so no spin-rotation constants.
 Leave Link  601 at Mon Feb  3 21:36:55 2025, MaxMem=  5368709120 cpu:         3.5
 (Enter /home/k0335/k033513/app/g09/l9999.exe)
 1\1\GINC-C15U06N3\SP\RCAM-B3LYP\6-31G(d,p)\C15H10F10N2O4\K033513\03-Fe
 b-2025\0\\#p CAM-B3LYP/6-31G(d,p) SCRF=(PCM,Solvent=Generic,Read) NoSy
 mm out=wfn\\Title AEPYridine0_neu\\0,1\F,0,-2.921027,3.384765,1.959979
 \C,0,-3.203621,2.399165,1.087524\F,0,-3.579442,2.986343,-0.069161\C,0,
 -4.24581,1.416636,1.589033\F,0,-4.062889,1.200592,2.924538\F,0,-5.5165
 76,1.829004,1.457296\C,0,-3.881882,0.164631,0.826843\F,0,-4.362969,-0.
 925425,1.487893\C,0,-4.432002,0.180962,-0.594978\F,0,-5.700782,0.68759
 5,-0.581431\C,0,-4.47678,-1.219599,-1.218401\O,0,-5.494377,-1.985836,-
 0.768142\O,0,-3.710891,-1.671412,-2.0557\F,0,-3.718961,1.048745,-1.361
 082\C,0,-2.359301,0.27769,0.969891\F,0,-2.053732,0.014111,2.275862\C,0
 ,-1.525048,-0.642081,0.083705\F,0,-1.663999,-0.246165,-1.215771\C,0,-0
 .047329,-0.605164,0.49649\N,0,0.741004,0.254087,-0.256057\C,0,2.167243
 ,0.38345,-0.019339\C,0,2.961909,-0.784967,-0.608502\C,0,4.439043,-0.61
 9991,-0.388136\C,0,5.028752,-0.991778,0.816994\N,0,6.344571,-0.849962,
 1.091362\C,0,7.113454,-0.3143,0.120195\C,0,6.626378,0.090067,-1.111344
 \C,0,5.266867,-0.063845,-1.366252\O,0,0.411569,-1.271252,1.422179\F,0,
 -2.037963,-1.903156,0.148826\O,0,-2.010457,1.667732,0.797394\H,0,-5.41
 2774,-2.838371,-1.248345\H,0,0.353739,0.644654,-1.11074\H,0,2.480235,1
 .332006,-0.469719\H,0,2.33326,0.456838,1.061955\H,0,2.634209,-1.735965
 ,-0.169966\H,0,2.753964,-0.872201,-1.682846\H,0,4.441561,-1.426548,1.6
 22859\H,0,8.166695,-0.214791,0.366261\H,0,7.291076,0.515256,-1.854784\
 H,0,4.863082,0.248478,-2.325743\\Version=ES64L-G09RevD.01\HF=-1985.739
 4241\RMSD=9.934e-09\Dipole=-0.2503461,0.3861178,-1.9339161\Quadrupole=
 2.9223769,1.2299052,-4.1522821,13.3602795,-9.0245813,2.4070944\PG=C01 
 [X(C15H10F10N2O4)]\\@

 Writing a WFN file to "cytop/AEPYridine0/AEPYridine0_neu.wfn"


 NOBODY LOSES ALL THE TIME
 I HAD AN UNCLE NAMED
 SOL WHO WAS A BORN FAILURE AND
 NEARLY EVERYBODY SAID HE SHOULD HAVE GONE
 INTO VAUDEVILLE PERHAPS BECAUSE MY UNCLE SOL COULD
 SING MCCANN HE WAS A DIVER ON XMAS EVE LIKE HELL ITSELF WHICH
 MAY OR MAY NOT ACCOUNT FOR THE FACT THAT MY UNCLE
 SOL INDULGED IN THAT POSSIBLY MOST INEXCUSABLE
 OF ALL TO USE A HIGHFALOOTIN PHRASE
 LUXURIES THAT IS OR TO
 WIT FARMING AND BE
 IT NEEDLESSLY
 ADDED
 MY UNCLE SOL'S FARM     
 FAILED BECAUSE THE CHICKENS
 ATE THE VEGETABLES SO
 MY UNCLE SOL HAD A
 CHICKEN FARM TILL THE
 SKUNKS ATE THE CHICKENS WHEN 
 MY UNCLE SOL
 HAD A SKUNK FARM BUT
 THE SKUNKS CAUGHT COLD AND
 DIED AND SO
 MY UNCLE SOL IMITATED THE
 SKUNKS IN A SUBTLE MANNER
 OR BY DROWNING HIMSELF IN THE WATERTANK
 BUT SOMEBODY WHO'D GIVEN MY UNCLE SOL A VICTOR     
 VICTROLA AND RECORDS WHILE HE LIVED PRESENTED TO
 HIM UPON THE AUSPICIOUS OCCASION OF HIS DECEASE A
 SCRUMPTIOUS NOT TO MENTION SPLENDIFEROUS FUNERAL WITH
 TALL BOYS IN BLACK GLOVES AND FLOWERS AND EVERYTHING AND
 I REMEMBER WE ALL CRIED LIKE THE MISSOURI
 WHEN MY UNCLE SOL'S COFFIN LURCHED BECAUSE     
 SOMEBODY PRESSED A BUTTON
 (AND DOWN WENT
 MY UNCLE
 SOL
 AND STARTED A WORM FARM)
           E. E. CUMMINGS
 Job cpu time:       0 days  0 hours 14 minutes 22.8 seconds.
 File lengths (MBytes):  RWF=    316 Int=      0 D2E=      0 Chk=     11 Scr=      1
 Normal termination of Gaussian 09 at Mon Feb  3 21:36:55 2025.
