 Entering Gaussian System, Link 0=g09
 Initial command:
 /home/k0335/k033513/app/g09/l1.exe "/home/k0335/k033513/app/g09/scratch/Gau-523962.inp" -scrdir="/home/k0335/k033513/app/g09/scratch/"
 Default is to use a total of  36 processors:
                               36 via shared-memory
                                1 via Linda
 Entering Link 1 = /home/k0335/k033513/app/g09/l1.exe PID=    523963.
  
 Copyright (c) 1988,1990,1992,1993,1995,1998,2003,2009,2013,
            Gaussian, Inc.  All Rights Reserved.
  
 This is part of the Gaussian(R) 09 program.  It is based on
 the Gaussian(R) 03 system (copyright 2003, Gaussian, Inc.),
 the Gaussian(R) 98 system (copyright 1998, Gaussian, Inc.),
 the Gaussian(R) 94 system (copyright 1995, Gaussian, Inc.),
 the Gaussian 92(TM) system (copyright 1992, Gaussian, Inc.),
 the Gaussian 90(TM) system (copyright 1990, Gaussian, Inc.),
 the Gaussian 88(TM) system (copyright 1988, Gaussian, Inc.),
 the Gaussian 86(TM) system (copyright 1986, Carnegie Mellon
 University), and the Gaussian 82(TM) system (copyright 1983,
 Carnegie Mellon University). Gaussian is a federally registered
 trademark of Gaussian, Inc.
  
 This software contains proprietary and confidential information,
 including trade secrets, belonging to Gaussian, Inc.
  
 This software is provided under written license and may be
 used, copied, transmitted, or stored only in accord with that
 written license.
  
 The following legend is applicable only to US Government
 contracts under FAR:
  
                    RESTRICTED RIGHTS LEGEND
  
 Use, reproduction and disclosure by the US Government is
 subject to restrictions as set forth in subparagraphs (a)
 and (c) of the Commercial Computer Software - Restricted
 Rights clause in FAR 52.227-19.
  
 Gaussian, Inc.
 340 Quinnipiac St., Bldg. 40, Wallingford CT 06492
  
  
 ---------------------------------------------------------------
 Warning -- This program may not be used in any manner that
 competes with the business of Gaussian, Inc. or will provide
 assistance to any competitor of Gaussian, Inc.  The licensee
 of this program is prohibited from giving any competitor of
 Gaussian, Inc. access to this program.  By using this program,
 the user acknowledges that Gaussian, Inc. is engaged in the
 business of creating and licensing software in the field of
 computational chemistry and represents and warrants to the
 licensee that it is not a competitor of Gaussian, Inc. and that
 it will not use this program in any manner prohibited above.
 ---------------------------------------------------------------
  

 Cite this work as:
 Gaussian 09, Revision D.01,
 M. J. Frisch, G. W. Trucks, H. B. Schlegel, G. E. Scuseria, 
 M. A. Robb, J. R. Cheeseman, G. Scalmani, V. Barone, B. Mennucci, 
 G. A. Petersson, H. Nakatsuji, M. Caricato, X. Li, H. P. Hratchian, 
 A. F. Izmaylov, J. Bloino, G. Zheng, J. L. Sonnenberg, M. Hada, 
 M. Ehara, K. Toyota, R. Fukuda, J. Hasegawa, M. Ishida, T. Nakajima, 
 Y. Honda, O. Kitao, H. Nakai, T. Vreven, J. A. Montgomery, Jr., 
 J. E. Peralta, F. Ogliaro, M. Bearpark, J. J. Heyd, E. Brothers, 
 K. N. Kudin, V. N. Staroverov, T. Keith, R. Kobayashi, J. Normand, 
 K. Raghavachari, A. Rendell, J. C. Burant, S. S. Iyengar, J. Tomasi, 
 M. Cossi, N. Rega, J. M. Millam, M. Klene, J. E. Knox, J. B. Cross, 
 V. Bakken, C. Adamo, J. Jaramillo, R. Gomperts, R. E. Stratmann, 
 O. Yazyev, A. J. Austin, R. Cammi, C. Pomelli, J. W. Ochterski, 
 R. L. Martin, K. Morokuma, V. G. Zakrzewski, G. A. Voth, 
 P. Salvador, J. J. Dannenberg, S. Dapprich, A. D. Daniels, 
 O. Farkas, J. B. Foresman, J. V. Ortiz, J. Cioslowski, 
 and D. J. Fox, Gaussian, Inc., Wallingford CT, 2013.
 
 ******************************************
 Gaussian 09:  ES64L-G09RevD.01 24-Apr-2013
                 3-Mar-2024 
 ******************************************
 %nprocshared=24
 Will use up to   24 processors via shared memory.
 %mem=40GB
 %rwf=A1374950781/A1374950781_0.rwf
 %nosave
 %chk=A1374950781/A1374950781_0.chk
 ----------------------------------------------------------------------
 #p CAM-B3LYP/6-31G(d,p) SCRF=(PCM,Solvent=Generic,Read) NoSymm out=wfn
 ----------------------------------------------------------------------
 1/38=1,40=2/1;
 2/12=2,15=1,17=6,18=5,40=1/2;
 3/5=1,6=6,7=101,11=2,16=1,25=1,30=1,70=2203,72=-2,74=-40/1,2,3;
 4//1;
 5/5=2,38=5/2;
 6/7=2,8=2,9=2,10=2,28=1/1;
 99/5=1,6=100,9=1/99;
 Leave Link    1 at Sun Mar  3 17:44:02 2024, MaxMem=  5368709120 cpu:         1.1
 (Enter /home/k0335/k033513/app/g09/l101.exe)
 -------------------
 Title A1374950781_0
 -------------------
 Symbolic Z-matrix:
 Charge =  0 Multiplicity = 1
 O                     1.87223  -0.5994   -2.35802 
 C                     0.96609  -0.7168   -1.54203 
 N                    -0.11482  -1.52867  -1.78713 
 F                    -0.06425  -2.39179  -2.86222 
 C                    -1.02888  -1.80909  -0.73502 
 N                    -1.32316  -0.59382  -0.04338 
 C                    -2.53678  -0.55453   0.76426 
 F                    -2.20768  -0.92062   2.03197 
 F                    -3.33215  -1.57277   0.32688 
 C                    -3.35665   0.77178   0.76416 
 F                    -2.80502   1.63974   1.67574 
 O                    -3.29238   1.50673  -0.4679 
 C                    -4.06926   0.97127  -1.50398 
 F                    -3.84876  -0.34738  -1.61459 
 F                    -3.71478   1.56153  -2.6583 
 F                    -5.36778   1.20522  -1.2715 
 C                    -4.75216   0.42875   1.29686 
 F                    -5.41602  -0.43828   0.49927 
 F                    -4.70654  -0.12598   2.52901 
 F                    -5.52356   1.53931   1.38845 
 C                    -0.27403   0.24435   0.26793 
 O                    -0.44661   1.19939   1.01353 
 N                     0.94256  -0.05243  -0.33255 
 C                     2.05869   0.82189   0.01043 
 F                     1.86067   2.01552  -0.62811 
 F                     1.96906   1.11469   1.35075 
 C                     3.5475    0.39819  -0.19115 
 F                     3.86915   0.29338  -1.50321 
 O                     4.36279   1.47949   0.30673 
 C                     5.72387   1.15283   0.39058 
 F                     5.93201   0.42982   1.50435 
 F                     6.13502   0.46428  -0.68481 
 F                     6.43605   2.2912    0.47918 
 C                     3.712    -0.94353   0.53287 
 F                     2.82912  -1.87951   0.11025 
 F                     4.94237  -1.47557   0.35558 
 F                     3.52623  -0.81859   1.86709 
 H                    -1.9247   -2.23195  -1.19673 
 H                    -0.57944  -2.52867  -0.0425 
 
 NAtoms=     39 NQM=       39 NQMF=       0 NMMI=      0 NMMIF=      0
                NMic=       0 NMicF=      0.
                    Isotopes and Nuclear Properties:
 (Nuclear quadrupole moments (NQMom) in fm**2, nuclear magnetic moments (NMagM)
  in nuclear magnetons)

  Atom         1           2           3           4           5           6           7           8           9          10
 IAtWgt=          16          12          14          19          12          14          12          19          19          12
 AtmWgt=  15.9949146  12.0000000  14.0030740  18.9984033  12.0000000  14.0030740  12.0000000  18.9984033  18.9984033  12.0000000
 NucSpn=           0           0           2           1           0           2           0           1           1           0
 AtZEff=   0.0000000   0.0000000   0.0000000   0.0000000   0.0000000   0.0000000   0.0000000   0.0000000   0.0000000   0.0000000
 NQMom=    0.0000000   0.0000000   2.0440000   0.0000000   0.0000000   2.0440000   0.0000000   0.0000000   0.0000000   0.0000000
 NMagM=    0.0000000   0.0000000   0.4037610   2.6288670   0.0000000   0.4037610   0.0000000   2.6288670   2.6288670   0.0000000
 AtZNuc=   8.0000000   6.0000000   7.0000000   9.0000000   6.0000000   7.0000000   6.0000000   9.0000000   9.0000000   6.0000000

  Atom        11          12          13          14          15          16          17          18          19          20
 IAtWgt=          19          16          12          19          19          19          12          19          19          19
 AtmWgt=  18.9984033  15.9949146  12.0000000  18.9984033  18.9984033  18.9984033  12.0000000  18.9984033  18.9984033  18.9984033
 NucSpn=           1           0           0           1           1           1           0           1           1           1
 AtZEff=   0.0000000   0.0000000   0.0000000   0.0000000   0.0000000   0.0000000   0.0000000   0.0000000   0.0000000   0.0000000
 NQMom=    0.0000000   0.0000000   0.0000000   0.0000000   0.0000000   0.0000000   0.0000000   0.0000000   0.0000000   0.0000000
 NMagM=    2.6288670   0.0000000   0.0000000   2.6288670   2.6288670   2.6288670   0.0000000   2.6288670   2.6288670   2.6288670
 AtZNuc=   9.0000000   8.0000000   6.0000000   9.0000000   9.0000000   9.0000000   6.0000000   9.0000000   9.0000000   9.0000000

  Atom        21          22          23          24          25          26          27          28          29          30
 IAtWgt=          12          16          14          12          19          19          12          19          16          12
 AtmWgt=  12.0000000  15.9949146  14.0030740  12.0000000  18.9984033  18.9984033  12.0000000  18.9984033  15.9949146  12.0000000
 NucSpn=           0           0           2           0           1           1           0           1           0           0
 AtZEff=   0.0000000   0.0000000   0.0000000   0.0000000   0.0000000   0.0000000   0.0000000   0.0000000   0.0000000   0.0000000
 NQMom=    0.0000000   0.0000000   2.0440000   0.0000000   0.0000000   0.0000000   0.0000000   0.0000000   0.0000000   0.0000000
 NMagM=    0.0000000   0.0000000   0.4037610   0.0000000   2.6288670   2.6288670   0.0000000   2.6288670   0.0000000   0.0000000
 AtZNuc=   6.0000000   8.0000000   7.0000000   6.0000000   9.0000000   9.0000000   6.0000000   9.0000000   8.0000000   6.0000000

  Atom        31          32          33          34          35          36          37          38          39
 IAtWgt=          19          19          19          12          19          19          19           1           1
 AtmWgt=  18.9984033  18.9984033  18.9984033  12.0000000  18.9984033  18.9984033  18.9984033   1.0078250   1.0078250
 NucSpn=           1           1           1           0           1           1           1           1           1
 AtZEff=   0.0000000   0.0000000   0.0000000   0.0000000   0.0000000   0.0000000   0.0000000   0.0000000   0.0000000
 NQMom=    0.0000000   0.0000000   0.0000000   0.0000000   0.0000000   0.0000000   0.0000000   0.0000000   0.0000000
 NMagM=    2.6288670   2.6288670   2.6288670   0.0000000   2.6288670   2.6288670   2.6288670   2.7928460   2.7928460
 AtZNuc=   9.0000000   9.0000000   9.0000000   6.0000000   9.0000000   9.0000000   9.0000000   1.0000000   1.0000000
 Leave Link  101 at Sun Mar  3 17:44:02 2024, MaxMem=  5368709120 cpu:         0.7
 (Enter /home/k0335/k033513/app/g09/l202.exe)
                          Input orientation:                          
 ---------------------------------------------------------------------
 Center     Atomic      Atomic             Coordinates (Angstroms)
 Number     Number       Type             X           Y           Z
 ---------------------------------------------------------------------
      1          8           0        1.872225   -0.599400   -2.358021
      2          6           0        0.966090   -0.716797   -1.542026
      3          7           0       -0.114821   -1.528674   -1.787125
      4          9           0       -0.064252   -2.391792   -2.862215
      5          6           0       -1.028882   -1.809090   -0.735022
      6          7           0       -1.323155   -0.593818   -0.043381
      7          6           0       -2.536777   -0.554526    0.764256
      8          9           0       -2.207677   -0.920617    2.031966
      9          9           0       -3.332153   -1.572774    0.326878
     10          6           0       -3.356654    0.771783    0.764162
     11          9           0       -2.805016    1.639744    1.675739
     12          8           0       -3.292384    1.506725   -0.467901
     13          6           0       -4.069258    0.971274   -1.503980
     14          9           0       -3.848762   -0.347384   -1.614589
     15          9           0       -3.714784    1.561527   -2.658296
     16          9           0       -5.367778    1.205224   -1.271498
     17          6           0       -4.752158    0.428750    1.296861
     18          9           0       -5.416024   -0.438284    0.499269
     19          9           0       -4.706536   -0.125975    2.529013
     20          9           0       -5.523564    1.539314    1.388452
     21          6           0       -0.274026    0.244350    0.267929
     22          8           0       -0.446608    1.199393    1.013531
     23          7           0        0.942555   -0.052433   -0.332549
     24          6           0        2.058686    0.821894    0.010432
     25          9           0        1.860671    2.015525   -0.628109
     26          9           0        1.969055    1.114687    1.350753
     27          6           0        3.547496    0.398188   -0.191150
     28          9           0        3.869151    0.293378   -1.503211
     29          8           0        4.362793    1.479490    0.306726
     30          6           0        5.723874    1.152833    0.390578
     31          9           0        5.932014    0.429824    1.504349
     32          9           0        6.135023    0.464276   -0.684809
     33          9           0        6.436053    2.291201    0.479181
     34          6           0        3.711998   -0.943533    0.532871
     35          9           0        2.829121   -1.879512    0.110248
     36          9           0        4.942365   -1.475566    0.355582
     37          9           0        3.526234   -0.818586    1.867086
     38          1           0       -1.924698   -2.231947   -1.196731
     39          1           0       -0.579437   -2.528670   -0.042499
 ---------------------------------------------------------------------
                    Distance matrix (angstroms):
                    1          2          3          4          5
     1  O    0.000000
     2  C    1.225035   0.000000
     3  N    2.266677   1.373895   0.000000
     4  F    2.686415   2.368567   1.379619   0.000000
     5  C    3.537499   2.413353   1.421640   2.407281   0.000000
     6  N    3.945636   2.738924   2.318333   3.572586   1.428933
     7  C    5.402770   4.197064   3.650258   4.758174   2.468909
     8  F    6.001730   4.784115   4.397185   5.541808   3.136107
     9  F    5.936471   4.764493   3.849958   4.638996   2.547260
    10  C    6.242543   5.120595   4.723415   5.830843   3.785100
    11  F    6.569746   5.488947   5.409940   6.660187   4.567371
    12  O    5.889100   4.922641   4.588127   5.599287   4.023608
    13  C    6.204645   5.310910   4.686948   5.403248   4.191134
    14  F    5.774591   4.829548   3.920144   4.478693   3.295747
    15  F    5.997870   5.324228   4.823693   5.384858   4.719546
    16  F    7.540215   6.624593   5.944210   6.602749   5.310359
    17  C    7.635293   6.486133   5.903166   6.872396   4.795754
    18  F    7.829983   6.706402   5.875313   6.614925   4.759159
    19  F    8.208979   7.007219   6.456040   7.466597   5.197301
    20  F    8.562000   7.469494   6.982216   7.957754   5.993590
    21  C    3.494842   2.395335   2.718861   4.097689   2.406727
    22  O    4.469900   3.492617   3.923787   5.297567   3.528094
    23  N    2.294776   1.380133   2.326612   3.589634   2.671028
    24  C    2.768468   2.443657   3.671582   4.804867   4.124422
    25  F    3.135373   3.016803   4.219862   5.302924   4.794646
    26  F    4.086866   3.567694   4.601758   5.846266   4.678307
    27  C    2.914969   3.119570   4.435369   5.288034   5.109903
    28  F    2.348503   3.074040   4.390047   4.952645   5.385277
    29  O    4.198284   4.447376   5.786388   6.680400   6.400793
    30  C    5.045822   5.465069   6.784042   7.526449   7.459201
    31  F    5.697288   5.937638   7.157774   7.936221   7.647326
    32  F    4.701329   5.370998   6.651879   7.164442   7.516133
    33  F    6.101952   6.561541   7.914641   8.680398   8.603019
    34  C    3.443900   3.449147   4.513238   5.280542   4.983240
    35  F    2.940525   2.748236   3.519930   4.179662   3.950143
    36  F    4.190115   4.470728   5.492645   6.021619   6.079181
    37  F    4.542611   4.264592   5.207184   6.142707   5.338646
    38  H    4.293067   3.282006   2.029486   2.502128   1.092918
    39  H    3.885148   2.814271   2.063875   2.869660   1.095164
                    6          7          8          9         10
     6  N    0.000000
     7  C    1.458321   0.000000
     8  F    2.279527   1.359933   0.000000
     9  F    2.265286   1.364094   2.144080   0.000000
    10  C    2.579168   1.559261   2.406594   2.385113   0.000000
    11  F    3.184350   2.391145   2.653142   3.523857   1.374276
    12  O    2.910388   2.517520   3.649372   3.180655   1.436053
    13  C    3.481945   3.133921   4.421272   3.219867   2.385806
    14  F    2.984647   2.724540   4.039693   2.353244   2.674539
    15  F    4.147672   4.192761   5.516427   4.345286   3.530605
    16  F    4.593887   3.905839   5.041658   3.796821   2.894202
    17  C    3.820989   2.481615   2.972466   2.638822   1.532603
    18  F    4.131614   2.893751   3.588216   2.378929   2.403214
    19  F    4.275904   2.829466   2.668859   2.971793   2.396424
    20  F    4.923803   3.700633   4.178574   3.951495   2.382087
    21  C    1.378445   2.450426   2.864957   3.557746   3.166548
    22  O    2.258540   2.739923   2.938199   4.059898   2.951847
    23  N    2.347373   3.682503   4.033440   4.584693   4.512793
    24  C    3.666604   4.856034   5.032375   5.907260   5.467772
    25  F    4.157803   5.280283   5.678766   6.383832   5.541281
    26  F    3.962480   4.840741   4.695914   6.031051   5.368878
    27  C    4.972842   6.232082   6.309002   7.175139   6.979934
    28  F    5.466101   6.848085   7.134360   7.660974   7.588288
    29  O    6.062276   7.207678   7.204724   8.278219   7.765305
    30  C    7.273220   8.443522   8.360792   9.457516   9.096194
    31  F    7.488711   8.557868   8.267807   9.551001   9.324386
    32  F    7.560120   8.850868   8.882536   9.736555   9.606561
    33  F    8.294680   9.417596   9.350988  10.505777   9.913978
    34  C    5.080072   6.265146   6.106584   7.075199   7.277475
    35  F    4.349484   5.565624   5.475565   6.172707   6.761714
    36  F    6.339826   7.546714   7.364872   8.275139   8.607626
    37  F    5.216989   6.168149   5.737188   7.069548   7.149816
    38  H    2.091778   2.652141   3.496305   2.176424   3.862382
    39  H    2.072865   2.894698   3.088755   2.937281   4.388237
                   11         12         13         14         15
    11  F    0.000000
    12  O    2.202366   0.000000
    13  C    3.486513   1.401321   0.000000
    14  F    3.983007   2.249927   1.341533   0.000000
    15  F    4.429182   2.231424   1.344059   2.179728   0.000000
    16  F    3.929728   2.245870   1.339752   2.199025   2.186904
    17  C    2.324095   2.531275   2.933495   3.145640   4.242947
    18  F    3.538311   3.037816   2.795289   2.633053   4.106541
    19  F    2.731596   3.694189   4.227897   4.237244   5.544313
    20  F    2.735530   2.902632   3.286919   3.922097   4.432646
    21  C    3.214804   3.353434   4.251102   4.083229   4.704951
    22  O    2.488879   3.222970   4.417408   4.568828   4.928938
    23  N    4.576131   4.514865   5.247713   4.968636   5.450208
    24  C    5.205547   5.415879   6.314068   6.237455   6.403290
    25  F    5.217045   5.180591   6.084543   6.257324   5.950922
    26  F    4.813840   5.580675   6.680666   6.691629   6.969804
    27  C    6.736553   6.934652   7.750283   7.568797   7.757634
    28  F    7.514182   7.337006   7.967301   7.745267   7.775506
    29  O    7.299134   7.694318   8.639237   8.628937   8.604960
    30  C    8.638905   9.063947   9.976359   9.894782   9.927282
    31  F    8.822073   9.494156  10.457947  10.295407  10.567359
    32  F    9.320848   9.487347  10.249656  10.059784  10.105311
    33  F    9.340958   9.805858  10.772033  10.822358  10.649680
    34  C    7.102882   7.487768   8.268204   7.882390   8.462622
    35  F    6.824912   7.019521   7.636776   7.065168   7.894826
    36  F    8.453986   8.796776   9.521258   9.079553   9.656792
    37  F    6.794463   7.573162   8.500540   8.169128   8.864331
    38  H    4.900616   4.047150   3.867061   2.725473   4.441962
    39  H    5.028043   4.881133   5.154065   4.232961   5.779490
                   16         17         18         19         20
    16  F    0.000000
    17  C    2.752884   0.000000
    18  F    2.416415   1.352264   0.000000
    19  F    4.080835   1.352035   2.172733   0.000000
    20  F    2.685371   1.355289   2.170969   2.177522   0.000000
    21  C    5.407349   4.598518   5.192268   4.989668   5.521789
    22  O    5.425800   4.383141   5.257523   4.711717   5.102117
    23  N    6.502586   5.942749   6.424354   6.332944   6.877950
    24  C    7.546036   6.942410   7.595940   7.280792   7.739777
    25  F    7.302124   7.067735   7.761601   7.594844   7.669434
    26  F    7.791888   6.756339   7.594481   6.891375   7.504736
    27  C    9.016683   8.432044   9.028901   8.706496   9.278008
    28  F    9.284719   9.065633   9.526790   9.485626   9.906420
    29  O    9.861543   9.228584   9.966955   9.474640   9.945540
    30  C   11.215613  10.540061  11.253479  10.723885  11.298229
    31  F   11.661555  10.686187  11.425487  10.702224  11.509764
    32  F   11.541561  11.066119  11.646602  11.323270  11.890196
    33  F   11.982264  11.371605  12.162328  11.584552  12.017676
    34  C    9.503433   8.608646   9.142056   8.690495   9.601675
    35  F    8.866452   8.013234   8.379194   8.106259   9.115345
    36  F   10.776506   9.924525  10.411187   9.982309  10.940384
    37  F    9.646241   8.391232   9.054255   8.288327   9.364167
    38  H    4.865648   4.614308   4.275863   5.104401   5.818713
    39  H    6.195209   5.286948   5.296773   5.423888   6.560526
                   21         22         23         24         25
    21  C    0.000000
    22  O    1.223852   0.000000
    23  N    1.388785   2.304078   0.000000
    24  C    2.416900   2.724924   1.458709   0.000000
    25  F    2.914940   2.946963   2.281829   1.368101   0.000000
    26  F    2.638448   2.440558   2.291152   1.374853   2.176959
    27  C    3.852071   4.248065   2.647408   1.560999   2.377413
    28  F    4.506135   5.077463   3.170962   2.418311   2.786680
    29  O    4.798663   4.869124   3.801774   2.414359   2.724310
    30  C    6.067552   6.202023   4.983632   3.699680   4.087334
    31  F    6.330724   6.443598   5.338677   4.169913   4.861858
    32  F    6.483208   6.836858   5.229990   4.150635   4.547491
    33  F    7.018503   6.989177   6.027441   4.641113   4.715528
    34  C    4.167691   4.702890   3.035264   2.474493   3.678493
    35  F    3.763665   4.585409   2.663347   2.810894   4.080978
    36  F    5.493317   6.052217   4.300850   3.703114   4.759433
    37  F    4.257830   4.536989   3.478618   2.879590   4.127019
    38  H    3.316925   4.340979   3.703813   5.162416   5.717811
    39  H    2.807006   3.877022   2.921017   4.264830   5.191028
                   26         27         28         29         30
    26  F    0.000000
    27  C    2.319981   0.000000
    28  F    3.525624   1.354973   0.000000
    29  O    2.636865   1.442846   2.219553   0.000000
    30  C    3.875830   2.375819   2.786592   1.402240   0.000000
    31  F    4.024633   2.926029   3.649581   2.235745   1.344080
    32  F    4.682076   2.635026   2.415194   2.270374   1.341496
    33  F    4.700840   3.518040   3.809220   2.233164   1.345708
    34  C    2.818342   1.533454   2.387525   2.519070   2.909062
    35  F    3.353177   2.407243   2.899373   3.697790   4.201583
    36  F    4.066983   2.399068   2.781378   3.011751   2.742346
    37  F    2.535538   2.391093   3.565524   2.900984   3.300938
    38  H    5.731575   6.154162   6.327708   7.454374   8.513339
    39  H    4.659400   5.061637   5.466953   6.372828   7.312506
                   31         32         33         34         35
    31  F    0.000000
    32  F    2.198821   0.000000
    33  F    2.183976   2.187041   0.000000
    34  C    2.785381   3.055441   4.229286   0.000000
    35  F    4.111508   4.129703   5.526384   1.354304   0.000000
    36  F    2.435073   2.503564   4.054000   1.352144   2.165447
    37  F    2.734572   3.868292   4.479297   1.352867   2.167489
    38  H    8.724035   8.514152   9.652446   6.035220   4.942793
    39  H    7.317405   7.379313   8.527626   4.610870   3.473184
                   36         37         38         39
    36  F    0.000000
    37  F    2.172946   0.000000
    38  H    7.080843   6.410712   0.000000
    39  H    5.635405   4.840190   1.797227   0.000000
 Symmetry turned off by external request.
 Stoichiometry    C11H2F19N3O4
 Framework group  C1[X(C11H2F19N3O4)]
 Deg. of freedom   111
 Full point group                 C1      NOp   1
 Rotational constants (GHZ):      0.2450149      0.0535411      0.0515332
 Leave Link  202 at Sun Mar  3 17:44:02 2024, MaxMem=  5368709120 cpu:         0.1
 (Enter /home/k0335/k033513/app/g09/l301.exe)
 Standard basis: 6-31G(d,p) (6D, 7F)
 Ernie: Thresh=  0.10000D-02 Tol=  0.10000D-05 Strict=F.
   565 basis functions,  1050 primitive gaussians,   565 cartesian basis functions
   146 alpha electrons      146 beta electrons
       nuclear repulsion energy      5389.2814092407 Hartrees.
 IExCor=20419 DFT=T Ex+Corr=CAM-B3LYP ExCW=0 ScaHFX=  1.000000
 ScaDFX=  1.000000  1.000000  1.000000  0.810000 ScalE2=  1.000000  1.000000
 IRadAn=      0 IRanWt=     -1 IRanGd=            0 ICorTp=0 IEmpDi=  4
  HFx wShort=  0.000000 wLong=  0.330000 cFull=  0.190000 cShort=  0.000000 cLong=  0.460000
  DFx wShort=  0.000000 wLong=  0.330000 cFull=  0.190000 cShort=  0.000000 cLong=  0.460000
 NAtoms=   39 NActive=   39 NUniq=   39 SFac= 1.00D+00 NAtFMM=   60 NAOKFM=F Big=F
 Integral buffers will be    131072 words long.
 Raffenetti 2 integral format.
 Two-electron integral symmetry is turned off.
 Using the following non-standard input for PCM:
 eps=4.9
 --- end of non-standard input.
 ------------------------------------------------------------------------------
 Polarizable Continuum Model (PCM)
 =================================
 Model                : PCM (using non-symmetric T matrix).
 Atomic radii         : UFF (Universal Force Field).
 Polarization charges : Total charges.
 Charge compensation  : None.
 Solution method      : On-the-fly selection.
 Cavity type          : Scaled VdW (van der Waals Surface) (Alpha=1.100).
 Cavity algorithm     : GePol (No added spheres)
                        Default sphere list used, NSphG=   39.
                        Lebedev-Laikov grids with approx.  5.0 points / Ang**2.
                        Smoothing algorithm: Karplus/York (Gamma=1.0000).
                        Polarization charges: spherical gaussians, with
                                              point-specific exponents (IZeta= 3).
                        Self-potential: point-specific (ISelfS= 7).
                        Self-field    : sphere-specific E.n sum rule (ISelfD= 2).
 Solvent              : Generic,
                        Eps                           =   4.900000
                        Eps(infinity)                 =   0.000000
                        RSolv                         =   0.000000 Ang.
                        Molar volume                  =   0.000000 cm**3/mol
                        Thermal expansion coefficient =   0.000000 K**-1
                        Absolute temperature          = 298.150000 K
                        Numeral density               =   0.000000 Ang**-3
                        Hydrogen bond acidity         =   0.000000
                        Hydrogen bond basicity        =   0.000000
                        Surface tension at interface  =   0.000000 (cal/mol)*Ang**-2
                        Carbon aromaticity            =   0.000000
                        Electronegative halogenicity  =   0.000000
 ------------------------------------------------------------------------------
 GePol: Number of generator spheres                  =      39
 GePol: Total number of spheres                      =      39
 GePol: Number of exposed spheres                    =      39 (100.00%)
 GePol: Number of points                             =    3334
 GePol: Average weight of points                     =       0.12
 GePol: Minimum weight of points                     =   0.48D-10
 GePol: Maximum weight of points                     =    0.20577
 GePol: Number of points with low weight             =     136
 GePol: Fraction of low-weight points (<1% of avg)   =       4.08%
 GePol: Cavity surface area                          =    415.676 Ang**2
 GePol: Cavity volume                                =    480.847 Ang**3
 Leave Link  301 at Sun Mar  3 17:44:02 2024, MaxMem=  5368709120 cpu:         0.7
 (Enter /home/k0335/k033513/app/g09/l302.exe)
 NPDir=0 NMtPBC=     1 NCelOv=     1 NCel=       1 NClECP=     1 NCelD=      1
         NCelK=      1 NCelE2=     1 NClLst=     1 CellRange=     0.0.
 One-electron integrals computed using PRISM.
 NBasis=   565 RedAO= T EigKep=  1.07D-03  NBF=   565
 NBsUse=   565 1.00D-06 EigRej= -1.00D+00 NBFU=   565
 Precomputing XC quadrature grid using
 IXCGrd= 4 IRadAn=           0 IRanWt=          -1 IRanGd=           0 AccXCQ= 0.00D+00.
 Generated NRdTot=       0 NPtTot=           0 NUsed=           0 NTot=          32
 NSgBfM=   545   545   545   545   545 MxSgAt=    39 MxSgA2=    39.
 Leave Link  302 at Sun Mar  3 17:44:02 2024, MaxMem=  5368709120 cpu:        10.2
 (Enter /home/k0335/k033513/app/g09/l303.exe)
 DipDrv:  MaxL=1.
 Leave Link  303 at Sun Mar  3 17:44:02 2024, MaxMem=  5368709120 cpu:         0.7
 (Enter /home/k0335/k033513/app/g09/l401.exe)
 ExpMin= 1.61D-01 ExpMax= 7.00D+03 ExpMxC= 1.05D+03 IAcc=1 IRadAn=         1 AccDes= 0.00D+00
 Harris functional with IExCor=20419 and IRadAn=       1 diagonalized for initial guess.
 HarFok:  IExCor=20419 AccDes= 0.00D+00 IRadAn=         1 IDoV= 1 UseB2=F ITyADJ=14
 ICtDFT=  3500011 ScaDFX=  1.000000  1.000000  1.000000  1.000000
 FoFCou: FMM=F IPFlag=           0 FMFlag=      100000 FMFlg1=           0
         NFxFlg=           0 DoJE=T BraDBF=F KetDBF=T FulRan=T
         wScrn=  0.000000 ICntrl=     500 IOpCl=  0 I1Cent=   200000004 NGrid=           0
         NMat0=    1 NMatS0=      1 NMatT0=    0 NMatD0=    1 NMtDS0=    0 NMtDT0=    0
 Symmetry not used in FoFCou.
 Harris En= -2699.62858804699    
 JPrj=0 DoOrth=F DoCkMO=F.
 Leave Link  401 at Sun Mar  3 17:44:03 2024, MaxMem=  5368709120 cpu:        11.8
 (Enter /home/k0335/k033513/app/g09/l502.exe)
 Closed shell SCF:
 Using DIIS extrapolation, IDIIS=  1040.
 Two-electron integral symmetry not used.
 IVT=      993253 IEndB=      993253 NGot=  5368709120 MDV=  5368052298
 LenX=  5368052298 LenY=  5367732508
 Requested convergence on RMS density matrix=1.00D-08 within 128 cycles.
 Requested convergence on MAX density matrix=1.00D-06.
 Requested convergence on             energy=1.00D-06.
 No special actions if energy rises.
 Fock matrices will be formed incrementally for  20 cycles.

 Cycle   1  Pass 1  IDiag  1:
 FoFJK:  IHMeth= 1 ICntrl=       0 DoSepK=T KAlg= 0 I1Cent=   0 FoldK=F
 IRaf=         1 NMat=   1 IRICut=       1 DoRegI=T DoRafI=F ISym2E= 0.
 FoFCou: FMM=F IPFlag=           0 FMFlag=      100000 FMFlg1=           0
         NFxFlg=           0 DoJE=T BraDBF=F KetDBF=F FulRan=T
         wScrn=  0.000000 ICntrl=     500 IOpCl=  0 I1Cent=           0 NGrid=           0
         NMat0=    1 NMatS0=      1 NMatT0=    0 NMatD0=    1 NMtDS0=    0 NMtDT0=    0
 Symmetry not used in FoFCou.
 Inv3:  Mode=1 IEnd=    33346668.
 Iteration    1 A*A^-1 deviation from unit magnitude is 7.55D-15 for    261.
 Iteration    1 A*A^-1 deviation from orthogonality  is 6.30D-15 for   2648    551.
 Iteration    1 A^-1*A deviation from unit magnitude is 7.33D-15 for    261.
 Iteration    1 A^-1*A deviation from orthogonality  is 8.38D-14 for   2104   2088.
 E= -2780.68375577648    
 DIIS: error= 4.23D-02 at cycle   1 NSaved=   1.
 NSaved= 1 IEnMin= 1 EnMin= -2780.68375577648     IErMin= 1 ErrMin= 4.23D-02
 ErrMax= 4.23D-02  0.00D+00 EMaxC= 1.00D-01 BMatC= 2.35D+00 BMatP= 2.35D+00
 IDIUse=3 WtCom= 5.77D-01 WtEn= 4.23D-01
 Coeff-Com:  0.100D+01
 Coeff-En:   0.100D+01
 Coeff:      0.100D+01
 Gap=     0.435 Goal=   None    Shift=    0.000
 GapD=    0.435 DampG=2.000 DampE=0.500 DampFc=1.0000 IDamp=-1.
 RMSDP=3.18D-03 MaxDP=1.20D-01              OVMax= 2.26D-01

 Cycle   2  Pass 1  IDiag  1:
 RMSU=  3.18D-03    CP:  1.00D+00
 E= -2781.10587793445     Delta-E=       -0.422122157967 Rises=F Damp=F
 DIIS: error= 2.28D-02 at cycle   2 NSaved=   2.
 NSaved= 2 IEnMin= 2 EnMin= -2781.10587793445     IErMin= 2 ErrMin= 2.28D-02
 ErrMax= 2.28D-02  0.00D+00 EMaxC= 1.00D-01 BMatC= 8.47D-01 BMatP= 2.35D+00
 IDIUse=3 WtCom= 7.72D-01 WtEn= 2.28D-01
 Coeff-Com:  0.356D+00 0.644D+00
 Coeff-En:   0.308D+00 0.692D+00
 Coeff:      0.345D+00 0.655D+00
 Gap=     0.512 Goal=   None    Shift=    0.000
 RMSDP=1.54D-03 MaxDP=1.00D-01 DE=-4.22D-01 OVMax= 1.21D-01

 Cycle   3  Pass 1  IDiag  1:
 RMSU=  9.39D-04    CP:  1.00D+00  6.17D-01
 E= -2781.51233468218     Delta-E=       -0.406456747734 Rises=F Damp=F
 DIIS: error= 7.66D-03 at cycle   3 NSaved=   3.
 NSaved= 3 IEnMin= 3 EnMin= -2781.51233468218     IErMin= 3 ErrMin= 7.66D-03
 ErrMax= 7.66D-03  0.00D+00 EMaxC= 1.00D-01 BMatC= 1.62D-01 BMatP= 8.47D-01
 IDIUse=3 WtCom= 9.23D-01 WtEn= 7.66D-02
 Coeff-Com:  0.100D+00 0.333D+00 0.567D+00
 Coeff-En:   0.000D+00 0.117D+00 0.883D+00
 Coeff:      0.924D-01 0.316D+00 0.591D+00
 Gap=     0.374 Goal=   None    Shift=    0.000
 RMSDP=6.85D-04 MaxDP=6.56D-02 DE=-4.06D-01 OVMax= 7.87D-02

 Cycle   4  Pass 1  IDiag  1:
 RMSU=  3.29D-04    CP:  9.99D-01  7.09D-01  4.42D-01
 E= -2781.60834231773     Delta-E=       -0.096007635550 Rises=F Damp=F
 DIIS: error= 2.80D-03 at cycle   4 NSaved=   4.
 NSaved= 4 IEnMin= 4 EnMin= -2781.60834231773     IErMin= 4 ErrMin= 2.80D-03
 ErrMax= 2.80D-03  0.00D+00 EMaxC= 1.00D-01 BMatC= 1.83D-02 BMatP= 1.62D-01
 IDIUse=3 WtCom= 9.72D-01 WtEn= 2.80D-02
 Coeff-Com:  0.843D-02 0.911D-01 0.312D+00 0.589D+00
 Coeff-En:   0.000D+00 0.000D+00 0.631D-01 0.937D+00
 Coeff:      0.819D-02 0.885D-01 0.305D+00 0.599D+00
 Gap=     0.376 Goal=   None    Shift=    0.000
 RMSDP=2.29D-04 MaxDP=2.45D-02 DE=-9.60D-02 OVMax= 2.22D-02

 Cycle   5  Pass 1  IDiag  1:
 RMSU=  1.12D-04    CP:  9.98D-01  7.02D-01  6.14D-01  6.50D-01
 E= -2781.62027377044     Delta-E=       -0.011931452705 Rises=F Damp=F
 DIIS: error= 1.22D-03 at cycle   5 NSaved=   5.
 NSaved= 5 IEnMin= 5 EnMin= -2781.62027377044     IErMin= 5 ErrMin= 1.22D-03
 ErrMax= 1.22D-03  0.00D+00 EMaxC= 1.00D-01 BMatC= 1.50D-03 BMatP= 1.83D-02
 IDIUse=3 WtCom= 9.88D-01 WtEn= 1.22D-02
 Coeff-Com: -0.130D-02 0.286D-01 0.137D+00 0.344D+00 0.492D+00
 Coeff-En:   0.000D+00 0.000D+00 0.000D+00 0.000D+00 0.100D+01
 Coeff:     -0.128D-02 0.282D-01 0.135D+00 0.340D+00 0.498D+00
 Gap=     0.365 Goal=   None    Shift=    0.000
 RMSDP=5.72D-05 MaxDP=4.98D-03 DE=-1.19D-02 OVMax= 5.77D-03

 Cycle   6  Pass 1  IDiag  1:
 RMSU=  2.66D-05    CP:  9.99D-01  7.06D-01  6.04D-01  6.95D-01  5.91D-01
 E= -2781.62133860780     Delta-E=       -0.001064837364 Rises=F Damp=F
 DIIS: error= 1.06D-04 at cycle   6 NSaved=   6.
 NSaved= 6 IEnMin= 6 EnMin= -2781.62133860780     IErMin= 6 ErrMin= 1.06D-04
 ErrMax= 1.06D-04  0.00D+00 EMaxC= 1.00D-01 BMatC= 2.70D-05 BMatP= 1.50D-03
 IDIUse=3 WtCom= 9.99D-01 WtEn= 1.06D-03
 Coeff-Com: -0.830D-03 0.258D-03 0.110D-01 0.411D-01 0.137D+00 0.811D+00
 Coeff-En:   0.000D+00 0.000D+00 0.000D+00 0.000D+00 0.000D+00 0.100D+01
 Coeff:     -0.829D-03 0.258D-03 0.110D-01 0.411D-01 0.137D+00 0.811D+00
 Gap=     0.365 Goal=   None    Shift=    0.000
 RMSDP=1.22D-05 MaxDP=7.64D-04 DE=-1.06D-03 OVMax= 9.27D-04

 Cycle   7  Pass 1  IDiag  1:
 RMSU=  8.86D-06    CP:  9.99D-01  7.06D-01  6.08D-01  7.05D-01  6.47D-01
                    CP:  1.03D+00
 E= -2781.62136033035     Delta-E=       -0.000021722548 Rises=F Damp=F
 DIIS: error= 5.92D-05 at cycle   7 NSaved=   7.
 NSaved= 7 IEnMin= 7 EnMin= -2781.62136033035     IErMin= 7 ErrMin= 5.92D-05
 ErrMax= 5.92D-05  0.00D+00 EMaxC= 1.00D-01 BMatC= 5.49D-06 BMatP= 2.70D-05
 IDIUse=1 WtCom= 1.00D+00 WtEn= 0.00D+00
 Coeff-Com: -0.175D-03-0.329D-02-0.106D-01-0.209D-01 0.791D-02 0.358D+00
 Coeff-Com:  0.669D+00
 Coeff:     -0.175D-03-0.329D-02-0.106D-01-0.209D-01 0.791D-02 0.358D+00
 Coeff:      0.669D+00
 Gap=     0.365 Goal=   None    Shift=    0.000
 RMSDP=4.38D-06 MaxDP=2.84D-04 DE=-2.17D-05 OVMax= 8.35D-04

 Cycle   8  Pass 1  IDiag  1:
 RMSU=  2.70D-06    CP:  9.99D-01  7.06D-01  6.08D-01  7.07D-01  6.59D-01
                    CP:  1.12D+00  8.13D-01
 E= -2781.62136523033     Delta-E=       -0.000004899984 Rises=F Damp=F
 DIIS: error= 1.45D-05 at cycle   8 NSaved=   8.
 NSaved= 8 IEnMin= 8 EnMin= -2781.62136523033     IErMin= 8 ErrMin= 1.45D-05
 ErrMax= 1.45D-05  0.00D+00 EMaxC= 1.00D-01 BMatC= 3.40D-07 BMatP= 5.49D-06
 IDIUse=1 WtCom= 1.00D+00 WtEn= 0.00D+00
 Coeff-Com:  0.744D-05-0.103D-02-0.378D-02-0.968D-02-0.799D-02 0.311D-01
 Coeff-Com:  0.212D+00 0.779D+00
 Coeff:      0.744D-05-0.103D-02-0.378D-02-0.968D-02-0.799D-02 0.311D-01
 Coeff:      0.212D+00 0.779D+00
 Gap=     0.365 Goal=   None    Shift=    0.000
 RMSDP=1.56D-06 MaxDP=9.32D-05 DE=-4.90D-06 OVMax= 2.01D-04

 Cycle   9  Pass 1  IDiag  1:
 RMSU=  8.99D-07    CP:  9.99D-01  7.06D-01  6.09D-01  7.07D-01  6.64D-01
                    CP:  1.15D+00  8.94D-01  1.06D+00
 E= -2781.62136557752     Delta-E=       -0.000000347186 Rises=F Damp=F
 DIIS: error= 3.70D-06 at cycle   9 NSaved=   9.
 NSaved= 9 IEnMin= 9 EnMin= -2781.62136557752     IErMin= 9 ErrMin= 3.70D-06
 ErrMax= 3.70D-06  0.00D+00 EMaxC= 1.00D-01 BMatC= 5.09D-08 BMatP= 3.40D-07
 IDIUse=1 WtCom= 1.00D+00 WtEn= 0.00D+00
 Coeff-Com:  0.262D-04 0.516D-05-0.122D-03-0.145D-02-0.496D-02-0.437D-01
 Coeff-Com: -0.278D-03 0.315D+00 0.736D+00
 Coeff:      0.262D-04 0.516D-05-0.122D-03-0.145D-02-0.496D-02-0.437D-01
 Coeff:     -0.278D-03 0.315D+00 0.736D+00
 Gap=     0.365 Goal=   None    Shift=    0.000
 RMSDP=6.29D-07 MaxDP=4.94D-05 DE=-3.47D-07 OVMax= 9.69D-05

 Cycle  10  Pass 1  IDiag  1:
 RMSU=  3.29D-07    CP:  9.99D-01  7.06D-01  6.09D-01  7.07D-01  6.66D-01
                    CP:  1.16D+00  9.24D-01  1.16D+00  9.78D-01
 E= -2781.62136563339     Delta-E=       -0.000000055868 Rises=F Damp=F
 DIIS: error= 1.51D-06 at cycle  10 NSaved=  10.
 NSaved=10 IEnMin=10 EnMin= -2781.62136563339     IErMin=10 ErrMin= 1.51D-06
 ErrMax= 1.51D-06  0.00D+00 EMaxC= 1.00D-01 BMatC= 4.34D-09 BMatP= 5.09D-08
 IDIUse=1 WtCom= 1.00D+00 WtEn= 0.00D+00
 Coeff-Com:  0.703D-05 0.111D-03 0.388D-03 0.541D-03-0.574D-03-0.176D-01
 Coeff-Com: -0.182D-01 0.243D-01 0.259D+00 0.752D+00
 Coeff:      0.703D-05 0.111D-03 0.388D-03 0.541D-03-0.574D-03-0.176D-01
 Coeff:     -0.182D-01 0.243D-01 0.259D+00 0.752D+00
 Gap=     0.365 Goal=   None    Shift=    0.000
 RMSDP=1.89D-07 MaxDP=1.35D-05 DE=-5.59D-08 OVMax= 4.29D-05

 Cycle  11  Pass 1  IDiag  1:
 RMSU=  1.16D-07    CP:  9.99D-01  7.06D-01  6.09D-01  7.07D-01  6.66D-01
                    CP:  1.16D+00  9.32D-01  1.19D+00  1.07D+00  9.70D-01
 E= -2781.62136563769     Delta-E=       -0.000000004304 Rises=F Damp=F
 DIIS: error= 6.66D-07 at cycle  11 NSaved=  11.
 NSaved=11 IEnMin=11 EnMin= -2781.62136563769     IErMin=11 ErrMin= 6.66D-07
 ErrMax= 6.66D-07  0.00D+00 EMaxC= 1.00D-01 BMatC= 9.62D-10 BMatP= 4.34D-09
 IDIUse=1 WtCom= 1.00D+00 WtEn= 0.00D+00
 Coeff-Com:  0.115D-05 0.579D-04 0.218D-03 0.426D-03 0.291D-03-0.460D-02
 Coeff-Com: -0.922D-02-0.215D-01 0.532D-01 0.374D+00 0.607D+00
 Coeff:      0.115D-05 0.579D-04 0.218D-03 0.426D-03 0.291D-03-0.460D-02
 Coeff:     -0.922D-02-0.215D-01 0.532D-01 0.374D+00 0.607D+00
 Gap=     0.365 Goal=   None    Shift=    0.000
 RMSDP=6.79D-08 MaxDP=6.39D-06 DE=-4.30D-09 OVMax= 9.99D-06

 Cycle  12  Pass 1  IDiag  1:
 RMSU=  4.33D-08    CP:  9.99D-01  7.06D-01  6.09D-01  7.07D-01  6.66D-01
                    CP:  1.16D+00  9.33D-01  1.19D+00  1.09D+00  1.06D+00
                    CP:  8.14D-01
 E= -2781.62136563839     Delta-E=       -0.000000000702 Rises=F Damp=F
 DIIS: error= 2.39D-07 at cycle  12 NSaved=  12.
 NSaved=12 IEnMin=12 EnMin= -2781.62136563839     IErMin=12 ErrMin= 2.39D-07
 ErrMax= 2.39D-07  0.00D+00 EMaxC= 1.00D-01 BMatC= 8.98D-11 BMatP= 9.62D-10
 IDIUse=1 WtCom= 1.00D+00 WtEn= 0.00D+00
 Coeff-Com: -0.576D-06 0.649D-05 0.310D-04 0.881D-04 0.256D-03 0.959D-03
 Coeff-Com: -0.708D-03-0.134D-01-0.203D-01 0.316D-01 0.238D+00 0.763D+00
 Coeff:     -0.576D-06 0.649D-05 0.310D-04 0.881D-04 0.256D-03 0.959D-03
 Coeff:     -0.708D-03-0.134D-01-0.203D-01 0.316D-01 0.238D+00 0.763D+00
 Gap=     0.365 Goal=   None    Shift=    0.000
 RMSDP=2.63D-08 MaxDP=1.84D-06 DE=-7.02D-10 OVMax= 5.28D-06

 Cycle  13  Pass 1  IDiag  1:
 RMSU=  1.43D-08    CP:  9.99D-01  7.06D-01  6.09D-01  7.07D-01  6.66D-01
                    CP:  1.16D+00  9.33D-01  1.20D+00  1.10D+00  1.09D+00
                    CP:  9.20D-01  9.11D-01
 E= -2781.62136563844     Delta-E=       -0.000000000047 Rises=F Damp=F
 DIIS: error= 8.52D-08 at cycle  13 NSaved=  13.
 NSaved=13 IEnMin=13 EnMin= -2781.62136563844     IErMin=13 ErrMin= 8.52D-08
 ErrMax= 8.52D-08  0.00D+00 EMaxC= 1.00D-01 BMatC= 1.44D-11 BMatP= 8.98D-11
 IDIUse=1 WtCom= 1.00D+00 WtEn= 0.00D+00
 Coeff-Com: -0.414D-06-0.362D-05-0.917D-05-0.719D-05 0.931D-04 0.976D-03
 Coeff-Com:  0.813D-03-0.363D-02-0.147D-01-0.277D-01 0.336D-01 0.350D+00
 Coeff-Com:  0.661D+00
 Coeff:     -0.414D-06-0.362D-05-0.917D-05-0.719D-05 0.931D-04 0.976D-03
 Coeff:      0.813D-03-0.363D-02-0.147D-01-0.277D-01 0.336D-01 0.350D+00
 Coeff:      0.661D+00
 Gap=     0.365 Goal=   None    Shift=    0.000
 RMSDP=7.88D-09 MaxDP=4.68D-07 DE=-4.73D-11 OVMax= 9.69D-07

 Error on total polarization charges =  0.00126
 SCF Done:  E(RCAM-B3LYP) =  -2781.62136564     A.U. after   13 cycles
            NFock= 13  Conv=0.79D-08     -V/T= 2.0072
 KE= 2.761622213795D+03 PE=-1.735928367323D+04 EE= 6.426758684560D+03
 Leave Link  502 at Sun Mar  3 17:44:48 2024, MaxMem=  5368709120 cpu:      1019.9
 (Enter /home/k0335/k033513/app/g09/l601.exe)
 Copying SCF densities to generalized density rwf, IOpCl= 0 IROHF=0.

 **********************************************************************

            Population analysis using the SCF density.

 **********************************************************************

 Alpha  occ. eigenvalues --  -24.84936 -24.84776 -24.84434 -24.84172 -24.84143
 Alpha  occ. eigenvalues --  -24.84068 -24.83719 -24.83537 -24.83491 -24.83398
 Alpha  occ. eigenvalues --  -24.83280 -24.83212 -24.83165 -24.82954 -24.82856
 Alpha  occ. eigenvalues --  -24.82496 -24.82361 -24.82138 -24.82073 -19.33487
 Alpha  occ. eigenvalues --  -19.32650 -19.23745 -19.23088 -14.55435 -14.52686
 Alpha  occ. eigenvalues --  -14.50734 -10.60247 -10.59421 -10.55825 -10.55505
 Alpha  occ. eigenvalues --  -10.53180 -10.53147 -10.49256 -10.49256 -10.45893
 Alpha  occ. eigenvalues --  -10.45292 -10.38302  -1.44084  -1.43207  -1.42143
 Alpha  occ. eigenvalues --   -1.42029  -1.39806  -1.38232  -1.35938  -1.35409
 Alpha  occ. eigenvalues --   -1.35036  -1.34743  -1.33995  -1.33563  -1.33315
 Alpha  occ. eigenvalues --   -1.32989  -1.32916  -1.32642  -1.32435  -1.32203
 Alpha  occ. eigenvalues --   -1.31132  -1.21273  -1.20915  -1.20004  -1.16930
 Alpha  occ. eigenvalues --   -1.10940  -1.08118  -1.02093  -0.93539  -0.93075
 Alpha  occ. eigenvalues --   -0.86329  -0.85099  -0.82785  -0.82713  -0.80091
 Alpha  occ. eigenvalues --   -0.79101  -0.77337  -0.75611  -0.74371  -0.73502
 Alpha  occ. eigenvalues --   -0.72795  -0.71787  -0.71398  -0.71142  -0.70551
 Alpha  occ. eigenvalues --   -0.70288  -0.69882  -0.69600  -0.68952  -0.68888
 Alpha  occ. eigenvalues --   -0.68124  -0.67720  -0.67081  -0.66249  -0.65827
 Alpha  occ. eigenvalues --   -0.65076  -0.64187  -0.63690  -0.63403  -0.60503
 Alpha  occ. eigenvalues --   -0.59710  -0.59458  -0.58173  -0.57936  -0.57697
 Alpha  occ. eigenvalues --   -0.57180  -0.57154  -0.56865  -0.56556  -0.56163
 Alpha  occ. eigenvalues --   -0.56111  -0.55847  -0.55702  -0.55409  -0.54983
 Alpha  occ. eigenvalues --   -0.54619  -0.54288  -0.54121  -0.53756  -0.53702
 Alpha  occ. eigenvalues --   -0.53534  -0.53196  -0.52849  -0.52639  -0.52341
 Alpha  occ. eigenvalues --   -0.51946  -0.51833  -0.51670  -0.51345  -0.50970
 Alpha  occ. eigenvalues --   -0.50876  -0.50767  -0.50444  -0.50360  -0.50291
 Alpha  occ. eigenvalues --   -0.50054  -0.49706  -0.49587  -0.49422  -0.49075
 Alpha  occ. eigenvalues --   -0.48691  -0.48402  -0.47989  -0.45557  -0.44121
 Alpha  occ. eigenvalues --   -0.43320  -0.40025  -0.38106  -0.37920  -0.36685
 Alpha  occ. eigenvalues --   -0.35004
 Alpha virt. eigenvalues --    0.01491   0.02987   0.05096   0.05567   0.06211
 Alpha virt. eigenvalues --    0.09069   0.09777   0.12821   0.14823   0.16338
 Alpha virt. eigenvalues --    0.16793   0.18051   0.18517   0.19291   0.19868
 Alpha virt. eigenvalues --    0.20236   0.20963   0.21876   0.22270   0.22463
 Alpha virt. eigenvalues --    0.22781   0.22981   0.23317   0.23941   0.24520
 Alpha virt. eigenvalues --    0.24714   0.25546   0.25728   0.27229   0.27456
 Alpha virt. eigenvalues --    0.28105   0.29405   0.30647   0.30686   0.32565
 Alpha virt. eigenvalues --    0.33567   0.34228   0.39390   0.40666   0.41272
 Alpha virt. eigenvalues --    0.45566   0.47134   0.47295   0.47667   0.49237
 Alpha virt. eigenvalues --    0.50289   0.50753   0.51123   0.51571   0.52556
 Alpha virt. eigenvalues --    0.52927   0.54398   0.54918   0.55199   0.55543
 Alpha virt. eigenvalues --    0.56099   0.56709   0.57435   0.58905   0.59616
 Alpha virt. eigenvalues --    0.60144   0.60687   0.61548   0.63113   0.64102
 Alpha virt. eigenvalues --    0.64787   0.65973   0.67013   0.67476   0.69743
 Alpha virt. eigenvalues --    0.71887   0.72093   0.73922   0.76196   0.78816
 Alpha virt. eigenvalues --    0.79727   0.81102   0.81991   0.82633   0.84385
 Alpha virt. eigenvalues --    0.84847   0.86879   0.88051   0.89192   0.89729
 Alpha virt. eigenvalues --    0.90818   0.92062   0.92779   0.94592   0.96324
 Alpha virt. eigenvalues --    0.97000   0.98210   0.98776   1.01609   1.02093
 Alpha virt. eigenvalues --    1.02579   1.04816   1.05048   1.06150   1.07345
 Alpha virt. eigenvalues --    1.08017   1.08555   1.09515   1.09947   1.10503
 Alpha virt. eigenvalues --    1.11249   1.12192   1.12642   1.13321   1.14111
 Alpha virt. eigenvalues --    1.14919   1.15573   1.15870   1.16520   1.17212
 Alpha virt. eigenvalues --    1.17709   1.18514   1.18813   1.19389   1.20206
 Alpha virt. eigenvalues --    1.20642   1.21147   1.22326   1.23166   1.25682
 Alpha virt. eigenvalues --    1.25912   1.26996   1.27554   1.28386   1.28675
 Alpha virt. eigenvalues --    1.30165   1.30209   1.31344   1.32208   1.32447
 Alpha virt. eigenvalues --    1.32674   1.33210   1.33888   1.34439   1.34648
 Alpha virt. eigenvalues --    1.35271   1.36062   1.36169   1.36828   1.36920
 Alpha virt. eigenvalues --    1.37652   1.38636   1.39031   1.39175   1.39588
 Alpha virt. eigenvalues --    1.40016   1.40153   1.40536   1.41362   1.41610
 Alpha virt. eigenvalues --    1.41809   1.42328   1.42722   1.43373   1.43926
 Alpha virt. eigenvalues --    1.44713   1.44994   1.46065   1.47332   1.47841
 Alpha virt. eigenvalues --    1.48332   1.48665   1.50236   1.51177   1.51824
 Alpha virt. eigenvalues --    1.52748   1.53374   1.54063   1.54788   1.55682
 Alpha virt. eigenvalues --    1.56072   1.56918   1.57778   1.58915   1.59902
 Alpha virt. eigenvalues --    1.60941   1.61798   1.62821   1.63463   1.64572
 Alpha virt. eigenvalues --    1.65191   1.65645   1.66908   1.68342   1.68520
 Alpha virt. eigenvalues --    1.70069   1.71551   1.72047   1.72515   1.72896
 Alpha virt. eigenvalues --    1.73859   1.74245   1.75141   1.75786   1.76303
 Alpha virt. eigenvalues --    1.77078   1.77178   1.78702   1.79154   1.79749
 Alpha virt. eigenvalues --    1.81947   1.82174   1.82573   1.82960   1.83449
 Alpha virt. eigenvalues --    1.83911   1.84538   1.84611   1.84941   1.85502
 Alpha virt. eigenvalues --    1.86694   1.87052   1.87448   1.87556   1.87708
 Alpha virt. eigenvalues --    1.87806   1.88701   1.88888   1.89374   1.89565
 Alpha virt. eigenvalues --    1.90085   1.90830   1.91442   1.91828   1.92404
 Alpha virt. eigenvalues --    1.92981   1.93199   1.93540   1.93859   1.94412
 Alpha virt. eigenvalues --    1.95200   1.96212   1.96326   1.96658   1.97519
 Alpha virt. eigenvalues --    1.98564   1.98866   1.99516   2.00102   2.00454
 Alpha virt. eigenvalues --    2.00703   2.00968   2.01392   2.01515   2.02488
 Alpha virt. eigenvalues --    2.02918   2.03183   2.03612   2.03986   2.04235
 Alpha virt. eigenvalues --    2.04869   2.04969   2.05476   2.05810   2.06570
 Alpha virt. eigenvalues --    2.06710   2.07085   2.07924   2.08736   2.09192
 Alpha virt. eigenvalues --    2.09417   2.10278   2.10559   2.10896   2.11376
 Alpha virt. eigenvalues --    2.11631   2.11866   2.13129   2.13505   2.15174
 Alpha virt. eigenvalues --    2.15998   2.16525   2.17280   2.18227   2.19196
 Alpha virt. eigenvalues --    2.19654   2.19734   2.20736   2.21776   2.22409
 Alpha virt. eigenvalues --    2.23374   2.24995   2.26822   2.27330   2.28920
 Alpha virt. eigenvalues --    2.29159   2.30182   2.30911   2.31235   2.32908
 Alpha virt. eigenvalues --    2.34708   2.36498   2.37675   2.39877   2.41426
 Alpha virt. eigenvalues --    2.42263   2.42757   2.43597   2.44215   2.45235
 Alpha virt. eigenvalues --    2.45890   2.46222   2.47423   2.48394   2.49520
 Alpha virt. eigenvalues --    2.49760   2.51701   2.52417   2.53268   2.55589
 Alpha virt. eigenvalues --    2.56467   2.57850   2.58812   2.61379   2.62721
 Alpha virt. eigenvalues --    2.63232   2.65134   2.65858   2.66176   2.66779
 Alpha virt. eigenvalues --    2.67279   2.68663   2.69751   2.71353   2.72932
 Alpha virt. eigenvalues --    2.74338   2.76839   2.78864   2.80016   2.81701
 Alpha virt. eigenvalues --    2.83152   2.83724   2.84088   2.85364   2.86085
 Alpha virt. eigenvalues --    2.88399   2.88804   2.89065   2.89960   2.90904
 Alpha virt. eigenvalues --    2.92710   2.92955   2.94944   2.96116   2.96575
 Alpha virt. eigenvalues --    2.97756   2.98756   3.00347   3.03304   3.05117
 Alpha virt. eigenvalues --    3.05161   3.06324   3.06430   3.06927   3.08105
 Alpha virt. eigenvalues --    3.08981   3.09541   3.10360   3.13278   3.15299
 Alpha virt. eigenvalues --    3.16030   3.17543   3.18192   3.19435   3.20240
 Alpha virt. eigenvalues --    3.21475   3.22639   3.26382   3.28334   3.29608
 Alpha virt. eigenvalues --    3.30353   3.34849   3.35478   3.37099   3.38404
 Alpha virt. eigenvalues --    3.39788   3.51513   4.02610   4.08051   4.13379
 Alpha virt. eigenvalues --    4.21272   4.22677   4.26149   4.31699   4.33507
 Alpha virt. eigenvalues --    4.36187   4.36840   4.39435   4.43797   4.45672
 Alpha virt. eigenvalues --    4.48894   4.53468   4.60222   4.62416   4.68319
 Alpha virt. eigenvalues --    4.69965   4.74018   4.76294   4.81687   4.93406
 Alpha virt. eigenvalues --    5.01396   5.05096   5.15870   5.27716   5.36998
 Alpha virt. eigenvalues --    5.40085   5.61195   5.66192   5.70327   5.94741
 Alpha virt. eigenvalues --    6.17590   6.26007   6.34399   6.45130
          Condensed to atoms (all electrons):
               1          2          3          4          5          6
     1  O    8.071718   0.614188  -0.089178  -0.002225   0.001978   0.000033
     2  C    0.614188   4.284853   0.232513  -0.004863  -0.050882   0.003261
     3  N   -0.089178   0.232513   6.849264   0.132959   0.237935  -0.035001
     4  F   -0.002225  -0.004863   0.132959   9.088893  -0.017478   0.001148
     5  C    0.001978  -0.050882   0.237935  -0.017478   4.759717   0.210179
     6  N    0.000033   0.003261  -0.035001   0.001148   0.210179   7.421809
     7  C   -0.000001   0.000338   0.002519  -0.000008  -0.023217   0.202926
     8  F    0.000000   0.000022  -0.000012   0.000000  -0.000286  -0.072668
     9  F    0.000000  -0.000010   0.000374   0.000000   0.001915  -0.040860
    10  C    0.000000  -0.000021   0.000027   0.000000   0.002896  -0.053631
    11  F    0.000000   0.000000   0.000000   0.000000  -0.000040  -0.000172
    12  O    0.000000   0.000007  -0.000016   0.000000  -0.000178  -0.000541
    13  C    0.000000   0.000011   0.000043   0.000000  -0.000032   0.002410
    14  F    0.000000   0.000000  -0.000177   0.000000   0.000980  -0.002222
    15  F    0.000000   0.000000  -0.000001   0.000000   0.000001  -0.000040
    16  F    0.000000   0.000000   0.000000   0.000000   0.000000   0.000008
    17  C    0.000000   0.000000   0.000001   0.000000  -0.000046   0.002835
    18  F    0.000000   0.000000   0.000000   0.000000   0.000011  -0.000051
    19  F    0.000000   0.000000   0.000000   0.000000   0.000001   0.000054
    20  F    0.000000   0.000000   0.000000   0.000000   0.000000  -0.000009
    21  C   -0.000537  -0.016084   0.003126   0.000177  -0.034406   0.249270
    22  O   -0.000022  -0.000728   0.000111   0.000000   0.002615  -0.093313
    23  N   -0.092582   0.141405  -0.108609   0.001371   0.022162  -0.101961
    24  C    0.012605  -0.007865   0.002169  -0.000009   0.000636   0.002243
    25  F   -0.001351   0.006361  -0.000008   0.000000   0.000027  -0.000003
    26  F    0.000018   0.001838  -0.000018   0.000000  -0.000002   0.000075
    27  C    0.006203  -0.008953  -0.000177   0.000000  -0.000050  -0.000070
    28  F   -0.017016   0.004861   0.000004   0.000000   0.000002   0.000000
    29  O    0.000026   0.000089   0.000000   0.000000   0.000000   0.000000
    30  C    0.000005  -0.000002   0.000000   0.000000   0.000000   0.000000
    31  F    0.000000   0.000000   0.000000   0.000000   0.000000   0.000000
    32  F    0.000000   0.000000   0.000000   0.000000   0.000000   0.000000
    33  F    0.000000   0.000000   0.000000   0.000000   0.000000   0.000000
    34  C   -0.001803   0.000625  -0.000027   0.000000   0.000023  -0.000004
    35  F   -0.002356   0.014963  -0.000980   0.000001  -0.000014  -0.000014
    36  F   -0.000003  -0.000011   0.000000   0.000000   0.000000   0.000000
    37  F    0.000000   0.000069   0.000000   0.000000   0.000000   0.000000
    38  H   -0.000066   0.002648  -0.031304   0.001296   0.385092  -0.023814
    39  H    0.000129   0.000767  -0.059612   0.002798   0.401053  -0.062613
               7          8          9         10         11         12
     1  O   -0.000001   0.000000   0.000000   0.000000   0.000000   0.000000
     2  C    0.000338   0.000022  -0.000010  -0.000021   0.000000   0.000007
     3  N    0.002519  -0.000012   0.000374   0.000027   0.000000  -0.000016
     4  F   -0.000008   0.000000   0.000000   0.000000   0.000000   0.000000
     5  C   -0.023217  -0.000286   0.001915   0.002896  -0.000040  -0.000178
     6  N    0.202926  -0.072668  -0.040860  -0.053631  -0.000172  -0.000541
     7  C    4.417278   0.295409   0.243256   0.186797  -0.025093  -0.041979
     8  F    0.295409   9.090414  -0.041691  -0.029128   0.000189   0.000577
     9  F    0.243256  -0.041691   9.131234  -0.034691   0.000316   0.000703
    10  C    0.186797  -0.029128  -0.034691   4.968941   0.239379   0.156516
    11  F   -0.025093   0.000189   0.000316   0.239379   9.099642  -0.040000
    12  O   -0.041979   0.000577   0.000703   0.156516  -0.040000   8.337570
    13  C   -0.006556   0.000078   0.002014  -0.003261   0.000260   0.242187
    14  F    0.010723   0.000002  -0.005609   0.005184   0.000000  -0.047883
    15  F   -0.000067   0.000000  -0.000001   0.000993  -0.000002  -0.038979
    16  F   -0.000235   0.000000  -0.000010  -0.007404  -0.000003  -0.047309
    17  C   -0.039241  -0.002225   0.012612   0.225378  -0.008920  -0.023811
    18  F    0.000683  -0.000039  -0.003656  -0.036035   0.000309  -0.001322
    19  F    0.010763   0.000027  -0.001388  -0.034437  -0.000814   0.000528
    20  F    0.001792  -0.000002   0.000000  -0.025756  -0.000916  -0.000663
    21  C   -0.008537   0.011428   0.001798  -0.006911   0.002270   0.003735
    22  O    0.010469  -0.002342   0.000013   0.008513  -0.007062  -0.001473
    23  N    0.001421  -0.000034  -0.000019  -0.000068  -0.000005   0.000004
    24  C   -0.000061   0.000004   0.000000  -0.000001   0.000003   0.000001
    25  F    0.000001   0.000000   0.000000   0.000000   0.000000   0.000000
    26  F    0.000006   0.000000   0.000000   0.000002   0.000000   0.000000
    27  C    0.000001   0.000000   0.000000   0.000000   0.000000   0.000000
    28  F    0.000000   0.000000   0.000000   0.000000   0.000000   0.000000
    29  O    0.000000   0.000000   0.000000   0.000000   0.000000   0.000000
    30  C    0.000000   0.000000   0.000000   0.000000   0.000000   0.000000
    31  F    0.000000   0.000000   0.000000   0.000000   0.000000   0.000000
    32  F    0.000000   0.000000   0.000000   0.000000   0.000000   0.000000
    33  F    0.000000   0.000000   0.000000   0.000000   0.000000   0.000000
    34  C    0.000000   0.000000   0.000000   0.000000   0.000000   0.000000
    35  F    0.000000   0.000000   0.000000   0.000000   0.000000   0.000000
    36  F    0.000000   0.000000   0.000000   0.000000   0.000000   0.000000
    37  F    0.000000   0.000000   0.000000   0.000000   0.000000   0.000000
    38  H   -0.007116   0.000095   0.009172   0.000405  -0.000001   0.000055
    39  H    0.003937   0.001473  -0.000508  -0.000110   0.000001  -0.000006
              13         14         15         16         17         18
     1  O    0.000000   0.000000   0.000000   0.000000   0.000000   0.000000
     2  C    0.000011   0.000000   0.000000   0.000000   0.000000   0.000000
     3  N    0.000043  -0.000177  -0.000001   0.000000   0.000001   0.000000
     4  F    0.000000   0.000000   0.000000   0.000000   0.000000   0.000000
     5  C   -0.000032   0.000980   0.000001   0.000000  -0.000046   0.000011
     6  N    0.002410  -0.002222  -0.000040   0.000008   0.002835  -0.000051
     7  C   -0.006556   0.010723  -0.000067  -0.000235  -0.039241   0.000683
     8  F    0.000078   0.000002   0.000000   0.000000  -0.002225  -0.000039
     9  F    0.002014  -0.005609  -0.000001  -0.000010   0.012612  -0.003656
    10  C   -0.003261   0.005184   0.000993  -0.007404   0.225378  -0.036035
    11  F    0.000260   0.000000  -0.000002  -0.000003  -0.008920   0.000309
    12  O    0.242187  -0.047883  -0.038979  -0.047309  -0.023811  -0.001322
    13  C    3.842259   0.288937   0.337805   0.301775  -0.004579   0.013216
    14  F    0.288937   9.070179  -0.036998  -0.033726  -0.004744  -0.000442
    15  F    0.337805  -0.036998   9.009666  -0.037274  -0.000073  -0.000001
    16  F    0.301775  -0.033726  -0.037274   9.050800   0.017423  -0.006889
    17  C   -0.004579  -0.004744  -0.000073   0.017423   4.187743   0.251357
    18  F    0.013216  -0.000442  -0.000001  -0.006889   0.251357   9.109743
    19  F    0.000065   0.000000   0.000000   0.000000   0.290364  -0.037614
    20  F   -0.000221   0.000011   0.000000  -0.000726   0.289138  -0.038136
    21  C    0.000279   0.000056  -0.000002   0.000001   0.000309  -0.000001
    22  O   -0.000004   0.000001   0.000000   0.000000   0.000262   0.000000
    23  N   -0.000010  -0.000001   0.000000   0.000000   0.000001   0.000000
    24  C    0.000000   0.000000   0.000000   0.000000   0.000000   0.000000
    25  F    0.000000   0.000000   0.000000   0.000000   0.000000   0.000000
    26  F    0.000000   0.000000   0.000000   0.000000   0.000000   0.000000
    27  C    0.000000   0.000000   0.000000   0.000000   0.000000   0.000000
    28  F    0.000000   0.000000   0.000000   0.000000   0.000000   0.000000
    29  O    0.000000   0.000000   0.000000   0.000000   0.000000   0.000000
    30  C    0.000000   0.000000   0.000000   0.000000   0.000000   0.000000
    31  F    0.000000   0.000000   0.000000   0.000000   0.000000   0.000000
    32  F    0.000000   0.000000   0.000000   0.000000   0.000000   0.000000
    33  F    0.000000   0.000000   0.000000   0.000000   0.000000   0.000000
    34  C    0.000000   0.000000   0.000000   0.000000   0.000000   0.000000
    35  F    0.000000   0.000000   0.000000   0.000000   0.000000   0.000000
    36  F    0.000000   0.000000   0.000000   0.000000   0.000000   0.000000
    37  F    0.000000   0.000000   0.000000   0.000000   0.000000   0.000000
    38  H   -0.000054   0.002970   0.000004   0.000002  -0.000025  -0.000002
    39  H    0.000012   0.000035   0.000000   0.000000   0.000006   0.000000
              19         20         21         22         23         24
     1  O    0.000000   0.000000  -0.000537  -0.000022  -0.092582   0.012605
     2  C    0.000000   0.000000  -0.016084  -0.000728   0.141405  -0.007865
     3  N    0.000000   0.000000   0.003126   0.000111  -0.108609   0.002169
     4  F    0.000000   0.000000   0.000177   0.000000   0.001371  -0.000009
     5  C    0.000001   0.000000  -0.034406   0.002615   0.022162   0.000636
     6  N    0.000054  -0.000009   0.249270  -0.093313  -0.101961   0.002243
     7  C    0.010763   0.001792  -0.008537   0.010469   0.001421  -0.000061
     8  F    0.000027  -0.000002   0.011428  -0.002342  -0.000034   0.000004
     9  F   -0.001388   0.000000   0.001798   0.000013  -0.000019   0.000000
    10  C   -0.034437  -0.025756  -0.006911   0.008513  -0.000068  -0.000001
    11  F   -0.000814  -0.000916   0.002270  -0.007062  -0.000005   0.000003
    12  O    0.000528  -0.000663   0.003735  -0.001473   0.000004   0.000001
    13  C    0.000065  -0.000221   0.000279  -0.000004  -0.000010   0.000000
    14  F    0.000000   0.000011   0.000056   0.000001  -0.000001   0.000000
    15  F    0.000000   0.000000  -0.000002   0.000000   0.000000   0.000000
    16  F    0.000000  -0.000726   0.000001   0.000000   0.000000   0.000000
    17  C    0.290364   0.289138   0.000309   0.000262   0.000001   0.000000
    18  F   -0.037614  -0.038136  -0.000001   0.000000   0.000000   0.000000
    19  F    9.054375  -0.038097  -0.000003  -0.000001   0.000000   0.000000
    20  F   -0.038097   9.068635  -0.000001   0.000000   0.000000   0.000000
    21  C   -0.000003  -0.000001   4.163141   0.576951   0.179670  -0.002586
    22  O   -0.000001   0.000000   0.576951   8.079340  -0.083827   0.015784
    23  N    0.000000   0.000000   0.179670  -0.083827   7.685472   0.157557
    24  C    0.000000   0.000000  -0.002586   0.015784   0.157557   4.349183
    25  F    0.000000   0.000000   0.006820  -0.002120  -0.073507   0.290667
    26  F    0.000000   0.000000   0.004722  -0.013475  -0.034345   0.244484
    27  C    0.000000   0.000000   0.003129   0.000259  -0.035656   0.245100
    28  F    0.000000   0.000000  -0.000030   0.000000  -0.000437  -0.023100
    29  O    0.000000   0.000000  -0.000014  -0.000001   0.001383  -0.015133
    30  C    0.000000   0.000000   0.000000   0.000000   0.000019   0.001192
    31  F    0.000000   0.000000   0.000000   0.000000   0.000000  -0.000194
    32  F    0.000000   0.000000   0.000000   0.000000   0.000000   0.000261
    33  F    0.000000   0.000000   0.000000   0.000000   0.000000  -0.000043
    34  C    0.000000   0.000000  -0.000225  -0.000023  -0.001947  -0.051315
    35  F    0.000000   0.000000   0.000558   0.000000  -0.003522  -0.002974
    36  F    0.000000   0.000000   0.000001   0.000000  -0.000003   0.001769
    37  F    0.000000   0.000000   0.000001   0.000000  -0.001199   0.006056
    38  H    0.000000   0.000000   0.001482  -0.000080  -0.000149   0.000016
    39  H    0.000000   0.000000   0.002987   0.000084  -0.000625  -0.000198
              25         26         27         28         29         30
     1  O   -0.001351   0.000018   0.006203  -0.017016   0.000026   0.000005
     2  C    0.006361   0.001838  -0.008953   0.004861   0.000089  -0.000002
     3  N   -0.000008  -0.000018  -0.000177   0.000004   0.000000   0.000000
     4  F    0.000000   0.000000   0.000000   0.000000   0.000000   0.000000
     5  C    0.000027  -0.000002  -0.000050   0.000002   0.000000   0.000000
     6  N   -0.000003   0.000075  -0.000070   0.000000   0.000000   0.000000
     7  C    0.000001   0.000006   0.000001   0.000000   0.000000   0.000000
     8  F    0.000000   0.000000   0.000000   0.000000   0.000000   0.000000
     9  F    0.000000   0.000000   0.000000   0.000000   0.000000   0.000000
    10  C    0.000000   0.000002   0.000000   0.000000   0.000000   0.000000
    11  F    0.000000   0.000000   0.000000   0.000000   0.000000   0.000000
    12  O    0.000000   0.000000   0.000000   0.000000   0.000000   0.000000
    13  C    0.000000   0.000000   0.000000   0.000000   0.000000   0.000000
    14  F    0.000000   0.000000   0.000000   0.000000   0.000000   0.000000
    15  F    0.000000   0.000000   0.000000   0.000000   0.000000   0.000000
    16  F    0.000000   0.000000   0.000000   0.000000   0.000000   0.000000
    17  C    0.000000   0.000000   0.000000   0.000000   0.000000   0.000000
    18  F    0.000000   0.000000   0.000000   0.000000   0.000000   0.000000
    19  F    0.000000   0.000000   0.000000   0.000000   0.000000   0.000000
    20  F    0.000000   0.000000   0.000000   0.000000   0.000000   0.000000
    21  C    0.006820   0.004722   0.003129  -0.000030  -0.000014   0.000000
    22  O   -0.002120  -0.013475   0.000259   0.000000  -0.000001   0.000000
    23  N   -0.073507  -0.034345  -0.035656  -0.000437   0.001383   0.000019
    24  C    0.290667   0.244484   0.245100  -0.023100  -0.015133   0.001192
    25  F    9.096959  -0.037803  -0.024471  -0.000180  -0.000373   0.000018
    26  F   -0.037803   9.133461  -0.035705   0.000303  -0.000706  -0.000020
    27  C   -0.024471  -0.035705   4.967505   0.227963   0.159249  -0.001915
    28  F   -0.000180   0.000303   0.227963   9.116034  -0.051747   0.000059
    29  O   -0.000373  -0.000706   0.159249  -0.051747   8.345309   0.237539
    30  C    0.000018  -0.000020  -0.001915   0.000059   0.237539   3.826649
    31  F    0.000000   0.000002  -0.009323  -0.000019  -0.048562   0.300663
    32  F    0.000000   0.000000   0.013306  -0.002589  -0.045132   0.295084
    33  F    0.000000   0.000000   0.000856  -0.000027  -0.039112   0.338405
    34  C    0.001571   0.008369   0.167915  -0.014753  -0.028200  -0.003299
    35  F    0.000002  -0.000224  -0.026163  -0.000233   0.000557   0.000056
    36  F   -0.000001  -0.000001  -0.027278  -0.000120  -0.001211   0.010845
    37  F   -0.000001  -0.000877  -0.036915   0.000305   0.000601  -0.000320
    38  H    0.000000   0.000000   0.000000   0.000000   0.000000   0.000000
    39  H    0.000001  -0.000003   0.000007   0.000000   0.000000   0.000000
              31         32         33         34         35         36
     1  O    0.000000   0.000000   0.000000  -0.001803  -0.002356  -0.000003
     2  C    0.000000   0.000000   0.000000   0.000625   0.014963  -0.000011
     3  N    0.000000   0.000000   0.000000  -0.000027  -0.000980   0.000000
     4  F    0.000000   0.000000   0.000000   0.000000   0.000001   0.000000
     5  C    0.000000   0.000000   0.000000   0.000023  -0.000014   0.000000
     6  N    0.000000   0.000000   0.000000  -0.000004  -0.000014   0.000000
     7  C    0.000000   0.000000   0.000000   0.000000   0.000000   0.000000
     8  F    0.000000   0.000000   0.000000   0.000000   0.000000   0.000000
     9  F    0.000000   0.000000   0.000000   0.000000   0.000000   0.000000
    10  C    0.000000   0.000000   0.000000   0.000000   0.000000   0.000000
    11  F    0.000000   0.000000   0.000000   0.000000   0.000000   0.000000
    12  O    0.000000   0.000000   0.000000   0.000000   0.000000   0.000000
    13  C    0.000000   0.000000   0.000000   0.000000   0.000000   0.000000
    14  F    0.000000   0.000000   0.000000   0.000000   0.000000   0.000000
    15  F    0.000000   0.000000   0.000000   0.000000   0.000000   0.000000
    16  F    0.000000   0.000000   0.000000   0.000000   0.000000   0.000000
    17  C    0.000000   0.000000   0.000000   0.000000   0.000000   0.000000
    18  F    0.000000   0.000000   0.000000   0.000000   0.000000   0.000000
    19  F    0.000000   0.000000   0.000000   0.000000   0.000000   0.000000
    20  F    0.000000   0.000000   0.000000   0.000000   0.000000   0.000000
    21  C    0.000000   0.000000   0.000000  -0.000225   0.000558   0.000001
    22  O    0.000000   0.000000   0.000000  -0.000023   0.000000   0.000000
    23  N    0.000000   0.000000   0.000000  -0.001947  -0.003522  -0.000003
    24  C   -0.000194   0.000261  -0.000043  -0.051315  -0.002974   0.001769
    25  F    0.000000   0.000000   0.000000   0.001571   0.000002  -0.000001
    26  F    0.000002   0.000000   0.000000   0.008369  -0.000224  -0.000001
    27  C   -0.009323   0.013306   0.000856   0.167915  -0.026163  -0.027278
    28  F   -0.000019  -0.002589  -0.000027  -0.014753  -0.000233  -0.000120
    29  O   -0.048562  -0.045132  -0.039112  -0.028200   0.000557  -0.001211
    30  C    0.300663   0.295084   0.338405  -0.003299   0.000056   0.010845
    31  F    9.064975  -0.034314  -0.037576   0.017964   0.000000  -0.006486
    32  F   -0.034314   9.057965  -0.036239  -0.004638   0.000000  -0.001378
    33  F   -0.037576  -0.036239   9.012226  -0.000028   0.000000  -0.000003
    34  C    0.017964  -0.004638  -0.000028   4.268332   0.280861   0.277757
    35  F    0.000000   0.000000   0.000000   0.280861   9.062972  -0.039535
    36  F   -0.006486  -0.001378  -0.000003   0.277757  -0.039535   9.075737
    37  F   -0.000507   0.000013   0.000000   0.270414  -0.039194  -0.038531
    38  H    0.000000   0.000000   0.000000   0.000000   0.000000   0.000000
    39  H    0.000000   0.000000   0.000000   0.000017   0.000308   0.000000
              37         38         39
     1  O    0.000000  -0.000066   0.000129
     2  C    0.000069   0.002648   0.000767
     3  N    0.000000  -0.031304  -0.059612
     4  F    0.000000   0.001296   0.002798
     5  C    0.000000   0.385092   0.401053
     6  N    0.000000  -0.023814  -0.062613
     7  C    0.000000  -0.007116   0.003937
     8  F    0.000000   0.000095   0.001473
     9  F    0.000000   0.009172  -0.000508
    10  C    0.000000   0.000405  -0.000110
    11  F    0.000000  -0.000001   0.000001
    12  O    0.000000   0.000055  -0.000006
    13  C    0.000000  -0.000054   0.000012
    14  F    0.000000   0.002970   0.000035
    15  F    0.000000   0.000004   0.000000
    16  F    0.000000   0.000002   0.000000
    17  C    0.000000  -0.000025   0.000006
    18  F    0.000000  -0.000002   0.000000
    19  F    0.000000   0.000000   0.000000
    20  F    0.000000   0.000000   0.000000
    21  C    0.000001   0.001482   0.002987
    22  O    0.000000  -0.000080   0.000084
    23  N   -0.001199  -0.000149  -0.000625
    24  C    0.006056   0.000016  -0.000198
    25  F   -0.000001   0.000000   0.000001
    26  F   -0.000877   0.000000  -0.000003
    27  C   -0.036915   0.000000   0.000007
    28  F    0.000305   0.000000   0.000000
    29  O    0.000601   0.000000   0.000000
    30  C   -0.000320   0.000000   0.000000
    31  F   -0.000507   0.000000   0.000000
    32  F    0.000013   0.000000   0.000000
    33  F    0.000000   0.000000   0.000000
    34  C    0.270414   0.000000   0.000017
    35  F   -0.039194   0.000000   0.000308
    36  F   -0.038531   0.000000   0.000000
    37  F    9.082868   0.000000   0.000000
    38  H    0.000000   0.497393  -0.033634
    39  H    0.000000  -0.033634   0.566569
 Mulliken charges:
               1
     1  O   -0.499764
     2  C    0.780599
     3  N   -0.135924
     4  F   -0.204060
     5  C    0.099407
     6  N   -0.609265
     7  C    0.763792
     8  F   -0.251292
     9  F   -0.274963
    10  C    0.436423
    11  F   -0.259345
    12  O   -0.497722
    13  C    0.983368
    14  F   -0.247276
    15  F   -0.235031
    16  F   -0.236432
    17  C    0.806236
    18  F   -0.251131
    19  F   -0.243825
    20  F   -0.255051
    21  C    0.857423
    22  O   -0.489934
    23  N   -0.651961
    24  C    0.773749
    25  F   -0.262611
    26  F   -0.270101
    27  C    0.415182
    28  F   -0.239278
    29  O   -0.514563
    30  C    0.995022
    31  F   -0.246622
    32  F   -0.242339
    33  F   -0.238459
    34  C    0.812412
    35  F   -0.245071
    36  F   -0.251547
    37  F   -0.242783
    38  H    0.195613
    39  H    0.177125
 Sum of Mulliken charges =   0.00000
 Mulliken charges with hydrogens summed into heavy atoms:
               1
     1  O   -0.499764
     2  C    0.780599
     3  N   -0.135924
     4  F   -0.204060
     5  C    0.472145
     6  N   -0.609265
     7  C    0.763792
     8  F   -0.251292
     9  F   -0.274963
    10  C    0.436423
    11  F   -0.259345
    12  O   -0.497722
    13  C    0.983368
    14  F   -0.247276
    15  F   -0.235031
    16  F   -0.236432
    17  C    0.806236
    18  F   -0.251131
    19  F   -0.243825
    20  F   -0.255051
    21  C    0.857423
    22  O   -0.489934
    23  N   -0.651961
    24  C    0.773749
    25  F   -0.262611
    26  F   -0.270101
    27  C    0.415182
    28  F   -0.239278
    29  O   -0.514563
    30  C    0.995022
    31  F   -0.246622
    32  F   -0.242339
    33  F   -0.238459
    34  C    0.812412
    35  F   -0.245071
    36  F   -0.251547
    37  F   -0.242783
 Electronic spatial extent (au):  <R**2>=          18757.7074
 Charge=              0.0000 electrons
 Dipole moment (field-independent basis, Debye):
    X=             -2.7753    Y=             -4.1470    Z=             -0.2564  Tot=              4.9966
 Quadrupole moment (field-independent basis, Debye-Ang):
   XX=           -197.0884   YY=           -191.9931   ZZ=           -203.2726
   XY=              3.5047   XZ=              9.2192   YZ=             -2.9332
 Traceless Quadrupole moment (field-independent basis, Debye-Ang):
   XX=              0.3630   YY=              5.4583   ZZ=             -5.8213
   XY=              3.5047   XZ=              9.2192   YZ=             -2.9332
 Octapole moment (field-independent basis, Debye-Ang**2):
  XXX=            -35.5588  YYY=            -90.5064  ZZZ=             31.3280  XYY=            -20.3890
  XXY=            -24.9192  XXZ=              1.4822  XZZ=            -31.4658  YZZ=            -18.7352
  YYZ=             -0.9022  XYZ=             -6.0318
 Hexadecapole moment (field-independent basis, Debye-Ang**3):
 XXXX=         -15500.3454 YYYY=          -1739.1126 ZZZZ=          -2116.9866 XXXY=             24.0781
 XXXZ=             86.1709 YYYX=             12.7565 YYYZ=           -148.7875 ZZZX=             79.5917
 ZZZY=           -166.3790 XXYY=          -2888.9195 XXZZ=          -2951.0911 YYZZ=           -640.8058
 XXYZ=            -55.4909 YYXZ=             22.4207 ZZXY=             18.6746
 N-N= 5.389281409241D+03 E-N=-1.735928367564D+04  KE= 2.761622213795D+03
 No NMR shielding tensors so no spin-rotation constants.
 Leave Link  601 at Sun Mar  3 17:44:48 2024, MaxMem=  5368709120 cpu:         2.5
 (Enter /home/k0335/k033513/app/g09/l9999.exe)
 1\1\GINC-C18U06N4\SP\RCAM-B3LYP\6-31G(d,p)\C11H2F19N3O4\K033513\03-Mar
 -2024\0\\#p CAM-B3LYP/6-31G(d,p) SCRF=(PCM,Solvent=Generic,Read) NoSym
 m out=wfn\\Title A1374950781_0\\0,1\O,0,1.872225,-0.5994,-2.358021\C,0
 ,0.96609,-0.716797,-1.542026\N,0,-0.114821,-1.528674,-1.787125\F,0,-0.
 064252,-2.391792,-2.862215\C,0,-1.028882,-1.80909,-0.735022\N,0,-1.323
 155,-0.593818,-0.043381\C,0,-2.536777,-0.554526,0.764256\F,0,-2.207677
 ,-0.920617,2.031966\F,0,-3.332153,-1.572774,0.326878\C,0,-3.356654,0.7
 71783,0.764162\F,0,-2.805016,1.639744,1.675739\O,0,-3.292384,1.506725,
 -0.467901\C,0,-4.069258,0.971274,-1.50398\F,0,-3.848762,-0.347384,-1.6
 14589\F,0,-3.714784,1.561527,-2.658296\F,0,-5.367778,1.205224,-1.27149
 8\C,0,-4.752158,0.42875,1.296861\F,0,-5.416024,-0.438284,0.499269\F,0,
 -4.706536,-0.125975,2.529013\F,0,-5.523564,1.539314,1.388452\C,0,-0.27
 4026,0.24435,0.267929\O,0,-0.446608,1.199393,1.013531\N,0,0.942555,-0.
 052433,-0.332549\C,0,2.058686,0.821894,0.010432\F,0,1.860671,2.015525,
 -0.628109\F,0,1.969055,1.114687,1.350753\C,0,3.547496,0.398188,-0.1911
 5\F,0,3.869151,0.293378,-1.503211\O,0,4.362793,1.47949,0.306726\C,0,5.
 723874,1.152833,0.390578\F,0,5.932014,0.429824,1.504349\F,0,6.135023,0
 .464276,-0.684809\F,0,6.436053,2.291201,0.479181\C,0,3.711998,-0.94353
 3,0.532871\F,0,2.829121,-1.879512,0.110248\F,0,4.942365,-1.475566,0.35
 5582\F,0,3.526234,-0.818586,1.867086\H,0,-1.924698,-2.231947,-1.196731
 \H,0,-0.579437,-2.52867,-0.042499\\Version=ES64L-G09RevD.01\HF=-2781.6
 213656\RMSD=7.882e-09\Dipole=-1.0918818,-1.6315558,-0.1008689\Quadrupo
 le=0.269865,4.058107,-4.3279721,2.6056821,6.8542297,-2.1807293\PG=C01 
 [X(C11H2F19N3O4)]\\@

 Writing a WFN file to "A1374950781/A1374950781_0.wfn"


 THE MORE ACCURATE THE CALCULATIONS BECOME, THE MORE THE CONCEPTS
 TEND TO VANISH INTO THIN AIR.
     -- R.S. MULLIKEN, J.C.P. 43,S2(1965)
 Job cpu time:       0 days  0 hours 17 minutes 31.4 seconds.
 File lengths (MBytes):  RWF=    354 Int=      0 D2E=      0 Chk=     13 Scr=      1
 Normal termination of Gaussian 09 at Sun Mar  3 17:44:49 2024.
