 Entering Gaussian System, Link 0=g09
 Initial command:
 /home/k0335/k033513/app/g09/l1.exe "/home/k0335/k033513/app/g09/scratch/Gau-2963136.inp" -scrdir="/home/k0335/k033513/app/g09/scratch/"
 Default is to use a total of  36 processors:
                               36 via shared-memory
                                1 via Linda
 Entering Link 1 = /home/k0335/k033513/app/g09/l1.exe PID=   2963137.
  
 Copyright (c) 1988,1990,1992,1993,1995,1998,2003,2009,2013,
            Gaussian, Inc.  All Rights Reserved.
  
 This is part of the Gaussian(R) 09 program.  It is based on
 the Gaussian(R) 03 system (copyright 2003, Gaussian, Inc.),
 the Gaussian(R) 98 system (copyright 1998, Gaussian, Inc.),
 the Gaussian(R) 94 system (copyright 1995, Gaussian, Inc.),
 the Gaussian 92(TM) system (copyright 1992, Gaussian, Inc.),
 the Gaussian 90(TM) system (copyright 1990, Gaussian, Inc.),
 the Gaussian 88(TM) system (copyright 1988, Gaussian, Inc.),
 the Gaussian 86(TM) system (copyright 1986, Carnegie Mellon
 University), and the Gaussian 82(TM) system (copyright 1983,
 Carnegie Mellon University). Gaussian is a federally registered
 trademark of Gaussian, Inc.
  
 This software contains proprietary and confidential information,
 including trade secrets, belonging to Gaussian, Inc.
  
 This software is provided under written license and may be
 used, copied, transmitted, or stored only in accord with that
 written license.
  
 The following legend is applicable only to US Government
 contracts under FAR:
  
                    RESTRICTED RIGHTS LEGEND
  
 Use, reproduction and disclosure by the US Government is
 subject to restrictions as set forth in subparagraphs (a)
 and (c) of the Commercial Computer Software - Restricted
 Rights clause in FAR 52.227-19.
  
 Gaussian, Inc.
 340 Quinnipiac St., Bldg. 40, Wallingford CT 06492
  
  
 ---------------------------------------------------------------
 Warning -- This program may not be used in any manner that
 competes with the business of Gaussian, Inc. or will provide
 assistance to any competitor of Gaussian, Inc.  The licensee
 of this program is prohibited from giving any competitor of
 Gaussian, Inc. access to this program.  By using this program,
 the user acknowledges that Gaussian, Inc. is engaged in the
 business of creating and licensing software in the field of
 computational chemistry and represents and warrants to the
 licensee that it is not a competitor of Gaussian, Inc. and that
 it will not use this program in any manner prohibited above.
 ---------------------------------------------------------------
  

 Cite this work as:
 Gaussian 09, Revision D.01,
 M. J. Frisch, G. W. Trucks, H. B. Schlegel, G. E. Scuseria, 
 M. A. Robb, J. R. Cheeseman, G. Scalmani, V. Barone, B. Mennucci, 
 G. A. Petersson, H. Nakatsuji, M. Caricato, X. Li, H. P. Hratchian, 
 A. F. Izmaylov, J. Bloino, G. Zheng, J. L. Sonnenberg, M. Hada, 
 M. Ehara, K. Toyota, R. Fukuda, J. Hasegawa, M. Ishida, T. Nakajima, 
 Y. Honda, O. Kitao, H. Nakai, T. Vreven, J. A. Montgomery, Jr., 
 J. E. Peralta, F. Ogliaro, M. Bearpark, J. J. Heyd, E. Brothers, 
 K. N. Kudin, V. N. Staroverov, T. Keith, R. Kobayashi, J. Normand, 
 K. Raghavachari, A. Rendell, J. C. Burant, S. S. Iyengar, J. Tomasi, 
 M. Cossi, N. Rega, J. M. Millam, M. Klene, J. E. Knox, J. B. Cross, 
 V. Bakken, C. Adamo, J. Jaramillo, R. Gomperts, R. E. Stratmann, 
 O. Yazyev, A. J. Austin, R. Cammi, C. Pomelli, J. W. Ochterski, 
 R. L. Martin, K. Morokuma, V. G. Zakrzewski, G. A. Voth, 
 P. Salvador, J. J. Dannenberg, S. Dapprich, A. D. Daniels, 
 O. Farkas, J. B. Foresman, J. V. Ortiz, J. Cioslowski, 
 and D. J. Fox, Gaussian, Inc., Wallingford CT, 2013.
 
 ******************************************
 Gaussian 09:  ES64L-G09RevD.01 24-Apr-2013
                 3-Feb-2025 
 ******************************************
 %nprocshared=24
 Will use up to   24 processors via shared memory.
 %mem=40GB
 %rwf=cytop/S2/S2_neu.rwf
 %nosave
 %chk=cytop/S2/S2_neu.chk
 ----------------------------------------------------------------------
 #p CAM-B3LYP/6-31G(d,p) SCRF=(PCM,Solvent=Generic,Read) NoSymm out=wfn
 ----------------------------------------------------------------------
 1/38=1,40=2/1;
 2/12=2,15=1,17=6,18=5,40=1/2;
 3/5=1,6=6,7=101,11=2,16=1,25=1,30=1,70=2203,72=-2,74=-40/1,2,3;
 4//1;
 5/5=2,38=5/2;
 6/7=2,8=2,9=2,10=2,28=1/1;
 99/5=1,6=100,9=1/99;
 Leave Link    1 at Mon Feb  3 21:52:25 2025, MaxMem=  5368709120 cpu:         0.9
 (Enter /home/k0335/k033513/app/g09/l101.exe)
 ------------
 Title S2_neu
 ------------
 Symbolic Z-matrix:
 Charge =  0 Multiplicity = 1
 F                    -0.21652  -0.18079   1.42478 
 C                     0.35816  -0.24255   0.19014 
 C                     1.34509   0.89344   0.01031 
 F                     0.65629   2.0683    0.03377 
 C                     2.44552   0.9261    1.06803 
 F                     3.23998   2.01247   0.92168 
 F                     3.24781  -0.15806   0.99409 
 F                     1.93627   0.96675   2.31927 
 F                     1.90296   0.84361  -1.23044 
 C                    -0.76059  -0.28827  -0.8603 
 O                    -0.97873  -1.6835   -1.21563 
 C                    -0.20059  -2.43721  -0.30098 
 F                     0.10059  -3.63105  -0.83995 
 F                    -0.97405  -2.64945   0.78475 
 C                     1.0013   -1.58764   0.01639 
 F                     1.68504  -1.98375   1.10364 
 F                     1.86897  -1.57343  -1.02315 
 C                    -2.12949   0.28683  -0.45345 
 F                    -3.0066    0.06873  -1.48462 
 C                    -2.1356    1.76158  -0.10226 
 F                    -3.3899    2.21428   0.13527 
 F                    -1.61657   2.51956  -1.09263 
 F                    -1.41984   2.0061    1.01958 
 F                    -2.62267  -0.44149   0.59301 
 F                    -0.33683   0.28946  -2.01131 
 
 NAtoms=     25 NQM=       25 NQMF=       0 NMMI=      0 NMMIF=      0
                NMic=       0 NMicF=      0.
                    Isotopes and Nuclear Properties:
 (Nuclear quadrupole moments (NQMom) in fm**2, nuclear magnetic moments (NMagM)
  in nuclear magnetons)

  Atom         1           2           3           4           5           6           7           8           9          10
 IAtWgt=          19          12          12          19          12          19          19          19          19          12
 AtmWgt=  18.9984033  12.0000000  12.0000000  18.9984033  12.0000000  18.9984033  18.9984033  18.9984033  18.9984033  12.0000000
 NucSpn=           1           0           0           1           0           1           1           1           1           0
 AtZEff=   0.0000000   0.0000000   0.0000000   0.0000000   0.0000000   0.0000000   0.0000000   0.0000000   0.0000000   0.0000000
 NQMom=    0.0000000   0.0000000   0.0000000   0.0000000   0.0000000   0.0000000   0.0000000   0.0000000   0.0000000   0.0000000
 NMagM=    2.6288670   0.0000000   0.0000000   2.6288670   0.0000000   2.6288670   2.6288670   2.6288670   2.6288670   0.0000000
 AtZNuc=   9.0000000   6.0000000   6.0000000   9.0000000   6.0000000   9.0000000   9.0000000   9.0000000   9.0000000   6.0000000

  Atom        11          12          13          14          15          16          17          18          19          20
 IAtWgt=          16          12          19          19          12          19          19          12          19          12
 AtmWgt=  15.9949146  12.0000000  18.9984033  18.9984033  12.0000000  18.9984033  18.9984033  12.0000000  18.9984033  12.0000000
 NucSpn=           0           0           1           1           0           1           1           0           1           0
 AtZEff=   0.0000000   0.0000000   0.0000000   0.0000000   0.0000000   0.0000000   0.0000000   0.0000000   0.0000000   0.0000000
 NQMom=    0.0000000   0.0000000   0.0000000   0.0000000   0.0000000   0.0000000   0.0000000   0.0000000   0.0000000   0.0000000
 NMagM=    0.0000000   0.0000000   2.6288670   2.6288670   0.0000000   2.6288670   2.6288670   0.0000000   2.6288670   0.0000000
 AtZNuc=   8.0000000   6.0000000   9.0000000   9.0000000   6.0000000   9.0000000   9.0000000   6.0000000   9.0000000   6.0000000

  Atom        21          22          23          24          25
 IAtWgt=          19          19          19          19          19
 AtmWgt=  18.9984033  18.9984033  18.9984033  18.9984033  18.9984033
 NucSpn=           1           1           1           1           1
 AtZEff=   0.0000000   0.0000000   0.0000000   0.0000000   0.0000000
 NQMom=    0.0000000   0.0000000   0.0000000   0.0000000   0.0000000
 NMagM=    2.6288670   2.6288670   2.6288670   2.6288670   2.6288670
 AtZNuc=   9.0000000   9.0000000   9.0000000   9.0000000   9.0000000
 Leave Link  101 at Mon Feb  3 21:52:25 2025, MaxMem=  5368709120 cpu:         0.7
 (Enter /home/k0335/k033513/app/g09/l202.exe)
                          Input orientation:                          
 ---------------------------------------------------------------------
 Center     Atomic      Atomic             Coordinates (Angstroms)
 Number     Number       Type             X           Y           Z
 ---------------------------------------------------------------------
      1          9           0       -0.216524   -0.180793    1.424777
      2          6           0        0.358164   -0.242545    0.190137
      3          6           0        1.345090    0.893435    0.010309
      4          9           0        0.656290    2.068303    0.033770
      5          6           0        2.445522    0.926104    1.068029
      6          9           0        3.239981    2.012467    0.921677
      7          9           0        3.247809   -0.158058    0.994089
      8          9           0        1.936271    0.966745    2.319270
      9          9           0        1.902962    0.843607   -1.230437
     10          6           0       -0.760592   -0.288274   -0.860296
     11          8           0       -0.978729   -1.683504   -1.215634
     12          6           0       -0.200587   -2.437214   -0.300981
     13          9           0        0.100590   -3.631049   -0.839950
     14          9           0       -0.974054   -2.649449    0.784750
     15          6           0        1.001295   -1.587642    0.016386
     16          9           0        1.685040   -1.983745    1.103645
     17          9           0        1.868967   -1.573432   -1.023151
     18          6           0       -2.129491    0.286833   -0.453445
     19          9           0       -3.006602    0.068727   -1.484617
     20          6           0       -2.135596    1.761578   -0.102258
     21          9           0       -3.389901    2.214281    0.135273
     22          9           0       -1.616565    2.519557   -1.092631
     23          9           0       -1.419843    2.006096    1.019582
     24          9           0       -2.622666   -0.441485    0.593010
     25          9           0       -0.336829    0.289458   -2.011305
 ---------------------------------------------------------------------
                    Distance matrix (angstroms):
                    1          2          3          4          5
     1  F    0.000000
     2  C    1.363237   0.000000
     3  C    2.365021   1.515524   0.000000
     4  F    2.784805   2.335241   1.362098   0.000000
     5  C    2.904992   2.548234   1.526692   2.361284   0.000000
     6  F    4.124430   3.731635   2.381898   2.732573   1.353798
     7  F    3.491076   3.000587   2.386169   3.548925   1.350755
     8  F    2.598362   2.913076   2.384569   2.841706   1.351515
     9  F    3.548489   2.363082   1.361306   2.156917   2.363075
    10  C    2.351408   1.535290   2.566766   2.891429   3.933487
    11  O    3.132230   2.416576   3.680175   4.279060   4.873465
    12  C    2.840762   2.317320   3.685002   4.598476   4.493105
    13  F    4.139301   3.550969   4.768928   5.792651   5.468705
    14  F    2.660404   2.814526   4.304674   5.047690   4.955636
    15  C    2.333639   1.501031   2.504790   3.672229   3.083936
    16  F    2.640020   2.372103   3.096630   4.315328   3.007794
    17  F    3.504435   2.350713   2.725421   3.981193   3.309551
    18  C    2.721366   2.623522   3.557492   3.342393   4.863568
    19  F    4.038734   3.771385   4.674630   4.440786   6.080851
    20  C    3.128495   3.212607   3.589083   2.811976   4.801482
    21  F    4.179656   4.481852   4.917356   4.050096   6.048272
    22  F    3.948335   3.629636   3.554174   2.576486   4.869096
    23  F    2.528763   2.984238   3.146665   2.299135   4.013699
    24  F    2.559163   3.014503   4.226658   4.166934   5.270908
    25  F    3.470197   2.369048   2.698252   2.886677   4.198701
                    6          7          8          9         10
     6  F    0.000000
     7  F    2.171747   0.000000
     8  F    2.178637   2.177480   0.000000
     9  F    2.790242   2.785761   3.551998   0.000000
    10  C    4.947062   4.418481   4.354054   2.917650   0.000000
    11  O    6.002151   5.007343   5.293070   3.832839   1.456199
    12  C    5.756046   4.331650   4.797793   4.006569   2.290062
    13  F    6.693906   5.032927   5.872828   4.839790   3.451984
    14  F    6.285722   4.906626   4.888926   4.953750   2.885635
    15  C    4.334980   2.836625   3.564035   2.877246   2.358214
    16  F    4.291930   2.405698   3.200977   3.672785   3.565502
    17  F    4.303569   2.823782   4.198667   2.426149   2.931336
    18  C    5.805170   5.586469   4.967962   4.144200   1.539532
    19  F    6.970522   6.731498   6.301427   4.976833   2.358344
    20  C    5.477976   5.819624   4.803713   4.292483   2.582083
    21  F    6.679408   7.101039   5.890187   5.635451   3.763935
    22  F    5.282103   5.931792   5.164779   3.900624   2.944586
    23  F    4.660857   5.145016   3.746057   4.177918   3.038534
    24  F    6.364003   5.890982   5.074149   5.045565   2.367043
    25  F    4.936063   4.699180   4.937568   2.435878   1.355792
                   11         12         13         14         15
    11  O    0.000000
    12  C    1.417806   0.000000
    13  F    2.258096   1.344038   0.000000
    14  F    2.221398   1.349854   2.181295   0.000000
    15  C    2.334000   1.505661   2.391672   2.370616   0.000000
    16  F    3.544695   2.394618   3.000276   2.759644   1.344075
    17  F    2.856315   2.355993   2.719284   3.536819   1.354140
    18  C    2.405704   3.341309   4.524649   3.389677   3.679160
    19  F    2.693499   3.943914   4.874277   4.082862   4.589096
    20  C    3.800860   4.627484   5.884313   4.646840   4.590363
    21  F    4.778224   5.656717   6.877679   5.469370   5.809592
    22  F    4.252962   5.215485   6.390808   5.536786   4.995217
    23  F    4.336349   4.793065   6.127559   4.682731   4.447838
    24  F    2.741593   3.263222   4.432022   2.762208   3.844381
    25  F    2.222095   3.221570   4.115068   4.106234   3.070116
                   16         17         18         19         20
    16  F    0.000000
    17  F    2.173809   0.000000
    18  C    4.704328   4.446664   0.000000
    19  F    5.737878   5.165347   1.371207   0.000000
    20  C    5.484424   5.292151   1.515996   2.352724   0.000000
    21  F    6.657041   6.583647   2.377031   2.715578   1.354490
    22  F    6.000329   5.376460   2.378384   2.844719   1.350838
    23  F    5.056303   5.272765   2.372609   3.541499   1.353003
    24  F    4.603873   4.905920   1.367017   2.173536   2.360958
    25  F    4.354115   3.051613   2.374989   2.730167   3.007850
                   21         22         23         24         25
    21  F    0.000000
    22  F    2.178454   0.000000
    23  F    2.169440   2.182610   0.000000
    24  F    2.802011   3.552660   2.760326   0.000000
    25  F    4.199284   2.730390   3.647745   3.541438   0.000000
 Symmetry turned off by external request.
 Stoichiometry    C8F16O
 Framework group  C1[X(C8F16O)]
 Deg. of freedom    69
 Full point group                 C1      NOp   1
 Rotational constants (GHZ):      0.3164889      0.2482115      0.1792119
 Leave Link  202 at Mon Feb  3 21:52:25 2025, MaxMem=  5368709120 cpu:         0.0
 (Enter /home/k0335/k033513/app/g09/l301.exe)
 Standard basis: 6-31G(d,p) (6D, 7F)
 Ernie: Thresh=  0.10000D-02 Tol=  0.10000D-05 Strict=F.
   375 basis functions,   700 primitive gaussians,   375 cartesian basis functions
   100 alpha electrons      100 beta electrons
       nuclear repulsion energy      3161.2528353496 Hartrees.
 IExCor=20419 DFT=T Ex+Corr=CAM-B3LYP ExCW=0 ScaHFX=  1.000000
 ScaDFX=  1.000000  1.000000  1.000000  0.810000 ScalE2=  1.000000  1.000000
 IRadAn=      0 IRanWt=     -1 IRanGd=            0 ICorTp=0 IEmpDi=  4
  HFx wShort=  0.000000 wLong=  0.330000 cFull=  0.190000 cShort=  0.000000 cLong=  0.460000
  DFx wShort=  0.000000 wLong=  0.330000 cFull=  0.190000 cShort=  0.000000 cLong=  0.460000
 NAtoms=   25 NActive=   25 NUniq=   25 SFac= 1.00D+00 NAtFMM=   60 NAOKFM=F Big=F
 Integral buffers will be    131072 words long.
 Raffenetti 2 integral format.
 Two-electron integral symmetry is turned off.
 Using the following non-standard input for PCM:
 eps=2.05
 --- end of non-standard input.
 ------------------------------------------------------------------------------
 Polarizable Continuum Model (PCM)
 =================================
 Model                : PCM (using non-symmetric T matrix).
 Atomic radii         : UFF (Universal Force Field).
 Polarization charges : Total charges.
 Charge compensation  : None.
 Solution method      : On-the-fly selection.
 Cavity type          : Scaled VdW (van der Waals Surface) (Alpha=1.100).
 Cavity algorithm     : GePol (No added spheres)
                        Default sphere list used, NSphG=   25.
                        Lebedev-Laikov grids with approx.  5.0 points / Ang**2.
                        Smoothing algorithm: Karplus/York (Gamma=1.0000).
                        Polarization charges: spherical gaussians, with
                                              point-specific exponents (IZeta= 3).
                        Self-potential: point-specific (ISelfS= 7).
                        Self-field    : sphere-specific E.n sum rule (ISelfD= 2).
 Solvent              : Generic,
                        Eps                           =   2.050000
                        Eps(infinity)                 =   0.000000
                        RSolv                         =   0.000000 Ang.
                        Molar volume                  =   0.000000 cm**3/mol
                        Thermal expansion coefficient =   0.000000 K**-1
                        Absolute temperature          = 298.150000 K
                        Numeral density               =   0.000000 Ang**-3
                        Hydrogen bond acidity         =   0.000000
                        Hydrogen bond basicity        =   0.000000
                        Surface tension at interface  =   0.000000 (cal/mol)*Ang**-2
                        Carbon aromaticity            =   0.000000
                        Electronegative halogenicity  =   0.000000
 ------------------------------------------------------------------------------
 GePol: Number of generator spheres                  =      25
 GePol: Total number of spheres                      =      25
 GePol: Number of exposed spheres                    =      24 ( 96.00%)
 GePol: Number of points                             =    2223
 GePol: Average weight of points                     =       0.12
 GePol: Minimum weight of points                     =   0.12D-11
 GePol: Maximum weight of points                     =    0.20322
 GePol: Number of points with low weight             =      90
 GePol: Fraction of low-weight points (<1% of avg)   =       4.05%
 GePol: Cavity surface area                          =    276.735 Ang**2
 GePol: Cavity volume                                =    315.578 Ang**3
 Leave Link  301 at Mon Feb  3 21:52:25 2025, MaxMem=  5368709120 cpu:         0.7
 (Enter /home/k0335/k033513/app/g09/l302.exe)
 NPDir=0 NMtPBC=     1 NCelOv=     1 NCel=       1 NClECP=     1 NCelD=      1
         NCelK=      1 NCelE2=     1 NClLst=     1 CellRange=     0.0.
 One-electron integrals computed using PRISM.
 NBasis=   375 RedAO= T EigKep=  8.35D-04  NBF=   375
 NBsUse=   375 1.00D-06 EigRej= -1.00D+00 NBFU=   375
 Precomputing XC quadrature grid using
 IXCGrd= 4 IRadAn=           0 IRanWt=          -1 IRanGd=           0 AccXCQ= 0.00D+00.
 Generated NRdTot=       0 NPtTot=           0 NUsed=           0 NTot=          32
 NSgBfM=   372   372   372   372   372 MxSgAt=    25 MxSgA2=    25.
 Leave Link  302 at Mon Feb  3 21:52:26 2025, MaxMem=  5368709120 cpu:         5.1
 (Enter /home/k0335/k033513/app/g09/l303.exe)
 DipDrv:  MaxL=1.
 Leave Link  303 at Mon Feb  3 21:52:26 2025, MaxMem=  5368709120 cpu:         0.4
 (Enter /home/k0335/k033513/app/g09/l401.exe)
 ExpMin= 1.69D-01 ExpMax= 7.00D+03 ExpMxC= 1.05D+03 IAcc=1 IRadAn=         1 AccDes= 0.00D+00
 Harris functional with IExCor=20419 and IRadAn=       1 diagonalized for initial guess.
 HarFok:  IExCor=20419 AccDes= 0.00D+00 IRadAn=         1 IDoV= 1 UseB2=F ITyADJ=14
 ICtDFT=  3500011 ScaDFX=  1.000000  1.000000  1.000000  1.000000
 FoFCou: FMM=F IPFlag=           0 FMFlag=      100000 FMFlg1=           0
         NFxFlg=           0 DoJE=T BraDBF=F KetDBF=T FulRan=T
         wScrn=  0.000000 ICntrl=     500 IOpCl=  0 I1Cent=   200000004 NGrid=           0
         NMat0=    1 NMatS0=      1 NMatT0=    0 NMatD0=    1 NMtDS0=    0 NMtDT0=    0
 Symmetry not used in FoFCou.
 Harris En= -1919.91402675448    
 JPrj=0 DoOrth=F DoCkMO=F.
 Leave Link  401 at Mon Feb  3 21:52:26 2025, MaxMem=  5368709120 cpu:         5.9
 (Enter /home/k0335/k033513/app/g09/l502.exe)
 Closed shell SCF:
 Using DIIS extrapolation, IDIIS=  1040.
 Two-electron integral symmetry not used.
 Keep R1 ints in memory in canonical form, NReq=4997350725.
 IVT=      451725 IEndB=      451725 NGot=  5368709120 MDV=   397936896
 LenX=   397936896 LenY=   397795830
 Requested convergence on RMS density matrix=1.00D-08 within 128 cycles.
 Requested convergence on MAX density matrix=1.00D-06.
 Requested convergence on             energy=1.00D-06.
 No special actions if energy rises.
 FoFCou: FMM=F IPFlag=           0 FMFlag=           0 FMFlg1=           0
         NFxFlg=           0 DoJE=F BraDBF=F KetDBF=F FulRan=T
         wScrn=  0.000000 ICntrl=     600 IOpCl=  0 I1Cent=           0 NGrid=           0
         NMat0=    1 NMatS0=  70500 NMatT0=    0 NMatD0=    1 NMtDS0=    0 NMtDT0=    0
 Symmetry not used in FoFCou.

 Cycle   1  Pass 1  IDiag  1:
 Inv3:  Mode=1 IEnd=    14825187.
 Iteration    1 A*A^-1 deviation from unit magnitude is 6.99D-15 for   2214.
 Iteration    1 A*A^-1 deviation from orthogonality  is 2.59D-15 for   2214    758.
 Iteration    1 A^-1*A deviation from unit magnitude is 7.11D-15 for   2214.
 Iteration    1 A^-1*A deviation from orthogonality  is 1.63D-15 for   2192    475.
 E= -1976.34531425365    
 DIIS: error= 4.18D-02 at cycle   1 NSaved=   1.
 NSaved= 1 IEnMin= 1 EnMin= -1976.34531425365     IErMin= 1 ErrMin= 4.18D-02
 ErrMax= 4.18D-02  0.00D+00 EMaxC= 1.00D-01 BMatC= 1.65D+00 BMatP= 1.65D+00
 IDIUse=3 WtCom= 5.82D-01 WtEn= 4.18D-01
 Coeff-Com:  0.100D+01
 Coeff-En:   0.100D+01
 Coeff:      0.100D+01
 Gap=     0.457 Goal=   None    Shift=    0.000
 GapD=    0.457 DampG=2.000 DampE=0.500 DampFc=1.0000 IDamp=-1.
 RMSDP=3.95D-03 MaxDP=1.89D-01              OVMax= 8.60D-02

 Cycle   2  Pass 1  IDiag  1:
 E= -1976.61776778368     Delta-E=       -0.272453530029 Rises=F Damp=F
 DIIS: error= 1.94D-02 at cycle   2 NSaved=   2.
 NSaved= 2 IEnMin= 2 EnMin= -1976.61776778368     IErMin= 2 ErrMin= 1.94D-02
 ErrMax= 1.94D-02  0.00D+00 EMaxC= 1.00D-01 BMatC= 6.39D-01 BMatP= 1.65D+00
 IDIUse=3 WtCom= 8.06D-01 WtEn= 1.94D-01
 Coeff-Com:  0.367D+00 0.633D+00
 Coeff-En:   0.318D+00 0.682D+00
 Coeff:      0.358D+00 0.642D+00
 Gap=     0.463 Goal=   None    Shift=    0.000
 RMSDP=1.72D-03 MaxDP=9.34D-02 DE=-2.72D-01 OVMax= 5.24D-02

 Cycle   3  Pass 1  IDiag  1:
 E= -1976.90466108945     Delta-E=       -0.286893305770 Rises=F Damp=F
 DIIS: error= 9.08D-03 at cycle   3 NSaved=   3.
 NSaved= 3 IEnMin= 3 EnMin= -1976.90466108945     IErMin= 3 ErrMin= 9.08D-03
 ErrMax= 9.08D-03  0.00D+00 EMaxC= 1.00D-01 BMatC= 9.91D-02 BMatP= 6.39D-01
 IDIUse=3 WtCom= 9.09D-01 WtEn= 9.08D-02
 Coeff-Com:  0.902D-01 0.315D+00 0.595D+00
 Coeff-En:   0.000D+00 0.823D-01 0.918D+00
 Coeff:      0.820D-01 0.294D+00 0.624D+00
 Gap=     0.459 Goal=   None    Shift=    0.000
 RMSDP=7.89D-04 MaxDP=4.32D-02 DE=-2.87D-01 OVMax= 2.75D-02

 Cycle   4  Pass 1  IDiag  1:
 E= -1976.96211332007     Delta-E=       -0.057452230618 Rises=F Damp=F
 DIIS: error= 3.03D-03 at cycle   4 NSaved=   4.
 NSaved= 4 IEnMin= 4 EnMin= -1976.96211332007     IErMin= 4 ErrMin= 3.03D-03
 ErrMax= 3.03D-03  0.00D+00 EMaxC= 1.00D-01 BMatC= 7.06D-03 BMatP= 9.91D-02
 IDIUse=3 WtCom= 9.70D-01 WtEn= 3.03D-02
 Coeff-Com:  0.839D-03 0.539D-01 0.273D+00 0.672D+00
 Coeff-En:   0.000D+00 0.000D+00 0.170D-02 0.998D+00
 Coeff:      0.814D-03 0.523D-01 0.265D+00 0.682D+00
 Gap=     0.449 Goal=   None    Shift=    0.000
 RMSDP=1.94D-04 MaxDP=8.40D-03 DE=-5.75D-02 OVMax= 7.31D-03

 Cycle   5  Pass 1  IDiag  1:
 E= -1976.96717069672     Delta-E=       -0.005057376658 Rises=F Damp=F
 DIIS: error= 2.08D-04 at cycle   5 NSaved=   5.
 NSaved= 5 IEnMin= 5 EnMin= -1976.96717069672     IErMin= 5 ErrMin= 2.08D-04
 ErrMax= 2.08D-04  0.00D+00 EMaxC= 1.00D-01 BMatC= 6.59D-05 BMatP= 7.06D-03
 IDIUse=3 WtCom= 9.98D-01 WtEn= 2.08D-03
 Coeff-Com: -0.576D-03 0.175D-01 0.973D-01 0.270D+00 0.616D+00
 Coeff-En:   0.000D+00 0.000D+00 0.000D+00 0.000D+00 0.100D+01
 Coeff:     -0.574D-03 0.174D-01 0.971D-01 0.269D+00 0.617D+00
 Gap=     0.449 Goal=   None    Shift=    0.000
 RMSDP=2.27D-05 MaxDP=9.70D-04 DE=-5.06D-03 OVMax= 8.66D-04

 Cycle   6  Pass 1  IDiag  1:
 E= -1976.96721008650     Delta-E=       -0.000039389775 Rises=F Damp=F
 DIIS: error= 6.33D-05 at cycle   6 NSaved=   6.
 NSaved= 6 IEnMin= 6 EnMin= -1976.96721008650     IErMin= 6 ErrMin= 6.33D-05
 ErrMax= 6.33D-05  0.00D+00 EMaxC= 1.00D-01 BMatC= 9.51D-06 BMatP= 6.59D-05
 IDIUse=1 WtCom= 1.00D+00 WtEn= 0.00D+00
 Coeff-Com: -0.339D-03-0.317D-02-0.115D-01-0.173D-01 0.275D+00 0.757D+00
 Coeff:     -0.339D-03-0.317D-02-0.115D-01-0.173D-01 0.275D+00 0.757D+00
 Gap=     0.449 Goal=   None    Shift=    0.000
 RMSDP=6.86D-06 MaxDP=4.22D-04 DE=-3.94D-05 OVMax= 3.03D-04

 Cycle   7  Pass 1  IDiag  1:
 E= -1976.96721686449     Delta-E=       -0.000006777990 Rises=F Damp=F
 DIIS: error= 9.84D-06 at cycle   7 NSaved=   7.
 NSaved= 7 IEnMin= 7 EnMin= -1976.96721686449     IErMin= 7 ErrMin= 9.84D-06
 ErrMax= 9.84D-06  0.00D+00 EMaxC= 1.00D-01 BMatC= 2.10D-07 BMatP= 9.51D-06
 IDIUse=1 WtCom= 1.00D+00 WtEn= 0.00D+00
 Coeff-Com: -0.714D-04-0.174D-02-0.762D-02-0.169D-01 0.601D-01 0.227D+00
 Coeff-Com:  0.739D+00
 Coeff:     -0.714D-04-0.174D-02-0.762D-02-0.169D-01 0.601D-01 0.227D+00
 Coeff:      0.739D+00
 Gap=     0.449 Goal=   None    Shift=    0.000
 RMSDP=1.53D-06 MaxDP=8.91D-05 DE=-6.78D-06 OVMax= 9.62D-05

 Cycle   8  Pass 1  IDiag  1:
 E= -1976.96721703134     Delta-E=       -0.000000166848 Rises=F Damp=F
 DIIS: error= 4.74D-06 at cycle   8 NSaved=   8.
 NSaved= 8 IEnMin= 8 EnMin= -1976.96721703134     IErMin= 8 ErrMin= 4.74D-06
 ErrMax= 4.74D-06  0.00D+00 EMaxC= 1.00D-01 BMatC= 4.42D-08 BMatP= 2.10D-07
 IDIUse=1 WtCom= 1.00D+00 WtEn= 0.00D+00
 Coeff-Com:  0.722D-06-0.544D-03-0.262D-02-0.677D-02-0.592D-03 0.287D-01
 Coeff-Com:  0.336D+00 0.645D+00
 Coeff:      0.722D-06-0.544D-03-0.262D-02-0.677D-02-0.592D-03 0.287D-01
 Coeff:      0.336D+00 0.645D+00
 Gap=     0.449 Goal=   None    Shift=    0.000
 RMSDP=5.78D-07 MaxDP=3.76D-05 DE=-1.67D-07 OVMax= 3.30D-05

 Cycle   9  Pass 1  IDiag  1:
 E= -1976.96721706472     Delta-E=       -0.000000033383 Rises=F Damp=F
 DIIS: error= 1.13D-06 at cycle   9 NSaved=   9.
 NSaved= 9 IEnMin= 9 EnMin= -1976.96721706472     IErMin= 9 ErrMin= 1.13D-06
 ErrMax= 1.13D-06  0.00D+00 EMaxC= 1.00D-01 BMatC= 3.59D-09 BMatP= 4.42D-08
 IDIUse=1 WtCom= 1.00D+00 WtEn= 0.00D+00
 Coeff-Com:  0.935D-05 0.215D-04 0.803D-06-0.365D-03-0.794D-02-0.187D-01
 Coeff-Com:  0.259D-01 0.244D+00 0.757D+00
 Coeff:      0.935D-05 0.215D-04 0.803D-06-0.365D-03-0.794D-02-0.187D-01
 Coeff:      0.259D-01 0.244D+00 0.757D+00
 Gap=     0.449 Goal=   None    Shift=    0.000
 RMSDP=2.00D-07 MaxDP=1.07D-05 DE=-3.34D-08 OVMax= 1.40D-05

 Cycle  10  Pass 1  IDiag  1:
 E= -1976.96721706773     Delta-E=       -0.000000003014 Rises=F Damp=F
 DIIS: error= 3.98D-07 at cycle  10 NSaved=  10.
 NSaved=10 IEnMin=10 EnMin= -1976.96721706773     IErMin=10 ErrMin= 3.98D-07
 ErrMax= 3.98D-07  0.00D+00 EMaxC= 1.00D-01 BMatC= 3.05D-10 BMatP= 3.59D-09
 IDIUse=1 WtCom= 1.00D+00 WtEn= 0.00D+00
 Coeff-Com:  0.348D-05 0.559D-04 0.226D-03 0.453D-03-0.304D-02-0.982D-02
 Coeff-Com: -0.187D-01 0.430D-01 0.292D+00 0.695D+00
 Coeff:      0.348D-05 0.559D-04 0.226D-03 0.453D-03-0.304D-02-0.982D-02
 Coeff:     -0.187D-01 0.430D-01 0.292D+00 0.695D+00
 Gap=     0.449 Goal=   None    Shift=    0.000
 RMSDP=5.17D-08 MaxDP=2.25D-06 DE=-3.01D-09 OVMax= 3.30D-06

 Cycle  11  Pass 1  IDiag  1:
 E= -1976.96721706801     Delta-E=       -0.000000000272 Rises=F Damp=F
 DIIS: error= 1.36D-07 at cycle  11 NSaved=  11.
 NSaved=11 IEnMin=11 EnMin= -1976.96721706801     IErMin=11 ErrMin= 1.36D-07
 ErrMax= 1.36D-07  0.00D+00 EMaxC= 1.00D-01 BMatC= 1.77D-11 BMatP= 3.05D-10
 IDIUse=1 WtCom= 1.00D+00 WtEn= 0.00D+00
 Coeff-Com:  0.431D-06 0.166D-04 0.714D-04 0.179D-03-0.376D-03-0.170D-02
 Coeff-Com: -0.710D-02-0.201D-02 0.377D-01 0.212D+00 0.762D+00
 Coeff:      0.431D-06 0.166D-04 0.714D-04 0.179D-03-0.376D-03-0.170D-02
 Coeff:     -0.710D-02-0.201D-02 0.377D-01 0.212D+00 0.762D+00
 Gap=     0.449 Goal=   None    Shift=    0.000
 RMSDP=1.38D-08 MaxDP=5.58D-07 DE=-2.72D-10 OVMax= 9.65D-07

 Cycle  12  Pass 1  IDiag  1:
 E= -1976.96721706813     Delta-E=       -0.000000000121 Rises=F Damp=F
 DIIS: error= 4.36D-08 at cycle  12 NSaved=  12.
 NSaved=12 IEnMin=12 EnMin= -1976.96721706813     IErMin=12 ErrMin= 4.36D-08
 ErrMax= 4.36D-08  0.00D+00 EMaxC= 1.00D-01 BMatC= 3.86D-12 BMatP= 1.77D-11
 IDIUse=1 WtCom= 1.00D+00 WtEn= 0.00D+00
 Coeff-Com: -0.214D-06 0.127D-05 0.689D-05 0.330D-04 0.197D-03 0.389D-03
 Coeff-Com: -0.114D-02-0.608D-02-0.176D-01 0.141D-01 0.362D+00 0.648D+00
 Coeff:     -0.214D-06 0.127D-05 0.689D-05 0.330D-04 0.197D-03 0.389D-03
 Coeff:     -0.114D-02-0.608D-02-0.176D-01 0.141D-01 0.362D+00 0.648D+00
 Gap=     0.449 Goal=   None    Shift=    0.000
 RMSDP=5.03D-09 MaxDP=1.91D-07 DE=-1.21D-10 OVMax= 3.02D-07

 Error on total polarization charges =  0.00045
 SCF Done:  E(RCAM-B3LYP) =  -1976.96721707     A.U. after   12 cycles
            NFock= 12  Conv=0.50D-08     -V/T= 2.0068
 KE= 1.963685371806D+03 PE=-1.100916121700D+04 EE= 3.907255792778D+03
 Leave Link  502 at Mon Feb  3 21:53:03 2025, MaxMem=  5368709120 cpu:       339.0
 (Enter /home/k0335/k033513/app/g09/l601.exe)
 Copying SCF densities to generalized density rwf, IOpCl= 0 IROHF=0.

 **********************************************************************

            Population analysis using the SCF density.

 **********************************************************************

 Alpha  occ. eigenvalues --  -24.84240 -24.84150 -24.83994 -24.83936 -24.83766
 Alpha  occ. eigenvalues --  -24.83712 -24.83617 -24.83586 -24.83518 -24.83480
 Alpha  occ. eigenvalues --  -24.83464 -24.83320 -24.83218 -24.83130 -24.83094
 Alpha  occ. eigenvalues --  -24.83054 -19.32264 -10.55731 -10.55343 -10.53190
 Alpha  occ. eigenvalues --  -10.50404 -10.49925 -10.49617 -10.48675 -10.44154
 Alpha  occ. eigenvalues --   -1.42752  -1.42189  -1.41179  -1.39239  -1.38834
 Alpha  occ. eigenvalues --   -1.38257  -1.36648  -1.36313  -1.33625  -1.33446
 Alpha  occ. eigenvalues --   -1.33091  -1.32868  -1.32769  -1.32595  -1.32049
 Alpha  occ. eigenvalues --   -1.31536  -1.20553  -0.98422  -0.93227  -0.90838
 Alpha  occ. eigenvalues --   -0.86975  -0.81958  -0.78517  -0.76977  -0.75858
 Alpha  occ. eigenvalues --   -0.72815  -0.72656  -0.71130  -0.70737  -0.70458
 Alpha  occ. eigenvalues --   -0.69573  -0.69448  -0.69369  -0.68655  -0.67857
 Alpha  occ. eigenvalues --   -0.67039  -0.65964  -0.65670  -0.65270  -0.64643
 Alpha  occ. eigenvalues --   -0.63084  -0.59010  -0.58392  -0.57584  -0.57283
 Alpha  occ. eigenvalues --   -0.56944  -0.56734  -0.56568  -0.55927  -0.55891
 Alpha  occ. eigenvalues --   -0.55601  -0.54805  -0.54492  -0.54274  -0.54039
 Alpha  occ. eigenvalues --   -0.53894  -0.53656  -0.52941  -0.52688  -0.52326
 Alpha  occ. eigenvalues --   -0.51719  -0.51458  -0.51348  -0.51241  -0.50949
 Alpha  occ. eigenvalues --   -0.50714  -0.50253  -0.50138  -0.49720  -0.49034
 Alpha  occ. eigenvalues --   -0.48661  -0.46073  -0.45336  -0.44117  -0.42685
 Alpha virt. eigenvalues --    0.02230   0.05713   0.07138   0.09588   0.11252
 Alpha virt. eigenvalues --    0.12936   0.14840   0.17141   0.19165   0.22754
 Alpha virt. eigenvalues --    0.23898   0.24217   0.24483   0.25123   0.26503
 Alpha virt. eigenvalues --    0.27181   0.27497   0.28040   0.28594   0.30658
 Alpha virt. eigenvalues --    0.31419   0.33078   0.34150   0.36444   0.37140
 Alpha virt. eigenvalues --    0.44849   0.47983   0.49046   0.50322   0.51151
 Alpha virt. eigenvalues --    0.52188   0.52938   0.54369   0.54896   0.56947
 Alpha virt. eigenvalues --    0.57469   0.58880   0.60632   0.62866   0.63170
 Alpha virt. eigenvalues --    0.64238   0.66853   0.68410   0.68729   0.71298
 Alpha virt. eigenvalues --    0.73499   0.75606   0.77482   0.80535   0.86858
 Alpha virt. eigenvalues --    0.91646   0.92100   0.92930   0.96822   0.98828
 Alpha virt. eigenvalues --    1.01049   1.03030   1.04227   1.06167   1.08693
 Alpha virt. eigenvalues --    1.09410   1.09982   1.10632   1.11188   1.12561
 Alpha virt. eigenvalues --    1.12996   1.13523   1.14322   1.16305   1.18132
 Alpha virt. eigenvalues --    1.19179   1.19827   1.21470   1.22413   1.24588
 Alpha virt. eigenvalues --    1.25862   1.27418   1.27572   1.28332   1.29387
 Alpha virt. eigenvalues --    1.30021   1.30862   1.31838   1.33140   1.34154
 Alpha virt. eigenvalues --    1.35127   1.35727   1.36204   1.36714   1.36864
 Alpha virt. eigenvalues --    1.37945   1.38340   1.38930   1.39585   1.40456
 Alpha virt. eigenvalues --    1.40800   1.41035   1.41244   1.41759   1.42539
 Alpha virt. eigenvalues --    1.43024   1.44090   1.44734   1.45949   1.46500
 Alpha virt. eigenvalues --    1.47633   1.49308   1.50368   1.51030   1.52678
 Alpha virt. eigenvalues --    1.53840   1.54802   1.55192   1.57227   1.57509
 Alpha virt. eigenvalues --    1.57978   1.59886   1.61116   1.62588   1.64653
 Alpha virt. eigenvalues --    1.65850   1.67356   1.68872   1.70482   1.70725
 Alpha virt. eigenvalues --    1.72137   1.72809   1.73171   1.73728   1.74315
 Alpha virt. eigenvalues --    1.75632   1.77193   1.78307   1.79073   1.80432
 Alpha virt. eigenvalues --    1.81312   1.82609   1.82683   1.83697   1.84844
 Alpha virt. eigenvalues --    1.85072   1.86360   1.86409   1.87775   1.88361
 Alpha virt. eigenvalues --    1.89575   1.90155   1.90603   1.91540   1.92827
 Alpha virt. eigenvalues --    1.93197   1.95159   1.95900   1.96767   1.97198
 Alpha virt. eigenvalues --    1.98431   1.98581   1.99464   2.00695   2.01464
 Alpha virt. eigenvalues --    2.02859   2.02982   2.04241   2.04286   2.04434
 Alpha virt. eigenvalues --    2.05712   2.06225   2.06467   2.07081   2.07350
 Alpha virt. eigenvalues --    2.09248   2.09941   2.10092   2.10318   2.10712
 Alpha virt. eigenvalues --    2.11029   2.12038   2.13677   2.14902   2.15879
 Alpha virt. eigenvalues --    2.17650   2.17941   2.20917   2.21969   2.22960
 Alpha virt. eigenvalues --    2.25131   2.26897   2.28077   2.28816   2.29837
 Alpha virt. eigenvalues --    2.31710   2.33477   2.33925   2.34764   2.37387
 Alpha virt. eigenvalues --    2.38873   2.39938   2.40607   2.41599   2.42514
 Alpha virt. eigenvalues --    2.43411   2.44675   2.45316   2.46922   2.48875
 Alpha virt. eigenvalues --    2.51034   2.52643   2.55680   2.58292   2.59803
 Alpha virt. eigenvalues --    2.63028   2.64660   2.69422   2.70298   2.72813
 Alpha virt. eigenvalues --    2.74539   2.78382   2.80872   2.81635   2.83379
 Alpha virt. eigenvalues --    2.85470   2.87236   2.87978   2.88969   2.89662
 Alpha virt. eigenvalues --    2.91009   2.92874   2.93467   2.95156   2.96179
 Alpha virt. eigenvalues --    2.99437   3.00739   3.02822   3.06848   3.07889
 Alpha virt. eigenvalues --    3.08243   3.08828   3.11553   3.11761   3.13031
 Alpha virt. eigenvalues --    3.14902   3.16230   3.19749   3.21638   3.23179
 Alpha virt. eigenvalues --    3.25335   3.27922   3.32926   3.38842   3.39706
 Alpha virt. eigenvalues --    4.22633   4.27126   4.30909   4.37111   4.40756
 Alpha virt. eigenvalues --    4.53640   4.62811   4.66578   4.68631   4.74548
 Alpha virt. eigenvalues --    4.87910   4.96775   5.05243   5.11134   5.19759
 Alpha virt. eigenvalues --    5.23962   5.26876   5.35342   5.63505   5.68947
 Alpha virt. eigenvalues --    5.84884   6.33461   6.39157   6.59680   6.86205
          Condensed to atoms (all electrons):
               1          2          3          4          5          6
     1  F    9.146623   0.192922  -0.020222  -0.000375   0.001991   0.000000
     2  C    0.192922   5.751885   0.108001  -0.038315  -0.047965   0.002494
     3  C   -0.020222   0.108001   4.789126   0.242039   0.238582  -0.022282
     4  F   -0.000375  -0.038315   0.242039   9.113061  -0.016028  -0.000558
     5  C    0.001991  -0.047965   0.238582  -0.016028   4.186015   0.300378
     6  F    0.000000   0.002494  -0.022282  -0.000558   0.300378   9.045073
     7  F   -0.000076  -0.004468  -0.034162   0.000294   0.274947  -0.039815
     8  F    0.000028   0.006565  -0.036238  -0.000354   0.283458  -0.039267
     9  F    0.000294  -0.033704   0.232892  -0.039625  -0.013623  -0.000737
    10  C   -0.028635   0.097371  -0.026643   0.007306   0.003743  -0.000026
    11  O    0.000125  -0.027892   0.002889   0.000007  -0.000030   0.000000
    12  C    0.005407  -0.055017   0.002480  -0.000067   0.000157   0.000000
    13  F    0.000000   0.002337  -0.000021   0.000000   0.000000   0.000000
    14  F   -0.000088   0.006239   0.000156   0.000000  -0.000010   0.000000
    15  C   -0.020310   0.079595  -0.028892   0.002079  -0.009450   0.000014
    16  F   -0.000518  -0.028920  -0.007106  -0.000001   0.010873   0.000000
    17  F    0.000351  -0.053193   0.008431   0.000001  -0.001872   0.000001
    18  C    0.010119  -0.043491  -0.002852  -0.004709  -0.000078   0.000000
    19  F    0.000004   0.002135   0.000018   0.000001   0.000000   0.000000
    20  C   -0.002271  -0.003615   0.001244   0.011956   0.000012   0.000000
    21  F    0.000001  -0.000015   0.000005  -0.000003   0.000000   0.000000
    22  F    0.000006  -0.002489   0.001743  -0.001057   0.000001   0.000000
    23  F   -0.001089   0.012968  -0.000827  -0.007817  -0.000104   0.000000
    24  F   -0.000996   0.001342   0.000157   0.000002   0.000003   0.000000
    25  F    0.000389  -0.045138   0.018106  -0.001367   0.000197   0.000000
               7          8          9         10         11         12
     1  F   -0.000076   0.000028   0.000294  -0.028635   0.000125   0.005407
     2  C   -0.004468   0.006565  -0.033704   0.097371  -0.027892  -0.055017
     3  C   -0.034162  -0.036238   0.232892  -0.026643   0.002889   0.002480
     4  F    0.000294  -0.000354  -0.039625   0.007306   0.000007  -0.000067
     5  C    0.274947   0.283458  -0.013623   0.003743  -0.000030   0.000157
     6  F   -0.039815  -0.039267  -0.000737  -0.000026   0.000000   0.000000
     7  F    9.067983  -0.038211  -0.000335   0.000071   0.000000   0.000203
     8  F   -0.038211   9.066707   0.000299   0.000040   0.000000   0.000010
     9  F   -0.000335   0.000299   9.118849  -0.000360  -0.000052  -0.000150
    10  C    0.000071   0.000040  -0.000360   5.012050   0.180975  -0.037325
    11  O    0.000000   0.000000  -0.000052   0.180975   8.376927   0.189624
    12  C    0.000203   0.000010  -0.000150  -0.037325   0.189624   4.337364
    13  F    0.000000   0.000000   0.000000   0.001609  -0.039484   0.324820
    14  F    0.000000   0.000000   0.000000   0.000965  -0.053551   0.269019
    15  C    0.019973  -0.001522   0.002599  -0.033413  -0.047459   0.236436
    16  F   -0.007069  -0.000255   0.000000   0.002423   0.000788  -0.019593
    17  F   -0.000615   0.000002  -0.002806   0.015341  -0.002706  -0.017343
    18  C    0.000000   0.000005   0.000147   0.154935  -0.030038  -0.003444
    19  F    0.000000   0.000000   0.000000  -0.021420  -0.000775   0.000237
    20  C    0.000000  -0.000004  -0.000049  -0.049787   0.001774   0.000265
    21  F    0.000000   0.000000   0.000000   0.002082  -0.000003  -0.000001
    22  F    0.000000   0.000000  -0.000008   0.006852   0.000008  -0.000001
    23  F    0.000000   0.000001   0.000001  -0.004021   0.000002  -0.000014
    24  F    0.000000   0.000000   0.000000  -0.029381  -0.000863   0.002392
    25  F    0.000000   0.000000  -0.003568   0.258673  -0.046463   0.000014
              13         14         15         16         17         18
     1  F    0.000000  -0.000088  -0.020310  -0.000518   0.000351   0.010119
     2  C    0.002337   0.006239   0.079595  -0.028920  -0.053193  -0.043491
     3  C   -0.000021   0.000156  -0.028892  -0.007106   0.008431  -0.002852
     4  F    0.000000   0.000000   0.002079  -0.000001   0.000001  -0.004709
     5  C    0.000000  -0.000010  -0.009450   0.010873  -0.001872  -0.000078
     6  F    0.000000   0.000000   0.000014   0.000000   0.000001   0.000000
     7  F    0.000000   0.000000   0.019973  -0.007069  -0.000615   0.000000
     8  F    0.000000   0.000000  -0.001522  -0.000255   0.000002   0.000005
     9  F    0.000000   0.000000   0.002599   0.000000  -0.002806   0.000147
    10  C    0.001609   0.000965  -0.033413   0.002423   0.015341   0.154935
    11  O   -0.039484  -0.053551  -0.047459   0.000788  -0.002706  -0.030038
    12  C    0.324820   0.269019   0.236436  -0.019593  -0.017343  -0.003444
    13  F    9.020645  -0.040067  -0.026720  -0.000196  -0.000540  -0.000055
    14  F   -0.040067   9.098680  -0.035094   0.000019   0.000310   0.000481
    15  C   -0.026720  -0.035094   4.799129   0.263631   0.243776   0.002742
    16  F   -0.000196   0.000019   0.263631   9.079103  -0.038714  -0.000005
    17  F   -0.000540   0.000310   0.243776  -0.038714   9.105899   0.000081
    18  C   -0.000055   0.000481   0.002742  -0.000005   0.000081   4.787660
    19  F    0.000000  -0.000002  -0.000082   0.000000   0.000000   0.248404
    20  C    0.000000   0.000000  -0.000087   0.000000  -0.000001   0.219567
    21  F    0.000000   0.000000   0.000000   0.000000   0.000000  -0.020590
    22  F    0.000000   0.000000  -0.000002   0.000000   0.000000  -0.034818
    23  F    0.000000   0.000000   0.000133   0.000000   0.000000  -0.032721
    24  F    0.000000   0.000683  -0.000850   0.000000   0.000000   0.241009
    25  F   -0.000002  -0.000008   0.003310  -0.000001  -0.000405  -0.028000
              19         20         21         22         23         24
     1  F    0.000004  -0.002271   0.000001   0.000006  -0.001089  -0.000996
     2  C    0.002135  -0.003615  -0.000015  -0.002489   0.012968   0.001342
     3  C    0.000018   0.001244   0.000005   0.001743  -0.000827   0.000157
     4  F    0.000001   0.011956  -0.000003  -0.001057  -0.007817   0.000002
     5  C    0.000000   0.000012   0.000000   0.000001  -0.000104   0.000003
     6  F    0.000000   0.000000   0.000000   0.000000   0.000000   0.000000
     7  F    0.000000   0.000000   0.000000   0.000000   0.000000   0.000000
     8  F    0.000000  -0.000004   0.000000   0.000000   0.000001   0.000000
     9  F    0.000000  -0.000049   0.000000  -0.000008   0.000001   0.000000
    10  C   -0.021420  -0.049787   0.002082   0.006852  -0.004021  -0.029381
    11  O   -0.000775   0.001774  -0.000003   0.000008   0.000002  -0.000863
    12  C    0.000237   0.000265  -0.000001  -0.000001  -0.000014   0.002392
    13  F    0.000000   0.000000   0.000000   0.000000   0.000000   0.000000
    14  F   -0.000002   0.000000   0.000000   0.000000   0.000000   0.000683
    15  C   -0.000082  -0.000087   0.000000  -0.000002   0.000133  -0.000850
    16  F    0.000000   0.000000   0.000000   0.000000   0.000000   0.000000
    17  F    0.000000  -0.000001   0.000000   0.000000   0.000000   0.000000
    18  C    0.248404   0.219567  -0.020590  -0.034818  -0.032721   0.241009
    19  F    9.094196  -0.017574  -0.000515  -0.000324   0.000313  -0.038324
    20  C   -0.017574   4.228890   0.297042   0.274844   0.267772  -0.016459
    21  F   -0.000515   0.297042   9.048364  -0.038526  -0.039543  -0.000707
    22  F   -0.000324   0.274844  -0.038526   9.075614  -0.036641   0.000307
    23  F    0.000313   0.267772  -0.039543  -0.036641   9.088675  -0.000165
    24  F   -0.038324  -0.016459  -0.000707   0.000307  -0.000165   9.104671
    25  F   -0.000600   0.000538  -0.000001   0.000336  -0.000016   0.000294
              25
     1  F    0.000389
     2  C   -0.045138
     3  C    0.018106
     4  F   -0.001367
     5  C    0.000197
     6  F    0.000000
     7  F    0.000000
     8  F    0.000000
     9  F   -0.003568
    10  C    0.258673
    11  O   -0.046463
    12  C    0.000014
    13  F   -0.000002
    14  F   -0.000008
    15  C    0.003310
    16  F   -0.000001
    17  F   -0.000405
    18  C   -0.028000
    19  F   -0.000600
    20  C    0.000538
    21  F   -0.000001
    22  F    0.000336
    23  F   -0.000016
    24  F    0.000294
    25  F    9.100482
 Mulliken charges:
               1
     1  F   -0.283678
     2  C    0.120369
     3  C    0.533374
     4  F   -0.266470
     5  C    0.788802
     6  F   -0.245276
     7  F   -0.238720
     8  F   -0.241266
     9  F   -0.260062
    10  C    0.486575
    11  O   -0.503801
    12  C    0.764525
    13  F   -0.242325
    14  F   -0.247734
    15  C    0.550466
    16  F   -0.254458
    17  F   -0.255997
    18  C    0.535651
    19  F   -0.265690
    20  C    0.785942
    21  F   -0.247590
    22  F   -0.245846
    23  F   -0.246907
    24  F   -0.263114
    25  F   -0.256769
 Sum of Mulliken charges =   0.00000
 Mulliken charges with hydrogens summed into heavy atoms:
               1
     1  F   -0.283678
     2  C    0.120369
     3  C    0.533374
     4  F   -0.266470
     5  C    0.788802
     6  F   -0.245276
     7  F   -0.238720
     8  F   -0.241266
     9  F   -0.260062
    10  C    0.486575
    11  O   -0.503801
    12  C    0.764525
    13  F   -0.242325
    14  F   -0.247734
    15  C    0.550466
    16  F   -0.254458
    17  F   -0.255997
    18  C    0.535651
    19  F   -0.265690
    20  C    0.785942
    21  F   -0.247590
    22  F   -0.245846
    23  F   -0.246907
    24  F   -0.263114
    25  F   -0.256769
 Electronic spatial extent (au):  <R**2>=           5797.9553
 Charge=              0.0000 electrons
 Dipole moment (field-independent basis, Debye):
    X=              0.6068    Y=             -0.0269    Z=              0.2785  Tot=              0.6681
 Quadrupole moment (field-independent basis, Debye-Ang):
   XX=           -131.5711   YY=           -130.5018   ZZ=           -131.4135
   XY=             -1.0379   XZ=             -0.1910   YZ=             -0.4166
 Traceless Quadrupole moment (field-independent basis, Debye-Ang):
   XX=             -0.4089   YY=              0.6603   ZZ=             -0.2514
   XY=             -1.0379   XZ=             -0.1910   YZ=             -0.4166
 Octapole moment (field-independent basis, Debye-Ang**2):
  XXX=              5.3827  YYY=              2.9478  ZZZ=              5.0263  XYY=              3.4959
  XXY=              1.6280  XXZ=              1.7277  XZZ=              1.4070  YZZ=              2.8606
  YYZ=              2.8374  XYZ=              0.9044
 Hexadecapole moment (field-independent basis, Debye-Ang**3):
 XXXX=          -2735.1185 YYYY=          -2122.9634 ZZZZ=           -862.0066 XXXY=            104.9302
 XXXZ=           -255.6997 YYYX=             98.2238 YYYZ=            -88.2431 ZZZX=           -254.6506
 ZZZY=            -88.2816 XXYY=           -813.4304 XXZZ=           -596.5452 YYZZ=           -500.7839
 XXYZ=            -30.7969 YYXZ=            -84.6827 ZZXY=             32.0227
 N-N= 3.161252835350D+03 E-N=-1.100916121595D+04  KE= 1.963685371806D+03
 No NMR shielding tensors so no spin-rotation constants.
 Leave Link  601 at Mon Feb  3 21:53:04 2025, MaxMem=  5368709120 cpu:         3.3
 (Enter /home/k0335/k033513/app/g09/l9999.exe)
 1\1\GINC-C15U05N1\SP\RCAM-B3LYP\6-31G(d,p)\C8F16O1\K033513\03-Feb-2025
 \0\\#p CAM-B3LYP/6-31G(d,p) SCRF=(PCM,Solvent=Generic,Read) NoSymm out
 =wfn\\Title S2_neu\\0,1\F,0,-0.216524,-0.180793,1.424777\C,0,0.358164,
 -0.242545,0.190137\C,0,1.34509,0.893435,0.010309\F,0,0.65629,2.068303,
 0.03377\C,0,2.445522,0.926104,1.068029\F,0,3.239981,2.012467,0.921677\
 F,0,3.247809,-0.158058,0.994089\F,0,1.936271,0.966745,2.31927\F,0,1.90
 2962,0.843607,-1.230437\C,0,-0.760592,-0.288274,-0.860296\O,0,-0.97872
 9,-1.683504,-1.215634\C,0,-0.200587,-2.437214,-0.300981\F,0,0.10059,-3
 .631049,-0.83995\F,0,-0.974054,-2.649449,0.78475\C,0,1.001295,-1.58764
 2,0.016386\F,0,1.68504,-1.983745,1.103645\F,0,1.868967,-1.573432,-1.02
 3151\C,0,-2.129491,0.286833,-0.453445\F,0,-3.006602,0.068727,-1.484617
 \C,0,-2.135596,1.761578,-0.102258\F,0,-3.389901,2.214281,0.135273\F,0,
 -1.616565,2.519557,-1.092631\F,0,-1.419843,2.006096,1.019582\F,0,-2.62
 2666,-0.441485,0.59301\F,0,-0.336829,0.289458,-2.011305\\Version=ES64L
 -G09RevD.01\HF=-1976.9672171\RMSD=5.032e-09\Dipole=0.2387151,-0.010598
 8,0.1095557\Quadrupole=-0.3040243,0.4909244,-0.1869,-0.771626,-0.14203
 ,-0.3097307\PG=C01 [X(C8F16O1)]\\@

 Writing a WFN file to "cytop/S2/S2_neu.wfn"


 LIFE IS SO UNCERTAIN - EAT DESSERT FIRST.
 Job cpu time:       0 days  0 hours  6 minutes  0.2 seconds.
 File lengths (MBytes):  RWF=    137 Int=      0 D2E=      0 Chk=      7 Scr=      1
 Normal termination of Gaussian 09 at Mon Feb  3 21:53:04 2025.
