 Entering Gaussian System, Link 0=g09
 Initial command:
 /home/k0335/k033513/app/g09/l1.exe "/home/k0335/k033513/app/g09/scratch/Gau-781706.inp" -scrdir="/home/k0335/k033513/app/g09/scratch/"
 Default is to use a total of  36 processors:
                               36 via shared-memory
                                1 via Linda
 Entering Link 1 = /home/k0335/k033513/app/g09/l1.exe PID=    781707.
  
 Copyright (c) 1988,1990,1992,1993,1995,1998,2003,2009,2013,
            Gaussian, Inc.  All Rights Reserved.
  
 This is part of the Gaussian(R) 09 program.  It is based on
 the Gaussian(R) 03 system (copyright 2003, Gaussian, Inc.),
 the Gaussian(R) 98 system (copyright 1998, Gaussian, Inc.),
 the Gaussian(R) 94 system (copyright 1995, Gaussian, Inc.),
 the Gaussian 92(TM) system (copyright 1992, Gaussian, Inc.),
 the Gaussian 90(TM) system (copyright 1990, Gaussian, Inc.),
 the Gaussian 88(TM) system (copyright 1988, Gaussian, Inc.),
 the Gaussian 86(TM) system (copyright 1986, Carnegie Mellon
 University), and the Gaussian 82(TM) system (copyright 1983,
 Carnegie Mellon University). Gaussian is a federally registered
 trademark of Gaussian, Inc.
  
 This software contains proprietary and confidential information,
 including trade secrets, belonging to Gaussian, Inc.
  
 This software is provided under written license and may be
 used, copied, transmitted, or stored only in accord with that
 written license.
  
 The following legend is applicable only to US Government
 contracts under FAR:
  
                    RESTRICTED RIGHTS LEGEND
  
 Use, reproduction and disclosure by the US Government is
 subject to restrictions as set forth in subparagraphs (a)
 and (c) of the Commercial Computer Software - Restricted
 Rights clause in FAR 52.227-19.
  
 Gaussian, Inc.
 340 Quinnipiac St., Bldg. 40, Wallingford CT 06492
  
  
 ---------------------------------------------------------------
 Warning -- This program may not be used in any manner that
 competes with the business of Gaussian, Inc. or will provide
 assistance to any competitor of Gaussian, Inc.  The licensee
 of this program is prohibited from giving any competitor of
 Gaussian, Inc. access to this program.  By using this program,
 the user acknowledges that Gaussian, Inc. is engaged in the
 business of creating and licensing software in the field of
 computational chemistry and represents and warrants to the
 licensee that it is not a competitor of Gaussian, Inc. and that
 it will not use this program in any manner prohibited above.
 ---------------------------------------------------------------
  

 Cite this work as:
 Gaussian 09, Revision D.01,
 M. J. Frisch, G. W. Trucks, H. B. Schlegel, G. E. Scuseria, 
 M. A. Robb, J. R. Cheeseman, G. Scalmani, V. Barone, B. Mennucci, 
 G. A. Petersson, H. Nakatsuji, M. Caricato, X. Li, H. P. Hratchian, 
 A. F. Izmaylov, J. Bloino, G. Zheng, J. L. Sonnenberg, M. Hada, 
 M. Ehara, K. Toyota, R. Fukuda, J. Hasegawa, M. Ishida, T. Nakajima, 
 Y. Honda, O. Kitao, H. Nakai, T. Vreven, J. A. Montgomery, Jr., 
 J. E. Peralta, F. Ogliaro, M. Bearpark, J. J. Heyd, E. Brothers, 
 K. N. Kudin, V. N. Staroverov, T. Keith, R. Kobayashi, J. Normand, 
 K. Raghavachari, A. Rendell, J. C. Burant, S. S. Iyengar, J. Tomasi, 
 M. Cossi, N. Rega, J. M. Millam, M. Klene, J. E. Knox, J. B. Cross, 
 V. Bakken, C. Adamo, J. Jaramillo, R. Gomperts, R. E. Stratmann, 
 O. Yazyev, A. J. Austin, R. Cammi, C. Pomelli, J. W. Ochterski, 
 R. L. Martin, K. Morokuma, V. G. Zakrzewski, G. A. Voth, 
 P. Salvador, J. J. Dannenberg, S. Dapprich, A. D. Daniels, 
 O. Farkas, J. B. Foresman, J. V. Ortiz, J. Cioslowski, 
 and D. J. Fox, Gaussian, Inc., Wallingford CT, 2013.
 
 ******************************************
 Gaussian 09:  ES64L-G09RevD.01 24-Apr-2013
                 5-Feb-2025 
 ******************************************
 %nprocshared=24
 Will use up to   24 processors via shared memory.
 %mem=40GB
 %rwf=cytopopt/DBE1/DBE1_neu.rwf
 %nosave
 %chk=cytopopt/DBE1/DBE1_neu.chk
 ----------------------------------------------------------------------
 #p CAM-B3LYP/6-31G(d,p) opt SCRF=(PCM,Solvent=Generic,Read) NoSymm out
 =wfn
 ----------------------------------------------------------------------
 1/14=-1,18=20,19=15,26=3,38=1,40=2/1,3;
 2/9=110,12=2,15=1,17=6,18=5,40=1/2;
 3/5=1,6=6,7=101,11=2,16=1,25=1,30=1,70=2203,71=1,72=-2,74=-40/1,2,3;
 4//1;
 5/5=2,38=5/2;
 6/7=2,8=2,9=2,10=2,28=1/1;
 7/30=1/1,2,3,16;
 1/14=-1,18=20,19=15,26=3/3(2);
 2/9=110,15=1/2;
 99/6=100/99;
 2/9=110,15=1/2;
 3/5=1,6=6,7=101,11=2,16=1,25=1,30=1,70=2205,71=1,72=-2,74=-40/1,2,3;
 4/5=5,16=3,69=1/1;
 5/5=2,38=5/2;
 7/30=1/1,2,3,16;
 1/14=-1,18=20,19=15,26=3/3(-5);
 2/9=110,15=1/2;
 6/7=2,8=2,9=2,10=2,19=2,28=1/1;
 99/6=100,9=1/99;
 Leave Link    1 at Wed Feb  5 13:04:16 2025, MaxMem=  5368709120 cpu:         0.9
 (Enter /home/k0335/k033513/app/g09/l101.exe)
 --------------
 Title DBE1_neu
 --------------
 Symbolic Z-matrix:
 Charge =  0 Multiplicity = 1
 F                     6.20048   0.2337    2.85067 
 C                     5.30073   0.91078   2.11118 
 F                     4.86802   1.94876   2.85354 
 C                     5.859     1.33484   0.77174 
 F                     7.11233   1.81029   0.79616 
 F                     5.09035   2.33943   0.26395 
 C                     5.66948   0.1056   -0.06577 
 F                     5.57758   0.45102  -1.38049 
 C                     6.77236  -0.93054   0.07686 
 F                     6.80534  -1.41625   1.34621 
 C                     8.13789  -0.37408  -0.32785 
 O                     8.29525  -0.2033   -1.65784 
 O                     9.05053  -0.07858   0.42948 
 F                     6.45834  -2.0076   -0.70812 
 C                     4.33922  -0.41859   0.49284 
 F                     4.36641  -1.77809   0.53333 
 C                     3.12539   0.01304  -0.35151 
 F                     3.29278  -0.40782  -1.6418 
 C                     1.78734  -0.51846   0.19928 
 N                     0.67795   0.04858  -0.42366 
 C                    -0.67157  -0.21005   0.05722 
 C                    -1.72086  -0.0035   -1.05213 
 N                    -3.11218  -0.07284  -0.55836 
 C                    -4.04027   0.5637   -1.51569 
 C                    -4.01205   2.10049  -1.47141 
 C                    -4.35094   2.66301  -0.08856 
 C                    -4.39804   4.1831   -0.10428 
 C                    -3.50863  -1.47397  -0.30032 
 C                    -4.68145  -1.5559    0.68943 
 C                    -5.00707  -2.99064   1.11623 
 C                    -5.51774  -3.85987  -0.0225 
 O                     1.6822   -1.37505   1.07167 
 F                     3.07382   1.3766   -0.42988 
 O                     4.21127   0.03213   1.8603 
 H                     9.21345   0.1268   -1.76821 
 H                     0.83551   0.90751  -0.94206 
 H                    -0.84913   0.48636   0.88494 
 H                    -0.71269  -1.22573   0.46139 
 H                    -1.52403   0.9848   -1.48326 
 H                    -1.55623  -0.72244  -1.86597 
 H                    -5.0743    0.26884  -1.30443 
 H                    -3.83292   0.22168  -2.53824 
 H                    -4.74457   2.47327  -2.19883 
 H                    -3.03889   2.48293  -1.79802 
 H                    -3.60445   2.34134   0.64631 
 H                    -5.32199   2.27681   0.24254 
 H                    -5.16072   4.54518  -0.80112 
 H                    -3.43193   4.60211  -0.40326 
 H                    -4.64024   4.56494   0.89248 
 H                    -2.67905  -2.03073   0.14837 
 H                    -3.74866  -1.9819   -1.24235 
 H                    -5.58464  -1.10007   0.26958 
 H                    -4.42887  -0.98257   1.59073 
 H                    -4.12224  -3.45784   1.564 
 H                    -5.77506  -2.95401   1.89819 
 H                    -5.82448  -4.83843   0.36074 
 H                    -6.38342  -3.40056  -0.51005 
 H                    -4.74371  -4.02824  -0.77692 
 
 NAtoms=     58 NQM=       58 NQMF=       0 NMMI=      0 NMMIF=      0
                NMic=       0 NMicF=      0.
                    Isotopes and Nuclear Properties:
 (Nuclear quadrupole moments (NQMom) in fm**2, nuclear magnetic moments (NMagM)
  in nuclear magnetons)

  Atom         1           2           3           4           5           6           7           8           9          10
 IAtWgt=          19          12          19          12          19          19          12          19          12          19
 AtmWgt=  18.9984033  12.0000000  18.9984033  12.0000000  18.9984033  18.9984033  12.0000000  18.9984033  12.0000000  18.9984033
 NucSpn=           1           0           1           0           1           1           0           1           0           1
 AtZEff=   0.0000000   0.0000000   0.0000000   0.0000000   0.0000000   0.0000000   0.0000000   0.0000000   0.0000000   0.0000000
 NQMom=    0.0000000   0.0000000   0.0000000   0.0000000   0.0000000   0.0000000   0.0000000   0.0000000   0.0000000   0.0000000
 NMagM=    2.6288670   0.0000000   2.6288670   0.0000000   2.6288670   2.6288670   0.0000000   2.6288670   0.0000000   2.6288670
 AtZNuc=   9.0000000   6.0000000   9.0000000   6.0000000   9.0000000   9.0000000   6.0000000   9.0000000   6.0000000   9.0000000

  Atom        11          12          13          14          15          16          17          18          19          20
 IAtWgt=          12          16          16          19          12          19          12          19          12          14
 AtmWgt=  12.0000000  15.9949146  15.9949146  18.9984033  12.0000000  18.9984033  12.0000000  18.9984033  12.0000000  14.0030740
 NucSpn=           0           0           0           1           0           1           0           1           0           2
 AtZEff=   0.0000000   0.0000000   0.0000000   0.0000000   0.0000000   0.0000000   0.0000000   0.0000000   0.0000000   0.0000000
 NQMom=    0.0000000   0.0000000   0.0000000   0.0000000   0.0000000   0.0000000   0.0000000   0.0000000   0.0000000   2.0440000
 NMagM=    0.0000000   0.0000000   0.0000000   2.6288670   0.0000000   2.6288670   0.0000000   2.6288670   0.0000000   0.4037610
 AtZNuc=   6.0000000   8.0000000   8.0000000   9.0000000   6.0000000   9.0000000   6.0000000   9.0000000   6.0000000   7.0000000

  Atom        21          22          23          24          25          26          27          28          29          30
 IAtWgt=          12          12          14          12          12          12          12          12          12          12
 AtmWgt=  12.0000000  12.0000000  14.0030740  12.0000000  12.0000000  12.0000000  12.0000000  12.0000000  12.0000000  12.0000000
 NucSpn=           0           0           2           0           0           0           0           0           0           0
 AtZEff=   0.0000000   0.0000000   0.0000000   0.0000000   0.0000000   0.0000000   0.0000000   0.0000000   0.0000000   0.0000000
 NQMom=    0.0000000   0.0000000   2.0440000   0.0000000   0.0000000   0.0000000   0.0000000   0.0000000   0.0000000   0.0000000
 NMagM=    0.0000000   0.0000000   0.4037610   0.0000000   0.0000000   0.0000000   0.0000000   0.0000000   0.0000000   0.0000000
 AtZNuc=   6.0000000   6.0000000   7.0000000   6.0000000   6.0000000   6.0000000   6.0000000   6.0000000   6.0000000   6.0000000

  Atom        31          32          33          34          35          36          37          38          39          40
 IAtWgt=          12          16          19          16           1           1           1           1           1           1
 AtmWgt=  12.0000000  15.9949146  18.9984033  15.9949146   1.0078250   1.0078250   1.0078250   1.0078250   1.0078250   1.0078250
 NucSpn=           0           0           1           0           1           1           1           1           1           1
 AtZEff=   0.0000000   0.0000000   0.0000000   0.0000000   0.0000000   0.0000000   0.0000000   0.0000000   0.0000000   0.0000000
 NQMom=    0.0000000   0.0000000   0.0000000   0.0000000   0.0000000   0.0000000   0.0000000   0.0000000   0.0000000   0.0000000
 NMagM=    0.0000000   0.0000000   2.6288670   0.0000000   2.7928460   2.7928460   2.7928460   2.7928460   2.7928460   2.7928460
 AtZNuc=   6.0000000   8.0000000   9.0000000   8.0000000   1.0000000   1.0000000   1.0000000   1.0000000   1.0000000   1.0000000

  Atom        41          42          43          44          45          46          47          48          49          50
 IAtWgt=           1           1           1           1           1           1           1           1           1           1
 AtmWgt=   1.0078250   1.0078250   1.0078250   1.0078250   1.0078250   1.0078250   1.0078250   1.0078250   1.0078250   1.0078250
 NucSpn=           1           1           1           1           1           1           1           1           1           1
 AtZEff=   0.0000000   0.0000000   0.0000000   0.0000000   0.0000000   0.0000000   0.0000000   0.0000000   0.0000000   0.0000000
 NQMom=    0.0000000   0.0000000   0.0000000   0.0000000   0.0000000   0.0000000   0.0000000   0.0000000   0.0000000   0.0000000
 NMagM=    2.7928460   2.7928460   2.7928460   2.7928460   2.7928460   2.7928460   2.7928460   2.7928460   2.7928460   2.7928460
 AtZNuc=   1.0000000   1.0000000   1.0000000   1.0000000   1.0000000   1.0000000   1.0000000   1.0000000   1.0000000   1.0000000

  Atom        51          52          53          54          55          56          57          58
 IAtWgt=           1           1           1           1           1           1           1           1
 AtmWgt=   1.0078250   1.0078250   1.0078250   1.0078250   1.0078250   1.0078250   1.0078250   1.0078250
 NucSpn=           1           1           1           1           1           1           1           1
 AtZEff=   0.0000000   0.0000000   0.0000000   0.0000000   0.0000000   0.0000000   0.0000000   0.0000000
 NQMom=    0.0000000   0.0000000   0.0000000   0.0000000   0.0000000   0.0000000   0.0000000   0.0000000
 NMagM=    2.7928460   2.7928460   2.7928460   2.7928460   2.7928460   2.7928460   2.7928460   2.7928460
 AtZNuc=   1.0000000   1.0000000   1.0000000   1.0000000   1.0000000   1.0000000   1.0000000   1.0000000
 Leave Link  101 at Wed Feb  5 13:04:16 2025, MaxMem=  5368709120 cpu:         3.1
 (Enter /home/k0335/k033513/app/g09/l103.exe)

 GradGradGradGradGradGradGradGradGradGradGradGradGradGradGradGradGradGrad
 Berny optimization.
 Initialization pass.
                           ----------------------------
                           !    Initial Parameters    !
                           ! (Angstroms and Degrees)  !
 --------------------------                            --------------------------
 ! Name  Definition              Value          Derivative Info.                !
 --------------------------------------------------------------------------------
 ! R1    R(1,2)                  1.3472         estimate D2E/DX2                !
 ! R2    R(2,3)                  1.3475         estimate D2E/DX2                !
 ! R3    R(2,4)                  1.5118         estimate D2E/DX2                !
 ! R4    R(2,34)                 1.4219         estimate D2E/DX2                !
 ! R5    R(4,5)                  1.3407         estimate D2E/DX2                !
 ! R6    R(4,6)                  1.363          estimate D2E/DX2                !
 ! R7    R(4,7)                  1.4995         estimate D2E/DX2                !
 ! R8    R(7,8)                  1.3624         estimate D2E/DX2                !
 ! R9    R(7,9)                  1.52           estimate D2E/DX2                !
 ! R10   R(7,15)                 1.5351         estimate D2E/DX2                !
 ! R11   R(9,10)                 1.3595         estimate D2E/DX2                !
 ! R12   R(9,11)                 1.5291         estimate D2E/DX2                !
 ! R13   R(9,14)                 1.3693         estimate D2E/DX2                !
 ! R14   R(11,12)                1.3501         estimate D2E/DX2                !
 ! R15   R(11,13)                1.2222         estimate D2E/DX2                !
 ! R16   R(12,35)                0.982          estimate D2E/DX2                !
 ! R17   R(15,16)                1.3604         estimate D2E/DX2                !
 ! R18   R(15,17)                1.5403         estimate D2E/DX2                !
 ! R19   R(15,34)                1.4455         estimate D2E/DX2                !
 ! R20   R(17,18)                1.3675         estimate D2E/DX2                !
 ! R21   R(17,19)                1.5415         estimate D2E/DX2                !
 ! R22   R(17,33)                1.3668         estimate D2E/DX2                !
 ! R23   R(19,20)                1.393          estimate D2E/DX2                !
 ! R24   R(19,32)                1.2271         estimate D2E/DX2                !
 ! R25   R(20,21)                1.4558         estimate D2E/DX2                !
 ! R26   R(20,36)                1.0155         estimate D2E/DX2                !
 ! R27   R(21,22)                1.5409         estimate D2E/DX2                !
 ! R28   R(21,37)                1.0962         estimate D2E/DX2                !
 ! R29   R(21,38)                1.0939         estimate D2E/DX2                !
 ! R30   R(22,23)                1.478          estimate D2E/DX2                !
 ! R31   R(22,39)                1.0961         estimate D2E/DX2                !
 ! R32   R(22,40)                1.0983         estimate D2E/DX2                !
 ! R33   R(23,24)                1.4775         estimate D2E/DX2                !
 ! R34   R(23,28)                1.4788         estimate D2E/DX2                !
 ! R35   R(24,25)                1.5377         estimate D2E/DX2                !
 ! R36   R(24,41)                1.0958         estimate D2E/DX2                !
 ! R37   R(24,42)                1.098          estimate D2E/DX2                !
 ! R38   R(25,26)                1.5309         estimate D2E/DX2                !
 ! R39   R(25,43)                1.0976         estimate D2E/DX2                !
 ! R40   R(25,44)                1.0954         estimate D2E/DX2                !
 ! R41   R(26,27)                1.5209         estimate D2E/DX2                !
 ! R42   R(26,45)                1.0958         estimate D2E/DX2                !
 ! R43   R(26,46)                1.0962         estimate D2E/DX2                !
 ! R44   R(27,47)                1.0947         estimate D2E/DX2                !
 ! R45   R(27,48)                1.0947         estimate D2E/DX2                !
 ! R46   R(27,49)                1.0945         estimate D2E/DX2                !
 ! R47   R(28,29)                1.5368         estimate D2E/DX2                !
 ! R48   R(28,50)                1.0952         estimate D2E/DX2                !
 ! R49   R(28,51)                1.0968         estimate D2E/DX2                !
 ! R50   R(29,30)                1.5319         estimate D2E/DX2                !
 ! R51   R(29,52)                1.0954         estimate D2E/DX2                !
 ! R52   R(29,53)                1.0977         estimate D2E/DX2                !
 ! R53   R(30,31)                1.5209         estimate D2E/DX2                !
 ! R54   R(30,54)                1.0962         estimate D2E/DX2                !
 ! R55   R(30,55)                1.0966         estimate D2E/DX2                !
 ! R56   R(31,56)                1.0948         estimate D2E/DX2                !
 ! R57   R(31,57)                1.0946         estimate D2E/DX2                !
 ! R58   R(31,58)                1.0939         estimate D2E/DX2                !
 ! A1    A(1,2,3)              107.4102         estimate D2E/DX2                !
 ! A2    A(1,2,4)              112.3762         estimate D2E/DX2                !
 ! A3    A(1,2,34)             107.3384         estimate D2E/DX2                !
 ! A4    A(3,2,4)              112.9924         estimate D2E/DX2                !
 ! A5    A(3,2,34)             109.0966         estimate D2E/DX2                !
 ! A6    A(4,2,34)             107.4535         estimate D2E/DX2                !
 ! A7    A(2,4,5)              115.3747         estimate D2E/DX2                !
 ! A8    A(2,4,6)              109.1813         estimate D2E/DX2                !
 ! A9    A(2,4,7)              102.6053         estimate D2E/DX2                !
 ! A10   A(5,4,6)              105.8187         estimate D2E/DX2                !
 ! A11   A(5,4,7)              114.7743         estimate D2E/DX2                !
 ! A12   A(6,4,7)              108.9566         estimate D2E/DX2                !
 ! A13   A(4,7,8)              109.856          estimate D2E/DX2                !
 ! A14   A(4,7,9)              114.5018         estimate D2E/DX2                !
 ! A15   A(4,7,15)             100.732          estimate D2E/DX2                !
 ! A16   A(8,7,9)              108.1992         estimate D2E/DX2                !
 ! A17   A(8,7,15)             112.2888         estimate D2E/DX2                !
 ! A18   A(9,7,15)             111.215          estimate D2E/DX2                !
 ! A19   A(7,9,10)             110.4116         estimate D2E/DX2                !
 ! A20   A(7,9,11)             112.0287         estimate D2E/DX2                !
 ! A21   A(7,9,14)             108.4222         estimate D2E/DX2                !
 ! A22   A(10,9,11)            110.8224         estimate D2E/DX2                !
 ! A23   A(10,9,14)            105.0587         estimate D2E/DX2                !
 ! A24   A(11,9,14)            109.8361         estimate D2E/DX2                !
 ! A25   A(9,11,12)            114.2581         estimate D2E/DX2                !
 ! A26   A(9,11,13)            126.2158         estimate D2E/DX2                !
 ! A27   A(12,11,13)           119.5243         estimate D2E/DX2                !
 ! A28   A(11,12,35)           105.2021         estimate D2E/DX2                !
 ! A29   A(7,15,16)            109.5583         estimate D2E/DX2                !
 ! A30   A(7,15,17)            112.8138         estimate D2E/DX2                !
 ! A31   A(7,15,34)            108.3299         estimate D2E/DX2                !
 ! A32   A(16,15,17)           108.1863         estimate D2E/DX2                !
 ! A33   A(16,15,34)           106.5715         estimate D2E/DX2                !
 ! A34   A(17,15,34)           111.1887         estimate D2E/DX2                !
 ! A35   A(15,17,18)           109.5431         estimate D2E/DX2                !
 ! A36   A(15,17,19)           113.0507         estimate D2E/DX2                !
 ! A37   A(15,17,33)           109.9206         estimate D2E/DX2                !
 ! A38   A(18,17,19)           109.7112         estimate D2E/DX2                !
 ! A39   A(18,17,33)           104.9249         estimate D2E/DX2                !
 ! A40   A(19,17,33)           109.3731         estimate D2E/DX2                !
 ! A41   A(17,19,20)           113.0269         estimate D2E/DX2                !
 ! A42   A(17,19,32)           124.6847         estimate D2E/DX2                !
 ! A43   A(20,19,32)           122.2658         estimate D2E/DX2                !
 ! A44   A(19,20,21)           121.2146         estimate D2E/DX2                !
 ! A45   A(19,20,36)           116.6803         estimate D2E/DX2                !
 ! A46   A(21,20,36)           117.562          estimate D2E/DX2                !
 ! A47   A(20,21,22)           111.6924         estimate D2E/DX2                !
 ! A48   A(20,21,37)           106.6607         estimate D2E/DX2                !
 ! A49   A(20,21,38)           108.7743         estimate D2E/DX2                !
 ! A50   A(22,21,37)           110.3749         estimate D2E/DX2                !
 ! A51   A(22,21,38)           111.3989         estimate D2E/DX2                !
 ! A52   A(37,21,38)           107.746          estimate D2E/DX2                !
 ! A53   A(21,22,23)           113.218          estimate D2E/DX2                !
 ! A54   A(21,22,39)           106.366          estimate D2E/DX2                !
 ! A55   A(21,22,40)           110.0996         estimate D2E/DX2                !
 ! A56   A(23,22,39)           110.0451         estimate D2E/DX2                !
 ! A57   A(23,22,40)           110.9743         estimate D2E/DX2                !
 ! A58   A(39,22,40)           105.7739         estimate D2E/DX2                !
 ! A59   A(22,23,24)           110.7716         estimate D2E/DX2                !
 ! A60   A(22,23,28)           110.8005         estimate D2E/DX2                !
 ! A61   A(24,23,28)           110.6616         estimate D2E/DX2                !
 ! A62   A(23,24,25)           113.6022         estimate D2E/DX2                !
 ! A63   A(23,24,41)           110.6031         estimate D2E/DX2                !
 ! A64   A(23,24,42)           110.5239         estimate D2E/DX2                !
 ! A65   A(25,24,41)           106.3013         estimate D2E/DX2                !
 ! A66   A(25,24,42)           109.5524         estimate D2E/DX2                !
 ! A67   A(41,24,42)           105.898          estimate D2E/DX2                !
 ! A68   A(24,25,26)           112.9039         estimate D2E/DX2                !
 ! A69   A(24,25,43)           107.9452         estimate D2E/DX2                !
 ! A70   A(24,25,44)           110.8932         estimate D2E/DX2                !
 ! A71   A(26,25,43)           109.034          estimate D2E/DX2                !
 ! A72   A(26,25,44)           109.7372         estimate D2E/DX2                !
 ! A73   A(43,25,44)           106.0647         estimate D2E/DX2                !
 ! A74   A(25,26,27)           111.3934         estimate D2E/DX2                !
 ! A75   A(25,26,45)           110.3109         estimate D2E/DX2                !
 ! A76   A(25,26,46)           109.845          estimate D2E/DX2                !
 ! A77   A(27,26,45)           108.7491         estimate D2E/DX2                !
 ! A78   A(27,26,46)           109.1353         estimate D2E/DX2                !
 ! A79   A(45,26,46)           107.3062         estimate D2E/DX2                !
 ! A80   A(26,27,47)           111.023          estimate D2E/DX2                !
 ! A81   A(26,27,48)           110.9808         estimate D2E/DX2                !
 ! A82   A(26,27,49)           110.2501         estimate D2E/DX2                !
 ! A83   A(47,27,48)           108.3253         estimate D2E/DX2                !
 ! A84   A(47,27,49)           108.0676         estimate D2E/DX2                !
 ! A85   A(48,27,49)           108.0882         estimate D2E/DX2                !
 ! A86   A(23,28,29)           111.5599         estimate D2E/DX2                !
 ! A87   A(23,28,50)           110.4913         estimate D2E/DX2                !
 ! A88   A(23,28,51)           110.3381         estimate D2E/DX2                !
 ! A89   A(29,28,50)           106.6852         estimate D2E/DX2                !
 ! A90   A(29,28,51)           111.1886         estimate D2E/DX2                !
 ! A91   A(50,28,51)           106.3919         estimate D2E/DX2                !
 ! A92   A(28,29,30)           113.0525         estimate D2E/DX2                !
 ! A93   A(28,29,52)           111.1138         estimate D2E/DX2                !
 ! A94   A(28,29,53)           108.9876         estimate D2E/DX2                !
 ! A95   A(30,29,52)           108.7401         estimate D2E/DX2                !
 ! A96   A(30,29,53)           108.0195         estimate D2E/DX2                !
 ! A97   A(52,29,53)           106.6855         estimate D2E/DX2                !
 ! A98   A(29,30,31)           113.457          estimate D2E/DX2                !
 ! A99   A(29,30,54)           109.9618         estimate D2E/DX2                !
 ! A100  A(29,30,55)           108.4359         estimate D2E/DX2                !
 ! A101  A(31,30,54)           109.4678         estimate D2E/DX2                !
 ! A102  A(31,30,55)           108.5321         estimate D2E/DX2                !
 ! A103  A(54,30,55)           106.7522         estimate D2E/DX2                !
 ! A104  A(30,31,56)           110.0498         estimate D2E/DX2                !
 ! A105  A(30,31,57)           111.0531         estimate D2E/DX2                !
 ! A106  A(30,31,58)           111.5158         estimate D2E/DX2                !
 ! A107  A(56,31,57)           108.0232         estimate D2E/DX2                !
 ! A108  A(56,31,58)           107.5842         estimate D2E/DX2                !
 ! A109  A(57,31,58)           108.4827         estimate D2E/DX2                !
 ! A110  A(2,34,15)            106.9637         estimate D2E/DX2                !
 ! D1    D(1,2,4,5)            -42.1659         estimate D2E/DX2                !
 ! D2    D(1,2,4,6)           -161.1409         estimate D2E/DX2                !
 ! D3    D(1,2,4,7)             83.3766         estimate D2E/DX2                !
 ! D4    D(3,2,4,5)             79.582          estimate D2E/DX2                !
 ! D5    D(3,2,4,6)            -39.393          estimate D2E/DX2                !
 ! D6    D(3,2,4,7)           -154.8754         estimate D2E/DX2                !
 ! D7    D(34,2,4,5)          -160.0232         estimate D2E/DX2                !
 ! D8    D(34,2,4,6)            81.0018         estimate D2E/DX2                !
 ! D9    D(34,2,4,7)           -34.4807         estimate D2E/DX2                !
 ! D10   D(1,2,34,15)         -103.7176         estimate D2E/DX2                !
 ! D11   D(3,2,34,15)          140.1916         estimate D2E/DX2                !
 ! D12   D(4,2,34,15)           17.361          estimate D2E/DX2                !
 ! D13   D(2,4,7,8)            154.2929         estimate D2E/DX2                !
 ! D14   D(2,4,7,9)            -83.7344         estimate D2E/DX2                !
 ! D15   D(2,4,7,15)            35.6812         estimate D2E/DX2                !
 ! D16   D(5,4,7,8)            -79.7742         estimate D2E/DX2                !
 ! D17   D(5,4,7,9)             42.1985         estimate D2E/DX2                !
 ! D18   D(5,4,7,15)           161.6141         estimate D2E/DX2                !
 ! D19   D(6,4,7,8)             38.6481         estimate D2E/DX2                !
 ! D20   D(6,4,7,9)            160.6208         estimate D2E/DX2                !
 ! D21   D(6,4,7,15)           -79.9636         estimate D2E/DX2                !
 ! D22   D(4,7,9,10)            63.815          estimate D2E/DX2                !
 ! D23   D(4,7,9,11)           -60.2217         estimate D2E/DX2                !
 ! D24   D(4,7,9,14)           178.406          estimate D2E/DX2                !
 ! D25   D(8,7,9,10)          -173.3127         estimate D2E/DX2                !
 ! D26   D(8,7,9,11)            62.6506         estimate D2E/DX2                !
 ! D27   D(8,7,9,14)           -58.7217         estimate D2E/DX2                !
 ! D28   D(15,7,9,10)          -49.5406         estimate D2E/DX2                !
 ! D29   D(15,7,9,11)         -173.5773         estimate D2E/DX2                !
 ! D30   D(15,7,9,14)           65.0504         estimate D2E/DX2                !
 ! D31   D(4,7,15,16)         -142.8337         estimate D2E/DX2                !
 ! D32   D(4,7,15,17)           96.5845         estimate D2E/DX2                !
 ! D33   D(4,7,15,34)          -26.9496         estimate D2E/DX2                !
 ! D34   D(8,7,15,16)          100.3387         estimate D2E/DX2                !
 ! D35   D(8,7,15,17)          -20.2431         estimate D2E/DX2                !
 ! D36   D(8,7,15,34)         -143.7772         estimate D2E/DX2                !
 ! D37   D(9,7,15,16)          -21.0737         estimate D2E/DX2                !
 ! D38   D(9,7,15,17)         -141.6555         estimate D2E/DX2                !
 ! D39   D(9,7,15,34)           94.8104         estimate D2E/DX2                !
 ! D40   D(7,9,11,12)          -72.9226         estimate D2E/DX2                !
 ! D41   D(7,9,11,13)          106.5906         estimate D2E/DX2                !
 ! D42   D(10,9,11,12)         163.2706         estimate D2E/DX2                !
 ! D43   D(10,9,11,13)         -17.2163         estimate D2E/DX2                !
 ! D44   D(14,9,11,12)          47.6323         estimate D2E/DX2                !
 ! D45   D(14,9,11,13)        -132.8545         estimate D2E/DX2                !
 ! D46   D(9,11,12,35)        -178.2752         estimate D2E/DX2                !
 ! D47   D(13,11,12,35)          2.1762         estimate D2E/DX2                !
 ! D48   D(7,15,17,18)          56.926          estimate D2E/DX2                !
 ! D49   D(7,15,17,19)         179.6096         estimate D2E/DX2                !
 ! D50   D(7,15,17,33)         -57.8663         estimate D2E/DX2                !
 ! D51   D(16,15,17,18)        -64.4372         estimate D2E/DX2                !
 ! D52   D(16,15,17,19)         58.2463         estimate D2E/DX2                !
 ! D53   D(16,15,17,33)       -179.2296         estimate D2E/DX2                !
 ! D54   D(34,15,17,18)        178.8625         estimate D2E/DX2                !
 ! D55   D(34,15,17,19)        -58.454          estimate D2E/DX2                !
 ! D56   D(34,15,17,33)         64.0701         estimate D2E/DX2                !
 ! D57   D(7,15,34,2)            6.2737         estimate D2E/DX2                !
 ! D58   D(16,15,34,2)         124.0828         estimate D2E/DX2                !
 ! D59   D(17,15,34,2)        -118.2331         estimate D2E/DX2                !
 ! D60   D(15,17,19,20)        169.8789         estimate D2E/DX2                !
 ! D61   D(15,17,19,32)        -11.8199         estimate D2E/DX2                !
 ! D62   D(18,17,19,20)        -67.5312         estimate D2E/DX2                !
 ! D63   D(18,17,19,32)        110.77           estimate D2E/DX2                !
 ! D64   D(33,17,19,20)         47.05           estimate D2E/DX2                !
 ! D65   D(33,17,19,32)       -134.6487         estimate D2E/DX2                !
 ! D66   D(17,19,20,21)       -172.9937         estimate D2E/DX2                !
 ! D67   D(17,19,20,36)        -17.4866         estimate D2E/DX2                !
 ! D68   D(32,19,20,21)          8.6583         estimate D2E/DX2                !
 ! D69   D(32,19,20,36)        164.1653         estimate D2E/DX2                !
 ! D70   D(19,20,21,22)       -156.2401         estimate D2E/DX2                !
 ! D71   D(19,20,21,37)         83.0851         estimate D2E/DX2                !
 ! D72   D(19,20,21,38)        -32.8761         estimate D2E/DX2                !
 ! D73   D(36,20,21,22)         48.4595         estimate D2E/DX2                !
 ! D74   D(36,20,21,37)        -72.2153         estimate D2E/DX2                !
 ! D75   D(36,20,21,38)        171.8235         estimate D2E/DX2                !
 ! D76   D(20,21,22,23)       -172.0035         estimate D2E/DX2                !
 ! D77   D(20,21,22,39)        -51.0266         estimate D2E/DX2                !
 ! D78   D(20,21,22,40)         63.1255         estimate D2E/DX2                !
 ! D79   D(37,21,22,23)        -53.521          estimate D2E/DX2                !
 ! D80   D(37,21,22,39)         67.4558         estimate D2E/DX2                !
 ! D81   D(37,21,22,40)       -178.392          estimate D2E/DX2                !
 ! D82   D(38,21,22,23)         66.1326         estimate D2E/DX2                !
 ! D83   D(38,21,22,39)       -172.8905         estimate D2E/DX2                !
 ! D84   D(38,21,22,40)        -58.7383         estimate D2E/DX2                !
 ! D85   D(21,22,23,24)        160.939          estimate D2E/DX2                !
 ! D86   D(21,22,23,28)        -75.8466         estimate D2E/DX2                !
 ! D87   D(39,22,23,24)         42.0647         estimate D2E/DX2                !
 ! D88   D(39,22,23,28)        165.2791         estimate D2E/DX2                !
 ! D89   D(40,22,23,24)        -74.6645         estimate D2E/DX2                !
 ! D90   D(40,22,23,28)         48.5499         estimate D2E/DX2                !
 ! D91   D(22,23,24,25)        -76.7393         estimate D2E/DX2                !
 ! D92   D(22,23,24,41)        163.8213         estimate D2E/DX2                !
 ! D93   D(22,23,24,42)         46.8713         estimate D2E/DX2                !
 ! D94   D(28,23,24,25)        159.9661         estimate D2E/DX2                !
 ! D95   D(28,23,24,41)         40.5267         estimate D2E/DX2                !
 ! D96   D(28,23,24,42)        -76.4233         estimate D2E/DX2                !
 ! D97   D(22,23,28,29)        157.9055         estimate D2E/DX2                !
 ! D98   D(22,23,28,50)         39.4011         estimate D2E/DX2                !
 ! D99   D(22,23,28,51)        -77.9746         estimate D2E/DX2                !
 ! D100  D(24,23,28,29)        -78.8166         estimate D2E/DX2                !
 ! D101  D(24,23,28,50)        162.679          estimate D2E/DX2                !
 ! D102  D(24,23,28,51)         45.3033         estimate D2E/DX2                !
 ! D103  D(23,24,25,26)        -58.2835         estimate D2E/DX2                !
 ! D104  D(23,24,25,43)       -178.8793         estimate D2E/DX2                !
 ! D105  D(23,24,25,44)         65.3372         estimate D2E/DX2                !
 ! D106  D(41,24,25,26)         63.5788         estimate D2E/DX2                !
 ! D107  D(41,24,25,43)        -57.017          estimate D2E/DX2                !
 ! D108  D(41,24,25,44)       -172.8005         estimate D2E/DX2                !
 ! D109  D(42,24,25,26)        177.5781         estimate D2E/DX2                !
 ! D110  D(42,24,25,43)         56.9823         estimate D2E/DX2                !
 ! D111  D(42,24,25,44)        -58.8012         estimate D2E/DX2                !
 ! D112  D(24,25,26,27)       -176.4622         estimate D2E/DX2                !
 ! D113  D(24,25,26,45)         62.6672         estimate D2E/DX2                !
 ! D114  D(24,25,26,46)        -55.4196         estimate D2E/DX2                !
 ! D115  D(43,25,26,27)        -56.4899         estimate D2E/DX2                !
 ! D116  D(43,25,26,45)       -177.3605         estimate D2E/DX2                !
 ! D117  D(43,25,26,46)         64.5527         estimate D2E/DX2                !
 ! D118  D(44,25,26,27)         59.2811         estimate D2E/DX2                !
 ! D119  D(44,25,26,45)        -61.5894         estimate D2E/DX2                !
 ! D120  D(44,25,26,46)       -179.6763         estimate D2E/DX2                !
 ! D121  D(25,26,27,47)         60.3387         estimate D2E/DX2                !
 ! D122  D(25,26,27,48)        -60.2007         estimate D2E/DX2                !
 ! D123  D(25,26,27,49)       -179.9302         estimate D2E/DX2                !
 ! D124  D(45,26,27,47)       -177.8805         estimate D2E/DX2                !
 ! D125  D(45,26,27,48)         61.5801         estimate D2E/DX2                !
 ! D126  D(45,26,27,49)        -58.1494         estimate D2E/DX2                !
 ! D127  D(46,26,27,47)        -61.1179         estimate D2E/DX2                !
 ! D128  D(46,26,27,48)        178.3428         estimate D2E/DX2                !
 ! D129  D(46,26,27,49)         58.6132         estimate D2E/DX2                !
 ! D130  D(23,28,29,30)       -172.8356         estimate D2E/DX2                !
 ! D131  D(23,28,29,52)         64.5753         estimate D2E/DX2                !
 ! D132  D(23,28,29,53)        -52.706          estimate D2E/DX2                !
 ! D133  D(50,28,29,30)        -52.0801         estimate D2E/DX2                !
 ! D134  D(50,28,29,52)       -174.6693         estimate D2E/DX2                !
 ! D135  D(50,28,29,53)         68.0495         estimate D2E/DX2                !
 ! D136  D(51,28,29,30)         63.5247         estimate D2E/DX2                !
 ! D137  D(51,28,29,52)        -59.0644         estimate D2E/DX2                !
 ! D138  D(51,28,29,53)       -176.3456         estimate D2E/DX2                !
 ! D139  D(28,29,30,31)        -65.4016         estimate D2E/DX2                !
 ! D140  D(28,29,30,54)         57.5636         estimate D2E/DX2                !
 ! D141  D(28,29,30,55)        173.9438         estimate D2E/DX2                !
 ! D142  D(52,29,30,31)         58.5004         estimate D2E/DX2                !
 ! D143  D(52,29,30,54)       -178.5344         estimate D2E/DX2                !
 ! D144  D(52,29,30,55)        -62.1542         estimate D2E/DX2                !
 ! D145  D(53,29,30,31)        173.9166         estimate D2E/DX2                !
 ! D146  D(53,29,30,54)        -63.1182         estimate D2E/DX2                !
 ! D147  D(53,29,30,55)         53.262          estimate D2E/DX2                !
 ! D148  D(29,30,31,56)       -174.4874         estimate D2E/DX2                !
 ! D149  D(29,30,31,57)        -54.9229         estimate D2E/DX2                !
 ! D150  D(29,30,31,58)         66.2008         estimate D2E/DX2                !
 ! D151  D(54,30,31,56)         62.2758         estimate D2E/DX2                !
 ! D152  D(54,30,31,57)       -178.1597         estimate D2E/DX2                !
 ! D153  D(54,30,31,58)        -57.036          estimate D2E/DX2                !
 ! D154  D(55,30,31,56)        -53.8872         estimate D2E/DX2                !
 ! D155  D(55,30,31,57)         65.6773         estimate D2E/DX2                !
 ! D156  D(55,30,31,58)       -173.199          estimate D2E/DX2                !
 --------------------------------------------------------------------------------
 Trust Radius=3.00D-01 FncErr=1.00D-07 GrdErr=1.00D-06
 Number of steps in this run=    334 maximum allowed number of steps=    348.
 GradGradGradGradGradGradGradGradGradGradGradGradGradGradGradGradGradGrad

 Leave Link  103 at Wed Feb  5 13:04:16 2025, MaxMem=  5368709120 cpu:         0.2
 (Enter /home/k0335/k033513/app/g09/l202.exe)
 Symmetry turned off by external request.
 Stoichiometry    C18H24F10N2O4
 Framework group  C1[X(C18H24F10N2O4)]
 Deg. of freedom   168
 Full point group                 C1      NOp   1
                          Input orientation:                          
 ---------------------------------------------------------------------
 Center     Atomic      Atomic             Coordinates (Angstroms)
 Number     Number       Type             X           Y           Z
 ---------------------------------------------------------------------
      1          9           0        6.200479    0.233704    2.850674
      2          6           0        5.300728    0.910775    2.111184
      3          9           0        4.868022    1.948764    2.853544
      4          6           0        5.858995    1.334841    0.771738
      5          9           0        7.112330    1.810286    0.796160
      6          9           0        5.090347    2.339430    0.263954
      7          6           0        5.669477    0.105597   -0.065771
      8          9           0        5.577578    0.451020   -1.380485
      9          6           0        6.772359   -0.930541    0.076855
     10          9           0        6.805340   -1.416249    1.346205
     11          6           0        8.137885   -0.374077   -0.327851
     12          8           0        8.295248   -0.203300   -1.657843
     13          8           0        9.050526   -0.078583    0.429479
     14          9           0        6.458341   -2.007597   -0.708122
     15          6           0        4.339217   -0.418587    0.492835
     16          9           0        4.366410   -1.778091    0.533332
     17          6           0        3.125390    0.013038   -0.351511
     18          9           0        3.292784   -0.407819   -1.641796
     19          6           0        1.787337   -0.518463    0.199282
     20          7           0        0.677945    0.048581   -0.423656
     21          6           0       -0.671574   -0.210054    0.057223
     22          6           0       -1.720857   -0.003503   -1.052126
     23          7           0       -3.112175   -0.072840   -0.558360
     24          6           0       -4.040267    0.563701   -1.515693
     25          6           0       -4.012053    2.100494   -1.471410
     26          6           0       -4.350942    2.663009   -0.088558
     27          6           0       -4.398043    4.183096   -0.104283
     28          6           0       -3.508632   -1.473973   -0.300315
     29          6           0       -4.681449   -1.555896    0.689429
     30          6           0       -5.007071   -2.990636    1.116226
     31          6           0       -5.517735   -3.859866   -0.022502
     32          8           0        1.682204   -1.375047    1.071670
     33          9           0        3.073824    1.376604   -0.429881
     34          8           0        4.211265    0.032126    1.860297
     35          1           0        9.213455    0.126802   -1.768205
     36          1           0        0.835513    0.907511   -0.942056
     37          1           0       -0.849129    0.486357    0.884943
     38          1           0       -0.712694   -1.225731    0.461387
     39          1           0       -1.524032    0.984799   -1.483258
     40          1           0       -1.556226   -0.722444   -1.865970
     41          1           0       -5.074303    0.268835   -1.304431
     42          1           0       -3.832916    0.221682   -2.538242
     43          1           0       -4.744571    2.473274   -2.198832
     44          1           0       -3.038888    2.482930   -1.798021
     45          1           0       -3.604447    2.341340    0.646305
     46          1           0       -5.321986    2.276813    0.242543
     47          1           0       -5.160719    4.545180   -0.801123
     48          1           0       -3.431925    4.602106   -0.403264
     49          1           0       -4.640242    4.564942    0.892478
     50          1           0       -2.679049   -2.030733    0.148369
     51          1           0       -3.748662   -1.981902   -1.242350
     52          1           0       -5.584636   -1.100070    0.269575
     53          1           0       -4.428866   -0.982572    1.590727
     54          1           0       -4.122239   -3.457835    1.564003
     55          1           0       -5.775055   -2.954010    1.898191
     56          1           0       -5.824483   -4.838427    0.360740
     57          1           0       -6.383421   -3.400559   -0.510047
     58          1           0       -4.743712   -4.028235   -0.776923
 ---------------------------------------------------------------------
 Rotational constants (GHZ):      0.2376003      0.0444262      0.0419598
 Leave Link  202 at Wed Feb  5 13:04:16 2025, MaxMem=  5368709120 cpu:         0.0
 (Enter /home/k0335/k033513/app/g09/l301.exe)
 Standard basis: 6-31G(d,p) (6D, 7F)
 Ernie: Thresh=  0.10000D-02 Tol=  0.10000D-05 Strict=F.
   630 basis functions,  1120 primitive gaussians,   630 cartesian basis functions
   134 alpha electrons      134 beta electrons
       nuclear repulsion energy      4218.5219405103 Hartrees.
 IExCor=20419 DFT=T Ex+Corr=CAM-B3LYP ExCW=0 ScaHFX=  1.000000
 ScaDFX=  1.000000  1.000000  1.000000  0.810000 ScalE2=  1.000000  1.000000
 IRadAn=      0 IRanWt=     -1 IRanGd=            0 ICorTp=0 IEmpDi=  4
  HFx wShort=  0.000000 wLong=  0.330000 cFull=  0.190000 cShort=  0.000000 cLong=  0.460000
  DFx wShort=  0.000000 wLong=  0.330000 cFull=  0.190000 cShort=  0.000000 cLong=  0.460000
 NAtoms=   58 NActive=   58 NUniq=   58 SFac= 1.00D+00 NAtFMM=   60 NAOKFM=F Big=F
 Integral buffers will be    131072 words long.
 Raffenetti 2 integral format.
 Two-electron integral symmetry is turned off.
 Using the following non-standard input for PCM:
 eps=2.05
 --- end of non-standard input.
 ------------------------------------------------------------------------------
 Polarizable Continuum Model (PCM)
 =================================
 Model                : PCM (using non-symmetric T matrix).
 Atomic radii         : UFF (Universal Force Field).
 Polarization charges : Total charges.
 Charge compensation  : None.
 Solution method      : On-the-fly selection.
 Cavity type          : Scaled VdW (van der Waals Surface) (Alpha=1.100).
 Cavity algorithm     : GePol (No added spheres)
                        Default sphere list used, NSphG=   58.
                        Lebedev-Laikov grids with approx.  5.0 points / Ang**2.
                        Smoothing algorithm: Karplus/York (Gamma=1.0000).
                        Polarization charges: spherical gaussians, with
                                              point-specific exponents (IZeta= 3).
                        Self-potential: point-specific (ISelfS= 7).
                        Self-field    : sphere-specific E.n sum rule (ISelfD= 2).
 1st derivatives      : Analytical E(r).r(x)/FMM algorithm (CHGder, D1EAlg=3).
                        Cavity 1st derivative terms included.
 Solvent              : Generic,
                        Eps                           =   2.050000
                        Eps(infinity)                 =   0.000000
                        RSolv                         =   0.000000 Ang.
                        Molar volume                  =   0.000000 cm**3/mol
                        Thermal expansion coefficient =   0.000000 K**-1
                        Absolute temperature          = 298.150000 K
                        Numeral density               =   0.000000 Ang**-3
                        Hydrogen bond acidity         =   0.000000
                        Hydrogen bond basicity        =   0.000000
                        Surface tension at interface  =   0.000000 (cal/mol)*Ang**-2
                        Carbon aromaticity            =   0.000000
                        Electronegative halogenicity  =   0.000000
 ------------------------------------------------------------------------------
 GePol: Number of generator spheres                  =      58
 GePol: Total number of spheres                      =      58
 GePol: Number of exposed spheres                    =      57 ( 98.28%)
 GePol: Number of points                             =    4167
 GePol: Average weight of points                     =       0.13
 GePol: Minimum weight of points                     =   0.68D-11
 GePol: Maximum weight of points                     =    0.20577
 GePol: Number of points with low weight             =     244
 GePol: Fraction of low-weight points (<1% of avg)   =       5.86%
 GePol: Cavity surface area                          =    532.643 Ang**2
 GePol: Cavity volume                                =    590.853 Ang**3
 Leave Link  301 at Wed Feb  5 13:04:16 2025, MaxMem=  5368709120 cpu:         0.8
 (Enter /home/k0335/k033513/app/g09/l302.exe)
 NPDir=0 NMtPBC=     1 NCelOv=     1 NCel=       1 NClECP=     1 NCelD=      1
         NCelK=      1 NCelE2=     1 NClLst=     1 CellRange=     0.0.
 One-electron integrals computed using PRISM.
 NBasis=   630 RedAO= T EigKep=  7.89D-04  NBF=   630
 NBsUse=   630 1.00D-06 EigRej= -1.00D+00 NBFU=   630
 Precomputing XC quadrature grid using
 IXCGrd= 4 IRadAn=           0 IRanWt=          -1 IRanGd=           0 AccXCQ= 0.00D+00.
 Generated NRdTot=       0 NPtTot=           0 NUsed=           0 NTot=          32
 NSgBfM=   591   592   592   592   592 MxSgAt=    58 MxSgA2=    58.
 Leave Link  302 at Wed Feb  5 13:04:17 2025, MaxMem=  5368709120 cpu:        14.0
 (Enter /home/k0335/k033513/app/g09/l303.exe)
 DipDrv:  MaxL=1.
 Leave Link  303 at Wed Feb  5 13:04:17 2025, MaxMem=  5368709120 cpu:         0.9
 (Enter /home/k0335/k033513/app/g09/l401.exe)
 ExpMin= 1.61D-01 ExpMax= 7.00D+03 ExpMxC= 1.05D+03 IAcc=1 IRadAn=         1 AccDes= 0.00D+00
 Harris functional with IExCor=20419 and IRadAn=       1 diagonalized for initial guess.
 HarFok:  IExCor=20419 AccDes= 0.00D+00 IRadAn=         1 IDoV= 1 UseB2=F ITyADJ=14
 ICtDFT=  3500011 ScaDFX=  1.000000  1.000000  1.000000  1.000000
 FoFCou: FMM=F IPFlag=           0 FMFlag=      100000 FMFlg1=           0
         NFxFlg=           0 DoJE=T BraDBF=F KetDBF=T FulRan=T
         wScrn=  0.000000 ICntrl=     500 IOpCl=  0 I1Cent=   200000004 NGrid=           0
         NMat0=    1 NMatS0=      1 NMatT0=    0 NMatD0=    1 NMtDS0=    0 NMtDT0=    0
 Symmetry not used in FoFCou.
 Harris En= -2039.00685126506    
 JPrj=0 DoOrth=F DoCkMO=F.
 Leave Link  401 at Wed Feb  5 13:04:18 2025, MaxMem=  5368709120 cpu:        15.8
 (Enter /home/k0335/k033513/app/g09/l502.exe)
 Closed shell SCF:
 Using DIIS extrapolation, IDIIS=  1040.
 Two-electron integral symmetry not used.
 IVT=     1228266 IEndB=     1228266 NGot=  5368709120 MDV=  5367895025
 LenX=  5367895025 LenY=  5367497495
 Requested convergence on RMS density matrix=1.00D-08 within 128 cycles.
 Requested convergence on MAX density matrix=1.00D-06.
 Requested convergence on             energy=1.00D-06.
 No special actions if energy rises.
 Fock matrices will be formed incrementally for  20 cycles.

 Cycle   1  Pass 1  IDiag  1:
 FoFJK:  IHMeth= 1 ICntrl=       0 DoSepK=T KAlg= 0 I1Cent=   0 FoldK=F
 IRaf=         1 NMat=   1 IRICut=       1 DoRegI=T DoRafI=F ISym2E= 0.
 FoFCou: FMM=F IPFlag=           0 FMFlag=      100000 FMFlg1=           0
         NFxFlg=           0 DoJE=T BraDBF=F KetDBF=F FulRan=T
         wScrn=  0.000000 ICntrl=     500 IOpCl=  0 I1Cent=           0 NGrid=           0
         NMat0=    1 NMatS0=      1 NMatT0=    0 NMatD0=    1 NMtDS0=    0 NMtDT0=    0
 Symmetry not used in FoFCou.
 Inv3:  Mode=1 IEnd=    52091667.
 Iteration    1 A*A^-1 deviation from unit magnitude is 6.55D-15 for   4149.
 Iteration    1 A*A^-1 deviation from orthogonality  is 7.63D-15 for   4161   1994.
 Iteration    1 A^-1*A deviation from unit magnitude is 5.66D-15 for   4149.
 Iteration    1 A^-1*A deviation from orthogonality  is 2.36D-15 for   4127   3997.
 E= -2107.78844177907    
 DIIS: error= 5.51D-02 at cycle   1 NSaved=   1.
 NSaved= 1 IEnMin= 1 EnMin= -2107.78844177907     IErMin= 1 ErrMin= 5.51D-02
 ErrMax= 5.51D-02  0.00D+00 EMaxC= 1.00D-01 BMatC= 1.70D+00 BMatP= 1.70D+00
 IDIUse=3 WtCom= 4.49D-01 WtEn= 5.51D-01
 Coeff-Com:  0.100D+01
 Coeff-En:   0.100D+01
 Coeff:      0.100D+01
 Gap=     0.450 Goal=   None    Shift=    0.000
 GapD=    0.450 DampG=2.000 DampE=0.500 DampFc=1.0000 IDamp=-1.
 RMSDP=2.39D-03 MaxDP=1.25D-01              OVMax= 1.31D-01

 Cycle   2  Pass 1  IDiag  1:
 RMSU=  2.39D-03    CP:  9.95D-01
 E= -2108.03761880621     Delta-E=       -0.249177027144 Rises=F Damp=F
 DIIS: error= 1.98D-02 at cycle   2 NSaved=   2.
 NSaved= 2 IEnMin= 2 EnMin= -2108.03761880621     IErMin= 2 ErrMin= 1.98D-02
 ErrMax= 1.98D-02  0.00D+00 EMaxC= 1.00D-01 BMatC= 6.14D-01 BMatP= 1.70D+00
 IDIUse=3 WtCom= 8.02D-01 WtEn= 1.98D-01
 Coeff-Com:  0.350D+00 0.650D+00
 Coeff-En:   0.340D+00 0.660D+00
 Coeff:      0.348D+00 0.652D+00
 Gap=     0.286 Goal=   None    Shift=    0.000
 RMSDP=1.15D-03 MaxDP=7.23D-02 DE=-2.49D-01 OVMax= 9.30D-02

 Cycle   3  Pass 1  IDiag  1:
 RMSU=  7.13D-04    CP:  1.00D+00  6.25D-01
 E= -2108.33930122698     Delta-E=       -0.301682420773 Rises=F Damp=F
 DIIS: error= 6.78D-03 at cycle   3 NSaved=   3.
 NSaved= 3 IEnMin= 3 EnMin= -2108.33930122698     IErMin= 3 ErrMin= 6.78D-03
 ErrMax= 6.78D-03  0.00D+00 EMaxC= 1.00D-01 BMatC= 1.19D-01 BMatP= 6.14D-01
 IDIUse=3 WtCom= 9.32D-01 WtEn= 6.78D-02
 Coeff-Com:  0.668D-01 0.320D+00 0.613D+00
 Coeff-En:   0.000D+00 0.127D+00 0.873D+00
 Coeff:      0.623D-01 0.307D+00 0.631D+00
 Gap=     0.293 Goal=   None    Shift=    0.000
 RMSDP=5.24D-04 MaxDP=4.42D-02 DE=-3.02D-01 OVMax= 6.18D-02

 Cycle   4  Pass 1  IDiag  1:
 RMSU=  2.81D-04    CP:  9.97D-01  7.19D-01  4.75D-01
 E= -2108.40981089217     Delta-E=       -0.070509665193 Rises=F Damp=F
 DIIS: error= 2.63D-03 at cycle   4 NSaved=   4.
 NSaved= 4 IEnMin= 4 EnMin= -2108.40981089217     IErMin= 4 ErrMin= 2.63D-03
 ErrMax= 2.63D-03  0.00D+00 EMaxC= 1.00D-01 BMatC= 1.17D-02 BMatP= 1.19D-01
 IDIUse=3 WtCom= 9.74D-01 WtEn= 2.63D-02
 Coeff-Com:  0.670D-02 0.103D+00 0.326D+00 0.564D+00
 Coeff-En:   0.000D+00 0.000D+00 0.319D-01 0.968D+00
 Coeff:      0.652D-02 0.100D+00 0.319D+00 0.574D+00
 Gap=     0.279 Goal=   None    Shift=    0.000
 RMSDP=1.57D-04 MaxDP=1.60D-02 DE=-7.05D-02 OVMax= 2.42D-02

 Cycle   5  Pass 1  IDiag  1:
 RMSU=  7.37D-05    CP:  9.97D-01  7.19D-01  6.08D-01  6.41D-01
 E= -2108.41797270974     Delta-E=       -0.008161817569 Rises=F Damp=F
 DIIS: error= 7.78D-04 at cycle   5 NSaved=   5.
 NSaved= 5 IEnMin= 5 EnMin= -2108.41797270974     IErMin= 5 ErrMin= 7.78D-04
 ErrMax= 7.78D-04  0.00D+00 EMaxC= 1.00D-01 BMatC= 6.70D-04 BMatP= 1.17D-02
 IDIUse=3 WtCom= 9.92D-01 WtEn= 7.78D-03
 Coeff-Com:  0.652D-03 0.413D-01 0.151D+00 0.319D+00 0.488D+00
 Coeff-En:   0.000D+00 0.000D+00 0.000D+00 0.000D+00 0.100D+01
 Coeff:      0.647D-03 0.410D-01 0.150D+00 0.317D+00 0.492D+00
 Gap=     0.277 Goal=   None    Shift=    0.000
 RMSDP=3.47D-05 MaxDP=3.87D-03 DE=-8.16D-03 OVMax= 6.75D-03

 Cycle   6  Pass 1  IDiag  1:
 RMSU=  2.03D-05    CP:  9.97D-01  7.21D-01  6.08D-01  6.55D-01  6.29D-01
 E= -2108.41845840045     Delta-E=       -0.000485690708 Rises=F Damp=F
 DIIS: error= 1.40D-04 at cycle   6 NSaved=   6.
 NSaved= 6 IEnMin= 6 EnMin= -2108.41845840045     IErMin= 6 ErrMin= 1.40D-04
 ErrMax= 1.40D-04  0.00D+00 EMaxC= 1.00D-01 BMatC= 2.65D-05 BMatP= 6.70D-04
 IDIUse=3 WtCom= 9.99D-01 WtEn= 1.40D-03
 Coeff-Com: -0.551D-03 0.385D-02 0.203D-01 0.527D-01 0.189D+00 0.735D+00
 Coeff-En:   0.000D+00 0.000D+00 0.000D+00 0.000D+00 0.000D+00 0.100D+01
 Coeff:     -0.551D-03 0.384D-02 0.203D-01 0.527D-01 0.188D+00 0.735D+00
 Gap=     0.277 Goal=   None    Shift=    0.000
 RMSDP=1.06D-05 MaxDP=7.02D-04 DE=-4.86D-04 OVMax= 1.16D-03

 Cycle   7  Pass 1  IDiag  1:
 RMSU=  6.93D-06    CP:  9.97D-01  7.21D-01  6.11D-01  6.71D-01  7.10D-01
                    CP:  9.13D-01
 E= -2108.41847829148     Delta-E=       -0.000019891026 Rises=F Damp=F
 DIIS: error= 4.98D-05 at cycle   7 NSaved=   7.
 NSaved= 7 IEnMin= 7 EnMin= -2108.41847829148     IErMin= 7 ErrMin= 4.98D-05
 ErrMax= 4.98D-05  0.00D+00 EMaxC= 1.00D-01 BMatC= 4.22D-06 BMatP= 2.65D-05
 IDIUse=1 WtCom= 1.00D+00 WtEn= 0.00D+00
 Coeff-Com: -0.239D-03-0.385D-02-0.109D-01-0.189D-01 0.273D-01 0.337D+00
 Coeff-Com:  0.669D+00
 Coeff:     -0.239D-03-0.385D-02-0.109D-01-0.189D-01 0.273D-01 0.337D+00
 Coeff:      0.669D+00
 Gap=     0.278 Goal=   None    Shift=    0.000
 RMSDP=3.41D-06 MaxDP=3.10D-04 DE=-1.99D-05 OVMax= 5.17D-04

 Cycle   8  Pass 1  IDiag  1:
 RMSU=  2.14D-06    CP:  9.97D-01  7.21D-01  6.11D-01  6.71D-01  7.28D-01
                    CP:  1.01D+00  8.43D-01
 E= -2108.41848184896     Delta-E=       -0.000003557481 Rises=F Damp=F
 DIIS: error= 1.54D-05 at cycle   8 NSaved=   8.
 NSaved= 8 IEnMin= 8 EnMin= -2108.41848184896     IErMin= 8 ErrMin= 1.54D-05
 ErrMax= 1.54D-05  0.00D+00 EMaxC= 1.00D-01 BMatC= 2.84D-07 BMatP= 4.22D-06
 IDIUse=1 WtCom= 1.00D+00 WtEn= 0.00D+00
 Coeff-Com: -0.507D-04-0.183D-02-0.574D-02-0.119D-01-0.845D-03 0.777D-01
 Coeff-Com:  0.269D+00 0.674D+00
 Coeff:     -0.507D-04-0.183D-02-0.574D-02-0.119D-01-0.845D-03 0.777D-01
 Coeff:      0.269D+00 0.674D+00
 Gap=     0.277 Goal=   None    Shift=    0.000
 RMSDP=1.07D-06 MaxDP=6.84D-05 DE=-3.56D-06 OVMax= 1.42D-04

 Cycle   9  Pass 1  IDiag  1:
 RMSU=  8.35D-07    CP:  9.97D-01  7.21D-01  6.12D-01  6.71D-01  7.33D-01
                    CP:  1.02D+00  8.99D-01  9.60D-01
 E= -2108.41848210255     Delta-E=       -0.000000253592 Rises=F Damp=F
 DIIS: error= 4.18D-06 at cycle   9 NSaved=   9.
 NSaved= 9 IEnMin= 9 EnMin= -2108.41848210255     IErMin= 9 ErrMin= 4.18D-06
 ErrMax= 4.18D-06  0.00D+00 EMaxC= 1.00D-01 BMatC= 3.66D-08 BMatP= 2.84D-07
 IDIUse=1 WtCom= 1.00D+00 WtEn= 0.00D+00
 Coeff-Com:  0.109D-04-0.135D-03-0.532D-03-0.191D-02-0.367D-02-0.268D-01
 Coeff-Com: -0.167D-03 0.245D+00 0.788D+00
 Coeff:      0.109D-04-0.135D-03-0.532D-03-0.191D-02-0.367D-02-0.268D-01
 Coeff:     -0.167D-03 0.245D+00 0.788D+00
 Gap=     0.277 Goal=   None    Shift=    0.000
 RMSDP=5.56D-07 MaxDP=4.51D-05 DE=-2.54D-07 OVMax= 8.57D-05

 Cycle  10  Pass 1  IDiag  1:
 RMSU=  2.84D-07    CP:  9.97D-01  7.21D-01  6.12D-01  6.71D-01  7.36D-01
                    CP:  1.03D+00  9.29D-01  1.08D+00  9.58D-01
 E= -2108.41848214703     Delta-E=       -0.000000044475 Rises=F Damp=F
 DIIS: error= 2.52D-06 at cycle  10 NSaved=  10.
 NSaved=10 IEnMin=10 EnMin= -2108.41848214703     IErMin=10 ErrMin= 2.52D-06
 ErrMax= 2.52D-06  0.00D+00 EMaxC= 1.00D-01 BMatC= 4.64D-09 BMatP= 3.66D-08
 IDIUse=1 WtCom= 1.00D+00 WtEn= 0.00D+00
 Coeff-Com:  0.106D-04 0.153D-03 0.435D-03 0.523D-03-0.916D-03-0.199D-01
 Coeff-Com: -0.293D-01 0.134D-01 0.302D+00 0.733D+00
 Coeff:      0.106D-04 0.153D-03 0.435D-03 0.523D-03-0.916D-03-0.199D-01
 Coeff:     -0.293D-01 0.134D-01 0.302D+00 0.733D+00
 Gap=     0.277 Goal=   None    Shift=    0.000
 RMSDP=1.74D-07 MaxDP=1.46D-05 DE=-4.45D-08 OVMax= 3.57D-05

 Cycle  11  Pass 1  IDiag  1:
 RMSU=  1.07D-07    CP:  9.97D-01  7.21D-01  6.12D-01  6.71D-01  7.37D-01
                    CP:  1.03D+00  9.38D-01  1.11D+00  1.06D+00  9.68D-01
 E= -2108.41848215126     Delta-E=       -0.000000004231 Rises=F Damp=F
 DIIS: error= 1.19D-06 at cycle  11 NSaved=  11.
 NSaved=11 IEnMin=11 EnMin= -2108.41848215126     IErMin=11 ErrMin= 1.19D-06
 ErrMax= 1.19D-06  0.00D+00 EMaxC= 1.00D-01 BMatC= 1.57D-09 BMatP= 4.64D-09
 IDIUse=1 WtCom= 1.00D+00 WtEn= 0.00D+00
 Coeff-Com:  0.504D-05 0.115D-03 0.349D-03 0.601D-03 0.173D-03-0.795D-02
 Coeff-Com: -0.169D-01-0.293D-01 0.632D-01 0.439D+00 0.551D+00
 Coeff:      0.504D-05 0.115D-03 0.349D-03 0.601D-03 0.173D-03-0.795D-02
 Coeff:     -0.169D-01-0.293D-01 0.632D-01 0.439D+00 0.551D+00
 Gap=     0.277 Goal=   None    Shift=    0.000
 RMSDP=6.97D-08 MaxDP=7.19D-06 DE=-4.23D-09 OVMax= 1.37D-05

 Cycle  12  Pass 1  IDiag  1:
 RMSU=  4.00D-08    CP:  9.97D-01  7.21D-01  6.12D-01  6.71D-01  7.37D-01
                    CP:  1.03D+00  9.40D-01  1.12D+00  1.09D+00  1.07D+00
                    CP:  7.36D-01
 E= -2108.41848215254     Delta-E=       -0.000000001287 Rises=F Damp=F
 DIIS: error= 2.54D-07 at cycle  12 NSaved=  12.
 NSaved=12 IEnMin=12 EnMin= -2108.41848215254     IErMin=12 ErrMin= 2.54D-07
 ErrMax= 2.54D-07  0.00D+00 EMaxC= 1.00D-01 BMatC= 5.99D-11 BMatP= 1.57D-09
 IDIUse=1 WtCom= 1.00D+00 WtEn= 0.00D+00
 Coeff-Com:  0.643D-07 0.154D-04 0.504D-04 0.109D-03 0.282D-03 0.241D-03
 Coeff-Com: -0.903D-03-0.103D-01-0.193D-01 0.324D-01 0.151D+00 0.847D+00
 Coeff:      0.643D-07 0.154D-04 0.504D-04 0.109D-03 0.282D-03 0.241D-03
 Coeff:     -0.903D-03-0.103D-01-0.193D-01 0.324D-01 0.151D+00 0.847D+00
 Gap=     0.277 Goal=   None    Shift=    0.000
 RMSDP=2.03D-08 MaxDP=1.18D-06 DE=-1.29D-09 OVMax= 3.94D-06

 Cycle  13  Pass 1  IDiag  1:
 RMSU=  1.07D-08    CP:  9.97D-01  7.21D-01  6.12D-01  6.71D-01  7.37D-01
                    CP:  1.03D+00  9.41D-01  1.12D+00  1.10D+00  1.10D+00
                    CP:  8.28D-01  9.84D-01
 E= -2108.41848215262     Delta-E=       -0.000000000073 Rises=F Damp=F
 DIIS: error= 6.55D-08 at cycle  13 NSaved=  13.
 NSaved=13 IEnMin=13 EnMin= -2108.41848215262     IErMin=13 ErrMin= 6.55D-08
 ErrMax= 6.55D-08  0.00D+00 EMaxC= 1.00D-01 BMatC= 1.07D-11 BMatP= 5.99D-11
 IDIUse=1 WtCom= 1.00D+00 WtEn= 0.00D+00
 Coeff-Com: -0.489D-06-0.432D-05-0.111D-04-0.114D-04 0.119D-03 0.838D-03
 Coeff-Com:  0.124D-02-0.182D-02-0.150D-01-0.298D-01 0.897D-02 0.375D+00
 Coeff-Com:  0.661D+00
 Coeff:     -0.489D-06-0.432D-05-0.111D-04-0.114D-04 0.119D-03 0.838D-03
 Coeff:      0.124D-02-0.182D-02-0.150D-01-0.298D-01 0.897D-02 0.375D+00
 Coeff:      0.661D+00
 Gap=     0.277 Goal=   None    Shift=    0.000
 RMSDP=6.40D-09 MaxDP=4.28D-07 DE=-7.28D-11 OVMax= 7.62D-07

 Error on total polarization charges =  0.00495
 SCF Done:  E(RCAM-B3LYP) =  -2108.41848215     A.U. after   13 cycles
            NFock= 13  Conv=0.64D-08     -V/T= 2.0078
 KE= 2.092153193703D+03 PE=-1.339913746119D+04 EE= 4.980043844824D+03
 Leave Link  502 at Wed Feb  5 13:05:14 2025, MaxMem=  5368709120 cpu:      1247.6
 (Enter /home/k0335/k033513/app/g09/l601.exe)
 Copying SCF densities to generalized density rwf, IOpCl= 0 IROHF=0.

 **********************************************************************

            Population analysis using the SCF density.

 **********************************************************************

 Alpha  occ. eigenvalues --  -24.84015 -24.82713 -24.82706 -24.82582 -24.82341
 Alpha  occ. eigenvalues --  -24.82109 -24.82055 -24.81669 -24.81417 -24.81225
 Alpha  occ. eigenvalues --  -19.31507 -19.30168 -19.25155 -19.22099 -14.45274
 Alpha  occ. eigenvalues --  -14.40087 -10.52451 -10.49096 -10.48795 -10.47490
 Alpha  occ. eigenvalues --  -10.46791 -10.44245 -10.42576 -10.39975 -10.30111
 Alpha  occ. eigenvalues --  -10.29124 -10.27866 -10.27778 -10.25120 -10.24956
 Alpha  occ. eigenvalues --  -10.24776 -10.24547 -10.24239 -10.24128  -1.40534
 Alpha  occ. eigenvalues --   -1.38179  -1.38011  -1.37332  -1.34766  -1.33976
 Alpha  occ. eigenvalues --   -1.32726  -1.31716  -1.30755  -1.30493  -1.22058
 Alpha  occ. eigenvalues --   -1.19746  -1.14067  -1.12129  -1.01987  -0.99842
 Alpha  occ. eigenvalues --   -0.97388  -0.90087  -0.87920  -0.87763  -0.86971
 Alpha  occ. eigenvalues --   -0.84619  -0.81890  -0.80383  -0.77907  -0.77509
 Alpha  occ. eigenvalues --   -0.75913  -0.73811  -0.72259  -0.71298  -0.70471
 Alpha  occ. eigenvalues --   -0.70347  -0.69520  -0.68497  -0.67759  -0.67360
 Alpha  occ. eigenvalues --   -0.66937  -0.65853  -0.65542  -0.65192  -0.64521
 Alpha  occ. eigenvalues --   -0.64485  -0.63581  -0.63170  -0.62798  -0.61121
 Alpha  occ. eigenvalues --   -0.58203  -0.57618  -0.56866  -0.56362  -0.56278
 Alpha  occ. eigenvalues --   -0.55791  -0.55489  -0.55226  -0.54376  -0.54191
 Alpha  occ. eigenvalues --   -0.53945  -0.53588  -0.53387  -0.52905  -0.52559
 Alpha  occ. eigenvalues --   -0.52294  -0.52115  -0.51990  -0.51839  -0.51625
 Alpha  occ. eigenvalues --   -0.51117  -0.50861  -0.50705  -0.50090  -0.49863
 Alpha  occ. eigenvalues --   -0.49302  -0.49046  -0.48365  -0.48219  -0.48110
 Alpha  occ. eigenvalues --   -0.47757  -0.47618  -0.46568  -0.46284  -0.45210
 Alpha  occ. eigenvalues --   -0.44772  -0.44258  -0.43667  -0.43228  -0.42502
 Alpha  occ. eigenvalues --   -0.41999  -0.41695  -0.40905  -0.40723  -0.39236
 Alpha  occ. eigenvalues --   -0.38842  -0.38686  -0.38379  -0.37632  -0.37617
 Alpha  occ. eigenvalues --   -0.37448  -0.34669  -0.32810  -0.27784
 Alpha virt. eigenvalues --   -0.00039   0.02236   0.04531   0.08963   0.10352
 Alpha virt. eigenvalues --    0.11511   0.12416   0.13414   0.13923   0.14239
 Alpha virt. eigenvalues --    0.14645   0.15571   0.15666   0.16537   0.17749
 Alpha virt. eigenvalues --    0.18640   0.19554   0.19761   0.20160   0.20610
 Alpha virt. eigenvalues --    0.21154   0.21347   0.21901   0.21985   0.22217
 Alpha virt. eigenvalues --    0.22432   0.23041   0.23437   0.23544   0.24145
 Alpha virt. eigenvalues --    0.24635   0.25405   0.25562   0.26129   0.26696
 Alpha virt. eigenvalues --    0.27142   0.27246   0.28328   0.28449   0.28879
 Alpha virt. eigenvalues --    0.28912   0.29626   0.29886   0.30125   0.31187
 Alpha virt. eigenvalues --    0.31419   0.31692   0.32423   0.32577   0.33272
 Alpha virt. eigenvalues --    0.33512   0.34268   0.34572   0.35160   0.36147
 Alpha virt. eigenvalues --    0.36519   0.38574   0.40398   0.42341   0.44430
 Alpha virt. eigenvalues --    0.48929   0.50430   0.51083   0.52874   0.54144
 Alpha virt. eigenvalues --    0.54928   0.55207   0.55710   0.56258   0.56728
 Alpha virt. eigenvalues --    0.57883   0.58083   0.58385   0.58896   0.59833
 Alpha virt. eigenvalues --    0.60288   0.60604   0.61264   0.61411   0.62101
 Alpha virt. eigenvalues --    0.62284   0.63886   0.64280   0.64814   0.65075
 Alpha virt. eigenvalues --    0.65546   0.67179   0.67859   0.68480   0.69483
 Alpha virt. eigenvalues --    0.69588   0.70363   0.70592   0.70917   0.72235
 Alpha virt. eigenvalues --    0.72815   0.73202   0.74249   0.74811   0.75393
 Alpha virt. eigenvalues --    0.75967   0.76112   0.77154   0.77388   0.78371
 Alpha virt. eigenvalues --    0.79039   0.80075   0.81058   0.82606   0.83146
 Alpha virt. eigenvalues --    0.84304   0.85002   0.85802   0.87361   0.88235
 Alpha virt. eigenvalues --    0.88735   0.89473   0.89678   0.90479   0.90674
 Alpha virt. eigenvalues --    0.91616   0.92136   0.92406   0.92528   0.92960
 Alpha virt. eigenvalues --    0.93714   0.94007   0.94881   0.95525   0.95829
 Alpha virt. eigenvalues --    0.96148   0.96545   0.97415   0.98367   0.99239
 Alpha virt. eigenvalues --    0.99548   0.99904   1.00240   1.00743   1.01063
 Alpha virt. eigenvalues --    1.01701   1.02588   1.03012   1.03792   1.03979
 Alpha virt. eigenvalues --    1.04741   1.04908   1.05660   1.06423   1.07738
 Alpha virt. eigenvalues --    1.08218   1.08833   1.09524   1.10202   1.11213
 Alpha virt. eigenvalues --    1.11439   1.13456   1.14061   1.14909   1.15709
 Alpha virt. eigenvalues --    1.16728   1.17053   1.17619   1.19295   1.19834
 Alpha virt. eigenvalues --    1.20883   1.21588   1.22992   1.23455   1.25089
 Alpha virt. eigenvalues --    1.26780   1.27201   1.27804   1.28842   1.28864
 Alpha virt. eigenvalues --    1.30274   1.31398   1.32139   1.32881   1.33993
 Alpha virt. eigenvalues --    1.34829   1.35229   1.35703   1.36430   1.36894
 Alpha virt. eigenvalues --    1.37342   1.37655   1.38143   1.38709   1.39553
 Alpha virt. eigenvalues --    1.40282   1.40635   1.41584   1.42605   1.42791
 Alpha virt. eigenvalues --    1.43538   1.44571   1.45107   1.45826   1.46891
 Alpha virt. eigenvalues --    1.47406   1.49054   1.49827   1.49920   1.50705
 Alpha virt. eigenvalues --    1.51451   1.53482   1.54942   1.55066   1.55537
 Alpha virt. eigenvalues --    1.56125   1.56566   1.57915   1.58159   1.59601
 Alpha virt. eigenvalues --    1.60293   1.61911   1.62730   1.63404   1.63767
 Alpha virt. eigenvalues --    1.64434   1.65201   1.65634   1.66582   1.68295
 Alpha virt. eigenvalues --    1.69249   1.70736   1.71129   1.72032   1.72255
 Alpha virt. eigenvalues --    1.72382   1.72932   1.73842   1.74448   1.74759
 Alpha virt. eigenvalues --    1.75485   1.76895   1.77073   1.77915   1.78278
 Alpha virt. eigenvalues --    1.78525   1.78952   1.79800   1.80116   1.81504
 Alpha virt. eigenvalues --    1.81727   1.82201   1.82633   1.84221   1.84375
 Alpha virt. eigenvalues --    1.85230   1.86134   1.86798   1.87332   1.87853
 Alpha virt. eigenvalues --    1.88169   1.88614   1.88948   1.89939   1.90515
 Alpha virt. eigenvalues --    1.91139   1.92844   1.93007   1.93265   1.93486
 Alpha virt. eigenvalues --    1.94341   1.94899   1.95107   1.95525   1.95961
 Alpha virt. eigenvalues --    1.96776   1.97252   1.98724   1.99081   1.99717
 Alpha virt. eigenvalues --    2.00857   2.01131   2.02167   2.02531   2.02940
 Alpha virt. eigenvalues --    2.03439   2.03756   2.04263   2.04838   2.05888
 Alpha virt. eigenvalues --    2.06669   2.07526   2.07862   2.08664   2.08773
 Alpha virt. eigenvalues --    2.09407   2.10116   2.10651   2.11160   2.11597
 Alpha virt. eigenvalues --    2.11875   2.12719   2.12952   2.13069   2.13307
 Alpha virt. eigenvalues --    2.14386   2.14456   2.14507   2.14988   2.15565
 Alpha virt. eigenvalues --    2.15928   2.17157   2.18278   2.18557   2.18977
 Alpha virt. eigenvalues --    2.19348   2.19557   2.20661   2.21786   2.22323
 Alpha virt. eigenvalues --    2.22697   2.23315   2.23635   2.24564   2.25471
 Alpha virt. eigenvalues --    2.26126   2.26894   2.28180   2.28718   2.29161
 Alpha virt. eigenvalues --    2.30638   2.31944   2.32477   2.32844   2.33490
 Alpha virt. eigenvalues --    2.34074   2.34686   2.35295   2.35797   2.36330
 Alpha virt. eigenvalues --    2.36938   2.37425   2.37905   2.38578   2.39525
 Alpha virt. eigenvalues --    2.40342   2.40754   2.41392   2.41702   2.43164
 Alpha virt. eigenvalues --    2.43689   2.44301   2.45220   2.46095   2.47032
 Alpha virt. eigenvalues --    2.48899   2.49747   2.50426   2.52236   2.53107
 Alpha virt. eigenvalues --    2.53973   2.54691   2.54965   2.57069   2.57656
 Alpha virt. eigenvalues --    2.58175   2.58273   2.60085   2.60698   2.61085
 Alpha virt. eigenvalues --    2.62301   2.62850   2.64546   2.65347   2.66252
 Alpha virt. eigenvalues --    2.67554   2.67944   2.68453   2.69550   2.70253
 Alpha virt. eigenvalues --    2.70879   2.72354   2.73399   2.73930   2.74556
 Alpha virt. eigenvalues --    2.74794   2.76369   2.77420   2.78227   2.79025
 Alpha virt. eigenvalues --    2.79848   2.80324   2.80531   2.82082   2.82728
 Alpha virt. eigenvalues --    2.83213   2.84542   2.85076   2.86337   2.86777
 Alpha virt. eigenvalues --    2.87655   2.88588   2.88844   2.89621   2.89885
 Alpha virt. eigenvalues --    2.90736   2.91496   2.92256   2.92857   2.93739
 Alpha virt. eigenvalues --    2.94671   2.94997   2.95669   2.96638   2.97214
 Alpha virt. eigenvalues --    2.97547   2.98326   2.98706   2.99304   3.00267
 Alpha virt. eigenvalues --    3.00621   3.00719   3.01345   3.02340   3.03292
 Alpha virt. eigenvalues --    3.05312   3.05736   3.07978   3.08135   3.10130
 Alpha virt. eigenvalues --    3.10830   3.12100   3.14189   3.16281   3.18019
 Alpha virt. eigenvalues --    3.18696   3.22249   3.25426   3.26683   3.26882
 Alpha virt. eigenvalues --    3.27567   3.27684   3.29918   3.32024   3.32882
 Alpha virt. eigenvalues --    3.34953   3.35568   3.36134   3.38855   3.40068
 Alpha virt. eigenvalues --    3.41554   3.41922   3.43775   3.44747   3.46316
 Alpha virt. eigenvalues --    3.48095   3.49310   3.52383   3.54571   3.56124
 Alpha virt. eigenvalues --    3.56716   3.57055   3.60978   3.62975   3.63548
 Alpha virt. eigenvalues --    3.66021   3.66994   3.96625   4.08076   4.13629
 Alpha virt. eigenvalues --    4.19068   4.22887   4.26578   4.35445   4.37548
 Alpha virt. eigenvalues --    4.37806   4.39768   4.45231   4.52371   4.54235
 Alpha virt. eigenvalues --    4.54419   4.55469   4.59670   4.67295   4.67811
 Alpha virt. eigenvalues --    4.69782   4.74005   4.77262   4.77811   4.81876
 Alpha virt. eigenvalues --    4.86091   5.00052   5.09007   5.17276   5.37599
 Alpha virt. eigenvalues --    5.49880   5.54378   6.00456   6.23155   6.61698
 Alpha virt. eigenvalues --    7.15116
          Condensed to atoms (all electrons):
 Mulliken charges:
               1
     1  F   -0.237306
     2  C    0.749614
     3  F   -0.246913
     4  C    0.546717
     5  F   -0.245804
     6  F   -0.265616
     7  C    0.131115
     8  F   -0.282923
     9  C    0.627999
    10  F   -0.262707
    11  C    0.526048
    12  O   -0.472357
    13  O   -0.444716
    14  F   -0.275945
    15  C    0.485929
    16  F   -0.270531
    17  C    0.548319
    18  F   -0.275428
    19  C    0.578434
    20  N   -0.568805
    21  C   -0.033464
    22  C   -0.047069
    23  N   -0.441014
    24  C   -0.041450
    25  C   -0.183085
    26  C   -0.162051
    27  C   -0.319382
    28  C   -0.037077
    29  C   -0.174172
    30  C   -0.186229
    31  C   -0.317839
    32  O   -0.492337
    33  F   -0.281893
    34  O   -0.488712
    35  H    0.361202
    36  H    0.284617
    37  H    0.132888
    38  H    0.148024
    39  H    0.096096
    40  H    0.095511
    41  H    0.103044
    42  H    0.077095
    43  H    0.093627
    44  H    0.088992
    45  H    0.106343
    46  H    0.090038
    47  H    0.100152
    48  H    0.099025
    49  H    0.100796
    50  H    0.098620
    51  H    0.085031
    52  H    0.093041
    53  H    0.103419
    54  H    0.096550
    55  H    0.095847
    56  H    0.102921
    57  H    0.101896
    58  H    0.105874
 Sum of Mulliken charges =   0.00000
 Mulliken charges with hydrogens summed into heavy atoms:
               1
     1  F   -0.237306
     2  C    0.749614
     3  F   -0.246913
     4  C    0.546717
     5  F   -0.245804
     6  F   -0.265616
     7  C    0.131115
     8  F   -0.282923
     9  C    0.627999
    10  F   -0.262707
    11  C    0.526048
    12  O   -0.111155
    13  O   -0.444716
    14  F   -0.275945
    15  C    0.485929
    16  F   -0.270531
    17  C    0.548319
    18  F   -0.275428
    19  C    0.578434
    20  N   -0.284188
    21  C    0.247448
    22  C    0.144537
    23  N   -0.441014
    24  C    0.138689
    25  C   -0.000466
    26  C    0.034331
    27  C   -0.019410
    28  C    0.146573
    29  C    0.022288
    30  C    0.006168
    31  C   -0.007147
    32  O   -0.492337
    33  F   -0.281893
    34  O   -0.488712
 Electronic spatial extent (au):  <R**2>=          29676.1213
 Charge=              0.0000 electrons
 Dipole moment (field-independent basis, Debye):
    X=             -2.1107    Y=              2.1736    Z=             -3.9826  Tot=              5.0041
 Quadrupole moment (field-independent basis, Debye-Ang):
   XX=           -181.2411   YY=           -197.2237   ZZ=           -197.7297
   XY=              9.2508   XZ=            -18.3452   YZ=              0.2614
 Traceless Quadrupole moment (field-independent basis, Debye-Ang):
   XX=             10.8237   YY=             -5.1589   ZZ=             -5.6649
   XY=              9.2508   XZ=            -18.3452   YZ=              0.2614
 Octapole moment (field-independent basis, Debye-Ang**2):
  XXX=           -928.3907  YYY=             -7.7744  ZZZ=            -74.9023  XYY=           -354.3744
  XXY=             24.9307  XXZ=           -216.9937  XZZ=           -356.3201  YZZ=              7.7010
  YYZ=            -25.8289  XYZ=              4.8343
 Hexadecapole moment (field-independent basis, Debye-Ang**3):
 XXXX=         -27864.7755 YYYY=          -3671.8834 ZZZZ=          -1722.4049 XXXY=            -69.0131
 XXXZ=          -2687.9081 YYYX=           -248.7565 YYYZ=             48.0122 ZZZX=           -898.1353
 ZZZY=             50.5337 XXYY=          -5577.0273 XXZZ=          -5167.3306 YYZZ=           -890.0120
 XXYZ=            -49.4519 YYXZ=           -303.5599 ZZXY=            -70.9121
 N-N= 4.218521940510D+03 E-N=-1.339913746428D+04  KE= 2.092153193703D+03
 No NMR shielding tensors so no spin-rotation constants.
 Leave Link  601 at Wed Feb  5 13:05:14 2025, MaxMem=  5368709120 cpu:         3.8
 (Enter /home/k0335/k033513/app/g09/l701.exe)
 Compute integral first derivatives.
 ... and contract with generalized density number  0.
 D1PCM: PCM CHGder 1st derivatives, ID1Alg=3 FixD1E=F DoIter=F DoCFld=F I1PDM=0.
 GePol: Maximum number of non-zero 1st derivatives   =     227
 Leave Link  701 at Wed Feb  5 13:05:17 2025, MaxMem=  5368709120 cpu:        42.7
 (Enter /home/k0335/k033513/app/g09/l702.exe)
 L702 exits ... SP integral derivatives will be done elsewhere.
 Leave Link  702 at Wed Feb  5 13:05:17 2025, MaxMem=  5368709120 cpu:         0.2
 (Enter /home/k0335/k033513/app/g09/l703.exe)
 Compute integral first derivatives, UseDBF=F ICtDFT=           0.
 Integral derivatives from FoFJK, PRISM(SPDF).
 Calling FoFJK, ICntrl=      2127 FMM=F ISym2X=0 I1Cent= 0 IOpClX= 0 NMat=1 NMatS=1 NMatT=0.
 FoFJK:  IHMeth= 1 ICntrl=    2127 DoSepK=T KAlg= 0 I1Cent=   0 FoldK=F
 IRaf=         1 NMat=   1 IRICut=       1 DoRegI=T DoRafI=F ISym2E= 0.
 FoFCou: FMM=F IPFlag=           0 FMFlag=      100000 FMFlg1=         800
         NFxFlg=           0 DoJE=F BraDBF=F KetDBF=F FulRan=T
         wScrn=  0.000000 ICntrl=    2527 IOpCl=  0 I1Cent=           0 NGrid=           0
         NMat0=    1 NMatS0=      1 NMatT0=    0 NMatD0=    1 NMtDS0=    0 NMtDT0=    0
 Symmetry not used in FoFCou.
 Leave Link  703 at Wed Feb  5 13:05:30 2025, MaxMem=  5368709120 cpu:       298.7
 (Enter /home/k0335/k033513/app/g09/l716.exe)
 Dipole        =-8.30408011D-01 8.55157895D-01-1.56689375D+00
 -------------------------------------------------------------------
 Center     Atomic                   Forces (Hartrees/Bohr)
 Number     Number              X              Y              Z
[...]
     28          6           0       -3.110948   -1.326711   -0.315279
     29          6           0       -4.155031   -1.558827    0.773299
     30          6           0       -4.394500   -3.036636    1.093281
     31          6           0       -5.074317   -3.822282   -0.027091
     32          8           0        1.144186   -1.738211   -0.209497
     33          9           0        3.154478    0.843851   -1.434866
     34          8           0        3.647815    0.407182    1.240314
     35          1           0        9.208527   -0.378311   -1.128852
     36          1           0        1.260166    1.395989   -0.549881
     37          1           0       -0.787191    1.394826    0.685793
     38          1           0       -0.670769   -0.360729    0.813130
     39          1           0       -1.496055    1.257290   -1.639871
     40          1           0       -1.159909   -0.470191   -1.712485
     41          1           0       -4.839930    0.174359   -1.261906
     42          1           0       -3.655024    0.450517   -2.530129
     43          1           0       -4.760446    2.536105   -2.054701
     44          1           0       -3.124877    2.694227   -1.452135
     45          1           0       -3.950823    2.117149    0.859987
     46          1           0       -5.590076    2.065888    0.243934
     47          1           0       -5.422544    4.491473   -0.437636
     48          1           0       -3.778622    4.550311    0.202219
     49          1           0       -5.141355    4.287032    1.294296
     50          1           0       -2.166965   -1.773646    0.013208
     51          1           0       -3.387768   -1.854521   -1.243764
     52          1           0       -5.107359   -1.095078    0.488108
     53          1           0       -3.817581   -1.034951    1.673821
     54          1           0       -3.438837   -3.512119    1.346834
     55          1           0       -5.011931   -3.100782    1.995901
     56          1           0       -5.275881   -4.851634    0.281725
     57          1           0       -6.030581   -3.364797   -0.301445
     58          1           0       -4.458467   -3.867350   -0.929311
 ---------------------------------------------------------------------
 Rotational constants (GHZ):      0.2363869      0.0486943      0.0448492
 Leave Link  202 at Wed Feb  5 13:38:04 2025, MaxMem=  5368709120 cpu:         0.9
 (Enter /home/k0335/k033513/app/g09/l601.exe)
 Copying SCF densities to generalized density rwf, IOpCl= 0 IROHF=0.

 **********************************************************************

            Population analysis using the SCF density.

 **********************************************************************

 Alpha  occ. eigenvalues --  -24.83864 -24.83308 -24.82836 -24.82415 -24.82245
 Alpha  occ. eigenvalues --  -24.82182 -24.81992 -24.81874 -24.81614 -24.81150
 Alpha  occ. eigenvalues --  -19.31621 -19.30542 -19.24995 -19.21064 -14.45417
 Alpha  occ. eigenvalues --  -14.39397 -10.52398 -10.48476 -10.47950 -10.46509
 Alpha  occ. eigenvalues --  -10.46404 -10.43634 -10.42173 -10.38903 -10.29910
 Alpha  occ. eigenvalues --  -10.28348 -10.27599 -10.27275 -10.24891 -10.24839
 Alpha  occ. eigenvalues --  -10.24515 -10.24502 -10.24230 -10.24112  -1.40960
 Alpha  occ. eigenvalues --   -1.38591  -1.38144  -1.37465  -1.34709  -1.34261
 Alpha  occ. eigenvalues --   -1.33366  -1.32090  -1.31589  -1.31123  -1.22808
 Alpha  occ. eigenvalues --   -1.21834  -1.14171  -1.13760  -1.02925  -1.00337
 Alpha  occ. eigenvalues --   -0.94979  -0.90480  -0.87604  -0.86955  -0.86524
 Alpha  occ. eigenvalues --   -0.84455  -0.81497  -0.80360  -0.78040  -0.77640
 Alpha  occ. eigenvalues --   -0.75828  -0.73876  -0.72528  -0.71269  -0.70821
 Alpha  occ. eigenvalues --   -0.70565  -0.69171  -0.68763  -0.67729  -0.67514
 Alpha  occ. eigenvalues --   -0.66921  -0.66798  -0.66460  -0.65386  -0.64717
 Alpha  occ. eigenvalues --   -0.64435  -0.64046  -0.63664  -0.63060  -0.61726
 Alpha  occ. eigenvalues --   -0.58530  -0.57442  -0.56812  -0.56477  -0.56275
 Alpha  occ. eigenvalues --   -0.55944  -0.55415  -0.55063  -0.54428  -0.54245
 Alpha  occ. eigenvalues --   -0.53683  -0.53489  -0.53454  -0.53098  -0.52989
 Alpha  occ. eigenvalues --   -0.52855  -0.52032  -0.51826  -0.51556  -0.51284
 Alpha  occ. eigenvalues --   -0.51246  -0.50550  -0.50477  -0.50162  -0.50007
 Alpha  occ. eigenvalues --   -0.49654  -0.49465  -0.49127  -0.48334  -0.48003
 Alpha  occ. eigenvalues --   -0.47889  -0.47324  -0.46470  -0.45762  -0.45541
 Alpha  occ. eigenvalues --   -0.44490  -0.44295  -0.43573  -0.42572  -0.41943
 Alpha  occ. eigenvalues --   -0.41810  -0.41749  -0.41568  -0.40880  -0.39454
 Alpha  occ. eigenvalues --   -0.38708  -0.38579  -0.38288  -0.37596  -0.37486
 Alpha  occ. eigenvalues --   -0.37334  -0.33965  -0.33227  -0.27073
 Alpha virt. eigenvalues --    0.01783   0.03425   0.06647   0.10473   0.11427
 Alpha virt. eigenvalues --    0.12310   0.12555   0.13792   0.14531   0.15010
 Alpha virt. eigenvalues --    0.15408   0.15664   0.16741   0.17524   0.18093
 Alpha virt. eigenvalues --    0.18644   0.19124   0.20093   0.20236   0.20901
 Alpha virt. eigenvalues --    0.21245   0.21688   0.21822   0.22084   0.22680
 Alpha virt. eigenvalues --    0.22994   0.23626   0.23857   0.24308   0.25132
 Alpha virt. eigenvalues --    0.25357   0.25823   0.26387   0.26474   0.26745
 Alpha virt. eigenvalues --    0.27301   0.27888   0.28208   0.29027   0.29117
 Alpha virt. eigenvalues --    0.29869   0.30167   0.30574   0.31239   0.31444
 Alpha virt. eigenvalues --    0.31910   0.32127   0.32534   0.32730   0.33180
 Alpha virt. eigenvalues --    0.34105   0.34846   0.35801   0.35979   0.36444
 Alpha virt. eigenvalues --    0.37044   0.37884   0.40490   0.43793   0.46484
 Alpha virt. eigenvalues --    0.48544   0.49963   0.50908   0.52436   0.54405
 Alpha virt. eigenvalues --    0.54628   0.55401   0.56135   0.56585   0.56961
 Alpha virt. eigenvalues --    0.57155   0.57925   0.58601   0.58805   0.59303
 Alpha virt. eigenvalues --    0.59858   0.60353   0.61008   0.61514   0.61808
 Alpha virt. eigenvalues --    0.62226   0.62803   0.63776   0.64948   0.66009
 Alpha virt. eigenvalues --    0.66082   0.67445   0.68340   0.69380   0.69764
 Alpha virt. eigenvalues --    0.70155   0.70692   0.71285   0.71881   0.72873
 Alpha virt. eigenvalues --    0.73031   0.74025   0.74326   0.74468   0.75112
 Alpha virt. eigenvalues --    0.75574   0.76837   0.77538   0.78541   0.78830
 Alpha virt. eigenvalues --    0.79477   0.79694   0.80324   0.81605   0.82309
 Alpha virt. eigenvalues --    0.83362   0.84114   0.85097   0.85890   0.87410
 Alpha virt. eigenvalues --    0.88505   0.88744   0.89204   0.90418   0.91103
 Alpha virt. eigenvalues --    0.91994   0.92270   0.93041   0.93424   0.93826
 Alpha virt. eigenvalues --    0.94086   0.94312   0.94779   0.95337   0.96063
 Alpha virt. eigenvalues --    0.96501   0.97228   0.97469   0.98109   0.98771
 Alpha virt. eigenvalues --    0.99392   0.99426   1.00234   1.00518   1.01370
 Alpha virt. eigenvalues --    1.01963   1.02604   1.02957   1.03254   1.04011
 Alpha virt. eigenvalues --    1.04591   1.04679   1.05849   1.06422   1.07221
 Alpha virt. eigenvalues --    1.07978   1.08405   1.09758   1.11036   1.11285
 Alpha virt. eigenvalues --    1.11698   1.12717   1.13154   1.14025   1.14957
 Alpha virt. eigenvalues --    1.16017   1.16837   1.17658   1.18662   1.19107
 Alpha virt. eigenvalues --    1.20369   1.21151   1.22902   1.24423   1.24710
 Alpha virt. eigenvalues --    1.24880   1.28081   1.28243   1.29203   1.29653
 Alpha virt. eigenvalues --    1.31206   1.31750   1.33616   1.34352   1.35120
 Alpha virt. eigenvalues --    1.35369   1.35872   1.35926   1.36488   1.38484
 Alpha virt. eigenvalues --    1.38782   1.39780   1.40246   1.40773   1.41513
 Alpha virt. eigenvalues --    1.42531   1.42972   1.43296   1.43947   1.44743
 Alpha virt. eigenvalues --    1.45029   1.45283   1.45546   1.46747   1.47504
 Alpha virt. eigenvalues --    1.48869   1.49107   1.50109   1.50797   1.51756
 Alpha virt. eigenvalues --    1.52120   1.52484   1.53323   1.53973   1.54409
 Alpha virt. eigenvalues --    1.54926   1.55238   1.57004   1.58204   1.59334
 Alpha virt. eigenvalues --    1.59612   1.60587   1.60787   1.62105   1.62311
 Alpha virt. eigenvalues --    1.63028   1.64595   1.65371   1.66302   1.66543
 Alpha virt. eigenvalues --    1.67956   1.69302   1.69946   1.70818   1.71879
 Alpha virt. eigenvalues --    1.72839   1.73164   1.73800   1.74027   1.74817
 Alpha virt. eigenvalues --    1.75873   1.76146   1.76802   1.77123   1.77992
 Alpha virt. eigenvalues --    1.79002   1.79391   1.79903   1.80384   1.81035
 Alpha virt. eigenvalues --    1.81899   1.83245   1.84432   1.84716   1.85538
 Alpha virt. eigenvalues --    1.86375   1.86673   1.86843   1.87719   1.88114
 Alpha virt. eigenvalues --    1.88535   1.89156   1.89664   1.89852   1.90502
 Alpha virt. eigenvalues --    1.91392   1.91921   1.92449   1.93185   1.93559
 Alpha virt. eigenvalues --    1.93803   1.94732   1.94807   1.95491   1.96311
 Alpha virt. eigenvalues --    1.96915   1.97537   1.98921   1.99276   1.99732
 Alpha virt. eigenvalues --    1.99874   2.01266   2.01726   2.02015   2.02673
 Alpha virt. eigenvalues --    2.03001   2.03839   2.04343   2.04743   2.06044
 Alpha virt. eigenvalues --    2.06571   2.06740   2.07757   2.08060   2.09096
 Alpha virt. eigenvalues --    2.09593   2.09905   2.10564   2.11669   2.12702
 Alpha virt. eigenvalues --    2.13090   2.13358   2.13479   2.13882   2.14205
 Alpha virt. eigenvalues --    2.14901   2.15077   2.15347   2.15745   2.16181
 Alpha virt. eigenvalues --    2.18352   2.18359   2.18718   2.18985   2.19710
 Alpha virt. eigenvalues --    2.20819   2.21275   2.21407   2.21615   2.22480
 Alpha virt. eigenvalues --    2.23720   2.24327   2.25284   2.25748   2.26214
 Alpha virt. eigenvalues --    2.27322   2.27686   2.28384   2.29491   2.30069
 Alpha virt. eigenvalues --    2.31684   2.32198   2.32602   2.33175   2.33871
 Alpha virt. eigenvalues --    2.34606   2.34817   2.35512   2.36600   2.37034
 Alpha virt. eigenvalues --    2.37279   2.38233   2.38454   2.39266   2.39994
 Alpha virt. eigenvalues --    2.40673   2.41290   2.42169   2.43284   2.43422
 Alpha virt. eigenvalues --    2.44665   2.45112   2.45695   2.47181   2.47728
 Alpha virt. eigenvalues --    2.48181   2.49215   2.50720   2.51472   2.53101
 Alpha virt. eigenvalues --    2.53645   2.55803   2.55999   2.57320   2.58127
 Alpha virt. eigenvalues --    2.59236   2.60278   2.60528   2.61921   2.62702
 Alpha virt. eigenvalues --    2.63290   2.64156   2.65544   2.66368   2.67267
 Alpha virt. eigenvalues --    2.67860   2.68217   2.69524   2.69745   2.70874
 Alpha virt. eigenvalues --    2.71619   2.72992   2.73615   2.74727   2.75331
 Alpha virt. eigenvalues --    2.76822   2.77266   2.78464   2.79747   2.79868
 Alpha virt. eigenvalues --    2.80252   2.81166   2.81595   2.82492   2.83022
 Alpha virt. eigenvalues --    2.83419   2.83616   2.84853   2.85131   2.86639
 Alpha virt. eigenvalues --    2.86698   2.87963   2.88789   2.90784   2.91518
 Alpha virt. eigenvalues --    2.92244   2.92852   2.93187   2.93883   2.95156
 Alpha virt. eigenvalues --    2.96147   2.96602   2.97028   2.97772   2.97997
 Alpha virt. eigenvalues --    2.98299   2.99130   2.99642   3.00169   3.00334
 Alpha virt. eigenvalues --    3.00717   3.01394   3.02798   3.03457   3.04139
 Alpha virt. eigenvalues --    3.05373   3.06900   3.08109   3.09543   3.10669
 Alpha virt. eigenvalues --    3.10831   3.14307   3.15044   3.17773   3.17924
 Alpha virt. eigenvalues --    3.20182   3.21641   3.24255   3.24359   3.26010
 Alpha virt. eigenvalues --    3.26652   3.27694   3.28624   3.30254   3.33792
 Alpha virt. eigenvalues --    3.36532   3.36797   3.36887   3.39641   3.40345
 Alpha virt. eigenvalues --    3.42076   3.42350   3.43590   3.45019   3.48198
 Alpha virt. eigenvalues --    3.49059   3.49700   3.52535   3.54160   3.55925
 Alpha virt. eigenvalues --    3.56268   3.58329   3.61116   3.63504   3.64419
 Alpha virt. eigenvalues --    3.66853   3.68134   4.01352   4.12678   4.17971
 Alpha virt. eigenvalues --    4.20240   4.27132   4.29332   4.33419   4.37276
 Alpha virt. eigenvalues --    4.40623   4.43672   4.46112   4.51411   4.54469
 Alpha virt. eigenvalues --    4.56556   4.58193   4.60753   4.67044   4.67615
 Alpha virt. eigenvalues --    4.69195   4.75535   4.78014   4.80067   4.81570
 Alpha virt. eigenvalues --    4.86320   5.02253   5.05473   5.21563   5.31468
 Alpha virt. eigenvalues --    5.47062   5.79170   5.83884   6.39115   6.45697
 Alpha virt. eigenvalues --    6.82931
          Condensed to atoms (all electrons):
 Mulliken charges:
               1
     1  F   -0.238935
     2  C    0.755106
     3  F   -0.245516
     4  C    0.526270
     5  F   -0.256890
     6  F   -0.254863
     7  C    0.138242
     8  F   -0.281591
     9  C    0.609202
    10  F   -0.264610
    11  C    0.535702
    12  O   -0.468291
    13  O   -0.431745
    14  F   -0.269832
    15  C    0.480477
    16  F   -0.256404
    17  C    0.574915
    18  F   -0.264486
    19  C    0.539395
    20  N   -0.531800
    21  C   -0.054506
    22  C   -0.032761
    23  N   -0.433426
    24  C   -0.043775
    25  C   -0.172151
    26  C   -0.168594
    27  C   -0.320365
    28  C   -0.044259
    29  C   -0.170413
    30  C   -0.184469
    31  C   -0.319833
    32  O   -0.513260
    33  F   -0.297323
    34  O   -0.493289
    35  H    0.357556
    36  H    0.290185
    37  H    0.125147
    38  H    0.146530
    39  H    0.099032
    40  H    0.099388
    41  H    0.099008
    42  H    0.076900
    43  H    0.091142
    44  H    0.085906
    45  H    0.106305
    46  H    0.088626
    47  H    0.101169
    48  H    0.098766
    49  H    0.102096
    50  H    0.109626
    51  H    0.082362
    52  H    0.090354
    53  H    0.098159
    54  H    0.098027
    55  H    0.095101
    56  H    0.103928
    57  H    0.100952
    58  H    0.107816
 Sum of Mulliken charges =   0.00000
 Mulliken charges with hydrogens summed into heavy atoms:
               1
     1  F   -0.238935
     2  C    0.755106
     3  F   -0.245516
     4  C    0.526270
     5  F   -0.256890
     6  F   -0.254863
     7  C    0.138242
     8  F   -0.281591
     9  C    0.609202
    10  F   -0.264610
    11  C    0.535702
    12  O   -0.110735
    13  O   -0.431745
    14  F   -0.269832
    15  C    0.480477
    16  F   -0.256404
    17  C    0.574915
    18  F   -0.264486
    19  C    0.539395
    20  N   -0.241616
    21  C    0.217170
    22  C    0.165659
    23  N   -0.433426
    24  C    0.132134
    25  C    0.004897
    26  C    0.026337
    27  C   -0.018334
    28  C    0.147728
    29  C    0.018100
    30  C    0.008660
    31  C   -0.007138
    32  O   -0.513260
    33  F   -0.297323
    34  O   -0.493289
 Electronic spatial extent (au):  <R**2>=          27461.1905
 Charge=              0.0000 electrons
 Dipole moment (field-independent basis, Debye):
    X=             -0.5835    Y=              3.6522    Z=             -2.5226  Tot=              4.4769
 Quadrupole moment (field-independent basis, Debye-Ang):
   XX=           -174.0255   YY=           -198.7972   ZZ=           -197.6697
   XY=             10.4657   XZ=            -16.7729   YZ=             -0.4094
 Traceless Quadrupole moment (field-independent basis, Debye-Ang):
   XX=             16.1386   YY=             -8.6330   ZZ=             -7.5056
   XY=             10.4657   XZ=            -16.7729   YZ=             -0.4094
 Octapole moment (field-independent basis, Debye-Ang**2):
  XXX=           -759.1634  YYY=             35.2272  ZZZ=            -26.5626  XYY=           -338.4529
  XXY=             46.7756  XXZ=           -197.4711  XZZ=           -355.6824  YZZ=             12.1647
  YYZ=             -7.5314  XYZ=             18.3429
 Hexadecapole moment (field-independent basis, Debye-Ang**3):
 XXXX=         -24302.8511 YYYY=          -3849.5737 ZZZZ=          -1453.9975 XXXY=            578.7429
 XXXZ=          -2398.1048 YYYX=            291.9238 YYYZ=             -6.4880 ZZZX=           -651.1764
 ZZZY=              9.4812 XXYY=          -5225.0734 XXZZ=          -4925.9712 YYZZ=           -877.2611
 XXYZ=            120.8752 YYXZ=           -217.7826 ZZXY=             95.1845
 N-N= 4.263788325995D+03 E-N=-1.349003287903D+04  KE= 2.092626350853D+03
 No NMR shielding tensors so no spin-rotation constants.
 Leave Link  601 at Wed Feb  5 13:38:04 2025, MaxMem=  5368709120 cpu:         4.2
 (Enter /home/k0335/k033513/app/g09/l9999.exe)
 1\1\GINC-C18U05N3\FOpt\RCAM-B3LYP\6-31G(d,p)\C18H24F10N2O4\K033513\05-
 Feb-2025\0\\#p CAM-B3LYP/6-31G(d,p) opt SCRF=(PCM,Solvent=Generic,Read
 ) NoSymm out=wfn\\Title DBE1_neu\\0,1\F,5.1812266769,1.0649917952,2.72
 59523258\C,4.6228201126,1.3298106571,1.5397441331\F,4.0710133807,2.542
 5881279,1.6030784994\C,5.6697991621,1.2364449223,0.4108069989\F,6.9122
 60445,1.4634978886,0.877748148\F,5.3905021147,2.1432721359,-0.53428080
 65\C,5.4872135706,-0.1828263718,-0.1613403418\F,5.628793452,-0.1713183
 443,-1.5124927038\C,6.5027103754,-1.1838863916,0.4245338261\F,6.284853
 0946,-1.2654703614,1.7507365939\C,7.9981754127,-0.8619693936,0.2154837
 306\O,8.2504366705,-0.5206644475,-1.0440071891\O,8.804997253,-0.979179
 4612,1.0925682564\F,6.2804322126,-2.387936798,-0.147355651\C,4.0172016
 416,-0.5219468589,0.2535373424\F,3.9083278551,-1.7648428721,0.76594214
 15\C,2.9989730671,-0.4007014821,-0.8955880113\F,3.2849177212,-1.320713
 2894,-1.8306409548\C,1.5422927541,-0.6093519936,-0.4265290251\N,0.8337
 567949,0.5220613341,-0.2836440743\C,-0.5595524709,0.48307257,0.1304079
 097\C,-1.5192797117,0.3358160465,-1.0515196439\N,-2.8768754715,0.09454
 75518,-0.5844673704\C,-3.8873613025,0.6690962488,-1.4727440693\C,-4.07
 50319524,2.1724213243,-1.2791014993\C,-4.6127295222,2.5440454859,0.100
 3032675\C,-4.7472586776,4.0497168314,0.3023301116\C,-3.1109476266,-1.3
 267113194,-0.3152788833\C,-4.1550314342,-1.5588271451,0.7732993405\C,-
 4.3945000481,-3.0366358077,1.0932805109\C,-5.0743166591,-3.8222821489,
 -0.0270907065\O,1.1441861625,-1.738211013,-0.2094970155\F,3.1544775353
 ,0.8438510792,-1.4348656388\O,3.647815111,0.4071815197,1.2403141387\H,
 9.2085271274,-0.3783106885,-1.1288517428\H,1.2601655124,1.3959886327,-
 0.5498813296\H,-0.7871911475,1.3948264907,0.6857928456\H,-0.6707693458
 ,-0.3607285296,0.8131300046\H,-1.4960548153,1.2572899442,-1.6398706935
 \H,-1.1599086854,-0.470191258,-1.7124846481\H,-4.8399295727,0.17435931
 89,-1.261906188\H,-3.6550242938,0.4505169135,-2.530129465\H,-4.7604460
 397,2.5361052459,-2.0547007733\H,-3.1248766616,2.6942272234,-1.4521345
 305\H,-3.9508232887,2.1171493161,0.8599866072\H,-5.5900759345,2.065887
 7095,0.2439335061\H,-5.4225443664,4.4914729521,-0.4376363106\H,-3.7786
 217287,4.5503109238,0.2022188285\H,-5.1413548279,4.2870315155,1.294296
 0996\H,-2.1669647899,-1.77364623,0.0132080799\H,-3.3877681022,-1.85452
 05384,-1.243764147\H,-5.107359314,-1.0950783869,0.4881078373\H,-3.8175
 810496,-1.0349511074,1.6738213548\H,-3.4388365387,-3.5121194444,1.3468
 337386\H,-5.0119305522,-3.1007817561,1.9959013891\H,-5.2758813319,-4.8
 516343377,0.2817247302\H,-6.0305808905,-3.3647972904,-0.3014445788\H,-
 4.4584670621,-3.8673496381,-0.9293113046\\Version=ES64L-G09RevD.01\HF=
 -2108.457138\RMSD=7.315e-09\RMSF=5.126e-06\Dipole=-0.229566,1.4369025,
 -0.9924684\Quadrupole=11.99867,-6.4184454,-5.5802246,7.7809945,-12.470
 2391,-0.3043914\PG=C01 [X(C18H24F10N2O4)]\\@

 Writing a WFN file to "cytopopt/DBE1/DBE1_neu.wfn"


 TIMES HAVE CHANGED. IN THE BIBLE WHEN AN ASS
 SPOKE IT WAS CONSIDERED A MIRACLE.
 Job cpu time:       0 days 12 hours 37 minutes 33.5 seconds.
 File lengths (MBytes):  RWF=    800 Int=      0 D2E=      0 Chk=     33 Scr=      1
 Normal termination of Gaussian 09 at Wed Feb  5 13:38:04 2025.
