 Entering Gaussian System, Link 0=g09
 Initial command:
 /home/k0335/k033513/app/g09/l1.exe "/home/k0335/k033513/app/g09/scratch/Gau-253509.inp" -scrdir="/home/k0335/k033513/app/g09/scratch/"
 Default is to use a total of  36 processors:
                               36 via shared-memory
                                1 via Linda
 Entering Link 1 = /home/k0335/k033513/app/g09/l1.exe PID=    253510.
  
 Copyright (c) 1988,1990,1992,1993,1995,1998,2003,2009,2013,
            Gaussian, Inc.  All Rights Reserved.
  
 This is part of the Gaussian(R) 09 program.  It is based on
 the Gaussian(R) 03 system (copyright 2003, Gaussian, Inc.),
 the Gaussian(R) 98 system (copyright 1998, Gaussian, Inc.),
 the Gaussian(R) 94 system (copyright 1995, Gaussian, Inc.),
 the Gaussian 92(TM) system (copyright 1992, Gaussian, Inc.),
 the Gaussian 90(TM) system (copyright 1990, Gaussian, Inc.),
 the Gaussian 88(TM) system (copyright 1988, Gaussian, Inc.),
 the Gaussian 86(TM) system (copyright 1986, Carnegie Mellon
 University), and the Gaussian 82(TM) system (copyright 1983,
 Carnegie Mellon University). Gaussian is a federally registered
 trademark of Gaussian, Inc.
  
 This software contains proprietary and confidential information,
 including trade secrets, belonging to Gaussian, Inc.
  
 This software is provided under written license and may be
 used, copied, transmitted, or stored only in accord with that
 written license.
  
 The following legend is applicable only to US Government
 contracts under FAR:
  
                    RESTRICTED RIGHTS LEGEND
  
 Use, reproduction and disclosure by the US Government is
 subject to restrictions as set forth in subparagraphs (a)
 and (c) of the Commercial Computer Software - Restricted
 Rights clause in FAR 52.227-19.
  
 Gaussian, Inc.
 340 Quinnipiac St., Bldg. 40, Wallingford CT 06492
  
  
 ---------------------------------------------------------------
 Warning -- This program may not be used in any manner that
 competes with the business of Gaussian, Inc. or will provide
 assistance to any competitor of Gaussian, Inc.  The licensee
 of this program is prohibited from giving any competitor of
 Gaussian, Inc. access to this program.  By using this program,
 the user acknowledges that Gaussian, Inc. is engaged in the
 business of creating and licensing software in the field of
 computational chemistry and represents and warrants to the
 licensee that it is not a competitor of Gaussian, Inc. and that
 it will not use this program in any manner prohibited above.
 ---------------------------------------------------------------
  

 Cite this work as:
 Gaussian 09, Revision D.01,
 M. J. Frisch, G. W. Trucks, H. B. Schlegel, G. E. Scuseria, 
 M. A. Robb, J. R. Cheeseman, G. Scalmani, V. Barone, B. Mennucci, 
 G. A. Petersson, H. Nakatsuji, M. Caricato, X. Li, H. P. Hratchian, 
 A. F. Izmaylov, J. Bloino, G. Zheng, J. L. Sonnenberg, M. Hada, 
 M. Ehara, K. Toyota, R. Fukuda, J. Hasegawa, M. Ishida, T. Nakajima, 
 Y. Honda, O. Kitao, H. Nakai, T. Vreven, J. A. Montgomery, Jr., 
 J. E. Peralta, F. Ogliaro, M. Bearpark, J. J. Heyd, E. Brothers, 
 K. N. Kudin, V. N. Staroverov, T. Keith, R. Kobayashi, J. Normand, 
 K. Raghavachari, A. Rendell, J. C. Burant, S. S. Iyengar, J. Tomasi, 
 M. Cossi, N. Rega, J. M. Millam, M. Klene, J. E. Knox, J. B. Cross, 
 V. Bakken, C. Adamo, J. Jaramillo, R. Gomperts, R. E. Stratmann, 
 O. Yazyev, A. J. Austin, R. Cammi, C. Pomelli, J. W. Ochterski, 
 R. L. Martin, K. Morokuma, V. G. Zakrzewski, G. A. Voth, 
 P. Salvador, J. J. Dannenberg, S. Dapprich, A. D. Daniels, 
 O. Farkas, J. B. Foresman, J. V. Ortiz, J. Cioslowski, 
 and D. J. Fox, Gaussian, Inc., Wallingford CT, 2013.
 
 ******************************************
 Gaussian 09:  ES64L-G09RevD.01 24-Apr-2013
                 4-Mar-2024 
 ******************************************
 %nprocshared=24
 Will use up to   24 processors via shared memory.
 %mem=40GB
 %rwf=A144013140/A144013140_0.rwf
 %nosave
 %chk=A144013140/A144013140_0.chk
 ----------------------------------------------------------------------
 #p CAM-B3LYP/6-31G(d,p) SCRF=(PCM,Solvent=Generic,Read) NoSymm out=wfn
 ----------------------------------------------------------------------
 1/38=1,40=2/1;
 2/12=2,15=1,17=6,18=5,40=1/2;
 3/5=1,6=6,7=101,11=2,16=1,25=1,30=1,70=2203,72=-2,74=-40/1,2,3;
 4//1;
 5/5=2,38=5/2;
 6/7=2,8=2,9=2,10=2,28=1/1;
 99/5=1,6=100,9=1/99;
 Leave Link    1 at Mon Mar  4 23:37:18 2024, MaxMem=  5368709120 cpu:         0.8
 (Enter /home/k0335/k033513/app/g09/l101.exe)
 ------------------
 Title A144013140_0
 ------------------
 Symbolic Z-matrix:
 Charge =  0 Multiplicity = 1
 C                     4.12694  -2.58443  -0.71276 
 C                     3.1424   -1.67835  -0.75929 
 C                     1.89846  -1.86846   0.04227 
 O                     1.7502   -2.82131   0.8021 
 N                     0.98087  -0.8586   -0.08349 
 C                     1.21348   0.33162   0.57279 
 O                     2.35821   0.73528   0.79538 
 N                     0.10853   1.12512   0.79565 
 C                    -1.16899   0.77739   0.4256 
 O                    -2.07809   1.61274   0.3902 
 N                    -1.315    -0.46102  -0.15219 
 C                    -0.25468  -1.23403  -0.54863 
 O                    -0.3673   -2.02278  -1.49356 
 C                    -2.5201   -1.09825  -0.03118 
 O                    -2.75479  -1.92813   0.84164 
 C                    -3.55429  -0.64952  -1.00686 
 C                    -4.77239  -1.20483  -1.01146 
 C                     0.21026   2.07047   1.77517 
 O                    -0.06943   1.85821   2.95237 
 C                     0.78703   3.38651   1.37818 
 C                     0.87791   3.84781   0.12394 
 H                     4.0539   -3.47714  -0.09618 
 H                     5.03558  -2.45064  -1.29063 
 H                     3.23268  -0.79367  -1.3779 
 H                    -3.29922   0.13461  -1.70992 
 H                    -5.52871  -0.88099  -1.71851 
 H                    -5.04531  -1.99328  -0.31381 
 H                     1.11514   3.99692   2.21488 
 H                     1.30195   4.83208  -0.05992 
 H                     0.53475   3.29669  -0.74386 
 
 NAtoms=     30 NQM=       30 NQMF=       0 NMMI=      0 NMMIF=      0
                NMic=       0 NMicF=      0.
                    Isotopes and Nuclear Properties:
 (Nuclear quadrupole moments (NQMom) in fm**2, nuclear magnetic moments (NMagM)
  in nuclear magnetons)

  Atom         1           2           3           4           5           6           7           8           9          10
 IAtWgt=          12          12          12          16          14          12          16          14          12          16
 AtmWgt=  12.0000000  12.0000000  12.0000000  15.9949146  14.0030740  12.0000000  15.9949146  14.0030740  12.0000000  15.9949146
 NucSpn=           0           0           0           0           2           0           0           2           0           0
 AtZEff=   0.0000000   0.0000000   0.0000000   0.0000000   0.0000000   0.0000000   0.0000000   0.0000000   0.0000000   0.0000000
 NQMom=    0.0000000   0.0000000   0.0000000   0.0000000   2.0440000   0.0000000   0.0000000   2.0440000   0.0000000   0.0000000
 NMagM=    0.0000000   0.0000000   0.0000000   0.0000000   0.4037610   0.0000000   0.0000000   0.4037610   0.0000000   0.0000000
 AtZNuc=   6.0000000   6.0000000   6.0000000   8.0000000   7.0000000   6.0000000   8.0000000   7.0000000   6.0000000   8.0000000

  Atom        11          12          13          14          15          16          17          18          19          20
 IAtWgt=          14          12          16          12          16          12          12          12          16          12
 AtmWgt=  14.0030740  12.0000000  15.9949146  12.0000000  15.9949146  12.0000000  12.0000000  12.0000000  15.9949146  12.0000000
 NucSpn=           2           0           0           0           0           0           0           0           0           0
 AtZEff=   0.0000000   0.0000000   0.0000000   0.0000000   0.0000000   0.0000000   0.0000000   0.0000000   0.0000000   0.0000000
 NQMom=    2.0440000   0.0000000   0.0000000   0.0000000   0.0000000   0.0000000   0.0000000   0.0000000   0.0000000   0.0000000
 NMagM=    0.4037610   0.0000000   0.0000000   0.0000000   0.0000000   0.0000000   0.0000000   0.0000000   0.0000000   0.0000000
 AtZNuc=   7.0000000   6.0000000   8.0000000   6.0000000   8.0000000   6.0000000   6.0000000   6.0000000   8.0000000   6.0000000

  Atom        21          22          23          24          25          26          27          28          29          30
 IAtWgt=          12           1           1           1           1           1           1           1           1           1
 AtmWgt=  12.0000000   1.0078250   1.0078250   1.0078250   1.0078250   1.0078250   1.0078250   1.0078250   1.0078250   1.0078250
 NucSpn=           0           1           1           1           1           1           1           1           1           1
 AtZEff=   0.0000000   0.0000000   0.0000000   0.0000000   0.0000000   0.0000000   0.0000000   0.0000000   0.0000000   0.0000000
 NQMom=    0.0000000   0.0000000   0.0000000   0.0000000   0.0000000   0.0000000   0.0000000   0.0000000   0.0000000   0.0000000
 NMagM=    0.0000000   2.7928460   2.7928460   2.7928460   2.7928460   2.7928460   2.7928460   2.7928460   2.7928460   2.7928460
 AtZNuc=   6.0000000   1.0000000   1.0000000   1.0000000   1.0000000   1.0000000   1.0000000   1.0000000   1.0000000   1.0000000
 Leave Link  101 at Mon Mar  4 23:37:18 2024, MaxMem=  5368709120 cpu:         0.7
 (Enter /home/k0335/k033513/app/g09/l202.exe)
                          Input orientation:                          
 ---------------------------------------------------------------------
 Center     Atomic      Atomic             Coordinates (Angstroms)
 Number     Number       Type             X           Y           Z
 ---------------------------------------------------------------------
      1          6           0        4.126936   -2.584429   -0.712755
      2          6           0        3.142404   -1.678346   -0.759294
      3          6           0        1.898455   -1.868464    0.042271
      4          8           0        1.750199   -2.821308    0.802095
      5          7           0        0.980869   -0.858595   -0.083490
      6          6           0        1.213484    0.331617    0.572789
      7          8           0        2.358207    0.735284    0.795375
      8          7           0        0.108532    1.125123    0.795648
      9          6           0       -1.168986    0.777394    0.425599
     10          8           0       -2.078091    1.612736    0.390198
     11          7           0       -1.315002   -0.461020   -0.152191
     12          6           0       -0.254682   -1.234031   -0.548630
     13          8           0       -0.367298   -2.022783   -1.493556
     14          6           0       -2.520101   -1.098247   -0.031180
     15          8           0       -2.754788   -1.928132    0.841642
     16          6           0       -3.554289   -0.649521   -1.006864
     17          6           0       -4.772392   -1.204834   -1.011462
     18          6           0        0.210258    2.070470    1.775165
     19          8           0       -0.069426    1.858205    2.952374
     20          6           0        0.787027    3.386511    1.378177
     21          6           0        0.877913    3.847808    0.123936
     22          1           0        4.053900   -3.477143   -0.096176
     23          1           0        5.035582   -2.450643   -1.290635
     24          1           0        3.232681   -0.793674   -1.377895
     25          1           0       -3.299215    0.134605   -1.709919
     26          1           0       -5.528713   -0.880994   -1.718514
     27          1           0       -5.045306   -1.993283   -0.313808
     28          1           0        1.115141    3.996921    2.214882
     29          1           0        1.301954    4.832081   -0.059923
     30          1           0        0.534745    3.296691   -0.743857
 ---------------------------------------------------------------------
                    Distance matrix (angstroms):
                    1          2          3          4          5
     1  C    0.000000
     2  C    1.338826   0.000000
     3  C    2.459430   1.491999   0.000000
     4  O    2.828385   2.383806   1.227691   0.000000
     5  N    3.643105   2.408513   1.370261   2.286563   0.000000
     6  C    4.317887   3.087900   2.364528   3.206490   1.378919
     7  O    4.052574   2.976167   2.749189   3.608194   2.282524
     8  N    5.673061   4.413804   3.568328   4.274275   2.338588
     9  C    6.375303   5.101246   4.068992   4.649091   2.749092
    10  O    7.571992   6.277429   5.296482   5.872496   3.960946
    11  N    5.868372   4.660357   3.513548   3.984605   2.331053
    12  C    4.587929   3.432490   2.321135   2.891964   1.372550
    13  O    4.596002   3.602192   2.741572   3.223577   2.271822
    14  C    6.845172   5.738521   4.485785   4.679610   3.509553
    15  O    7.085549   6.115739   4.721782   4.592846   3.994360
    16  C    7.926638   6.779784   5.684973   6.010539   4.632925
    17  C    9.010580   7.932956   6.786086   6.960328   5.837896
    18  C    6.572534   5.392085   4.622568   5.219940   3.553570
    19  O    7.125982   6.049754   5.121457   5.461921   4.207207
    20  C    7.153958   5.980749   5.534860   6.308454   4.493881
    21  C    7.254645   6.037085   5.807232   6.760022   4.712097
    22  H    1.087402   2.122786   2.693132   2.558134   4.037385
    23  H    1.085118   2.112555   3.457909   3.912883   4.520234
    24  H    2.109243   1.083264   2.225355   3.325870   2.598145
    25  H    7.970897   6.759063   5.839369   6.367434   4.685172
    26  H    9.856206   8.760373   7.696641   7.943604   6.711815
    27  H    9.199926   8.205866   6.954005   6.936119   6.136395
    28  H    7.807441   6.720430   6.303694   6.991961   5.373693
    29  H    7.963123   6.801620   6.727820   7.714814   5.699776
    30  H    6.891471   5.617038   5.399679   6.426290   4.231018
                    6          7          8          9         10
     6  C    0.000000
     7  O    1.234051   0.000000
     8  N    1.378491   2.283202   0.000000
     9  C    2.428280   3.546773   1.374738   0.000000
    10  O    3.536817   4.540356   2.276725   1.235120   0.000000
    11  N    2.747201   3.977624   2.332530   1.374348   2.275292
    12  C    2.421641   3.537194   2.739455   2.414727   3.508604
    13  O    3.508825   4.502723   3.921247   3.488101   4.437605
    14  C    4.043383   5.276639   3.540725   2.356308   2.778914
    15  O    4.574487   5.765296   4.186058   3.163500   3.633107
    16  C    5.117577   6.334300   4.451367   3.126933   3.041176
    17  C    6.379753   7.607507   5.702435   4.356479   4.142778
    18  C    2.340039   2.712268   1.365094   2.322862   2.713705
    19  O    3.104634   3.436131   2.284851   2.960030   3.264925
    20  C    3.187929   3.136442   2.431784   3.397188   3.511592
    21  C    3.560572   3.511397   2.907947   3.702464   3.715428
    22  H    4.798138   4.627611   6.127163   6.756617   7.984030
    23  H    5.081511   4.655095   6.435410   7.201552   8.363049
    24  H    3.024666   2.797413   4.262203   5.009543   6.092722
    25  H    5.061030   6.216409   4.344161   3.084070   2.843678
    26  H    7.223414   8.434186   6.490304   5.133682   4.751015
    27  H    6.735255   7.967896   6.125144   4.821746   4.722644
    28  H    4.017536   3.768088   3.357784   4.334066   4.382983
    29  H    4.545583   4.316359   3.987204   4.773024   4.689509
    30  H    3.314500   3.500722   2.695819   3.258402   3.308882
                   11         12         13         14         15
    11  N    0.000000
    12  C    1.370762   0.000000
    13  O    2.266386   1.236000   0.000000
    14  C    1.368563   2.327727   2.761860   0.000000
    15  O    2.283223   2.943665   3.340990   1.227031   0.000000
    16  C    2.404247   3.382164   3.504230   1.490926   2.385586
    17  C    3.639389   4.541450   4.506252   2.458684   2.833351
    18  C    3.528394   4.066438   5.269993   4.556151   5.064759
    19  O    4.070453   4.674748   5.909068   4.862922   5.099285
    20  C    4.643710   5.113429   6.232157   5.747733   6.409193
    21  C    4.842636   5.249781   6.215358   6.002834   6.860984
    22  H    6.158348   4.878539   4.859509   6.991485   7.045365
    23  H    6.751635   5.478833   5.423592   7.778403   8.093793
    24  H    4.721698   3.611550   3.805777   5.916156   6.485609
    25  H    2.591985   3.534252   3.646543   2.223760   3.325921
    26  H    4.514987   5.413748   5.290982   3.456305   3.917341
    27  H    4.035978   4.856098   4.824566   2.693999   2.566278
    28  H    5.601952   6.072584   7.224055   6.649851   7.208911
    29  H    5.905412   6.281693   7.199366   7.055333   7.935393
    30  H    4.229897   4.603124   5.447250   5.399581   6.374450
                   16         17         18         19         20
    16  C    0.000000
    17  C    1.338719   0.000000
    18  C    5.413857   6.581771   0.000000
    19  O    5.840250   6.871106   1.228455   0.000000
    20  C    6.389444   7.595918   1.490713   2.355276   0.000000
    21  C    6.414756   7.664481   2.516198   3.585531   1.339468
    22  H    8.167579   9.159944   7.003678   7.400095   7.743121
    23  H    8.781256   9.890719   7.288576   7.913937   7.697087
    24  H    6.798633   8.023996   5.223040   6.057029   5.572352
    25  H    1.083606   2.110021   5.311288   5.927842   6.067009
    26  H    2.111487   1.084812   7.338441   7.689228   8.227373
    27  H    2.123477   1.087591   6.964112   7.089519   8.113021
    28  H    7.332984   8.492973   2.173333   2.553664   1.086432
    29  H    7.384291   8.616696   3.490823   4.449557   2.103082
    30  H    5.688757   6.964269   2.820351   4.012030   2.138865
                   21         22         23         24         25
    21  C    0.000000
    22  H    7.986880   0.000000
    23  H    7.678392   1.855838   0.000000
    24  H    5.416990   3.085160   2.450227   0.000000
    25  H    5.882117   8.349682   8.736598   6.605877   0.000000
    26  H    8.173191  10.059744  10.688836   8.768447   2.449934
    27  H    8.330335   9.221971  10.138426   8.431869   3.086400
    28  H    2.109637   8.356969   8.320432   6.351521   7.057484
    29  H    1.087386   8.753155   8.276032   6.092116   6.779345
    30  H    1.083771   7.660860   7.320406   4.940845   5.062738
                   26         27         28         29         30
    26  H    0.000000
    27  H    1.855820   0.000000
    28  H    9.132713   8.957004   0.000000
    29  H    9.058044   9.324042   2.430459   0.000000
    30  H    7.427552   7.701022   3.095370   1.847647   0.000000
 Symmetry turned off by external request.
 Stoichiometry    C12H9N3O6
 Framework group  C1[X(C12H9N3O6)]
 Deg. of freedom    84
 Full point group                 C1      NOp   1
 Rotational constants (GHZ):      0.3720130      0.3123691      0.1961692
 Leave Link  202 at Mon Mar  4 23:37:18 2024, MaxMem=  5368709120 cpu:         0.1
 (Enter /home/k0335/k033513/app/g09/l301.exe)
 Standard basis: 6-31G(d,p) (6D, 7F)
 Ernie: Thresh=  0.10000D-02 Tol=  0.10000D-05 Strict=F.
   360 basis functions,   651 primitive gaussians,   360 cartesian basis functions
    75 alpha electrons       75 beta electrons
       nuclear repulsion energy      1713.4937016358 Hartrees.
 IExCor=20419 DFT=T Ex+Corr=CAM-B3LYP ExCW=0 ScaHFX=  1.000000
 ScaDFX=  1.000000  1.000000  1.000000  0.810000 ScalE2=  1.000000  1.000000
 IRadAn=      0 IRanWt=     -1 IRanGd=            0 ICorTp=0 IEmpDi=  4
  HFx wShort=  0.000000 wLong=  0.330000 cFull=  0.190000 cShort=  0.000000 cLong=  0.460000
  DFx wShort=  0.000000 wLong=  0.330000 cFull=  0.190000 cShort=  0.000000 cLong=  0.460000
 NAtoms=   30 NActive=   30 NUniq=   30 SFac= 1.00D+00 NAtFMM=   60 NAOKFM=F Big=F
 Integral buffers will be    131072 words long.
 Raffenetti 2 integral format.
 Two-electron integral symmetry is turned off.
 Using the following non-standard input for PCM:
 eps=2.05
 --- end of non-standard input.
 ------------------------------------------------------------------------------
 Polarizable Continuum Model (PCM)
 =================================
 Model                : PCM (using non-symmetric T matrix).
 Atomic radii         : UFF (Universal Force Field).
 Polarization charges : Total charges.
 Charge compensation  : None.
 Solution method      : On-the-fly selection.
 Cavity type          : Scaled VdW (van der Waals Surface) (Alpha=1.100).
 Cavity algorithm     : GePol (No added spheres)
                        Default sphere list used, NSphG=   30.
                        Lebedev-Laikov grids with approx.  5.0 points / Ang**2.
                        Smoothing algorithm: Karplus/York (Gamma=1.0000).
                        Polarization charges: spherical gaussians, with
                                              point-specific exponents (IZeta= 3).
                        Self-potential: point-specific (ISelfS= 7).
                        Self-field    : sphere-specific E.n sum rule (ISelfD= 2).
 Solvent              : Generic,
                        Eps                           =   2.050000
                        Eps(infinity)                 =   0.000000
                        RSolv                         =   0.000000 Ang.
                        Molar volume                  =   0.000000 cm**3/mol
                        Thermal expansion coefficient =   0.000000 K**-1
                        Absolute temperature          = 298.150000 K
                        Numeral density               =   0.000000 Ang**-3
                        Hydrogen bond acidity         =   0.000000
                        Hydrogen bond basicity        =   0.000000
                        Surface tension at interface  =   0.000000 (cal/mol)*Ang**-2
                        Carbon aromaticity            =   0.000000
                        Electronegative halogenicity  =   0.000000
 ------------------------------------------------------------------------------
 GePol: Number of generator spheres                  =      30
 GePol: Total number of spheres                      =      30
 GePol: Number of exposed spheres                    =      30 (100.00%)
 GePol: Number of points                             =    2635
 GePol: Average weight of points                     =       0.13
 GePol: Minimum weight of points                     =   0.56D-09
 GePol: Maximum weight of points                     =    0.20577
 GePol: Number of points with low weight             =     156
 GePol: Fraction of low-weight points (<1% of avg)   =       5.92%
 GePol: Cavity surface area                          =    345.361 Ang**2
 GePol: Cavity volume                                =    363.744 Ang**3
 Leave Link  301 at Mon Mar  4 23:37:19 2024, MaxMem=  5368709120 cpu:         0.7
 (Enter /home/k0335/k033513/app/g09/l302.exe)
 NPDir=0 NMtPBC=     1 NCelOv=     1 NCel=       1 NClECP=     1 NCelD=      1
         NCelK=      1 NCelE2=     1 NClLst=     1 CellRange=     0.0.
 One-electron integrals computed using PRISM.
 NBasis=   360 RedAO= T EigKep=  1.78D-03  NBF=   360
 NBsUse=   360 1.00D-06 EigRej= -1.00D+00 NBFU=   360
 Precomputing XC quadrature grid using
 IXCGrd= 4 IRadAn=           0 IRanWt=          -1 IRanGd=           0 AccXCQ= 0.00D+00.
 Generated NRdTot=       0 NPtTot=           0 NUsed=           0 NTot=          32
 NSgBfM=   352   352   352   352   355 MxSgAt=    30 MxSgA2=    30.
 Leave Link  302 at Mon Mar  4 23:37:20 2024, MaxMem=  5368709120 cpu:         5.1
 (Enter /home/k0335/k033513/app/g09/l303.exe)
 DipDrv:  MaxL=1.
 Leave Link  303 at Mon Mar  4 23:37:20 2024, MaxMem=  5368709120 cpu:         0.4
 (Enter /home/k0335/k033513/app/g09/l401.exe)
 ExpMin= 1.61D-01 ExpMax= 5.48D+03 ExpMxC= 8.25D+02 IAcc=1 IRadAn=         1 AccDes= 0.00D+00
 Harris functional with IExCor=20419 and IRadAn=       1 diagonalized for initial guess.
 HarFok:  IExCor=20419 AccDes= 0.00D+00 IRadAn=         1 IDoV= 1 UseB2=F ITyADJ=14
 ICtDFT=  3500011 ScaDFX=  1.000000  1.000000  1.000000  1.000000
 FoFCou: FMM=F IPFlag=           0 FMFlag=      100000 FMFlg1=           0
         NFxFlg=           0 DoJE=T BraDBF=F KetDBF=T FulRan=T
         wScrn=  0.000000 ICntrl=     500 IOpCl=  0 I1Cent=   200000004 NGrid=           0
         NMat0=    1 NMatS0=      1 NMatT0=    0 NMatD0=    1 NMtDS0=    0 NMtDT0=    0
 Symmetry not used in FoFCou.
 Harris En= -1039.86803977925    
 JPrj=0 DoOrth=F DoCkMO=F.
 Leave Link  401 at Mon Mar  4 23:37:21 2024, MaxMem=  5368709120 cpu:         5.7
 (Enter /home/k0335/k033513/app/g09/l502.exe)
 Closed shell SCF:
 Using DIIS extrapolation, IDIIS=  1040.
 Two-electron integral symmetry not used.
 Keep R1 ints in memory in canonical form, NReq=4246406350.
 IVT=      418210 IEndB=      418210 NGot=  5368709120 MDV=  1145825531
 LenX=  1145825531 LenY=  1145695490
 Requested convergence on RMS density matrix=1.00D-08 within 128 cycles.
 Requested convergence on MAX density matrix=1.00D-06.
 Requested convergence on             energy=1.00D-06.
 No special actions if energy rises.
 FoFCou: FMM=F IPFlag=           0 FMFlag=           0 FMFlg1=           0
         NFxFlg=           0 DoJE=F BraDBF=F KetDBF=F FulRan=T
         wScrn=  0.000000 ICntrl=     600 IOpCl=  0 I1Cent=           0 NGrid=           0
         NMat0=    1 NMatS0=  64980 NMatT0=    0 NMatD0=    1 NMtDS0=    0 NMtDT0=    0
 Symmetry not used in FoFCou.

 Cycle   1  Pass 1  IDiag  1:
 Inv3:  Mode=1 IEnd=    20829675.
 Iteration    1 A*A^-1 deviation from unit magnitude is 6.77D-15 for   2626.
 Iteration    1 A*A^-1 deviation from orthogonality  is 5.09D-15 for   2595    425.
 Iteration    1 A^-1*A deviation from unit magnitude is 7.77D-15 for     98.
 Iteration    1 A^-1*A deviation from orthogonality  is 3.15D-15 for   2383    332.
 E= -1077.42648805959    
 DIIS: error= 5.76D-02 at cycle   1 NSaved=   1.
 NSaved= 1 IEnMin= 1 EnMin= -1077.42648805959     IErMin= 1 ErrMin= 5.76D-02
 ErrMax= 5.76D-02  0.00D+00 EMaxC= 1.00D-01 BMatC= 8.28D-01 BMatP= 8.28D-01
 IDIUse=3 WtCom= 4.24D-01 WtEn= 5.76D-01
 Coeff-Com:  0.100D+01
 Coeff-En:   0.100D+01
 Coeff:      0.100D+01
 Gap=     0.443 Goal=   None    Shift=    0.000
 GapD=    0.443 DampG=2.000 DampE=0.500 DampFc=1.0000 IDamp=-1.
 RMSDP=4.05D-03 MaxDP=1.67D-01              OVMax= 1.74D-01

 Cycle   2  Pass 1  IDiag  1:
 E= -1077.32921516286     Delta-E=        0.097272896731 Rises=F Damp=F
 DIIS: error= 2.47D-02 at cycle   2 NSaved=   2.
 NSaved= 2 IEnMin= 1 EnMin= -1077.42648805959     IErMin= 2 ErrMin= 2.47D-02
 ErrMax= 2.47D-02  0.00D+00 EMaxC= 1.00D-01 BMatC= 5.07D-01 BMatP= 8.28D-01
 IDIUse=3 WtCom= 7.53D-01 WtEn= 2.47D-01
 Coeff-Com:  0.418D+00 0.582D+00
 Coeff-En:   0.570D+00 0.430D+00
 Coeff:      0.455D+00 0.545D+00
 Gap=     0.335 Goal=   None    Shift=    0.000
 RMSDP=2.69D-03 MaxDP=1.49D-01 DE= 9.73D-02 OVMax= 1.40D-01

 Cycle   3  Pass 1  IDiag  1:
 E= -1077.65104290103     Delta-E=       -0.321827738172 Rises=F Damp=F
 DIIS: error= 1.41D-02 at cycle   3 NSaved=   3.
 NSaved= 3 IEnMin= 3 EnMin= -1077.65104290103     IErMin= 3 ErrMin= 1.41D-02
 ErrMax= 1.41D-02  0.00D+00 EMaxC= 1.00D-01 BMatC= 1.45D-01 BMatP= 5.07D-01
 IDIUse=3 WtCom= 8.59D-01 WtEn= 1.41D-01
 Coeff-Com:  0.798D-01 0.340D+00 0.581D+00
 Coeff-En:   0.000D+00 0.217D+00 0.783D+00
 Coeff:      0.686D-01 0.322D+00 0.609D+00
 Gap=     0.312 Goal=   None    Shift=    0.000
 RMSDP=1.01D-03 MaxDP=5.57D-02 DE=-3.22D-01 OVMax= 6.65D-02

 Cycle   4  Pass 1  IDiag  1:
 E= -1077.74979496292     Delta-E=       -0.098752061886 Rises=F Damp=F
 DIIS: error= 4.25D-03 at cycle   4 NSaved=   4.
 NSaved= 4 IEnMin= 4 EnMin= -1077.74979496292     IErMin= 4 ErrMin= 4.25D-03
 ErrMax= 4.25D-03  0.00D+00 EMaxC= 1.00D-01 BMatC= 1.16D-02 BMatP= 1.45D-01
 IDIUse=3 WtCom= 9.57D-01 WtEn= 4.25D-02
 Coeff-Com:  0.285D-02 0.108D+00 0.300D+00 0.588D+00
 Coeff-En:   0.000D+00 0.000D+00 0.616D-03 0.999D+00
 Coeff:      0.273D-02 0.104D+00 0.288D+00 0.606D+00
 Gap=     0.313 Goal=   None    Shift=    0.000
 RMSDP=2.97D-04 MaxDP=1.32D-02 DE=-9.88D-02 OVMax= 1.59D-02

 Cycle   5  Pass 1  IDiag  1:
 E= -1077.75797692743     Delta-E=       -0.008181964512 Rises=F Damp=F
 DIIS: error= 6.28D-04 at cycle   5 NSaved=   5.
 NSaved= 5 IEnMin= 5 EnMin= -1077.75797692743     IErMin= 5 ErrMin= 6.28D-04
 ErrMax= 6.28D-04  0.00D+00 EMaxC= 1.00D-01 BMatC= 4.19D-04 BMatP= 1.16D-02
 IDIUse=3 WtCom= 9.94D-01 WtEn= 6.28D-03
 Coeff-Com: -0.162D-02 0.285D-01 0.874D-01 0.251D+00 0.635D+00
 Coeff-En:   0.000D+00 0.000D+00 0.000D+00 0.000D+00 0.100D+01
 Coeff:     -0.161D-02 0.283D-01 0.869D-01 0.249D+00 0.637D+00
 Gap=     0.304 Goal=   None    Shift=    0.000
 RMSDP=6.56D-05 MaxDP=3.14D-03 DE=-8.18D-03 OVMax= 6.31D-03

 Cycle   6  Pass 1  IDiag  1:
 E= -1077.75831245835     Delta-E=       -0.000335530916 Rises=F Damp=F
 DIIS: error= 2.36D-04 at cycle   6 NSaved=   6.
 NSaved= 6 IEnMin= 6 EnMin= -1077.75831245835     IErMin= 6 ErrMin= 2.36D-04
 ErrMax= 2.36D-04  0.00D+00 EMaxC= 1.00D-01 BMatC= 7.94D-05 BMatP= 4.19D-04
 IDIUse=3 WtCom= 9.98D-01 WtEn= 2.36D-03
 Coeff-Com: -0.110D-02-0.260D-02-0.169D-02 0.331D-01 0.340D+00 0.632D+00
 Coeff-En:   0.000D+00 0.000D+00 0.000D+00 0.000D+00 0.450D-01 0.955D+00
 Coeff:     -0.109D-02-0.260D-02-0.168D-02 0.330D-01 0.339D+00 0.633D+00
 Gap=     0.304 Goal=   None    Shift=    0.000
 RMSDP=2.94D-05 MaxDP=1.15D-03 DE=-3.36D-04 OVMax= 1.67D-03

 Cycle   7  Pass 1  IDiag  1:
 E= -1077.75837419908     Delta-E=       -0.000061740728 Rises=F Damp=F
 DIIS: error= 9.34D-05 at cycle   7 NSaved=   7.
 NSaved= 7 IEnMin= 7 EnMin= -1077.75837419908     IErMin= 7 ErrMin= 9.34D-05
 ErrMax= 9.34D-05  0.00D+00 EMaxC= 1.00D-01 BMatC= 8.00D-06 BMatP= 7.94D-05
 IDIUse=1 WtCom= 1.00D+00 WtEn= 0.00D+00
 Coeff-Com: -0.216D-03-0.480D-02-0.113D-01-0.158D-01 0.103D+00 0.309D+00
 Coeff-Com:  0.620D+00
 Coeff:     -0.216D-03-0.480D-02-0.113D-01-0.158D-01 0.103D+00 0.309D+00
 Coeff:      0.620D+00
 Gap=     0.304 Goal=   None    Shift=    0.000
 RMSDP=8.49D-06 MaxDP=4.05D-04 DE=-6.17D-05 OVMax= 6.54D-04

 Cycle   8  Pass 1  IDiag  1:
 E= -1077.75838181061     Delta-E=       -0.000007611533 Rises=F Damp=F
 DIIS: error= 3.66D-05 at cycle   8 NSaved=   8.
 NSaved= 8 IEnMin= 8 EnMin= -1077.75838181061     IErMin= 8 ErrMin= 3.66D-05
 ErrMax= 3.66D-05  0.00D+00 EMaxC= 1.00D-01 BMatC= 7.40D-07 BMatP= 8.00D-06
 IDIUse=1 WtCom= 1.00D+00 WtEn= 0.00D+00
 Coeff-Com:  0.338D-04-0.173D-02-0.455D-02-0.120D-01 0.185D-02 0.393D-01
 Coeff-Com:  0.244D+00 0.733D+00
 Coeff:      0.338D-04-0.173D-02-0.455D-02-0.120D-01 0.185D-02 0.393D-01
 Coeff:      0.244D+00 0.733D+00
 Gap=     0.304 Goal=   None    Shift=    0.000
 RMSDP=4.07D-06 MaxDP=1.56D-04 DE=-7.61D-06 OVMax= 3.27D-04

 Cycle   9  Pass 1  IDiag  1:
 E= -1077.75838275636     Delta-E=       -0.000000945750 Rises=F Damp=F
 DIIS: error= 1.39D-05 at cycle   9 NSaved=   9.
 NSaved= 9 IEnMin= 9 EnMin= -1077.75838275636     IErMin= 9 ErrMin= 1.39D-05
 ErrMax= 1.39D-05  0.00D+00 EMaxC= 1.00D-01 BMatC= 1.09D-07 BMatP= 7.40D-07
 IDIUse=1 WtCom= 1.00D+00 WtEn= 0.00D+00
 Coeff-Com:  0.355D-04 0.323D-03 0.593D-03-0.186D-02-0.204D-01-0.552D-01
 Coeff-Com: -0.339D-01 0.301D+00 0.810D+00
 Coeff:      0.355D-04 0.323D-03 0.593D-03-0.186D-02-0.204D-01-0.552D-01
 Coeff:     -0.339D-01 0.301D+00 0.810D+00
 Gap=     0.304 Goal=   None    Shift=    0.000
 RMSDP=1.91D-06 MaxDP=7.62D-05 DE=-9.46D-07 OVMax= 1.64D-04

 Cycle  10  Pass 1  IDiag  1:
 E= -1077.75838292691     Delta-E=       -0.000000170553 Rises=F Damp=F
 DIIS: error= 2.03D-06 at cycle  10 NSaved=  10.
 NSaved=10 IEnMin=10 EnMin= -1077.75838292691     IErMin=10 ErrMin= 2.03D-06
 ErrMax= 2.03D-06  0.00D+00 EMaxC= 1.00D-01 BMatC= 6.11D-09 BMatP= 1.09D-07
 IDIUse=1 WtCom= 1.00D+00 WtEn= 0.00D+00
 Coeff-Com:  0.751D-05 0.202D-03 0.460D-03 0.583D-04-0.531D-02-0.200D-01
 Coeff-Com: -0.221D-01 0.587D-01 0.246D+00 0.742D+00
 Coeff:      0.751D-05 0.202D-03 0.460D-03 0.583D-04-0.531D-02-0.200D-01
 Coeff:     -0.221D-01 0.587D-01 0.246D+00 0.742D+00
 Gap=     0.304 Goal=   None    Shift=    0.000
 RMSDP=3.52D-07 MaxDP=1.13D-05 DE=-1.71D-07 OVMax= 2.09D-05

 Cycle  11  Pass 1  IDiag  1:
 E= -1077.75838293304     Delta-E=       -0.000000006125 Rises=F Damp=F
 DIIS: error= 9.19D-07 at cycle  11 NSaved=  11.
 NSaved=11 IEnMin=11 EnMin= -1077.75838293304     IErMin=11 ErrMin= 9.19D-07
 ErrMax= 9.19D-07  0.00D+00 EMaxC= 1.00D-01 BMatC= 1.31D-09 BMatP= 6.11D-09
 IDIUse=1 WtCom= 1.00D+00 WtEn= 0.00D+00
 Coeff-Com:  0.922D-06 0.526D-04 0.141D-03 0.242D-03 0.446D-03-0.256D-02
 Coeff-Com: -0.569D-02-0.110D-01-0.183D-02 0.306D+00 0.714D+00
 Coeff:      0.922D-06 0.526D-04 0.141D-03 0.242D-03 0.446D-03-0.256D-02
 Coeff:     -0.569D-02-0.110D-01-0.183D-02 0.306D+00 0.714D+00
 Gap=     0.304 Goal=   None    Shift=    0.000
 RMSDP=1.48D-07 MaxDP=6.28D-06 DE=-6.12D-09 OVMax= 9.62D-06

 Cycle  12  Pass 1  IDiag  1:
 E= -1077.75838293434     Delta-E=       -0.000000001297 Rises=F Damp=F
 DIIS: error= 4.80D-07 at cycle  12 NSaved=  12.
 NSaved=12 IEnMin=12 EnMin= -1077.75838293434     IErMin=12 ErrMin= 4.80D-07
 ErrMax= 4.80D-07  0.00D+00 EMaxC= 1.00D-01 BMatC= 2.47D-10 BMatP= 1.31D-09
 IDIUse=1 WtCom= 1.00D+00 WtEn= 0.00D+00
 Coeff-Com: -0.182D-06 0.515D-05 0.268D-04 0.131D-03 0.976D-03 0.977D-03
 Coeff-Com: -0.482D-03-0.123D-01-0.335D-01 0.698D-01 0.375D+00 0.599D+00
 Coeff:     -0.182D-06 0.515D-05 0.268D-04 0.131D-03 0.976D-03 0.977D-03
 Coeff:     -0.482D-03-0.123D-01-0.335D-01 0.698D-01 0.375D+00 0.599D+00
 Gap=     0.304 Goal=   None    Shift=    0.000
 RMSDP=5.58D-08 MaxDP=2.69D-06 DE=-1.30D-09 OVMax= 4.21D-06

 Cycle  13  Pass 1  IDiag  1:
 E= -1077.75838293453     Delta-E=       -0.000000000197 Rises=F Damp=F
 DIIS: error= 1.34D-07 at cycle  13 NSaved=  13.
 NSaved=13 IEnMin=13 EnMin= -1077.75838293453     IErMin=13 ErrMin= 1.34D-07
 ErrMax= 1.34D-07  0.00D+00 EMaxC= 1.00D-01 BMatC= 2.56D-11 BMatP= 2.47D-10
 IDIUse=1 WtCom= 1.00D+00 WtEn= 0.00D+00
 Coeff-Com: -0.407D-06-0.916D-05-0.167D-04 0.513D-05 0.343D-03 0.931D-03
 Coeff-Com:  0.980D-03-0.177D-02-0.144D-01-0.360D-01-0.390D-02 0.235D+00
 Coeff-Com:  0.819D+00
 Coeff:     -0.407D-06-0.916D-05-0.167D-04 0.513D-05 0.343D-03 0.931D-03
 Coeff:      0.980D-03-0.177D-02-0.144D-01-0.360D-01-0.390D-02 0.235D+00
 Coeff:      0.819D+00
 Gap=     0.304 Goal=   None    Shift=    0.000
 RMSDP=2.81D-08 MaxDP=1.10D-06 DE=-1.97D-10 OVMax= 3.39D-06

 Cycle  14  Pass 1  IDiag  1:
 E= -1077.75838293457     Delta-E=       -0.000000000042 Rises=F Damp=F
 DIIS: error= 6.14D-08 at cycle  14 NSaved=  14.
 NSaved=14 IEnMin=14 EnMin= -1077.75838293457     IErMin=14 ErrMin= 6.14D-08
 ErrMax= 6.14D-08  0.00D+00 EMaxC= 1.00D-01 BMatC= 2.91D-12 BMatP= 2.56D-11
 IDIUse=1 WtCom= 1.00D+00 WtEn= 0.00D+00
 Coeff-Com: -0.138D-06-0.376D-05-0.885D-05-0.127D-04 0.510D-05 0.188D-03
 Coeff-Com:  0.321D-03 0.753D-03-0.167D-02-0.171D-01-0.363D-01 0.164D-01
 Coeff-Com:  0.273D+00 0.765D+00
 Coeff:     -0.138D-06-0.376D-05-0.885D-05-0.127D-04 0.510D-05 0.188D-03
 Coeff:      0.321D-03 0.753D-03-0.167D-02-0.171D-01-0.363D-01 0.164D-01
 Coeff:      0.273D+00 0.765D+00
 Gap=     0.304 Goal=   None    Shift=    0.000
 RMSDP=1.04D-08 MaxDP=4.94D-07 DE=-4.18D-11 OVMax= 1.41D-06

 Cycle  15  Pass 1  IDiag  1:
 E= -1077.75838293460     Delta-E=       -0.000000000029 Rises=F Damp=F
 DIIS: error= 3.83D-08 at cycle  15 NSaved=  15.
 NSaved=15 IEnMin=15 EnMin= -1077.75838293460     IErMin=15 ErrMin= 3.83D-08
 ErrMax= 3.83D-08  0.00D+00 EMaxC= 1.00D-01 BMatC= 1.05D-12 BMatP= 2.91D-12
 IDIUse=1 WtCom= 1.00D+00 WtEn= 0.00D+00
 Coeff-Com:  0.214D-07 0.185D-06-0.114D-05-0.768D-05-0.814D-04-0.117D-03
 Coeff-Com: -0.543D-04 0.779D-03 0.253D-02-0.259D-03-0.181D-01-0.506D-01
 Coeff-Com: -0.716D-01 0.384D+00 0.754D+00
 Coeff:      0.214D-07 0.185D-06-0.114D-05-0.768D-05-0.814D-04-0.117D-03
 Coeff:     -0.543D-04 0.779D-03 0.253D-02-0.259D-03-0.181D-01-0.506D-01
 Coeff:     -0.716D-01 0.384D+00 0.754D+00
 Gap=     0.304 Goal=   None    Shift=    0.000
 RMSDP=6.55D-09 MaxDP=3.67D-07 DE=-2.86D-11 OVMax= 9.80D-07

 Error on total polarization charges =  0.00374
 SCF Done:  E(RCAM-B3LYP) =  -1077.75838293     A.U. after   15 cycles
            NFock= 15  Conv=0.66D-08     -V/T= 2.0085
 KE= 1.068703435047D+03 PE=-5.942872331068D+03 EE= 2.082916811451D+03
 Leave Link  502 at Mon Mar  4 23:38:00 2024, MaxMem=  5368709120 cpu:       383.5
 (Enter /home/k0335/k033513/app/g09/l601.exe)
 Copying SCF densities to generalized density rwf, IOpCl= 0 IROHF=0.

 **********************************************************************

            Population analysis using the SCF density.

 **********************************************************************

 Alpha  occ. eigenvalues --  -19.25481 -19.25283 -19.25241 -19.25236 -19.25175
 Alpha  occ. eigenvalues --  -19.25137 -14.51652 -14.51279 -14.50888 -10.47065
 Alpha  occ. eigenvalues --  -10.46890 -10.46547 -10.42095 -10.41912 -10.41898
 Alpha  occ. eigenvalues --  -10.30001 -10.29473 -10.29389 -10.29374 -10.29010
 Alpha  occ. eigenvalues --  -10.28946  -1.24793  -1.19763  -1.19532  -1.16009
 Alpha  occ. eigenvalues --   -1.15787  -1.15269  -1.09920  -1.07472  -1.07239
 Alpha  occ. eigenvalues --   -0.89992  -0.88940  -0.88542  -0.83813  -0.83004
 Alpha  occ. eigenvalues --   -0.82653  -0.75426  -0.74243  -0.73572  -0.70460
 Alpha  occ. eigenvalues --   -0.67912  -0.66519  -0.63051  -0.60350  -0.60176
 Alpha  occ. eigenvalues --   -0.59140  -0.56743  -0.56631  -0.56458  -0.54767
 Alpha  occ. eigenvalues --   -0.54577  -0.53956  -0.53148  -0.52599  -0.51738
 Alpha  occ. eigenvalues --   -0.50642  -0.50278  -0.49318  -0.48510  -0.48180
 Alpha  occ. eigenvalues --   -0.46473  -0.46219  -0.46034  -0.41300  -0.41051
 Alpha  occ. eigenvalues --   -0.39064  -0.38694  -0.38334  -0.37775  -0.37464
 Alpha  occ. eigenvalues --   -0.36621  -0.36498  -0.35578  -0.35227  -0.34937
 Alpha virt. eigenvalues --   -0.04499  -0.04418  -0.03151  -0.00531  -0.00243
 Alpha virt. eigenvalues --    0.06406   0.08543   0.09821   0.10482   0.15470
 Alpha virt. eigenvalues --    0.16024   0.16232   0.16825   0.18596   0.18807
 Alpha virt. eigenvalues --    0.19815   0.22138   0.22798   0.23507   0.24764
 Alpha virt. eigenvalues --    0.25283   0.27837   0.29454   0.30008   0.31326
 Alpha virt. eigenvalues --    0.32272   0.32679   0.33063   0.34243   0.34826
 Alpha virt. eigenvalues --    0.36287   0.36550   0.37112   0.39490   0.40139
 Alpha virt. eigenvalues --    0.40617   0.42046   0.42541   0.50403   0.51698
 Alpha virt. eigenvalues --    0.52241   0.53854   0.54969   0.56497   0.56619
 Alpha virt. eigenvalues --    0.57171   0.57620   0.58766   0.59362   0.59570
 Alpha virt. eigenvalues --    0.60210   0.61882   0.61998   0.62933   0.63884
 Alpha virt. eigenvalues --    0.66603   0.67078   0.67714   0.68042   0.68530
 Alpha virt. eigenvalues --    0.69474   0.70660   0.70952   0.71702   0.72405
 Alpha virt. eigenvalues --    0.72676   0.73849   0.77168   0.77749   0.78370
 Alpha virt. eigenvalues --    0.80257   0.81009   0.82248   0.83242   0.83969
 Alpha virt. eigenvalues --    0.85367   0.86371   0.87276   0.87536   0.87547
 Alpha virt. eigenvalues --    0.87999   0.88263   0.88943   0.90254   0.91177
 Alpha virt. eigenvalues --    0.91713   0.92703   0.94852   0.94977   0.96412
 Alpha virt. eigenvalues --    0.97766   0.99557   0.99903   1.01254   1.02466
 Alpha virt. eigenvalues --    1.04109   1.05096   1.05931   1.07072   1.08144
 Alpha virt. eigenvalues --    1.09101   1.10371   1.11102   1.11804   1.13348
 Alpha virt. eigenvalues --    1.15039   1.15713   1.16250   1.17161   1.18380
 Alpha virt. eigenvalues --    1.19239   1.20289   1.21491   1.23564   1.24773
 Alpha virt. eigenvalues --    1.25833   1.26764   1.28130   1.30973   1.32605
 Alpha virt. eigenvalues --    1.35857   1.36926   1.37844   1.39355   1.42430
 Alpha virt. eigenvalues --    1.43686   1.44102   1.45258   1.45819   1.47462
 Alpha virt. eigenvalues --    1.48749   1.49978   1.50309   1.52257   1.52575
 Alpha virt. eigenvalues --    1.53999   1.57396   1.57942   1.59648   1.65173
 Alpha virt. eigenvalues --    1.66376   1.68027   1.69145   1.71444   1.71571
 Alpha virt. eigenvalues --    1.74234   1.76051   1.77650   1.78292   1.80589
 Alpha virt. eigenvalues --    1.82240   1.83016   1.84058   1.84183   1.85720
 Alpha virt. eigenvalues --    1.86107   1.86911   1.89108   1.89460   1.91040
 Alpha virt. eigenvalues --    1.91289   1.91697   1.92789   1.93157   1.93512
 Alpha virt. eigenvalues --    1.93707   1.94792   1.95337   1.96561   1.98251
 Alpha virt. eigenvalues --    1.99693   2.00361   2.01394   2.01704   2.02316
 Alpha virt. eigenvalues --    2.04151   2.07904   2.08153   2.09587   2.09885
 Alpha virt. eigenvalues --    2.12373   2.12730   2.13570   2.13786   2.14809
 Alpha virt. eigenvalues --    2.15494   2.16162   2.17201   2.17436   2.18316
 Alpha virt. eigenvalues --    2.20767   2.22302   2.25601   2.26683   2.29841
 Alpha virt. eigenvalues --    2.33249   2.35011   2.35070   2.36173   2.38661
 Alpha virt. eigenvalues --    2.41922   2.43017   2.43906   2.45896   2.46188
 Alpha virt. eigenvalues --    2.47308   2.47546   2.49979   2.51402   2.52811
 Alpha virt. eigenvalues --    2.54270   2.55225   2.55666   2.55963   2.57799
 Alpha virt. eigenvalues --    2.58096   2.58949   2.59659   2.62538   2.64613
 Alpha virt. eigenvalues --    2.65467   2.66793   2.68978   2.70496   2.70941
 Alpha virt. eigenvalues --    2.71751   2.72717   2.73788   2.76080   2.78546
 Alpha virt. eigenvalues --    2.79562   2.79864   2.83293   2.84763   2.85446
 Alpha virt. eigenvalues --    2.87153   2.91774   2.95148   2.96332   2.97613
 Alpha virt. eigenvalues --    2.99519   3.00027   3.01030   3.01471   3.01957
 Alpha virt. eigenvalues --    3.04333   3.07550   3.08627   3.10148   3.13697
 Alpha virt. eigenvalues --    3.15798   3.18535   3.21257   3.33249   3.33749
 Alpha virt. eigenvalues --    3.34093   3.39080   3.48006   3.48994   3.49386
 Alpha virt. eigenvalues --    3.55986   3.72907   3.74921   3.75243   4.01294
 Alpha virt. eigenvalues --    4.10390   4.13477   4.15082   4.17657   4.19426
 Alpha virt. eigenvalues --    4.21010   4.23615   4.29634   4.32238   4.36764
 Alpha virt. eigenvalues --    4.44229   4.45827   4.50426   4.56574   4.57084
 Alpha virt. eigenvalues --    4.62122   4.63880   4.65926   4.74661   4.80378
          Condensed to atoms (all electrons):
               1          2          3          4          5          6
     1  C    4.889856   0.604664  -0.026237  -0.001555   0.006772   0.000084
     2  C    0.604664   4.984781   0.379679  -0.096627  -0.121681  -0.004608
     3  C   -0.026237   0.379679   4.410360   0.612267   0.127573  -0.008105
     4  O   -0.001555  -0.096627   0.612267   7.985888  -0.093605   0.000155
     5  N    0.006772  -0.121681   0.127573  -0.093605   7.621172   0.234134
     6  C    0.000084  -0.004608  -0.008105   0.000155   0.234134   4.150278
     7  O   -0.000178   0.004730   0.000875  -0.000407  -0.093853   0.605395
     8  N    0.000002  -0.000156   0.000163  -0.000099  -0.095311   0.226165
     9  C    0.000000   0.000003   0.000062   0.000078  -0.010645  -0.003620
    10  O    0.000000   0.000000  -0.000001   0.000000  -0.000133   0.000711
    11  N    0.000004  -0.000379  -0.000684  -0.000392  -0.090139  -0.009070
    12  C   -0.000091   0.000450   0.011203   0.007768   0.190292  -0.004402
    13  O    0.000002  -0.000390   0.011877  -0.002534  -0.102852   0.000908
    14  C    0.000000   0.000001   0.000353   0.000022  -0.000933   0.000082
    15  O    0.000000   0.000000   0.000022  -0.000004  -0.000349   0.000084
    16  C    0.000000   0.000000   0.000000   0.000000  -0.000374   0.000011
    17  C    0.000000   0.000000   0.000000   0.000000   0.000004   0.000000
    18  C    0.000000   0.000001   0.000186   0.000000  -0.000147  -0.004090
    19  O    0.000000   0.000000  -0.000002   0.000000  -0.000132   0.000514
    20  C    0.000000  -0.000001   0.000005   0.000000  -0.000203  -0.003192
    21  C    0.000000   0.000000   0.000000   0.000000  -0.000031  -0.000149
    22  H    0.387742  -0.035873  -0.009428   0.009433   0.000483   0.000014
    23  H    0.372613  -0.022469   0.003753   0.000303  -0.000121  -0.000009
    24  H   -0.037892   0.376289  -0.032523   0.002691  -0.000010   0.000662
    25  H    0.000000   0.000000   0.000000   0.000000  -0.000005   0.000003
    26  H    0.000000   0.000000   0.000000   0.000000   0.000000   0.000000
    27  H    0.000000   0.000000   0.000000   0.000000   0.000000   0.000000
    28  H    0.000000   0.000000   0.000000   0.000000   0.000003   0.000139
    29  H    0.000000   0.000000   0.000000   0.000000   0.000000  -0.000028
    30  H    0.000000   0.000000   0.000000   0.000000  -0.000042   0.000400
               7          8          9         10         11         12
     1  C   -0.000178   0.000002   0.000000   0.000000   0.000004  -0.000091
     2  C    0.004730  -0.000156   0.000003   0.000000  -0.000379   0.000450
     3  C    0.000875   0.000163   0.000062  -0.000001  -0.000684   0.011203
     4  O   -0.000407  -0.000099   0.000078   0.000000  -0.000392   0.007768
     5  N   -0.093853  -0.095311  -0.010645  -0.000133  -0.090139   0.190292
     6  C    0.605395   0.226165  -0.003620   0.000711  -0.009070  -0.004402
     7  O    8.047864  -0.092627   0.000755  -0.000024  -0.000091   0.000880
     8  N   -0.092627   7.610642   0.210357  -0.097862  -0.094014  -0.011260
     9  C    0.000755   0.210357   4.179268   0.605344   0.225868  -0.003930
    10  O   -0.000024  -0.097862   0.605344   8.042667  -0.099156   0.001257
    11  N   -0.000091  -0.094014   0.225868  -0.099156   7.618610   0.198688
    12  C    0.000880  -0.011260  -0.003930   0.001257   0.198688   4.209338
    13  O   -0.000021  -0.000188   0.001235  -0.000011  -0.104903   0.610081
    14  C    0.000000  -0.000416  -0.007348  -0.000110   0.137722   0.008888
    15  O    0.000000  -0.000128   0.000589  -0.000328  -0.096280   0.006275
    16  C    0.000000  -0.000149  -0.003636   0.005229  -0.126690  -0.000319
    17  C    0.000000   0.000004   0.000168  -0.000064   0.006859  -0.000073
    18  C    0.005331   0.122949   0.003581   0.013292  -0.000569   0.000312
    19  O   -0.001171  -0.094398   0.004249  -0.002230  -0.000258   0.000108
    20  C    0.001781  -0.118947   0.000112  -0.001910  -0.000371  -0.000025
    21  C   -0.001098   0.000628  -0.000486   0.000627   0.000004   0.000003
    22  H   -0.000005   0.000000   0.000000   0.000000   0.000000  -0.000003
    23  H   -0.000002   0.000000   0.000000   0.000000   0.000000  -0.000002
    24  H    0.001120  -0.000041   0.000005   0.000000  -0.000006  -0.000024
    25  H    0.000000  -0.000017   0.000364   0.001537  -0.000065   0.000007
    26  H    0.000000   0.000000  -0.000009  -0.000002  -0.000127  -0.000003
    27  H    0.000000   0.000000   0.000011  -0.000003   0.000489   0.000002
    28  H    0.000063   0.004765   0.000082  -0.000006   0.000003   0.000000
    29  H    0.000002  -0.000059   0.000017   0.000008   0.000000   0.000000
    30  H   -0.000152   0.005465   0.000639   0.000471  -0.000044   0.000035
              13         14         15         16         17         18
     1  C    0.000002   0.000000   0.000000   0.000000   0.000000   0.000000
     2  C   -0.000390   0.000001   0.000000   0.000000   0.000000   0.000001
     3  C    0.011877   0.000353   0.000022   0.000000   0.000000   0.000186
     4  O   -0.002534   0.000022  -0.000004   0.000000   0.000000   0.000000
     5  N   -0.102852  -0.000933  -0.000349  -0.000374   0.000004  -0.000147
     6  C    0.000908   0.000082   0.000084   0.000011   0.000000  -0.004090
     7  O   -0.000021   0.000000   0.000000   0.000000   0.000000   0.005331
     8  N   -0.000188  -0.000416  -0.000128  -0.000149   0.000004   0.122949
     9  C    0.001235  -0.007348   0.000589  -0.003636   0.000168   0.003581
    10  O   -0.000011  -0.000110  -0.000328   0.005229  -0.000064   0.013292
    11  N   -0.104903   0.137722  -0.096280  -0.126690   0.006859  -0.000569
    12  C    0.610081   0.008888   0.006275  -0.000319  -0.000073   0.000312
    13  O    8.032416   0.009551  -0.001595   0.000685  -0.000012  -0.000004
    14  C    0.009551   4.413173   0.615954   0.380593  -0.027381   0.000266
    15  O   -0.001595   0.615954   7.984467  -0.098399  -0.001338   0.000004
    16  C    0.000685   0.380593  -0.098399   4.988141   0.602404  -0.000001
    17  C   -0.000012  -0.027381  -0.001338   0.602404   4.891120   0.000000
    18  C   -0.000004   0.000266   0.000004  -0.000001   0.000000   4.421322
    19  O    0.000000  -0.000001  -0.000001   0.000001   0.000000   0.576776
    20  C    0.000000   0.000001   0.000000   0.000000   0.000000   0.408124
    21  C    0.000000  -0.000001   0.000000   0.000000   0.000000  -0.030859
    22  H    0.000000   0.000000   0.000000   0.000000   0.000000   0.000000
    23  H    0.000000   0.000000   0.000000   0.000000   0.000000   0.000000
    24  H    0.000010   0.000000   0.000000   0.000000   0.000000  -0.000002
    25  H    0.000024  -0.032083   0.002665   0.376884  -0.038087  -0.000001
    26  H    0.000000   0.003793   0.000293  -0.022319   0.372393   0.000000
    27  H   -0.000001  -0.009356   0.009236  -0.036013   0.387800   0.000000
    28  H    0.000000   0.000000   0.000000   0.000000   0.000000  -0.030822
    29  H    0.000000   0.000000   0.000000   0.000000   0.000000   0.003127
    30  H    0.000000  -0.000001   0.000000   0.000000   0.000000  -0.012737
              19         20         21         22         23         24
     1  C    0.000000   0.000000   0.000000   0.387742   0.372613  -0.037892
     2  C    0.000000  -0.000001   0.000000  -0.035873  -0.022469   0.376289
     3  C   -0.000002   0.000005   0.000000  -0.009428   0.003753  -0.032523
     4  O    0.000000   0.000000   0.000000   0.009433   0.000303   0.002691
     5  N   -0.000132  -0.000203  -0.000031   0.000483  -0.000121  -0.000010
     6  C    0.000514  -0.003192  -0.000149   0.000014  -0.000009   0.000662
     7  O   -0.001171   0.001781  -0.001098  -0.000005  -0.000002   0.001120
     8  N   -0.094398  -0.118947   0.000628   0.000000   0.000000  -0.000041
     9  C    0.004249   0.000112  -0.000486   0.000000   0.000000   0.000005
    10  O   -0.002230  -0.001910   0.000627   0.000000   0.000000   0.000000
    11  N   -0.000258  -0.000371   0.000004   0.000000   0.000000  -0.000006
    12  C    0.000108  -0.000025   0.000003  -0.000003  -0.000002  -0.000024
    13  O    0.000000   0.000000   0.000000   0.000000   0.000000   0.000010
    14  C   -0.000001   0.000001  -0.000001   0.000000   0.000000   0.000000
    15  O   -0.000001   0.000000   0.000000   0.000000   0.000000   0.000000
    16  C    0.000001   0.000000   0.000000   0.000000   0.000000   0.000000
    17  C    0.000000   0.000000   0.000000   0.000000   0.000000   0.000000
    18  C    0.576776   0.408124  -0.030859   0.000000   0.000000  -0.000002
    19  O    8.000348  -0.075295   0.004339   0.000000   0.000000   0.000000
    20  C   -0.075295   4.932845   0.580126   0.000000   0.000000   0.000000
    21  C    0.004339   0.580126   4.944067   0.000000   0.000000   0.000000
    22  H    0.000000   0.000000   0.000000   0.526154  -0.034229   0.004468
    23  H    0.000000   0.000000   0.000000  -0.034229   0.550754  -0.005428
    24  H    0.000000   0.000000   0.000000   0.004468  -0.005428   0.568072
    25  H    0.000000   0.000000   0.000000   0.000000   0.000000   0.000000
    26  H    0.000000   0.000000   0.000000   0.000000   0.000000   0.000000
    27  H    0.000000   0.000000   0.000000   0.000000   0.000000   0.000000
    28  H   -0.000649   0.381846  -0.044083   0.000000   0.000000   0.000000
    29  H   -0.000078  -0.014719   0.376275   0.000000   0.000000   0.000000
    30  H    0.000018  -0.030221   0.383436   0.000000   0.000000   0.000001
              25         26         27         28         29         30
     1  C    0.000000   0.000000   0.000000   0.000000   0.000000   0.000000
     2  C    0.000000   0.000000   0.000000   0.000000   0.000000   0.000000
     3  C    0.000000   0.000000   0.000000   0.000000   0.000000   0.000000
     4  O    0.000000   0.000000   0.000000   0.000000   0.000000   0.000000
     5  N   -0.000005   0.000000   0.000000   0.000003   0.000000  -0.000042
     6  C    0.000003   0.000000   0.000000   0.000139  -0.000028   0.000400
     7  O    0.000000   0.000000   0.000000   0.000063   0.000002  -0.000152
     8  N   -0.000017   0.000000   0.000000   0.004765  -0.000059   0.005465
     9  C    0.000364  -0.000009   0.000011   0.000082   0.000017   0.000639
    10  O    0.001537  -0.000002  -0.000003  -0.000006   0.000008   0.000471
    11  N   -0.000065  -0.000127   0.000489   0.000003   0.000000  -0.000044
    12  C    0.000007  -0.000003   0.000002   0.000000   0.000000   0.000035
    13  O    0.000024   0.000000  -0.000001   0.000000   0.000000   0.000000
    14  C   -0.032083   0.003793  -0.009356   0.000000   0.000000  -0.000001
    15  O    0.002665   0.000293   0.009236   0.000000   0.000000   0.000000
    16  C    0.376884  -0.022319  -0.036013   0.000000   0.000000   0.000000
    17  C   -0.038087   0.372393   0.387800   0.000000   0.000000   0.000000
    18  C   -0.000001   0.000000   0.000000  -0.030822   0.003127  -0.012737
    19  O    0.000000   0.000000   0.000000  -0.000649  -0.000078   0.000018
    20  C    0.000000   0.000000   0.000000   0.381846  -0.014719  -0.030221
    21  C    0.000000   0.000000   0.000000  -0.044083   0.376275   0.383436
    22  H    0.000000   0.000000   0.000000   0.000000   0.000000   0.000000
    23  H    0.000000   0.000000   0.000000   0.000000   0.000000   0.000000
    24  H    0.000000   0.000000   0.000000   0.000000   0.000000   0.000001
    25  H    0.565690  -0.005419   0.004437   0.000000   0.000000   0.000001
    26  H   -0.005419   0.550467  -0.034246   0.000000   0.000000   0.000000
    27  H    0.004437  -0.034246   0.526330   0.000000   0.000000   0.000000
    28  H    0.000000   0.000000   0.000000   0.554237  -0.006422   0.004449
    29  H    0.000000   0.000000   0.000000  -0.006422   0.533772  -0.035427
    30  H    0.000001   0.000000   0.000000   0.004449  -0.035427   0.555068
 Mulliken charges:
               1
     1  C   -0.195787
     2  C   -0.068413
     3  C    0.518603
     4  O   -0.423381
     5  N   -0.569867
     6  C    0.817531
     7  O   -0.479167
     8  N   -0.575466
     9  C    0.796887
    10  O   -0.469302
    11  N   -0.565006
    12  C    0.774545
    13  O   -0.454278
    14  C    0.507229
    15  O   -0.421166
    16  C   -0.066049
    17  C   -0.193796
    18  C    0.523961
    19  O   -0.412138
    20  C   -0.059957
    21  C   -0.212798
    22  H    0.151244
    23  H    0.134837
    24  H    0.122608
    25  H    0.124065
    26  H    0.135178
    27  H    0.151313
    28  H    0.136395
    29  H    0.143531
    30  H    0.128641
 Sum of Mulliken charges =   0.00000
 Mulliken charges with hydrogens summed into heavy atoms:
               1
     1  C    0.090294
     2  C    0.054195
     3  C    0.518603
     4  O   -0.423381
     5  N   -0.569867
     6  C    0.817531
     7  O   -0.479167
     8  N   -0.575466
     9  C    0.796887
    10  O   -0.469302
    11  N   -0.565006
    12  C    0.774545
    13  O   -0.454278
    14  C    0.507229
    15  O   -0.421166
    16  C    0.058017
    17  C    0.092695
    18  C    0.523961
    19  O   -0.412138
    20  C    0.076438
    21  C    0.059374
 Electronic spatial extent (au):  <R**2>=           5633.9224
 Charge=              0.0000 electrons
 Dipole moment (field-independent basis, Debye):
    X=              1.2610    Y=              3.0285    Z=             -4.7273  Tot=              5.7540
 Quadrupole moment (field-independent basis, Debye-Ang):
   XX=           -100.8865   YY=           -117.4902   ZZ=           -126.1225
   XY=              0.6691   XZ=              2.0073   YZ=             -1.9508
 Traceless Quadrupole moment (field-independent basis, Debye-Ang):
   XX=             13.9465   YY=             -2.6571   ZZ=            -11.2894
   XY=              0.6691   XZ=              2.0073   YZ=             -1.9508
 Octapole moment (field-independent basis, Debye-Ang**2):
  XXX=             -8.8815  YYY=            118.0509  ZZZ=            -98.3602  XYY=             52.4296
  XXY=            -46.5174  XXZ=            -83.6589  XZZ=              8.5063  YZZ=             17.3779
  YYZ=            -30.8745  XYZ=              8.2698
 Hexadecapole moment (field-independent basis, Debye-Ang**3):
 XXXX=          -3002.5491 YYYY=          -2484.4567 ZZZZ=           -988.4926 XXXY=            -16.7460
 XXXZ=            -51.1635 YYYX=            116.0227 YYYZ=           -330.2364 ZZZX=            -85.2758
 ZZZY=           -422.9581 XXYY=           -979.1977 XXZZ=           -718.3269 YYZZ=           -629.9126
 XXYZ=            -63.0461 YYXZ=            -29.9094 ZZXY=             20.6066
 N-N= 1.713493701636D+03 E-N=-5.942872331269D+03  KE= 1.068703435047D+03
 No NMR shielding tensors so no spin-rotation constants.
 Leave Link  601 at Mon Mar  4 23:38:00 2024, MaxMem=  5368709120 cpu:         2.0
 (Enter /home/k0335/k033513/app/g09/l9999.exe)
 1\1\GINC-C18U02N1\SP\RCAM-B3LYP\6-31G(d,p)\C12H9N3O6\K033513\04-Mar-20
 24\0\\#p CAM-B3LYP/6-31G(d,p) SCRF=(PCM,Solvent=Generic,Read) NoSymm o
 ut=wfn\\Title A144013140_0\\0,1\C,0,4.126936,-2.584429,-0.712755\C,0,3
 .142404,-1.678346,-0.759294\C,0,1.898455,-1.868464,0.042271\O,0,1.7501
 99,-2.821308,0.802095\N,0,0.980869,-0.858595,-0.08349\C,0,1.213484,0.3
 31617,0.572789\O,0,2.358207,0.735284,0.795375\N,0,0.108532,1.125123,0.
 795648\C,0,-1.168986,0.777394,0.425599\O,0,-2.078091,1.612736,0.390198
 \N,0,-1.315002,-0.46102,-0.152191\C,0,-0.254682,-1.234031,-0.54863\O,0
 ,-0.367298,-2.022783,-1.493556\C,0,-2.520101,-1.098247,-0.03118\O,0,-2
 .754788,-1.928132,0.841642\C,0,-3.554289,-0.649521,-1.006864\C,0,-4.77
 2392,-1.204834,-1.011462\C,0,0.210258,2.07047,1.775165\O,0,-0.069426,1
 .858205,2.952374\C,0,0.787027,3.386511,1.378177\C,0,0.877913,3.847808,
 0.123936\H,0,4.0539,-3.477143,-0.096176\H,0,5.035582,-2.450643,-1.2906
 35\H,0,3.232681,-0.793674,-1.377895\H,0,-3.299215,0.134605,-1.709919\H
 ,0,-5.528713,-0.880994,-1.718514\H,0,-5.045306,-1.993283,-0.313808\H,0
 ,1.115141,3.996921,2.214882\H,0,1.301954,4.832081,-0.059923\H,0,0.5347
 45,3.296691,-0.743857\\Version=ES64L-G09RevD.01\HF=-1077.7583829\RMSD=
 6.550e-09\Dipole=0.4961022,1.1914878,-1.8598565\Quadrupole=10.3689149,
 -1.9755246,-8.3933903,0.4974872,1.4923477,-1.4503459\PG=C01 [X(C12H9N3
 O6)]\\@

 Writing a WFN file to "A144013140/A144013140_0.wfn"


 WE HAVE SEEN THAT MAN ON THE AVERAGE DOES NOT LIVE ABOVE
 TWO-AND-TWENTY YEARS.  DURING THESE TWO AND TWENTY
 YEARS HE IS LIABLE TO TWO AND TWENTY THOUSAND EVILS,
 MANY OF WHICH ARE INCURABLE.  YET EVEN IN THIS DREADFUL STATE
 MEN STILL STRUT AND POSE ON THE STAGE OF LIFE.
 THEY MAKE LOVE AT THE RISK OF DESTRUCTION,
 INTRIGUE, CARRY ON WAR, AND FORM PROJECTS, JUST AS IF THEY
 WERE TO LIVE IN LUXURY AND HAPPINESS FOR A THOUSAND
 AGES.

                                              -- VOLTAIRE
 Job cpu time:       0 days  0 hours  6 minutes 43.0 seconds.
 File lengths (MBytes):  RWF=    166 Int=      0 D2E=      0 Chk=      6 Scr=      1
 Normal termination of Gaussian 09 at Mon Mar  4 23:38:01 2024.
