 Entering Gaussian System, Link 0=g09
 Initial command:
 /home/k0335/k033513/app/g09/l1.exe "/home/k0335/k033513/app/g09/scratch/Gau-2967587.inp" -scrdir="/home/k0335/k033513/app/g09/scratch/"
 Default is to use a total of  36 processors:
                               36 via shared-memory
                                1 via Linda
 Entering Link 1 = /home/k0335/k033513/app/g09/l1.exe PID=   2967588.
  
 Copyright (c) 1988,1990,1992,1993,1995,1998,2003,2009,2013,
            Gaussian, Inc.  All Rights Reserved.
  
 This is part of the Gaussian(R) 09 program.  It is based on
 the Gaussian(R) 03 system (copyright 2003, Gaussian, Inc.),
 the Gaussian(R) 98 system (copyright 1998, Gaussian, Inc.),
 the Gaussian(R) 94 system (copyright 1995, Gaussian, Inc.),
 the Gaussian 92(TM) system (copyright 1992, Gaussian, Inc.),
 the Gaussian 90(TM) system (copyright 1990, Gaussian, Inc.),
 the Gaussian 88(TM) system (copyright 1988, Gaussian, Inc.),
 the Gaussian 86(TM) system (copyright 1986, Carnegie Mellon
 University), and the Gaussian 82(TM) system (copyright 1983,
 Carnegie Mellon University). Gaussian is a federally registered
 trademark of Gaussian, Inc.
  
 This software contains proprietary and confidential information,
 including trade secrets, belonging to Gaussian, Inc.
  
 This software is provided under written license and may be
 used, copied, transmitted, or stored only in accord with that
 written license.
  
 The following legend is applicable only to US Government
 contracts under FAR:
  
                    RESTRICTED RIGHTS LEGEND
  
 Use, reproduction and disclosure by the US Government is
 subject to restrictions as set forth in subparagraphs (a)
 and (c) of the Commercial Computer Software - Restricted
 Rights clause in FAR 52.227-19.
  
 Gaussian, Inc.
 340 Quinnipiac St., Bldg. 40, Wallingford CT 06492
  
  
 ---------------------------------------------------------------
 Warning -- This program may not be used in any manner that
 competes with the business of Gaussian, Inc. or will provide
 assistance to any competitor of Gaussian, Inc.  The licensee
 of this program is prohibited from giving any competitor of
 Gaussian, Inc. access to this program.  By using this program,
 the user acknowledges that Gaussian, Inc. is engaged in the
 business of creating and licensing software in the field of
 computational chemistry and represents and warrants to the
 licensee that it is not a competitor of Gaussian, Inc. and that
 it will not use this program in any manner prohibited above.
 ---------------------------------------------------------------
  

 Cite this work as:
 Gaussian 09, Revision D.01,
 M. J. Frisch, G. W. Trucks, H. B. Schlegel, G. E. Scuseria, 
 M. A. Robb, J. R. Cheeseman, G. Scalmani, V. Barone, B. Mennucci, 
 G. A. Petersson, H. Nakatsuji, M. Caricato, X. Li, H. P. Hratchian, 
 A. F. Izmaylov, J. Bloino, G. Zheng, J. L. Sonnenberg, M. Hada, 
 M. Ehara, K. Toyota, R. Fukuda, J. Hasegawa, M. Ishida, T. Nakajima, 
 Y. Honda, O. Kitao, H. Nakai, T. Vreven, J. A. Montgomery, Jr., 
 J. E. Peralta, F. Ogliaro, M. Bearpark, J. J. Heyd, E. Brothers, 
 K. N. Kudin, V. N. Staroverov, T. Keith, R. Kobayashi, J. Normand, 
 K. Raghavachari, A. Rendell, J. C. Burant, S. S. Iyengar, J. Tomasi, 
 M. Cossi, N. Rega, J. M. Millam, M. Klene, J. E. Knox, J. B. Cross, 
 V. Bakken, C. Adamo, J. Jaramillo, R. Gomperts, R. E. Stratmann, 
 O. Yazyev, A. J. Austin, R. Cammi, C. Pomelli, J. W. Ochterski, 
 R. L. Martin, K. Morokuma, V. G. Zakrzewski, G. A. Voth, 
 P. Salvador, J. J. Dannenberg, S. Dapprich, A. D. Daniels, 
 O. Farkas, J. B. Foresman, J. V. Ortiz, J. Cioslowski, 
 and D. J. Fox, Gaussian, Inc., Wallingford CT, 2013.
 
 ******************************************
 Gaussian 09:  ES64L-G09RevD.01 24-Apr-2013
                 3-Feb-2025 
 ******************************************
 %nprocshared=24
 Will use up to   24 processors via shared memory.
 %mem=40GB
 %rwf=cytop/OA2/OA2_neu.rwf
 %nosave
 %chk=cytop/OA2/OA2_neu.chk
 ----------------------------------------------------------------------
 #p CAM-B3LYP/6-31G(d,p) SCRF=(PCM,Solvent=Generic,Read) NoSymm out=wfn
 ----------------------------------------------------------------------
 1/38=1,40=2/1;
 2/12=2,15=1,17=6,18=5,40=1/2;
 3/5=1,6=6,7=101,11=2,16=1,25=1,30=1,70=2203,72=-2,74=-40/1,2,3;
 4//1;
 5/5=2,38=5/2;
 6/7=2,8=2,9=2,10=2,28=1/1;
 99/5=1,6=100,9=1/99;
 Leave Link    1 at Mon Feb  3 21:59:33 2025, MaxMem=  5368709120 cpu:         0.9
 (Enter /home/k0335/k033513/app/g09/l101.exe)
 -------------
 Title OA2_neu
 -------------
 Symbolic Z-matrix:
 Charge =  0 Multiplicity = 1
 F                    -6.63286   1.28312   0.90311 
 C                    -5.40801   1.00532   1.39108 
 F                    -5.46037   1.17736   2.72654 
 C                    -4.92527  -0.36892   0.98935 
 F                    -3.91403  -0.74966   1.82141 
 F                    -5.84339  -1.34371   1.06051 
 C                    -4.35863  -0.13885  -0.38126 
 F                    -3.39758  -1.07195  -0.62715 
 C                    -5.38825  -0.17926  -1.49835 
 F                    -6.2976    0.81913  -1.33203 
 C                    -6.0852   -1.53766  -1.58481 
 O                    -5.3058   -2.53419  -2.05467 
 O                    -7.24123  -1.77673  -1.267 
 F                    -4.77078   0.1022   -2.68402 
 C                    -3.77102   1.26646  -0.21329 
 F                    -3.96987   2.02046  -1.3266 
 C                    -2.26779   1.28937   0.12487 
 F                    -1.9017    2.56926   0.45901 
 C                    -1.38559   0.80124  -1.03627 
 N                    -0.02889   0.78631  -0.73571 
 C                     0.95836   0.48473  -1.75249 
 C                     2.31004   0.10941  -1.1488 
 C                     2.25401  -1.2103   -0.37661 
 C                     3.62119  -1.72032   0.09378 
 C                     4.32073  -0.81638   1.11601 
 C                     5.37492   0.09527   0.4796 
 C                     5.98011   1.09849   1.4647 
 C                     6.77269   0.44741   2.58754 
 O                    -1.82341   0.45786  -2.13084 
 F                    -2.03271   0.5667    1.25902 
 O                    -4.50773   1.95232   0.83354 
 H                    -5.8872   -3.32448  -2.08806 
 H                     0.26956   1.3151    0.07859 
 H                     0.58375  -0.31718  -2.39843 
 H                     1.06453   1.38355  -2.3701 
 H                     3.04277   0.02434  -1.95986 
 H                     2.64288   0.91568  -0.48551 
 H                     1.59162  -1.10605   0.49142 
 H                     1.80846  -1.9814   -1.01771 
 H                     4.2706   -1.90933  -0.76922 
 H                     3.45095  -2.69544   0.56849 
 H                     4.82185  -1.46392   1.84565 
 H                     3.5855   -0.22489   1.67385 
 H                     4.93369   0.65938  -0.34822 
 H                     6.17449  -0.51807   0.04597 
 H                     6.64819   1.76863   0.91052 
 H                     5.18816   1.7242    1.89248 
 H                     7.2589    1.2153    3.19787 
 H                     6.12625  -0.13861   3.24733 
 H                     7.55071  -0.21128   2.18903 
 
 NAtoms=     50 NQM=       50 NQMF=       0 NMMI=      0 NMMIF=      0
                NMic=       0 NMicF=      0.
                    Isotopes and Nuclear Properties:
 (Nuclear quadrupole moments (NQMom) in fm**2, nuclear magnetic moments (NMagM)
  in nuclear magnetons)

  Atom         1           2           3           4           5           6           7           8           9          10
 IAtWgt=          19          12          19          12          19          19          12          19          12          19
 AtmWgt=  18.9984033  12.0000000  18.9984033  12.0000000  18.9984033  18.9984033  12.0000000  18.9984033  12.0000000  18.9984033
 NucSpn=           1           0           1           0           1           1           0           1           0           1
 AtZEff=   0.0000000   0.0000000   0.0000000   0.0000000   0.0000000   0.0000000   0.0000000   0.0000000   0.0000000   0.0000000
 NQMom=    0.0000000   0.0000000   0.0000000   0.0000000   0.0000000   0.0000000   0.0000000   0.0000000   0.0000000   0.0000000
 NMagM=    2.6288670   0.0000000   2.6288670   0.0000000   2.6288670   2.6288670   0.0000000   2.6288670   0.0000000   2.6288670
 AtZNuc=   9.0000000   6.0000000   9.0000000   6.0000000   9.0000000   9.0000000   6.0000000   9.0000000   6.0000000   9.0000000

  Atom        11          12          13          14          15          16          17          18          19          20
 IAtWgt=          12          16          16          19          12          19          12          19          12          14
 AtmWgt=  12.0000000  15.9949146  15.9949146  18.9984033  12.0000000  18.9984033  12.0000000  18.9984033  12.0000000  14.0030740
 NucSpn=           0           0           0           1           0           1           0           1           0           2
 AtZEff=   0.0000000   0.0000000   0.0000000   0.0000000   0.0000000   0.0000000   0.0000000   0.0000000   0.0000000   0.0000000
 NQMom=    0.0000000   0.0000000   0.0000000   0.0000000   0.0000000   0.0000000   0.0000000   0.0000000   0.0000000   2.0440000
 NMagM=    0.0000000   0.0000000   0.0000000   2.6288670   0.0000000   2.6288670   0.0000000   2.6288670   0.0000000   0.4037610
 AtZNuc=   6.0000000   8.0000000   8.0000000   9.0000000   6.0000000   9.0000000   6.0000000   9.0000000   6.0000000   7.0000000

  Atom        21          22          23          24          25          26          27          28          29          30
 IAtWgt=          12          12          12          12          12          12          12          12          16          19
 AtmWgt=  12.0000000  12.0000000  12.0000000  12.0000000  12.0000000  12.0000000  12.0000000  12.0000000  15.9949146  18.9984033
 NucSpn=           0           0           0           0           0           0           0           0           0           1
 AtZEff=   0.0000000   0.0000000   0.0000000   0.0000000   0.0000000   0.0000000   0.0000000   0.0000000   0.0000000   0.0000000
 NQMom=    0.0000000   0.0000000   0.0000000   0.0000000   0.0000000   0.0000000   0.0000000   0.0000000   0.0000000   0.0000000
 NMagM=    0.0000000   0.0000000   0.0000000   0.0000000   0.0000000   0.0000000   0.0000000   0.0000000   0.0000000   2.6288670
 AtZNuc=   6.0000000   6.0000000   6.0000000   6.0000000   6.0000000   6.0000000   6.0000000   6.0000000   8.0000000   9.0000000

  Atom        31          32          33          34          35          36          37          38          39          40
 IAtWgt=          16           1           1           1           1           1           1           1           1           1
 AtmWgt=  15.9949146   1.0078250   1.0078250   1.0078250   1.0078250   1.0078250   1.0078250   1.0078250   1.0078250   1.0078250
 NucSpn=           0           1           1           1           1           1           1           1           1           1
 AtZEff=   0.0000000   0.0000000   0.0000000   0.0000000   0.0000000   0.0000000   0.0000000   0.0000000   0.0000000   0.0000000
 NQMom=    0.0000000   0.0000000   0.0000000   0.0000000   0.0000000   0.0000000   0.0000000   0.0000000   0.0000000   0.0000000
 NMagM=    0.0000000   2.7928460   2.7928460   2.7928460   2.7928460   2.7928460   2.7928460   2.7928460   2.7928460   2.7928460
 AtZNuc=   8.0000000   1.0000000   1.0000000   1.0000000   1.0000000   1.0000000   1.0000000   1.0000000   1.0000000   1.0000000

  Atom        41          42          43          44          45          46          47          48          49          50
 IAtWgt=           1           1           1           1           1           1           1           1           1           1
 AtmWgt=   1.0078250   1.0078250   1.0078250   1.0078250   1.0078250   1.0078250   1.0078250   1.0078250   1.0078250   1.0078250
 NucSpn=           1           1           1           1           1           1           1           1           1           1
 AtZEff=   0.0000000   0.0000000   0.0000000   0.0000000   0.0000000   0.0000000   0.0000000   0.0000000   0.0000000   0.0000000
 NQMom=    0.0000000   0.0000000   0.0000000   0.0000000   0.0000000   0.0000000   0.0000000   0.0000000   0.0000000   0.0000000
 NMagM=    2.7928460   2.7928460   2.7928460   2.7928460   2.7928460   2.7928460   2.7928460   2.7928460   2.7928460   2.7928460
 AtZNuc=   1.0000000   1.0000000   1.0000000   1.0000000   1.0000000   1.0000000   1.0000000   1.0000000   1.0000000   1.0000000
 Leave Link  101 at Mon Feb  3 21:59:33 2025, MaxMem=  5368709120 cpu:         1.0
 (Enter /home/k0335/k033513/app/g09/l202.exe)
                          Input orientation:                          
 ---------------------------------------------------------------------
 Center     Atomic      Atomic             Coordinates (Angstroms)
 Number     Number       Type             X           Y           Z
 ---------------------------------------------------------------------
      1          9           0       -6.632856    1.283116    0.903111
      2          6           0       -5.408012    1.005316    1.391082
      3          9           0       -5.460372    1.177359    2.726538
      4          6           0       -4.925270   -0.368919    0.989347
      5          9           0       -3.914027   -0.749656    1.821412
      6          9           0       -5.843390   -1.343715    1.060512
      7          6           0       -4.358631   -0.138845   -0.381258
      8          9           0       -3.397581   -1.071951   -0.627145
      9          6           0       -5.388245   -0.179263   -1.498350
     10          9           0       -6.297595    0.819133   -1.332026
     11          6           0       -6.085204   -1.537655   -1.584810
     12          8           0       -5.305798   -2.534185   -2.054668
     13          8           0       -7.241233   -1.776733   -1.267002
     14          9           0       -4.770782    0.102202   -2.684017
     15          6           0       -3.771021    1.266462   -0.213291
     16          9           0       -3.969874    2.020456   -1.326602
     17          6           0       -2.267788    1.289372    0.124871
     18          9           0       -1.901697    2.569260    0.459010
     19          6           0       -1.385593    0.801237   -1.036272
     20          7           0       -0.028885    0.786306   -0.735712
     21          6           0        0.958362    0.484726   -1.752490
     22          6           0        2.310042    0.109407   -1.148799
     23          6           0        2.254006   -1.210305   -0.376608
     24          6           0        3.621185   -1.720319    0.093780
     25          6           0        4.320733   -0.816382    1.116010
     26          6           0        5.374920    0.095268    0.479597
     27          6           0        5.980111    1.098486    1.464701
     28          6           0        6.772685    0.447405    2.587542
     29          8           0       -1.823408    0.457857   -2.130843
     30          9           0       -2.032708    0.566704    1.259016
     31          8           0       -4.507729    1.952318    0.833540
     32          1           0       -5.887195   -3.324477   -2.088056
     33          1           0        0.269555    1.315100    0.078592
     34          1           0        0.583754   -0.317182   -2.398431
     35          1           0        1.064528    1.383549   -2.370095
     36          1           0        3.042766    0.024339   -1.959858
     37          1           0        2.642882    0.915675   -0.485510
     38          1           0        1.591622   -1.106054    0.491423
     39          1           0        1.808455   -1.981400   -1.017710
     40          1           0        4.270600   -1.909327   -0.769216
     41          1           0        3.450948   -2.695438    0.568491
     42          1           0        4.821850   -1.463919    1.845647
     43          1           0        3.585500   -0.224891    1.673853
     44          1           0        4.933694    0.659380   -0.348216
     45          1           0        6.174490   -0.518071    0.045968
     46          1           0        6.648190    1.768633    0.910517
     47          1           0        5.188156    1.724203    1.892484
     48          1           0        7.258896    1.215296    3.197867
     49          1           0        6.126251   -0.138605    3.247333
     50          1           0        7.550710   -0.211276    2.189029
 ---------------------------------------------------------------------
                    Distance matrix (angstroms):
                    1          2          3          4          5
     1  F    0.000000
     2  C    1.347417   0.000000
     3  F    2.170435   1.347510   0.000000
     4  C    2.377500   1.510944   2.386450   0.000000
     5  F    3.516741   2.344590   2.631316   1.363783   0.000000
     6  F    2.747412   2.411800   3.046007   1.340983   2.157386
     7  C    2.973832   2.356161   3.550299   1.500857   2.328630
     8  F    4.284277   3.525636   4.534500   2.332624   2.523098
     9  C    3.074837   3.122889   4.437939   2.537509   3.676885
    10  F    2.307275   2.870773   4.159472   2.946781   4.252842
    11  C    3.800845   3.972559   5.133170   3.055761   4.115495
    12  O    5.008126   4.940821   6.054699   3.754891   4.488381
    13  O    3.800288   4.262148   5.276977   3.526576   4.654405
    14  F    4.210625   4.222335   5.559281   3.706673   4.664609
    15  C    3.071926   2.306935   3.391820   2.335187   2.867961
    16  F    3.550600   3.237986   4.400039   3.462010   4.193642
    17  C    4.433905   3.397791   4.119928   3.249532   3.121857
    18  F    4.922932   3.950813   4.443337   4.249253   4.113492
    19  C    5.614907   4.702505   5.559139   4.242842   4.118811
    20  N    6.822389   5.788456   6.452995   5.318361   4.898203
    21  C    8.081846   7.119254   7.857581   6.547023   6.167386
    22  C    9.250046   8.174473   8.748605   7.559775   6.949761
    23  C    9.318323   8.169469   8.651132   7.356342   6.564154
    24  C   10.715456   9.520424   9.889521   8.698863   7.791426
    25  C   11.155014   9.901653  10.111321   9.257691   8.265187
    26  C   12.073816  10.859586  11.118598  10.323237   9.423317
    27  C   12.626813  11.388742  11.510131  11.013926  10.071586
    28  C   13.536774  12.252027  12.255604  11.834812  10.780803
    29  O    5.746018   5.055003   6.110592   4.476683   4.631317
    30  F    4.669184   3.406244   3.778280   3.052053   2.363991
    31  O    2.229089   1.420625   2.256442   2.363632   2.937522
    32  H    5.543736   5.575045   6.605227   4.373904   5.080063
    33  H    6.951556   5.835526   6.313688   5.536389   4.980261
    34  H    8.095714   7.211842   8.064144   6.467539   6.182568
    35  H    8.365027   7.495551   8.282059   7.087642   6.848745
    36  H   10.168519   9.143673   9.777276   8.505414   7.955755
    37  H    9.386298   8.267196   8.720577   7.816797   7.147606
    38  H    8.574361   7.366284   7.742114   6.577323   5.675215
    39  H    9.252154   8.173136   8.765443   7.209121   6.505736
    40  H   11.483628  10.336226  10.790725   9.488384   8.662812
    41  H   10.845458   9.636047   9.953258   8.703496   7.720022
    42  H   11.817143  10.533462  10.652531   9.845741   8.765062
    43  H   10.357747   9.081664   9.214242   8.539467   7.519312
    44  H   11.650749  10.492650  10.851683  10.002282   9.218180
    45  H   12.961755  11.759438  12.059434  11.140776  10.246170
    46  H   13.289920  12.089897  12.258255  11.769466  10.896419
    47  H   11.870541  10.632355  10.695131  10.367169   9.432644
    48  H   14.080173  12.796840  12.728054  12.483637  11.427593
    49  H   13.050344  11.738545  11.672738  11.282183  10.159420
    50  H   14.319928  13.040142  13.096010  12.534519  11.483257
                    6          7          8          9         10
     6  F    0.000000
     7  C    2.394770   0.000000
     8  F    2.983961   1.361897   0.000000
     9  C    2.847961   1.519748   2.349177   0.000000
    10  F    3.257062   2.362470   3.533148   1.360653   0.000000
    11  C    2.663422   2.527105   2.890903   1.529201   2.379802
    12  O    3.377954   3.071658   2.795933   2.421145   3.570800
    13  O    2.749326   3.431707   3.959772   2.457437   2.762825
    14  F    4.154836   2.351738   2.737707   1.366122   2.161719
    15  C    3.567956   1.532445   2.403936   2.521292   2.799151
    16  F    4.530565   2.389014   3.221760   2.622983   2.619445
    17  C    4.538006   2.582169   2.723565   3.811691   4.310802
    18  F    5.586602   3.751854   4.083604   4.851974   5.059118
    19  C    5.373014   3.186181   2.779265   4.146820   4.920930
    20  N    6.447626   4.441649   3.848768   5.498789   6.297094
    21  C    7.584195   5.526258   4.760660   6.386305   7.275818
    22  C    8.571527   6.717287   5.851896   7.711624   8.638790
    23  C    8.225019   6.698882   5.658829   7.792647   8.840889
    24  C    9.521270   8.148876   7.085421   9.277907  10.337501
    25  C   10.177945   8.833585   7.916835  10.074972  11.018924
    26  C   11.325132   9.774349   8.918747  10.946843  11.834423
    27  C   12.079855  10.574882   9.850265  11.817438  12.595308
    28  C   12.833755  11.535322  10.773902  12.844277  13.650400
    29  O    5.439730   3.137588   2.660722   3.676144   4.559274
    30  F    4.267365   2.932271   2.847046   4.406718   4.996647
    31  O    3.563613   2.423000   3.537263   3.279734   3.029423
    32  H    3.720056   3.924018   3.661463   3.238684   4.231963
    33  H    6.738068   4.872938   4.432151   6.060575   6.735227
    34  H    7.370633   5.341157   4.422461   6.041021   7.055593
    35  H    8.180854   5.973593   5.383101   6.696312   7.456340
    36  H    9.484618   7.569629   6.667537   8.446087   9.395117
    37  H    8.916941   7.081247   6.360653   8.168460   8.980982
    38  H    7.460546   6.091188   5.113170   7.316876   8.322924
    39  H    7.954645   6.467846   5.299288   7.434461   8.581948
    40  H   10.293717   8.817525   7.715075   9.839616  10.929227
    41  H    9.404996   8.272105   7.139160   9.419889  10.535571
    42  H   10.694776   9.539191   8.592286  10.820291  11.787790
    43  H    9.514826   8.206102   7.401049   9.518038  10.382719
    44  H   11.051807   9.326605   8.513839  10.419624  11.275427
    45  H   12.088855  10.548600   9.611681  11.670328  12.619029
    46  H   12.874346  11.245322  10.552291  12.428705  13.172847
    47  H   11.480388   9.989094   9.374534  11.268593  11.964075
    48  H   13.519864  12.231548  11.550875  13.562796  14.298787
    49  H   12.227297  11.095018  10.324054  12.454187  13.275532
    50  H   13.489177  12.183761  11.337402  13.454157  14.326030
                   11         12         13         14         15
    11  C    0.000000
    12  O    1.349560   0.000000
    13  O    1.222523   2.222625   0.000000
    14  F    2.371728   2.762763   3.411958   0.000000
    15  C    3.885818   4.493454   4.734312   2.908524   0.000000
    16  F    4.147463   4.802034   5.012383   2.482686   1.359232
    17  C    5.048540   5.347848   6.006119   3.945149   1.540970
    18  F    6.208517   6.629603   7.097705   4.919008   2.375635
    19  C    5.278035   5.246921   6.402163   3.829258   2.565930
    20  N    6.542229   6.372685   7.672640   5.171990   3.808813
    21  C    7.330073   6.960232   8.519581   5.816972   5.034611
    22  C    8.566392   8.112348   9.736444   7.245344   6.260454
    23  C    8.432635   7.856156   9.553701   7.509624   6.516287
    24  C    9.852158   9.217876  10.947467   9.025677   7.978713
    25  C   10.774887  10.279793  11.843989   9.896446   8.460601
    26  C   11.758514  11.287792  12.873318  10.627501   9.246622
    27  C   12.720872  12.367457  13.803370  11.566596   9.895880
    28  C   13.662880  13.278921  14.703544  12.694886  10.940076
    29  O    4.737418   4.591858   5.923887   3.019852   2.850271
    30  F    5.379442   5.595456   6.245094   4.822895   2.383082
    31  O    4.529543   5.395125   5.078400   3.983131   1.452237
    32  H    1.866868   0.981682   2.214285   3.652900   5.391628
    33  H    7.161570   7.102982   8.232982   5.874362   4.051397
    34  H    6.828362   6.302388   8.039953   5.378522   5.123166
    35  H    7.763297   7.485265   8.954879   5.982578   5.296041
    36  H    9.268243   8.732328  10.463486   7.847420   7.142903
    37  H    9.132731   8.805981  10.274022   7.775448   6.429254
    38  H    7.964338   7.489762   9.031124   7.212731   5.906217
    39  H    7.926435   7.210648   9.055434   7.099601   6.505863
    40  H   10.394518   9.682470  11.523353   9.458293   8.663853
    41  H    9.844560   9.142624  10.887414   9.273750   8.274338
    42  H   11.434041  10.905374  12.462119  10.723301   9.248332
    43  H   10.289060   9.914126  11.325855   9.430030   7.739758
    44  H   11.303638  10.860849  12.450207   9.997163   8.726902
    45  H   12.409637  11.843749  13.538454  11.297634  10.107668
    46  H   13.390202  13.046241  14.499217  12.086794  10.491667
    47  H   12.240095  11.993204  13.293932  11.079517   9.214698
    48  H   14.440143  14.125129  15.464186  13.436841  11.545462
    49  H   13.207066  12.827383  14.203954  12.409038  10.578569
    50  H   14.210535  13.736618  15.270769  13.253830  11.667752
                   16         17         18         19         20
    16  F    0.000000
    17  C    2.353371   0.000000
    18  F    2.786925   1.372510   0.000000
    19  C    2.872159   1.537790   2.372369   0.000000
    20  N    4.171771   2.450789   2.848458   1.389682   0.000000
    21  C    5.179513   3.818374   4.173242   2.471290   1.448946
    22  C    6.566663   4.896027   5.135628   3.761517   2.469699
    23  C    7.076510   5.191001   5.679193   4.210480   3.054014
    24  C    8.581087   6.613563   7.002579   5.718661   4.504913
    25  C    9.096602   6.987501   7.114271   6.309609   4.991659
    26  C    9.710504   7.743559   7.685715   6.964251   5.581722
    27  C   10.375143   8.358195   8.080686   7.784396   6.406817
    28  C   11.541126   9.407646   9.180295   8.933909   7.577613
    29  O    2.774137   2.444818   3.342378   1.227875   2.296646
    30  F    3.542799   1.365209   2.160418   2.396270   2.835925
    31  O    2.227138   2.441115   2.704125   3.816925   4.886940
    32  H    5.729244   6.267755   7.556975   6.196143   7.283349
    33  H    4.521599   2.537895   2.536133   2.060702   1.015766
    34  H    5.229617   4.132718   4.761721   2.642852   2.087498
    35  H    5.180708   4.163899   4.267111   2.849783   2.055106
    36  H    7.318649   5.843662   6.064261   4.589874   3.393253
    37  H    6.756961   4.962549   4.927439   4.067560   2.686573
    38  H    6.634042   4.557134   5.070726   3.851678   2.777216
    39  H    7.035578   5.349691   6.054291   4.236196   3.333997
    40  H    9.146545   7.333593   7.724217   6.277818   5.074754
    41  H    8.994422   6.984229   7.508651   6.180140   5.092418
    42  H    9.974891   7.797734   7.962122   7.208935   5.937723
    43  H    8.433741   6.241259   6.276341   5.754084   4.460079
    44  H    9.059983   7.244449   7.142956   6.358218   4.979303
    45  H   10.546857   8.633952   8.656039   7.750269   6.387040
    46  H   10.854096   8.963347   8.599153   8.322711   6.946824
    47  H    9.711838   7.674935   7.282512   7.255595   5.916467
    48  H   12.132781  10.010320   9.656657   9.634655   8.292697
    49  H   11.292217   9.069111   8.919374   8.698297   7.389574
    50  H   12.250067  10.144732  10.003617   9.554332   8.185325
                   21         22         23         24         25
    21  C    0.000000
    22  C    1.527202   0.000000
    23  C    2.538676   1.530052   0.000000
    24  C    3.919383   2.571186   1.533153   0.000000
    25  C    4.607246   3.166911   2.579621   1.533435   0.000000
    26  C    4.963857   3.470641   3.489658   2.553585   1.532135
    27  C    5.995413   4.612815   4.754450   3.922960   2.557702
    28  C    7.255593   5.830066   5.652667   4.566161   3.126441
    29  O    2.807511   4.262773   4.741878   6.271921   7.065140
    30  F    4.245278   4.986599   4.920259   6.209248   6.503814
    31  O    6.222502   7.335393   7.562255   8.950684   9.256740
    32  H    7.841191   8.936915   8.583585   9.886507  10.989011
    33  H    2.125285   2.669039   3.243906   4.521883   4.693772
    34  H    1.095731   2.173391   2.770411   4.172037   5.154174
    35  H    1.095714   2.160164   3.480938   4.716055   5.253141
    36  H    2.144691   1.096329   2.157120   2.756053   3.435255
    37  H    2.151410   1.095812   2.163995   2.870735   2.894835
    38  H    2.822542   2.164209   1.096859   2.157445   2.814616
    39  H    2.710044   2.154123   1.097322   2.142327   3.495936
    40  H    4.203479   2.839570   2.170121   1.096461   2.179706
    41  H    4.659762   3.481078   2.128733   1.097811   2.141764
    42  H    5.627641   4.213222   3.405372   2.139246   1.096719
    43  H    4.375527   3.115431   2.635964   2.175824   1.096183
    44  H    4.219686   2.797669   3.267607   2.753363   2.167384
    45  H    5.607856   4.093306   4.003493   2.822597   2.161110
    46  H    6.412033   5.080683   5.462565   4.690693   3.484478
    47  H    5.719554   4.487818   4.729625   4.189924   2.794621
    48  H    8.045899   6.678896   6.611304   5.611251   4.134567
    49  H    7.217607   5.826743   5.410709   4.326901   2.874337
    50  H    7.712266   6.221618   5.969558   4.701962   3.456917
                   26         27         28         29         30
    26  C    0.000000
    27  C    1.530729   0.000000
    28  C    2.553660   1.520806   0.000000
    29  O    7.665624   8.615872   9.805921   0.000000
    30  F    7.463424   8.033080   8.905850   3.398058   0.000000
    31  O   10.061842  10.541451  11.514731   4.269257   2.868220
    32  H   12.046690  13.153617  14.012882   5.551779   6.418820
    33  H    5.264366   5.880363   7.024132   3.161797   2.693309
    34  H    5.604323   6.785910   7.984196   2.542974   4.583017
    35  H    5.325401   6.240984   7.618240   3.042092   4.840512
    36  H    3.375635   4.637822   5.896620   4.888438   6.034546
    37  H    3.011400   3.869605   5.168965   4.781680   5.002629
    38  H    3.969466   5.006606   5.800893   4.580887   4.064860
    39  H    4.390234   5.748980   6.598524   4.514362   5.141094
    40  H    2.607193   4.118222   4.804419   6.677913   7.069381
    41  H    3.390813   4.646904   4.998796   6.711818   6.417856
    42  H    2.145470   2.837712   2.830075   7.979044   7.173042
    43  H    2.175034   2.743945   3.383040   6.648168   5.688846
    44  H    1.094613   2.138801   3.470662   6.991194   7.150003
    45  H    1.097056   2.159593   2.783807   8.346096   8.366978
    46  H    2.146406   1.096607   2.138587   9.095932   8.770637
    47  H    2.164384   1.096227   2.150361   8.182470   7.340433
    48  H    3.491822   2.157035   1.094785  10.557325   9.513870
    49  H    2.877422   2.174748   1.093896   9.616529   8.427305
    50  H    2.783916   2.169541   1.094530  10.343265   9.659818
                   31         32         33         34         35
    31  O    0.000000
    32  H    6.187343   0.000000
    33  H    4.878364   8.007847   0.000000
    34  H    6.443560   7.142362   2.983070   0.000000
    35  H    6.452660   8.400685   2.575410   1.767606   0.000000
    36  H    8.278294   9.538092   3.675873   2.521056   2.434989
    37  H    7.344778   9.659672   2.471929   3.069073   2.502353
    38  H    6.831747   8.216314   2.789315   3.160597   3.829391
    39  H    7.667819   7.884956   3.799606   2.485137   3.702061
    40  H    9.723178  10.340348   5.208077   4.333832   4.866697
    41  H    9.220218   9.729021   5.142536   4.762303   5.564928
    42  H    9.986795  11.559383   5.618614   6.106444   6.324399
    43  H    8.422988  10.653232   3.988975   5.059891   5.029502
    44  H    9.602536  11.661466   4.729305   4.907039   4.425253
    45  H   10.992402  12.566392   6.183028   6.105061   5.963659
    46  H   11.157697  13.858827   6.448626   7.216450   6.487525
    47  H    9.756207  12.806142   5.258346   6.616625   5.940533
    48  H   12.024421  14.878516   7.654458   8.844465   8.330709
    49  H   11.103148  13.525496   6.815795   7.913647   7.713202
    50  H   12.325763  14.441702   7.732980   8.342331   8.087004
                   36         37         38         39         40
    36  H    0.000000
    37  H    1.768640   0.000000
    38  H    3.064700   2.479301   0.000000
    39  H    2.536564   3.061462   1.758047   0.000000
    40  H    2.581525   3.272704   3.067797   2.475702   0.000000
    41  H    3.735820   3.847600   2.447279   2.392419   1.754782
    42  H    4.456671   3.980535   3.520847   4.188932   2.709202
    43  H    3.682463   2.617684   2.479947   3.672564   3.045533
    44  H    2.564425   2.309190   3.871847   4.145969   2.686111
    45  H    3.758356   3.848422   4.641857   4.725992   2.494978
    46  H    4.927545   4.326537   5.831667   6.419022   4.690611
    47  H    4.725757   3.575890   4.786270   5.798543   4.596640
    48  H    6.767293   5.913089   6.695633   7.595871   5.867787
    49  H    6.053864   5.213395   5.393872   6.342700   4.765665
    50  H    6.131096   5.701750   6.260449   6.811021   4.732200
                   41         42         43         44         45
    41  H    0.000000
    42  H    2.242128   0.000000
    43  H    2.709895   1.758768   0.000000
    44  H    3.780700   3.055150   2.586180   0.000000
    45  H    3.525853   2.441948   3.072268   1.755376   0.000000
    46  H    5.501570   3.828757   3.733214   2.398822   2.490151
    47  H    4.929916   3.209439   2.532839   2.493860   3.067616
    48  H    6.058707   3.865991   4.229728   4.276717   3.756989
    49  H    4.568461   2.328657   2.989766   3.871298   3.224137
    50  H    5.060163   3.022202   3.998560   3.747589   2.565310
                   46         47         48         49         50
    46  H    0.000000
    47  H    1.760094   0.000000
    48  H    2.431278   2.500195   0.000000
    49  H    3.061158   2.487105   1.765893   0.000000
    50  H    2.523722   3.068498   1.771445   1.776055   0.000000
 Symmetry turned off by external request.
 Stoichiometry    C16H19F10NO4
 Framework group  C1[X(C16H19F10NO4)]
 Deg. of freedom   144
 Full point group                 C1      NOp   1
 Rotational constants (GHZ):      0.2929526      0.0614852      0.0585762
 Leave Link  202 at Mon Feb  3 21:59:33 2025, MaxMem=  5368709120 cpu:         0.1
 (Enter /home/k0335/k033513/app/g09/l301.exe)
 Standard basis: 6-31G(d,p) (6D, 7F)
 Ernie: Thresh=  0.10000D-02 Tol=  0.10000D-05 Strict=F.
   560 basis functions,  1001 primitive gaussians,   560 cartesian basis functions
   122 alpha electrons      122 beta electrons
       nuclear repulsion energy      3770.2287401375 Hartrees.
 IExCor=20419 DFT=T Ex+Corr=CAM-B3LYP ExCW=0 ScaHFX=  1.000000
 ScaDFX=  1.000000  1.000000  1.000000  0.810000 ScalE2=  1.000000  1.000000
 IRadAn=      0 IRanWt=     -1 IRanGd=            0 ICorTp=0 IEmpDi=  4
  HFx wShort=  0.000000 wLong=  0.330000 cFull=  0.190000 cShort=  0.000000 cLong=  0.460000
  DFx wShort=  0.000000 wLong=  0.330000 cFull=  0.190000 cShort=  0.000000 cLong=  0.460000
 NAtoms=   50 NActive=   50 NUniq=   50 SFac= 1.00D+00 NAtFMM=   60 NAOKFM=F Big=F
 Integral buffers will be    131072 words long.
 Raffenetti 2 integral format.
 Two-electron integral symmetry is turned off.
 Using the following non-standard input for PCM:
 eps=2.05
 --- end of non-standard input.
 ------------------------------------------------------------------------------
 Polarizable Continuum Model (PCM)
 =================================
 Model                : PCM (using non-symmetric T matrix).
 Atomic radii         : UFF (Universal Force Field).
 Polarization charges : Total charges.
 Charge compensation  : None.
 Solution method      : On-the-fly selection.
 Cavity type          : Scaled VdW (van der Waals Surface) (Alpha=1.100).
 Cavity algorithm     : GePol (No added spheres)
                        Default sphere list used, NSphG=   50.
                        Lebedev-Laikov grids with approx.  5.0 points / Ang**2.
                        Smoothing algorithm: Karplus/York (Gamma=1.0000).
                        Polarization charges: spherical gaussians, with
                                              point-specific exponents (IZeta= 3).
                        Self-potential: point-specific (ISelfS= 7).
                        Self-field    : sphere-specific E.n sum rule (ISelfD= 2).
 Solvent              : Generic,
                        Eps                           =   2.050000
                        Eps(infinity)                 =   0.000000
                        RSolv                         =   0.000000 Ang.
                        Molar volume                  =   0.000000 cm**3/mol
                        Thermal expansion coefficient =   0.000000 K**-1
                        Absolute temperature          = 298.150000 K
                        Numeral density               =   0.000000 Ang**-3
                        Hydrogen bond acidity         =   0.000000
                        Hydrogen bond basicity        =   0.000000
                        Surface tension at interface  =   0.000000 (cal/mol)*Ang**-2
                        Carbon aromaticity            =   0.000000
                        Electronegative halogenicity  =   0.000000
 ------------------------------------------------------------------------------
 GePol: Number of generator spheres                  =      50
 GePol: Total number of spheres                      =      50
 GePol: Number of exposed spheres                    =      49 ( 98.00%)
 GePol: Number of points                             =    3638
 GePol: Average weight of points                     =       0.13
 GePol: Minimum weight of points                     =   0.59D-09
 GePol: Maximum weight of points                     =    0.20577
 GePol: Number of points with low weight             =     200
 GePol: Fraction of low-weight points (<1% of avg)   =       5.50%
 GePol: Cavity surface area                          =    465.210 Ang**2
 GePol: Cavity volume                                =    520.486 Ang**3
 Leave Link  301 at Mon Feb  3 21:59:33 2025, MaxMem=  5368709120 cpu:         0.9
 (Enter /home/k0335/k033513/app/g09/l302.exe)
 NPDir=0 NMtPBC=     1 NCelOv=     1 NCel=       1 NClECP=     1 NCelD=      1
         NCelK=      1 NCelE2=     1 NClLst=     1 CellRange=     0.0.
 One-electron integrals computed using PRISM.
 NBasis=   560 RedAO= T EigKep=  8.64D-04  NBF=   560
 NBsUse=   560 1.00D-06 EigRej= -1.00D+00 NBFU=   560
 Precomputing XC quadrature grid using
 IXCGrd= 4 IRadAn=           0 IRanWt=          -1 IRanGd=           0 AccXCQ= 0.00D+00.
 Generated NRdTot=       0 NPtTot=           0 NUsed=           0 NTot=          32
 NSgBfM=   526   526   531   532   532 MxSgAt=    50 MxSgA2=    50.
 Leave Link  302 at Mon Feb  3 21:59:34 2025, MaxMem=  5368709120 cpu:        11.4
 (Enter /home/k0335/k033513/app/g09/l303.exe)
 DipDrv:  MaxL=1.
 Leave Link  303 at Mon Feb  3 21:59:34 2025, MaxMem=  5368709120 cpu:         1.0
 (Enter /home/k0335/k033513/app/g09/l401.exe)
 ExpMin= 1.61D-01 ExpMax= 7.00D+03 ExpMxC= 1.05D+03 IAcc=1 IRadAn=         1 AccDes= 0.00D+00
 Harris functional with IExCor=20419 and IRadAn=       1 diagonalized for initial guess.
 HarFok:  IExCor=20419 AccDes= 0.00D+00 IRadAn=         1 IDoV= 1 UseB2=F ITyADJ=14
 ICtDFT=  3500011 ScaDFX=  1.000000  1.000000  1.000000  1.000000
 FoFCou: FMM=F IPFlag=           0 FMFlag=      100000 FMFlg1=           0
         NFxFlg=           0 DoJE=T BraDBF=F KetDBF=T FulRan=T
         wScrn=  0.000000 ICntrl=     500 IOpCl=  0 I1Cent=   200000004 NGrid=           0
         NMat0=    1 NMatS0=      1 NMatT0=    0 NMatD0=    1 NMtDS0=    0 NMtDT0=    0
 Symmetry not used in FoFCou.
 Harris En= -1910.60303448587    
 JPrj=0 DoOrth=F DoCkMO=F.
 Leave Link  401 at Mon Feb  3 21:59:35 2025, MaxMem=  5368709120 cpu:        12.8
 (Enter /home/k0335/k033513/app/g09/l502.exe)
 Closed shell SCF:
 Using DIIS extrapolation, IDIIS=  1040.
 Two-electron integral symmetry not used.
 IVT=      976250 IEndB=      976250 NGot=  5368709120 MDV=  5368063671
 LenX=  5368063671 LenY=  5367749511
 Requested convergence on RMS density matrix=1.00D-08 within 128 cycles.
 Requested convergence on MAX density matrix=1.00D-06.
 Requested convergence on             energy=1.00D-06.
 No special actions if energy rises.
 Fock matrices will be formed incrementally for  20 cycles.

 Cycle   1  Pass 1  IDiag  1:
 FoFJK:  IHMeth= 1 ICntrl=       0 DoSepK=T KAlg= 0 I1Cent=   0 FoldK=F
 IRaf=         1 NMat=   1 IRICut=       1 DoRegI=T DoRafI=F ISym2E= 0.
 FoFCou: FMM=F IPFlag=           0 FMFlag=      100000 FMFlg1=           0
         NFxFlg=           0 DoJE=T BraDBF=F KetDBF=F FulRan=T
         wScrn=  0.000000 ICntrl=     500 IOpCl=  0 I1Cent=           0 NGrid=           0
         NMat0=    1 NMatS0=      1 NMatT0=    0 NMatD0=    1 NMtDS0=    0 NMtDT0=    0
 Symmetry not used in FoFCou.
 Inv3:  Mode=1 IEnd=    39705132.
 Iteration    1 A*A^-1 deviation from unit magnitude is 5.11D-15 for   3617.
 Iteration    1 A*A^-1 deviation from orthogonality  is 2.70D-15 for   2351   1891.
 Iteration    1 A^-1*A deviation from unit magnitude is 5.77D-15 for   3617.
 Iteration    1 A^-1*A deviation from orthogonality  is 1.95D-14 for   3592   3536.
 E= -1973.92883735014    
 DIIS: error= 5.80D-02 at cycle   1 NSaved=   1.
 NSaved= 1 IEnMin= 1 EnMin= -1973.92883735014     IErMin= 1 ErrMin= 5.80D-02
 ErrMax= 5.80D-02  0.00D+00 EMaxC= 1.00D-01 BMatC= 1.60D+00 BMatP= 1.60D+00
 IDIUse=3 WtCom= 4.20D-01 WtEn= 5.80D-01
 Coeff-Com:  0.100D+01
 Coeff-En:   0.100D+01
 Coeff:      0.100D+01
 Gap=     0.447 Goal=   None    Shift=    0.000
 GapD=    0.447 DampG=2.000 DampE=0.500 DampFc=1.0000 IDamp=-1.
 RMSDP=2.67D-03 MaxDP=1.58D-01              OVMax= 1.28D-01

 Cycle   2  Pass 1  IDiag  1:
 RMSU=  2.67D-03    CP:  9.94D-01
 E= -1974.16667084092     Delta-E=       -0.237833490779 Rises=F Damp=F
 DIIS: error= 2.00D-02 at cycle   2 NSaved=   2.
 NSaved= 2 IEnMin= 2 EnMin= -1974.16667084092     IErMin= 2 ErrMin= 2.00D-02
 ErrMax= 2.00D-02  0.00D+00 EMaxC= 1.00D-01 BMatC= 5.88D-01 BMatP= 1.60D+00
 IDIUse=3 WtCom= 8.00D-01 WtEn= 2.00D-01
 Coeff-Com:  0.354D+00 0.646D+00
 Coeff-En:   0.339D+00 0.661D+00
 Coeff:      0.351D+00 0.649D+00
 Gap=     0.382 Goal=   None    Shift=    0.000
 RMSDP=1.26D-03 MaxDP=8.80D-02 DE=-2.38D-01 OVMax= 8.92D-02

 Cycle   3  Pass 1  IDiag  1:
 RMSU=  7.76D-04    CP:  1.00D+00  6.29D-01
 E= -1974.45322272094     Delta-E=       -0.286551880016 Rises=F Damp=F
 DIIS: error= 6.66D-03 at cycle   3 NSaved=   3.
 NSaved= 3 IEnMin= 3 EnMin= -1974.45322272094     IErMin= 3 ErrMin= 6.66D-03
 ErrMax= 6.66D-03  0.00D+00 EMaxC= 1.00D-01 BMatC= 1.10D-01 BMatP= 5.88D-01
 IDIUse=3 WtCom= 9.33D-01 WtEn= 6.66D-02
 Coeff-Com:  0.699D-01 0.318D+00 0.612D+00
 Coeff-En:   0.000D+00 0.118D+00 0.882D+00
 Coeff:      0.652D-01 0.305D+00 0.630D+00
 Gap=     0.340 Goal=   None    Shift=    0.000
 RMSDP=5.65D-04 MaxDP=4.21D-02 DE=-2.87D-01 OVMax= 5.90D-02

 Cycle   4  Pass 1  IDiag  1:
 RMSU=  3.07D-04    CP:  9.96D-01  7.17D-01  4.78D-01
 E= -1974.51750103129     Delta-E=       -0.064278310354 Rises=F Damp=F
 DIIS: error= 3.00D-03 at cycle   4 NSaved=   4.
 NSaved= 4 IEnMin= 4 EnMin= -1974.51750103129     IErMin= 4 ErrMin= 3.00D-03
 ErrMax= 3.00D-03  0.00D+00 EMaxC= 1.00D-01 BMatC= 1.08D-02 BMatP= 1.10D-01
 IDIUse=3 WtCom= 9.70D-01 WtEn= 3.00D-02
 Coeff-Com:  0.663D-02 0.991D-01 0.324D+00 0.570D+00
 Coeff-En:   0.000D+00 0.000D+00 0.365D-01 0.963D+00
 Coeff:      0.643D-02 0.961D-01 0.315D+00 0.582D+00
 Gap=     0.331 Goal=   None    Shift=    0.000
 RMSDP=1.72D-04 MaxDP=1.45D-02 DE=-6.43D-02 OVMax= 2.20D-02

 Cycle   5  Pass 1  IDiag  1:
 RMSU=  7.55D-05    CP:  9.96D-01  7.18D-01  6.11D-01  6.27D-01
 E= -1974.52508697288     Delta-E=       -0.007585941585 Rises=F Damp=F
 DIIS: error= 7.82D-04 at cycle   5 NSaved=   5.
 NSaved= 5 IEnMin= 5 EnMin= -1974.52508697288     IErMin= 5 ErrMin= 7.82D-04
 ErrMax= 7.82D-04  0.00D+00 EMaxC= 1.00D-01 BMatC= 5.74D-04 BMatP= 1.08D-02
 IDIUse=3 WtCom= 9.92D-01 WtEn= 7.82D-03
 Coeff-Com:  0.579D-03 0.391D-01 0.148D+00 0.318D+00 0.494D+00
 Coeff-En:   0.000D+00 0.000D+00 0.000D+00 0.000D+00 0.100D+01
 Coeff:      0.574D-03 0.388D-01 0.147D+00 0.316D+00 0.498D+00
 Gap=     0.327 Goal=   None    Shift=    0.000
 RMSDP=3.68D-05 MaxDP=3.42D-03 DE=-7.59D-03 OVMax= 6.16D-03

 Cycle   6  Pass 1  IDiag  1:
 RMSU=  2.17D-05    CP:  9.96D-01  7.20D-01  6.11D-01  6.47D-01  6.22D-01
 E= -1974.52550324136     Delta-E=       -0.000416268487 Rises=F Damp=F
 DIIS: error= 1.70D-04 at cycle   6 NSaved=   6.
 NSaved= 6 IEnMin= 6 EnMin= -1974.52550324136     IErMin= 6 ErrMin= 1.70D-04
 ErrMax= 1.70D-04  0.00D+00 EMaxC= 1.00D-01 BMatC= 2.72D-05 BMatP= 5.74D-04
 IDIUse=3 WtCom= 9.98D-01 WtEn= 1.70D-03
 Coeff-Com: -0.552D-03 0.420D-02 0.221D-01 0.573D-01 0.205D+00 0.712D+00
 Coeff-En:   0.000D+00 0.000D+00 0.000D+00 0.000D+00 0.000D+00 0.100D+01
 Coeff:     -0.551D-03 0.419D-02 0.220D-01 0.572D-01 0.204D+00 0.713D+00
 Gap=     0.327 Goal=   None    Shift=    0.000
 RMSDP=1.14D-05 MaxDP=7.91D-04 DE=-4.16D-04 OVMax= 1.11D-03

 Cycle   7  Pass 1  IDiag  1:
 RMSU=  7.67D-06    CP:  9.96D-01  7.20D-01  6.14D-01  6.61D-01  7.04D-01
                    CP:  8.94D-01
 E= -1974.52552335248     Delta-E=       -0.000020111122 Rises=F Damp=F
 DIIS: error= 4.09D-05 at cycle   7 NSaved=   7.
 NSaved= 7 IEnMin= 7 EnMin= -1974.52552335248     IErMin= 7 ErrMin= 4.09D-05
 ErrMax= 4.09D-05  0.00D+00 EMaxC= 1.00D-01 BMatC= 3.69D-06 BMatP= 2.72D-05
 IDIUse=1 WtCom= 1.00D+00 WtEn= 0.00D+00
 Coeff-Com: -0.226D-03-0.369D-02-0.109D-01-0.194D-01 0.302D-01 0.318D+00
 Coeff-Com:  0.686D+00
 Coeff:     -0.226D-03-0.369D-02-0.109D-01-0.194D-01 0.302D-01 0.318D+00
 Coeff:      0.686D+00
 Gap=     0.327 Goal=   None    Shift=    0.000
 RMSDP=3.55D-06 MaxDP=2.91D-04 DE=-2.01D-05 OVMax= 5.03D-04

 Cycle   8  Pass 1  IDiag  1:
 RMSU=  2.29D-06    CP:  9.96D-01  7.20D-01  6.15D-01  6.60D-01  7.22D-01
                    CP:  9.85D-01  8.54D-01
 E= -1974.52552661777     Delta-E=       -0.000003265286 Rises=F Damp=F
 DIIS: error= 1.79D-05 at cycle   8 NSaved=   8.
 NSaved= 8 IEnMin= 8 EnMin= -1974.52552661777     IErMin= 8 ErrMin= 1.79D-05
 ErrMax= 1.79D-05  0.00D+00 EMaxC= 1.00D-01 BMatC= 2.36D-07 BMatP= 3.69D-06
 IDIUse=1 WtCom= 1.00D+00 WtEn= 0.00D+00
 Coeff-Com: -0.445D-04-0.167D-02-0.545D-02-0.116D-01-0.492D-03 0.643D-01
 Coeff-Com:  0.257D+00 0.697D+00
 Coeff:     -0.445D-04-0.167D-02-0.545D-02-0.116D-01-0.492D-03 0.643D-01
 Coeff:      0.257D+00 0.697D+00
 Gap=     0.327 Goal=   None    Shift=    0.000
 RMSDP=1.11D-06 MaxDP=8.21D-05 DE=-3.27D-06 OVMax= 1.41D-04

 Cycle   9  Pass 1  IDiag  1:
 RMSU=  7.68D-07    CP:  9.96D-01  7.20D-01  6.15D-01  6.60D-01  7.28D-01
                    CP:  1.00D+00  9.11D-01  1.04D+00
 E= -1974.52552683277     Delta-E=       -0.000000215001 Rises=F Damp=F
 DIIS: error= 4.44D-06 at cycle   9 NSaved=   9.
 NSaved= 9 IEnMin= 9 EnMin= -1974.52552683277     IErMin= 9 ErrMin= 4.44D-06
 ErrMax= 4.44D-06  0.00D+00 EMaxC= 1.00D-01 BMatC= 3.61D-08 BMatP= 2.36D-07
 IDIUse=1 WtCom= 1.00D+00 WtEn= 0.00D+00
 Coeff-Com:  0.104D-04-0.162D-03-0.649D-03-0.218D-02-0.410D-02-0.262D-01
 Coeff-Com:  0.203D-02 0.269D+00 0.762D+00
 Coeff:      0.104D-04-0.162D-03-0.649D-03-0.218D-02-0.410D-02-0.262D-01
 Coeff:      0.203D-02 0.269D+00 0.762D+00
 Gap=     0.327 Goal=   None    Shift=    0.000
 RMSDP=5.57D-07 MaxDP=4.41D-05 DE=-2.15D-07 OVMax= 8.34D-05

 Cycle  10  Pass 1  IDiag  1:
 RMSU=  3.10D-07    CP:  9.96D-01  7.20D-01  6.15D-01  6.60D-01  7.31D-01
                    CP:  1.01D+00  9.40D-01  1.14D+00  9.68D-01
 E= -1974.52552687357     Delta-E=       -0.000000040803 Rises=F Damp=F
 DIIS: error= 3.01D-06 at cycle  10 NSaved=  10.
 NSaved=10 IEnMin=10 EnMin= -1974.52552687357     IErMin=10 ErrMin= 3.01D-06
 ErrMax= 3.01D-06  0.00D+00 EMaxC= 1.00D-01 BMatC= 4.44D-09 BMatP= 3.61D-08
 IDIUse=1 WtCom= 1.00D+00 WtEn= 0.00D+00
 Coeff-Com:  0.105D-04 0.154D-03 0.457D-03 0.596D-03-0.985D-03-0.191D-01
 Coeff-Com: -0.308D-01 0.880D-02 0.289D+00 0.752D+00
 Coeff:      0.105D-04 0.154D-03 0.457D-03 0.596D-03-0.985D-03-0.191D-01
 Coeff:     -0.308D-01 0.880D-02 0.289D+00 0.752D+00
 Gap=     0.327 Goal=   None    Shift=    0.000
 RMSDP=1.98D-07 MaxDP=1.80D-05 DE=-4.08D-08 OVMax= 3.44D-05

 Cycle  11  Pass 1  IDiag  1:
 RMSU=  1.12D-07    CP:  9.96D-01  7.20D-01  6.15D-01  6.60D-01  7.32D-01
                    CP:  1.01D+00  9.49D-01  1.18D+00  1.09D+00  9.53D-01
 E= -1974.52552687792     Delta-E=       -0.000000004347 Rises=F Damp=F
 DIIS: error= 1.12D-06 at cycle  11 NSaved=  11.
 NSaved=11 IEnMin=11 EnMin= -1974.52552687792     IErMin=11 ErrMin= 1.12D-06
 ErrMax= 1.12D-06  0.00D+00 EMaxC= 1.00D-01 BMatC= 1.43D-09 BMatP= 4.44D-09
 IDIUse=1 WtCom= 1.00D+00 WtEn= 0.00D+00
 Coeff-Com:  0.519D-05 0.116D-03 0.366D-03 0.646D-03 0.123D-03-0.798D-02
 Coeff-Com: -0.180D-01-0.302D-01 0.724D-01 0.445D+00 0.537D+00
 Coeff:      0.519D-05 0.116D-03 0.366D-03 0.646D-03 0.123D-03-0.798D-02
 Coeff:     -0.180D-01-0.302D-01 0.724D-01 0.445D+00 0.537D+00
 Gap=     0.327 Goal=   None    Shift=    0.000
 RMSDP=7.19D-08 MaxDP=6.48D-06 DE=-4.35D-09 OVMax= 1.32D-05

 Cycle  12  Pass 1  IDiag  1:
 RMSU=  4.18D-08    CP:  9.96D-01  7.20D-01  6.15D-01  6.60D-01  7.33D-01
                    CP:  1.01D+00  9.51D-01  1.19D+00  1.11D+00  1.05D+00
                    CP:  7.32D-01
 E= -1974.52552687898     Delta-E=       -0.000000001057 Rises=F Damp=F
 DIIS: error= 2.93D-07 at cycle  12 NSaved=  12.
 NSaved=12 IEnMin=12 EnMin= -1974.52552687898     IErMin=12 ErrMin= 2.93D-07
 ErrMax= 2.93D-07  0.00D+00 EMaxC= 1.00D-01 BMatC= 5.99D-11 BMatP= 1.43D-09
 IDIUse=1 WtCom= 1.00D+00 WtEn= 0.00D+00
 Coeff-Com:  0.124D-06 0.163D-04 0.550D-04 0.119D-03 0.278D-03 0.422D-04
 Coeff-Com: -0.117D-02-0.102D-01-0.154D-01 0.331D-01 0.158D+00 0.835D+00
 Coeff:      0.124D-06 0.163D-04 0.550D-04 0.119D-03 0.278D-03 0.422D-04
 Coeff:     -0.117D-02-0.102D-01-0.154D-01 0.331D-01 0.158D+00 0.835D+00
 Gap=     0.327 Goal=   None    Shift=    0.000
 RMSDP=2.17D-08 MaxDP=1.51D-06 DE=-1.06D-09 OVMax= 3.78D-06

 Cycle  13  Pass 1  IDiag  1:
 RMSU=  1.17D-08    CP:  9.96D-01  7.20D-01  6.15D-01  6.60D-01  7.33D-01
                    CP:  1.01D+00  9.52D-01  1.19D+00  1.12D+00  1.08D+00
                    CP:  8.32D-01  9.71D-01
 E= -1974.52552687924     Delta-E=       -0.000000000260 Rises=F Damp=F
 DIIS: error= 6.19D-08 at cycle  13 NSaved=  13.
 NSaved=13 IEnMin=13 EnMin= -1974.52552687924     IErMin=13 ErrMin= 6.19D-08
 ErrMax= 6.19D-08  0.00D+00 EMaxC= 1.00D-01 BMatC= 1.16D-11 BMatP= 5.99D-11
 IDIUse=1 WtCom= 1.00D+00 WtEn= 0.00D+00
 Coeff-Com: -0.502D-06-0.393D-05-0.103D-04-0.871D-05 0.136D-03 0.822D-03
 Coeff-Com:  0.132D-02-0.194D-02-0.154D-01-0.315D-01 0.165D-01 0.394D+00
 Coeff-Com:  0.636D+00
 Coeff:     -0.502D-06-0.393D-05-0.103D-04-0.871D-05 0.136D-03 0.822D-03
 Coeff:      0.132D-02-0.194D-02-0.154D-01-0.315D-01 0.165D-01 0.394D+00
 Coeff:      0.636D+00
 Gap=     0.327 Goal=   None    Shift=    0.000
 RMSDP=7.09D-09 MaxDP=4.35D-07 DE=-2.60D-10 OVMax= 8.30D-07

 Error on total polarization charges =  0.00422
 SCF Done:  E(RCAM-B3LYP) =  -1974.52552688     A.U. after   13 cycles
            NFock= 13  Conv=0.71D-08     -V/T= 2.0076
 KE= 1.959626116499D+03 PE=-1.219237929333D+04 EE= 4.487998909809D+03
 Leave Link  502 at Mon Feb  3 22:00:22 2025, MaxMem=  5368709120 cpu:      1043.6
 (Enter /home/k0335/k033513/app/g09/l601.exe)
 Copying SCF densities to generalized density rwf, IOpCl= 0 IROHF=0.

 **********************************************************************

            Population analysis using the SCF density.

 **********************************************************************

 Alpha  occ. eigenvalues --  -24.83871 -24.82590 -24.82498 -24.82379 -24.82058
 Alpha  occ. eigenvalues --  -24.81847 -24.81579 -24.81465 -24.81181 -24.81118
 Alpha  occ. eigenvalues --  -19.31191 -19.29898 -19.24884 -19.22048 -14.45240
 Alpha  occ. eigenvalues --  -10.52236 -10.48771 -10.48625 -10.47238 -10.46606
 Alpha  occ. eigenvalues --  -10.43972 -10.42469 -10.39832 -10.30068 -10.26560
 Alpha  occ. eigenvalues --  -10.25476 -10.25064 -10.24915 -10.24910 -10.24812
 Alpha  occ. eigenvalues --  -10.24250  -1.40331  -1.37983  -1.37602  -1.37006
 Alpha  occ. eigenvalues --   -1.34736  -1.33924  -1.32474  -1.31478  -1.30324
 Alpha  occ. eigenvalues --   -1.30140  -1.21802  -1.19338  -1.14123  -1.11853
 Alpha  occ. eigenvalues --   -1.01947  -0.97212  -0.90166  -0.89679  -0.87759
 Alpha  occ. eigenvalues --   -0.87203  -0.83995  -0.81969  -0.78649  -0.77407
 Alpha  occ. eigenvalues --   -0.76116  -0.73632  -0.72978  -0.70889  -0.70091
 Alpha  occ. eigenvalues --   -0.69930  -0.69285  -0.68570  -0.67436  -0.66826
 Alpha  occ. eigenvalues --   -0.65770  -0.65386  -0.65137  -0.64538  -0.63811
 Alpha  occ. eigenvalues --   -0.63483  -0.63301  -0.63097  -0.61109  -0.57920
 Alpha  occ. eigenvalues --   -0.57422  -0.56567  -0.56008  -0.55824  -0.55542
 Alpha  occ. eigenvalues --   -0.55131  -0.54790  -0.54236  -0.53621  -0.53397
 Alpha  occ. eigenvalues --   -0.53103  -0.52915  -0.52423  -0.52160  -0.51998
 Alpha  occ. eigenvalues --   -0.51764  -0.51556  -0.51360  -0.50893  -0.50520
 Alpha  occ. eigenvalues --   -0.50205  -0.49594  -0.49187  -0.48949  -0.48557
 Alpha  occ. eigenvalues --   -0.48079  -0.47834  -0.47503  -0.46538  -0.46221
 Alpha  occ. eigenvalues --   -0.45589  -0.44471  -0.43823  -0.43134  -0.42943
 Alpha  occ. eigenvalues --   -0.42317  -0.41781  -0.40793  -0.40659  -0.39701
 Alpha  occ. eigenvalues --   -0.39315  -0.38407  -0.37341  -0.36674  -0.36082
 Alpha  occ. eigenvalues --   -0.34787  -0.32594
 Alpha virt. eigenvalues --    0.00140   0.02321   0.04936   0.08453   0.11045
 Alpha virt. eigenvalues --    0.11728   0.12075   0.13768   0.14454   0.14808
 Alpha virt. eigenvalues --    0.15436   0.15644   0.17120   0.17619   0.18599
 Alpha virt. eigenvalues --    0.19288   0.19975   0.20758   0.21357   0.21639
 Alpha virt. eigenvalues --    0.22060   0.22295   0.22891   0.23102   0.23680
 Alpha virt. eigenvalues --    0.23919   0.24111   0.24740   0.25261   0.25761
 Alpha virt. eigenvalues --    0.26525   0.27189   0.27778   0.28964   0.29142
 Alpha virt. eigenvalues --    0.29927   0.29976   0.30446   0.30794   0.31389
 Alpha virt. eigenvalues --    0.32311   0.32833   0.33397   0.33799   0.34127
 Alpha virt. eigenvalues --    0.35618   0.36198   0.37161   0.38646   0.39186
 Alpha virt. eigenvalues --    0.42555   0.43770   0.49256   0.50896   0.51285
 Alpha virt. eigenvalues --    0.51994   0.54507   0.55184   0.55340   0.56158
 Alpha virt. eigenvalues --    0.57202   0.57298   0.57760   0.58168   0.58994
 Alpha virt. eigenvalues --    0.60116   0.60437   0.61094   0.61559   0.62231
 Alpha virt. eigenvalues --    0.63517   0.64001   0.64628   0.65297   0.66836
 Alpha virt. eigenvalues --    0.66908   0.67430   0.68065   0.68724   0.70011
 Alpha virt. eigenvalues --    0.70744   0.71858   0.72195   0.72461   0.73957
 Alpha virt. eigenvalues --    0.74417   0.75377   0.75816   0.76215   0.76381
 Alpha virt. eigenvalues --    0.77643   0.78406   0.79211   0.80574   0.81203
 Alpha virt. eigenvalues --    0.82281   0.84191   0.85805   0.87646   0.88293
 Alpha virt. eigenvalues --    0.88771   0.89413   0.89997   0.90786   0.91024
 Alpha virt. eigenvalues --    0.92062   0.92210   0.93067   0.93759   0.93876
 Alpha virt. eigenvalues --    0.94481   0.95117   0.95833   0.96013   0.96419
 Alpha virt. eigenvalues --    0.97409   0.98850   0.98877   0.99653   0.99889
 Alpha virt. eigenvalues --    0.99987   1.01038   1.01547   1.01876   1.02919
 Alpha virt. eigenvalues --    1.03361   1.04898   1.04943   1.06346   1.06887
 Alpha virt. eigenvalues --    1.07538   1.07810   1.10058   1.10378   1.11733
 Alpha virt. eigenvalues --    1.11976   1.13288   1.14626   1.14855   1.16286
 Alpha virt. eigenvalues --    1.17474   1.17836   1.18550   1.19361   1.20758
 Alpha virt. eigenvalues --    1.21384   1.23840   1.24308   1.27234   1.27718
 Alpha virt. eigenvalues --    1.28483   1.29089   1.29818   1.30446   1.31712
 Alpha virt. eigenvalues --    1.32581   1.33368   1.34519   1.36500   1.36775
 Alpha virt. eigenvalues --    1.37089   1.37532   1.37817   1.38214   1.38832
 Alpha virt. eigenvalues --    1.39430   1.40055   1.40900   1.41624   1.42214
 Alpha virt. eigenvalues --    1.43259   1.43988   1.44254   1.45957   1.46309
 Alpha virt. eigenvalues --    1.47363   1.48010   1.48859   1.50311   1.50672
 Alpha virt. eigenvalues --    1.51963   1.52678   1.54316   1.56432   1.57133
 Alpha virt. eigenvalues --    1.57552   1.57792   1.59544   1.59918   1.60347
 Alpha virt. eigenvalues --    1.60876   1.61179   1.62996   1.63799   1.64606
 Alpha virt. eigenvalues --    1.65041   1.65889   1.66377   1.67560   1.68951
 Alpha virt. eigenvalues --    1.69796   1.70591   1.71293   1.71722   1.72718
 Alpha virt. eigenvalues --    1.73447   1.74075   1.74503   1.75023   1.75148
 Alpha virt. eigenvalues --    1.77247   1.78087   1.78477   1.78574   1.79480
 Alpha virt. eigenvalues --    1.79842   1.80548   1.81318   1.81921   1.83941
 Alpha virt. eigenvalues --    1.84407   1.85026   1.86712   1.87113   1.87368
 Alpha virt. eigenvalues --    1.87871   1.88768   1.89562   1.89656   1.90024
 Alpha virt. eigenvalues --    1.91299   1.92976   1.93095   1.93239   1.93529
 Alpha virt. eigenvalues --    1.94395   1.94974   1.95313   1.95859   1.96607
 Alpha virt. eigenvalues --    1.96842   1.97386   1.98279   1.98429   2.00125
 Alpha virt. eigenvalues --    2.00203   2.01600   2.01658   2.02953   2.03785
 Alpha virt. eigenvalues --    2.04238   2.04732   2.04844   2.05953   2.06902
 Alpha virt. eigenvalues --    2.07522   2.08334   2.08962   2.09519   2.10316
 Alpha virt. eigenvalues --    2.10754   2.11413   2.12162   2.12272   2.13254
 Alpha virt. eigenvalues --    2.13378   2.14603   2.14945   2.15524   2.16385
 Alpha virt. eigenvalues --    2.17580   2.17827   2.18593   2.18726   2.19666
 Alpha virt. eigenvalues --    2.19964   2.21002   2.22194   2.22869   2.23749
 Alpha virt. eigenvalues --    2.24312   2.24472   2.24864   2.25169   2.27750
 Alpha virt. eigenvalues --    2.28891   2.29993   2.30677   2.31368   2.31855
 Alpha virt. eigenvalues --    2.31933   2.33546   2.33999   2.34238   2.35247
 Alpha virt. eigenvalues --    2.35889   2.36275   2.36811   2.37923   2.38731
 Alpha virt. eigenvalues --    2.38855   2.40456   2.40682   2.40830   2.42276
 Alpha virt. eigenvalues --    2.43090   2.44007   2.44917   2.45390   2.46130
 Alpha virt. eigenvalues --    2.47416   2.50164   2.51196   2.51539   2.52216
 Alpha virt. eigenvalues --    2.53935   2.54158   2.54878   2.56427   2.57130
 Alpha virt. eigenvalues --    2.58513   2.59511   2.61074   2.61781   2.62516
 Alpha virt. eigenvalues --    2.63977   2.65577   2.66113   2.67101   2.68173
 Alpha virt. eigenvalues --    2.68442   2.71087   2.71295   2.72316   2.72987
 Alpha virt. eigenvalues --    2.73763   2.74092   2.74887   2.75212   2.76028
 Alpha virt. eigenvalues --    2.77004   2.78978   2.79529   2.80100   2.81659
 Alpha virt. eigenvalues --    2.82343   2.83165   2.84241   2.84532   2.86551
 Alpha virt. eigenvalues --    2.87180   2.88263   2.88830   2.89895   2.90520
 Alpha virt. eigenvalues --    2.91339   2.92270   2.92492   2.93062   2.93789
 Alpha virt. eigenvalues --    2.94852   2.95825   2.97245   2.97380   2.97729
 Alpha virt. eigenvalues --    2.98481   3.00081   3.00611   3.01124   3.01736
 Alpha virt. eigenvalues --    3.02781   3.04433   3.04970   3.08326   3.09937
 Alpha virt. eigenvalues --    3.11748   3.12572   3.13616   3.16066   3.17512
 Alpha virt. eigenvalues --    3.19139   3.21904   3.24753   3.26736   3.27280
 Alpha virt. eigenvalues --    3.28565   3.30628   3.31292   3.33391   3.34909
 Alpha virt. eigenvalues --    3.35453   3.36319   3.39056   3.39221   3.40818
 Alpha virt. eigenvalues --    3.42302   3.47882   3.48277   3.49683   3.51398
 Alpha virt. eigenvalues --    3.53352   3.55263   3.57649   3.60903   3.63259
 Alpha virt. eigenvalues --    3.64662   3.67289   3.97192   4.12497   4.18755
 Alpha virt. eigenvalues --    4.19705   4.32945   4.33345   4.34728   4.38105
 Alpha virt. eigenvalues --    4.40087   4.51451   4.52156   4.55733   4.56372
 Alpha virt. eigenvalues --    4.61204   4.67720   4.70118   4.74650   4.79211
 Alpha virt. eigenvalues --    4.80386   4.81999   4.85685   4.97995   5.10006
 Alpha virt. eigenvalues --    5.17981   5.39590   5.46368   5.52794   5.80606
 Alpha virt. eigenvalues --    6.24396   6.66156   7.11579
          Condensed to atoms (all electrons):
               1          2          3          4          5          6
     1  F    9.090548   0.270677  -0.041922  -0.028129   0.000349   0.000023
     2  C    0.270677   4.414795   0.302528   0.194552  -0.022113  -0.022569
     3  F   -0.041922   0.302528   9.048453  -0.022357  -0.000372  -0.000161
     4  C   -0.028129   0.194552  -0.022357   4.805694   0.240214   0.275012
     5  F    0.000349  -0.022113  -0.000372   0.240214   9.116378  -0.042530
     6  F    0.000023  -0.022569  -0.000161   0.275012  -0.042530   9.059196
     7  C   -0.001669  -0.077453   0.002474   0.118375  -0.029393  -0.035540
     8  F   -0.000001   0.001768  -0.000001  -0.009832  -0.001758  -0.000226
     9  C    0.007720  -0.003369   0.000013  -0.036258   0.002065   0.000484
    10  F   -0.008104   0.007959   0.000000   0.005391  -0.000001  -0.000338
    11  C   -0.000625  -0.000185   0.000000  -0.005863  -0.000092   0.015056
    12  O    0.000000   0.000005   0.000000  -0.000321   0.000001  -0.000837
    13  O    0.000030  -0.000173   0.000000   0.003140  -0.000001  -0.004206
    14  F   -0.000001  -0.000043   0.000000   0.002033  -0.000001   0.000002
    15  C    0.000853  -0.011376   0.000610  -0.046819   0.005226   0.002019
    16  F   -0.000012   0.000360  -0.000003   0.001732   0.000000  -0.000001
    17  C    0.000032   0.002618   0.000074  -0.007030   0.001815   0.000011
    18  F    0.000000   0.000032   0.000000   0.000032  -0.000003   0.000000
    19  C    0.000001   0.000086   0.000000   0.000341  -0.000088  -0.000001
    20  N    0.000000   0.000000   0.000000   0.000007   0.000000   0.000000
    21  C    0.000000   0.000000   0.000000   0.000000   0.000000   0.000000
    22  C    0.000000   0.000000   0.000000   0.000000   0.000000   0.000000
    23  C    0.000000   0.000000   0.000000   0.000000   0.000000   0.000000
    24  C    0.000000   0.000000   0.000000   0.000000   0.000000   0.000000
    25  C    0.000000   0.000000   0.000000   0.000000   0.000000   0.000000
    26  C    0.000000   0.000000   0.000000   0.000000   0.000000   0.000000
    27  C    0.000000   0.000000   0.000000   0.000000   0.000000   0.000000
    28  C    0.000000   0.000000   0.000000   0.000000   0.000000   0.000000
    29  O    0.000000   0.000003   0.000000   0.000153   0.000000   0.000000
    30  F    0.000000   0.001250  -0.000023   0.000991  -0.002776   0.000000
    31  O   -0.050954   0.192871  -0.041782  -0.035657  -0.001065   0.000726
    32  H    0.000000   0.000000   0.000000  -0.000084   0.000000  -0.000014
    33  H    0.000000   0.000000   0.000000  -0.000003   0.000000   0.000000
    34  H    0.000000   0.000000   0.000000   0.000000   0.000000   0.000000
    35  H    0.000000   0.000000   0.000000   0.000000   0.000000   0.000000
    36  H    0.000000   0.000000   0.000000   0.000000   0.000000   0.000000
    37  H    0.000000   0.000000   0.000000   0.000000   0.000000   0.000000
    38  H    0.000000   0.000000   0.000000   0.000000   0.000000   0.000000
    39  H    0.000000   0.000000   0.000000   0.000000   0.000000   0.000000
    40  H    0.000000   0.000000   0.000000   0.000000   0.000000   0.000000
    41  H    0.000000   0.000000   0.000000   0.000000   0.000000   0.000000
    42  H    0.000000   0.000000   0.000000   0.000000   0.000000   0.000000
    43  H    0.000000   0.000000   0.000000   0.000000   0.000000   0.000000
    44  H    0.000000   0.000000   0.000000   0.000000   0.000000   0.000000
    45  H    0.000000   0.000000   0.000000   0.000000   0.000000   0.000000
    46  H    0.000000   0.000000   0.000000   0.000000   0.000000   0.000000
    47  H    0.000000   0.000000   0.000000   0.000000   0.000000   0.000000
    48  H    0.000000   0.000000   0.000000   0.000000   0.000000   0.000000
    49  H    0.000000   0.000000   0.000000   0.000000   0.000000   0.000000
    50  H    0.000000   0.000000   0.000000   0.000000   0.000000   0.000000
               7          8          9         10         11         12
     1  F   -0.001669  -0.000001   0.007720  -0.008104  -0.000625   0.000000
     2  C   -0.077453   0.001768  -0.003369   0.007959  -0.000185   0.000005
     3  F    0.002474  -0.000001   0.000013   0.000000   0.000000   0.000000
     4  C    0.118375  -0.009832  -0.036258   0.005391  -0.005863  -0.000321
     5  F   -0.029393  -0.001758   0.002065  -0.000001  -0.000092   0.000001
     6  F   -0.035540  -0.000226   0.000484  -0.000338   0.015056  -0.000837
     7  C    5.606921   0.209334   0.176044  -0.043387  -0.065978   0.008305
     8  F    0.209334   9.121573  -0.022734   0.000336   0.000577   0.000381
     9  C    0.176044  -0.022734   4.624904   0.250385   0.253860  -0.078957
    10  F   -0.043387   0.000336   0.250385   9.112044  -0.025746   0.000619
    11  C   -0.065978   0.000577   0.253860  -0.025746   4.538761   0.255693
    12  O    0.008305   0.000381  -0.078957   0.000619   0.255693   8.097836
    13  O   -0.001509   0.000027  -0.050081  -0.001385   0.546490  -0.095980
    14  F   -0.025301  -0.000316   0.252748  -0.039793  -0.027800   0.001375
    15  C    0.112088  -0.034754  -0.024485   0.011223   0.004625  -0.000084
    16  F   -0.033877   0.000363   0.013822  -0.002634   0.000255   0.000000
    17  C   -0.051419   0.010737   0.003797   0.000167  -0.000045   0.000001
    18  F    0.001967   0.000006  -0.000015   0.000000   0.000000   0.000000
    19  C   -0.001263   0.007819  -0.000502   0.000001  -0.000027   0.000002
    20  N   -0.000060  -0.000213  -0.000005   0.000000   0.000000   0.000000
    21  C   -0.000003   0.000006   0.000000   0.000000   0.000000   0.000000
    22  C    0.000000   0.000000   0.000000   0.000000   0.000000   0.000000
    23  C    0.000000   0.000000   0.000000   0.000000   0.000000   0.000000
    24  C    0.000000   0.000000   0.000000   0.000000   0.000000   0.000000
    25  C    0.000000   0.000000   0.000000   0.000000   0.000000   0.000000
    26  C    0.000000   0.000000   0.000000   0.000000   0.000000   0.000000
    27  C    0.000000   0.000000   0.000000   0.000000   0.000000   0.000000
    28  C    0.000000   0.000000   0.000000   0.000000   0.000000   0.000000
    29  O    0.005012  -0.005242  -0.001044   0.000001  -0.000009  -0.000001
    30  F    0.007720  -0.001057   0.000063   0.000000   0.000000   0.000000
    31  O   -0.027988   0.000827  -0.001796  -0.001469  -0.000025   0.000000
    32  H   -0.000292   0.000139   0.007799  -0.000034  -0.013179   0.282399
    33  H   -0.000030   0.000001   0.000001   0.000000   0.000000   0.000000
    34  H    0.000002  -0.000006   0.000000   0.000000   0.000000   0.000000
    35  H    0.000000   0.000000   0.000000   0.000000   0.000000   0.000000
    36  H    0.000000   0.000000   0.000000   0.000000   0.000000   0.000000
    37  H    0.000000   0.000000   0.000000   0.000000   0.000000   0.000000
    38  H    0.000000   0.000000   0.000000   0.000000   0.000000   0.000000
    39  H    0.000000   0.000000   0.000000   0.000000   0.000000   0.000000
    40  H    0.000000   0.000000   0.000000   0.000000   0.000000   0.000000
    41  H    0.000000   0.000000   0.000000   0.000000   0.000000   0.000000
    42  H    0.000000   0.000000   0.000000   0.000000   0.000000   0.000000
    43  H    0.000000   0.000000   0.000000   0.000000   0.000000   0.000000
    44  H    0.000000   0.000000   0.000000   0.000000   0.000000   0.000000
    45  H    0.000000   0.000000   0.000000   0.000000   0.000000   0.000000
    46  H    0.000000   0.000000   0.000000   0.000000   0.000000   0.000000
    47  H    0.000000   0.000000   0.000000   0.000000   0.000000   0.000000
    48  H    0.000000   0.000000   0.000000   0.000000   0.000000   0.000000
    49  H    0.000000   0.000000   0.000000   0.000000   0.000000   0.000000
    50  H    0.000000   0.000000   0.000000   0.000000   0.000000   0.000000
              13         14         15         16         17         18
     1  F    0.000030  -0.000001   0.000853  -0.000012   0.000032   0.000000
     2  C   -0.000173  -0.000043  -0.011376   0.000360   0.002618   0.000032
     3  F    0.000000   0.000000   0.000610  -0.000003   0.000074   0.000000
     4  C    0.003140   0.002033  -0.046819   0.001732  -0.007030   0.000032
     5  F   -0.000001  -0.000001   0.005226   0.000000   0.001815  -0.000003
     6  F   -0.004206   0.000002   0.002019  -0.000001   0.000011   0.000000
     7  C   -0.001509  -0.025301   0.112088  -0.033877  -0.051419   0.001967
     8  F    0.000027  -0.000316  -0.034754   0.000363   0.010737   0.000006
     9  C   -0.050081   0.252748  -0.024485   0.013822   0.003797  -0.000015
    10  F   -0.001385  -0.039793   0.011223  -0.002634   0.000167   0.000000
    11  C    0.546490  -0.027800   0.004625   0.000255  -0.000045   0.000000
    12  O   -0.095980   0.001375  -0.000084   0.000000   0.000001   0.000000
    13  O    8.041523   0.000643  -0.000092   0.000000   0.000000   0.000000
    14  F    0.000643   9.104551  -0.001081  -0.002183  -0.000153   0.000000
    15  C   -0.000092  -0.001081   4.985610   0.243428   0.206543  -0.017389
    16  F    0.000000  -0.002183   0.243428   9.118550  -0.027099  -0.000623
    17  C    0.000000  -0.000153   0.206543  -0.027099   4.774814   0.241066
    18  F    0.000000   0.000000  -0.017389  -0.000623   0.241066   9.120088
    19  C    0.000000  -0.000137  -0.061199   0.005750   0.228865  -0.027537
    20  N    0.000000  -0.000001   0.005271   0.000021  -0.072552  -0.002242
    21  C    0.000000   0.000000  -0.000117   0.000002   0.004298  -0.000112
    22  C    0.000000   0.000000   0.000000   0.000000  -0.000094  -0.000003
    23  C    0.000000   0.000000   0.000000   0.000000  -0.000022   0.000000
    24  C    0.000000   0.000000   0.000000   0.000000   0.000000   0.000000
    25  C    0.000000   0.000000   0.000000   0.000000   0.000000   0.000000
    26  C    0.000000   0.000000   0.000000   0.000000   0.000000   0.000000
    27  C    0.000000   0.000000   0.000000   0.000000   0.000000   0.000000
    28  C    0.000000   0.000000   0.000000   0.000000   0.000000   0.000000
    29  O    0.000000   0.001248   0.015308  -0.003352  -0.070490   0.000680
    30  F    0.000000   0.000000  -0.032705   0.000301   0.242103  -0.040664
    31  O    0.000000   0.000015   0.159264  -0.045804  -0.026002  -0.000481
    32  H    0.008576  -0.000157   0.000014   0.000000   0.000000   0.000000
    33  H    0.000000   0.000000   0.000583  -0.000005   0.002466   0.006112
    34  H    0.000000   0.000000  -0.000008   0.000000   0.000396  -0.000006
    35  H    0.000000   0.000000   0.000009   0.000000  -0.000191   0.000028
    36  H    0.000000   0.000000   0.000000   0.000000   0.000003   0.000000
    37  H    0.000000   0.000000   0.000000   0.000000  -0.000016  -0.000002
    38  H    0.000000   0.000000   0.000000   0.000000   0.000016   0.000000
    39  H    0.000000   0.000000   0.000000   0.000000  -0.000001   0.000000
    40  H    0.000000   0.000000   0.000000   0.000000   0.000000   0.000000
    41  H    0.000000   0.000000   0.000000   0.000000   0.000000   0.000000
    42  H    0.000000   0.000000   0.000000   0.000000   0.000000   0.000000
    43  H    0.000000   0.000000   0.000000   0.000000   0.000000   0.000000
    44  H    0.000000   0.000000   0.000000   0.000000   0.000000   0.000000
    45  H    0.000000   0.000000   0.000000   0.000000   0.000000   0.000000
    46  H    0.000000   0.000000   0.000000   0.000000   0.000000   0.000000
    47  H    0.000000   0.000000   0.000000   0.000000   0.000000   0.000000
    48  H    0.000000   0.000000   0.000000   0.000000   0.000000   0.000000
    49  H    0.000000   0.000000   0.000000   0.000000   0.000000   0.000000
    50  H    0.000000   0.000000   0.000000   0.000000   0.000000   0.000000
              19         20         21         22         23         24
     1  F    0.000001   0.000000   0.000000   0.000000   0.000000   0.000000
     2  C    0.000086   0.000000   0.000000   0.000000   0.000000   0.000000
     3  F    0.000000   0.000000   0.000000   0.000000   0.000000   0.000000
     4  C    0.000341   0.000007   0.000000   0.000000   0.000000   0.000000
     5  F   -0.000088   0.000000   0.000000   0.000000   0.000000   0.000000
     6  F   -0.000001   0.000000   0.000000   0.000000   0.000000   0.000000
     7  C   -0.001263  -0.000060  -0.000003   0.000000   0.000000   0.000000
     8  F    0.007819  -0.000213   0.000006   0.000000   0.000000   0.000000
     9  C   -0.000502  -0.000005   0.000000   0.000000   0.000000   0.000000
    10  F    0.000001   0.000000   0.000000   0.000000   0.000000   0.000000
    11  C   -0.000027   0.000000   0.000000   0.000000   0.000000   0.000000
    12  O    0.000002   0.000000   0.000000   0.000000   0.000000   0.000000
    13  O    0.000000   0.000000   0.000000   0.000000   0.000000   0.000000
    14  F   -0.000137  -0.000001   0.000000   0.000000   0.000000   0.000000
    15  C   -0.061199   0.005271  -0.000117   0.000000   0.000000   0.000000
    16  F    0.005750   0.000021   0.000002   0.000000   0.000000   0.000000
    17  C    0.228865  -0.072552   0.004298  -0.000094  -0.000022   0.000000
    18  F   -0.027537  -0.002242  -0.000112  -0.000003   0.000000   0.000000
    19  C    4.532586   0.266348  -0.025290   0.004562   0.000213  -0.000001
    20  N    0.266348   7.008417   0.241721  -0.042926  -0.002618   0.000188
    21  C   -0.025290   0.241721   4.803877   0.360212  -0.044338   0.003810
    22  C    0.004562  -0.042926   0.360212   4.958287   0.365366  -0.043825
    23  C    0.000213  -0.002618  -0.044338   0.365366   4.893921   0.378749
    24  C   -0.000001   0.000188   0.003810  -0.043825   0.378749   4.915864
    25  C    0.000000  -0.000009   0.000002  -0.003236  -0.039301   0.358715
    26  C    0.000000   0.000000   0.000091  -0.000574  -0.001635  -0.035649
    27  C    0.000000   0.000000  -0.000001  -0.000118  -0.000062   0.004224
    28  C    0.000000   0.000000   0.000000   0.000001  -0.000003   0.000134
    29  O    0.546847  -0.096633   0.004206   0.000573  -0.000031   0.000000
    30  F   -0.030602   0.000624   0.000056  -0.000002  -0.000002   0.000000
    31  O    0.002486  -0.000023   0.000000   0.000000   0.000000   0.000000
    32  H    0.000000   0.000000   0.000000   0.000000   0.000000   0.000000
    33  H   -0.030533   0.341912  -0.031129  -0.002133  -0.000262  -0.000053
    34  H   -0.003455  -0.039710   0.394819  -0.030545  -0.007873  -0.000033
    35  H   -0.002866  -0.053630   0.399919  -0.039014   0.005024  -0.000120
    36  H   -0.000098   0.003763  -0.032568   0.388096  -0.037276  -0.003137
    37  H    0.000008  -0.006731  -0.033774   0.382659  -0.039922  -0.004493
    38  H    0.000015   0.006428  -0.006455  -0.040142   0.389316  -0.035702
    39  H   -0.000007  -0.000463  -0.003973  -0.044227   0.387515  -0.035338
    40  H    0.000000  -0.000002  -0.000003  -0.007468  -0.036256   0.388714
    41  H    0.000000   0.000004  -0.000158   0.005233  -0.035023   0.382078
    42  H    0.000000   0.000000   0.000001   0.000062   0.003715  -0.033434
    43  H    0.000000  -0.000006  -0.000109  -0.001164  -0.007005  -0.044615
    44  H    0.000000   0.000001   0.000083   0.001099  -0.000335  -0.002422
    45  H    0.000000   0.000000  -0.000004  -0.000032   0.000094  -0.005021
    46  H    0.000000   0.000000   0.000000   0.000003   0.000000  -0.000156
    47  H    0.000000   0.000000  -0.000001  -0.000012   0.000002   0.000015
    48  H    0.000000   0.000000   0.000000   0.000000   0.000000  -0.000001
    49  H    0.000000   0.000000   0.000000   0.000000   0.000000  -0.000084
    50  H    0.000000   0.000000   0.000000   0.000000   0.000000  -0.000024
              25         26         27         28         29         30
     1  F    0.000000   0.000000   0.000000   0.000000   0.000000   0.000000
     2  C    0.000000   0.000000   0.000000   0.000000   0.000003   0.001250
     3  F    0.000000   0.000000   0.000000   0.000000   0.000000  -0.000023
     4  C    0.000000   0.000000   0.000000   0.000000   0.000153   0.000991
     5  F    0.000000   0.000000   0.000000   0.000000   0.000000  -0.002776
     6  F    0.000000   0.000000   0.000000   0.000000   0.000000   0.000000
     7  C    0.000000   0.000000   0.000000   0.000000   0.005012   0.007720
     8  F    0.000000   0.000000   0.000000   0.000000  -0.005242  -0.001057
     9  C    0.000000   0.000000   0.000000   0.000000  -0.001044   0.000063
    10  F    0.000000   0.000000   0.000000   0.000000   0.000001   0.000000
    11  C    0.000000   0.000000   0.000000   0.000000  -0.000009   0.000000
    12  O    0.000000   0.000000   0.000000   0.000000  -0.000001   0.000000
    13  O    0.000000   0.000000   0.000000   0.000000   0.000000   0.000000
    14  F    0.000000   0.000000   0.000000   0.000000   0.001248   0.000000
    15  C    0.000000   0.000000   0.000000   0.000000   0.015308  -0.032705
    16  F    0.000000   0.000000   0.000000   0.000000  -0.003352   0.000301
    17  C    0.000000   0.000000   0.000000   0.000000  -0.070490   0.242103
    18  F    0.000000   0.000000   0.000000   0.000000   0.000680  -0.040664
    19  C    0.000000   0.000000   0.000000   0.000000   0.546847  -0.030602
    20  N   -0.000009   0.000000   0.000000   0.000000  -0.096633   0.000624
    21  C    0.000002   0.000091  -0.000001   0.000000   0.004206   0.000056
    22  C   -0.003236  -0.000574  -0.000118   0.000001   0.000573  -0.000002
    23  C   -0.039301  -0.001635  -0.000062  -0.000003  -0.000031  -0.000002
    24  C    0.358715  -0.035649   0.004224   0.000134   0.000000   0.000000
    25  C    4.916025   0.379315  -0.044848  -0.004660   0.000000   0.000000
    26  C    0.379315   4.900975   0.374070  -0.049467   0.000000   0.000000
    27  C   -0.044848   0.374070   4.878029   0.374276   0.000000   0.000000
    28  C   -0.004660  -0.049467   0.374276   4.910935   0.000000   0.000000
    29  O    0.000000   0.000000   0.000000   0.000000   8.093369   0.000715
    30  F    0.000000   0.000000   0.000000   0.000000   0.000715   9.123745
    31  O    0.000000   0.000000   0.000000   0.000000   0.000012  -0.000133
    32  H    0.000000   0.000000   0.000000   0.000000   0.000000   0.000000
    33  H    0.000002  -0.000003   0.000000   0.000000   0.002614   0.001713
    34  H    0.000004  -0.000003   0.000000   0.000000   0.007657  -0.000005
    35  H    0.000006   0.000002   0.000000   0.000000   0.001642  -0.000004
    36  H   -0.001224  -0.000318   0.000009   0.000000   0.000002   0.000000
    37  H    0.004068  -0.002570   0.000207  -0.000003  -0.000008   0.000000
    38  H   -0.007622  -0.000012   0.000010   0.000000  -0.000006   0.000018
    39  H    0.004948  -0.000133   0.000003   0.000000  -0.000013   0.000000
[...]
    45  H   -0.038103   0.385693  -0.036747  -0.007257   0.000000   0.000000
    46  H    0.004905  -0.033950   0.386734  -0.040457   0.000000   0.000000
    47  H   -0.007801  -0.038475   0.389452  -0.040735   0.000000   0.000000
    48  H    0.000111   0.004637  -0.030111   0.385575   0.000000   0.000000
    49  H    0.002721  -0.005341  -0.035180   0.391564   0.000000   0.000000
    50  H   -0.000949  -0.004802  -0.037312   0.390333   0.000000   0.000000
              31         32         33         34         35         36
     1  F   -0.050954   0.000000   0.000000   0.000000   0.000000   0.000000
     2  C    0.192871   0.000000   0.000000   0.000000   0.000000   0.000000
     3  F   -0.041782   0.000000   0.000000   0.000000   0.000000   0.000000
     4  C   -0.035657  -0.000084  -0.000003   0.000000   0.000000   0.000000
     5  F   -0.001065   0.000000   0.000000   0.000000   0.000000   0.000000
     6  F    0.000726  -0.000014   0.000000   0.000000   0.000000   0.000000
     7  C   -0.027988  -0.000292  -0.000030   0.000002   0.000000   0.000000
     8  F    0.000827   0.000139   0.000001  -0.000006   0.000000   0.000000
     9  C   -0.001796   0.007799   0.000001   0.000000   0.000000   0.000000
    10  F   -0.001469  -0.000034   0.000000   0.000000   0.000000   0.000000
    11  C   -0.000025  -0.013179   0.000000   0.000000   0.000000   0.000000
    12  O    0.000000   0.282399   0.000000   0.000000   0.000000   0.000000
    13  O    0.000000   0.008576   0.000000   0.000000   0.000000   0.000000
    14  F    0.000015  -0.000157   0.000000   0.000000   0.000000   0.000000
    15  C    0.159264   0.000014   0.000583  -0.000008   0.000009   0.000000
    16  F   -0.045804   0.000000  -0.000005   0.000000   0.000000   0.000000
    17  C   -0.026002   0.000000   0.002466   0.000396  -0.000191   0.000003
    18  F   -0.000481   0.000000   0.006112  -0.000006   0.000028   0.000000
    19  C    0.002486   0.000000  -0.030533  -0.003455  -0.002866  -0.000098
    20  N   -0.000023   0.000000   0.341912  -0.039710  -0.053630   0.003763
    21  C    0.000000   0.000000  -0.031129   0.394819   0.399919  -0.032568
    22  C    0.000000   0.000000  -0.002133  -0.030545  -0.039014   0.388096
    23  C    0.000000   0.000000  -0.000262  -0.007873   0.005024  -0.037276
    24  C    0.000000   0.000000  -0.000053  -0.000033  -0.000120  -0.003137
    25  C    0.000000   0.000000   0.000002   0.000004   0.000006  -0.001224
    26  C    0.000000   0.000000  -0.000003  -0.000003   0.000002  -0.000318
    27  C    0.000000   0.000000   0.000000   0.000000   0.000000   0.000009
    28  C    0.000000   0.000000   0.000000   0.000000   0.000000   0.000000
    29  O    0.000012   0.000000   0.002614   0.007657   0.001642   0.000002
    30  F   -0.000133   0.000000   0.001713  -0.000005  -0.000004   0.000000
    31  O    8.372330   0.000000  -0.000003   0.000000   0.000000   0.000000
    32  H    0.000000   0.354528   0.000000   0.000000   0.000000   0.000000
    33  H   -0.000003   0.000000   0.413470   0.003996   0.000388  -0.000046
    34  H    0.000000   0.000000   0.003996   0.560744  -0.037216  -0.002443
    35  H    0.000000   0.000000   0.000388  -0.037216   0.610721  -0.002071
    36  H    0.000000   0.000000  -0.000046  -0.002443  -0.002071   0.600689
    37  H    0.000000   0.000000   0.004284   0.004930  -0.003824  -0.034210
    38  H    0.000000   0.000000   0.000460  -0.000410   0.000077   0.005554
    39  H    0.000000   0.000000   0.000081   0.005157   0.000093  -0.004070
    40  H    0.000000   0.000000   0.000001   0.000003  -0.000005   0.004860
    41  H    0.000000   0.000000   0.000000  -0.000010   0.000003   0.000012
    42  H    0.000000   0.000000   0.000000   0.000000   0.000000  -0.000010
    43  H    0.000000   0.000000   0.000045   0.000000   0.000002   0.000200
    44  H    0.000000   0.000000  -0.000003   0.000001  -0.000007   0.001719
    45  H    0.000000   0.000000   0.000000   0.000000   0.000000   0.000056
    46  H    0.000000   0.000000   0.000000   0.000000   0.000000  -0.000001
    47  H    0.000000   0.000000   0.000000   0.000000   0.000000   0.000001
    48  H    0.000000   0.000000   0.000000   0.000000   0.000000   0.000000
    49  H    0.000000   0.000000   0.000000   0.000000   0.000000   0.000000
    50  H    0.000000   0.000000   0.000000   0.000000   0.000000   0.000000
              37         38         39         40         41         42
     1  F    0.000000   0.000000   0.000000   0.000000   0.000000   0.000000
     2  C    0.000000   0.000000   0.000000   0.000000   0.000000   0.000000
     3  F    0.000000   0.000000   0.000000   0.000000   0.000000   0.000000
     4  C    0.000000   0.000000   0.000000   0.000000   0.000000   0.000000
     5  F    0.000000   0.000000   0.000000   0.000000   0.000000   0.000000
     6  F    0.000000   0.000000   0.000000   0.000000   0.000000   0.000000
     7  C    0.000000   0.000000   0.000000   0.000000   0.000000   0.000000
     8  F    0.000000   0.000000   0.000000   0.000000   0.000000   0.000000
     9  C    0.000000   0.000000   0.000000   0.000000   0.000000   0.000000
    10  F    0.000000   0.000000   0.000000   0.000000   0.000000   0.000000
    11  C    0.000000   0.000000   0.000000   0.000000   0.000000   0.000000
    12  O    0.000000   0.000000   0.000000   0.000000   0.000000   0.000000
    13  O    0.000000   0.000000   0.000000   0.000000   0.000000   0.000000
    14  F    0.000000   0.000000   0.000000   0.000000   0.000000   0.000000
    15  C    0.000000   0.000000   0.000000   0.000000   0.000000   0.000000
    16  F    0.000000   0.000000   0.000000   0.000000   0.000000   0.000000
    17  C   -0.000016   0.000016  -0.000001   0.000000   0.000000   0.000000
    18  F   -0.000002   0.000000   0.000000   0.000000   0.000000   0.000000
    19  C    0.000008   0.000015  -0.000007   0.000000   0.000000   0.000000
    20  N   -0.006731   0.006428  -0.000463  -0.000002   0.000004   0.000000
    21  C   -0.033774  -0.006455  -0.003973  -0.000003  -0.000158   0.000001
    22  C    0.382659  -0.040142  -0.044227  -0.007468   0.005233   0.000062
    23  C   -0.039922   0.389316   0.387515  -0.036256  -0.035023   0.003715
    24  C   -0.004493  -0.035702  -0.035338   0.388714   0.382078  -0.033434
    25  C    0.004068  -0.007622   0.004948  -0.044099  -0.035484   0.388623
    26  C   -0.002570  -0.000012  -0.000133  -0.008124   0.003919  -0.037790
    27  C    0.000207   0.000010   0.000003   0.000317  -0.000173  -0.005293
    28  C   -0.000003   0.000000   0.000000  -0.000013   0.000002   0.002964
    29  O   -0.000008  -0.000006  -0.000013   0.000000   0.000000   0.000000
    30  F    0.000000   0.000018   0.000000   0.000000   0.000000   0.000000
    31  O    0.000000   0.000000   0.000000   0.000000   0.000000   0.000000
    32  H    0.000000   0.000000   0.000000   0.000000   0.000000   0.000000
    33  H    0.004284   0.000460   0.000081   0.000001   0.000000   0.000000
    34  H    0.004930  -0.000410   0.005157   0.000003  -0.000010   0.000000
    35  H   -0.003824   0.000077   0.000093  -0.000005   0.000003   0.000000
    36  H   -0.034210   0.005554  -0.004070   0.004860   0.000012  -0.000010
    37  H    0.625269  -0.006350   0.005780  -0.000179  -0.000066  -0.000059
    38  H   -0.006350   0.623839  -0.034683   0.005439  -0.004115   0.000160
    39  H    0.005780  -0.034683   0.631602  -0.003469  -0.004751  -0.000209
    40  H   -0.000179   0.005439  -0.003469   0.630521  -0.035470   0.001611
    41  H   -0.000066  -0.004115  -0.004751  -0.035470   0.639427  -0.010413
    42  H   -0.000059   0.000160  -0.000209   0.001611  -0.010413   0.628178
    43  H    0.001335   0.004527   0.000224   0.005058   0.001903  -0.036875
    44  H    0.000839   0.000110  -0.000078   0.000745   0.000016   0.005877
    45  H    0.000064   0.000001   0.000012   0.004057   0.000130  -0.006908
    46  H   -0.000015   0.000000   0.000000  -0.000008   0.000003  -0.000059
    47  H    0.000212  -0.000005   0.000000   0.000012  -0.000001  -0.000175
    48  H    0.000000   0.000000   0.000000   0.000000   0.000000  -0.000085
    49  H    0.000000   0.000000   0.000000   0.000004   0.000007   0.000916
    50  H    0.000000   0.000000   0.000000   0.000001   0.000000   0.000549
              43         44         45         46         47         48
     1  F    0.000000   0.000000   0.000000   0.000000   0.000000   0.000000
     2  C    0.000000   0.000000   0.000000   0.000000   0.000000   0.000000
     3  F    0.000000   0.000000   0.000000   0.000000   0.000000   0.000000
     4  C    0.000000   0.000000   0.000000   0.000000   0.000000   0.000000
     5  F    0.000000   0.000000   0.000000   0.000000   0.000000   0.000000
     6  F    0.000000   0.000000   0.000000   0.000000   0.000000   0.000000
     7  C    0.000000   0.000000   0.000000   0.000000   0.000000   0.000000
     8  F    0.000000   0.000000   0.000000   0.000000   0.000000   0.000000
     9  C    0.000000   0.000000   0.000000   0.000000   0.000000   0.000000
    10  F    0.000000   0.000000   0.000000   0.000000   0.000000   0.000000
    11  C    0.000000   0.000000   0.000000   0.000000   0.000000   0.000000
    12  O    0.000000   0.000000   0.000000   0.000000   0.000000   0.000000
    13  O    0.000000   0.000000   0.000000   0.000000   0.000000   0.000000
    14  F    0.000000   0.000000   0.000000   0.000000   0.000000   0.000000
    15  C    0.000000   0.000000   0.000000   0.000000   0.000000   0.000000
    16  F    0.000000   0.000000   0.000000   0.000000   0.000000   0.000000
    17  C    0.000000   0.000000   0.000000   0.000000   0.000000   0.000000
    18  F    0.000000   0.000000   0.000000   0.000000   0.000000   0.000000
    19  C    0.000000   0.000000   0.000000   0.000000   0.000000   0.000000
    20  N   -0.000006   0.000001   0.000000   0.000000   0.000000   0.000000
    21  C   -0.000109   0.000083  -0.000004   0.000000  -0.000001   0.000000
    22  C   -0.001164   0.001099  -0.000032   0.000003  -0.000012   0.000000
    23  C   -0.007005  -0.000335   0.000094   0.000000   0.000002   0.000000
    24  C   -0.044615  -0.002422  -0.005021  -0.000156   0.000015  -0.000001
    25  C    0.389483  -0.045471  -0.038103   0.004905  -0.007801   0.000111
    26  C   -0.042447   0.388023   0.385693  -0.033950  -0.038475   0.004637
    27  C   -0.002934  -0.035194  -0.036747   0.386734   0.389452  -0.030111
    28  C   -0.001025   0.005191  -0.007257  -0.040457  -0.040735   0.385575
    29  O    0.000000   0.000000   0.000000   0.000000   0.000000   0.000000
    30  F    0.000000   0.000000   0.000000   0.000000   0.000000   0.000000
    31  O    0.000000   0.000000   0.000000   0.000000   0.000000   0.000000
    32  H    0.000000   0.000000   0.000000   0.000000   0.000000   0.000000
    33  H    0.000045  -0.000003   0.000000   0.000000   0.000000   0.000000
    34  H    0.000000   0.000001   0.000000   0.000000   0.000000   0.000000
    35  H    0.000002  -0.000007   0.000000   0.000000   0.000000   0.000000
    36  H    0.000200   0.001719   0.000056  -0.000001   0.000001   0.000000
    37  H    0.001335   0.000839   0.000064  -0.000015   0.000212   0.000000
    38  H    0.004527   0.000110   0.000001   0.000000  -0.000005   0.000000
    39  H    0.000224  -0.000078   0.000012   0.000000   0.000000   0.000000
    40  H    0.005058   0.000745   0.004057  -0.000008   0.000012   0.000000
    41  H    0.001903   0.000016   0.000130   0.000003  -0.000001   0.000000
    42  H   -0.036875   0.005877  -0.006908  -0.000059  -0.000175  -0.000085
    43  H    0.639026  -0.004047   0.005631   0.000078   0.005405  -0.000029
    44  H   -0.004047   0.640239  -0.036830  -0.004617  -0.003386  -0.000175
    45  H    0.005631  -0.036830   0.634909  -0.003258   0.005792   0.000002
    46  H    0.000078  -0.004617  -0.003258   0.639539  -0.036445  -0.004798
    47  H    0.005405  -0.003386   0.005792  -0.036445   0.639112  -0.002609
    48  H   -0.000029  -0.000175   0.000002  -0.004798  -0.002609   0.606918
    49  H    0.000684  -0.000034  -0.000133   0.005424  -0.005503  -0.030416
    50  H    0.000101   0.000047   0.005397  -0.004089   0.005474  -0.030398
              49         50
     1  F    0.000000   0.000000
     2  C    0.000000   0.000000
     3  F    0.000000   0.000000
     4  C    0.000000   0.000000
     5  F    0.000000   0.000000
     6  F    0.000000   0.000000
     7  C    0.000000   0.000000
     8  F    0.000000   0.000000
     9  C    0.000000   0.000000
    10  F    0.000000   0.000000
    11  C    0.000000   0.000000
    12  O    0.000000   0.000000
    13  O    0.000000   0.000000
    14  F    0.000000   0.000000
    15  C    0.000000   0.000000
    16  F    0.000000   0.000000
    17  C    0.000000   0.000000
    18  F    0.000000   0.000000
    19  C    0.000000   0.000000
    20  N    0.000000   0.000000
    21  C    0.000000   0.000000
    22  C    0.000000   0.000000
    23  C    0.000000   0.000000
    24  C   -0.000084  -0.000024
    25  C    0.002721  -0.000949
    26  C   -0.005341  -0.004802
    27  C   -0.035180  -0.037312
    28  C    0.391564   0.390333
    29  O    0.000000   0.000000
    30  F    0.000000   0.000000
    31  O    0.000000   0.000000
    32  H    0.000000   0.000000
    33  H    0.000000   0.000000
    34  H    0.000000   0.000000
    35  H    0.000000   0.000000
    36  H    0.000000   0.000000
    37  H    0.000000   0.000000
    38  H    0.000000   0.000000
    39  H    0.000000   0.000000
    40  H    0.000004   0.000001
    41  H    0.000007   0.000000
    42  H    0.000916   0.000549
    43  H    0.000684   0.000101
    44  H   -0.000034   0.000047
    45  H   -0.000133   0.005397
    46  H    0.005424  -0.004089
    47  H   -0.005503   0.005474
    48  H   -0.030416  -0.030398
    49  H    0.601368  -0.032075
    50  H   -0.032075   0.605203
 Mulliken charges:
               1
     1  F   -0.238816
     2  C    0.747775
     3  F   -0.247531
     4  C    0.544687
     5  F   -0.265856
     6  F   -0.246106
     7  C    0.146918
     8  F   -0.277752
     9  C    0.625542
    10  F   -0.265236
    11  C    0.524254
    12  O   -0.470438
    13  O   -0.447003
    14  F   -0.265650
    15  C    0.477436
    16  F   -0.268991
    17  C    0.535293
    18  F   -0.280934
    19  C    0.587674
    20  N   -0.556878
    21  C   -0.035069
    22  C   -0.210640
    23  C   -0.171951
    24  C   -0.188384
    25  C   -0.176122
    26  C   -0.175432
    27  C   -0.179358
    28  C   -0.317352
    29  O   -0.503213
    30  F   -0.271328
    31  O   -0.495350
    32  H    0.360306
    33  H    0.286073
    34  H    0.144013
    35  H    0.121034
    36  H    0.112510
    37  H    0.102566
    38  H    0.099529
    39  H    0.095997
    40  H    0.093750
    41  H    0.092927
    42  H    0.098654
    43  H    0.086554
    44  H    0.088608
    45  H    0.092454
    46  H    0.091166
    47  H    0.089669
    48  H    0.101378
    49  H    0.106078
    50  H    0.102544
 Sum of Mulliken charges =   0.00000
 Mulliken charges with hydrogens summed into heavy atoms:
               1
     1  F   -0.238816
     2  C    0.747775
     3  F   -0.247531
     4  C    0.544687
     5  F   -0.265856
     6  F   -0.246106
     7  C    0.146918
     8  F   -0.277752
     9  C    0.625542
    10  F   -0.265236
    11  C    0.524254
    12  O   -0.110132
    13  O   -0.447003
    14  F   -0.265650
    15  C    0.477436
    16  F   -0.268991
    17  C    0.535293
    18  F   -0.280934
    19  C    0.587674
    20  N   -0.270805
    21  C    0.229978
    22  C    0.004436
    23  C    0.023575
    24  C   -0.001706
    25  C    0.009085
    26  C    0.005629
    27  C    0.001477
    28  C   -0.007352
    29  O   -0.503213
    30  F   -0.271328
    31  O   -0.495350
 Electronic spatial extent (au):  <R**2>=          21954.5262
 Charge=              0.0000 electrons
 Dipole moment (field-independent basis, Debye):
    X=              4.7735    Y=             -1.9578    Z=              0.2937  Tot=              5.1677
 Quadrupole moment (field-independent basis, Debye-Ang):
   XX=           -192.0699   YY=           -167.9569   ZZ=           -179.0043
   XY=             14.4818   XZ=             -0.9348   YZ=              4.5864
 Traceless Quadrupole moment (field-independent basis, Debye-Ang):
   XX=            -12.3929   YY=             11.7201   ZZ=              0.6727
   XY=             14.4818   XZ=             -0.9348   YZ=              4.5864
 Octapole moment (field-independent basis, Debye-Ang**2):
  XXX=           1069.6973  YYY=           -112.1092  ZZZ=             38.5482  XYY=            258.5153
  XXY=            -89.9676  XXZ=            -10.8511  XZZ=            297.8771  YZZ=            -37.5324
  YYZ=            -10.9466  XYZ=            -27.8013
 Hexadecapole moment (field-independent basis, Debye-Ang**3):
 XXXX=         -23504.5267 YYYY=          -1591.9089 ZZZZ=          -2281.0385 XXXY=            287.3397
 XXXZ=           -932.0078 YYYX=            325.9275 YYYZ=           -124.6718 ZZZX=           -967.5176
 ZZZY=           -175.2430 XXYY=          -3689.4808 XXZZ=          -3952.6735 YYZZ=           -616.3169
 XXYZ=            101.4513 YYXZ=           -184.2137 ZZXY=            114.2149
 N-N= 3.770228740138D+03 E-N=-1.219237929729D+04  KE= 1.959626116499D+03
 No NMR shielding tensors so no spin-rotation constants.
 Leave Link  601 at Mon Feb  3 22:00:22 2025, MaxMem=  5368709120 cpu:         3.6
 (Enter /home/k0335/k033513/app/g09/l9999.exe)
 1\1\GINC-C15U05N1\SP\RCAM-B3LYP\6-31G(d,p)\C16H19F10N1O4\K033513\03-Fe
 b-2025\0\\#p CAM-B3LYP/6-31G(d,p) SCRF=(PCM,Solvent=Generic,Read) NoSy
 mm out=wfn\\Title OA2_neu\\0,1\F,0,-6.632856,1.283116,0.903111\C,0,-5.
 408012,1.005316,1.391082\F,0,-5.460372,1.177359,2.726538\C,0,-4.92527,
 -0.368919,0.989347\F,0,-3.914027,-0.749656,1.821412\F,0,-5.84339,-1.34
 3715,1.060512\C,0,-4.358631,-0.138845,-0.381258\F,0,-3.397581,-1.07195
 1,-0.627145\C,0,-5.388245,-0.179263,-1.49835\F,0,-6.297595,0.819133,-1
 .332026\C,0,-6.085204,-1.537655,-1.58481\O,0,-5.305798,-2.534185,-2.05
 4668\O,0,-7.241233,-1.776733,-1.267002\F,0,-4.770782,0.102202,-2.68401
 7\C,0,-3.771021,1.266462,-0.213291\F,0,-3.969874,2.020456,-1.326602\C,
 0,-2.267788,1.289372,0.124871\F,0,-1.901697,2.56926,0.45901\C,0,-1.385
 593,0.801237,-1.036272\N,0,-0.028885,0.786306,-0.735712\C,0,0.958362,0
 .484726,-1.75249\C,0,2.310042,0.109407,-1.148799\C,0,2.254006,-1.21030
 5,-0.376608\C,0,3.621185,-1.720319,0.09378\C,0,4.320733,-0.816382,1.11
 601\C,0,5.37492,0.095268,0.479597\C,0,5.980111,1.098486,1.464701\C,0,6
 .772685,0.447405,2.587542\O,0,-1.823408,0.457857,-2.130843\F,0,-2.0327
 08,0.566704,1.259016\O,0,-4.507729,1.952318,0.83354\H,0,-5.887195,-3.3
 24477,-2.088056\H,0,0.269555,1.3151,0.078592\H,0,0.583754,-0.317182,-2
 .398431\H,0,1.064528,1.383549,-2.370095\H,0,3.042766,0.024339,-1.95985
 8\H,0,2.642882,0.915675,-0.48551\H,0,1.591622,-1.106054,0.491423\H,0,1
 .808455,-1.9814,-1.01771\H,0,4.2706,-1.909327,-0.769216\H,0,3.450948,-
 2.695438,0.568491\H,0,4.82185,-1.463919,1.845647\H,0,3.5855,-0.224891,
 1.673853\H,0,4.933694,0.65938,-0.348216\H,0,6.17449,-0.518071,0.045968
 \H,0,6.64819,1.768633,0.910517\H,0,5.188156,1.724203,1.892484\H,0,7.25
 8896,1.215296,3.197867\H,0,6.126251,-0.138605,3.247333\H,0,7.55071,-0.
 211276,2.189029\\Version=ES64L-G09RevD.01\HF=-1974.5255269\RMSD=7.091e
 -09\Dipole=1.8780243,-0.7702446,0.1155461\Quadrupole=-9.2137879,8.7136
 306,0.5001573,10.7668944,-0.6950304,3.4098457\PG=C01 [X(C16H19F10N1O4)
 ]\\@

 Writing a WFN file to "cytop/OA2/OA2_neu.wfn"


 SUCCESS IS COUNTED SWEETEST
 BY THOSE WHO NE'ER SUCCEED.
 TO COMPREHEND NECTAR
 REQUIRES SOREST NEED.
           EMILY DICKINSON
 Job cpu time:       0 days  0 hours 17 minutes 60.0 seconds.
 File lengths (MBytes):  RWF=    387 Int=      0 D2E=      0 Chk=     13 Scr=      1
 Normal termination of Gaussian 09 at Mon Feb  3 22:00:23 2025.
