 Entering Gaussian System, Link 0=g09
 Initial command:
 /home/k0335/k033513/app/g09/l1.exe "/home/k0335/k033513/app/g09/scratch/Gau-652302.inp" -scrdir="/home/k0335/k033513/app/g09/scratch/"
 Default is to use a total of  36 processors:
                               36 via shared-memory
                                1 via Linda
 Entering Link 1 = /home/k0335/k033513/app/g09/l1.exe PID=    652303.
  
 Copyright (c) 1988,1990,1992,1993,1995,1998,2003,2009,2013,
            Gaussian, Inc.  All Rights Reserved.
  
 This is part of the Gaussian(R) 09 program.  It is based on
 the Gaussian(R) 03 system (copyright 2003, Gaussian, Inc.),
 the Gaussian(R) 98 system (copyright 1998, Gaussian, Inc.),
 the Gaussian(R) 94 system (copyright 1995, Gaussian, Inc.),
 the Gaussian 92(TM) system (copyright 1992, Gaussian, Inc.),
 the Gaussian 90(TM) system (copyright 1990, Gaussian, Inc.),
 the Gaussian 88(TM) system (copyright 1988, Gaussian, Inc.),
 the Gaussian 86(TM) system (copyright 1986, Carnegie Mellon
 University), and the Gaussian 82(TM) system (copyright 1983,
 Carnegie Mellon University). Gaussian is a federally registered
 trademark of Gaussian, Inc.
  
 This software contains proprietary and confidential information,
 including trade secrets, belonging to Gaussian, Inc.
  
 This software is provided under written license and may be
 used, copied, transmitted, or stored only in accord with that
 written license.
  
 The following legend is applicable only to US Government
 contracts under FAR:
  
                    RESTRICTED RIGHTS LEGEND
  
 Use, reproduction and disclosure by the US Government is
 subject to restrictions as set forth in subparagraphs (a)
 and (c) of the Commercial Computer Software - Restricted
 Rights clause in FAR 52.227-19.
  
 Gaussian, Inc.
 340 Quinnipiac St., Bldg. 40, Wallingford CT 06492
  
  
 ---------------------------------------------------------------
 Warning -- This program may not be used in any manner that
 competes with the business of Gaussian, Inc. or will provide
 assistance to any competitor of Gaussian, Inc.  The licensee
 of this program is prohibited from giving any competitor of
 Gaussian, Inc. access to this program.  By using this program,
 the user acknowledges that Gaussian, Inc. is engaged in the
 business of creating and licensing software in the field of
 computational chemistry and represents and warrants to the
 licensee that it is not a competitor of Gaussian, Inc. and that
 it will not use this program in any manner prohibited above.
 ---------------------------------------------------------------
  

 Cite this work as:
 Gaussian 09, Revision D.01,
 M. J. Frisch, G. W. Trucks, H. B. Schlegel, G. E. Scuseria, 
 M. A. Robb, J. R. Cheeseman, G. Scalmani, V. Barone, B. Mennucci, 
 G. A. Petersson, H. Nakatsuji, M. Caricato, X. Li, H. P. Hratchian, 
 A. F. Izmaylov, J. Bloino, G. Zheng, J. L. Sonnenberg, M. Hada, 
 M. Ehara, K. Toyota, R. Fukuda, J. Hasegawa, M. Ishida, T. Nakajima, 
 Y. Honda, O. Kitao, H. Nakai, T. Vreven, J. A. Montgomery, Jr., 
 J. E. Peralta, F. Ogliaro, M. Bearpark, J. J. Heyd, E. Brothers, 
 K. N. Kudin, V. N. Staroverov, T. Keith, R. Kobayashi, J. Normand, 
 K. Raghavachari, A. Rendell, J. C. Burant, S. S. Iyengar, J. Tomasi, 
 M. Cossi, N. Rega, J. M. Millam, M. Klene, J. E. Knox, J. B. Cross, 
 V. Bakken, C. Adamo, J. Jaramillo, R. Gomperts, R. E. Stratmann, 
 O. Yazyev, A. J. Austin, R. Cammi, C. Pomelli, J. W. Ochterski, 
 R. L. Martin, K. Morokuma, V. G. Zakrzewski, G. A. Voth, 
 P. Salvador, J. J. Dannenberg, S. Dapprich, A. D. Daniels, 
 O. Farkas, J. B. Foresman, J. V. Ortiz, J. Cioslowski, 
 and D. J. Fox, Gaussian, Inc., Wallingford CT, 2013.
 
 ******************************************
 Gaussian 09:  ES64L-G09RevD.01 24-Apr-2013
                 5-Feb-2025 
 ******************************************
 %nprocshared=24
 Will use up to   24 processors via shared memory.
 %mem=40GB
 %rwf=cytopopt/AEP1/AEP1_neu.rwf
 %nosave
 %chk=cytopopt/AEP1/AEP1_neu.chk
 ----------------------------------------------------------------------
 #p CAM-B3LYP/6-31G(d,p) opt SCRF=(PCM,Solvent=Generic,Read) NoSymm out
 =wfn
 ----------------------------------------------------------------------
 1/14=-1,18=20,19=15,26=3,38=1,40=2/1,3;
 2/9=110,12=2,15=1,17=6,18=5,40=1/2;
 3/5=1,6=6,7=101,11=2,16=1,25=1,30=1,70=2203,71=1,72=-2,74=-40/1,2,3;
 4//1;
 5/5=2,38=5/2;
 6/7=2,8=2,9=2,10=2,28=1/1;
 7/30=1/1,2,3,16;
 1/14=-1,18=20,19=15,26=3/3(2);
 2/9=110,15=1/2;
 99/6=100/99;
 2/9=110,15=1/2;
 3/5=1,6=6,7=101,11=2,16=1,25=1,30=1,70=2205,71=1,72=-2,74=-40/1,2,3;
 4/5=5,16=3,69=1/1;
 5/5=2,38=5/2;
 7/30=1/1,2,3,16;
 1/14=-1,18=20,19=15,26=3/3(-5);
 2/9=110,15=1/2;
 6/7=2,8=2,9=2,10=2,19=2,28=1/1;
 99/6=100,9=1/99;
 Leave Link    1 at Wed Feb  5 05:32:50 2025, MaxMem=  5368709120 cpu:         1.3
 (Enter /home/k0335/k033513/app/g09/l101.exe)
 --------------
 Title AEP1_neu
 --------------
 Symbolic Z-matrix:
 Charge =  0 Multiplicity = 1
 F                    -4.48884   3.13637  -0.82529 
 C                    -3.74409   2.23398  -1.49978 
 F                    -3.35793   2.81684  -2.6506 
 C                    -4.49915   0.93273  -1.70436 
 F                    -3.96811   0.25275  -2.76056 
 F                    -5.80706   1.07379  -1.97514 
 C                    -4.19427   0.18887  -0.43183 
 F                    -4.32277  -1.15566  -0.62614 
 C                    -5.06235   0.59266   0.74617 
 F                    -4.70016  -0.15474   1.8305 
 C                    -6.54533   0.37099   0.44613 
 O                    -7.25002   1.5175    0.32307 
 O                    -7.10556  -0.70357   0.29559 
 F                    -4.79826   1.87774   1.10078 
 C                    -2.72068   0.57812  -0.30062 
 F                    -2.03693  -0.10834  -1.27247 
 C                    -2.06068   0.25882   1.04345 
 F                    -2.59007   1.03246   2.02954 
 C                    -0.53898   0.44627   0.94261 
 N                     0.19064  -0.73019   1.03081 
 C                     1.6388   -0.74985   0.91711 
 C                     2.10682  -0.71372  -0.55228 
 N                     3.55645  -0.71455  -0.7781 
 C                     4.21639  -1.96531  -0.40295 
 C                     5.73336  -1.8478   -0.53809 
 C                     6.30246  -0.76187   0.37508 
 C                     5.25054   0.26551   0.78868 
 C                     4.23075   0.50634  -0.32287 
 O                     0.00033   1.54166   0.80249 
 F                    -2.35813  -1.03565   1.38098 
 O                    -2.60209   1.95826  -0.69376 
 H                    -8.17267   1.23731   0.13545 
 H                    -0.30598  -1.6089    1.14745 
 H                     1.9732   -1.66718   1.41136 
 H                     2.03897   0.10364   1.47473 
 H                     1.6672   -1.56945  -1.08241 
 H                     1.6768    0.16628  -1.04904 
 H                     3.86363  -2.77118  -1.05732 
 H                     3.97971  -2.25698   0.62677 
 H                     5.98779  -1.61638  -1.58062 
 H                     6.20978  -2.80902  -0.31196 
 H                     7.1316   -0.26267  -0.14054 
 H                     6.73031  -1.21558   1.27703 
 H                     5.74239   1.20609   1.0618 
 H                     4.73089  -0.08662   1.68902 
 H                     4.75398   0.93533  -1.18712 
 H                     3.51729   1.27489  -0.00176 
 
 NAtoms=     47 NQM=       47 NQMF=       0 NMMI=      0 NMMIF=      0
                NMic=       0 NMicF=      0.
                    Isotopes and Nuclear Properties:
 (Nuclear quadrupole moments (NQMom) in fm**2, nuclear magnetic moments (NMagM)
  in nuclear magnetons)

  Atom         1           2           3           4           5           6           7           8           9          10
 IAtWgt=          19          12          19          12          19          19          12          19          12          19
 AtmWgt=  18.9984033  12.0000000  18.9984033  12.0000000  18.9984033  18.9984033  12.0000000  18.9984033  12.0000000  18.9984033
 NucSpn=           1           0           1           0           1           1           0           1           0           1
 AtZEff=   0.0000000   0.0000000   0.0000000   0.0000000   0.0000000   0.0000000   0.0000000   0.0000000   0.0000000   0.0000000
 NQMom=    0.0000000   0.0000000   0.0000000   0.0000000   0.0000000   0.0000000   0.0000000   0.0000000   0.0000000   0.0000000
 NMagM=    2.6288670   0.0000000   2.6288670   0.0000000   2.6288670   2.6288670   0.0000000   2.6288670   0.0000000   2.6288670
 AtZNuc=   9.0000000   6.0000000   9.0000000   6.0000000   9.0000000   9.0000000   6.0000000   9.0000000   6.0000000   9.0000000

  Atom        11          12          13          14          15          16          17          18          19          20
 IAtWgt=          12          16          16          19          12          19          12          19          12          14
 AtmWgt=  12.0000000  15.9949146  15.9949146  18.9984033  12.0000000  18.9984033  12.0000000  18.9984033  12.0000000  14.0030740
 NucSpn=           0           0           0           1           0           1           0           1           0           2
 AtZEff=   0.0000000   0.0000000   0.0000000   0.0000000   0.0000000   0.0000000   0.0000000   0.0000000   0.0000000   0.0000000
 NQMom=    0.0000000   0.0000000   0.0000000   0.0000000   0.0000000   0.0000000   0.0000000   0.0000000   0.0000000   2.0440000
 NMagM=    0.0000000   0.0000000   0.0000000   2.6288670   0.0000000   2.6288670   0.0000000   2.6288670   0.0000000   0.4037610
 AtZNuc=   6.0000000   8.0000000   8.0000000   9.0000000   6.0000000   9.0000000   6.0000000   9.0000000   6.0000000   7.0000000

  Atom        21          22          23          24          25          26          27          28          29          30
 IAtWgt=          12          12          14          12          12          12          12          12          16          19
 AtmWgt=  12.0000000  12.0000000  14.0030740  12.0000000  12.0000000  12.0000000  12.0000000  12.0000000  15.9949146  18.9984033
 NucSpn=           0           0           2           0           0           0           0           0           0           1
 AtZEff=   0.0000000   0.0000000   0.0000000   0.0000000   0.0000000   0.0000000   0.0000000   0.0000000   0.0000000   0.0000000
 NQMom=    0.0000000   0.0000000   2.0440000   0.0000000   0.0000000   0.0000000   0.0000000   0.0000000   0.0000000   0.0000000
 NMagM=    0.0000000   0.0000000   0.4037610   0.0000000   0.0000000   0.0000000   0.0000000   0.0000000   0.0000000   2.6288670
 AtZNuc=   6.0000000   6.0000000   7.0000000   6.0000000   6.0000000   6.0000000   6.0000000   6.0000000   8.0000000   9.0000000

  Atom        31          32          33          34          35          36          37          38          39          40
 IAtWgt=          16           1           1           1           1           1           1           1           1           1
 AtmWgt=  15.9949146   1.0078250   1.0078250   1.0078250   1.0078250   1.0078250   1.0078250   1.0078250   1.0078250   1.0078250
 NucSpn=           0           1           1           1           1           1           1           1           1           1
 AtZEff=   0.0000000   0.0000000   0.0000000   0.0000000   0.0000000   0.0000000   0.0000000   0.0000000   0.0000000   0.0000000
 NQMom=    0.0000000   0.0000000   0.0000000   0.0000000   0.0000000   0.0000000   0.0000000   0.0000000   0.0000000   0.0000000
 NMagM=    0.0000000   2.7928460   2.7928460   2.7928460   2.7928460   2.7928460   2.7928460   2.7928460   2.7928460   2.7928460
 AtZNuc=   8.0000000   1.0000000   1.0000000   1.0000000   1.0000000   1.0000000   1.0000000   1.0000000   1.0000000   1.0000000

  Atom        41          42          43          44          45          46          47
 IAtWgt=           1           1           1           1           1           1           1
 AtmWgt=   1.0078250   1.0078250   1.0078250   1.0078250   1.0078250   1.0078250   1.0078250
 NucSpn=           1           1           1           1           1           1           1
 AtZEff=   0.0000000   0.0000000   0.0000000   0.0000000   0.0000000   0.0000000   0.0000000
 NQMom=    0.0000000   0.0000000   0.0000000   0.0000000   0.0000000   0.0000000   0.0000000
 NMagM=    2.7928460   2.7928460   2.7928460   2.7928460   2.7928460   2.7928460   2.7928460
 AtZNuc=   1.0000000   1.0000000   1.0000000   1.0000000   1.0000000   1.0000000   1.0000000
 Leave Link  101 at Wed Feb  5 05:32:50 2025, MaxMem=  5368709120 cpu:         3.1
 (Enter /home/k0335/k033513/app/g09/l103.exe)

 GradGradGradGradGradGradGradGradGradGradGradGradGradGradGradGradGradGrad
 Berny optimization.
 Initialization pass.
                           ----------------------------
                           !    Initial Parameters    !
                           ! (Angstroms and Degrees)  !
 --------------------------                            --------------------------
 ! Name  Definition              Value          Derivative Info.                !
 --------------------------------------------------------------------------------
 ! R1    R(1,2)                  1.3505         estimate D2E/DX2                !
 ! R2    R(2,3)                  1.3466         estimate D2E/DX2                !
 ! R3    R(2,4)                  1.5183         estimate D2E/DX2                !
 ! R4    R(2,31)                 1.4247         estimate D2E/DX2                !
 ! R5    R(4,5)                  1.3638         estimate D2E/DX2                !
 ! R6    R(4,6)                  1.3431         estimate D2E/DX2                !
 ! R7    R(4,7)                  1.5052         estimate D2E/DX2                !
 ! R8    R(7,8)                  1.3646         estimate D2E/DX2                !
 ! R9    R(7,9)                  1.518          estimate D2E/DX2                !
 ! R10   R(7,15)                 1.5298         estimate D2E/DX2                !
 ! R11   R(9,10)                 1.3659         estimate D2E/DX2                !
 ! R12   R(9,11)                 1.5292         estimate D2E/DX2                !
 ! R13   R(9,14)                 1.359          estimate D2E/DX2                !
 ! R14   R(11,12)                1.3514         estimate D2E/DX2                !
 ! R15   R(11,13)                1.2211         estimate D2E/DX2                !
 ! R16   R(12,32)                0.9823         estimate D2E/DX2                !
 ! R17   R(15,16)                1.3723         estimate D2E/DX2                !
 ! R18   R(15,17)                1.531          estimate D2E/DX2                !
 ! R19   R(15,31)                1.4399         estimate D2E/DX2                !
 ! R20   R(17,18)                1.3606         estimate D2E/DX2                !
 ! R21   R(17,19)                1.5365         estimate D2E/DX2                !
 ! R22   R(17,30)                1.3704         estimate D2E/DX2                !
 ! R23   R(19,20)                1.3872         estimate D2E/DX2                !
 ! R24   R(19,29)                1.229          estimate D2E/DX2                !
 ! R25   R(20,21)                1.4528         estimate D2E/DX2                !
 ! R26   R(20,33)                1.016          estimate D2E/DX2                !
 ! R27   R(21,22)                1.5425         estimate D2E/DX2                !
 ! R28   R(21,34)                1.0943         estimate D2E/DX2                !
 ! R29   R(21,35)                1.0952         estimate D2E/DX2                !
 ! R30   R(22,23)                1.4671         estimate D2E/DX2                !
 ! R31   R(22,36)                1.0984         estimate D2E/DX2                !
 ! R32   R(22,37)                1.0982         estimate D2E/DX2                !
 ! R33   R(23,24)                1.4631         estimate D2E/DX2                !
 ! R34   R(23,28)                1.4671         estimate D2E/DX2                !
 ! R35   R(24,25)                1.5275         estimate D2E/DX2                !
 ! R36   R(24,38)                1.0964         estimate D2E/DX2                !
 ! R37   R(24,39)                1.0961         estimate D2E/DX2                !
 ! R38   R(25,26)                1.5287         estimate D2E/DX2                !
 ! R39   R(25,40)                1.0978         estimate D2E/DX2                !
 ! R40   R(25,41)                1.0964         estimate D2E/DX2                !
 ! R41   R(26,27)                1.5274         estimate D2E/DX2                !
 ! R42   R(26,42)                1.0966         estimate D2E/DX2                !
 ! R43   R(26,43)                1.0966         estimate D2E/DX2                !
 ! R44   R(27,28)                1.5276         estimate D2E/DX2                !
 ! R45   R(27,44)                1.096          estimate D2E/DX2                !
 ! R46   R(27,45)                1.0976         estimate D2E/DX2                !
 ! R47   R(28,46)                1.0976         estimate D2E/DX2                !
 ! R48   R(28,47)                1.0967         estimate D2E/DX2                !
 ! A1    A(1,2,3)              107.2022         estimate D2E/DX2                !
 ! A2    A(1,2,4)              111.4517         estimate D2E/DX2                !
 ! A3    A(1,2,31)             106.7855         estimate D2E/DX2                !
 ! A4    A(3,2,4)              113.4801         estimate D2E/DX2                !
 ! A5    A(3,2,31)             109.718          estimate D2E/DX2                !
 ! A6    A(4,2,31)             107.9989         estimate D2E/DX2                !
 ! A7    A(2,4,5)              109.7565         estimate D2E/DX2                !
 ! A8    A(2,4,6)              114.9255         estimate D2E/DX2                !
 ! A9    A(2,4,7)              102.0575         estimate D2E/DX2                !
 ! A10   A(5,4,6)              105.9871         estimate D2E/DX2                !
 ! A11   A(5,4,7)              109.2369         estimate D2E/DX2                !
 ! A12   A(6,4,7)              114.8096         estimate D2E/DX2                !
 ! A13   A(4,7,8)              110.3333         estimate D2E/DX2                !
 ! A14   A(4,7,9)              114.1284         estimate D2E/DX2                !
 ! A15   A(4,7,15)              98.1569         estimate D2E/DX2                !
 ! A16   A(8,7,9)              108.5871         estimate D2E/DX2                !
 ! A17   A(8,7,15)             110.7099         estimate D2E/DX2                !
 ! A18   A(9,7,15)             114.621          estimate D2E/DX2                !
 ! A19   A(7,9,10)             108.5951         estimate D2E/DX2                !
 ! A20   A(7,9,11)             111.3317         estimate D2E/DX2                !
 ! A21   A(7,9,14)             110.0533         estimate D2E/DX2                !
 ! A22   A(10,9,11)            109.488          estimate D2E/DX2                !
 ! A23   A(10,9,14)            104.9957         estimate D2E/DX2                !
 ! A24   A(11,9,14)            112.1307         estimate D2E/DX2                !
 ! A25   A(9,11,12)            113.6153         estimate D2E/DX2                !
 ! A26   A(9,11,13)            126.6311         estimate D2E/DX2                !
 ! A27   A(12,11,13)           119.7421         estimate D2E/DX2                !
 ! A28   A(11,12,32)           105.378          estimate D2E/DX2                !
 ! A29   A(7,15,16)            106.9731         estimate D2E/DX2                !
 ! A30   A(7,15,17)            115.9433         estimate D2E/DX2                !
 ! A31   A(7,15,31)            107.4457         estimate D2E/DX2                !
 ! A32   A(16,15,17)           107.6135         estimate D2E/DX2                !
 ! A33   A(16,15,31)           104.1851         estimate D2E/DX2                !
 ! A34   A(17,15,31)           113.8334         estimate D2E/DX2                !
 ! A35   A(15,17,18)           110.4837         estimate D2E/DX2                !
 ! A36   A(15,17,19)           110.1127         estimate D2E/DX2                !
 ! A37   A(15,17,30)           108.6418         estimate D2E/DX2                !
 ! A38   A(18,17,19)           111.3171         estimate D2E/DX2                !
 ! A39   A(18,17,30)           105.9112         estimate D2E/DX2                !
 ! A40   A(19,17,30)           110.2646         estimate D2E/DX2                !
 ! A41   A(17,19,20)           114.4102         estimate D2E/DX2                !
 ! A42   A(17,19,29)           123.4231         estimate D2E/DX2                !
 ! A43   A(20,19,29)           122.1657         estimate D2E/DX2                !
 ! A44   A(19,20,21)           122.0609         estimate D2E/DX2                !
 ! A45   A(19,20,33)           118.9264         estimate D2E/DX2                !
 ! A46   A(21,20,33)           118.9804         estimate D2E/DX2                !
 ! A47   A(20,21,22)           112.1285         estimate D2E/DX2                !
 ! A48   A(20,21,34)           106.2958         estimate D2E/DX2                !
 ! A49   A(20,21,35)           108.2897         estimate D2E/DX2                !
 ! A50   A(22,21,34)           110.9249         estimate D2E/DX2                !
 ! A51   A(22,21,35)           110.8473         estimate D2E/DX2                !
 ! A52   A(34,21,35)           108.1582         estimate D2E/DX2                !
 ! A53   A(21,22,23)           116.5129         estimate D2E/DX2                !
 ! A54   A(21,22,36)           108.6665         estimate D2E/DX2                !
 ! A55   A(21,22,37)           109.3206         estimate D2E/DX2                !
 ! A56   A(23,22,36)           108.7063         estimate D2E/DX2                !
 ! A57   A(23,22,37)           108.5251         estimate D2E/DX2                !
 ! A58   A(36,22,37)           104.4315         estimate D2E/DX2                !
 ! A59   A(22,23,24)           113.9976         estimate D2E/DX2                !
 ! A60   A(22,23,28)           113.9474         estimate D2E/DX2                !
 ! A61   A(24,23,28)           115.1204         estimate D2E/DX2                !
 ! A62   A(23,24,25)           111.0694         estimate D2E/DX2                !
 ! A63   A(23,24,38)           109.2802         estimate D2E/DX2                !
 ! A64   A(23,24,39)           111.7749         estimate D2E/DX2                !
 ! A65   A(25,24,38)           108.8613         estimate D2E/DX2                !
 ! A66   A(25,24,39)           108.5436         estimate D2E/DX2                !
 ! A67   A(38,24,39)           107.1954         estimate D2E/DX2                !
 ! A68   A(24,25,26)           111.8084         estimate D2E/DX2                !
 ! A69   A(24,25,40)           109.2928         estimate D2E/DX2                !
 ! A70   A(24,25,41)           110.234          estimate D2E/DX2                !
 ! A71   A(26,25,40)           109.3439         estimate D2E/DX2                !
 ! A72   A(26,25,41)           109.7438         estimate D2E/DX2                !
 ! A73   A(40,25,41)           106.2585         estimate D2E/DX2                !
 ! A74   A(25,26,27)           112.5302         estimate D2E/DX2                !
 ! A75   A(25,26,42)           108.9038         estimate D2E/DX2                !
 ! A76   A(25,26,43)           110.0394         estimate D2E/DX2                !
 ! A77   A(27,26,42)           109.9893         estimate D2E/DX2                !
 ! A78   A(27,26,43)           108.9218         estimate D2E/DX2                !
 ! A79   A(42,26,43)           106.2649         estimate D2E/DX2                !
 ! A80   A(26,27,28)           111.6383         estimate D2E/DX2                !
 ! A81   A(26,27,44)           109.6125         estimate D2E/DX2                !
 ! A82   A(26,27,45)           109.4139         estimate D2E/DX2                !
 ! A83   A(28,27,44)           110.2198         estimate D2E/DX2                !
 ! A84   A(28,27,45)           109.3537         estimate D2E/DX2                !
 ! A85   A(44,27,45)           106.4634         estimate D2E/DX2                !
 ! A86   A(23,28,27)           113.6664         estimate D2E/DX2                !
 ! A87   A(23,28,46)           107.459          estimate D2E/DX2                !
 ! A88   A(23,28,47)           112.0249         estimate D2E/DX2                !
 ! A89   A(27,28,46)           108.4412         estimate D2E/DX2                !
 ! A90   A(27,28,47)           109.3727         estimate D2E/DX2                !
 ! A91   A(46,28,47)           105.472          estimate D2E/DX2                !
 ! A92   A(2,31,15)            105.8981         estimate D2E/DX2                !
 ! D1    D(1,2,4,5)            157.8062         estimate D2E/DX2                !
 ! D2    D(1,2,4,6)             38.4907         estimate D2E/DX2                !
 ! D3    D(1,2,4,7)            -86.4276         estimate D2E/DX2                !
 ! D4    D(3,2,4,5)             36.666          estimate D2E/DX2                !
 ! D5    D(3,2,4,6)            -82.6495         estimate D2E/DX2                !
 ! D6    D(3,2,4,7)            152.4321         estimate D2E/DX2                !
 ! D7    D(31,2,4,5)           -85.1986         estimate D2E/DX2                !
 ! D8    D(31,2,4,6)           155.4859         estimate D2E/DX2                !
 ! D9    D(31,2,4,7)            30.5675         estimate D2E/DX2                !
 ! D10   D(1,2,31,15)          114.3436         estimate D2E/DX2                !
 ! D11   D(3,2,31,15)         -129.791          estimate D2E/DX2                !
 ! D12   D(4,2,31,15)           -5.6333         estimate D2E/DX2                !
 ! D13   D(2,4,7,8)           -156.0266         estimate D2E/DX2                !
 ! D14   D(2,4,7,9)             81.3948         estimate D2E/DX2                !
 ! D15   D(2,4,7,15)           -40.2981         estimate D2E/DX2                !
 ! D16   D(5,4,7,8)            -39.8825         estimate D2E/DX2                !
 ! D17   D(5,4,7,9)           -162.4612         estimate D2E/DX2                !
 ! D18   D(5,4,7,15)            75.846          estimate D2E/DX2                !
 ! D19   D(6,4,7,8)             78.9782         estimate D2E/DX2                !
 ! D20   D(6,4,7,9)            -43.6005         estimate D2E/DX2                !
 ! D21   D(6,4,7,15)          -165.2933         estimate D2E/DX2                !
 ! D22   D(4,7,9,10)           179.4932         estimate D2E/DX2                !
 ! D23   D(4,7,9,11)            58.8786         estimate D2E/DX2                !
 ! D24   D(4,7,9,14)           -66.0865         estimate D2E/DX2                !
 ! D25   D(8,7,9,10)            55.9664         estimate D2E/DX2                !
 ! D26   D(8,7,9,11)           -64.6482         estimate D2E/DX2                !
 ! D27   D(8,7,9,14)           170.3867         estimate D2E/DX2                !
 ! D28   D(15,7,9,10)          -68.4029         estimate D2E/DX2                !
 ! D29   D(15,7,9,11)          170.9825         estimate D2E/DX2                !
 ! D30   D(15,7,9,14)           46.0174         estimate D2E/DX2                !
 ! D31   D(4,7,15,16)          -72.0354         estimate D2E/DX2                !
 ! D32   D(4,7,15,17)          167.9433         estimate D2E/DX2                !
 ! D33   D(4,7,15,31)           39.3405         estimate D2E/DX2                !
 ! D34   D(8,7,15,16)           43.3986         estimate D2E/DX2                !
 ! D35   D(8,7,15,17)          -76.6226         estimate D2E/DX2                !
 ! D36   D(8,7,15,31)          154.7746         estimate D2E/DX2                !
 ! D37   D(9,7,15,16)          166.6358         estimate D2E/DX2                !
 ! D38   D(9,7,15,17)           46.6145         estimate D2E/DX2                !
 ! D39   D(9,7,15,31)          -81.9883         estimate D2E/DX2                !
 ! D40   D(7,9,11,12)         -111.1172         estimate D2E/DX2                !
 ! D41   D(7,9,11,13)           67.6357         estimate D2E/DX2                !
 ! D42   D(10,9,11,12)         128.7945         estimate D2E/DX2                !
 ! D43   D(10,9,11,13)         -52.4525         estimate D2E/DX2                !
 ! D44   D(14,9,11,12)          12.6767         estimate D2E/DX2                !
 ! D45   D(14,9,11,13)        -168.5703         estimate D2E/DX2                !
 ! D46   D(9,11,12,32)        -179.9249         estimate D2E/DX2                !
 ! D47   D(13,11,12,32)          1.2276         estimate D2E/DX2                !
 ! D48   D(7,15,17,18)         -67.5973         estimate D2E/DX2                !
 ! D49   D(7,15,17,19)         169.0312         estimate D2E/DX2                !
 ! D50   D(7,15,17,30)          48.1801         estimate D2E/DX2                !
 ! D51   D(16,15,17,18)        172.7289         estimate D2E/DX2                !
 ! D52   D(16,15,17,19)         49.3574         estimate D2E/DX2                !
 ! D53   D(16,15,17,30)        -71.4937         estimate D2E/DX2                !
 ! D54   D(31,15,17,18)         57.8108         estimate D2E/DX2                !
 ! D55   D(31,15,17,19)        -65.5607         estimate D2E/DX2                !
 ! D56   D(31,15,17,30)        173.5882         estimate D2E/DX2                !
 ! D57   D(7,15,31,2)          -21.5235         estimate D2E/DX2                !
 ! D58   D(16,15,31,2)          91.7459         estimate D2E/DX2                !
 ! D59   D(17,15,31,2)        -151.3265         estimate D2E/DX2                !
 ! D60   D(15,17,19,20)       -111.7841         estimate D2E/DX2                !
 ! D61   D(15,17,19,29)         68.5801         estimate D2E/DX2                !
 ! D62   D(18,17,19,20)        125.332          estimate D2E/DX2                !
 ! D63   D(18,17,19,29)        -54.3037         estimate D2E/DX2                !
 ! D64   D(30,17,19,20)          8.0885         estimate D2E/DX2                !
 ! D65   D(30,17,19,29)       -171.5473         estimate D2E/DX2                !
 ! D66   D(17,19,20,21)        178.1933         estimate D2E/DX2                !
 ! D67   D(17,19,20,33)          0.283          estimate D2E/DX2                !
 ! D68   D(29,19,20,21)         -2.1658         estimate D2E/DX2                !
 ! D69   D(29,19,20,33)        179.9239         estimate D2E/DX2                !
 ! D70   D(19,20,21,22)        -81.1484         estimate D2E/DX2                !
 ! D71   D(19,20,21,34)        157.4821         estimate D2E/DX2                !
 ! D72   D(19,20,21,35)         41.4685         estimate D2E/DX2                !
 ! D73   D(33,20,21,22)         96.7608         estimate D2E/DX2                !
 ! D74   D(33,20,21,34)        -24.6087         estimate D2E/DX2                !
 ! D75   D(33,20,21,35)       -140.6223         estimate D2E/DX2                !
 ! D76   D(20,21,22,23)        179.3226         estimate D2E/DX2                !
 ! D77   D(20,21,22,36)        -57.5268         estimate D2E/DX2                !
 ! D78   D(20,21,22,37)         55.8766         estimate D2E/DX2                !
 ! D79   D(34,21,22,23)        -62.0065         estimate D2E/DX2                !
 ! D80   D(34,21,22,36)         61.144          estimate D2E/DX2                !
 ! D81   D(34,21,22,37)        174.5474         estimate D2E/DX2                !
 ! D82   D(35,21,22,23)         58.1673         estimate D2E/DX2                !
 ! D83   D(35,21,22,36)       -178.6822         estimate D2E/DX2                !
 ! D84   D(35,21,22,37)        -65.2788         estimate D2E/DX2                !
 ! D85   D(21,22,23,24)         67.7935         estimate D2E/DX2                !
 ! D86   D(21,22,23,28)        -67.131          estimate D2E/DX2                !
 ! D87   D(36,22,23,24)        -55.3364         estimate D2E/DX2                !
 ! D88   D(36,22,23,28)        169.7391         estimate D2E/DX2                !
 ! D89   D(37,22,23,24)       -168.3508         estimate D2E/DX2                !
 ! D90   D(37,22,23,28)         56.7247         estimate D2E/DX2                !
 ! D91   D(22,23,24,25)       -174.5513         estimate D2E/DX2                !
 ! D92   D(22,23,24,38)         65.3303         estimate D2E/DX2                !
 ! D93   D(22,23,24,39)        -53.1592         estimate D2E/DX2                !
 ! D94   D(28,23,24,25)        -40.1688         estimate D2E/DX2                !
 ! D95   D(28,23,24,38)       -160.2872         estimate D2E/DX2                !
 ! D96   D(28,23,24,39)         81.2233         estimate D2E/DX2                !
 ! D97   D(22,23,28,27)        117.3666         estimate D2E/DX2                !
 ! D98   D(22,23,28,46)       -122.6401         estimate D2E/DX2                !
 ! D99   D(22,23,28,47)         -7.2426         estimate D2E/DX2                !
 ! D100  D(24,23,28,27)        -17.0387         estimate D2E/DX2                !
 ! D101  D(24,23,28,46)        102.9546         estimate D2E/DX2                !
 ! D102  D(24,23,28,47)       -141.648          estimate D2E/DX2                !
 ! D103  D(23,24,25,26)         61.021          estimate D2E/DX2                !
 ! D104  D(23,24,25,40)        -60.1819         estimate D2E/DX2                !
 ! D105  D(23,24,25,41)       -176.6162         estimate D2E/DX2                !
 ! D106  D(38,24,25,26)       -178.6122         estimate D2E/DX2                !
 ! D107  D(38,24,25,40)         60.1849         estimate D2E/DX2                !
 ! D108  D(38,24,25,41)        -56.2493         estimate D2E/DX2                !
 ! D109  D(39,24,25,26)        -62.2458         estimate D2E/DX2                !
 ! D110  D(39,24,25,40)        176.5513         estimate D2E/DX2                !
 ! D111  D(39,24,25,41)         60.117          estimate D2E/DX2                !
 ! D112  D(24,25,26,27)        -21.3929         estimate D2E/DX2                !
 ! D113  D(24,25,26,42)       -143.6182         estimate D2E/DX2                !
 ! D114  D(24,25,26,43)        100.2757         estimate D2E/DX2                !
 ! D115  D(40,25,26,27)         99.7804         estimate D2E/DX2                !
 ! D116  D(40,25,26,42)        -22.4449         estimate D2E/DX2                !
 ! D117  D(40,25,26,43)       -138.551          estimate D2E/DX2                !
 ! D118  D(41,25,26,27)       -144.0357         estimate D2E/DX2                !
 ! D119  D(41,25,26,42)         93.739          estimate D2E/DX2                !
 ! D120  D(41,25,26,43)        -22.367          estimate D2E/DX2                !
 ! D121  D(25,26,27,28)        -33.9189         estimate D2E/DX2                !
 ! D122  D(25,26,27,44)       -156.3362         estimate D2E/DX2                !
 ! D123  D(25,26,27,45)         87.2676         estimate D2E/DX2                !
 ! D124  D(42,26,27,28)         87.691          estimate D2E/DX2                !
 ! D125  D(42,26,27,44)        -34.7263         estimate D2E/DX2                !
 ! D126  D(42,26,27,45)       -151.1224         estimate D2E/DX2                !
 ! D127  D(43,26,27,28)       -156.2207         estimate D2E/DX2                !
 ! D128  D(43,26,27,44)         81.3621         estimate D2E/DX2                !
 ! D129  D(43,26,27,45)        -35.0341         estimate D2E/DX2                !
 ! D130  D(26,27,28,23)         56.0674         estimate D2E/DX2                !
 ! D131  D(26,27,28,46)        -63.3683         estimate D2E/DX2                !
 ! D132  D(26,27,28,47)       -177.9086         estimate D2E/DX2                !
 ! D133  D(44,27,28,23)        178.1359         estimate D2E/DX2                !
 ! D134  D(44,27,28,46)         58.7001         estimate D2E/DX2                !
 ! D135  D(44,27,28,47)        -55.8402         estimate D2E/DX2                !
 ! D136  D(45,27,28,23)        -65.154          estimate D2E/DX2                !
 ! D137  D(45,27,28,46)        175.4102         estimate D2E/DX2                !
 ! D138  D(45,27,28,47)         60.8699         estimate D2E/DX2                !
 --------------------------------------------------------------------------------
 Trust Radius=3.00D-01 FncErr=1.00D-07 GrdErr=1.00D-06
 Number of steps in this run=    282 maximum allowed number of steps=    282.
 GradGradGradGradGradGradGradGradGradGradGradGradGradGradGradGradGradGrad

 Leave Link  103 at Wed Feb  5 05:32:50 2025, MaxMem=  5368709120 cpu:         0.1
 (Enter /home/k0335/k033513/app/g09/l202.exe)
                          Input orientation:                          
 ---------------------------------------------------------------------
 Center     Atomic      Atomic             Coordinates (Angstroms)
 Number     Number       Type             X           Y           Z
 ---------------------------------------------------------------------
      1          9           0       -4.488838    3.136366   -0.825293
      2          6           0       -3.744091    2.233975   -1.499776
      3          9           0       -3.357929    2.816843   -2.650601
      4          6           0       -4.499154    0.932728   -1.704362
      5          9           0       -3.968108    0.252753   -2.760564
      6          9           0       -5.807056    1.073791   -1.975139
      7          6           0       -4.194269    0.188871   -0.431830
      8          9           0       -4.322765   -1.155665   -0.626136
      9          6           0       -5.062348    0.592655    0.746165
     10          9           0       -4.700158   -0.154740    1.830499
     11          6           0       -6.545329    0.370992    0.446129
     12          8           0       -7.250019    1.517500    0.323070
     13          8           0       -7.105563   -0.703565    0.295586
     14          9           0       -4.798258    1.877737    1.100780
     15          6           0       -2.720682    0.578121   -0.300615
     16          9           0       -2.036930   -0.108340   -1.272469
     17          6           0       -2.060684    0.258817    1.043447
     18          9           0       -2.590065    1.032462    2.029541
     19          6           0       -0.538975    0.446272    0.942610
     20          7           0        0.190641   -0.730194    1.030811
     21          6           0        1.638803   -0.749853    0.917108
     22          6           0        2.106817   -0.713719   -0.552276
     23          7           0        3.556450   -0.714547   -0.778100
     24          6           0        4.216394   -1.965312   -0.402954
     25          6           0        5.733359   -1.847803   -0.538088
     26          6           0        6.302456   -0.761865    0.375075
     27          6           0        5.250544    0.265514    0.788684
     28          6           0        4.230752    0.506341   -0.322874
     29          8           0        0.000329    1.541664    0.802488
     30          9           0       -2.358129   -1.035651    1.380975
     31          8           0       -2.602086    1.958262   -0.693764
     32          1           0       -8.172675    1.237313    0.135447
     33          1           0       -0.305976   -1.608898    1.147449
     34          1           0        1.973198   -1.667180    1.411355
     35          1           0        2.038966    0.103639    1.474725
     36          1           0        1.667204   -1.569451   -1.082411
     37          1           0        1.676797    0.166279   -1.049043
     38          1           0        3.863630   -2.771176   -1.057315
     39          1           0        3.979709   -2.256983    0.626774
     40          1           0        5.987788   -1.616380   -1.580615
     41          1           0        6.209782   -2.809015   -0.311962
     42          1           0        7.131604   -0.262671   -0.140537
     43          1           0        6.730314   -1.215576    1.277033
     44          1           0        5.742390    1.206089    1.061798
     45          1           0        4.730887   -0.086622    1.689015
     46          1           0        4.753981    0.935329   -1.187119
     47          1           0        3.517291    1.274894   -0.001760
 ---------------------------------------------------------------------
                    Distance matrix (angstroms):
                    1          2          3          4          5
     1  F    0.000000
     2  C    1.350513   0.000000
     3  F    2.170898   1.346571   0.000000
     4  C    2.372528   1.518295   2.397426   0.000000
     5  F    3.511646   2.359027   2.637986   1.363796   0.000000
     6  F    2.704452   2.414088   3.081023   1.343066   2.161649
     7  C    2.988195   2.350664   3.539583   1.505196   2.340562
     8  F    4.299857   3.547925   4.561818   2.356920   2.581706
     9  C    3.044480   3.078309   4.403416   2.537306   3.689179
    10  F    4.234296   4.208415   5.541854   3.703813   4.666884
    11  C    3.673277   3.886410   5.072617   3.021091   4.115693
    12  O    3.400527   4.015923   5.067482   3.466943   4.677534
    13  O    4.780030   4.811648   5.926049   3.670234   4.483104
    14  F    2.321561   2.828615   4.126661   2.975118   4.270796
    15  C    3.153772   2.286308   3.307627   2.293298   2.777280
    16  F    4.091447   2.907320   3.492990   2.707933   2.464602
    17  C    4.203381   3.633606   4.676787   3.735070   4.255444
    18  F    4.022664   3.902754   5.067283   4.194830   5.045003
    19  C    5.095440   4.408390   5.145607   4.788123   5.050733
    20  N    6.347671   5.538256   6.223071   5.678086   5.712784
    21  C    7.462348   6.612118   7.100507   6.883146   6.779966
    22  C    7.642013   6.619651   6.836028   6.904849   6.535696
    23  N    8.919553   7.906484   7.986590   8.274312   7.841225
    24  C   10.098839   9.066772   9.235328   9.276480   8.801375
    25  C   11.376192  10.363774  10.434230  10.667515  10.172030
    26  C   11.536426  10.650034  10.737081  11.129712  10.786388
    27  C   10.281161   9.487642   9.614768  10.085488   9.878303
    28  C    9.121442   8.244267   8.267092   8.848818   8.557333
    29  O    5.034418   4.449763   4.982750   5.186564   5.486814
    30  F    5.178153   4.572753   5.665237   4.240025   4.626485
    31  O    2.228242   1.424727   2.266643   2.381574   3.007730
    32  H    4.254419   4.824899   5.782625   4.119760   5.199483
    33  H    6.626128   5.796215   6.582308   5.672339   5.670055
    34  H    8.356707   7.508734   8.063924   7.639277   7.509339
    35  H    7.556437   6.843226   7.314798   7.317171   7.351520
    36  H    7.752914   6.627394   6.852062   6.683689   6.155759
    37  H    6.847374   5.819326   5.910917   6.257736   5.899299
    38  H   10.233113   9.117276   9.269058   9.169173   8.566290
    39  H   10.144604   9.184117   9.503990   9.354120   8.996701
    40  H   11.529042  10.466195  10.399075  10.793017  10.198324
    41  H   12.250369  11.221508  11.342866  11.428943  10.906857
    42  H   12.126707  11.241064  11.216690  11.796146  11.416383
    43  H   12.215914  11.372037  11.552461  11.815451  11.528851
    44  H   10.581357   9.879855   9.959530  10.612049  10.479173
    45  H   10.085273   9.347663   9.627633   9.886746   9.776832
    46  H    9.508164   8.602410   8.454878   9.267581   8.889121
    47  H    8.260834   7.476066   7.527457   8.202397   8.042821
                    6          7          8          9         10
     6  F    0.000000
     7  C    2.401243   0.000000
     8  F    2.998900   1.364567   0.000000
     9  C    2.862093   1.517984   2.342395   0.000000
    10  F    4.149385   2.343528   2.679428   1.365855   0.000000
    11  C    2.627073   2.516240   2.901762   1.529179   2.365910
    12  O    2.749688   3.416539   4.076226   2.412520   3.401547
    13  O    3.162484   3.130688   2.966131   2.461287   2.905708
    14  F    3.335458   2.359230   3.522763   1.359018   2.161730
    15  C    3.546184   1.529768   2.382991   2.565026   2.999510
    16  F    4.013107   2.334335   2.596089   3.703975   4.089419
    17  C    4.879687   2.594903   3.147265   3.034767   2.785194
    18  F    5.136945   3.056708   3.852631   2.820047   2.429312
    19  C    6.054727   3.913632   4.398208   4.530002   4.297093
    20  N    6.947119   4.712901   4.826731   5.424467   4.989044
    21  C    8.193387   6.060162   6.171432   6.836445   6.432019
    22  C    8.237058   6.366542   6.445176   7.401992   7.233601
    23  N    9.607617   7.810871   7.893016   8.849624   8.676967
    24  C   10.591386   8.682200   8.580360   9.693231   9.368638
    25  C   11.990913  10.134946  10.080299  11.142371  10.832126
    26  C   12.471304  10.570536  10.679552  11.451253  11.115052
    27  C   11.426397   9.523656   9.781089  10.318167  10.013913
    28  C   10.188698   8.431704   8.718766   9.354785   9.210602
    29  O    6.454443   4.576925   5.292040   5.151164   5.101879
    30  F    5.254364   2.856068   2.811173   3.219808   2.542278
    31  O    3.563151   2.394661   3.558349   3.160881   3.903663
    32  H    3.174502   4.153161   4.596538   3.234609   4.107236
    33  H    6.870899   4.565624   4.414252   5.256514   4.678672
    34  H    8.917041   6.699247   6.637181   7.419450   6.855424
    35  H    8.625707   6.518852   6.816970   7.155319   6.753453
    36  H    7.977986   6.154008   6.021556   7.301045   7.143511
    37  H    7.595346   5.903463   6.158014   6.987177   7.004311
    38  H   10.447408   8.607139   8.355409   9.707779   9.408702
    39  H   10.660430   8.597486   8.468398   9.481218   9.011574
    40  H   12.104173  10.404466  10.364883  11.506487  11.313898
    41  H   12.737611  10.828018  10.666153  11.821671  11.430753
    42  H   13.136241  11.338613  11.499383  12.256031  11.995300
    43  H   13.153078  11.146264  11.215890  11.942294  11.492928
    44  H   11.942788  10.099646  10.475416  10.826740  10.558862
    45  H   11.216988   9.177815   9.405923   9.861939   9.432352
    46  H   10.591301   9.011040   9.331360  10.010761   9.983737
    47  H    9.533001   7.799523   8.231886   8.639158   8.539760
                   11         12         13         14         15
    11  C    0.000000
    12  O    1.351374   0.000000
    13  O    1.221146   2.225927   0.000000
    14  F    2.398146   2.597255   3.554591   0.000000
    15  C    3.902365   4.667581   4.607098   2.822983   0.000000
    16  F    4.848608   5.689059   5.338926   4.147499   1.372314
    17  C    4.525639   5.388174   5.190017   3.180959   1.531031
    18  F    4.311479   4.986229   5.139077   2.540316   2.377628
    19  C    6.027309   6.824183   6.697824   4.496176   2.514525
    20  N    6.850384   7.804899   7.333202   5.629859   3.458350
    21  C    8.273943   9.192656   8.766548   6.955122   4.717147
    22  C    8.776847   9.658931   9.251320   7.558326   5.003692
    23  N   10.233429  11.089381  10.715943   8.947138   6.426614
    24  C   11.045087  12.005654  11.413443   9.914343   7.389354
    25  C   12.516306  13.440051  12.916742  11.290726   8.798427
    26  C   12.897829  13.742918  13.408381  11.433285   9.147084
    27  C   11.801317  12.571728  12.403856  10.182096   8.051381
    28  C   10.804333  11.543301  11.417460   9.242864   6.951840
    29  O    6.659062   7.266221   7.469384   4.819581   3.090170
    30  F    4.515000   5.618570   4.881238   3.810586   2.358697
    31  O    4.400903   4.778232   5.324044   2.837260   1.439938
    32  H    1.869570   0.982345   2.220671   3.567730   5.508985
    33  H    6.583414   7.659876   6.912285   5.686774   3.565213
    34  H    8.811987   9.818059   9.197684   7.649543   5.477657
    35  H    8.649833   9.466285   9.255504   7.073535   5.102079
    36  H    8.575981   9.540519   8.922448   7.645366   4.947405
    37  H    8.359474   9.132170   8.927178   7.034001   4.479685
    38  H   10.976338  11.992139  11.244045  10.064694   7.425870
    39  H   10.849669  11.850981  11.198484   9.714592   7.334378
    40  H   12.850539  13.736257  13.258552  11.650645   9.071476
    41  H   13.167384  14.152323  13.494460  12.047341   9.551231
    42  H   13.704167  14.498794  14.250667  12.183752   9.889393
    43  H   13.395906  14.276886  13.880090  11.937656   9.748213
    44  H   12.331442  13.017119  13.011678  10.562097   8.595004
    45  H   11.353732  12.164749  11.934145   9.747273   7.741214
    46  H   11.430677  12.112622  12.063713   9.867517   7.535521
    47  H   10.113059  10.774940  10.809613   8.409957   6.283877
                   16         17         18         19         20
    16  F    0.000000
    17  C    2.344960   0.000000
    18  F    3.537041   1.360571   0.000000
    19  C    2.730941   1.536524   2.394161   0.000000
    20  N    3.264027   2.459017   3.440457   1.387152   0.000000
    21  C    4.326292   3.836611   4.722021   2.484770   1.452752
    22  C    4.249212   4.567299   5.636987   3.252765   2.485592
    23  N    5.647813   5.984786   6.979580   4.591389   3.821135
    24  C    6.580917   6.814729   7.825060   5.499074   4.448358
    25  C    7.996402   8.227163   9.174314   6.840864   5.867897
    26  C    8.525659   8.451664   9.221377   6.970428   6.146973
    27  C    7.582572   7.315668   7.975154   5.794385   5.162623
    28  C    6.368940   6.442846   7.234238   4.935114   4.436663
    29  O    3.343409   2.439576   2.911200   1.228970   2.291220
    30  F    2.829106   1.370418   2.179799   2.386961   2.590781
    31  O    2.219267   2.489806   2.876394   3.036488   4.242791
    32  H    6.437420   6.256065   5.898736   7.716906   8.638160
    33  H    3.332248   2.564795   3.601657   2.078454   1.016048
    34  H    5.070899   4.485201   5.337939   3.316235   2.049455
    35  H    4.919851   4.125192   4.753784   2.654491   2.075727
    36  H    3.986424   4.664653   5.880352   3.609858   2.711143
    37  H    3.730563   4.284372   5.332360   2.992444   2.708896
    38  H    6.477159   6.977933   8.102254   5.808150   4.692198
    39  H    6.665113   6.556616   7.479982   5.275021   4.105042
    40  H    8.171000   8.670638   9.676216   7.295192   6.419641
    41  H    8.730663   8.924648   9.883162   7.597142   6.508041
    42  H    9.239432   9.282884  10.044773   7.779048   7.054616
    43  H    9.197309   8.916840   9.617141   7.464324   6.562282
    44  H    8.227657   7.860383   8.390261   6.328276   5.879802
    45  H    7.387436   6.830924   7.413814   5.349069   4.632629
    46  H    6.871172   7.202274   8.018189   5.726282   5.340155
    47  H    5.863225   5.765299   6.440866   4.246380   4.019102
                   21         22         23         24         25
    21  C    0.000000
    22  C    1.542541   0.000000
    23  N    2.559755   1.467117   0.000000
    24  C    3.140681   2.457457   1.463104   0.000000
    25  C    4.482017   3.799757   2.465929   1.527499   0.000000
    26  C    4.695062   4.297172   2.978691   2.530863   1.528725
    27  C    3.753949   3.555290   2.507047   2.732408   2.541563
    28  C    3.135886   2.460136   1.467134   2.472992   2.801096
    29  O    2.819359   3.370375   4.498304   5.614907   6.793619
    30  F    4.033896   4.876150   6.304519   6.875393   8.355511
    31  O    5.283364   5.416020   6.714059   7.872145   9.164606
    32  H   10.041161  10.485583  11.925464  12.807643  14.260062
    33  H    2.138500   3.084150   4.407487   4.794018   6.274685
    34  H    1.094344   2.186959   2.864945   2.900436   4.239312
    35  H    1.095224   2.186644   2.836795   3.542235   4.637681
    36  H    2.161163   1.098444   2.095881   2.667721   4.111859
    37  H    2.169445   1.098222   2.093409   3.377967   4.557773
    38  H    3.596380   2.752197   2.098105   1.096379   2.148977
    39  H    2.799210   2.698064   2.128833   1.096098   2.144672
    40  H    5.089515   4.115120   2.714542   2.155569   1.097795
    41  H    5.161842   4.613278   3.412367   2.166497   1.096376
    42  H    5.614875   5.061764   3.659563   3.386192   2.150763
    43  H    5.125420   4.997495   3.814186   3.115165   2.165247
    44  H    4.548194   4.416819   3.442732   3.812079   3.447604
    45  H    3.255257   3.507475   2.803613   2.858411   3.011096
    46  H    4.119702   3.182744   2.079295   3.052480   3.020968
    47  H    2.910779   2.499417   2.135910   3.338957   3.866503
                   26         27         28         29         30
    26  C    0.000000
    27  C    1.527448   0.000000
    28  C    2.527338   1.527591   0.000000
    29  O    6.723521   5.403102   4.498312   0.000000
    30  F    8.723103   7.741818   6.978122   3.541119   0.000000
    31  O    9.371893   8.168650   6.995235   3.030658   3.650695
    32  H   14.614498  13.474195  12.433398   8.205825   6.366055
    33  H    6.707116   5.875121   5.217086   3.184158   2.143473
    34  H    4.542681   3.855389   3.581661   3.815706   4.377230
    35  H    4.487279   3.288022   2.863120   2.583768   4.543260
    36  H    4.925649   4.439416   3.384906   4.001294   4.749370
    37  H    4.928112   4.019795   2.676873   2.851385   4.861096
    38  H    3.469430   3.814804   3.378802   6.081492   6.904172
    39  H    2.773785   2.829174   2.932714   5.504186   6.498358
    40  H    2.157298   3.114263   3.029032   7.176495   8.874829
    41  H    2.161349   3.403570   3.861122   7.663401   8.911787
    42  H    1.096602   2.163520   3.006588   7.416199   9.641967
    43  H    1.096560   2.149845   3.431109   7.288365   9.090818
    44  H    2.158264   1.095986   2.166106   5.757701   8.411045
    45  H    2.156901   1.097561   2.156255   5.080888   7.158889
    46  H    2.778253   2.144534   1.097597   5.188775   7.814216
    47  H    3.470956   2.155879   1.096729   3.617596   6.463059
                   31         32         33         34         35
    31  O    0.000000
    32  H    5.677924   0.000000
    33  H    4.624588   8.426744   0.000000
    34  H    6.205528  10.630276   2.295142   0.000000
    35  H    5.448058  10.361298   2.922096   1.773173   0.000000
    36  H    5.551814  10.304578   2.977796   2.514369   3.078373
    37  H    4.652555   9.978087   3.450684   3.082691   2.550391
    38  H    8.019055  12.742186   4.857725   3.299526   4.243252
    39  H    7.926672  12.654325   4.365571   2.233724   3.171441
    40  H    9.346149  14.546723   6.859581   5.007135   5.280792
    41  H   10.026052  14.947509   6.784192   4.714048   5.391800
    42  H    9.999166  15.380087   7.667388   5.566881   5.355205
    43  H   10.052412  15.146583   7.048466   4.780391   4.877310
    44  H    8.560259  13.945900   6.671898   4.752333   3.886033
    45  H    7.976947  13.064007   5.289670   3.190628   2.707131
    46  H    7.443219  12.997646   6.125885   4.610626   3.892098
    47  H    6.196179  11.690832   4.924866   3.610667   2.395264
                   36         37         38         39         40
    36  H    0.000000
    37  H    1.736077   0.000000
    38  H    2.503809   3.662096   0.000000
    39  H    2.956635   3.739514   1.764660   0.000000
    40  H    4.349466   4.695219   2.473751   3.052101   0.000000
    41  H    4.771281   5.472076   2.461994   2.481772   1.755318
    42  H    5.696882   5.546558   4.220513   3.807951   2.283565
    43  H    5.597078   5.732206   4.010854   3.012174   2.979621
    44  H    5.376653   4.697436   4.882521   3.910135   3.874132
    45  H    4.389275   4.109548   3.937168   2.530433   3.822361
    46  H    3.976566   3.174833   3.814152   3.752407   2.861527
    47  H    3.561029   2.390240   4.195811   3.617049   4.117718
                   41         42         43         44         45
    41  H    0.000000
    42  H    2.713487   0.000000
    43  H    2.309742   1.754584   0.000000
    44  H    4.269278   2.352186   2.624268   0.000000
    45  H    3.688152   3.023524   2.332804   1.757169   0.000000
    46  H    4.111614   2.860704   3.821561   2.471415   3.052387
    47  H    4.901433   3.930219   4.261604   2.467176   2.487019
                   46         47
    46  H    0.000000
    47  H    1.746363   0.000000
 Symmetry turned off by external request.
 Stoichiometry    C15H16F10N2O4
 Framework group  C1[X(C15H16F10N2O4)]
 Deg. of freedom   135
 Full point group                 C1      NOp   1
 Rotational constants (GHZ):      0.3607048      0.0653701      0.0627090
 Leave Link  202 at Wed Feb  5 05:32:50 2025, MaxMem=  5368709120 cpu:         0.1
 (Enter /home/k0335/k033513/app/g09/l301.exe)
 Standard basis: 6-31G(d,p) (6D, 7F)
 Ernie: Thresh=  0.10000D-02 Tol=  0.10000D-05 Strict=F.
   545 basis functions,   980 primitive gaussians,   545 cartesian basis functions
   121 alpha electrons      121 beta electrons
       nuclear repulsion energy      3797.8546199797 Hartrees.
 IExCor=20419 DFT=T Ex+Corr=CAM-B3LYP ExCW=0 ScaHFX=  1.000000
 ScaDFX=  1.000000  1.000000  1.000000  0.810000 ScalE2=  1.000000  1.000000
 IRadAn=      0 IRanWt=     -1 IRanGd=            0 ICorTp=0 IEmpDi=  4
  HFx wShort=  0.000000 wLong=  0.330000 cFull=  0.190000 cShort=  0.000000 cLong=  0.460000
  DFx wShort=  0.000000 wLong=  0.330000 cFull=  0.190000 cShort=  0.000000 cLong=  0.460000
 NAtoms=   47 NActive=   47 NUniq=   47 SFac= 1.00D+00 NAtFMM=   60 NAOKFM=F Big=F
 Integral buffers will be    131072 words long.
 Raffenetti 2 integral format.
 Two-electron integral symmetry is turned off.
 Using the following non-standard input for PCM:
 eps=2.05
 --- end of non-standard input.
 ------------------------------------------------------------------------------
 Polarizable Continuum Model (PCM)
 =================================
 Model                : PCM (using non-symmetric T matrix).
 Atomic radii         : UFF (Universal Force Field).
 Polarization charges : Total charges.
 Charge compensation  : None.
 Solution method      : On-the-fly selection.
 Cavity type          : Scaled VdW (van der Waals Surface) (Alpha=1.100).
 Cavity algorithm     : GePol (No added spheres)
                        Default sphere list used, NSphG=   47.
                        Lebedev-Laikov grids with approx.  5.0 points / Ang**2.
                        Smoothing algorithm: Karplus/York (Gamma=1.0000).
                        Polarization charges: spherical gaussians, with
                                              point-specific exponents (IZeta= 3).
                        Self-potential: point-specific (ISelfS= 7).
                        Self-field    : sphere-specific E.n sum rule (ISelfD= 2).
 1st derivatives      : Analytical E(r).r(x)/FMM algorithm (CHGder, D1EAlg=3).
                        Cavity 1st derivative terms included.
 Solvent              : Generic,
                        Eps                           =   2.050000
                        Eps(infinity)                 =   0.000000
                        RSolv                         =   0.000000 Ang.
                        Molar volume                  =   0.000000 cm**3/mol
                        Thermal expansion coefficient =   0.000000 K**-1
                        Absolute temperature          = 298.150000 K
                        Numeral density               =   0.000000 Ang**-3
                        Hydrogen bond acidity         =   0.000000
                        Hydrogen bond basicity        =   0.000000
                        Surface tension at interface  =   0.000000 (cal/mol)*Ang**-2
                        Carbon aromaticity            =   0.000000
                        Electronegative halogenicity  =   0.000000
 ------------------------------------------------------------------------------
 GePol: Number of generator spheres                  =      47
 GePol: Total number of spheres                      =      47
 GePol: Number of exposed spheres                    =      46 ( 97.87%)
 GePol: Number of points                             =    3429
 GePol: Average weight of points                     =       0.13
 GePol: Minimum weight of points                     =   0.51D-10
 GePol: Maximum weight of points                     =    0.20577
 GePol: Number of points with low weight             =     201
 GePol: Fraction of low-weight points (<1% of avg)   =       5.86%
 GePol: Cavity surface area                          =    434.278 Ang**2
 GePol: Cavity volume                                =    494.048 Ang**3
 Leave Link  301 at Wed Feb  5 05:32:50 2025, MaxMem=  5368709120 cpu:         0.7
 (Enter /home/k0335/k033513/app/g09/l302.exe)
 NPDir=0 NMtPBC=     1 NCelOv=     1 NCel=       1 NClECP=     1 NCelD=      1
         NCelK=      1 NCelE2=     1 NClLst=     1 CellRange=     0.0.
 One-electron integrals computed using PRISM.
 NBasis=   545 RedAO= T EigKep=  8.64D-04  NBF=   545
 NBsUse=   545 1.00D-06 EigRej= -1.00D+00 NBFU=   545
 Precomputing XC quadrature grid using
 IXCGrd= 4 IRadAn=           0 IRanWt=          -1 IRanGd=           0 AccXCQ= 0.00D+00.
 Generated NRdTot=       0 NPtTot=           0 NUsed=           0 NTot=          32
 NSgBfM=   516   518   521   525   525 MxSgAt=    47 MxSgA2=    47.
 Leave Link  302 at Wed Feb  5 05:32:51 2025, MaxMem=  5368709120 cpu:         9.6
 (Enter /home/k0335/k033513/app/g09/l303.exe)
 DipDrv:  MaxL=1.
 Leave Link  303 at Wed Feb  5 05:32:51 2025, MaxMem=  5368709120 cpu:         0.7
 (Enter /home/k0335/k033513/app/g09/l401.exe)
 ExpMin= 1.61D-01 ExpMax= 7.00D+03 ExpMxC= 1.05D+03 IAcc=1 IRadAn=         1 AccDes= 0.00D+00
 Harris functional with IExCor=20419 and IRadAn=       1 diagonalized for initial guess.
 HarFok:  IExCor=20419 AccDes= 0.00D+00 IRadAn=         1 IDoV= 1 UseB2=F ITyADJ=14
 ICtDFT=  3500011 ScaDFX=  1.000000  1.000000  1.000000  1.000000
 FoFCou: FMM=F IPFlag=           0 FMFlag=      100000 FMFlg1=           0
         NFxFlg=           0 DoJE=T BraDBF=F KetDBF=T FulRan=T
         wScrn=  0.000000 ICntrl=     500 IOpCl=  0 I1Cent=   200000004 NGrid=           0
         NMat0=    1 NMatS0=      1 NMatT0=    0 NMatD0=    1 NMtDS0=    0 NMtDT0=    0
 Symmetry not used in FoFCou.
 Harris En= -1925.44064689916    
 JPrj=0 DoOrth=F DoCkMO=F.
 Leave Link  401 at Wed Feb  5 05:32:51 2025, MaxMem=  5368709120 cpu:        11.4
 (Enter /home/k0335/k033513/app/g09/l502.exe)
 Closed shell SCF:
 Using DIIS extrapolation, IDIIS=  1040.
 Two-electron integral symmetry not used.
 IVT=      926069 IEndB=      926069 NGot=  5368709120 MDV=  5368097262
 LenX=  5368097262 LenY=  5367799692
 Requested convergence on RMS density matrix=1.00D-08 within 128 cycles.
 Requested convergence on MAX density matrix=1.00D-06.
 Requested convergence on             energy=1.00D-06.
 No special actions if energy rises.
 Fock matrices will be formed incrementally for  20 cycles.

 Cycle   1  Pass 1  IDiag  1:
 FoFJK:  IHMeth= 1 ICntrl=       0 DoSepK=T KAlg= 0 I1Cent=   0 FoldK=F
 IRaf=         1 NMat=   1 IRICut=       1 DoRegI=T DoRafI=F ISym2E= 0.
 FoFCou: FMM=F IPFlag=           0 FMFlag=      100000 FMFlg1=           0
         NFxFlg=           0 DoJE=T BraDBF=F KetDBF=F FulRan=T
         wScrn=  0.000000 ICntrl=     500 IOpCl=  0 I1Cent=           0 NGrid=           0
         NMat0=    1 NMatS0=      1 NMatT0=    0 NMatD0=    1 NMtDS0=    0 NMtDT0=    0
 Symmetry not used in FoFCou.
 Inv3:  Mode=1 IEnd=    35274123.
 Iteration    1 A*A^-1 deviation from unit magnitude is 6.77D-15 for   3422.
 Iteration    1 A*A^-1 deviation from orthogonality  is 3.77D-15 for   3405   1703.
 Iteration    1 A^-1*A deviation from unit magnitude is 6.66D-15 for   3422.
 Iteration    1 A^-1*A deviation from orthogonality  is 7.15D-15 for   3394   3213.
 E= -1988.76348911074    
 DIIS: error= 6.47D-02 at cycle   1 NSaved=   1.
 NSaved= 1 IEnMin= 1 EnMin= -1988.76348911074     IErMin= 1 ErrMin= 6.47D-02
 ErrMax= 6.47D-02  0.00D+00 EMaxC= 1.00D-01 BMatC= 1.60D+00 BMatP= 1.60D+00
 IDIUse=3 WtCom= 3.53D-01 WtEn= 6.47D-01
 Coeff-Com:  0.100D+01
 Coeff-En:   0.100D+01
 Coeff:      0.100D+01
 Gap=     0.406 Goal=   None    Shift=    0.000
 GapD=    0.406 DampG=2.000 DampE=0.500 DampFc=1.0000 IDamp=-1.
 RMSDP=2.74D-03 MaxDP=1.13D-01              OVMax= 1.23D-01

 Cycle   2  Pass 1  IDiag  1:
 RMSU=  2.74D-03    CP:  9.95D-01
 E= -1988.99277585914     Delta-E=       -0.229286748393 Rises=F Damp=F
 DIIS: error= 2.00D-02 at cycle   2 NSaved=   2.
 NSaved= 2 IEnMin= 2 EnMin= -1988.99277585914     IErMin= 2 ErrMin= 2.00D-02
 ErrMax= 2.00D-02  0.00D+00 EMaxC= 1.00D-01 BMatC= 5.85D-01 BMatP= 1.60D+00
 IDIUse=3 WtCom= 8.00D-01 WtEn= 2.00D-01
 Coeff-Com:  0.353D+00 0.647D+00
 Coeff-En:   0.340D+00 0.660D+00
 Coeff:      0.350D+00 0.650D+00
 Gap=     0.266 Goal=   None    Shift=    0.000
 RMSDP=1.29D-03 MaxDP=6.83D-02 DE=-2.29D-01 OVMax= 8.42D-02

 Cycle   3  Pass 1  IDiag  1:
 RMSU=  8.09D-04    CP:  1.00D+00  6.36D-01
 E= -1989.26954362748     Delta-E=       -0.276767768342 Rises=F Damp=F
 DIIS: error= 7.20D-03 at cycle   3 NSaved=   3.
 NSaved= 3 IEnMin= 3 EnMin= -1989.26954362748     IErMin= 3 ErrMin= 7.20D-03
 ErrMax= 7.20D-03  0.00D+00 EMaxC= 1.00D-01 BMatC= 1.13D-01 BMatP= 5.85D-01
 IDIUse=3 WtCom= 9.28D-01 WtEn= 7.20D-02
 Coeff-Com:  0.701D-01 0.321D+00 0.609D+00
 Coeff-En:   0.000D+00 0.131D+00 0.869D+00
 Coeff:      0.651D-01 0.307D+00 0.628D+00
 Gap=     0.269 Goal=   None    Shift=    0.000
 RMSDP=5.85D-04 MaxDP=4.25D-02 DE=-2.77D-01 OVMax= 6.27D-02

 Cycle   4  Pass 1  IDiag  1:
 RMSU=  3.11D-04    CP:  9.96D-01  7.25D-01  4.74D-01
 E= -1989.33586947374     Delta-E=       -0.066325846262 Rises=F Damp=F
 DIIS: error= 2.95D-03 at cycle   4 NSaved=   4.
 NSaved= 4 IEnMin= 4 EnMin= -1989.33586947374     IErMin= 4 ErrMin= 2.95D-03
 ErrMax= 2.95D-03  0.00D+00 EMaxC= 1.00D-01 BMatC= 1.03D-02 BMatP= 1.13D-01
 IDIUse=3 WtCom= 9.71D-01 WtEn= 2.95D-02
 Coeff-Com:  0.615D-02 0.986D-01 0.318D+00 0.577D+00
 Coeff-En:   0.000D+00 0.000D+00 0.259D-01 0.974D+00
 Coeff:      0.597D-02 0.957D-01 0.310D+00 0.589D+00
 Gap=     0.257 Goal=   None    Shift=    0.000
 RMSDP=1.75D-04 MaxDP=1.47D-02 DE=-6.63D-02 OVMax= 2.18D-02

 Cycle   5  Pass 1  IDiag  1:
 RMSU=  7.94D-05    CP:  9.97D-01  7.25D-01  6.09D-01  6.44D-01
 E= -1989.34303349459     Delta-E=       -0.007164020846 Rises=F Damp=F
 DIIS: error= 8.02D-04 at cycle   5 NSaved=   5.
 NSaved= 5 IEnMin= 5 EnMin= -1989.34303349459     IErMin= 5 ErrMin= 8.02D-04
 ErrMax= 8.02D-04  0.00D+00 EMaxC= 1.00D-01 BMatC= 6.18D-04 BMatP= 1.03D-02
 IDIUse=3 WtCom= 9.92D-01 WtEn= 8.02D-03
 Coeff-Com:  0.362D-03 0.393D-01 0.147D+00 0.328D+00 0.485D+00
 Coeff-En:   0.000D+00 0.000D+00 0.000D+00 0.000D+00 0.100D+01
 Coeff:      0.360D-03 0.390D-01 0.146D+00 0.325D+00 0.489D+00
 Gap=     0.255 Goal=   None    Shift=    0.000
 RMSDP=3.87D-05 MaxDP=3.51D-03 DE=-7.16D-03 OVMax= 5.96D-03

 Cycle   6  Pass 1  IDiag  1:
 RMSU=  2.29D-05    CP:  9.97D-01  7.27D-01  6.08D-01  6.62D-01  6.21D-01
 E= -1989.34348020232     Delta-E=       -0.000446707729 Rises=F Damp=F
 DIIS: error= 1.13D-04 at cycle   6 NSaved=   6.
 NSaved= 6 IEnMin= 6 EnMin= -1989.34348020232     IErMin= 6 ErrMin= 1.13D-04
 ErrMax= 1.13D-04  0.00D+00 EMaxC= 1.00D-01 BMatC= 2.31D-05 BMatP= 6.18D-04
 IDIUse=3 WtCom= 9.99D-01 WtEn= 1.13D-03
 Coeff-Com: -0.528D-03 0.353D-02 0.190D-01 0.526D-01 0.185D+00 0.741D+00
 Coeff-En:   0.000D+00 0.000D+00 0.000D+00 0.000D+00 0.000D+00 0.100D+01
 Coeff:     -0.527D-03 0.352D-02 0.189D-01 0.526D-01 0.184D+00 0.741D+00
 Gap=     0.256 Goal=   None    Shift=    0.000
 RMSDP=1.21D-05 MaxDP=6.62D-04 DE=-4.47D-04 OVMax= 9.97D-04

 Cycle   7  Pass 1  IDiag  1:
 RMSU=  8.38D-06    CP:  9.97D-01  7.27D-01  6.11D-01  6.77D-01  7.02D-01
                    CP:  9.08D-01
 E= -1989.34349742590     Delta-E=       -0.000017223589 Rises=F Damp=F
 DIIS: error= 4.00D-05 at cycle   7 NSaved=   7.
 NSaved= 7 IEnMin= 7 EnMin= -1989.34349742590     IErMin= 7 ErrMin= 4.00D-05
 ErrMax= 4.00D-05  0.00D+00 EMaxC= 1.00D-01 BMatC= 4.26D-06 BMatP= 2.31D-05
 IDIUse=1 WtCom= 1.00D+00 WtEn= 0.00D+00
 Coeff-Com: -0.228D-03-0.382D-02-0.111D-01-0.199D-01 0.283D-01 0.357D+00
 Coeff-Com:  0.650D+00
 Coeff:     -0.228D-03-0.382D-02-0.111D-01-0.199D-01 0.283D-01 0.357D+00
 Coeff:      0.650D+00
 Gap=     0.256 Goal=   None    Shift=    0.000
 RMSDP=3.87D-06 MaxDP=2.72D-04 DE=-1.72D-05 OVMax= 4.15D-04

 Cycle   8  Pass 1  IDiag  1:
 RMSU=  2.46D-06    CP:  9.97D-01  7.27D-01  6.11D-01  6.77D-01  7.18D-01
                    CP:  1.01D+00  8.36D-01
 E= -1989.34350101049     Delta-E=       -0.000003584589 Rises=F Damp=F
 DIIS: error= 1.23D-05 at cycle   8 NSaved=   8.
 NSaved= 8 IEnMin= 8 EnMin= -1989.34350101049     IErMin= 8 ErrMin= 1.23D-05
 ErrMax= 1.23D-05  0.00D+00 EMaxC= 1.00D-01 BMatC= 2.23D-07 BMatP= 4.26D-06
 IDIUse=1 WtCom= 1.00D+00 WtEn= 0.00D+00
 Coeff-Com: -0.423D-04-0.168D-02-0.541D-02-0.118D-01-0.171D-02 0.676D-01
 Coeff-Com:  0.233D+00 0.720D+00
 Coeff:     -0.423D-04-0.168D-02-0.541D-02-0.118D-01-0.171D-02 0.676D-01
 Coeff:      0.233D+00 0.720D+00
 Gap=     0.256 Goal=   None    Shift=    0.000
 RMSDP=1.23D-06 MaxDP=6.79D-05 DE=-3.58D-06 OVMax= 1.26D-04

 Cycle   9  Pass 1  IDiag  1:
 RMSU=  8.61D-07    CP:  9.97D-01  7.27D-01  6.11D-01  6.77D-01  7.25D-01
                    CP:  1.02D+00  8.91D-01  1.04D+00
 E= -1989.34350122977     Delta-E=       -0.000000219277 Rises=F Damp=F
 DIIS: error= 4.50D-06 at cycle   9 NSaved=   9.
 NSaved= 9 IEnMin= 9 EnMin= -1989.34350122977     IErMin= 9 ErrMin= 4.50D-06
 ErrMax= 4.50D-06  0.00D+00 EMaxC= 1.00D-01 BMatC= 3.09D-08 BMatP= 2.23D-07
 IDIUse=1 WtCom= 1.00D+00 WtEn= 0.00D+00
 Coeff-Com:  0.115D-04-0.112D-03-0.483D-03-0.188D-02-0.354D-02-0.283D-01
 Coeff-Com: -0.279D-02 0.251D+00 0.786D+00
 Coeff:      0.115D-04-0.112D-03-0.483D-03-0.188D-02-0.354D-02-0.283D-01
 Coeff:     -0.279D-02 0.251D+00 0.786D+00
 Gap=     0.256 Goal=   None    Shift=    0.000
 RMSDP=6.09D-07 MaxDP=5.21D-05 DE=-2.19D-07 OVMax= 6.51D-05

 Cycle  10  Pass 1  IDiag  1:
 RMSU=  3.32D-07    CP:  9.97D-01  7.27D-01  6.12D-01  6.77D-01  7.28D-01
                    CP:  1.03D+00  9.22D-01  1.15D+00  9.84D-01
 E= -1989.34350126839     Delta-E=       -0.000000038620 Rises=F Damp=F
 DIIS: error= 1.92D-06 at cycle  10 NSaved=  10.
 NSaved=10 IEnMin=10 EnMin= -1989.34350126839     IErMin=10 ErrMin= 1.92D-06
 ErrMax= 1.92D-06  0.00D+00 EMaxC= 1.00D-01 BMatC= 3.77D-09 BMatP= 3.09D-08
 IDIUse=1 WtCom= 1.00D+00 WtEn= 0.00D+00
 Coeff-Com:  0.110D-04 0.181D-03 0.533D-03 0.803D-03-0.513D-03-0.195D-01
 Coeff-Com: -0.303D-01-0.145D-01 0.275D+00 0.788D+00
 Coeff:      0.110D-04 0.181D-03 0.533D-03 0.803D-03-0.513D-03-0.195D-01
 Coeff:     -0.303D-01-0.145D-01 0.275D+00 0.788D+00
 Gap=     0.256 Goal=   None    Shift=    0.000
 RMSDP=2.19D-07 MaxDP=1.44D-05 DE=-3.86D-08 OVMax= 3.39D-05

 Cycle  11  Pass 1  IDiag  1:
 RMSU=  1.06D-07    CP:  9.97D-01  7.27D-01  6.12D-01  6.77D-01  7.29D-01
                    CP:  1.03D+00  9.32D-01  1.19D+00  1.11D+00  9.62D-01
 E= -1989.34350127293     Delta-E=       -0.000000004540 Rises=F Damp=F
 DIIS: error= 9.94D-07 at cycle  11 NSaved=  11.
 NSaved=11 IEnMin=11 EnMin= -1989.34350127293     IErMin=11 ErrMin= 9.94D-07
 ErrMax= 9.94D-07  0.00D+00 EMaxC= 1.00D-01 BMatC= 8.39D-10 BMatP= 3.77D-09
 IDIUse=1 WtCom= 1.00D+00 WtEn= 0.00D+00
 Coeff-Com:  0.491D-05 0.110D-03 0.337D-03 0.605D-03 0.192D-03-0.798D-02
 Coeff-Com: -0.155D-01-0.296D-01 0.783D-01 0.419D+00 0.555D+00
 Coeff:      0.491D-05 0.110D-03 0.337D-03 0.605D-03 0.192D-03-0.798D-02
 Coeff:     -0.155D-01-0.296D-01 0.783D-01 0.419D+00 0.555D+00
 Gap=     0.256 Goal=   None    Shift=    0.000
 RMSDP=6.37D-08 MaxDP=6.11D-06 DE=-4.54D-09 OVMax= 1.06D-05

 Cycle  12  Pass 1  IDiag  1:
 RMSU=  4.27D-08    CP:  9.97D-01  7.27D-01  6.12D-01  6.77D-01  7.29D-01
                    CP:  1.03D+00  9.34D-01  1.20D+00  1.14D+00  1.04D+00
                    CP:  8.32D-01
 E= -1989.34350127358     Delta-E=       -0.000000000651 Rises=F Damp=F
 DIIS: error= 3.45D-07 at cycle  12 NSaved=  12.
 NSaved=12 IEnMin=12 EnMin= -1989.34350127358     IErMin=12 ErrMin= 3.45D-07
 ErrMax= 3.45D-07  0.00D+00 EMaxC= 1.00D-01 BMatC= 9.23D-11 BMatP= 8.39D-10
 IDIUse=1 WtCom= 1.00D+00 WtEn= 0.00D+00
 Coeff-Com: -0.151D-06 0.141D-04 0.479D-04 0.115D-03 0.294D-03 0.407D-03
 Coeff-Com: -0.570D-03-0.107D-01-0.220D-01 0.252D-01 0.247D+00 0.760D+00
 Coeff:     -0.151D-06 0.141D-04 0.479D-04 0.115D-03 0.294D-03 0.407D-03
 Coeff:     -0.570D-03-0.107D-01-0.220D-01 0.252D-01 0.247D+00 0.760D+00
 Gap=     0.256 Goal=   None    Shift=    0.000
 RMSDP=2.49D-08 MaxDP=2.38D-06 DE=-6.51D-10 OVMax= 5.06D-06

 Cycle  13  Pass 1  IDiag  1:
 RMSU=  1.35D-08    CP:  9.97D-01  7.27D-01  6.12D-01  6.77D-01  7.29D-01
                    CP:  1.03D+00  9.34D-01  1.20D+00  1.15D+00  1.08D+00
                    CP:  9.47D-01  9.07D-01
 E= -1989.34350127344     Delta-E=        0.000000000139 Rises=F Damp=F
 DIIS: error= 9.74D-08 at cycle  13 NSaved=  13.
 NSaved=13 IEnMin=12 EnMin= -1989.34350127358     IErMin=13 ErrMin= 9.74D-08
 ErrMax= 9.74D-08  0.00D+00 EMaxC= 1.00D-01 BMatC= 9.91D-12 BMatP= 9.23D-11
 IDIUse=1 WtCom= 1.00D+00 WtEn= 0.00D+00
 Coeff-Com: -0.524D-06-0.443D-05-0.113D-04-0.989D-05 0.118D-03 0.892D-03
 Coeff-Com:  0.126D-02-0.184D-02-0.171D-01-0.307D-01 0.476D-01 0.324D+00
 Coeff-Com:  0.676D+00
 Coeff:     -0.524D-06-0.443D-05-0.113D-04-0.989D-05 0.118D-03 0.892D-03
 Coeff:      0.126D-02-0.184D-02-0.171D-01-0.307D-01 0.476D-01 0.324D+00
 Coeff:      0.676D+00
 Gap=     0.256 Goal=   None    Shift=    0.000
 RMSDP=8.18D-09 MaxDP=6.10D-07 DE= 1.39D-10 OVMax= 9.87D-07

 Error on total polarization charges =  0.00377
 SCF Done:  E(RCAM-B3LYP) =  -1989.34350127     A.U. after   13 cycles
            NFock= 13  Conv=0.82D-08     -V/T= 2.0076
 KE= 1.974313149126D+03 PE=-1.228324994216D+04 EE= 4.521738671779D+03
 Leave Link  502 at Wed Feb  5 05:33:34 2025, MaxMem=  5368709120 cpu:       964.6
 (Enter /home/k0335/k033513/app/g09/l601.exe)
 Copying SCF densities to generalized density rwf, IOpCl= 0 IROHF=0.

 **********************************************************************

            Population analysis using the SCF density.

 **********************************************************************

 Alpha  occ. eigenvalues --  -24.84295 -24.82644 -24.82622 -24.82574 -24.82567
 Alpha  occ. eigenvalues --  -24.82495 -24.82194 -24.82024 -24.81849 -24.81613
 Alpha  occ. eigenvalues --  -19.31547 -19.30076 -19.25494 -19.21766 -14.45420
 Alpha  occ. eigenvalues --  -14.38898 -10.52539 -10.49374 -10.48961 -10.47821
 Alpha  occ. eigenvalues --  -10.46960 -10.44490 -10.42709 -10.39809 -10.30010
 Alpha  occ. eigenvalues --  -10.28166 -10.27621 -10.27251 -10.24994 -10.24948
 Alpha  occ. eigenvalues --  -10.24814  -1.40543  -1.38620  -1.38081  -1.37268
 Alpha  occ. eigenvalues --   -1.35438  -1.33720  -1.32610  -1.31727  -1.31097
 Alpha  occ. eigenvalues --   -1.30988  -1.22088  -1.19761  -1.13781  -1.12371
 Alpha  occ. eigenvalues --   -1.01862  -0.99727  -0.97535  -0.91062  -0.87888
 Alpha  occ. eigenvalues --   -0.87610  -0.84302  -0.82868  -0.81033  -0.77716
 Alpha  occ. eigenvalues --   -0.76561  -0.74213  -0.73771  -0.71321  -0.70774
 Alpha  occ. eigenvalues --   -0.70550  -0.69562  -0.68784  -0.67908  -0.66839
 Alpha  occ. eigenvalues --   -0.66373  -0.66241  -0.66036  -0.65119  -0.64371
 Alpha  occ. eigenvalues --   -0.64037  -0.63307  -0.62291  -0.59623  -0.58522
 Alpha  occ. eigenvalues --   -0.57859  -0.57481  -0.56704  -0.55955  -0.55746
 Alpha  occ. eigenvalues --   -0.55714  -0.55366  -0.55332  -0.54422  -0.54211
 Alpha  occ. eigenvalues --   -0.53853  -0.53131  -0.52721  -0.52512  -0.52190
 Alpha  occ. eigenvalues --   -0.51595  -0.51481  -0.51313  -0.50946  -0.50671
 Alpha  occ. eigenvalues --   -0.50251  -0.50079  -0.49546  -0.49240  -0.49113
 Alpha  occ. eigenvalues --   -0.48294  -0.47974  -0.47833  -0.45969  -0.45910
 Alpha  occ. eigenvalues --   -0.45728  -0.45322  -0.44238  -0.43926  -0.43460
 Alpha  occ. eigenvalues --   -0.42416  -0.41985  -0.41164  -0.40360  -0.38719
 Alpha  occ. eigenvalues --   -0.37722  -0.36961  -0.36594  -0.34543  -0.33476
 Alpha  occ. eigenvalues --   -0.25540
 Alpha virt. eigenvalues --    0.00073   0.02650   0.04374   0.07607   0.11212
 Alpha virt. eigenvalues --    0.12014   0.12139   0.13364   0.14207   0.14848
 Alpha virt. eigenvalues --    0.15681   0.16847   0.17463   0.18115   0.18533
 Alpha virt. eigenvalues --    0.19842   0.20157   0.21202   0.21598   0.21844
 Alpha virt. eigenvalues --    0.21983   0.22283   0.23729   0.23936   0.24161
 Alpha virt. eigenvalues --    0.24912   0.25995   0.26209   0.26933   0.27433
 Alpha virt. eigenvalues --    0.27741   0.28496   0.28754   0.29297   0.29846
 Alpha virt. eigenvalues --    0.30296   0.31014   0.31642   0.31853   0.32661
 Alpha virt. eigenvalues --    0.33876   0.34349   0.35176   0.36262   0.37795
 Alpha virt. eigenvalues --    0.38081   0.38644   0.40159   0.41199   0.44328
 Alpha virt. eigenvalues --    0.48344   0.50846   0.51457   0.53147   0.54747
 Alpha virt. eigenvalues --    0.55735   0.56196   0.56584   0.56945   0.57773
 Alpha virt. eigenvalues --    0.57980   0.59029   0.59820   0.60723   0.61409
 Alpha virt. eigenvalues --    0.62035   0.62609   0.62949   0.64223   0.64890
 Alpha virt. eigenvalues --    0.65238   0.66204   0.66463   0.67801   0.68212
 Alpha virt. eigenvalues --    0.69574   0.70290   0.70668   0.71361   0.71961
 Alpha virt. eigenvalues --    0.72898   0.73675   0.74070   0.75141   0.75794
 Alpha virt. eigenvalues --    0.77093   0.77234   0.79609   0.80237   0.80727
 Alpha virt. eigenvalues --    0.81848   0.82982   0.85420   0.85757   0.86573
 Alpha virt. eigenvalues --    0.86858   0.87203   0.88314   0.88820   0.89263
 Alpha virt. eigenvalues --    0.90025   0.91142   0.91561   0.92226   0.93066
 Alpha virt. eigenvalues --    0.94107   0.94259   0.94805   0.95985   0.96884
 Alpha virt. eigenvalues --    0.97141   0.97330   0.97630   0.98162   0.99738
 Alpha virt. eigenvalues --    1.00074   1.01195   1.01861   1.02672   1.03771
 Alpha virt. eigenvalues --    1.04470   1.05179   1.05813   1.06510   1.06923
 Alpha virt. eigenvalues --    1.08050   1.08545   1.09331   1.10734   1.11749
 Alpha virt. eigenvalues --    1.12949   1.13120   1.14641   1.15215   1.16722
 Alpha virt. eigenvalues --    1.16939   1.18739   1.20409   1.20625   1.20992
 Alpha virt. eigenvalues --    1.22264   1.23705   1.25380   1.27161   1.27700
 Alpha virt. eigenvalues --    1.29198   1.29511   1.30242   1.31596   1.32377
 Alpha virt. eigenvalues --    1.33440   1.33884   1.34240   1.35450   1.35877
 Alpha virt. eigenvalues --    1.36770   1.37548   1.37852   1.39209   1.40006
 Alpha virt. eigenvalues --    1.40373   1.40942   1.41901   1.42094   1.42731
 Alpha virt. eigenvalues --    1.43715   1.44130   1.44507   1.45518   1.47548
 Alpha virt. eigenvalues --    1.49286   1.49415   1.49793   1.50412   1.51460
 Alpha virt. eigenvalues --    1.52233   1.52837   1.55000   1.55242   1.55671
 Alpha virt. eigenvalues --    1.56757   1.57561   1.58544   1.59029   1.60923
 Alpha virt. eigenvalues --    1.61142   1.62653   1.63101   1.63883   1.64767
 Alpha virt. eigenvalues --    1.65830   1.66604   1.68018   1.68342   1.68838
 Alpha virt. eigenvalues --    1.69667   1.72080   1.72263   1.74111   1.74845
 Alpha virt. eigenvalues --    1.75114   1.75530   1.77011   1.77441   1.77950
 Alpha virt. eigenvalues --    1.79106   1.80160   1.81103   1.81513   1.81925
 Alpha virt. eigenvalues --    1.83358   1.84329   1.84530   1.85893   1.86129
 Alpha virt. eigenvalues --    1.86148   1.86861   1.87187   1.87595   1.88562
 Alpha virt. eigenvalues --    1.89537   1.89849   1.90528   1.90715   1.91199
 Alpha virt. eigenvalues --    1.91889   1.92553   1.92836   1.93562   1.94556
 Alpha virt. eigenvalues --    1.94704   1.95633   1.96896   1.97522   1.97888
 Alpha virt. eigenvalues --    1.98382   1.99496   2.00959   2.01402   2.02298
 Alpha virt. eigenvalues --    2.03217   2.03488   2.03800   2.04636   2.04895
 Alpha virt. eigenvalues --    2.05458   2.05947   2.06406   2.07179   2.07459
 Alpha virt. eigenvalues --    2.08643   2.08856   2.09033   2.09406   2.10175
 Alpha virt. eigenvalues --    2.10347   2.11108   2.12861   2.12926   2.13759
[...]
     9  C    0.000000   0.000000   0.000000   0.000000  -0.000006  -0.003266
    10  F    0.000000   0.000000   0.000000   0.000000   0.000000  -0.000481
    11  C    0.000000   0.000000   0.000000   0.000000   0.000000   0.000017
    12  O    0.000000   0.000000   0.000000   0.000000   0.000000   0.000000
    13  O    0.000000   0.000000   0.000000   0.000000   0.000000   0.000000
    14  F    0.000000   0.000000   0.000000   0.000000   0.000000   0.000007
    15  C    0.000000   0.000000   0.000000   0.000000   0.005473  -0.032183
    16  F    0.000000   0.000000   0.000000   0.000000  -0.000749   0.000065
    17  C    0.000000   0.000000   0.000000  -0.000002  -0.067728   0.228253
    18  F    0.000000   0.000000   0.000000   0.000000  -0.001127  -0.032490
    19  C    0.000000   0.000000  -0.000001  -0.000107   0.576625  -0.033508
    20  N    0.000000   0.000000   0.000002   0.000052  -0.097873  -0.001297
    21  C   -0.000031  -0.000054   0.000474  -0.003818   0.003628   0.000195
    22  C    0.004185   0.000414   0.001269  -0.042334  -0.002856   0.000000
    23  N   -0.046597  -0.014108  -0.048559   0.309853   0.000006   0.000000
    24  C    0.382119  -0.044900  -0.009185  -0.058269  -0.000001   0.000000
    25  C    4.933548   0.370895  -0.055635  -0.009436   0.000000   0.000000
    26  C    0.370895   4.907615   0.371903  -0.042964   0.000000   0.000000
    27  C   -0.055635   0.371903   4.955950   0.366382   0.000005   0.000000
    28  C   -0.009436  -0.042964   0.366382   4.801452  -0.000356   0.000000
    29  O    0.000000   0.000000   0.000005  -0.000356   8.080265   0.000912
    30  F    0.000000   0.000000   0.000000   0.000000   0.000912   9.142451
    31  O    0.000000   0.000000   0.000000   0.000000   0.001029   0.000875
    32  H    0.000000   0.000000   0.000000   0.000000   0.000000   0.000000
    33  H    0.000000   0.000000   0.000000   0.000003   0.002759   0.017303
    34  H   -0.000100  -0.000011   0.000173  -0.000471   0.000434  -0.000005
    35  H   -0.000006   0.000001  -0.001120   0.003866   0.009712  -0.000016
    36  H    0.000222   0.000002  -0.000306   0.005144   0.000007  -0.000002
    37  H   -0.000192  -0.000015  -0.000143  -0.006166   0.003161   0.000000
    38  H   -0.021182   0.004659  -0.000197   0.005230   0.000000   0.000000
    39  H   -0.050301  -0.004953   0.001985  -0.001393   0.000000   0.000000
    40  H    0.382917  -0.036701  -0.001163   0.001805   0.000000   0.000000
    41  H    0.382734  -0.032085   0.004700  -0.000057   0.000000   0.000000
    42  H   -0.035455   0.388988  -0.033895  -0.002148   0.000000   0.000000
    43  H   -0.033988   0.387032  -0.035160   0.004405   0.000000   0.000000
    44  H    0.004891  -0.033001   0.377616  -0.027566   0.000000   0.000000
    45  H   -0.002209  -0.038840   0.385659  -0.039663  -0.000006   0.000000
    46  H    0.001384  -0.005918  -0.056145   0.396144  -0.000001   0.000000
    47  H   -0.000172   0.004808  -0.025292   0.387819   0.001462   0.000000
              31         32         33         34         35         36
     1  F   -0.044554   0.000000   0.000000   0.000000   0.000000   0.000000
     2  C    0.195890   0.000001   0.000000   0.000000   0.000000   0.000000
     3  F   -0.046838   0.000000   0.000000   0.000000   0.000000   0.000000
     4  C   -0.041167  -0.000033   0.000000   0.000000   0.000000   0.000000
     5  F    0.000189   0.000000   0.000000   0.000000   0.000000   0.000000
     6  F    0.000862  -0.000022   0.000000   0.000000   0.000000   0.000000
     7  C   -0.033804  -0.000240  -0.000039   0.000000   0.000000   0.000000
     8  F    0.000870   0.000002   0.000001   0.000000   0.000000   0.000000
     9  C   -0.000283   0.008562   0.000002   0.000000   0.000000   0.000000
    10  F    0.000027  -0.000128   0.000002   0.000000   0.000000   0.000000
    11  C   -0.000126  -0.012787   0.000000   0.000000   0.000000   0.000000
    12  O    0.000001   0.285323   0.000000   0.000000   0.000000   0.000000
    13  O    0.000000   0.004857   0.000000   0.000000   0.000000   0.000000
    14  F   -0.001930  -0.000140   0.000000   0.000000   0.000000   0.000000
    15  C    0.159420   0.000003   0.000804  -0.000003  -0.000040  -0.000007
    16  F   -0.045453   0.000000   0.000313   0.000000   0.000000   0.000003
    17  C   -0.039536   0.000000  -0.004401  -0.000130   0.000434   0.000029
    18  F    0.002454   0.000000   0.000293   0.000001  -0.000003   0.000000
    19  C   -0.002757   0.000000  -0.029006   0.005114  -0.003703   0.000165
    20  N    0.000149   0.000000   0.346563  -0.032785  -0.037523   0.003387
    21  C   -0.000001   0.000000  -0.023656   0.385719   0.392974  -0.058434
    22  C    0.000000   0.000000   0.000303  -0.038263  -0.039774   0.388292
    23  N    0.000000   0.000000  -0.000053   0.000260  -0.001485  -0.040227
    24  C    0.000000   0.000000   0.000000   0.002274  -0.000123  -0.003699
    25  C    0.000000   0.000000   0.000000  -0.000100  -0.000006   0.000222
    26  C    0.000000   0.000000   0.000000  -0.000011   0.000001   0.000002
    27  C    0.000000   0.000000   0.000000   0.000173  -0.001120  -0.000306
    28  C    0.000000   0.000000   0.000003  -0.000471   0.003866   0.005144
    29  O    0.001029   0.000000   0.002759   0.000434   0.009712   0.000007
    30  F    0.000875   0.000000   0.017303  -0.000005  -0.000016  -0.000002
    31  O    8.366852   0.000000  -0.000003   0.000000   0.000000   0.000000
    32  H    0.000000   0.357038   0.000000   0.000000   0.000000   0.000000
    33  H   -0.000003   0.000000   0.395752  -0.004110   0.003589   0.001120
    34  H    0.000000   0.000000  -0.004110   0.593484  -0.030582  -0.005678
    35  H    0.000000   0.000000   0.003589  -0.030582   0.556676   0.005098
    36  H    0.000000   0.000000   0.001120  -0.005678   0.005098   0.631603
    37  H    0.000001   0.000000  -0.000147   0.005069  -0.005254  -0.028770
    38  H    0.000000   0.000000   0.000000   0.000172   0.000026   0.006651
    39  H    0.000000   0.000000   0.000010   0.000575   0.000170  -0.002023
    40  H    0.000000   0.000000   0.000000   0.000000   0.000000  -0.000043
    41  H    0.000000   0.000000   0.000000   0.000004  -0.000001  -0.000011
    42  H    0.000000   0.000000   0.000000   0.000000   0.000001   0.000000
    43  H    0.000000   0.000000   0.000000  -0.000002  -0.000003  -0.000001
    44  H    0.000000   0.000000   0.000000   0.000001   0.000080   0.000007
    45  H    0.000000   0.000000   0.000000   0.000059   0.001244  -0.000029
    46  H    0.000000   0.000000   0.000000  -0.000008  -0.000043  -0.000106
    47  H    0.000000   0.000000   0.000000   0.000079   0.001654   0.000102
              37         38         39         40         41         42
     1  F    0.000000   0.000000   0.000000   0.000000   0.000000   0.000000
     2  C    0.000000   0.000000   0.000000   0.000000   0.000000   0.000000
     3  F    0.000000   0.000000   0.000000   0.000000   0.000000   0.000000
     4  C    0.000000   0.000000   0.000000   0.000000   0.000000   0.000000
     5  F    0.000000   0.000000   0.000000   0.000000   0.000000   0.000000
     6  F    0.000000   0.000000   0.000000   0.000000   0.000000   0.000000
     7  C    0.000001   0.000000   0.000000   0.000000   0.000000   0.000000
     8  F    0.000000   0.000000   0.000000   0.000000   0.000000   0.000000
     9  C    0.000000   0.000000   0.000000   0.000000   0.000000   0.000000
    10  F    0.000000   0.000000   0.000000   0.000000   0.000000   0.000000
    11  C    0.000000   0.000000   0.000000   0.000000   0.000000   0.000000
    12  O    0.000000   0.000000   0.000000   0.000000   0.000000   0.000000
    13  O    0.000000   0.000000   0.000000   0.000000   0.000000   0.000000
    14  F    0.000000   0.000000   0.000000   0.000000   0.000000   0.000000
    15  C    0.000032   0.000000   0.000000   0.000000   0.000000   0.000000
    16  F    0.000233   0.000000   0.000000   0.000000   0.000000   0.000000
    17  C   -0.000046   0.000000   0.000000   0.000000   0.000000   0.000000
    18  F    0.000000   0.000000   0.000000   0.000000   0.000000   0.000000
    19  C    0.006335   0.000001  -0.000010   0.000000   0.000000   0.000000
    20  N   -0.004747   0.000018  -0.000247   0.000000   0.000000   0.000000
    21  C   -0.054492  -0.001580   0.005092   0.000019   0.000006   0.000002
    22  C    0.395390  -0.004627  -0.002579   0.000229  -0.000143   0.000000
    23  N   -0.035080  -0.048339  -0.060121   0.000651   0.003823   0.000025
    24  C    0.005052   0.390812   0.369167  -0.038864  -0.030134   0.004333
    25  C   -0.000192  -0.021182  -0.050301   0.382917   0.382734  -0.035455
    26  C   -0.000015   0.004659  -0.004953  -0.036701  -0.032085   0.388988
    27  C   -0.000143  -0.000197   0.001985  -0.001163   0.004700  -0.033895
    28  C   -0.006166   0.005230  -0.001393   0.001805  -0.000057  -0.002148
    29  O    0.003161   0.000000   0.000000   0.000000   0.000000   0.000000
    30  F    0.000000   0.000000   0.000000   0.000000   0.000000   0.000000
    31  O    0.000001   0.000000   0.000000   0.000000   0.000000   0.000000
    32  H    0.000000   0.000000   0.000000   0.000000   0.000000   0.000000
    33  H   -0.000147   0.000000   0.000010   0.000000   0.000000   0.000000
    34  H    0.005069   0.000172   0.000575   0.000000   0.000004   0.000000
    35  H   -0.005254   0.000026   0.000170   0.000000  -0.000001   0.000001
    36  H   -0.028770   0.006651  -0.002023  -0.000043  -0.000011   0.000000
    37  H    0.595692   0.000216  -0.000351  -0.000019   0.000003   0.000000
    38  H    0.000216   0.640353  -0.058043  -0.006223  -0.003350  -0.000158
    39  H   -0.000351  -0.058043   0.727371   0.007234  -0.000859  -0.000006
    40  H   -0.000019  -0.006223   0.007234   0.617438  -0.031958  -0.009137
    41  H    0.000003  -0.003350  -0.000859  -0.031958   0.616845   0.001766
    42  H    0.000000  -0.000158  -0.000006  -0.009137   0.001766   0.621951
    43  H    0.000000  -0.000120   0.002487   0.005094  -0.009413  -0.035684
    44  H    0.000010   0.000008  -0.000238  -0.000166  -0.000129  -0.008818
    45  H    0.000065   0.000026  -0.002211  -0.000182  -0.000058   0.005205
    46  H    0.001173   0.000152  -0.000760  -0.001873  -0.000054   0.002461
    47  H    0.001350  -0.000214   0.000318   0.000036   0.000003  -0.000110
              43         44         45         46         47
     1  F    0.000000   0.000000   0.000000   0.000000   0.000000
     2  C    0.000000   0.000000   0.000000   0.000000   0.000000
     3  F    0.000000   0.000000   0.000000   0.000000   0.000000
     4  C    0.000000   0.000000   0.000000   0.000000   0.000000
     5  F    0.000000   0.000000   0.000000   0.000000   0.000000
     6  F    0.000000   0.000000   0.000000   0.000000   0.000000
     7  C    0.000000   0.000000   0.000000   0.000000   0.000000
     8  F    0.000000   0.000000   0.000000   0.000000   0.000000
     9  C    0.000000   0.000000   0.000000   0.000000   0.000000
    10  F    0.000000   0.000000   0.000000   0.000000   0.000000
    11  C    0.000000   0.000000   0.000000   0.000000   0.000000
    12  O    0.000000   0.000000   0.000000   0.000000   0.000000
    13  O    0.000000   0.000000   0.000000   0.000000   0.000000
    14  F    0.000000   0.000000   0.000000   0.000000   0.000000
    15  C    0.000000   0.000000   0.000000   0.000000   0.000000
    16  F    0.000000   0.000000   0.000000   0.000000   0.000000
    17  C    0.000000   0.000000   0.000000   0.000000   0.000005
    18  F    0.000000   0.000000   0.000000   0.000000   0.000000
    19  C    0.000000   0.000000  -0.000005   0.000002   0.000109
    20  N    0.000000   0.000000   0.000030   0.000007  -0.000429
    21  C    0.000004  -0.000061   0.001243  -0.000281   0.000267
    22  C    0.000006  -0.000078  -0.000004   0.001841  -0.005547
    23  N    0.000047   0.004396  -0.002194  -0.053008  -0.041425
    24  C   -0.001587   0.000035   0.003329   0.001459   0.004588
    25  C   -0.033988   0.004891  -0.002209   0.001384  -0.000172
    26  C    0.387032  -0.033001  -0.038840  -0.005918   0.004808
    27  C   -0.035160   0.377616   0.385659  -0.056145  -0.025292
    28  C    0.004405  -0.027566  -0.039663   0.396144   0.387819
    29  O    0.000000   0.000000  -0.000006  -0.000001   0.001462
    30  F    0.000000   0.000000   0.000000   0.000000   0.000000
    31  O    0.000000   0.000000   0.000000   0.000000   0.000000
    32  H    0.000000   0.000000   0.000000   0.000000   0.000000
    33  H    0.000000   0.000000   0.000000   0.000000   0.000000
    34  H   -0.000002   0.000001   0.000059  -0.000008   0.000079
    35  H   -0.000003   0.000080   0.001244  -0.000043   0.001654
    36  H   -0.000001   0.000007  -0.000029  -0.000106   0.000102
    37  H    0.000000   0.000010   0.000065   0.001173   0.001350
    38  H   -0.000120   0.000008   0.000026   0.000152  -0.000214
    39  H    0.002487  -0.000238  -0.002211  -0.000760   0.000318
    40  H    0.005094  -0.000166  -0.000182  -0.001873   0.000036
    41  H   -0.009413  -0.000129  -0.000058  -0.000054   0.000003
    42  H   -0.035684  -0.008818   0.005205   0.002461  -0.000110
    43  H    0.627359   0.001379  -0.008970   0.000000  -0.000163
    44  H    0.001379   0.618371  -0.032983  -0.000713  -0.003105
    45  H   -0.008970  -0.032983   0.632501   0.006188  -0.005594
    46  H    0.000000  -0.000713   0.006188   0.651070  -0.041301
    47  H   -0.000163  -0.003105  -0.005594  -0.041301   0.609401
 Mulliken charges:
               1
     1  F   -0.241927
     2  C    0.785125
     3  F   -0.244356
     4  C    0.498181
     5  F   -0.254345
     6  F   -0.261756
     7  C    0.184622
     8  F   -0.280146
     9  C    0.605783
    10  F   -0.271181
    11  C    0.529035
    12  O   -0.463693
    13  O   -0.433580
    14  F   -0.265852
    15  C    0.464068
    16  F   -0.293390
    17  C    0.566122
    18  F   -0.263425
    19  C    0.542800
    20  N   -0.533889
    21  C   -0.066351
    22  C   -0.041697
    23  N   -0.429385
    24  C   -0.024449
    25  C   -0.207592
    26  C   -0.182765
    27  C   -0.199312
    28  C   -0.047406
    29  O   -0.515029
    30  F   -0.294025
    31  O   -0.472166
    32  H    0.357565
    33  H    0.292601
    34  H    0.118735
    35  H    0.144152
    36  H    0.097506
    37  H    0.121639
    38  H    0.095710
    39  H    0.069687
    40  H    0.110909
    41  H    0.098368
    42  H    0.100684
    43  H    0.097278
    44  H    0.100066
    45  H    0.097401
    46  H    0.098329
    47  H    0.111352
 Sum of Mulliken charges =   0.00000
 Mulliken charges with hydrogens summed into heavy atoms:
               1
     1  F   -0.241927
     2  C    0.785125
     3  F   -0.244356
     4  C    0.498181
     5  F   -0.254345
     6  F   -0.261756
     7  C    0.184622
     8  F   -0.280146
     9  C    0.605783
    10  F   -0.271181
    11  C    0.529035
    12  O   -0.106128
    13  O   -0.433580
    14  F   -0.265852
    15  C    0.464068
    16  F   -0.293390
    17  C    0.566122
    18  F   -0.263425
    19  C    0.542800
    20  N   -0.241289
    21  C    0.196537
    22  C    0.177447
    23  N   -0.429385
    24  C    0.140948
    25  C    0.001686
    26  C    0.015196
    27  C   -0.001845
    28  C    0.162275
    29  O   -0.515029
    30  F   -0.294025
    31  O   -0.472166
 Electronic spatial extent (au):  <R**2>=          19058.8524
 Charge=              0.0000 electrons
 Dipole moment (field-independent basis, Debye):
    X=              0.0321    Y=             -2.2764    Z=              1.3065  Tot=              2.6249
 Quadrupole moment (field-independent basis, Debye-Ang):
   XX=           -140.1458   YY=           -175.7378   ZZ=           -174.9756
   XY=            -12.6741   XZ=             -0.0600   YZ=             -5.4930
 Traceless Quadrupole moment (field-independent basis, Debye-Ang):
   XX=             23.4739   YY=            -12.1180   ZZ=            -11.3559
   XY=            -12.6741   XZ=             -0.0600   YZ=             -5.4930
 Octapole moment (field-independent basis, Debye-Ang**2):
  XXX=            425.2020  YYY=           -173.8245  ZZZ=             53.9113  XYY=            256.1799
  XXY=             54.1455  XXZ=             56.2430  XZZ=            228.4643  YZZ=            -52.5201
  YYZ=             14.5699  XYZ=              3.8031
 Hexadecapole moment (field-independent basis, Debye-Ang**3):
 XXXX=         -15423.5707 YYYY=          -1936.4378 ZZZZ=          -1595.7594 XXXY=            599.4589
 XXXZ=           -597.3433 YYYX=           1536.6774 YYYZ=            198.5092 ZZZX=           -294.5992
 ZZZY=            203.5023 XXYY=          -3511.1341 XXZZ=          -3409.6766 YYZZ=           -587.4656
 XXYZ=             23.4407 YYXZ=            -89.7610 ZZXY=            509.7730
 N-N= 3.787409330344D+03 E-N=-1.226320286076D+04  KE= 1.974744085898D+03
 No NMR shielding tensors so no spin-rotation constants.
 Leave Link  601 at Wed Feb  5 05:47:49 2025, MaxMem=  5368709120 cpu:         2.7
 (Enter /home/k0335/k033513/app/g09/l9999.exe)
 1\1\GINC-C18U04N1\FOpt\RCAM-B3LYP\6-31G(d,p)\C15H16F10N2O4\K033513\05-
 Feb-2025\0\\#p CAM-B3LYP/6-31G(d,p) opt SCRF=(PCM,Solvent=Generic,Read
 ) NoSymm out=wfn\\Title AEP1_neu\\0,1\F,-4.0198528486,3.3947110331,-1.
 1174889543\C,-3.4286649747,2.2762674281,-1.5371448925\F,-2.8048209224,
 2.5396618836,-2.687173116\C,-4.4566465714,1.1267406856,-1.7067852489\F
 ,-4.2094691311,0.4475149016,-2.8321721209\F,-5.711903831,1.6138809319,
 -1.754851069\C,-4.2029276192,0.2139957711,-0.4866669858\F,-4.381816115
 6,-1.0899840726,-0.7993800051\C,-5.1329966244,0.5778100338,0.687019644
 6\F,-4.8545952023,-0.2293778498,1.7348185905\C,-6.6293320358,0.3705778
 724,0.3756103047\O,-7.3470020072,1.4367073494,0.7038197091\O,-7.053711
 8449,-0.6634390197,-0.0616587852\F,-4.8852357128,1.856462796,1.0381750
 664\C,-2.6886056923,0.5150159178,-0.2762340089\F,-2.0349535925,-0.2599
 556213,-1.2006667604\C,-2.0196681463,0.1939911385,1.0668688944\F,-2.48
 32642082,1.0211104105,2.0188412036\C,-0.4824646264,0.3233586737,0.9938
 717178\N,0.1819156717,-0.8390603342,1.0794763263\C,1.6308704325,-0.879
 6530583,0.9608043478\C,2.0797840849,-0.9342445062,-0.5126910592\N,3.50
 22718913,-0.8334453851,-0.7370271864\C,4.2783931398,-1.9945713917,-0.3
 192946807\C,5.762549054,-1.7261995864,-0.5365927561\C,6.2583983566,-0.
 5825768958,0.369999316\C,5.1196203656,0.3939078978,0.7122213953\C,4.10
 73901673,0.4694296846,-0.430132252\O,0.0146965956,1.4281512882,0.87789
 46218\F,-2.3785084279,-1.0833796823,1.3811484362\O,-2.5239007303,1.855
 9637652,-0.5792425395\H,-8.279989681,1.2298045517,0.5249278788\H,-0.34
 78962917,-1.694398296,1.1433613197\H,1.9927021761,-1.7436745729,1.5211
 600397\H,2.0221206107,0.0221142428,1.4359761191\H,1.7198874261,-1.8699
 926953,-0.9579618342\H,1.5773704006,-0.1191440031,-1.0435913734\H,3.95
 37257263,-2.8582719284,-0.9119392582\H,4.1201667575,-2.2671816433,0.74
 07640523\H,5.905118021,-1.4628579505,-1.5897511721\H,6.3369568392,-2.6
 394099142,-0.3578796561\H,7.0718719166,-0.0487254223,-0.1311614944\H,6
 .6800025867,-0.9890705607,1.2947747555\H,5.5155933316,1.3912451073,0.9
 257892476\H,4.6039934475,0.0638580857,1.6210374905\H,4.6100155421,0.86
 53227869,-1.3243527787\H,3.3128112968,1.1810111525,-0.1855594899\\Vers
 ion=ES64L-G09RevD.01\HF=-1989.3757646\RMSD=9.828e-09\RMSF=4.023e-06\Di
 pole=0.0126323,-0.8956099,0.5140088\Quadrupole=17.4523011,-9.0094606,-
 8.4428406,-9.4228814,-0.0446108,-4.0838768\PG=C01 [X(C15H16F10N2O4)]\\
 @

 Writing a WFN file to "cytopopt/AEP1/AEP1_neu.wfn"


 One man practicing sportsmanship is far better than 50 preaching it.
 -- Knute K. Rockne
 Job cpu time:       0 days  5 hours 34 minutes 44.8 seconds.
 File lengths (MBytes):  RWF=    558 Int=      0 D2E=      0 Chk=     26 Scr=      1
 Normal termination of Gaussian 09 at Wed Feb  5 05:47:49 2025.
