 Entering Gaussian System, Link 0=g09
 Initial command:
 /home/k0335/k033513/app/g09/l1.exe "/home/k0335/k033513/app/g09/scratch/Gau-524962.inp" -scrdir="/home/k0335/k033513/app/g09/scratch/"
 Default is to use a total of  36 processors:
                               36 via shared-memory
                                1 via Linda
 Entering Link 1 = /home/k0335/k033513/app/g09/l1.exe PID=    524963.
  
 Copyright (c) 1988,1990,1992,1993,1995,1998,2003,2009,2013,
            Gaussian, Inc.  All Rights Reserved.
  
 This is part of the Gaussian(R) 09 program.  It is based on
 the Gaussian(R) 03 system (copyright 2003, Gaussian, Inc.),
 the Gaussian(R) 98 system (copyright 1998, Gaussian, Inc.),
 the Gaussian(R) 94 system (copyright 1995, Gaussian, Inc.),
 the Gaussian 92(TM) system (copyright 1992, Gaussian, Inc.),
 the Gaussian 90(TM) system (copyright 1990, Gaussian, Inc.),
 the Gaussian 88(TM) system (copyright 1988, Gaussian, Inc.),
 the Gaussian 86(TM) system (copyright 1986, Carnegie Mellon
 University), and the Gaussian 82(TM) system (copyright 1983,
 Carnegie Mellon University). Gaussian is a federally registered
 trademark of Gaussian, Inc.
  
 This software contains proprietary and confidential information,
 including trade secrets, belonging to Gaussian, Inc.
  
 This software is provided under written license and may be
 used, copied, transmitted, or stored only in accord with that
 written license.
  
 The following legend is applicable only to US Government
 contracts under FAR:
  
                    RESTRICTED RIGHTS LEGEND
  
 Use, reproduction and disclosure by the US Government is
 subject to restrictions as set forth in subparagraphs (a)
 and (c) of the Commercial Computer Software - Restricted
 Rights clause in FAR 52.227-19.
  
 Gaussian, Inc.
 340 Quinnipiac St., Bldg. 40, Wallingford CT 06492
  
  
 ---------------------------------------------------------------
 Warning -- This program may not be used in any manner that
 competes with the business of Gaussian, Inc. or will provide
 assistance to any competitor of Gaussian, Inc.  The licensee
 of this program is prohibited from giving any competitor of
 Gaussian, Inc. access to this program.  By using this program,
 the user acknowledges that Gaussian, Inc. is engaged in the
 business of creating and licensing software in the field of
 computational chemistry and represents and warrants to the
 licensee that it is not a competitor of Gaussian, Inc. and that
 it will not use this program in any manner prohibited above.
 ---------------------------------------------------------------
  

 Cite this work as:
 Gaussian 09, Revision D.01,
 M. J. Frisch, G. W. Trucks, H. B. Schlegel, G. E. Scuseria, 
 M. A. Robb, J. R. Cheeseman, G. Scalmani, V. Barone, B. Mennucci, 
 G. A. Petersson, H. Nakatsuji, M. Caricato, X. Li, H. P. Hratchian, 
 A. F. Izmaylov, J. Bloino, G. Zheng, J. L. Sonnenberg, M. Hada, 
 M. Ehara, K. Toyota, R. Fukuda, J. Hasegawa, M. Ishida, T. Nakajima, 
 Y. Honda, O. Kitao, H. Nakai, T. Vreven, J. A. Montgomery, Jr., 
 J. E. Peralta, F. Ogliaro, M. Bearpark, J. J. Heyd, E. Brothers, 
 K. N. Kudin, V. N. Staroverov, T. Keith, R. Kobayashi, J. Normand, 
 K. Raghavachari, A. Rendell, J. C. Burant, S. S. Iyengar, J. Tomasi, 
 M. Cossi, N. Rega, J. M. Millam, M. Klene, J. E. Knox, J. B. Cross, 
 V. Bakken, C. Adamo, J. Jaramillo, R. Gomperts, R. E. Stratmann, 
 O. Yazyev, A. J. Austin, R. Cammi, C. Pomelli, J. W. Ochterski, 
 R. L. Martin, K. Morokuma, V. G. Zakrzewski, G. A. Voth, 
 P. Salvador, J. J. Dannenberg, S. Dapprich, A. D. Daniels, 
 O. Farkas, J. B. Foresman, J. V. Ortiz, J. Cioslowski, 
 and D. J. Fox, Gaussian, Inc., Wallingford CT, 2013.
 
 ******************************************
 Gaussian 09:  ES64L-G09RevD.01 24-Apr-2013
                 3-Mar-2024 
 ******************************************
 %nprocshared=24
 Will use up to   24 processors via shared memory.
 %mem=40GB
 %rwf=A1342961131/A1342961131_0.rwf
 %nosave
 %chk=A1342961131/A1342961131_0.chk
 ----------------------------------------------------------------------
 #p CAM-B3LYP/6-31G(d,p) SCRF=(PCM,Solvent=Generic,Read) NoSymm out=wfn
 ----------------------------------------------------------------------
 1/38=1,40=2/1;
 2/12=2,15=1,17=6,18=5,40=1/2;
 3/5=1,6=6,7=101,11=2,16=1,25=1,30=1,70=2203,72=-2,74=-40/1,2,3;
 4//1;
 5/5=2,38=5/2;
 6/7=2,8=2,9=2,10=2,28=1/1;
 99/5=1,6=100,9=1/99;
 Leave Link    1 at Sun Mar  3 17:46:01 2024, MaxMem=  5368709120 cpu:         1.0
 (Enter /home/k0335/k033513/app/g09/l101.exe)
 -------------------
 Title A1342961131_0
 -------------------
 Symbolic Z-matrix:
 Charge =  0 Multiplicity = 1
 C                    -0.50873  -3.31261   2.67883 
 N                    -0.50852  -2.27462   1.66179 
 C                     0.57229  -1.42423   1.60569 
 O                     1.55676  -1.5545    2.33326 
 N                     0.46978  -0.38001   0.71183 
 C                     1.60185   0.5567    0.60363 
 C                     2.64433   0.08136  -0.42093 
 F                     1.97005  -0.3612   -1.52954 
 F                     3.28318  -1.0192    0.06186 
 C                     3.67509   1.13299  -0.86254 
 F                     2.98728   2.2144   -1.3398 
 O                     4.39126   0.58282  -1.97771 
 C                     5.45494   1.38847  -2.40956 
 F                     5.78999   1.0274   -3.66182 
 F                     6.51265   1.18426  -1.60615 
 F                     5.11965   2.68814  -2.40613 
 C                     4.5172    1.54574   0.35521 
 F                     5.39582   2.52938   0.05842 
 F                     5.22647   0.51285   0.85571 
 F                     3.74379   2.02716   1.35626 
 C                    -0.6048   -0.20918  -0.13678 
 O                    -0.68278   0.78708  -0.85533 
 N                    -1.57574  -1.1761   -0.10003 
 C                    -2.76428  -0.98085  -0.91706 
 F                    -2.3858   -0.50328  -2.13861 
 F                    -3.29266  -2.20395  -1.21111 
 C                    -3.84904  -0.0564   -0.30454 
 F                    -4.34713  -0.63167   0.82872 
 O                    -3.24691   1.16855   0.13131 
 C                    -4.18218   2.1565    0.473 
 F                    -4.67888   2.70676  -0.64573 
 F                    -5.1723    1.64837   1.22193 
 F                    -3.55026   3.11095   1.18149 
 C                    -4.95115   0.03796  -1.36945 
 F                    -4.53457   0.70364  -2.46988 
 F                    -5.40071  -1.16986  -1.77314 
 F                    -6.03511   0.70483  -0.90232 
 C                    -1.66283  -2.07109   0.93558 
 O                    -2.71305  -2.64088   1.22686 
 H                     0.50157  -3.70065   2.83932 
 H                    -1.1626   -4.14134   2.39113 
 H                    -0.87447  -2.87759   3.61439 
 H                     2.05299   0.65155   1.59523 
 H                     1.21755   1.54134   0.31672 
 
 NAtoms=     44 NQM=       44 NQMF=       0 NMMI=      0 NMMIF=      0
                NMic=       0 NMicF=      0.
                    Isotopes and Nuclear Properties:
 (Nuclear quadrupole moments (NQMom) in fm**2, nuclear magnetic moments (NMagM)
  in nuclear magnetons)

  Atom         1           2           3           4           5           6           7           8           9          10
 IAtWgt=          12          14          12          16          14          12          12          19          19          12
 AtmWgt=  12.0000000  14.0030740  12.0000000  15.9949146  14.0030740  12.0000000  12.0000000  18.9984033  18.9984033  12.0000000
 NucSpn=           0           2           0           0           2           0           0           1           1           0
 AtZEff=   0.0000000   0.0000000   0.0000000   0.0000000   0.0000000   0.0000000   0.0000000   0.0000000   0.0000000   0.0000000
 NQMom=    0.0000000   2.0440000   0.0000000   0.0000000   2.0440000   0.0000000   0.0000000   0.0000000   0.0000000   0.0000000
 NMagM=    0.0000000   0.4037610   0.0000000   0.0000000   0.4037610   0.0000000   0.0000000   2.6288670   2.6288670   0.0000000
 AtZNuc=   6.0000000   7.0000000   6.0000000   8.0000000   7.0000000   6.0000000   6.0000000   9.0000000   9.0000000   6.0000000

  Atom        11          12          13          14          15          16          17          18          19          20
 IAtWgt=          19          16          12          19          19          19          12          19          19          19
 AtmWgt=  18.9984033  15.9949146  12.0000000  18.9984033  18.9984033  18.9984033  12.0000000  18.9984033  18.9984033  18.9984033
 NucSpn=           1           0           0           1           1           1           0           1           1           1
 AtZEff=   0.0000000   0.0000000   0.0000000   0.0000000   0.0000000   0.0000000   0.0000000   0.0000000   0.0000000   0.0000000
 NQMom=    0.0000000   0.0000000   0.0000000   0.0000000   0.0000000   0.0000000   0.0000000   0.0000000   0.0000000   0.0000000
 NMagM=    2.6288670   0.0000000   0.0000000   2.6288670   2.6288670   2.6288670   0.0000000   2.6288670   2.6288670   2.6288670
 AtZNuc=   9.0000000   8.0000000   6.0000000   9.0000000   9.0000000   9.0000000   6.0000000   9.0000000   9.0000000   9.0000000

  Atom        21          22          23          24          25          26          27          28          29          30
 IAtWgt=          12          16          14          12          19          19          12          19          16          12
 AtmWgt=  12.0000000  15.9949146  14.0030740  12.0000000  18.9984033  18.9984033  12.0000000  18.9984033  15.9949146  12.0000000
 NucSpn=           0           0           2           0           1           1           0           1           0           0
 AtZEff=   0.0000000   0.0000000   0.0000000   0.0000000   0.0000000   0.0000000   0.0000000   0.0000000   0.0000000   0.0000000
 NQMom=    0.0000000   0.0000000   2.0440000   0.0000000   0.0000000   0.0000000   0.0000000   0.0000000   0.0000000   0.0000000
 NMagM=    0.0000000   0.0000000   0.4037610   0.0000000   2.6288670   2.6288670   0.0000000   2.6288670   0.0000000   0.0000000
 AtZNuc=   6.0000000   8.0000000   7.0000000   6.0000000   9.0000000   9.0000000   6.0000000   9.0000000   8.0000000   6.0000000

  Atom        31          32          33          34          35          36          37          38          39          40
 IAtWgt=          19          19          19          12          19          19          19          12          16           1
 AtmWgt=  18.9984033  18.9984033  18.9984033  12.0000000  18.9984033  18.9984033  18.9984033  12.0000000  15.9949146   1.0078250
 NucSpn=           1           1           1           0           1           1           1           0           0           1
 AtZEff=   0.0000000   0.0000000   0.0000000   0.0000000   0.0000000   0.0000000   0.0000000   0.0000000   0.0000000   0.0000000
 NQMom=    0.0000000   0.0000000   0.0000000   0.0000000   0.0000000   0.0000000   0.0000000   0.0000000   0.0000000   0.0000000
 NMagM=    2.6288670   2.6288670   2.6288670   0.0000000   2.6288670   2.6288670   2.6288670   0.0000000   0.0000000   2.7928460
 AtZNuc=   9.0000000   9.0000000   9.0000000   6.0000000   9.0000000   9.0000000   9.0000000   6.0000000   8.0000000   1.0000000

  Atom        41          42          43          44
 IAtWgt=           1           1           1           1
 AtmWgt=   1.0078250   1.0078250   1.0078250   1.0078250
 NucSpn=           1           1           1           1
 AtZEff=   0.0000000   0.0000000   0.0000000   0.0000000
 NQMom=    0.0000000   0.0000000   0.0000000   0.0000000
 NMagM=    2.7928460   2.7928460   2.7928460   2.7928460
 AtZNuc=   1.0000000   1.0000000   1.0000000   1.0000000
 Leave Link  101 at Sun Mar  3 17:46:01 2024, MaxMem=  5368709120 cpu:         0.8
 (Enter /home/k0335/k033513/app/g09/l202.exe)
                          Input orientation:                          
 ---------------------------------------------------------------------
 Center     Atomic      Atomic             Coordinates (Angstroms)
 Number     Number       Type             X           Y           Z
 ---------------------------------------------------------------------
      1          6           0       -0.508733   -3.312614    2.678828
      2          7           0       -0.508516   -2.274621    1.661790
      3          6           0        0.572294   -1.424227    1.605686
      4          8           0        1.556762   -1.554503    2.333256
      5          7           0        0.469776   -0.380007    0.711829
      6          6           0        1.601848    0.556701    0.603629
      7          6           0        2.644329    0.081363   -0.420927
      8          9           0        1.970045   -0.361199   -1.529535
      9          9           0        3.283184   -1.019201    0.061863
     10          6           0        3.675094    1.132991   -0.862540
     11          9           0        2.987280    2.214401   -1.339799
     12          8           0        4.391265    0.582823   -1.977714
     13          6           0        5.454942    1.388470   -2.409560
     14          9           0        5.789986    1.027396   -3.661817
     15          9           0        6.512650    1.184262   -1.606151
     16          9           0        5.119653    2.688143   -2.406126
     17          6           0        4.517201    1.545737    0.355210
     18          9           0        5.395823    2.529381    0.058421
     19          9           0        5.226475    0.512846    0.855708
     20          9           0        3.743788    2.027161    1.356264
     21          6           0       -0.604803   -0.209175   -0.136782
     22          8           0       -0.682778    0.787080   -0.855331
     23          7           0       -1.575742   -1.176100   -0.100031
     24          6           0       -2.764280   -0.980849   -0.917062
     25          9           0       -2.385805   -0.503275   -2.138612
     26          9           0       -3.292664   -2.203947   -1.211113
     27          6           0       -3.849036   -0.056403   -0.304537
     28          9           0       -4.347131   -0.631667    0.828723
     29          8           0       -3.246907    1.168552    0.131307
     30          6           0       -4.182184    2.156495    0.472996
     31          9           0       -4.678882    2.706755   -0.645732
     32          9           0       -5.172305    1.648367    1.221934
     33          9           0       -3.550263    3.110949    1.181487
     34          6           0       -4.951150    0.037961   -1.369450
     35          9           0       -4.534572    0.703638   -2.469876
     36          9           0       -5.400705   -1.169858   -1.773140
     37          9           0       -6.035108    0.704826   -0.902317
     38          6           0       -1.662827   -2.071085    0.935576
     39          8           0       -2.713046   -2.640880    1.226855
     40          1           0        0.501570   -3.700648    2.839320
     41          1           0       -1.162600   -4.141341    2.391132
     42          1           0       -0.874469   -2.877587    3.614387
     43          1           0        2.052993    0.651546    1.595234
     44          1           0        1.217546    1.541344    0.316716
 ---------------------------------------------------------------------
                    Distance matrix (angstroms):
                    1          2          3          4          5
     1  C    0.000000
     2  N    1.453202   0.000000
     3  C    2.426161   1.376397   0.000000
     4  O    2.734345   2.287971   1.231059   0.000000
     5  N    3.664253   2.334319   1.378363   2.278158   0.000000
     6  C    4.871612   3.686424   2.447075   2.729620   1.473335
     7  C    5.573990   4.452954   3.266082   3.382955   2.494931
     8  F    5.706620   4.470906   3.593515   4.063980   2.697197
     9  F    5.146541   4.302654   3.145848   2.902810   2.957413
    10  C    7.057556   5.957068   4.717931   4.682207   3.878384
    11  F    7.675895   6.432841   5.267604   5.453655   4.156676
    12  O    7.801781   6.739349   5.608346   5.584535   4.851676
    13  C    9.140968   8.096725   6.919083   6.808172   6.141861
    14  F    9.935458   8.883425   7.809056   7.779929   7.029523
    15  F    9.374580   8.481750   7.239333   6.897868   6.658551
    16  F    9.671844   8.535412   7.326984   7.290815   6.384085
    17  C    7.366328   6.446714   5.093787   4.721054   4.496367
    18  F    8.709720   7.778846   6.425844   6.049080   5.758248
    19  F    7.130955   6.427275   5.096677   4.463617   4.841908
    20  F    6.953151   6.056465   4.693897   4.308818   4.114476
    21  C    4.191446   2.740474   2.428601   3.547303   1.379871
    22  O    5.415539   3.967402   3.538600   4.545947   2.268582
    23  N    3.664049   2.334466   2.754105   3.984552   2.340304
    24  C    4.843041   3.662348   4.206372   5.437375   3.670615
    25  F    5.884175   4.594011   4.859863   6.053637   4.036651
    26  F    4.910301   4.001256   4.845639   6.041627   4.602219
    27  C    5.537238   4.466095   5.006801   6.198783   4.448579
    28  F    5.034249   4.257730   5.043071   6.162077   4.824893
    29  O    5.836806   4.657961   4.845884   5.944648   4.068018
    30  C    6.947740   5.877402   6.058846   7.082907   5.303925
    31  F    8.042117   6.894252   7.050443   8.118864   6.154653
    32  F    6.962957   6.110175   6.525988   7.534836   6.017274
    33  F    7.263270   6.203812   6.143553   7.012469   5.344910
    34  C    6.881132   5.854353   6.441883   7.654991   5.821757
    35  F    7.671168   6.492289   6.871542   8.079210   6.028352
    36  F    6.952900   6.078878   6.867160   8.088064   6.423510
    37  F    7.713964   6.781959   7.381105   8.556284   6.789392
    38  C    2.431513   1.378857   2.421413   3.547692   2.730898
    39  O    2.723683   2.276679   3.523807   4.542642   3.937912
    40  H    1.094093   2.107227   2.590164   2.444477   3.943841
    41  H    1.094120   2.108177   3.318055   3.753666   4.430840
    42  H    1.094661   2.076084   2.870585   3.050038   4.058293
    43  H    4.842642   3.889500   2.549787   2.378566   2.085925
    44  H    5.667497   4.398875   3.297333   3.710225   2.099253
                    6          7          8          9         10
     6  C    0.000000
     7  C    1.537019   0.000000
     8  F    2.351276   1.370960   0.000000
     9  F    2.367249   1.361052   2.165606   0.000000
    10  C    2.603865   1.537342   2.363192   2.374878   0.000000
    11  F    2.905908   2.347721   2.775695   3.536721   1.367593
    12  O    3.800640   2.393080   2.637110   2.820319   1.434991
    13  C    4.961601   3.682762   3.997536   4.076928   2.372003
    14  F    5.996339   4.614489   4.589855   4.933397   3.509967
    15  F    5.421525   4.193453   4.798914   4.250526   2.933822
    16  F    5.096727   4.106525   4.470674   4.817467   2.624482
    17  C    3.088557   2.500886   3.698199   2.861426   1.537016
    18  F    4.310796   3.713931   4.755314   4.129853   2.399788
    19  F    3.633647   2.912637   4.130094   2.598795   2.396610
    20  F    2.704925   2.855407   4.144667   3.341849   2.393188
    21  C    2.450323   3.274448   2.931333   3.976436   4.543749
    22  O    2.720506   3.428758   2.968260   4.453398   4.371585
    23  N    3.687115   4.415109   3.908983   4.864153   5.786588
    24  C    4.872334   5.534211   4.813826   6.126303   6.777671
    25  F    4.954272   5.347382   4.400522   6.102926   6.406264
    26  F    5.905143   6.410532   5.585089   6.801902   7.733454
    27  C    5.559928   6.495869   5.954429   7.206233   7.637968
    28  F    6.070687   7.137965   6.748425   7.678539   8.386327
    29  O    4.909977   6.016112   5.684639   6.887175   6.993075
    30  C    6.002619   7.190727   6.942538   8.123164   8.035424
    31  F    6.755087   7.782843   7.375749   8.819180   8.503685
    32  F    6.889353   8.139672   7.913413   8.941867   9.104236
    33  F    5.779477   7.079484   7.062525   8.062735   7.765059
    34  C    6.863229   7.654599   6.934544   8.424399   8.710232
    35  F    6.864669   7.491464   6.657940   8.396141   8.376544
    36  F    7.593799   8.253279   7.418978   8.876929   9.407573
    37  F    7.785429   8.715106   8.100141   9.525360   9.719719
    38  C    4.203992   5.002472   4.711501   5.131555   6.480179
    39  O    5.406593   6.231152   5.892875   6.319954   7.708178
    40  H    4.932945   5.433621   5.691681   4.758340   6.865791
    41  H    5.736631   6.342840   6.282879   5.910858   7.861822
    42  H    5.195300   6.117277   6.394013   5.775821   7.538311
    43  H    1.093530   2.177083   3.285835   2.579921   2.983899
    44  H    1.095230   2.170569   2.755824   3.299727   2.756255
                   11         12         13         14         15
    11  F    0.000000
    12  O    2.245029   0.000000
    13  C    2.813522   1.402486   0.000000
    14  F    3.828304   2.233891   1.345651   0.000000
    15  F    3.682440   2.236082   1.343843   2.184631   0.000000
    16  F    2.430740   2.268581   1.342230   2.187278   2.200468
    17  C    2.379249   2.526974   2.923704   4.245605   2.821244
    18  F    2.802733   2.990664   2.719578   4.031314   2.414011
    19  F    3.567847   2.954785   3.388346   4.581521   2.857586
    20  F    2.806442   3.690630   4.185380   5.510680   4.141615
    21  C    4.497114   5.383028   6.666221   7.405964   7.399922
    22  O    3.967528   5.200709   6.359945   7.059093   7.245389
    23  N    5.818393   6.498052   7.832079   8.473232   8.559310
    24  C    6.593085   7.400802   8.683135   9.205552   9.551125
    25  F    6.074036   6.865433   8.070280   8.456161   9.072695
    26  F    7.679587   8.209539   9.532174   9.946962  10.381724
    27  C    7.277605   8.432716   9.647942  10.264341  10.516558
    28  F    8.160648   9.258004  10.518938  11.210646  11.276571
    29  O    6.490227   7.945610   9.067885   9.801691   9.913020
    30  C    7.395322   9.054637  10.088270  10.854295  10.938353
    31  F    7.713247   9.410251  10.370311  11.023349  11.335377
    32  F    8.570980  10.140759  11.233596  12.017007  12.031277
    33  F    7.064004   8.912903   9.846637  10.725625  10.618157
    34  C    8.231430   9.378037  10.544783  11.027508  11.523400
    35  F    7.754852   8.940212  10.013143  10.398175  11.091354
    36  F    9.055346   9.949694  11.171175  11.559697  12.144867
    37  F    9.158258  10.482396  11.608635  12.147088  12.576624
    38  C    6.720582   7.223747   8.591920   9.288758   9.159481
    39  O    7.915503   8.434024   9.806896  10.471720  10.381286
    40  H    7.657127   7.528723   8.830955   9.622189   8.930713
    41  H    8.457943   8.499997   9.870021  10.568467  10.161190
    42  H    8.086124   8.424606   9.723612  10.611644   9.915753
    43  H    3.453958   4.270620   5.306099   6.460880   5.515541
    44  H    2.515752   4.031831   5.040980   6.082769   5.644737
                   16         17         18         19         20
    16  F    0.000000
    17  C    3.048445   0.000000
    18  F    2.485049   1.351893   0.000000
    19  F    3.922103   1.349234   2.175031   0.000000
    20  F    4.060232   1.353531   2.160056   2.177629   0.000000
    21  C    6.805422   5.436607   6.598887   5.959040   5.112791
    22  O    6.299779   5.392657   6.389049   6.158095   5.101317
    23  N    8.067141   6.688766   7.896734   7.073622   6.378015
    24  C    8.822427   7.811676   8.936474   8.320217   7.521375
    25  F    8.160185   7.620308   8.635838   8.242892   7.495944
    26  F    9.804472   8.803834   9.975265   9.177605   8.602637
    27  C    9.611794   8.543772   9.606531   9.167067   8.046768
    28  F   10.540654   9.140114  10.271842   9.641814   8.532915
    29  O    8.873953   7.776489   8.749511   8.529532   7.148954
    30  C    9.751726   8.721594   9.594224   9.558813   7.976084
    31  F    9.955432   9.322971  10.100840  10.255908   8.683963
    32  F   10.962133   9.728734  10.668424  10.467003   8.925147
    33  F    9.392400   8.259334   9.035040   9.159007   7.376200
    34  C   10.465144   9.741535  10.738056  10.428849   9.326756
    35  F    9.856287   9.519708  10.408572  10.313775   9.215330
    36  F   11.223314  10.500914  11.558720  11.076068  10.180170
    37  F   11.429072  10.660194  11.615429  11.399595  10.123071
    38  C    8.934162   7.184078   8.471023   7.358367   6.797359
    39  O   10.146340   8.400238   9.687652   8.551008   7.968567
    40  H    9.468793   7.058374   8.396450   6.634228   6.746794
    41  H   10.446159   8.291440   9.641213   8.052283   7.949466
    42  H   10.156447   7.697931   9.010924   7.505122   7.105207
    43  H    5.437188   2.899924   4.130686   3.261460   2.192763
    44  H    4.894431   3.299882   4.301271   4.173707   2.774631
                   21         22         23         24         25
    21  C    0.000000
    22  O    1.230820   0.000000
    23  N    1.370772   2.285156   0.000000
    24  C    2.422325   2.731672   1.455433   0.000000
    25  F    2.695512   2.492414   2.294495   1.365102   0.000000
    26  F    3.515380   3.985515   2.288841   1.364414   2.138909
    27  C    3.252158   3.322654   2.542324   1.551284   2.388424
    28  F    3.887894   4.275086   2.973145   2.382249   3.559264
    29  O    2.991775   2.773758   2.888547   2.439658   2.947717
    30  C    4.331960   3.985673   4.269437   3.712902   4.137856
    31  F    5.035851   4.438235   5.000383   4.163862   4.217960
    32  F    5.114552   5.021225   4.760302   4.157724   4.866972
    33  F    4.629988   4.215622   4.890788   4.665243   5.043970
    34  C    4.524520   4.364000   3.805095   2.454593   2.732314
    35  F    4.660433   4.177324   4.231342   2.895283   2.486679
    36  F    5.157640   5.189491   4.174886   2.778368   3.109264
    37  F    5.559645   5.353168   4.905863   3.679678   4.037988
    38  C    2.395011   3.512400   1.371519   2.415384   3.525813
    39  O    3.495337   4.495375   2.280278   2.711956   4.000351
    40  H    4.719283   5.932354   4.396402   5.672168   6.583307
    41  H    4.707804   5.921071   3.894770   4.847498   5.937199
    42  H    4.611335   5.783157   4.145328   5.263367   6.404568
    43  H    3.287035   3.675334   4.402491   5.672959   5.914232
    44  H    2.567281   2.356659   3.919265   4.872228   4.815936
                   26         27         28         29         30
    26  F    0.000000
    27  C    2.396534   0.000000
    28  F    2.782965   1.365029   0.000000
    29  O    3.630143   1.432841   2.222087   0.000000
    30  C    4.758248   2.369064   2.815599   1.402685   0.000000
    31  F    5.133834   2.905185   3.664579   2.240627   1.342031
    32  F    4.928802   2.643368   2.456437   2.264254   1.341433
    33  F    5.834296   3.511360   3.842735   2.228858   1.346204
    34  C    2.793170   1.535448   2.375964   2.536721   2.911031
    35  F    3.403068   2.395061   3.563556   2.939452   3.300828
    36  F    2.414343   2.409202   2.858209   3.705931   4.194585
    37  F    4.009653   2.390757   2.762604   3.009566   2.726198
    38  C    2.698573   3.221232   3.047758   3.694781   4.943033
    39  O    2.543729   3.211722   2.620244   3.999626   5.073606
    40  H    5.748246   6.487845   6.080382   6.715171   7.864043
    41  H    4.611598   5.583036   4.990007   6.135642   7.242919
    42  H    5.439385   5.671428   4.986327   5.842221   6.793475
    43  H    6.678733   6.240534   6.572348   5.522619   6.511660
    44  H    6.058338   5.348739   5.995812   4.483825   5.436903
                   31         32         33         34         35
    31  F    0.000000
    32  F    2.202686   0.000000
    33  F    2.185379   2.184446   0.000000
    34  C    2.778553   3.059017   4.232377   0.000000
    35  F    2.713080   3.863765   4.482908   1.351888   0.000000
    36  F    4.101244   4.118862   5.520803   1.350515   2.178443
    37  F    2.431646   2.479343   4.038084   1.355687   2.169989
    38  C    5.867272   5.121793   5.520540   4.535889   5.248153
    39  O    5.997357   4.944251   5.812618   4.350414   5.307502
    40  H    8.946367   7.963715   8.097136   7.837289   8.540962
    41  H    8.275458   7.139011   7.730452   6.779502   7.646791
    42  H    7.987931   6.684271   6.995816   7.068124   7.952344
    43  H    7.386742   7.303283   6.133215   7.630456   7.741049
    44  H    6.087064   6.454539   5.093475   6.569332   6.446217
                   36         37         38         39         40
    36  F    0.000000
    37  F    2.162230   0.000000
    38  C    4.703306   5.495487   0.000000
    39  O    4.288052   5.173318   1.229825   0.000000
    40  H    7.906740   8.725606   3.311243   3.749254   0.000000
    41  H    6.643223   7.620595   2.579696   2.451695   1.778917
    42  H    7.240759   7.737344   2.906541   3.022698   1.780910
    43  H    8.379801   8.465104   4.653513   5.804386   4.785003
    44  H    7.451132   7.401810   4.661457   5.811102   5.861283
                   41         42         43         44
    41  H    0.000000
    42  H    1.782259   0.000000
    43  H    5.826256   5.010169   0.000000
    44  H    6.500862   5.897297   1.767575   0.000000
 Symmetry turned off by external request.
 Stoichiometry    C13H5F18N3O5
 Framework group  C1[X(C13H5F18N3O5)]
 Deg. of freedom   126
 Full point group                 C1      NOp   1
 Rotational constants (GHZ):      0.1767683      0.0468009      0.0438177
 Leave Link  202 at Sun Mar  3 17:46:01 2024, MaxMem=  5368709120 cpu:         0.0
 (Enter /home/k0335/k033513/app/g09/l301.exe)
 Standard basis: 6-31G(d,p) (6D, 7F)
 Ernie: Thresh=  0.10000D-02 Tol=  0.10000D-05 Strict=F.
   610 basis functions,  1127 primitive gaussians,   610 cartesian basis functions
   153 alpha electrons      153 beta electrons
       nuclear repulsion energy      5642.6222183873 Hartrees.
 IExCor=20419 DFT=T Ex+Corr=CAM-B3LYP ExCW=0 ScaHFX=  1.000000
 ScaDFX=  1.000000  1.000000  1.000000  0.810000 ScalE2=  1.000000  1.000000
 IRadAn=      0 IRanWt=     -1 IRanGd=            0 ICorTp=0 IEmpDi=  4
  HFx wShort=  0.000000 wLong=  0.330000 cFull=  0.190000 cShort=  0.000000 cLong=  0.460000
  DFx wShort=  0.000000 wLong=  0.330000 cFull=  0.190000 cShort=  0.000000 cLong=  0.460000
 NAtoms=   44 NActive=   44 NUniq=   44 SFac= 1.00D+00 NAtFMM=   60 NAOKFM=F Big=F
 Integral buffers will be    131072 words long.
 Raffenetti 2 integral format.
 Two-electron integral symmetry is turned off.
 Using the following non-standard input for PCM:
 eps=4.9
 --- end of non-standard input.
 ------------------------------------------------------------------------------
 Polarizable Continuum Model (PCM)
 =================================
 Model                : PCM (using non-symmetric T matrix).
 Atomic radii         : UFF (Universal Force Field).
 Polarization charges : Total charges.
 Charge compensation  : None.
 Solution method      : On-the-fly selection.
 Cavity type          : Scaled VdW (van der Waals Surface) (Alpha=1.100).
 Cavity algorithm     : GePol (No added spheres)
                        Default sphere list used, NSphG=   44.
                        Lebedev-Laikov grids with approx.  5.0 points / Ang**2.
                        Smoothing algorithm: Karplus/York (Gamma=1.0000).
                        Polarization charges: spherical gaussians, with
                                              point-specific exponents (IZeta= 3).
                        Self-potential: point-specific (ISelfS= 7).
                        Self-field    : sphere-specific E.n sum rule (ISelfD= 2).
 Solvent              : Generic,
                        Eps                           =   4.900000
                        Eps(infinity)                 =   0.000000
                        RSolv                         =   0.000000 Ang.
                        Molar volume                  =   0.000000 cm**3/mol
                        Thermal expansion coefficient =   0.000000 K**-1
                        Absolute temperature          = 298.150000 K
                        Numeral density               =   0.000000 Ang**-3
                        Hydrogen bond acidity         =   0.000000
                        Hydrogen bond basicity        =   0.000000
                        Surface tension at interface  =   0.000000 (cal/mol)*Ang**-2
                        Carbon aromaticity            =   0.000000
                        Electronegative halogenicity  =   0.000000
 ------------------------------------------------------------------------------
 GePol: Number of generator spheres                  =      44
 GePol: Total number of spheres                      =      44
 GePol: Number of exposed spheres                    =      44 (100.00%)
 GePol: Number of points                             =    3633
 GePol: Average weight of points                     =       0.13
 GePol: Minimum weight of points                     =   0.23D-10
 GePol: Maximum weight of points                     =    0.20577
 GePol: Number of points with low weight             =     163
 GePol: Fraction of low-weight points (<1% of avg)   =       4.49%
 GePol: Cavity surface area                          =    456.533 Ang**2
 GePol: Cavity volume                                =    527.322 Ang**3
 Leave Link  301 at Sun Mar  3 17:46:01 2024, MaxMem=  5368709120 cpu:         0.7
 (Enter /home/k0335/k033513/app/g09/l302.exe)
 NPDir=0 NMtPBC=     1 NCelOv=     1 NCel=       1 NClECP=     1 NCelD=      1
         NCelK=      1 NCelE2=     1 NClLst=     1 CellRange=     0.0.
 One-electron integrals computed using PRISM.
 NBasis=   610 RedAO= T EigKep=  1.23D-03  NBF=   610
 NBsUse=   610 1.00D-06 EigRej= -1.00D+00 NBFU=   610
 Precomputing XC quadrature grid using
 IXCGrd= 4 IRadAn=           0 IRanWt=          -1 IRanGd=           0 AccXCQ= 0.00D+00.
 Generated NRdTot=       0 NPtTot=           0 NUsed=           0 NTot=          32
 NSgBfM=   587   587   588   588   588 MxSgAt=    44 MxSgA2=    44.
 Leave Link  302 at Sun Mar  3 17:46:02 2024, MaxMem=  5368709120 cpu:        11.8
 (Enter /home/k0335/k033513/app/g09/l303.exe)
 DipDrv:  MaxL=1.
 Leave Link  303 at Sun Mar  3 17:46:02 2024, MaxMem=  5368709120 cpu:         0.8
 (Enter /home/k0335/k033513/app/g09/l401.exe)
 ExpMin= 1.61D-01 ExpMax= 7.00D+03 ExpMxC= 1.05D+03 IAcc=1 IRadAn=         1 AccDes= 0.00D+00
 Harris functional with IExCor=20419 and IRadAn=       1 diagonalized for initial guess.
 HarFok:  IExCor=20419 AccDes= 0.00D+00 IRadAn=         1 IDoV= 1 UseB2=F ITyADJ=14
 ICtDFT=  3500011 ScaDFX=  1.000000  1.000000  1.000000  1.000000
 FoFCou: FMM=F IPFlag=           0 FMFlag=      100000 FMFlg1=           0
         NFxFlg=           0 DoJE=T BraDBF=F KetDBF=T FulRan=T
         wScrn=  0.000000 ICntrl=     500 IOpCl=  0 I1Cent=   200000004 NGrid=           0
         NMat0=    1 NMatS0=      1 NMatT0=    0 NMatD0=    1 NMtDS0=    0 NMtDT0=    0
 Symmetry not used in FoFCou.
 Harris En= -2750.18079446507    
 JPrj=0 DoOrth=F DoCkMO=F.
 Leave Link  401 at Sun Mar  3 17:46:02 2024, MaxMem=  5368709120 cpu:        13.5
 (Enter /home/k0335/k033513/app/g09/l502.exe)
 Closed shell SCF:
 Using DIIS extrapolation, IDIIS=  1040.
 Two-electron integral symmetry not used.
 IVT=     1153238 IEndB=     1153238 NGot=  5368709120 MDV=  5367945233
 LenX=  5367945233 LenY=  5367572523
 Requested convergence on RMS density matrix=1.00D-08 within 128 cycles.
 Requested convergence on MAX density matrix=1.00D-06.
 Requested convergence on             energy=1.00D-06.
 No special actions if energy rises.
 Fock matrices will be formed incrementally for  20 cycles.

 Cycle   1  Pass 1  IDiag  1:
 FoFJK:  IHMeth= 1 ICntrl=       0 DoSepK=T KAlg= 0 I1Cent=   0 FoldK=F
 IRaf=         1 NMat=   1 IRICut=       1 DoRegI=T DoRafI=F ISym2E= 0.
 FoFCou: FMM=F IPFlag=           0 FMFlag=      100000 FMFlg1=           0
         NFxFlg=           0 DoJE=T BraDBF=F KetDBF=F FulRan=T
         wScrn=  0.000000 ICntrl=     500 IOpCl=  0 I1Cent=           0 NGrid=           0
         NMat0=    1 NMatS0=      1 NMatT0=    0 NMatD0=    1 NMtDS0=    0 NMtDT0=    0
 Symmetry not used in FoFCou.
 Inv3:  Mode=1 IEnd=    39596067.
 Iteration    1 A*A^-1 deviation from unit magnitude is 9.10D-15 for   3613.
 Iteration    1 A*A^-1 deviation from orthogonality  is 9.19D-15 for   3602    179.
 Iteration    1 A^-1*A deviation from unit magnitude is 8.88D-15 for   3613.
 Iteration    1 A^-1*A deviation from orthogonality  is 7.55D-12 for   3580   3575.
 E= -2834.20610830742    
 DIIS: error= 4.31D-02 at cycle   1 NSaved=   1.
 NSaved= 1 IEnMin= 1 EnMin= -2834.20610830742     IErMin= 1 ErrMin= 4.31D-02
 ErrMax= 4.31D-02  0.00D+00 EMaxC= 1.00D-01 BMatC= 2.36D+00 BMatP= 2.36D+00
 IDIUse=3 WtCom= 5.69D-01 WtEn= 4.31D-01
 Coeff-Com:  0.100D+01
 Coeff-En:   0.100D+01
 Coeff:      0.100D+01
 Gap=     0.456 Goal=   None    Shift=    0.000
 GapD=    0.456 DampG=2.000 DampE=0.500 DampFc=1.0000 IDamp=-1.
 RMSDP=3.02D-03 MaxDP=1.28D-01              OVMax= 1.95D-01

 Cycle   2  Pass 1  IDiag  1:
 RMSU=  3.02D-03    CP:  1.00D+00
 E= -2834.55312065609     Delta-E=       -0.347012348673 Rises=F Damp=F
 DIIS: error= 2.67D-02 at cycle   2 NSaved=   2.
 NSaved= 2 IEnMin= 2 EnMin= -2834.55312065609     IErMin= 2 ErrMin= 2.67D-02
 ErrMax= 2.67D-02  0.00D+00 EMaxC= 1.00D-01 BMatC= 9.28D-01 BMatP= 2.36D+00
 IDIUse=3 WtCom= 7.33D-01 WtEn= 2.67D-01
 Coeff-Com:  0.366D+00 0.634D+00
 Coeff-En:   0.353D+00 0.647D+00
 Coeff:      0.362D+00 0.638D+00
 Gap=     0.436 Goal=   None    Shift=    0.000
 RMSDP=1.58D-03 MaxDP=1.19D-01 DE=-3.47D-01 OVMax= 1.27D-01

 Cycle   3  Pass 1  IDiag  1:
 RMSU=  9.90D-04    CP:  1.00D+00  5.95D-01
 E= -2834.97957427759     Delta-E=       -0.426453621501 Rises=F Damp=F
 DIIS: error= 1.26D-02 at cycle   3 NSaved=   3.
 NSaved= 3 IEnMin= 3 EnMin= -2834.97957427759     IErMin= 3 ErrMin= 1.26D-02
 ErrMax= 1.26D-02  0.00D+00 EMaxC= 1.00D-01 BMatC= 2.24D-01 BMatP= 9.28D-01
 IDIUse=3 WtCom= 8.74D-01 WtEn= 1.26D-01
 Coeff-Com:  0.110D+00 0.349D+00 0.540D+00
 Coeff-En:   0.000D+00 0.191D+00 0.809D+00
 Coeff:      0.964D-01 0.329D+00 0.574D+00
 Gap=     0.384 Goal=   None    Shift=    0.000
 RMSDP=7.61D-04 MaxDP=6.19D-02 DE=-4.26D-01 OVMax= 8.47D-02

 Cycle   4  Pass 1  IDiag  1:
 RMSU=  3.28D-04    CP:  1.00D+00  7.03D-01  3.92D-01
 E= -2835.11924625917     Delta-E=       -0.139671981582 Rises=F Damp=F
 DIIS: error= 4.83D-03 at cycle   4 NSaved=   4.
 NSaved= 4 IEnMin= 4 EnMin= -2835.11924625917     IErMin= 4 ErrMin= 4.83D-03
 ErrMax= 4.83D-03  0.00D+00 EMaxC= 1.00D-01 BMatC= 2.49D-02 BMatP= 2.24D-01
 IDIUse=3 WtCom= 9.52D-01 WtEn= 4.83D-02
 Coeff-Com:  0.777D-02 0.919D-01 0.305D+00 0.596D+00
 Coeff-En:   0.000D+00 0.000D+00 0.738D-01 0.926D+00
 Coeff:      0.740D-02 0.875D-01 0.293D+00 0.612D+00
 Gap=     0.370 Goal=   None    Shift=    0.000
 RMSDP=2.46D-04 MaxDP=2.32D-02 DE=-1.40D-01 OVMax= 2.42D-02

 Cycle   5  Pass 1  IDiag  1:
 RMSU=  1.06D-04    CP:  1.00D+00  6.93D-01  5.82D-01  6.57D-01
 E= -2835.13581947828     Delta-E=       -0.016573219109 Rises=F Damp=F
 DIIS: error= 8.68D-04 at cycle   5 NSaved=   5.
 NSaved= 5 IEnMin= 5 EnMin= -2835.13581947828     IErMin= 5 ErrMin= 8.68D-04
 ErrMax= 8.68D-04  0.00D+00 EMaxC= 1.00D-01 BMatC= 1.73D-03 BMatP= 2.49D-02
 IDIUse=3 WtCom= 9.91D-01 WtEn= 8.68D-03
 Coeff-Com: -0.159D-02 0.283D-01 0.130D+00 0.344D+00 0.499D+00
 Coeff-En:   0.000D+00 0.000D+00 0.000D+00 0.000D+00 0.100D+01
 Coeff:     -0.157D-02 0.280D-01 0.129D+00 0.341D+00 0.504D+00
 Gap=     0.367 Goal=   None    Shift=    0.000
 RMSDP=5.53D-05 MaxDP=4.11D-03 DE=-1.66D-02 OVMax= 5.74D-03

 Cycle   6  Pass 1  IDiag  1:
 RMSU=  2.48D-05    CP:  1.00D+00  6.97D-01  5.67D-01  6.99D-01  5.98D-01
 E= -2835.13704373912     Delta-E=       -0.001224260837 Rises=F Damp=F
 DIIS: error= 8.31D-05 at cycle   6 NSaved=   6.
 NSaved= 6 IEnMin= 6 EnMin= -2835.13704373912     IErMin= 6 ErrMin= 8.31D-05
 ErrMax= 8.31D-05  0.00D+00 EMaxC= 1.00D-01 BMatC= 2.36D-05 BMatP= 1.73D-03
 IDIUse=1 WtCom= 1.00D+00 WtEn= 0.00D+00
 Coeff-Com: -0.702D-03-0.181D-02 0.141D-02 0.191D-01 0.113D+00 0.869D+00
 Coeff:     -0.702D-03-0.181D-02 0.141D-02 0.191D-01 0.113D+00 0.869D+00
 Gap=     0.367 Goal=   None    Shift=    0.000
 RMSDP=1.04D-05 MaxDP=7.24D-04 DE=-1.22D-03 OVMax= 7.58D-04

 Cycle   7  Pass 1  IDiag  1:
 RMSU=  7.28D-06    CP:  1.00D+00  6.97D-01  5.70D-01  7.09D-01  6.54D-01
                    CP:  1.02D+00
 E= -2835.13706372511     Delta-E=       -0.000019985986 Rises=F Damp=F
 DIIS: error= 4.56D-05 at cycle   7 NSaved=   7.
 NSaved= 7 IEnMin= 7 EnMin= -2835.13706372511     IErMin= 7 ErrMin= 4.56D-05
 ErrMax= 4.56D-05  0.00D+00 EMaxC= 1.00D-01 BMatC= 4.49D-06 BMatP= 2.36D-05
 IDIUse=1 WtCom= 1.00D+00 WtEn= 0.00D+00
 Coeff-Com: -0.148D-03-0.287D-02-0.854D-02-0.164D-01 0.167D-01 0.383D+00
 Coeff-Com:  0.628D+00
 Coeff:     -0.148D-03-0.287D-02-0.854D-02-0.164D-01 0.167D-01 0.383D+00
 Coeff:      0.628D+00
 Gap=     0.367 Goal=   None    Shift=    0.000
 RMSDP=3.44D-06 MaxDP=2.66D-04 DE=-2.00D-05 OVMax= 3.30D-04

 Cycle   8  Pass 1  IDiag  1:
 RMSU=  2.19D-06    CP:  1.00D+00  6.97D-01  5.71D-01  7.09D-01  6.64D-01
                    CP:  1.09D+00  7.97D-01
 E= -2835.13706757759     Delta-E=       -0.000003852487 Rises=F Damp=F
 DIIS: error= 9.14D-06 at cycle   8 NSaved=   8.
 NSaved= 8 IEnMin= 8 EnMin= -2835.13706757759     IErMin= 8 ErrMin= 9.14D-06
 ErrMax= 9.14D-06  0.00D+00 EMaxC= 1.00D-01 BMatC= 2.56D-07 BMatP= 4.49D-06
 IDIUse=1 WtCom= 1.00D+00 WtEn= 0.00D+00
 Coeff-Com:  0.860D-05-0.838D-03-0.292D-02-0.760D-02-0.472D-02 0.384D-01
 Coeff-Com:  0.189D+00 0.788D+00
 Coeff:      0.860D-05-0.838D-03-0.292D-02-0.760D-02-0.472D-02 0.384D-01
 Coeff:      0.189D+00 0.788D+00
 Gap=     0.367 Goal=   None    Shift=    0.000
 RMSDP=1.27D-06 MaxDP=1.30D-04 DE=-3.85D-06 OVMax= 1.42D-04

 Cycle   9  Pass 1  IDiag  1:
 RMSU=  8.17D-07    CP:  1.00D+00  6.97D-01  5.71D-01  7.09D-01  6.68D-01
                    CP:  1.11D+00  8.73D-01  1.05D+00
 E= -2835.13706784043     Delta-E=       -0.000000262837 Rises=F Damp=F
 DIIS: error= 3.66D-06 at cycle   9 NSaved=   9.
 NSaved= 9 IEnMin= 9 EnMin= -2835.13706784043     IErMin= 9 ErrMin= 3.66D-06
 ErrMax= 3.66D-06  0.00D+00 EMaxC= 1.00D-01 BMatC= 5.30D-08 BMatP= 2.56D-07
 IDIUse=1 WtCom= 1.00D+00 WtEn= 0.00D+00
 Coeff-Com:  0.224D-04 0.683D-04 0.766D-04-0.881D-03-0.455D-02-0.451D-01
 Coeff-Com: -0.142D-01 0.350D+00 0.715D+00
 Coeff:      0.224D-04 0.683D-04 0.766D-04-0.881D-03-0.455D-02-0.451D-01
 Coeff:     -0.142D-01 0.350D+00 0.715D+00
 Gap=     0.367 Goal=   None    Shift=    0.000
 RMSDP=5.09D-07 MaxDP=5.59D-05 DE=-2.63D-07 OVMax= 7.27D-05

 Cycle  10  Pass 1  IDiag  1:
 RMSU=  2.70D-07    CP:  1.00D+00  6.97D-01  5.71D-01  7.09D-01  6.69D-01
                    CP:  1.12D+00  8.99D-01  1.17D+00  9.23D-01
 E= -2835.13706789259     Delta-E=       -0.000000052156 Rises=F Damp=F
 DIIS: error= 1.42D-06 at cycle  10 NSaved=  10.
 NSaved=10 IEnMin=10 EnMin= -2835.13706789259     IErMin=10 ErrMin= 1.42D-06
 ErrMax= 1.42D-06  0.00D+00 EMaxC= 1.00D-01 BMatC= 3.25D-09 BMatP= 5.30D-08
 IDIUse=1 WtCom= 1.00D+00 WtEn= 0.00D+00
 Coeff-Com:  0.674D-05 0.101D-03 0.312D-03 0.380D-03-0.927D-03-0.192D-01
 Coeff-Com: -0.213D-01 0.536D-01 0.241D+00 0.746D+00
 Coeff:      0.674D-05 0.101D-03 0.312D-03 0.380D-03-0.927D-03-0.192D-01
 Coeff:     -0.213D-01 0.536D-01 0.241D+00 0.746D+00
 Gap=     0.367 Goal=   None    Shift=    0.000
 RMSDP=1.44D-07 MaxDP=1.31D-05 DE=-5.22D-08 OVMax= 2.27D-05

 Cycle  11  Pass 1  IDiag  1:
 RMSU=  9.57D-08    CP:  1.00D+00  6.97D-01  5.71D-01  7.09D-01  6.69D-01
                    CP:  1.12D+00  9.05D-01  1.20D+00  9.94D-01  9.53D-01
 E= -2835.13706789523     Delta-E=       -0.000000002643 Rises=F Damp=F
 DIIS: error= 8.93D-07 at cycle  11 NSaved=  11.
 NSaved=11 IEnMin=11 EnMin= -2835.13706789523     IErMin=11 ErrMin= 8.93D-07
 ErrMax= 8.93D-07  0.00D+00 EMaxC= 1.00D-01 BMatC= 8.47D-10 BMatP= 3.25D-09
 IDIUse=1 WtCom= 1.00D+00 WtEn= 0.00D+00
 Coeff-Com:  0.126D-05 0.452D-04 0.159D-03 0.284D-03 0.104D-03-0.503D-02
 Coeff-Com: -0.926D-02-0.926D-02 0.477D-01 0.383D+00 0.592D+00
 Coeff:      0.126D-05 0.452D-04 0.159D-03 0.284D-03 0.104D-03-0.503D-02
 Coeff:     -0.926D-02-0.926D-02 0.477D-01 0.383D+00 0.592D+00
 Gap=     0.367 Goal=   None    Shift=    0.000
 RMSDP=5.08D-08 MaxDP=6.11D-06 DE=-2.64D-09 OVMax= 6.45D-06

 Cycle  12  Pass 1  IDiag  1:
 RMSU=  3.24D-08    CP:  1.00D+00  6.97D-01  5.71D-01  7.09D-01  6.70D-01
                    CP:  1.12D+00  9.06D-01  1.20D+00  1.01D+00  1.04D+00
                    CP:  8.30D-01
 E= -2835.13706789571     Delta-E=       -0.000000000477 Rises=F Damp=F
 DIIS: error= 2.76D-07 at cycle  12 NSaved=  12.
 NSaved=12 IEnMin=12 EnMin= -2835.13706789571     IErMin=12 ErrMin= 2.76D-07
 ErrMax= 2.76D-07  0.00D+00 EMaxC= 1.00D-01 BMatC= 7.73D-11 BMatP= 8.47D-10
 IDIUse=1 WtCom= 1.00D+00 WtEn= 0.00D+00
 Coeff-Com: -0.409D-06 0.312D-05 0.212D-04 0.541D-04 0.237D-03 0.921D-03
 Coeff-Com: -0.368D-03-0.115D-01-0.175D-01 0.330D-01 0.221D+00 0.774D+00
 Coeff:     -0.409D-06 0.312D-05 0.212D-04 0.541D-04 0.237D-03 0.921D-03
 Coeff:     -0.368D-03-0.115D-01-0.175D-01 0.330D-01 0.221D+00 0.774D+00
 Gap=     0.367 Goal=   None    Shift=    0.000
 RMSDP=2.03D-08 MaxDP=1.76D-06 DE=-4.77D-10 OVMax= 2.46D-06

 Cycle  13  Pass 1  IDiag  1:
 RMSU=  1.05D-08    CP:  1.00D+00  6.97D-01  5.71D-01  7.09D-01  6.70D-01
                    CP:  1.12D+00  9.06D-01  1.20D+00  1.02D+00  1.07D+00
                    CP:  9.15D-01  8.93D-01
 E= -2835.13706789589     Delta-E=       -0.000000000186 Rises=F Damp=F
 DIIS: error= 8.35D-08 at cycle  13 NSaved=  13.
 NSaved=13 IEnMin=13 EnMin= -2835.13706789589     IErMin=13 ErrMin= 8.35D-08
 ErrMax= 8.35D-08  0.00D+00 EMaxC= 1.00D-01 BMatC= 7.80D-12 BMatP= 7.73D-11
 IDIUse=1 WtCom= 1.00D+00 WtEn= 0.00D+00
 Coeff-Com: -0.276D-06-0.277D-05-0.460D-05-0.365D-05 0.949D-04 0.811D-03
 Coeff-Com:  0.687D-03-0.383D-02-0.116D-01-0.250D-01 0.277D-01 0.304D+00
 Coeff-Com:  0.708D+00
 Coeff:     -0.276D-06-0.277D-05-0.460D-05-0.365D-05 0.949D-04 0.811D-03
 Coeff:      0.687D-03-0.383D-02-0.116D-01-0.250D-01 0.277D-01 0.304D+00
 Coeff:      0.708D+00
 Gap=     0.367 Goal=   None    Shift=    0.000
 RMSDP=6.03D-09 MaxDP=5.24D-07 DE=-1.86D-10 OVMax= 7.81D-07

 Error on total polarization charges =  0.00213
 SCF Done:  E(RCAM-B3LYP) =  -2835.13706790     A.U. after   13 cycles
            NFock= 13  Conv=0.60D-08     -V/T= 2.0074
 KE= 2.814357668939D+03 PE=-1.798665347433D+04 EE= 6.694536519112D+03
 Leave Link  502 at Sun Mar  3 17:46:53 2024, MaxMem=  5368709120 cpu:      1126.5
 (Enter /home/k0335/k033513/app/g09/l601.exe)
 Copying SCF densities to generalized density rwf, IOpCl= 0 IROHF=0.

 **********************************************************************

            Population analysis using the SCF density.

 **********************************************************************

 Alpha  occ. eigenvalues --  -24.84548 -24.83720 -24.83698 -24.83615 -24.83580
 Alpha  occ. eigenvalues --  -24.83483 -24.83398 -24.83326 -24.83295 -24.83190
 Alpha  occ. eigenvalues --  -24.82985 -24.82895 -24.82772 -24.82730 -24.82705
 Alpha  occ. eigenvalues --  -24.82695 -24.81302 -24.81140 -19.33064 -19.32643
 Alpha  occ. eigenvalues --  -19.23618 -19.23492 -19.23173 -14.52479 -14.50914
 Alpha  occ. eigenvalues --  -14.50116 -10.59645 -10.59371 -10.55855 -10.55363
 Alpha  occ. eigenvalues --  -10.53189 -10.48939 -10.48242 -10.47630 -10.45586
 Alpha  occ. eigenvalues --  -10.45335 -10.44510 -10.34496 -10.31016  -1.43296
 Alpha  occ. eigenvalues --   -1.43236  -1.42225  -1.41722  -1.38913  -1.37071
 Alpha  occ. eigenvalues --   -1.35599  -1.35391  -1.33660  -1.33622  -1.33383
 Alpha  occ. eigenvalues --   -1.33349  -1.33171  -1.32736  -1.32647  -1.32110
 Alpha  occ. eigenvalues --   -1.31440  -1.30077  -1.22262  -1.20592  -1.20193
 Alpha  occ. eigenvalues --   -1.17125  -1.16904  -1.09149  -1.07051  -1.05720
 Alpha  occ. eigenvalues --   -0.93953  -0.93380  -0.88238  -0.84872  -0.83305
 Alpha  occ. eigenvalues --   -0.82744  -0.81985  -0.79956  -0.78005  -0.76640
 Alpha  occ. eigenvalues --   -0.75425  -0.74912  -0.73560  -0.73047  -0.72576
 Alpha  occ. eigenvalues --   -0.71959  -0.70956  -0.70497  -0.70389  -0.69824
 Alpha  occ. eigenvalues --   -0.69607  -0.68954  -0.68534  -0.67848  -0.67364
 Alpha  occ. eigenvalues --   -0.66997  -0.66452  -0.65957  -0.64544  -0.64000
 Alpha  occ. eigenvalues --   -0.63690  -0.61050  -0.59981  -0.59957  -0.59563
 Alpha  occ. eigenvalues --   -0.57785  -0.57580  -0.57158  -0.57133  -0.56813
 Alpha  occ. eigenvalues --   -0.56233  -0.56190  -0.56033  -0.55798  -0.55606
 Alpha  occ. eigenvalues --   -0.55366  -0.55293  -0.54865  -0.54724  -0.54349
 Alpha  occ. eigenvalues --   -0.54044  -0.53970  -0.53519  -0.53336  -0.53254
 Alpha  occ. eigenvalues --   -0.52875  -0.52747  -0.52269  -0.52209  -0.51787
 Alpha  occ. eigenvalues --   -0.51655  -0.51445  -0.51205  -0.50939  -0.50695
 Alpha  occ. eigenvalues --   -0.50420  -0.50408  -0.49962  -0.49895  -0.49748
 Alpha  occ. eigenvalues --   -0.49523  -0.49054  -0.48915  -0.48839  -0.48212
 Alpha  occ. eigenvalues --   -0.47910  -0.47372  -0.47015  -0.45742  -0.45036
 Alpha  occ. eigenvalues --   -0.44567  -0.43717  -0.39861  -0.39379  -0.38136
 Alpha  occ. eigenvalues --   -0.36910  -0.35978  -0.35453
 Alpha virt. eigenvalues --    0.01265   0.01834   0.05824   0.07028   0.08419
 Alpha virt. eigenvalues --    0.09086   0.11875   0.13950   0.14609   0.15636
 Alpha virt. eigenvalues --    0.16350   0.17464   0.17791   0.18759   0.19261
 Alpha virt. eigenvalues --    0.20016   0.20104   0.20560   0.21566   0.21751
 Alpha virt. eigenvalues --    0.22502   0.22671   0.22842   0.22895   0.23014
 Alpha virt. eigenvalues --    0.24403   0.24754   0.25264   0.25432   0.26145
 Alpha virt. eigenvalues --    0.26729   0.26913   0.27545   0.27938   0.28220
 Alpha virt. eigenvalues --    0.29334   0.29788   0.30121   0.32206   0.32865
 Alpha virt. eigenvalues --    0.34344   0.35022   0.37237   0.38950   0.39136
 Alpha virt. eigenvalues --    0.40185   0.46535   0.47603   0.48547   0.48979
 Alpha virt. eigenvalues --    0.50372   0.50982   0.51122   0.51981   0.52298
 Alpha virt. eigenvalues --    0.52898   0.53781   0.54328   0.54769   0.55296
 Alpha virt. eigenvalues --    0.55523   0.56323   0.56575   0.57036   0.57523
 Alpha virt. eigenvalues --    0.59230   0.59272   0.59792   0.60507   0.61614
 Alpha virt. eigenvalues --    0.62257   0.62964   0.63971   0.64429   0.65081
 Alpha virt. eigenvalues --    0.66231   0.68413   0.70021   0.70410   0.71576
 Alpha virt. eigenvalues --    0.73297   0.73454   0.74765   0.75977   0.77186
 Alpha virt. eigenvalues --    0.78746   0.81874   0.82279   0.83735   0.85333
 Alpha virt. eigenvalues --    0.85742   0.85914   0.87765   0.88193   0.88307
 Alpha virt. eigenvalues --    0.89205   0.90894   0.91078   0.92339   0.93653
 Alpha virt. eigenvalues --    0.93973   0.94600   0.96063   0.96624   0.98071
 Alpha virt. eigenvalues --    0.98747   0.99052   0.99634   1.00345   1.01261
 Alpha virt. eigenvalues --    1.03025   1.03262   1.03988   1.05446   1.06207
 Alpha virt. eigenvalues --    1.07893   1.08218   1.08726   1.09588   1.10028
 Alpha virt. eigenvalues --    1.10494   1.10794   1.11751   1.12760   1.13771
 Alpha virt. eigenvalues --    1.13886   1.14620   1.15886   1.16738   1.17330
 Alpha virt. eigenvalues --    1.17549   1.17870   1.18205   1.19183   1.19429
 Alpha virt. eigenvalues --    1.20517   1.20981   1.22017   1.22577   1.23031
 Alpha virt. eigenvalues --    1.23867   1.24350   1.26454   1.27405   1.27901
 Alpha virt. eigenvalues --    1.28180   1.28533   1.29422   1.30120   1.30714
 Alpha virt. eigenvalues --    1.31373   1.32434   1.32610   1.33369   1.34372
 Alpha virt. eigenvalues --    1.34573   1.35235   1.35324   1.36155   1.36333
 Alpha virt. eigenvalues --    1.37171   1.37604   1.38421   1.38556   1.39184
 Alpha virt. eigenvalues --    1.39985   1.40340   1.40397   1.40587   1.41355
 Alpha virt. eigenvalues --    1.42141   1.42433   1.42832   1.43347   1.43798
 Alpha virt. eigenvalues --    1.44567   1.45104   1.45648   1.46563   1.47279
 Alpha virt. eigenvalues --    1.47537   1.48405   1.48815   1.49794   1.50530
 Alpha virt. eigenvalues --    1.51090   1.51623   1.52776   1.52998   1.54172
 Alpha virt. eigenvalues --    1.54400   1.55151   1.55384   1.56363   1.57024
 Alpha virt. eigenvalues --    1.57319   1.58517   1.59305   1.59621   1.60500
 Alpha virt. eigenvalues --    1.61031   1.62022   1.62945   1.63625   1.66230
 Alpha virt. eigenvalues --    1.67162   1.67464   1.68641   1.69076   1.70037
 Alpha virt. eigenvalues --    1.70768   1.71083   1.72130   1.73059   1.73826
 Alpha virt. eigenvalues --    1.74094   1.74693   1.74994   1.75876   1.76035
 Alpha virt. eigenvalues --    1.78441   1.78676   1.78995   1.79875   1.80741
 Alpha virt. eigenvalues --    1.82225   1.82570   1.83404   1.83652   1.84087
 Alpha virt. eigenvalues --    1.84389   1.85028   1.85270   1.85609   1.86311
 Alpha virt. eigenvalues --    1.86803   1.87075   1.87309   1.88042   1.88617
 Alpha virt. eigenvalues --    1.89131   1.89367   1.89800   1.89996   1.90712
 Alpha virt. eigenvalues --    1.91223   1.91554   1.92014   1.92091   1.93102
 Alpha virt. eigenvalues --    1.93450   1.93736   1.93770   1.94054   1.94856
 Alpha virt. eigenvalues --    1.95454   1.95935   1.96284   1.97284   1.97662
 Alpha virt. eigenvalues --    1.98029   1.98606   1.99103   1.99609   1.99717
 Alpha virt. eigenvalues --    2.00088   2.00899   2.01078   2.01266   2.02124
 Alpha virt. eigenvalues --    2.02411   2.02690   2.02703   2.03371   2.03479
 Alpha virt. eigenvalues --    2.03612   2.04152   2.04299   2.04575   2.04996
 Alpha virt. eigenvalues --    2.05915   2.06401   2.07062   2.08423   2.08611
 Alpha virt. eigenvalues --    2.08968   2.09053   2.09395   2.09884   2.10540
 Alpha virt. eigenvalues --    2.11385   2.11562   2.11998   2.12137   2.12575
 Alpha virt. eigenvalues --    2.14451   2.15511   2.15706   2.17295   2.17521
 Alpha virt. eigenvalues --    2.18083   2.18381   2.18951   2.19915   2.20938
 Alpha virt. eigenvalues --    2.21072   2.21122   2.21923   2.23068   2.23410
 Alpha virt. eigenvalues --    2.26798   2.27006   2.27341   2.27903   2.28300
 Alpha virt. eigenvalues --    2.29206   2.31000   2.32014   2.32478   2.33479
 Alpha virt. eigenvalues --    2.35081   2.36481   2.37003   2.37900   2.38298
 Alpha virt. eigenvalues --    2.40458   2.40763   2.41482   2.42187   2.42621
 Alpha virt. eigenvalues --    2.44006   2.44497   2.44885   2.46450   2.47439
 Alpha virt. eigenvalues --    2.47997   2.49064   2.50572   2.52061   2.52496
 Alpha virt. eigenvalues --    2.53838   2.54332   2.56580   2.58067   2.58923
 Alpha virt. eigenvalues --    2.60827   2.61408   2.62730   2.63519   2.64297
 Alpha virt. eigenvalues --    2.65352   2.66908   2.67972   2.68999   2.70109
 Alpha virt. eigenvalues --    2.71438   2.72151   2.72898   2.74210   2.74821
 Alpha virt. eigenvalues --    2.76242   2.77691   2.78528   2.79470   2.80896
 Alpha virt. eigenvalues --    2.82437   2.82944   2.84476   2.84740   2.85140
 Alpha virt. eigenvalues --    2.87024   2.88091   2.89484   2.89893   2.91594
 Alpha virt. eigenvalues --    2.92176   2.92667   2.93178   2.94386   2.94637
 Alpha virt. eigenvalues --    2.95912   2.96798   2.97689   2.98869   3.00037
 Alpha virt. eigenvalues --    3.01076   3.03102   3.04391   3.05009   3.05270
 Alpha virt. eigenvalues --    3.06056   3.06360   3.06852   3.08400   3.09318
 Alpha virt. eigenvalues --    3.10960   3.12976   3.16039   3.16529   3.17380
 Alpha virt. eigenvalues --    3.18209   3.19274   3.21983   3.22790   3.23590
 Alpha virt. eigenvalues --    3.25410   3.27580   3.29178   3.29448   3.30849
 Alpha virt. eigenvalues --    3.33337   3.34244   3.37777   3.43992   3.47692
 Alpha virt. eigenvalues --    3.51793   3.54316   3.56334   4.06112   4.10250
 Alpha virt. eigenvalues --    4.13433   4.15607   4.18837   4.26584   4.27842
 Alpha virt. eigenvalues --    4.28414   4.34506   4.38495   4.41148   4.44459
 Alpha virt. eigenvalues --    4.46841   4.48120   4.50841   4.52404   4.56986
 Alpha virt. eigenvalues --    4.58639   4.66170   4.68960   4.74596   4.75112
 Alpha virt. eigenvalues --    4.79469   4.85477   4.88029   5.00888   5.09174
 Alpha virt. eigenvalues --    5.23734   5.24445   5.31408   5.39028   5.42858
 Alpha virt. eigenvalues --    5.62218   5.66479   5.78454   6.02562   6.22411
 Alpha virt. eigenvalues --    6.32998   6.65721
          Condensed to atoms (all electrons):
               1          2          3          4          5          6
     1  C    4.794972   0.257887  -0.027274  -0.000073   0.003288  -0.000089
     2  N    0.257887   7.256926   0.265481  -0.089880  -0.098089   0.003250
     3  C   -0.027274   0.265481   4.154663   0.596964   0.242146  -0.027299
     4  O   -0.000073  -0.089880   0.596964   8.082621  -0.090170   0.000346
     5  N    0.003288  -0.098089   0.242146  -0.090170   7.343883   0.238723
     6  C   -0.000089   0.003250  -0.027299   0.000346   0.238723   5.069075
     7  C    0.000001  -0.000276  -0.003156  -0.002295  -0.027786   0.297811
     8  F    0.000000  -0.000017  -0.000100   0.000003  -0.005286  -0.048188
     9  F    0.000002   0.000009   0.008218  -0.001393  -0.002726  -0.040267
    10  C    0.000000   0.000000   0.000363  -0.000011   0.002445  -0.070719
    11  F    0.000000   0.000000  -0.000001   0.000000   0.000061  -0.001573
    12  O    0.000000   0.000000   0.000000   0.000000  -0.000017   0.002875
    13  C    0.000000   0.000000   0.000000   0.000000   0.000000   0.000011
    14  F    0.000000   0.000000   0.000000   0.000000   0.000000   0.000000
    15  F    0.000000   0.000000   0.000000   0.000000   0.000000   0.000000
    16  F    0.000000   0.000000   0.000000   0.000000   0.000000   0.000001
    17  C    0.000000   0.000000  -0.000051  -0.000018   0.000003  -0.006758
    18  F    0.000000   0.000000   0.000000   0.000000   0.000000   0.000005
    19  F    0.000000   0.000000   0.000001   0.000000   0.000003  -0.000624
    20  F    0.000000   0.000000  -0.000025   0.000000   0.000310   0.004450
    21  C    0.000189  -0.003249  -0.017036   0.000587   0.237545  -0.030761
    22  O    0.000003   0.000136   0.000424  -0.000029  -0.088668  -0.001270
    23  N    0.003475  -0.097575  -0.001565   0.000034  -0.092294   0.003349
    24  C   -0.000035   0.002090   0.000251   0.000001   0.001799  -0.000045
    25  F    0.000000  -0.000024   0.000002   0.000000   0.000050   0.000006
    26  F    0.000006   0.000002   0.000001   0.000000  -0.000026   0.000000
    27  C    0.000005  -0.000314   0.000038   0.000000  -0.000098   0.000001
    28  F    0.000001   0.000012   0.000004   0.000000   0.000001   0.000000
    29  O    0.000000  -0.000004   0.000021   0.000000  -0.000419   0.000002
    30  C    0.000000   0.000000   0.000000   0.000000  -0.000006   0.000000
    31  F    0.000000   0.000000   0.000000   0.000000   0.000000   0.000000
    32  F    0.000000   0.000000   0.000000   0.000000   0.000000   0.000000
    33  F    0.000000   0.000000   0.000000   0.000000   0.000000   0.000000
    34  C    0.000000   0.000000   0.000000   0.000000  -0.000001   0.000000
    35  F    0.000000   0.000000   0.000000   0.000000   0.000000   0.000000
    36  F    0.000000   0.000000   0.000000   0.000000   0.000000   0.000000
    37  F    0.000000   0.000000   0.000000   0.000000   0.000000   0.000000
    38  C   -0.027933   0.264300  -0.022213   0.000264  -0.002268   0.000120
    39  O    0.001039  -0.093153   0.000172  -0.000023   0.000070   0.000002
    40  H    0.388220  -0.031021  -0.003523   0.007425   0.000379   0.000002
    41  H    0.388644  -0.030200   0.003942   0.000553  -0.000065   0.000001
    42  H    0.401703  -0.041544  -0.002091   0.000666  -0.000084   0.000004
    43  H    0.000004   0.000469  -0.003620   0.013614  -0.031439   0.359729
    44  H    0.000002  -0.000029   0.004193   0.000453  -0.032650   0.367588
               7          8          9         10         11         12
     1  C    0.000001   0.000000   0.000002   0.000000   0.000000   0.000000
     2  N   -0.000276  -0.000017   0.000009   0.000000   0.000000   0.000000
     3  C   -0.003156  -0.000100   0.008218   0.000363  -0.000001   0.000000
     4  O   -0.002295   0.000003  -0.001393  -0.000011   0.000000   0.000000
     5  N   -0.027786  -0.005286  -0.002726   0.002445   0.000061  -0.000017
     6  C    0.297811  -0.048188  -0.040267  -0.070719  -0.001573   0.002875
     7  C    4.522980   0.270839   0.255890   0.234750  -0.020574  -0.019402
     8  F    0.270839   9.113987  -0.041204  -0.021785  -0.000633  -0.000501
     9  F    0.255890  -0.041204   9.118688  -0.037141   0.000317   0.000254
    10  C    0.234750  -0.021785  -0.037141   5.021777   0.209172   0.157773
    11  F   -0.020574  -0.000633   0.000317   0.209172   9.138982  -0.047940
    12  O   -0.019402  -0.000501   0.000254   0.157773  -0.047940   8.347791
    13  C    0.001295   0.000030  -0.000077  -0.000812  -0.000366   0.237768
    14  F   -0.000043   0.000000   0.000000   0.000750  -0.000022  -0.039319
    15  F   -0.000188   0.000000   0.000001  -0.009507  -0.000016  -0.048196
    16  F    0.000264  -0.000001   0.000000   0.013623  -0.002147  -0.045178
    17  C   -0.042152   0.001536   0.008523   0.178696  -0.015140  -0.030244
    18  F    0.001566  -0.000001  -0.000001  -0.028747  -0.000153  -0.001332
    19  F    0.002255   0.000000  -0.000122  -0.033941   0.000307   0.000450
    20  F   -0.002621   0.000002  -0.000282  -0.027535  -0.000179   0.000572
    21  C   -0.003100   0.015717  -0.000174   0.000095  -0.000053  -0.000002
    22  O   -0.000886  -0.002028   0.000000  -0.000265   0.000008   0.000000
    23  N   -0.000236  -0.000325   0.000001  -0.000004   0.000000   0.000000
    24  C    0.000000   0.000007   0.000000   0.000000   0.000000   0.000000
    25  F    0.000000   0.000000   0.000000   0.000000   0.000000   0.000000
    26  F    0.000000   0.000000   0.000000   0.000000   0.000000   0.000000
    27  C    0.000000   0.000000   0.000000   0.000000   0.000000   0.000000
    28  F    0.000000   0.000000   0.000000   0.000000   0.000000   0.000000
    29  O    0.000000   0.000000   0.000000   0.000000   0.000000   0.000000
    30  C    0.000000   0.000000   0.000000   0.000000   0.000000   0.000000
    31  F    0.000000   0.000000   0.000000   0.000000   0.000000   0.000000
    32  F    0.000000   0.000000   0.000000   0.000000   0.000000   0.000000
    33  F    0.000000   0.000000   0.000000   0.000000   0.000000   0.000000
    34  C    0.000000   0.000000   0.000000   0.000000   0.000000   0.000000
    35  F    0.000000   0.000000   0.000000   0.000000   0.000000   0.000000
    36  F    0.000000   0.000000   0.000000   0.000000   0.000000   0.000000
    37  F    0.000000   0.000000   0.000000   0.000000   0.000000   0.000000
    38  C    0.000090   0.000030   0.000003   0.000001   0.000000   0.000000
    39  O    0.000000   0.000000   0.000000   0.000000   0.000000   0.000000
    40  H    0.000001   0.000000  -0.000001   0.000000   0.000000   0.000000
    41  H    0.000000   0.000000   0.000000   0.000000   0.000000   0.000000
    42  H    0.000000   0.000000   0.000000   0.000000   0.000000   0.000000
    43  H   -0.019946   0.001922  -0.000772  -0.003297   0.000219  -0.000052
    44  H   -0.032504  -0.000055   0.002098  -0.000202   0.008601   0.000108
              13         14         15         16         17         18
     1  C    0.000000   0.000000   0.000000   0.000000   0.000000   0.000000
     2  N    0.000000   0.000000   0.000000   0.000000   0.000000   0.000000
     3  C    0.000000   0.000000   0.000000   0.000000  -0.000051   0.000000
     4  O    0.000000   0.000000   0.000000   0.000000  -0.000018   0.000000
     5  N    0.000000   0.000000   0.000000   0.000000   0.000003   0.000000
     6  C    0.000011   0.000000   0.000000   0.000001  -0.006758   0.000005
     7  C    0.001295  -0.000043  -0.000188   0.000264  -0.042152   0.001566
     8  F    0.000030   0.000000   0.000000  -0.000001   0.001536  -0.000001
     9  F   -0.000077   0.000000   0.000001   0.000000   0.008523  -0.000001
    10  C   -0.000812   0.000750  -0.009507   0.013623   0.178696  -0.028747
    11  F   -0.000366  -0.000022  -0.000016  -0.002147  -0.015140  -0.000153
    12  O    0.237768  -0.039319  -0.048196  -0.045178  -0.030244  -0.001332
    13  C    3.827589   0.338583   0.300762   0.293349  -0.003828   0.011459
    14  F    0.338583   9.012913  -0.037538  -0.036143  -0.000012  -0.000004
    15  F    0.300762  -0.037538   9.064722  -0.033980   0.018135  -0.007219
    16  F    0.293349  -0.036143  -0.033980   9.061296  -0.004717  -0.001689
    17  C   -0.003828  -0.000012   0.018135  -0.004717   4.253929   0.280027
    18  F    0.011459  -0.000004  -0.007219  -0.001689   0.280027   9.073842
    19  F   -0.000404   0.000000  -0.000456   0.000012   0.276502  -0.038139
    20  F    0.000048   0.000000   0.000000   0.000000   0.272356  -0.039125
    21  C    0.000000   0.000000   0.000000   0.000000   0.000010   0.000000
    22  O    0.000000   0.000000   0.000000   0.000000   0.000003   0.000000
    23  N    0.000000   0.000000   0.000000   0.000000   0.000000   0.000000
    24  C    0.000000   0.000000   0.000000   0.000000   0.000000   0.000000
    25  F    0.000000   0.000000   0.000000   0.000000   0.000000   0.000000
    26  F    0.000000   0.000000   0.000000   0.000000   0.000000   0.000000
    27  C    0.000000   0.000000   0.000000   0.000000   0.000000   0.000000
    28  F    0.000000   0.000000   0.000000   0.000000   0.000000   0.000000
    29  O    0.000000   0.000000   0.000000   0.000000   0.000000   0.000000
    30  C    0.000000   0.000000   0.000000   0.000000   0.000000   0.000000
    31  F    0.000000   0.000000   0.000000   0.000000   0.000000   0.000000
    32  F    0.000000   0.000000   0.000000   0.000000   0.000000   0.000000
    33  F    0.000000   0.000000   0.000000   0.000000   0.000000   0.000000
    34  C    0.000000   0.000000   0.000000   0.000000   0.000000   0.000000
    35  F    0.000000   0.000000   0.000000   0.000000   0.000000   0.000000
    36  F    0.000000   0.000000   0.000000   0.000000   0.000000   0.000000
    37  F    0.000000   0.000000   0.000000   0.000000   0.000000   0.000000
    38  C    0.000000   0.000000   0.000000   0.000000   0.000000   0.000000
    39  O    0.000000   0.000000   0.000000   0.000000   0.000000   0.000000
    40  H    0.000000   0.000000   0.000000   0.000000   0.000000   0.000000
    41  H    0.000000   0.000000   0.000000   0.000000   0.000000   0.000000
    42  H    0.000000   0.000000   0.000000   0.000000   0.000000   0.000000
    43  H   -0.000003   0.000000   0.000000   0.000000   0.003388   0.000044
    44  H    0.000003   0.000000   0.000000   0.000001   0.000151  -0.000002
              19         20         21         22         23         24
     1  C    0.000000   0.000000   0.000189   0.000003   0.003475  -0.000035
     2  N    0.000000   0.000000  -0.003249   0.000136  -0.097575   0.002090
     3  C    0.000001  -0.000025  -0.017036   0.000424  -0.001565   0.000251
     4  O    0.000000   0.000000   0.000587  -0.000029   0.000034   0.000001
     5  N    0.000003   0.000310   0.237545  -0.088668  -0.092294   0.001799
     6  C   -0.000624   0.004450  -0.030761  -0.001270   0.003349  -0.000045
     7  C    0.002255  -0.002621  -0.003100  -0.000886  -0.000236   0.000000
     8  F    0.000000   0.000002   0.015717  -0.002028  -0.000325   0.000007
     9  F   -0.000122  -0.000282  -0.000174   0.000000   0.000001   0.000000
    10  C   -0.033941  -0.027535   0.000095  -0.000265  -0.000004   0.000000
    11  F    0.000307  -0.000179  -0.000053   0.000008   0.000000   0.000000
    12  O    0.000450   0.000572  -0.000002   0.000000   0.000000   0.000000
    13  C   -0.000404   0.000048   0.000000   0.000000   0.000000   0.000000
    14  F    0.000000   0.000000   0.000000   0.000000   0.000000   0.000000
    15  F   -0.000456   0.000000   0.000000   0.000000   0.000000   0.000000
    16  F    0.000012   0.000000   0.000000   0.000000   0.000000   0.000000
    17  C    0.276502   0.272356   0.000010   0.000003   0.000000   0.000000
    18  F   -0.038139  -0.039125   0.000000   0.000000   0.000000   0.000000
    19  F    9.067328  -0.037919   0.000000   0.000000   0.000000   0.000000
    20  F   -0.037919   9.064247   0.000003   0.000000   0.000000   0.000000
    21  C    0.000000   0.000003   4.184112   0.569606   0.205741  -0.007511
    22  O    0.000000   0.000000   0.569606   8.108135  -0.088419   0.015461
    23  N    0.000000   0.000000   0.205741  -0.088419   7.549203   0.183140
    24  C    0.000000   0.000000  -0.007511   0.015461   0.183140   4.360666
    25  F    0.000000   0.000000   0.005744  -0.010603  -0.038160   0.268647
    26  F    0.000000   0.000000   0.000561   0.000015  -0.040246   0.270819
    27  C    0.000000   0.000000  -0.003252  -0.003437  -0.068589   0.210912
    28  F    0.000000   0.000000  -0.000388   0.000006  -0.000976  -0.022174
    29  O    0.000000   0.000000   0.004817  -0.002472   0.000273  -0.026729
    30  C    0.000000   0.000000   0.000113   0.000449  -0.000202   0.001044
    31  F    0.000000   0.000000   0.000002  -0.000002   0.000001  -0.000166
    32  F    0.000000   0.000000   0.000000   0.000000  -0.000002   0.000190
    33  F    0.000000   0.000000  -0.000013  -0.000004   0.000002  -0.000032
    34  C    0.000000   0.000000  -0.000005  -0.000035   0.003164  -0.030134
    35  F    0.000000   0.000000   0.000003  -0.000001  -0.000027   0.000088
    36  F    0.000000   0.000000   0.000002   0.000000   0.000044   0.006035
    37  F    0.000000   0.000000   0.000000   0.000000  -0.000013   0.001319
    38  C    0.000000   0.000000  -0.014414  -0.000285   0.210332  -0.013484
    39  O    0.000000   0.000000  -0.000061  -0.000028  -0.091933   0.016510
    40  H    0.000000   0.000000  -0.000014   0.000000  -0.000059   0.000000
    41  H    0.000000   0.000000  -0.000013   0.000000   0.000289   0.000001
    42  H    0.000000   0.000000  -0.000033   0.000000  -0.000089   0.000007
    43  H    0.000266   0.009149   0.004586   0.000430  -0.000036   0.000002
    44  H    0.000015  -0.000193  -0.004329   0.013511   0.000551   0.000008
              25         26         27         28         29         30
     1  C    0.000000   0.000006   0.000005   0.000001   0.000000   0.000000
     2  N   -0.000024   0.000002  -0.000314   0.000012  -0.000004   0.000000
     3  C    0.000002   0.000001   0.000038   0.000004   0.000021   0.000000
     4  O    0.000000   0.000000   0.000000   0.000000   0.000000   0.000000
     5  N    0.000050  -0.000026  -0.000098   0.000001  -0.000419  -0.000006
     6  C    0.000006   0.000000   0.000001   0.000000   0.000002   0.000000
     7  C    0.000000   0.000000   0.000000   0.000000   0.000000   0.000000
     8  F    0.000000   0.000000   0.000000   0.000000   0.000000   0.000000
     9  F    0.000000   0.000000   0.000000   0.000000   0.000000   0.000000
    10  C    0.000000   0.000000   0.000000   0.000000   0.000000   0.000000
    11  F    0.000000   0.000000   0.000000   0.000000   0.000000   0.000000
    12  O    0.000000   0.000000   0.000000   0.000000   0.000000   0.000000
    13  C    0.000000   0.000000   0.000000   0.000000   0.000000   0.000000
    14  F    0.000000   0.000000   0.000000   0.000000   0.000000   0.000000
    15  F    0.000000   0.000000   0.000000   0.000000   0.000000   0.000000
    16  F    0.000000   0.000000   0.000000   0.000000   0.000000   0.000000
    17  C    0.000000   0.000000   0.000000   0.000000   0.000000   0.000000
    18  F    0.000000   0.000000   0.000000   0.000000   0.000000   0.000000
    19  F    0.000000   0.000000   0.000000   0.000000   0.000000   0.000000
    20  F    0.000000   0.000000   0.000000   0.000000   0.000000   0.000000
    21  C    0.005744   0.000561  -0.003252  -0.000388   0.004817   0.000113
    22  O   -0.010603   0.000015  -0.003437   0.000006  -0.002472   0.000449
    23  N   -0.038160  -0.040246  -0.068589  -0.000976   0.000273  -0.000202
    24  C    0.268647   0.270819   0.210912  -0.022174  -0.026729   0.001044
    25  F    9.098192  -0.041596  -0.035612   0.000302   0.000798  -0.000056
    26  F   -0.041596   9.098443  -0.024388  -0.000113   0.000545   0.000004
    27  C   -0.035612  -0.024388   4.994006   0.220884   0.154394   0.001603
    28  F    0.000302  -0.000113   0.220884   9.124570  -0.053273  -0.000998
    29  O    0.000798   0.000545   0.154394  -0.053273   8.355150   0.234857
    30  C   -0.000056   0.000004   0.001603  -0.000998   0.234857   3.822166
    31  F    0.000001   0.000000  -0.008997  -0.000016  -0.047424   0.302524
    32  F    0.000000   0.000000   0.012636  -0.001512  -0.046181   0.295432
    33  F    0.000000   0.000000   0.000541  -0.000021  -0.039580   0.338734
    34  C    0.007549  -0.000965   0.207429  -0.014906  -0.026659  -0.003691
    35  F   -0.000854  -0.000165  -0.032399   0.000311   0.000315  -0.000376
    36  F   -0.000837  -0.002556  -0.029020  -0.000267   0.000541   0.000059
    37  F    0.000000  -0.000002  -0.031470  -0.000060  -0.001531   0.012257
    38  C    0.000791   0.007342  -0.000380   0.007812   0.000111  -0.000009
    39  O    0.000009  -0.009114  -0.001746  -0.004194  -0.000044  -0.000005
    40  H    0.000000   0.000000   0.000000   0.000000   0.000000   0.000000
    41  H    0.000000  -0.000002   0.000000   0.000001   0.000000   0.000000
    42  H    0.000000   0.000000   0.000000   0.000000   0.000000   0.000000
    43  H    0.000000   0.000000   0.000000   0.000000   0.000000   0.000000
    44  H    0.000002   0.000000   0.000000   0.000000  -0.000003   0.000001
              31         32         33         34         35         36
     1  C    0.000000   0.000000   0.000000   0.000000   0.000000   0.000000
     2  N    0.000000   0.000000   0.000000   0.000000   0.000000   0.000000
     3  C    0.000000   0.000000   0.000000   0.000000   0.000000   0.000000
     4  O    0.000000   0.000000   0.000000   0.000000   0.000000   0.000000
     5  N    0.000000   0.000000   0.000000  -0.000001   0.000000   0.000000
     6  C    0.000000   0.000000   0.000000   0.000000   0.000000   0.000000
     7  C    0.000000   0.000000   0.000000   0.000000   0.000000   0.000000
     8  F    0.000000   0.000000   0.000000   0.000000   0.000000   0.000000
     9  F    0.000000   0.000000   0.000000   0.000000   0.000000   0.000000
    10  C    0.000000   0.000000   0.000000   0.000000   0.000000   0.000000
    11  F    0.000000   0.000000   0.000000   0.000000   0.000000   0.000000
    12  O    0.000000   0.000000   0.000000   0.000000   0.000000   0.000000
    13  C    0.000000   0.000000   0.000000   0.000000   0.000000   0.000000
    14  F    0.000000   0.000000   0.000000   0.000000   0.000000   0.000000
    15  F    0.000000   0.000000   0.000000   0.000000   0.000000   0.000000
    16  F    0.000000   0.000000   0.000000   0.000000   0.000000   0.000000
    17  C    0.000000   0.000000   0.000000   0.000000   0.000000   0.000000
    18  F    0.000000   0.000000   0.000000   0.000000   0.000000   0.000000
    19  F    0.000000   0.000000   0.000000   0.000000   0.000000   0.000000
    20  F    0.000000   0.000000   0.000000   0.000000   0.000000   0.000000
    21  C    0.000002   0.000000  -0.000013  -0.000005   0.000003   0.000002
    22  O   -0.000002   0.000000  -0.000004  -0.000035  -0.000001   0.000000
    23  N    0.000001  -0.000002   0.000002   0.003164  -0.000027   0.000044
    24  C   -0.000166   0.000190  -0.000032  -0.030134   0.000088   0.006035
    25  F    0.000001   0.000000   0.000000   0.007549  -0.000854  -0.000837
    26  F    0.000000   0.000000   0.000000  -0.000965  -0.000165  -0.002556
    27  C   -0.008997   0.012636   0.000541   0.207429  -0.032399  -0.029020
    28  F   -0.000016  -0.001512  -0.000021  -0.014906   0.000311  -0.000267
    29  O   -0.047424  -0.046181  -0.039580  -0.026659   0.000315   0.000541
    30  C    0.302524   0.295432   0.338734  -0.003691  -0.000376   0.000059
    31  F    9.057472  -0.033796  -0.037343   0.017689  -0.000466   0.000000
    32  F   -0.033796   9.058850  -0.036682  -0.004236   0.000014   0.000000
    33  F   -0.037343  -0.036682   9.014945  -0.000027   0.000000   0.000000
    34  C    0.017689  -0.004236  -0.000027   4.196177   0.267575   0.287922
    35  F   -0.000466   0.000014   0.000000   0.267575   9.088611  -0.037913
    36  F    0.000000   0.000000   0.000000   0.287922  -0.037913   9.059771
    37  F   -0.006737  -0.001969  -0.000004   0.280344  -0.038873  -0.039989
    38  C    0.000000   0.000001   0.000000   0.000299   0.000000  -0.000005
    39  O    0.000000   0.000000   0.000000  -0.000014   0.000000  -0.000001
    40  H    0.000000   0.000000   0.000000   0.000000   0.000000   0.000000
    41  H    0.000000   0.000000   0.000000   0.000000   0.000000   0.000000
    42  H    0.000000   0.000000   0.000000   0.000000   0.000000   0.000000
    43  H    0.000000   0.000000   0.000000   0.000000   0.000000   0.000000
    44  H    0.000000   0.000000   0.000000   0.000000   0.000000   0.000000
              37         38         39         40         41         42
     1  C    0.000000  -0.027933   0.001039   0.388220   0.388644   0.401703
     2  N    0.000000   0.264300  -0.093153  -0.031021  -0.030200  -0.041544
     3  C    0.000000  -0.022213   0.000172  -0.003523   0.003942  -0.002091
     4  O    0.000000   0.000264  -0.000023   0.007425   0.000553   0.000666
     5  N    0.000000  -0.002268   0.000070   0.000379  -0.000065  -0.000084
     6  C    0.000000   0.000120   0.000002   0.000002   0.000001   0.000004
     7  C    0.000000   0.000090   0.000000   0.000001   0.000000   0.000000
     8  F    0.000000   0.000030   0.000000   0.000000   0.000000   0.000000
     9  F    0.000000   0.000003   0.000000  -0.000001   0.000000   0.000000
    10  C    0.000000   0.000001   0.000000   0.000000   0.000000   0.000000
    11  F    0.000000   0.000000   0.000000   0.000000   0.000000   0.000000
    12  O    0.000000   0.000000   0.000000   0.000000   0.000000   0.000000
    13  C    0.000000   0.000000   0.000000   0.000000   0.000000   0.000000
    14  F    0.000000   0.000000   0.000000   0.000000   0.000000   0.000000
    15  F    0.000000   0.000000   0.000000   0.000000   0.000000   0.000000
    16  F    0.000000   0.000000   0.000000   0.000000   0.000000   0.000000
    17  C    0.000000   0.000000   0.000000   0.000000   0.000000   0.000000
    18  F    0.000000   0.000000   0.000000   0.000000   0.000000   0.000000
    19  F    0.000000   0.000000   0.000000   0.000000   0.000000   0.000000
    20  F    0.000000   0.000000   0.000000   0.000000   0.000000   0.000000
    21  C    0.000000  -0.014414  -0.000061  -0.000014  -0.000013  -0.000033
    22  O    0.000000  -0.000285  -0.000028   0.000000   0.000000   0.000000
    23  N   -0.000013   0.210332  -0.091933  -0.000059   0.000289  -0.000089
    24  C    0.001319  -0.013484   0.016510   0.000000   0.000001   0.000007
    25  F    0.000000   0.000791   0.000009   0.000000   0.000000   0.000000
    26  F   -0.000002   0.007342  -0.009114   0.000000  -0.000002   0.000000
    27  C   -0.031470  -0.000380  -0.001746   0.000000   0.000000   0.000000
    28  F   -0.000060   0.007812  -0.004194   0.000000   0.000001   0.000000
    29  O   -0.001531   0.000111  -0.000044   0.000000   0.000000   0.000000
    30  C    0.012257  -0.000009  -0.000005   0.000000   0.000000   0.000000
    31  F   -0.006737   0.000000   0.000000   0.000000   0.000000   0.000000
    32  F   -0.001969   0.000001   0.000000   0.000000   0.000000   0.000000
    33  F   -0.000004   0.000000   0.000000   0.000000   0.000000   0.000000
    34  C    0.280344   0.000299  -0.000014   0.000000   0.000000   0.000000
    35  F   -0.038873   0.000000   0.000000   0.000000   0.000000   0.000000
    36  F   -0.039989  -0.000005  -0.000001   0.000000   0.000000   0.000000
    37  F    9.086919   0.000000   0.000000   0.000000   0.000000   0.000000
    38  C    0.000000   4.181941   0.591520   0.004209  -0.002755  -0.002689
    39  O    0.000000   0.591520   8.082237   0.000547   0.005752   0.001006
    40  H    0.000000   0.004209   0.000547   0.519693  -0.022848  -0.028849
    41  H    0.000000  -0.002755   0.005752  -0.022848   0.521829  -0.028288
    42  H    0.000000  -0.002689   0.001006  -0.028849  -0.028288   0.542853
    43  H    0.000000  -0.000048   0.000000  -0.000003   0.000000   0.000000
    44  H    0.000000  -0.000055   0.000000   0.000000   0.000000   0.000000
              43         44
     1  C    0.000004   0.000002
     2  N    0.000469  -0.000029
     3  C   -0.003620   0.004193
     4  O    0.013614   0.000453
     5  N   -0.031439  -0.032650
     6  C    0.359729   0.367588
     7  C   -0.019946  -0.032504
     8  F    0.001922  -0.000055
     9  F   -0.000772   0.002098
    10  C   -0.003297  -0.000202
    11  F    0.000219   0.008601
    12  O   -0.000052   0.000108
    13  C   -0.000003   0.000003
    14  F    0.000000   0.000000
    15  F    0.000000   0.000000
    16  F    0.000000   0.000001
    17  C    0.003388   0.000151
    18  F    0.000044  -0.000002
    19  F    0.000266   0.000015
    20  F    0.009149  -0.000193
    21  C    0.004586  -0.004329
    22  O    0.000430   0.013511
    23  N   -0.000036   0.000551
    24  C    0.000002   0.000008
    25  F    0.000000   0.000002
    26  F    0.000000   0.000000
    27  C    0.000000   0.000000
    28  F    0.000000   0.000000
    29  O    0.000000  -0.000003
    30  C    0.000000   0.000001
    31  F    0.000000   0.000000
    32  F    0.000000   0.000000
    33  F    0.000000   0.000000
    34  C    0.000000   0.000000
    35  F    0.000000   0.000000
    36  F    0.000000   0.000000
    37  F    0.000000   0.000000
    38  C   -0.000048  -0.000055
    39  O    0.000000   0.000000
    40  H   -0.000003   0.000000
    41  H    0.000000   0.000000
    42  H    0.000000   0.000000
    43  H    0.492871  -0.017925
    44  H   -0.017925   0.500936
 Mulliken charges:
               1
     1  C   -0.184036
     2  N   -0.565189
     3  C    0.831070
     4  O   -0.519639
     5  N   -0.598613
     6  C   -0.119759
     7  C    0.587423
     8  F   -0.283949
     9  F   -0.269844
    10  C    0.414520
    11  F   -0.268870
    12  O   -0.515408
    13  C    0.994591
    14  F   -0.239166
    15  F   -0.246519
    16  F   -0.244691
    17  C    0.809661
    18  F   -0.250531
    19  F   -0.235534
    20  F   -0.243259
    21  C    0.854974
    22  O   -0.509752
    23  N   -0.638848
    24  C    0.761313
    25  F   -0.254351
    26  F   -0.258566
    27  C    0.437253
    28  F   -0.255006
    29  O   -0.507506
    30  C    0.996100
    31  F   -0.242743
    32  F   -0.242745
    33  F   -0.240516
    34  C    0.812526
    35  F   -0.245841
    36  F   -0.243786
    37  F   -0.260193
    38  C    0.817374
    39  O   -0.498547
    40  H    0.165841
    41  H    0.163159
    42  H    0.157428
    43  H    0.190447
    44  H    0.189726
 Sum of Mulliken charges =   0.00000
 Mulliken charges with hydrogens summed into heavy atoms:
               1
     1  C    0.302393
     2  N   -0.565189
     3  C    0.831070
     4  O   -0.519639
     5  N   -0.598613
     6  C    0.260414
     7  C    0.587423
     8  F   -0.283949
     9  F   -0.269844
    10  C    0.414520
    11  F   -0.268870
    12  O   -0.515408
    13  C    0.994591
    14  F   -0.239166
    15  F   -0.246519
    16  F   -0.244691
    17  C    0.809661
    18  F   -0.250531
    19  F   -0.235534
    20  F   -0.243259
    21  C    0.854974
    22  O   -0.509752
    23  N   -0.638848
    24  C    0.761313
    25  F   -0.254351
    26  F   -0.258566
    27  C    0.437253
    28  F   -0.255006
    29  O   -0.507506
    30  C    0.996100
    31  F   -0.242743
    32  F   -0.242745
    33  F   -0.240516
    34  C    0.812526
    35  F   -0.245841
    36  F   -0.243786
    37  F   -0.260193
    38  C    0.817374
    39  O   -0.498547
 Electronic spatial extent (au):  <R**2>=          22466.3016
 Charge=              0.0000 electrons
 Dipole moment (field-independent basis, Debye):
    X=              0.8627    Y=             -0.2513    Z=              2.6142  Tot=              2.7643
 Quadrupole moment (field-independent basis, Debye-Ang):
   XX=           -221.5437   YY=           -202.1202   ZZ=           -207.7224
   XY=              0.0307   XZ=             -2.8544   YZ=              0.0785
 Traceless Quadrupole moment (field-independent basis, Debye-Ang):
   XX=            -11.0816   YY=              8.3419   ZZ=              2.7397
   XY=              0.0307   XZ=             -2.8544   YZ=              0.0785
 Octapole moment (field-independent basis, Debye-Ang**2):
  XXX=             52.1083  YYY=           -128.5052  ZZZ=            151.8108  XYY=             22.5153
  XXY=              5.8629  XXZ=             34.8781  XZZ=             -0.7362  YZZ=            -44.8477
  YYZ=             65.4016  XYZ=              0.2237
 Hexadecapole moment (field-independent basis, Debye-Ang**3):
 XXXX=         -17613.0304 YYYY=          -3250.2996 ZZZZ=          -2775.5830 XXXY=           -940.1741
 XXXZ=            503.6895 YYYX=           -927.4799 YYYZ=            468.2937 ZZZX=            476.8369
 ZZZY=            508.9553 XXYY=          -3538.4305 XXZZ=          -3410.2788 YYZZ=           -966.5646
 XXYZ=            231.6403 YYXZ=            168.1305 ZZXY=           -261.3194
 N-N= 5.642622218387D+03 E-N=-1.798665347556D+04  KE= 2.814357668939D+03
 No NMR shielding tensors so no spin-rotation constants.
 Leave Link  601 at Sun Mar  3 17:46:53 2024, MaxMem=  5368709120 cpu:         2.6
 (Enter /home/k0335/k033513/app/g09/l9999.exe)
 1\1\GINC-C18U06N4\SP\RCAM-B3LYP\6-31G(d,p)\C13H5F18N3O5\K033513\03-Mar
 -2024\0\\#p CAM-B3LYP/6-31G(d,p) SCRF=(PCM,Solvent=Generic,Read) NoSym
 m out=wfn\\Title A1342961131_0\\0,1\C,0,-0.508733,-3.312614,2.678828\N
 ,0,-0.508516,-2.274621,1.66179\C,0,0.572294,-1.424227,1.605686\O,0,1.5
 56762,-1.554503,2.333256\N,0,0.469776,-0.380007,0.711829\C,0,1.601848,
 0.556701,0.603629\C,0,2.644329,0.081363,-0.420927\F,0,1.970045,-0.3611
 99,-1.529535\F,0,3.283184,-1.019201,0.061863\C,0,3.675094,1.132991,-0.
 86254\F,0,2.98728,2.214401,-1.339799\O,0,4.391265,0.582823,-1.977714\C
 ,0,5.454942,1.38847,-2.40956\F,0,5.789986,1.027396,-3.661817\F,0,6.512
 65,1.184262,-1.606151\F,0,5.119653,2.688143,-2.406126\C,0,4.517201,1.5
 45737,0.35521\F,0,5.395823,2.529381,0.058421\F,0,5.226475,0.512846,0.8
 55708\F,0,3.743788,2.027161,1.356264\C,0,-0.604803,-0.209175,-0.136782
 \O,0,-0.682778,0.78708,-0.855331\N,0,-1.575742,-1.1761,-0.100031\C,0,-
 2.76428,-0.980849,-0.917062\F,0,-2.385805,-0.503275,-2.138612\F,0,-3.2
 92664,-2.203947,-1.211113\C,0,-3.849036,-0.056403,-0.304537\F,0,-4.347
 131,-0.631667,0.828723\O,0,-3.246907,1.168552,0.131307\C,0,-4.182184,2
 .156495,0.472996\F,0,-4.678882,2.706755,-0.645732\F,0,-5.172305,1.6483
 67,1.221934\F,0,-3.550263,3.110949,1.181487\C,0,-4.95115,0.037961,-1.3
 6945\F,0,-4.534572,0.703638,-2.469876\F,0,-5.400705,-1.169858,-1.77314
 \F,0,-6.035108,0.704826,-0.902317\C,0,-1.662827,-2.071085,0.935576\O,0
 ,-2.713046,-2.64088,1.226855\H,0,0.50157,-3.700648,2.83932\H,0,-1.1626
 ,-4.141341,2.391132\H,0,-0.874469,-2.877587,3.614387\H,0,2.052993,0.65
 1546,1.595234\H,0,1.217546,1.541344,0.316716\\Version=ES64L-G09RevD.01
 \HF=-2835.1370679\RMSD=6.034e-09\Dipole=0.3393988,-0.0988815,1.0285099
 \Quadrupole=-8.238866,6.2019699,2.0368961,0.0228287,-2.1221662,0.05837
 07\PG=C01 [X(C13H5F18N3O5)]\\@

 Writing a WFN file to "A1342961131/A1342961131_0.wfn"


 THERE IS AN OLD, OLD RECIPE IN MAINE FOR STEWING COOT. PLACE THE
 BIRD IN A KETTLE OF WATER WITH A RED BUILDING BRICK FREE OF MORTAR AND
 BLEMISHES. PARBOIL THE COOT AND BRICK TOGETHER FOR THREE HOURS.
 POUR OFF THE WATER, REFILL THE KETTLE, AND AGAIN PARBOIL FOR THREE HOURS.
 ONCE AGAIN POUR OFF THE WATER, FOR THE LAST TIME ADD FRESH WATER,
 AND LET THE COOT AND BRICK SIMMER TOGETHER OVERNIGHT. IN THE MORNING,
 THROW AWAY THE COOT AND EAT THE BRICK.
 Job cpu time:       0 days  0 hours 19 minutes 22.4 seconds.
 File lengths (MBytes):  RWF=    416 Int=      0 D2E=      0 Chk=     15 Scr=      1
 Normal termination of Gaussian 09 at Sun Mar  3 17:46:53 2024.
