 Entering Gaussian System, Link 0=g09
 Initial command:
 /home/k0335/k033513/app/g09/l1.exe "/home/k0335/k033513/app/g09/scratch/Gau-333651.inp" -scrdir="/home/k0335/k033513/app/g09/scratch/"
 Default is to use a total of  36 processors:
                               36 via shared-memory
                                1 via Linda
 Entering Link 1 = /home/k0335/k033513/app/g09/l1.exe PID=    333652.
  
 Copyright (c) 1988,1990,1992,1993,1995,1998,2003,2009,2013,
            Gaussian, Inc.  All Rights Reserved.
  
 This is part of the Gaussian(R) 09 program.  It is based on
 the Gaussian(R) 03 system (copyright 2003, Gaussian, Inc.),
 the Gaussian(R) 98 system (copyright 1998, Gaussian, Inc.),
 the Gaussian(R) 94 system (copyright 1995, Gaussian, Inc.),
 the Gaussian 92(TM) system (copyright 1992, Gaussian, Inc.),
 the Gaussian 90(TM) system (copyright 1990, Gaussian, Inc.),
 the Gaussian 88(TM) system (copyright 1988, Gaussian, Inc.),
 the Gaussian 86(TM) system (copyright 1986, Carnegie Mellon
 University), and the Gaussian 82(TM) system (copyright 1983,
 Carnegie Mellon University). Gaussian is a federally registered
 trademark of Gaussian, Inc.
  
 This software contains proprietary and confidential information,
 including trade secrets, belonging to Gaussian, Inc.
  
 This software is provided under written license and may be
 used, copied, transmitted, or stored only in accord with that
 written license.
  
 The following legend is applicable only to US Government
 contracts under FAR:
  
                    RESTRICTED RIGHTS LEGEND
  
 Use, reproduction and disclosure by the US Government is
 subject to restrictions as set forth in subparagraphs (a)
 and (c) of the Commercial Computer Software - Restricted
 Rights clause in FAR 52.227-19.
  
 Gaussian, Inc.
 340 Quinnipiac St., Bldg. 40, Wallingford CT 06492
  
  
 ---------------------------------------------------------------
 Warning -- This program may not be used in any manner that
 competes with the business of Gaussian, Inc. or will provide
 assistance to any competitor of Gaussian, Inc.  The licensee
 of this program is prohibited from giving any competitor of
 Gaussian, Inc. access to this program.  By using this program,
 the user acknowledges that Gaussian, Inc. is engaged in the
 business of creating and licensing software in the field of
 computational chemistry and represents and warrants to the
 licensee that it is not a competitor of Gaussian, Inc. and that
 it will not use this program in any manner prohibited above.
 ---------------------------------------------------------------
  

 Cite this work as:
 Gaussian 09, Revision D.01,
 M. J. Frisch, G. W. Trucks, H. B. Schlegel, G. E. Scuseria, 
 M. A. Robb, J. R. Cheeseman, G. Scalmani, V. Barone, B. Mennucci, 
 G. A. Petersson, H. Nakatsuji, M. Caricato, X. Li, H. P. Hratchian, 
 A. F. Izmaylov, J. Bloino, G. Zheng, J. L. Sonnenberg, M. Hada, 
 M. Ehara, K. Toyota, R. Fukuda, J. Hasegawa, M. Ishida, T. Nakajima, 
 Y. Honda, O. Kitao, H. Nakai, T. Vreven, J. A. Montgomery, Jr., 
 J. E. Peralta, F. Ogliaro, M. Bearpark, J. J. Heyd, E. Brothers, 
 K. N. Kudin, V. N. Staroverov, T. Keith, R. Kobayashi, J. Normand, 
 K. Raghavachari, A. Rendell, J. C. Burant, S. S. Iyengar, J. Tomasi, 
 M. Cossi, N. Rega, J. M. Millam, M. Klene, J. E. Knox, J. B. Cross, 
 V. Bakken, C. Adamo, J. Jaramillo, R. Gomperts, R. E. Stratmann, 
 O. Yazyev, A. J. Austin, R. Cammi, C. Pomelli, J. W. Ochterski, 
 R. L. Martin, K. Morokuma, V. G. Zakrzewski, G. A. Voth, 
 P. Salvador, J. J. Dannenberg, S. Dapprich, A. D. Daniels, 
 O. Farkas, J. B. Foresman, J. V. Ortiz, J. Cioslowski, 
 and D. J. Fox, Gaussian, Inc., Wallingford CT, 2013.
 
 ******************************************
 Gaussian 09:  ES64L-G09RevD.01 24-Apr-2013
                 3-Mar-2024 
 ******************************************
 %nprocshared=24
 Will use up to   24 processors via shared memory.
 %mem=40GB
 %rwf=A1462740671/A1462740671_p1.rwf
 %nosave
 %chk=A1462740671/A1462740671_p1.chk
 ----------------------------------------------------------------------
 #p CAM-B3LYP/6-31G(d,p) SCRF=(PCM,Solvent=Generic,Read) NoSymm out=wfn
 ----------------------------------------------------------------------
 1/38=1,40=2/1;
 2/12=2,15=1,17=6,18=5,40=1/2;
 3/5=1,6=6,7=101,11=2,16=1,25=1,30=1,70=2203,72=-2,74=-40/1,2,3;
 4//1;
 5/5=2,38=5/2;
 6/7=2,8=2,9=2,10=2,28=1/1;
 99/5=1,6=100,9=1/99;
 Leave Link    1 at Sun Mar  3 17:37:01 2024, MaxMem=  5368709120 cpu:         1.0
 (Enter /home/k0335/k033513/app/g09/l101.exe)
 --------------------
 Title A1462740671_p1
 --------------------
 Symbolic Z-matrix:
 Charge =  1 Multiplicity = 2
 C                     2.4481   -2.33988   0.83597 
 C                     1.27304  -1.68232   0.8237 
 N                     0.09966  -2.37546   0.53802 
 C                     0.12503  -3.79813   0.18085 
 C                    -1.15254  -1.78065   0.60712 
 O                    -2.18078  -2.39948   0.3387 
 N                    -1.18471  -0.4619    0.97471 
 C                    -2.49079   0.16939   1.0704 
 F                    -3.27059  -0.6368    1.86912 
 F                    -2.40765   1.31397   1.8181 
 C                    -3.30032   0.48221  -0.22008 
 F                    -3.52192  -0.66468  -0.92476 
 O                    -4.59896   0.94507   0.19664 
 C                    -5.3944    1.4092   -0.85958 
 F                    -5.02272   2.66257  -1.17049 
 F                    -5.29659   0.61834  -1.93908 
 F                    -6.67756   1.43263  -0.45288 
 C                    -2.48376   1.44494  -1.08115 
 F                    -3.09918   1.70959  -2.25915 
 F                    -1.28241   0.91538  -1.41096 
 F                    -2.27474   2.63027  -0.47622 
 C                    -0.06322   0.32231   1.00446 
 O                    -0.14453   1.54718   0.96095 
 N                     1.16424  -0.31355   1.05896 
 C                     2.3231    0.57011   1.32401 
 F                     1.96878   1.58651   2.16264 
 F                     3.21686  -0.13054   2.10279 
 C                     3.11791   1.12689   0.10986 
 F                     4.2519    1.71961   0.61028 
 O                     3.57626   0.02343  -0.68835 
 C                     4.23524   0.41717  -1.86367 
 F                     4.94021  -0.63482  -2.32111 
 F                     3.32019   0.75081  -2.78775 
 F                     5.07398   1.43894  -1.64329 
 C                     2.2838    2.18669  -0.61062 
 F                     1.8353    3.15875   0.20588 
 F                     1.23051   1.62929  -1.24801 
 F                     3.01456   2.81319  -1.56772 
 H                     3.41326  -1.89197   1.03354 
 H                     2.53552  -3.40592   0.65442 
 H                    -0.86293  -4.18655  -0.08131 
 H                     0.77213  -3.94441  -0.69029 
 H                     0.49071  -4.37736   1.03503 
 
 NAtoms=     43 NQM=       43 NQMF=       0 NMMI=      0 NMMIF=      0
                NMic=       0 NMicF=      0.
                    Isotopes and Nuclear Properties:
 (Nuclear quadrupole moments (NQMom) in fm**2, nuclear magnetic moments (NMagM)
  in nuclear magnetons)

  Atom         1           2           3           4           5           6           7           8           9          10
 IAtWgt=          12          12          14          12          12          16          14          12          19          19
 AtmWgt=  12.0000000  12.0000000  14.0030740  12.0000000  12.0000000  15.9949146  14.0030740  12.0000000  18.9984033  18.9984033
 NucSpn=           0           0           2           0           0           0           2           0           1           1
 AtZEff=   0.0000000   0.0000000   0.0000000   0.0000000   0.0000000   0.0000000   0.0000000   0.0000000   0.0000000   0.0000000
 NQMom=    0.0000000   0.0000000   2.0440000   0.0000000   0.0000000   0.0000000   2.0440000   0.0000000   0.0000000   0.0000000
 NMagM=    0.0000000   0.0000000   0.4037610   0.0000000   0.0000000   0.0000000   0.4037610   0.0000000   2.6288670   2.6288670
 AtZNuc=   6.0000000   6.0000000   7.0000000   6.0000000   6.0000000   8.0000000   7.0000000   6.0000000   9.0000000   9.0000000

  Atom        11          12          13          14          15          16          17          18          19          20
 IAtWgt=          12          19          16          12          19          19          19          12          19          19
 AtmWgt=  12.0000000  18.9984033  15.9949146  12.0000000  18.9984033  18.9984033  18.9984033  12.0000000  18.9984033  18.9984033
 NucSpn=           0           1           0           0           1           1           1           0           1           1
 AtZEff=   0.0000000   0.0000000   0.0000000   0.0000000   0.0000000   0.0000000   0.0000000   0.0000000   0.0000000   0.0000000
 NQMom=    0.0000000   0.0000000   0.0000000   0.0000000   0.0000000   0.0000000   0.0000000   0.0000000   0.0000000   0.0000000
 NMagM=    0.0000000   2.6288670   0.0000000   0.0000000   2.6288670   2.6288670   2.6288670   0.0000000   2.6288670   2.6288670
 AtZNuc=   6.0000000   9.0000000   8.0000000   6.0000000   9.0000000   9.0000000   9.0000000   6.0000000   9.0000000   9.0000000

  Atom        21          22          23          24          25          26          27          28          29          30
 IAtWgt=          19          12          16          14          12          19          19          12          19          16
 AtmWgt=  18.9984033  12.0000000  15.9949146  14.0030740  12.0000000  18.9984033  18.9984033  12.0000000  18.9984033  15.9949146
 NucSpn=           1           0           0           2           0           1           1           0           1           0
 AtZEff=   0.0000000   0.0000000   0.0000000   0.0000000   0.0000000   0.0000000   0.0000000   0.0000000   0.0000000   0.0000000
 NQMom=    0.0000000   0.0000000   0.0000000   2.0440000   0.0000000   0.0000000   0.0000000   0.0000000   0.0000000   0.0000000
 NMagM=    2.6288670   0.0000000   0.0000000   0.4037610   0.0000000   2.6288670   2.6288670   0.0000000   2.6288670   0.0000000
 AtZNuc=   9.0000000   6.0000000   8.0000000   7.0000000   6.0000000   9.0000000   9.0000000   6.0000000   9.0000000   8.0000000

  Atom        31          32          33          34          35          36          37          38          39          40
 IAtWgt=          12          19          19          19          12          19          19          19           1           1
 AtmWgt=  12.0000000  18.9984033  18.9984033  18.9984033  12.0000000  18.9984033  18.9984033  18.9984033   1.0078250   1.0078250
 NucSpn=           0           1           1           1           0           1           1           1           1           1
 AtZEff=   0.0000000   0.0000000   0.0000000   0.0000000   0.0000000   0.0000000   0.0000000   0.0000000   0.0000000   0.0000000
 NQMom=    0.0000000   0.0000000   0.0000000   0.0000000   0.0000000   0.0000000   0.0000000   0.0000000   0.0000000   0.0000000
 NMagM=    0.0000000   2.6288670   2.6288670   2.6288670   0.0000000   2.6288670   2.6288670   2.6288670   2.7928460   2.7928460
 AtZNuc=   6.0000000   9.0000000   9.0000000   9.0000000   6.0000000   9.0000000   9.0000000   9.0000000   1.0000000   1.0000000

  Atom        41          42          43
 IAtWgt=           1           1           1
 AtmWgt=   1.0078250   1.0078250   1.0078250
 NucSpn=           1           1           1
 AtZEff=   0.0000000   0.0000000   0.0000000
 NQMom=    0.0000000   0.0000000   0.0000000
 NMagM=    2.7928460   2.7928460   2.7928460
 AtZNuc=   1.0000000   1.0000000   1.0000000
 Leave Link  101 at Sun Mar  3 17:37:01 2024, MaxMem=  5368709120 cpu:         1.1
 (Enter /home/k0335/k033513/app/g09/l202.exe)
                          Input orientation:                          
 ---------------------------------------------------------------------
 Center     Atomic      Atomic             Coordinates (Angstroms)
 Number     Number       Type             X           Y           Z
 ---------------------------------------------------------------------
      1          6           0        2.448102   -2.339884    0.835970
      2          6           0        1.273044   -1.682323    0.823702
      3          7           0        0.099663   -2.375463    0.538015
      4          6           0        0.125027   -3.798131    0.180854
      5          6           0       -1.152537   -1.780649    0.607120
      6          8           0       -2.180784   -2.399475    0.338702
      7          7           0       -1.184714   -0.461897    0.974710
      8          6           0       -2.490786    0.169385    1.070403
      9          9           0       -3.270585   -0.636796    1.869120
     10          9           0       -2.407651    1.313974    1.818100
     11          6           0       -3.300316    0.482207   -0.220079
     12          9           0       -3.521919   -0.664683   -0.924759
     13          8           0       -4.598956    0.945068    0.196643
     14          6           0       -5.394402    1.409199   -0.859582
     15          9           0       -5.022723    2.662567   -1.170489
     16          9           0       -5.296585    0.618340   -1.939082
     17          9           0       -6.677560    1.432626   -0.452882
     18          6           0       -2.483758    1.444940   -1.081151
     19          9           0       -3.099177    1.709588   -2.259148
     20          9           0       -1.282409    0.915381   -1.410961
     21          9           0       -2.274742    2.630267   -0.476217
     22          6           0       -0.063221    0.322307    1.004461
     23          8           0       -0.144533    1.547182    0.960947
     24          7           0        1.164238   -0.313546    1.058959
     25          6           0        2.323100    0.570114    1.324013
     26          9           0        1.968783    1.586506    2.162636
     27          9           0        3.216861   -0.130536    2.102789
     28          6           0        3.117906    1.126891    0.109856
     29          9           0        4.251904    1.719614    0.610284
     30          8           0        3.576261    0.023425   -0.688346
     31          6           0        4.235239    0.417169   -1.863669
     32          9           0        4.940207   -0.634816   -2.321109
     33          9           0        3.320191    0.750811   -2.787754
     34          9           0        5.073984    1.438939   -1.643288
     35          6           0        2.283798    2.186688   -0.610621
     36          9           0        1.835298    3.158748    0.205879
     37          9           0        1.230512    1.629290   -1.248013
     38          9           0        3.014557    2.813185   -1.567720
     39          1           0        3.413255   -1.891968    1.033545
     40          1           0        2.535515   -3.405923    0.654421
     41          1           0       -0.862926   -4.186550   -0.081305
     42          1           0        0.772128   -3.944412   -0.690286
     43          1           0        0.490709   -4.377361    1.035034
 ---------------------------------------------------------------------
                    Distance matrix (angstroms):
                    1          2          3          4          5
     1  C    0.000000
     2  C    1.346588   0.000000
     3  N    2.367532   1.392438   0.000000
     4  C    2.819989   2.491554   1.467035   0.000000
     5  C    3.650989   2.437215   1.388014   2.425718   0.000000
     6  O    4.655901   3.560682   2.289266   2.701466   1.229750
     7  N    4.091874   2.748239   2.345647   3.670979   1.369403
     8  C    5.544728   4.201916   3.670165   4.834766   2.410015
     9  F    6.055682   4.778137   4.019126   4.937050   2.717935
    10  F    6.155777   4.849138   4.640817   5.935373   3.552249
    11  C    6.490281   5.166265   4.505646   5.496819   3.227651
    12  F    6.445744   5.204265   4.264075   4.933669   3.034140
    13  O    7.801325   6.463495   5.763634   6.694341   4.413143
    14  C    8.856376   7.539615   6.816282   7.659170   5.506339
    15  F    9.212145   7.905160   7.385091   8.370548   6.154706
    16  F    8.742550   7.489062   6.649689   7.307067   5.423230
    17  F    9.958448   8.633926   7.836719   8.604512   6.478782
    18  C    6.505651   5.246122   4.887867   5.990677   3.876446
    19  F    7.533278   6.334457   5.894433   6.832574   4.917993
    20  F    5.437110   4.274591   4.066729   5.170295   3.370177
    21  F    6.980651   5.733673   5.632388   6.893108   4.678583
    22  C    3.663658   2.415951   2.742639   4.206159   2.401440
    23  O    4.674041   3.529598   3.952929   5.408658   3.495100
    24  N    2.409165   1.393103   2.378278   3.740770   2.779208
    25  C    2.953286   2.535035   3.773313   5.021942   4.256768
    26  F    4.172089   3.600283   4.672280   6.026708   4.847680
    27  F    2.660271   2.796879   4.147908   5.167642   4.904237
    28  C    3.604776   3.435808   4.643231   5.763524   5.190158
    29  F    4.447939   4.526845   5.832322   6.903697   6.438931
    30  O    3.030101   3.240474   4.398336   5.222147   5.224409
    31  C    4.252441   4.517126   5.538038   6.232389   6.321656
    32  F    4.368637   4.943196   5.885177   6.281110   6.856310
    33  F    4.841933   4.811815   5.586245   6.301950   6.159444
    34  F    5.226995   5.502314   6.637139   7.432804   7.362041
    35  C    4.754942   4.248312   5.186813   6.411301   5.388047
    36  F    5.568438   4.912617   5.809495   7.164064   5.786691
    37  F    4.645412   3.906481   4.528439   5.720197   4.555011
    38  F    5.714256   5.381576   6.312907   7.424042   6.572512
    39  H    1.082213   2.160668   3.385145   3.895251   4.587013
    40  H    1.084915   2.143195   2.647409   2.487679   4.030568
    41  H    3.900574   3.413584   2.142468   1.093457   2.519159
    42  H    2.777203   2.767693   2.102982   1.094999   3.173243
    43  H    2.832371   2.814239   2.099414   1.094922   3.102625
                    6          7          8          9         10
     6  O    0.000000
     7  N    2.269553   0.000000
     8  C    2.688964   1.453788   0.000000
     9  F    2.576215   2.276273   1.376940   0.000000
    10  F    4.003722   2.315297   1.369688   2.133720   0.000000
    11  C    3.141605   2.606650   1.555166   2.370191   2.375471
    12  F    2.530707   3.018548   2.395741   2.805300   3.560892
    13  O    4.129613   3.773856   2.410295   2.657827   2.750824
    14  C    5.125351   4.958538   3.700401   4.017774   4.012447
    15  F    5.998212   5.393929   4.200983   4.816119   4.193920
    16  F    4.899359   5.154084   4.138970   4.492488   4.790226
    17  F    5.960923   5.983193   4.630902   4.613207   4.837723
    18  C    4.109416   3.090325   2.501255   3.695514   2.903205
    19  F    4.947390   4.340317   3.718639   4.751578   4.154356
    20  F    3.854435   2.756423   2.858995   4.137756   3.442656
    21  F    5.096197   3.585363   2.914558   4.143188   2.648430
    22  C    3.512180   1.368798   2.433270   3.457557   2.672408
    23  O    4.484374   2.262424   2.723088   3.920043   2.431214
    24  N    4.007373   2.355139   3.686808   4.519791   3.997938
    25  C    5.484001   3.673121   4.837189   5.748312   4.814297
    26  F    6.036032   3.943560   4.805097   5.699140   4.398426
    27  F    6.115117   4.555900   5.808012   6.511364   5.814017
    28  C    6.368967   4.667415   5.770346   6.856998   5.786612
    29  F    7.643306   5.869294   6.933887   7.982805   6.780342
    30  O    6.329995   5.066377   6.318509   7.338653   6.614756
    31  C    7.345017   6.181023   7.342315   8.448784   7.647723
    32  F    7.803661   6.957513   8.207847   9.218195   8.655741
    33  F    7.068221   5.993410   6.999349   8.188422   7.371514
    34  F    8.443540   7.045452   8.136438   9.288569   8.244494
    35  C    6.470440   4.643151   5.449037   6.706143   5.354438
    36  F    6.858600   4.777096   5.329043   6.575908   4.899496
    37  F    5.512309   3.891899   4.621086   5.925499   4.768302
    38  F    7.602489   5.901185   6.652682   7.950927   6.565954
    39  H    5.659827   4.815588   6.253658   6.851814   6.691527
    40  H    4.832814   4.754995   6.182198   6.546324   6.932998
    41  H    2.259821   3.884811   4.790671   4.711871   6.020771
    42  H    3.487884   4.327742   5.538047   5.816735   6.637290
    43  H    3.396143   4.259289   5.437229   5.369810   6.434670
                   11         12         13         14         15
    11  C    0.000000
    12  F    1.364199   0.000000
    13  O    1.440265   2.238046   0.000000
    14  C    2.377704   2.794893   1.401343   0.000000
    15  F    2.936654   3.658331   2.235717   1.343778   0.000000
    16  F    2.637915   2.413387   2.270409   1.341770   2.201045
    17  F    3.516144   3.818304   2.231634   1.346272   2.183163
    18  C    1.528093   2.356427   2.521248   2.919284   2.817258
    19  F    2.388456   2.756169   2.977371   2.705009   2.406943
    20  F    2.382811   2.783595   3.685750   4.178081   4.135267
    21  F    2.394070   3.551526   2.948662   3.371981   2.834512
    22  C    3.464657   4.081499   4.649010   5.751303   5.899482
    23  O    3.533831   4.455892   4.559450   5.558281   5.439103
    24  N    4.711837   5.100833   5.961720   7.047298   7.218461
    25  C    5.832217   6.383255   7.023277   8.064241   8.035049
    26  F    5.887292   6.689370   6.885620   7.961265   7.819769
    27  F    6.945845   7.406924   8.116484   9.235815   9.295511
    28  C    6.458951   6.954670   7.719492   8.571983   8.382567
    29  F    7.697838   8.274875   8.894310   9.762586   9.490997
    30  O    6.907754   7.135373   8.274467   9.078683   9.007778
    31  C    7.712990   7.888311   9.086615   9.732538   9.551553
    32  F    8.577196   8.576611   9.991533  10.635704  10.557302
    33  F    7.106069   7.231102   8.465061   8.949606   8.710601
    34  F    8.548085   8.878686   9.858754  10.497723  10.181567
    35  C    5.851505   6.475751   7.040284   7.721478   7.343375
    36  F    5.806879   6.678079   6.804417   7.514299   7.012349
    37  F    4.785483   5.287003   6.044658   6.639940   6.338503
    38  F    6.864926   7.431991   8.035448   8.554720   8.048500
    39  H    7.230513   7.310118   8.540767   9.594606   9.837036
    40  H    7.066769   6.833792   8.369072   9.400063   9.863257
    41  H    5.268531   4.492795   6.353635   7.242403   8.087066
    42  H    6.033312   5.408368   7.317254   8.167980   8.801310
    43  H    6.289879   5.807405   7.411872   8.468080   9.209932
                   16         17         18         19         20
    16  F    0.000000
    17  F    2.186080   0.000000
    18  C    3.054719   4.240619   0.000000
    19  F    2.474241   4.017976   1.355159   0.000000
    20  F    4.059650   5.503918   1.353679   2.156579   0.000000
    21  F    3.913995   4.562860   1.347083   2.169375   2.190732
    22  C    6.011670   6.863391   3.386603   4.668267   2.769913
    23  O    5.984693   6.685243   3.106862   4.373249   2.705528
    24  N    7.183237   8.174875   4.580417   5.768848   3.687390
    25  C    8.289132   9.214834   5.445734   6.598373   4.538611
    26  F    8.399227   9.034592   5.510655   6.726927   4.877628
    27  F    9.453904  10.338012   6.716893   7.893344   5.803776
    28  C    8.675277   9.816379   5.735703   6.678610   4.660514
    29  F    9.944130  10.984802   6.950219   7.891269   5.946498
    30  O    8.980293  10.352881   6.236893   7.062014   4.992437
    31  C    9.534245  11.050369   6.842044   7.457909   5.558561
    32  F   10.320284  11.947263   7.808850   8.374471   6.477070
    33  F    8.659482  10.289389   6.089346   6.512063   4.806929
    34  F   10.407189  11.811685   7.578621   8.200798   6.382149
    35  C    7.854090   8.994411   4.847801   5.649928   3.869703
    36  F    7.868817   8.711040   4.821600   5.703110   4.167369
    37  F    6.640978   7.950378   3.722584   4.446915   2.617440
    38  F    8.604088   9.853220   5.686854   6.250899   4.700016
    39  H    9.539364  10.727858   7.098004   8.137862   5.992168
    40  H    9.179474  10.465105   7.192787   8.149055   6.125032
    41  H    6.796737   8.094639   5.944785   6.671451   5.289012
    42  H    7.694639   9.190579   6.308620   7.029655   5.325231
    43  H    8.203363   9.346332   6.872036   7.796786   6.094256
                   21         22         23         24         25
    21  F    0.000000
    22  C    3.522770   0.000000
    23  O    2.788602   1.228342   0.000000
    24  N    4.780103   1.383450   2.277015   0.000000
    25  C    5.350253   2.420341   2.678748   1.481239   0.000000
    26  F    5.104947   2.658686   2.431400   2.339999   1.364508
    27  F    6.665659   3.488600   3.926514   2.310051   1.377030
    28  C    5.628879   3.401065   3.397721   2.606238   1.554315
    29  F    6.678838   4.552817   4.413769   3.724074   2.356065
    30  O    6.408967   4.025016   4.345838   2.997412   2.432873
    31  C    7.014462   5.168358   5.332709   4.301947   3.720347
    32  F    8.131413   6.083567   6.433319   5.077993   4.646291
    33  F    6.338678   5.100195   5.166360   4.536319   4.234793
    34  F    7.535588   5.886282   5.833239   5.065516   4.138489
    35  C    4.582043   3.404835   2.962361   3.208127   2.521441
    36  F    4.199640   3.505354   2.662143   3.637979   2.861678
    37  F    3.726182   2.907850   2.603266   3.016807   2.988465
    38  F    5.403843   4.721579   4.239902   4.483254   3.724460
    39  H    7.421812   4.121862   4.948826   2.747752   2.708257
    40  H    7.800802   4.558032   5.640023   3.406882   4.037616
    41  H    6.972673   4.706188   5.871802   4.517716   5.895043
    42  H    7.249527   4.666355   5.807275   4.049296   5.181106
    43  H    7.683648   4.732299   5.958962   4.119321   5.283812
                   26         27         28         29         30
    26  F    0.000000
    27  F    2.123562   0.000000
    28  C    2.397005   2.358537   0.000000
    29  F    2.764083   2.592670   1.373936   0.000000
    30  O    3.627024   2.818387   1.436960   2.240534   0.000000
    31  C    4.766057   4.131569   2.376329   2.795905   1.403806
    32  F    5.819588   4.774421   3.511977   3.822325   2.227004
    33  F    5.199139   4.970398   2.928907   3.654221   2.236555
    34  F    4.914174   4.466011   2.645209   2.415198   2.271292
    35  C    2.854892   3.688188   1.529050   2.362670   2.521152
    36  F    2.513695   4.040591   2.404734   2.841590   3.696057
    37  F    3.489900   4.274394   2.378754   3.548272   2.897338
    38  F    4.063735   4.709465   2.380867   2.733245   2.978518
    39  H    3.932064   2.069902   3.170795   3.731756   2.580738
    40  H    5.245974   3.645567   4.602405   5.405467   3.827088
    41  H    6.810435   6.153550   6.642004   7.843631   6.148070
    42  H    6.337365   5.321996   5.644556   6.773589   4.858693
    43  H    6.246911   5.158249   6.168866   7.176357   5.644253
                   31         32         33         34         35
    31  C    0.000000
    32  F    1.346441   0.000000
    33  F    1.342596   2.182240   0.000000
    34  F    1.340177   2.185817   2.204339   0.000000
    35  C    2.917096   4.235937   2.806379   3.067681   0.000000
    36  F    4.190346   5.515184   4.118848   4.106854   1.346375
    37  F    3.297977   4.476555   2.740308   3.868430   1.351433
    38  F    2.705281   4.020502   2.415633   2.476995   1.357404
    39  H    3.794947   3.894319   4.647071   4.584583   4.540307
    40  H    4.883223   4.723913   5.453689   5.932620   5.739424
    41  H    7.096643   7.162953   7.014333   8.326633   7.127427
    42  H    5.691516   5.566497   5.739087   6.956626   6.315210
    43  H    6.738806   6.713298   6.994128   7.874590   7.000721
                   36         37         38         39         40
    36  F    0.000000
    37  F    2.195179   0.000000
    38  F    2.157712   2.164864   0.000000
    39  H    5.355811   4.729602   5.391104   0.000000
    40  H    6.617129   5.538561   6.621533   1.790593   0.000000
    41  H    7.830472   6.290285   8.138832   4.979329   3.563716
    42  H    7.237978   5.620261   7.173806   3.762934   2.282048
    43  H    7.699893   6.468344   8.052831   3.836464   2.295602
                   41         42         43
    41  H    0.000000
    42  H    1.761502   0.000000
    43  H    1.764922   1.800936   0.000000
 Symmetry turned off by external request.
 Stoichiometry    C13H5F18N3O4(1+,2)
 Framework group  C1[X(C13H5F18N3O4)]
 Deg. of freedom   123
 Full point group                 C1      NOp   1
 Rotational constants (GHZ):      0.1909743      0.0669072      0.0606807
 Leave Link  202 at Sun Mar  3 17:37:01 2024, MaxMem=  5368709120 cpu:         0.1
 (Enter /home/k0335/k033513/app/g09/l301.exe)
 Standard basis: 6-31G(d,p) (6D, 7F)
 Ernie: Thresh=  0.10000D-02 Tol=  0.10000D-05 Strict=F.
   595 basis functions,  1099 primitive gaussians,   595 cartesian basis functions
   149 alpha electrons      148 beta electrons
       nuclear repulsion energy      5714.5053042414 Hartrees.
 IExCor=20419 DFT=T Ex+Corr=CAM-B3LYP ExCW=0 ScaHFX=  1.000000
 ScaDFX=  1.000000  1.000000  1.000000  0.810000 ScalE2=  1.000000  1.000000
 IRadAn=      0 IRanWt=     -1 IRanGd=            0 ICorTp=0 IEmpDi=  4
  HFx wShort=  0.000000 wLong=  0.330000 cFull=  0.190000 cShort=  0.000000 cLong=  0.460000
  DFx wShort=  0.000000 wLong=  0.330000 cFull=  0.190000 cShort=  0.000000 cLong=  0.460000
 NAtoms=   43 NActive=   43 NUniq=   43 SFac= 1.00D+00 NAtFMM=   60 NAOKFM=F Big=F
 Integral buffers will be    131072 words long.
 Raffenetti 2 integral format.
 Two-electron integral symmetry is turned off.
 Using the following non-standard input for PCM:
 eps=4.9
 --- end of non-standard input.
 ------------------------------------------------------------------------------
 Polarizable Continuum Model (PCM)
 =================================
 Model                : PCM (using non-symmetric T matrix).
 Atomic radii         : UFF (Universal Force Field).
 Polarization charges : Total charges.
 Charge compensation  : None.
 Solution method      : On-the-fly selection.
 Cavity type          : Scaled VdW (van der Waals Surface) (Alpha=1.100).
 Cavity algorithm     : GePol (No added spheres)
                        Default sphere list used, NSphG=   43.
                        Lebedev-Laikov grids with approx.  5.0 points / Ang**2.
                        Smoothing algorithm: Karplus/York (Gamma=1.0000).
                        Polarization charges: spherical gaussians, with
                                              point-specific exponents (IZeta= 3).
                        Self-potential: point-specific (ISelfS= 7).
                        Self-field    : sphere-specific E.n sum rule (ISelfD= 2).
 Solvent              : Generic,
                        Eps                           =   4.900000
                        Eps(infinity)                 =   0.000000
                        RSolv                         =   0.000000 Ang.
                        Molar volume                  =   0.000000 cm**3/mol
                        Thermal expansion coefficient =   0.000000 K**-1
                        Absolute temperature          = 298.150000 K
                        Numeral density               =   0.000000 Ang**-3
                        Hydrogen bond acidity         =   0.000000
                        Hydrogen bond basicity        =   0.000000
                        Surface tension at interface  =   0.000000 (cal/mol)*Ang**-2
                        Carbon aromaticity            =   0.000000
                        Electronegative halogenicity  =   0.000000
 ------------------------------------------------------------------------------
 GePol: Number of generator spheres                  =      43
 GePol: Total number of spheres                      =      43
 GePol: Number of exposed spheres                    =      43 (100.00%)
 GePol: Number of points                             =    3426
 GePol: Average weight of points                     =       0.12
 GePol: Minimum weight of points                     =   0.11D-10
 GePol: Maximum weight of points                     =    0.20577
 GePol: Number of points with low weight             =     148
 GePol: Fraction of low-weight points (<1% of avg)   =       4.32%
 GePol: Cavity surface area                          =    422.191 Ang**2
 GePol: Cavity volume                                =    505.837 Ang**3
 Leave Link  301 at Sun Mar  3 17:37:01 2024, MaxMem=  5368709120 cpu:         0.9
 (Enter /home/k0335/k033513/app/g09/l302.exe)
 NPDir=0 NMtPBC=     1 NCelOv=     1 NCel=       1 NClECP=     1 NCelD=      1
         NCelK=      1 NCelE2=     1 NClLst=     1 CellRange=     0.0.
 One-electron integrals computed using PRISM.
 NBasis=   595 RedAO= T EigKep=  1.28D-03  NBF=   595
 NBsUse=   595 1.00D-06 EigRej= -1.00D+00 NBFU=   595
 Precomputing XC quadrature grid using
 IXCGrd= 4 IRadAn=           0 IRanWt=          -1 IRanGd=           0 AccXCQ= 0.00D+00.
 Generated NRdTot=       0 NPtTot=           0 NUsed=           0 NTot=          32
 NSgBfM=   579   579   579   579   579 MxSgAt=    43 MxSgA2=    43.
 Leave Link  302 at Sun Mar  3 17:37:02 2024, MaxMem=  5368709120 cpu:        12.5
 (Enter /home/k0335/k033513/app/g09/l303.exe)
 DipDrv:  MaxL=1.
 Leave Link  303 at Sun Mar  3 17:37:02 2024, MaxMem=  5368709120 cpu:         0.9
 (Enter /home/k0335/k033513/app/g09/l401.exe)
 ExpMin= 1.61D-01 ExpMax= 7.00D+03 ExpMxC= 1.05D+03 IAcc=1 IRadAn=         1 AccDes= 0.00D+00
 Harris functional with IExCor=20419 and IRadAn=       1 diagonalized for initial guess.
 HarFok:  IExCor=20419 AccDes= 0.00D+00 IRadAn=         1 IDoV= 1 UseB2=F ITyADJ=14
 ICtDFT=  3500011 ScaDFX=  1.000000  1.000000  1.000000  1.000000
 FoFCou: FMM=F IPFlag=           0 FMFlag=      100000 FMFlg1=           0
         NFxFlg=           0 DoJE=T BraDBF=F KetDBF=T FulRan=T
         wScrn=  0.000000 ICntrl=     500 IOpCl=  0 I1Cent=   200000004 NGrid=           0
         NMat0=    1 NMatS0=      1 NMatT0=    0 NMatD0=    1 NMtDS0=    0 NMtDT0=    0
 Symmetry not used in FoFCou.
 Harris En= -2677.10092766565    
 JPrj=0 DoOrth=F DoCkMO=F.
 Initial guess <Sx>= 0.0000 <Sy>= 0.0000 <Sz>= 0.5000 <S**2>= 0.7500 S= 0.5000
 Leave Link  401 at Sun Mar  3 17:37:02 2024, MaxMem=  5368709120 cpu:        16.1
 (Enter /home/k0335/k033513/app/g09/l502.exe)
 UHF open shell SCF:
 Using DIIS extrapolation, IDIIS=  1040.
 Two-electron integral symmetry not used.
 IVT=     1098561 IEndB=     1098561 NGot=  5368709120 MDV=  5367981820
 LenX=  5367981820 LenY=  5367627200
 Requested convergence on RMS density matrix=1.00D-08 within 128 cycles.
 Requested convergence on MAX density matrix=1.00D-06.
 Requested convergence on             energy=1.00D-06.
 No special actions if energy rises.
 Fock matrices will be formed incrementally for  20 cycles.

 Cycle   1  Pass 1  IDiag  1:
 FoFJK:  IHMeth= 1 ICntrl=       0 DoSepK=T KAlg= 0 I1Cent=   0 FoldK=F
 IRaf=         1 NMat=   1 IRICut=       1 DoRegI=T DoRafI=F ISym2E= 0.
 FoFCou: FMM=F IPFlag=           0 FMFlag=      100000 FMFlg1=           0
         NFxFlg=           0 DoJE=T BraDBF=F KetDBF=F FulRan=T
         wScrn=  0.000000 ICntrl=     500 IOpCl=  0 I1Cent=           0 NGrid=           0
         NMat0=    1 NMatS0=      1 NMatT0=    0 NMatD0=    1 NMtDS0=    0 NMtDT0=    0
 Symmetry not used in FoFCou.
 Inv3:  Mode=1 IEnd=    35212428.
 Iteration    1 A*A^-1 deviation from unit magnitude is 9.99D-15 for   3392.
 Iteration    1 A*A^-1 deviation from orthogonality  is 4.06D-15 for   3397   3313.
 Iteration    1 A^-1*A deviation from unit magnitude is 9.77D-15 for   3392.
 Iteration    1 A^-1*A deviation from orthogonality  is 1.10D-14 for   2434   2356.
 E= -2758.46944621437    
 DIIS: error= 4.14D-02 at cycle   1 NSaved=   1.
 NSaved= 1 IEnMin= 1 EnMin= -2758.46944621437     IErMin= 1 ErrMin= 4.14D-02
 ErrMax= 4.14D-02  0.00D+00 EMaxC= 1.00D-01 BMatC= 9.90D+00 BMatP= 9.90D+00
 IDIUse=3 WtCom= 5.86D-01 WtEn= 4.14D-01
 Coeff-Com:  0.100D+01
 Coeff-En:   0.100D+01
 Coeff:      0.100D+01
 Gap=     0.391 Goal=   None    Shift=    0.000
 Gap=     0.162 Goal=   None    Shift=    0.000
 GapD=    0.162 DampG=1.000 DampE=0.500 DampFc=0.5000 IDamp=-1.
 Damping current iteration by 5.00D-01
 RMSDP=3.45D-03 MaxDP=1.53D-01              OVMax= 3.94D-01

 Cycle   2  Pass 1  IDiag  1:
 RMSU=  1.73D-03    CP:  1.00D+00
 E= -2759.02416974790     Delta-E=       -0.554723533534 Rises=F Damp=T
 DIIS: error= 2.30D-02 at cycle   2 NSaved=   2.
 NSaved= 2 IEnMin= 2 EnMin= -2759.02416974790     IErMin= 2 ErrMin= 2.30D-02
 ErrMax= 2.30D-02  0.00D+00 EMaxC= 1.00D-01 BMatC= 1.25D+00 BMatP= 9.90D+00
 IDIUse=3 WtCom= 7.70D-01 WtEn= 2.30D-01
 Coeff-Com: -0.229D+00 0.123D+01
 Coeff-En:   0.000D+00 0.100D+01
 Coeff:     -0.177D+00 0.118D+01
 Gap=     0.408 Goal=   None    Shift=    0.000
 Gap=     0.241 Goal=   None    Shift=    0.000
 RMSDP=1.19D-03 MaxDP=8.88D-02 DE=-5.55D-01 OVMax= 2.31D-01

 Cycle   3  Pass 1  IDiag  1:
 RMSU=  1.15D-03    CP:  9.99D-01  1.18D+00
 E= -2759.43822531029     Delta-E=       -0.414055562387 Rises=F Damp=F
 DIIS: error= 1.24D-02 at cycle   3 NSaved=   3.
 NSaved= 3 IEnMin= 3 EnMin= -2759.43822531029     IErMin= 3 ErrMin= 1.24D-02
 ErrMax= 1.24D-02  0.00D+00 EMaxC= 1.00D-01 BMatC= 8.46D-01 BMatP= 1.25D+00
 IDIUse=3 WtCom= 8.76D-01 WtEn= 1.24D-01
 Coeff-Com: -0.188D+00 0.647D+00 0.541D+00
 Coeff-En:   0.000D+00 0.000D+00 0.100D+01
 Coeff:     -0.165D+00 0.567D+00 0.598D+00
 Gap=     0.348 Goal=   None    Shift=    0.000
 Gap=     0.188 Goal=   None    Shift=    0.000
 RMSDP=8.75D-04 MaxDP=1.02D-01 DE=-4.14D-01 OVMax= 1.39D-01

 Cycle   4  Pass 1  IDiag  1:
 RMSU=  4.98D-04    CP:  9.99D-01  1.39D+00  4.60D-01
 E= -2759.56563628474     Delta-E=       -0.127410974446 Rises=F Damp=F
 DIIS: error= 5.44D-03 at cycle   4 NSaved=   4.
 NSaved= 4 IEnMin= 4 EnMin= -2759.56563628474     IErMin= 4 ErrMin= 5.44D-03
 ErrMax= 5.44D-03  0.00D+00 EMaxC= 1.00D-01 BMatC= 1.86D-01 BMatP= 8.46D-01
 IDIUse=3 WtCom= 9.46D-01 WtEn= 5.44D-02
 Coeff-Com: -0.490D-01 0.122D+00 0.343D+00 0.584D+00
 Coeff-En:   0.000D+00 0.000D+00 0.185D+00 0.815D+00
 Coeff:     -0.464D-01 0.115D+00 0.335D+00 0.596D+00
 Gap=     0.354 Goal=   None    Shift=    0.000
 Gap=     0.201 Goal=   None    Shift=    0.000
 RMSDP=3.33D-04 MaxDP=3.88D-02 DE=-1.27D-01 OVMax= 4.14D-02

 Cycle   5  Pass 1  IDiag  1:
 RMSU=  1.45D-04    CP:  9.98D-01  1.34D+00  6.75D-01  7.08D-01
 E= -2759.59844723317     Delta-E=       -0.032810948438 Rises=F Damp=F
 DIIS: error= 8.47D-04 at cycle   5 NSaved=   5.
 NSaved= 5 IEnMin= 5 EnMin= -2759.59844723317     IErMin= 5 ErrMin= 8.47D-04
 ErrMax= 8.47D-04  0.00D+00 EMaxC= 1.00D-01 BMatC= 8.15D-03 BMatP= 1.86D-01
 IDIUse=3 WtCom= 9.92D-01 WtEn= 8.47D-03
 Coeff-Com: -0.969D-02 0.151D-01 0.132D+00 0.307D+00 0.556D+00
 Coeff-En:   0.000D+00 0.000D+00 0.000D+00 0.000D+00 0.100D+01
 Coeff:     -0.960D-02 0.150D-01 0.131D+00 0.304D+00 0.559D+00
 Gap=     0.345 Goal=   None    Shift=    0.000
 Gap=     0.197 Goal=   None    Shift=    0.000
 RMSDP=7.16D-05 MaxDP=7.52D-03 DE=-3.28D-02 OVMax= 1.71D-02

 Cycle   6  Pass 1  IDiag  1:
 RMSU=  5.69D-05    CP:  9.99D-01  1.35D+00  6.69D-01  7.65D-01  8.08D-01
 E= -2759.60030045128     Delta-E=       -0.001853218102 Rises=F Damp=F
 DIIS: error= 3.76D-04 at cycle   6 NSaved=   6.
 NSaved= 6 IEnMin= 6 EnMin= -2759.60030045128     IErMin= 6 ErrMin= 3.76D-04
 ErrMax= 3.76D-04  0.00D+00 EMaxC= 1.00D-01 BMatC= 4.65D-04 BMatP= 8.15D-03
 IDIUse=3 WtCom= 9.96D-01 WtEn= 3.76D-03
 Coeff-Com:  0.528D-02-0.134D-01-0.293D-01-0.447D-01 0.110D+00 0.972D+00
 Coeff-En:   0.000D+00 0.000D+00 0.000D+00 0.000D+00 0.000D+00 0.100D+01
 Coeff:      0.526D-02-0.133D-01-0.292D-01-0.446D-01 0.109D+00 0.972D+00
 Gap=     0.347 Goal=   None    Shift=    0.000
 Gap=     0.199 Goal=   None    Shift=    0.000
 RMSDP=4.35D-05 MaxDP=6.70D-03 DE=-1.85D-03 OVMax= 1.53D-02

 Cycle   7  Pass 1  IDiag  1:
 RMSU=  2.31D-05    CP:  9.98D-01  1.35D+00  6.77D-01  7.97D-01  9.83D-01
                    CP:  1.34D+00
 E= -2759.60068748950     Delta-E=       -0.000387038219 Rises=F Damp=F
 DIIS: error= 2.16D-04 at cycle   7 NSaved=   7.
 NSaved= 7 IEnMin= 7 EnMin= -2759.60068748950     IErMin= 7 ErrMin= 2.16D-04
 ErrMax= 2.16D-04  0.00D+00 EMaxC= 1.00D-01 BMatC= 1.36D-04 BMatP= 4.65D-04
 IDIUse=3 WtCom= 9.98D-01 WtEn= 2.16D-03
 Coeff-Com:  0.337D-02-0.635D-02-0.296D-01-0.647D-01-0.310D-01 0.376D+00
 Coeff-Com:  0.752D+00
 Coeff-En:   0.000D+00 0.000D+00 0.000D+00 0.000D+00 0.000D+00 0.000D+00
 Coeff-En:   0.100D+01
 Coeff:      0.336D-02-0.634D-02-0.296D-01-0.646D-01-0.309D-01 0.376D+00
 Coeff:      0.753D+00
 Gap=     0.347 Goal=   None    Shift=    0.000
 Gap=     0.202 Goal=   None    Shift=    0.000
 RMSDP=2.05D-05 MaxDP=2.52D-03 DE=-3.87D-04 OVMax= 8.78D-03

 Cycle   8  Pass 1  IDiag  1:
 RMSU=  1.09D-05    CP:  9.98D-01  1.35D+00  6.79D-01  8.01D-01  1.05D+00
                    CP:  1.57D+00  1.19D+00
 E= -2759.60079279586     Delta-E=       -0.000105306368 Rises=F Damp=F
 DIIS: error= 9.21D-05 at cycle   8 NSaved=   8.
 NSaved= 8 IEnMin= 8 EnMin= -2759.60079279586     IErMin= 8 ErrMin= 9.21D-05
 ErrMax= 9.21D-05  0.00D+00 EMaxC= 1.00D-01 BMatC= 3.19D-05 BMatP= 1.36D-04
 IDIUse=1 WtCom= 1.00D+00 WtEn= 0.00D+00
 Coeff-Com: -0.687D-03 0.213D-02 0.372D-03-0.633D-02-0.323D-01-0.187D+00
 Coeff-Com:  0.137D+00 0.109D+01
 Coeff:     -0.687D-03 0.213D-02 0.372D-03-0.633D-02-0.323D-01-0.187D+00
 Coeff:      0.137D+00 0.109D+01
 Gap=     0.347 Goal=   None    Shift=    0.000
 Gap=     0.202 Goal=   None    Shift=    0.000
 RMSDP=1.82D-05 MaxDP=2.08D-03 DE=-1.05D-04 OVMax= 7.68D-03

 Cycle   9  Pass 1  IDiag  1:
 RMSU=  5.82D-06    CP:  9.98D-01  1.35D+00  6.81D-01  8.05D-01  1.10D+00
                    CP:  1.74D+00  1.63D+00  1.54D+00
 E= -2759.60083874486     Delta-E=       -0.000045948998 Rises=F Damp=F
 DIIS: error= 4.88D-05 at cycle   9 NSaved=   9.
 NSaved= 9 IEnMin= 9 EnMin= -2759.60083874486     IErMin= 9 ErrMin= 4.88D-05
 ErrMax= 4.88D-05  0.00D+00 EMaxC= 1.00D-01 BMatC= 9.53D-06 BMatP= 3.19D-05
 IDIUse=1 WtCom= 1.00D+00 WtEn= 0.00D+00
 Coeff-Com: -0.108D-02 0.226D-02 0.752D-02 0.142D-01-0.220D-04-0.152D+00
 Coeff-Com: -0.119D+00 0.428D+00 0.821D+00
 Coeff:     -0.108D-02 0.226D-02 0.752D-02 0.142D-01-0.220D-04-0.152D+00
 Coeff:     -0.119D+00 0.428D+00 0.821D+00
 Gap=     0.348 Goal=   None    Shift=    0.000
 Gap=     0.202 Goal=   None    Shift=    0.000
 RMSDP=8.16D-06 MaxDP=1.34D-03 DE=-4.59D-05 OVMax= 4.19D-03

 Cycle  10  Pass 1  IDiag  1:
 RMSU=  3.19D-06    CP:  9.98D-01  1.35D+00  6.81D-01  8.07D-01  1.11D+00
                    CP:  1.80D+00  1.81D+00  1.96D+00  1.27D+00
 E= -2759.60085038058     Delta-E=       -0.000011635717 Rises=F Damp=F
 DIIS: error= 3.71D-05 at cycle  10 NSaved=  10.
 NSaved=10 IEnMin=10 EnMin= -2759.60085038058     IErMin=10 ErrMin= 3.71D-05
 ErrMax= 3.71D-05  0.00D+00 EMaxC= 1.00D-01 BMatC= 3.51D-06 BMatP= 9.53D-06
 IDIUse=1 WtCom= 1.00D+00 WtEn= 0.00D+00
 Coeff-Com: -0.659D-04-0.238D-04 0.177D-02 0.576D-02 0.106D-01 0.177D-01
 Coeff-Com: -0.719D-01-0.257D+00 0.251D+00 0.104D+01
 Coeff:     -0.659D-04-0.238D-04 0.177D-02 0.576D-02 0.106D-01 0.177D-01
 Coeff:     -0.719D-01-0.257D+00 0.251D+00 0.104D+01
 Gap=     0.348 Goal=   None    Shift=    0.000
 Gap=     0.202 Goal=   None    Shift=    0.000
 RMSDP=6.43D-06 MaxDP=9.23D-04 DE=-1.16D-05 OVMax= 3.06D-03

 Cycle  11  Pass 1  IDiag  1:
 RMSU=  1.87D-06    CP:  9.98D-01  1.35D+00  6.81D-01  8.07D-01  1.12D+00
                    CP:  1.84D+00  1.94D+00  2.25D+00  1.80D+00  1.56D+00
 E= -2759.60085595797     Delta-E=       -0.000005577391 Rises=F Damp=F
 DIIS: error= 2.46D-05 at cycle  11 NSaved=  11.
 NSaved=11 IEnMin=11 EnMin= -2759.60085595797     IErMin=11 ErrMin= 2.46D-05
 ErrMax= 2.46D-05  0.00D+00 EMaxC= 1.00D-01 BMatC= 9.69D-07 BMatP= 3.51D-06
 IDIUse=1 WtCom= 1.00D+00 WtEn= 0.00D+00
 Coeff-Com:  0.368D-03-0.820D-03-0.196D-02-0.283D-02 0.436D-02 0.594D-01
 Coeff-Com:  0.200D-01-0.255D+00-0.134D+00 0.374D+00 0.937D+00
 Coeff:      0.368D-03-0.820D-03-0.196D-02-0.283D-02 0.436D-02 0.594D-01
 Coeff:      0.200D-01-0.255D+00-0.134D+00 0.374D+00 0.937D+00
 Gap=     0.348 Goal=   None    Shift=    0.000
 Gap=     0.202 Goal=   None    Shift=    0.000
 RMSDP=3.66D-06 MaxDP=6.41D-04 DE=-5.58D-06 OVMax= 1.90D-03

 Cycle  12  Pass 1  IDiag  1:
 RMSU=  1.10D-06    CP:  9.98D-01  1.35D+00  6.81D-01  8.07D-01  1.13D+00
                    CP:  1.85D+00  1.99D+00  2.41D+00  2.11D+00  2.11D+00
                    CP:  1.36D+00
 E= -2759.60085780288     Delta-E=       -0.000001844908 Rises=F Damp=F
 DIIS: error= 1.76D-05 at cycle  12 NSaved=  12.
 NSaved=12 IEnMin=12 EnMin= -2759.60085780288     IErMin=12 ErrMin= 1.76D-05
 ErrMax= 1.76D-05  0.00D+00 EMaxC= 1.00D-01 BMatC= 4.42D-07 BMatP= 9.69D-07
 IDIUse=1 WtCom= 1.00D+00 WtEn= 0.00D+00
 Coeff-Com:  0.181D-03-0.351D-03-0.136D-02-0.313D-02-0.197D-02 0.169D-01
 Coeff-Com:  0.387D-01-0.191D-01-0.134D+00-0.275D+00 0.428D+00 0.951D+00
 Coeff:      0.181D-03-0.351D-03-0.136D-02-0.313D-02-0.197D-02 0.169D-01
 Coeff:      0.387D-01-0.191D-01-0.134D+00-0.275D+00 0.428D+00 0.951D+00
 Gap=     0.348 Goal=   None    Shift=    0.000
 Gap=     0.202 Goal=   None    Shift=    0.000
 RMSDP=2.49D-06 MaxDP=3.89D-04 DE=-1.84D-06 OVMax= 1.20D-03

 Cycle  13  Pass 1  IDiag  1:
 RMSU=  5.54D-07    CP:  9.98D-01  1.35D+00  6.81D-01  8.08D-01  1.13D+00
                    CP:  1.86D+00  2.03D+00  2.50D+00  2.32D+00  2.46D+00
                    CP:  1.90D+00  1.41D+00
 E= -2759.60085846119     Delta-E=       -0.000000658309 Rises=F Damp=F
 DIIS: error= 7.59D-06 at cycle  13 NSaved=  13.
 NSaved=13 IEnMin=13 EnMin= -2759.60085846119     IErMin=13 ErrMin= 7.59D-06
 ErrMax= 7.59D-06  0.00D+00 EMaxC= 1.00D-01 BMatC= 8.35D-08 BMatP= 4.42D-07
 IDIUse=1 WtCom= 1.00D+00 WtEn= 0.00D+00
 Coeff-Com: -0.389D-04 0.100D-03 0.127D-03-0.246D-03-0.230D-02-0.133D-01
 Coeff-Com:  0.103D-01 0.695D-01-0.389D-02-0.230D+00-0.103D+00 0.310D+00
 Coeff-Com:  0.964D+00
 Coeff:     -0.389D-04 0.100D-03 0.127D-03-0.246D-03-0.230D-02-0.133D-01
 Coeff:      0.103D-01 0.695D-01-0.389D-02-0.230D+00-0.103D+00 0.310D+00
 Coeff:      0.964D+00
 Gap=     0.348 Goal=   None    Shift=    0.000
 Gap=     0.202 Goal=   None    Shift=    0.000
 RMSDP=1.25D-06 MaxDP=1.98D-04 DE=-6.58D-07 OVMax= 5.92D-04

 Cycle  14  Pass 1  IDiag  1:
 RMSU=  3.02D-07    CP:  9.98D-01  1.35D+00  6.81D-01  8.08D-01  1.13D+00
                    CP:  1.87D+00  2.04D+00  2.54D+00  2.41D+00  2.63D+00
                    CP:  2.19D+00  1.81D+00  1.26D+00
 E= -2759.60085859039     Delta-E=       -0.000000129206 Rises=F Damp=F
 DIIS: error= 3.30D-06 at cycle  14 NSaved=  14.
 NSaved=14 IEnMin=14 EnMin= -2759.60085859039     IErMin=14 ErrMin= 3.30D-06
 ErrMax= 3.30D-06  0.00D+00 EMaxC= 1.00D-01 BMatC= 2.59D-08 BMatP= 8.35D-08
 IDIUse=1 WtCom= 1.00D+00 WtEn= 0.00D+00
 Coeff-Com: -0.487D-04 0.106D-03 0.321D-03 0.481D-03-0.688D-03-0.952D-02
 Coeff-Com: -0.188D-02 0.348D-01 0.281D-01-0.467D-01-0.128D+00-0.715D-01
 Coeff-Com:  0.467D+00 0.728D+00
 Coeff:     -0.487D-04 0.106D-03 0.321D-03 0.481D-03-0.688D-03-0.952D-02
 Coeff:     -0.188D-02 0.348D-01 0.281D-01-0.467D-01-0.128D+00-0.715D-01
 Coeff:      0.467D+00 0.728D+00
 Gap=     0.348 Goal=   None    Shift=    0.000
 Gap=     0.202 Goal=   None    Shift=    0.000
 RMSDP=3.16D-07 MaxDP=5.02D-05 DE=-1.29D-07 OVMax= 1.24D-04

 Cycle  15  Pass 1  IDiag  1:
 RMSU=  1.39D-07    CP:  9.98D-01  1.35D+00  6.81D-01  8.08D-01  1.13D+00
                    CP:  1.87D+00  2.04D+00  2.54D+00  2.43D+00  2.67D+00
                    CP:  2.26D+00  1.92D+00  1.51D+00  1.04D+00
 E= -2759.60085860569     Delta-E=       -0.000000015300 Rises=F Damp=F
 DIIS: error= 1.13D-06 at cycle  15 NSaved=  15.
 NSaved=15 IEnMin=15 EnMin= -2759.60085860569     IErMin=15 ErrMin= 1.13D-06
 ErrMax= 1.13D-06  0.00D+00 EMaxC= 1.00D-01 BMatC= 5.11D-09 BMatP= 2.59D-08
 IDIUse=1 WtCom= 1.00D+00 WtEn= 0.00D+00
 Coeff-Com: -0.103D-04 0.195D-04 0.108D-03 0.240D-03 0.222D-03-0.120D-02
 Coeff-Com: -0.256D-02-0.816D-03 0.116D-01 0.256D-01-0.337D-01-0.101D+00
 Coeff-Com: -0.482D-02 0.303D+00 0.803D+00
 Coeff:     -0.103D-04 0.195D-04 0.108D-03 0.240D-03 0.222D-03-0.120D-02
 Coeff:     -0.256D-02-0.816D-03 0.116D-01 0.256D-01-0.337D-01-0.101D+00
 Coeff:     -0.482D-02 0.303D+00 0.803D+00
 Gap=     0.348 Goal=   None    Shift=    0.000
 Gap=     0.202 Goal=   None    Shift=    0.000
 RMSDP=1.88D-07 MaxDP=3.24D-05 DE=-1.53D-08 OVMax= 6.86D-05

 Cycle  16  Pass 1  IDiag  1:
 RMSU=  6.57D-08    CP:  9.98D-01  1.35D+00  6.81D-01  8.08D-01  1.13D+00
                    CP:  1.87D+00  2.04D+00  2.54D+00  2.44D+00  2.69D+00
                    CP:  2.29D+00  1.98D+00  1.61D+00  1.26D+00  1.10D+00
 E= -2759.60085860941     Delta-E=       -0.000000003716 Rises=F Damp=F
 DIIS: error= 6.71D-07 at cycle  16 NSaved=  16.
 NSaved=16 IEnMin=16 EnMin= -2759.60085860941     IErMin=16 ErrMin= 6.71D-07
 ErrMax= 6.71D-07  0.00D+00 EMaxC= 1.00D-01 BMatC= 1.25D-09 BMatP= 5.11D-09
 IDIUse=1 WtCom= 1.00D+00 WtEn= 0.00D+00
 Coeff-Com:  0.551D-05-0.133D-04-0.125D-04 0.143D-04 0.271D-03 0.133D-02
 Coeff-Com: -0.816D-03-0.741D-02-0.125D-03 0.213D-01 0.136D-01-0.262D-01
 Coeff-Com: -0.966D-01-0.259D-01 0.350D+00 0.771D+00
 Coeff:      0.551D-05-0.133D-04-0.125D-04 0.143D-04 0.271D-03 0.133D-02
 Coeff:     -0.816D-03-0.741D-02-0.125D-03 0.213D-01 0.136D-01-0.262D-01
 Coeff:     -0.966D-01-0.259D-01 0.350D+00 0.771D+00
 Gap=     0.348 Goal=   None    Shift=    0.000
 Gap=     0.202 Goal=   None    Shift=    0.000
 RMSDP=5.63D-08 MaxDP=9.96D-06 DE=-3.72D-09 OVMax= 1.43D-05

 Cycle  17  Pass 1  IDiag  1:
 RMSU=  3.21D-08    CP:  9.98D-01  1.35D+00  6.81D-01  8.08D-01  1.13D+00
                    CP:  1.87D+00  2.04D+00  2.54D+00  2.44D+00  2.69D+00
                    CP:  2.29D+00  1.99D+00  1.64D+00  1.33D+00  1.34D+00
                    CP:  1.22D+00
 E= -2759.60085861012     Delta-E=       -0.000000000715 Rises=F Damp=F
 DIIS: error= 2.99D-07 at cycle  17 NSaved=  17.
 NSaved=17 IEnMin=17 EnMin= -2759.60085861012     IErMin=17 ErrMin= 2.99D-07
 ErrMax= 2.99D-07  0.00D+00 EMaxC= 1.00D-01 BMatC= 2.83D-10 BMatP= 1.25D-09
 IDIUse=1 WtCom= 1.00D+00 WtEn= 0.00D+00
 Coeff-Com:  0.397D-05-0.832D-05-0.323D-04-0.625D-04 0.281D-04 0.699D-03
 Coeff-Com:  0.231D-03-0.193D-02-0.321D-02-0.284D-03 0.124D-01 0.189D-01
 Coeff-Com: -0.299D-01-0.944D-01-0.999D-01 0.217D+00 0.980D+00
 Coeff:      0.397D-05-0.832D-05-0.323D-04-0.625D-04 0.281D-04 0.699D-03
 Coeff:      0.231D-03-0.193D-02-0.321D-02-0.284D-03 0.124D-01 0.189D-01
 Coeff:     -0.299D-01-0.944D-01-0.999D-01 0.217D+00 0.980D+00
 Gap=     0.348 Goal=   None    Shift=    0.000
 Gap=     0.202 Goal=   None    Shift=    0.000
 RMSDP=4.37D-08 MaxDP=8.46D-06 DE=-7.15D-10 OVMax= 1.25D-05

 Cycle  18  Pass 1  IDiag  1:
 RMSU=  1.68D-08    CP:  9.98D-01  1.35D+00  6.81D-01  8.08D-01  1.13D+00
                    CP:  1.87D+00  2.04D+00  2.54D+00  2.44D+00  2.69D+00
                    CP:  2.29D+00  1.99D+00  1.65D+00  1.38D+00  1.48D+00
                    CP:  1.60D+00  1.41D+00
 E= -2759.60085861050     Delta-E=       -0.000000000382 Rises=F Damp=F
 DIIS: error= 1.78D-07 at cycle  18 NSaved=  18.
 NSaved=18 IEnMin=18 EnMin= -2759.60085861050     IErMin=18 ErrMin= 1.78D-07
 ErrMax= 1.78D-07  0.00D+00 EMaxC= 1.00D-01 BMatC= 8.97D-11 BMatP= 2.83D-10
 IDIUse=1 WtCom= 1.00D+00 WtEn= 0.00D+00
 Coeff-Com: -0.803D-06 0.218D-05-0.542D-05-0.206D-04-0.666D-04-0.130D-03
 Coeff-Com:  0.248D-03 0.173D-02-0.913D-03-0.613D-02-0.689D-03 0.131D-01
 Coeff-Com:  0.200D-01-0.187D-01-0.124D+00-0.197D+00 0.297D+00 0.102D+01
 Coeff:     -0.803D-06 0.218D-05-0.542D-05-0.206D-04-0.666D-04-0.130D-03
 Coeff:      0.248D-03 0.173D-02-0.913D-03-0.613D-02-0.689D-03 0.131D-01
 Coeff:      0.200D-01-0.187D-01-0.124D+00-0.197D+00 0.297D+00 0.102D+01
 Gap=     0.348 Goal=   None    Shift=    0.000
 Gap=     0.202 Goal=   None    Shift=    0.000
 RMSDP=2.77D-08 MaxDP=5.77D-06 DE=-3.82D-10 OVMax= 8.22D-06

 Cycle  19  Pass 1  IDiag  1:
 RMSU=  8.51D-09    CP:  9.98D-01  1.35D+00  6.81D-01  8.08D-01  1.13D+00
                    CP:  1.87D+00  2.04D+00  2.54D+00  2.44D+00  2.69D+00
                    CP:  2.29D+00  1.99D+00  1.66D+00  1.40D+00  1.56D+00
                    CP:  1.83D+00  1.87D+00  1.43D+00
 E= -2759.60085861062     Delta-E=       -0.000000000116 Rises=F Damp=F
 DIIS: error= 7.95D-08 at cycle  19 NSaved=  19.
 NSaved=19 IEnMin=19 EnMin= -2759.60085861062     IErMin=19 ErrMin= 7.95D-08
 ErrMax= 7.95D-08  0.00D+00 EMaxC= 1.00D-01 BMatC= 2.19D-11 BMatP= 8.97D-11
 IDIUse=1 WtCom= 1.00D+00 WtEn= 0.00D+00
 Coeff-Com: -0.140D-05 0.310D-05 0.549D-05 0.918D-05-0.364D-04-0.225D-03
 Coeff-Com:  0.119D-04 0.110D-02 0.470D-03-0.199D-02-0.343D-02 0.111D-03
 Coeff-Com:  0.143D-01 0.161D-01-0.175D-01-0.125D+00-0.134D+00 0.331D+00
 Coeff-Com:  0.919D+00
 Coeff:     -0.140D-05 0.310D-05 0.549D-05 0.918D-05-0.364D-04-0.225D-03
 Coeff:      0.119D-04 0.110D-02 0.470D-03-0.199D-02-0.343D-02 0.111D-03
 Coeff:      0.143D-01 0.161D-01-0.175D-01-0.125D+00-0.134D+00 0.331D+00
 Coeff:      0.919D+00
 Gap=     0.348 Goal=   None    Shift=    0.000
 Gap=     0.202 Goal=   None    Shift=    0.000
 RMSDP=1.27D-08 MaxDP=2.74D-06 DE=-1.16D-10 OVMax= 3.83D-06

 Cycle  20  Pass 1  IDiag  1:
 RMSU=  4.08D-09    CP:  9.98D-01  1.35D+00  6.81D-01  8.08D-01  1.13D+00
                    CP:  1.87D+00  2.04D+00  2.54D+00  2.44D+00  2.69D+00
                    CP:  2.29D+00  1.99D+00  1.66D+00  1.40D+00  1.59D+00
                    CP:  1.91D+00  2.07D+00  1.80D+00  1.27D+00
 E= -2759.60085861076     Delta-E=       -0.000000000140 Rises=F Damp=F
 DIIS: error= 3.70D-08 at cycle  20 NSaved=  20.
 NSaved=20 IEnMin=20 EnMin= -2759.60085861076     IErMin=20 ErrMin= 3.70D-08
 ErrMax= 3.70D-08  0.00D+00 EMaxC= 1.00D-01 BMatC= 5.09D-12 BMatP= 2.19D-11
 IDIUse=1 WtCom= 1.00D+00 WtEn= 0.00D+00
 Coeff-Com: -0.245D-06 0.454D-06 0.245D-05 0.754D-05 0.568D-06-0.467D-04
 Coeff-Com: -0.369D-04-0.245D-04 0.353D-03 0.756D-03-0.109D-02-0.294D-02
 Coeff-Com:  0.206D-03 0.981D-02 0.229D-01 0.417D-02-0.116D+00-0.131D+00
 Coeff-Com:  0.323D+00 0.891D+00
 Coeff:     -0.245D-06 0.454D-06 0.245D-05 0.754D-05 0.568D-06-0.467D-04
 Coeff:     -0.369D-04-0.245D-04 0.353D-03 0.756D-03-0.109D-02-0.294D-02
 Coeff:      0.206D-03 0.981D-02 0.229D-01 0.417D-02-0.116D+00-0.131D+00
 Coeff:      0.323D+00 0.891D+00
 Gap=     0.348 Goal=   None    Shift=    0.000
 Gap=     0.202 Goal=   None    Shift=    0.000
 RMSDP=5.40D-09 MaxDP=1.20D-06 DE=-1.40D-10 OVMax= 1.75D-06

 Cycle  21  Pass 1  IDiag  1:
 Restarting incremental Fock formation.
 E= -2759.60085861049     Delta-E=        0.000000000267 Rises=F Damp=F
 DIIS: error= 1.66D-08 at cycle  21 NSaved=  20.
 NSaved=20 IEnMin=19 EnMin= -2759.60085861076     IErMin=20 ErrMin= 1.66D-08
 ErrMax= 1.66D-08  0.00D+00 EMaxC= 1.00D-01 BMatC= 1.03D-12 BMatP= 5.09D-12
 IDIUse=1 WtCom= 1.00D+00 WtEn= 0.00D+00
 Coeff-Com: -0.128D-07 0.104D-05 0.291D-05 0.687D-05 0.511D-05-0.181D-04
 Coeff-Com: -0.152D-03 0.961D-04 0.559D-03 0.804D-04-0.109D-02-0.218D-02
 Coeff-Com:  0.107D-02 0.108D-01 0.253D-01-0.169D-01-0.108D+00-0.740D-01
 Coeff-Com:  0.321D+00 0.843D+00
 Coeff:     -0.128D-07 0.104D-05 0.291D-05 0.687D-05 0.511D-05-0.181D-04
 Coeff:     -0.152D-03 0.961D-04 0.559D-03 0.804D-04-0.109D-02-0.218D-02
 Coeff:      0.107D-02 0.108D-01 0.253D-01-0.169D-01-0.108D+00-0.740D-01
 Coeff:      0.321D+00 0.843D+00
 Gap=     0.348 Goal=   None    Shift=    0.000
 Gap=     0.202 Goal=   None    Shift=    0.000
 RMSDP=2.24D-09 MaxDP=4.47D-07 DE= 2.67D-10 OVMax= 7.14D-07

 Error on total polarization charges =  0.00163
 SCF Done:  E(UCAM-B3LYP) =  -2759.60085861     A.U. after   21 cycles
            NFock= 21  Conv=0.22D-08     -V/T= 2.0074
 <Sx>= 0.0000 <Sy>= 0.0000 <Sz>= 0.5000 <S**2>= 0.7607 S= 0.5053
 <L.S>= 0.000000000000E+00
 KE= 2.739216132554D+03 PE=-1.791474029406D+04 EE= 6.701417998651D+03
 Annihilation of the first spin contaminant:
 S**2 before annihilation     0.7607,   after     0.7501
 Leave Link  502 at Sun Mar  3 17:38:44 2024, MaxMem=  5368709120 cpu:      2373.2
 (Enter /home/k0335/k033513/app/g09/l601.exe)
 Copying SCF densities to generalized density rwf, IOpCl= 1 IROHF=0.

 **********************************************************************

            Population analysis using the SCF density.

 **********************************************************************

 Alpha  occ. eigenvalues --  -24.88285 -24.87795 -24.86839 -24.86643 -24.86420
 Alpha  occ. eigenvalues --  -24.86352 -24.86222 -24.86144 -24.86000 -24.85835
 Alpha  occ. eigenvalues --  -24.85586 -24.85313 -24.85291 -24.85118 -24.85051
 Alpha  occ. eigenvalues --  -24.84987 -24.84797 -24.84631 -19.37236 -19.34853
 Alpha  occ. eigenvalues --  -19.30380 -19.29628 -14.61328 -14.61276 -14.58629
 Alpha  occ. eigenvalues --  -10.62715 -10.61065 -10.59260 -10.58551 -10.57962
 Alpha  occ. eigenvalues --  -10.56857 -10.53255 -10.52192 -10.51938 -10.51746
 Alpha  occ. eigenvalues --  -10.51711 -10.41439 -10.37392  -1.46117  -1.45038
 Alpha  occ. eigenvalues --   -1.44733  -1.43980  -1.43935  -1.41561  -1.38722
 Alpha  occ. eigenvalues --   -1.38065  -1.36699  -1.36295  -1.35970  -1.35922
 Alpha  occ. eigenvalues --   -1.35702  -1.34920  -1.34831  -1.34722  -1.34178
 Alpha  occ. eigenvalues --   -1.33935  -1.28796  -1.24553  -1.23915  -1.22284
 Alpha  occ. eigenvalues --   -1.20077  -1.14717  -1.14158  -1.00740  -0.98119
 Alpha  occ. eigenvalues --   -0.96077  -0.91576  -0.89538  -0.87163  -0.85828
 Alpha  occ. eigenvalues --   -0.84854  -0.83769  -0.81969  -0.81022  -0.80089
 Alpha  occ. eigenvalues --   -0.78609  -0.76813  -0.76079  -0.75550  -0.74503
 Alpha  occ. eigenvalues --   -0.74233  -0.73062  -0.72856  -0.72423  -0.71617
 Alpha  occ. eigenvalues --   -0.71192  -0.71115  -0.70643  -0.70363  -0.69897
 Alpha  occ. eigenvalues --   -0.69673  -0.69124  -0.68954  -0.68189  -0.67734
 Alpha  occ. eigenvalues --   -0.67000  -0.64269  -0.63567  -0.62703  -0.62391
 Alpha  occ. eigenvalues --   -0.62007  -0.61284  -0.60678  -0.60263  -0.59821
 Alpha  occ. eigenvalues --   -0.59480  -0.59202  -0.59174  -0.58814  -0.58622
 Alpha  occ. eigenvalues --   -0.58223  -0.58068  -0.57684  -0.57469  -0.57287
 Alpha  occ. eigenvalues --   -0.57258  -0.56774  -0.56707  -0.56479  -0.56165
 Alpha  occ. eigenvalues --   -0.55691  -0.55273  -0.55016  -0.54725  -0.54511
 Alpha  occ. eigenvalues --   -0.54367  -0.54223  -0.54003  -0.53756  -0.53626
 Alpha  occ. eigenvalues --   -0.53247  -0.52961  -0.52824  -0.52752  -0.52507
 Alpha  occ. eigenvalues --   -0.52198  -0.51907  -0.51589  -0.51050  -0.50933
 Alpha  occ. eigenvalues --   -0.50009  -0.48543  -0.48344  -0.46718  -0.45607
 Alpha  occ. eigenvalues --   -0.44919  -0.43606  -0.42771  -0.42309
 Alpha virt. eigenvalues --   -0.07526  -0.04980   0.00791   0.01451   0.03114
 Alpha virt. eigenvalues --    0.03667   0.05016   0.07385   0.07926   0.09579
 Alpha virt. eigenvalues --    0.10509   0.11686   0.12721   0.14061   0.14526
 Alpha virt. eigenvalues --    0.15411   0.16070   0.16143   0.17226   0.17972
 Alpha virt. eigenvalues --    0.18222   0.18515   0.19387   0.19889   0.20119
 Alpha virt. eigenvalues --    0.20491   0.21253   0.21597   0.21805   0.22583
 Alpha virt. eigenvalues --    0.22853   0.22968   0.23931   0.24625   0.24815
 Alpha virt. eigenvalues --    0.25378   0.26524   0.27382   0.28998   0.29423
 Alpha virt. eigenvalues --    0.30433   0.31228   0.31890   0.34412   0.34901
 Alpha virt. eigenvalues --    0.40687   0.41693   0.43212   0.45750   0.46197
 Alpha virt. eigenvalues --    0.46510   0.46981   0.47485   0.48095   0.49061
 Alpha virt. eigenvalues --    0.49358   0.49551   0.50009   0.50268   0.51111
 Alpha virt. eigenvalues --    0.52619   0.53041   0.53300   0.53624   0.54046
 Alpha virt. eigenvalues --    0.54631   0.55694   0.55910   0.57549   0.58264
 Alpha virt. eigenvalues --    0.58611   0.59285   0.60309   0.61624   0.62109
 Alpha virt. eigenvalues --    0.62960   0.63332   0.65454   0.66539   0.69008
 Alpha virt. eigenvalues --    0.69179   0.70320   0.71965   0.73086   0.75468
 Alpha virt. eigenvalues --    0.76052   0.76290   0.78271   0.79935   0.80218
 Alpha virt. eigenvalues --    0.81162   0.82560   0.83369   0.84419   0.84981
 Alpha virt. eigenvalues --    0.86122   0.87133   0.87780   0.89985   0.91367
 Alpha virt. eigenvalues --    0.92309   0.93463   0.94613   0.95092   0.96674
 Alpha virt. eigenvalues --    0.97123   0.98067   0.98817   0.99988   1.00925
 Alpha virt. eigenvalues --    1.01237   1.01916   1.02768   1.04245   1.05473
 Alpha virt. eigenvalues --    1.06261   1.07230   1.07498   1.07809   1.08460
 Alpha virt. eigenvalues --    1.08971   1.09728   1.10868   1.11635   1.12625
 Alpha virt. eigenvalues --    1.13487   1.13930   1.15000   1.15964   1.16321
 Alpha virt. eigenvalues --    1.16473   1.16973   1.17396   1.18236   1.18943
 Alpha virt. eigenvalues --    1.20045   1.21140   1.21552   1.22421   1.23188
 Alpha virt. eigenvalues --    1.23554   1.24706   1.25938   1.26219   1.26873
 Alpha virt. eigenvalues --    1.27648   1.28259   1.28712   1.28959   1.29730
 Alpha virt. eigenvalues --    1.30549   1.30859   1.31332   1.31772   1.32245
 Alpha virt. eigenvalues --    1.33215   1.33498   1.33735   1.34235   1.35179
 Alpha virt. eigenvalues --    1.35852   1.36509   1.36905   1.37504   1.38269
 Alpha virt. eigenvalues --    1.38768   1.39103   1.39743   1.39965   1.40752
 Alpha virt. eigenvalues --    1.41132   1.41566   1.41723   1.42294   1.42661
 Alpha virt. eigenvalues --    1.42868   1.44419   1.44865   1.45343   1.46495
 Alpha virt. eigenvalues --    1.46844   1.47441   1.48323   1.49084   1.49624
 Alpha virt. eigenvalues --    1.51226   1.52427   1.52480   1.53152   1.53950
 Alpha virt. eigenvalues --    1.55298   1.55687   1.55756   1.56477   1.57127
 Alpha virt. eigenvalues --    1.57496   1.58767   1.59863   1.60522   1.61902
 Alpha virt. eigenvalues --    1.63338   1.63840   1.64292   1.65707   1.65917
 Alpha virt. eigenvalues --    1.66871   1.66970   1.68177   1.68675   1.69378
 Alpha virt. eigenvalues --    1.70184   1.70636   1.71176   1.71361   1.72553
 Alpha virt. eigenvalues --    1.73569   1.74915   1.75559   1.76192   1.76401
 Alpha virt. eigenvalues --    1.76600   1.78487   1.79905   1.80380   1.80682
 Alpha virt. eigenvalues --    1.81106   1.81544   1.81874   1.82221   1.82516
 Alpha virt. eigenvalues --    1.83237   1.83619   1.84208   1.84616   1.84768
 Alpha virt. eigenvalues --    1.85286   1.85701   1.86094   1.86524   1.87493
 Alpha virt. eigenvalues --    1.87912   1.88255   1.88568   1.88997   1.89309
 Alpha virt. eigenvalues --    1.89741   1.89871   1.90269   1.90996   1.91271
 Alpha virt. eigenvalues --    1.91379   1.91937   1.92554   1.93192   1.94281
 Alpha virt. eigenvalues --    1.94630   1.94773   1.95557   1.96583   1.96995
 Alpha virt. eigenvalues --    1.97147   1.97472   1.97919   1.98239   1.98491
 Alpha virt. eigenvalues --    1.98954   1.99113   1.99678   2.00083   2.00625
 Alpha virt. eigenvalues --    2.00683   2.01095   2.01620   2.01821   2.02250
 Alpha virt. eigenvalues --    2.02772   2.03098   2.03687   2.04098   2.05756
 Alpha virt. eigenvalues --    2.05901   2.06446   2.06502   2.07398   2.07837
 Alpha virt. eigenvalues --    2.07974   2.08234   2.08331   2.09707   2.10925
 Alpha virt. eigenvalues --    2.11425   2.12610   2.13941   2.14212   2.15366
 Alpha virt. eigenvalues --    2.15964   2.16871   2.17016   2.17752   2.18267
 Alpha virt. eigenvalues --    2.18829   2.19719   2.20434   2.20910   2.22170
 Alpha virt. eigenvalues --    2.22883   2.23607   2.24773   2.25165   2.26101
 Alpha virt. eigenvalues --    2.26560   2.28166   2.29365   2.30282   2.32373
 Alpha virt. eigenvalues --    2.32875   2.33392   2.35629   2.35923   2.37161
 Alpha virt. eigenvalues --    2.38179   2.39695   2.40257   2.41602   2.42140
 Alpha virt. eigenvalues --    2.43541   2.44099   2.44908   2.45643   2.45854
 Alpha virt. eigenvalues --    2.46718   2.46996   2.48611   2.49343   2.49925
 Alpha virt. eigenvalues --    2.51718   2.52675   2.54137   2.55663   2.56563
 Alpha virt. eigenvalues --    2.57993   2.59451   2.60211   2.61856   2.62448
 Alpha virt. eigenvalues --    2.63604   2.64426   2.67027   2.67569   2.67910
 Alpha virt. eigenvalues --    2.68790   2.69694   2.71250   2.72196   2.74222
 Alpha virt. eigenvalues --    2.76541   2.77538   2.78042   2.79776   2.80619
 Alpha virt. eigenvalues --    2.81073   2.82659   2.82946   2.84288   2.85477
 Alpha virt. eigenvalues --    2.86193   2.86740   2.87648   2.88529   2.89260
 Alpha virt. eigenvalues --    2.90221   2.91028   2.91228   2.91581   2.94006
 Alpha virt. eigenvalues --    2.95004   2.96765   2.98737   3.01821   3.02017
 Alpha virt. eigenvalues --    3.02549   3.03354   3.03523   3.04805   3.05823
 Alpha virt. eigenvalues --    3.06630   3.07536   3.09466   3.10797   3.13507
 Alpha virt. eigenvalues --    3.14499   3.16386   3.17437   3.19412   3.20937
 Alpha virt. eigenvalues --    3.23211   3.25435   3.26818   3.27399   3.29825
 Alpha virt. eigenvalues --    3.30219   3.31830   3.33429   3.34965   3.40857
 Alpha virt. eigenvalues --    3.45280   3.49389   3.63154   3.99652   4.03062
 Alpha virt. eigenvalues --    4.06012   4.09635   4.14130   4.20374   4.23599
 Alpha virt. eigenvalues --    4.29347   4.32975   4.33978   4.36401   4.39115
 Alpha virt. eigenvalues --    4.43103   4.43996   4.47977   4.50471   4.54073
 Alpha virt. eigenvalues --    4.54902   4.63061   4.63789   4.67520   4.71197
 Alpha virt. eigenvalues --    4.74595   4.80931   4.88045   4.97073   5.18258
 Alpha virt. eigenvalues --    5.23128   5.43754   5.47386   5.53037   5.59599
 Alpha virt. eigenvalues --    5.64327   5.67976   6.15662   6.30042   6.35445
 Alpha virt. eigenvalues --    6.37291
  Beta  occ. eigenvalues --  -24.88275 -24.87795 -24.86839 -24.86642 -24.86419
  Beta  occ. eigenvalues --  -24.86349 -24.86222 -24.86144 -24.86000 -24.85834
  Beta  occ. eigenvalues --  -24.85586 -24.85313 -24.85291 -24.85118 -24.85049
  Beta  occ. eigenvalues --  -24.84987 -24.84797 -24.84631 -19.37220 -19.34852
  Beta  occ. eigenvalues --  -19.30234 -19.29602 -14.61093 -14.60802 -14.58592
  Beta  occ. eigenvalues --  -10.62714 -10.61065 -10.59269 -10.58550 -10.57962
  Beta  occ. eigenvalues --  -10.56860 -10.53249 -10.52215 -10.52006 -10.51765
  Beta  occ. eigenvalues --  -10.51709 -10.40443 -10.37416  -1.46114  -1.45037
  Beta  occ. eigenvalues --   -1.44729  -1.43979  -1.43925  -1.41555  -1.38717
  Beta  occ. eigenvalues --   -1.38064  -1.36690  -1.36292  -1.35969  -1.35921
  Beta  occ. eigenvalues --   -1.35701  -1.34920  -1.34831  -1.34721  -1.34177
  Beta  occ. eigenvalues --   -1.33930  -1.28545  -1.24522  -1.23692  -1.22281
  Beta  occ. eigenvalues --   -1.19657  -1.14562  -1.13544  -0.99035  -0.98030
  Beta  occ. eigenvalues --   -0.95828  -0.91479  -0.89468  -0.86612  -0.85729
  Beta  occ. eigenvalues --   -0.84685  -0.83703  -0.81642  -0.80752  -0.80036
  Beta  occ. eigenvalues --   -0.78558  -0.76773  -0.76066  -0.75504  -0.74433
  Beta  occ. eigenvalues --   -0.74191  -0.73044  -0.72841  -0.72411  -0.71578
  Beta  occ. eigenvalues --   -0.71187  -0.71081  -0.70568  -0.70302  -0.69780
  Beta  occ. eigenvalues --   -0.69613  -0.69029  -0.68768  -0.67577  -0.67227
  Beta  occ. eigenvalues --   -0.66753  -0.63956  -0.63342  -0.62413  -0.62251
  Beta  occ. eigenvalues --   -0.61478  -0.61170  -0.60456  -0.60052  -0.59795
  Beta  occ. eigenvalues --   -0.59438  -0.59151  -0.59074  -0.58716  -0.58305
  Beta  occ. eigenvalues --   -0.58192  -0.58033  -0.57540  -0.57395  -0.57248
  Beta  occ. eigenvalues --   -0.57129  -0.56655  -0.56558  -0.56435  -0.56136
  Beta  occ. eigenvalues --   -0.55587  -0.55234  -0.54964  -0.54652  -0.54443
  Beta  occ. eigenvalues --   -0.54303  -0.54196  -0.53931  -0.53602  -0.53478
  Beta  occ. eigenvalues --   -0.53076  -0.52907  -0.52781  -0.52634  -0.52413
  Beta  occ. eigenvalues --   -0.52149  -0.51781  -0.51584  -0.51004  -0.50911
  Beta  occ. eigenvalues --   -0.49922  -0.48395  -0.48242  -0.46629  -0.45075
  Beta  occ. eigenvalues --   -0.43220  -0.43043  -0.42241
  Beta virt. eigenvalues --   -0.22013  -0.04729  -0.03622   0.00849   0.01742
  Beta virt. eigenvalues --    0.03281   0.04288   0.05283   0.07650   0.08115
  Beta virt. eigenvalues --    0.09685   0.10798   0.11787   0.12840   0.14148
  Beta virt. eigenvalues --    0.14957   0.15597   0.16217   0.16351   0.17341
  Beta virt. eigenvalues --    0.18016   0.18397   0.18615   0.19420   0.19960
  Beta virt. eigenvalues --    0.20147   0.20539   0.21266   0.21686   0.21925
  Beta virt. eigenvalues --    0.22611   0.22873   0.23088   0.23979   0.24681
  Beta virt. eigenvalues --    0.24844   0.25415   0.26552   0.27438   0.29082
  Beta virt. eigenvalues --    0.29573   0.30526   0.31336   0.32013   0.34494
  Beta virt. eigenvalues --    0.34980   0.40813   0.41908   0.43360   0.45891
  Beta virt. eigenvalues --    0.46650   0.46927   0.47113   0.47519   0.48414
  Beta virt. eigenvalues --    0.49234   0.49514   0.49661   0.50122   0.50320
  Beta virt. eigenvalues --    0.51319   0.53049   0.53267   0.53374   0.53683
  Beta virt. eigenvalues --    0.54231   0.54985   0.55866   0.56019   0.57953
  Beta virt. eigenvalues --    0.58380   0.58831   0.60166   0.60587   0.61766
  Beta virt. eigenvalues --    0.62394   0.63282   0.63471   0.65672   0.66776
  Beta virt. eigenvalues --    0.69064   0.69323   0.70338   0.72029   0.73112
  Beta virt. eigenvalues --    0.75804   0.76190   0.76423   0.78857   0.80084
  Beta virt. eigenvalues --    0.80344   0.81283   0.82678   0.83478   0.84540
  Beta virt. eigenvalues --    0.85181   0.86207   0.87260   0.88137   0.90280
  Beta virt. eigenvalues --    0.91535   0.92438   0.93766   0.94873   0.95246
  Beta virt. eigenvalues --    0.96791   0.97396   0.98175   0.99166   1.00108
  Beta virt. eigenvalues --    1.00983   1.01386   1.02029   1.02853   1.04402
  Beta virt. eigenvalues --    1.05565   1.06459   1.07280   1.07525   1.07913
  Beta virt. eigenvalues --    1.08515   1.09013   1.09834   1.10895   1.11799
  Beta virt. eigenvalues --    1.12671   1.13631   1.13961   1.15072   1.16005
  Beta virt. eigenvalues --    1.16391   1.16570   1.16991   1.17467   1.18429
  Beta virt. eigenvalues --    1.19003   1.20103   1.21485   1.21978   1.22684
  Beta virt. eigenvalues --    1.23327   1.23687   1.24754   1.26081   1.26389
  Beta virt. eigenvalues --    1.26936   1.27782   1.28433   1.28869   1.28992
  Beta virt. eigenvalues --    1.30179   1.30632   1.30882   1.31345   1.31810
  Beta virt. eigenvalues --    1.32320   1.33249   1.33514   1.33781   1.34321
  Beta virt. eigenvalues --    1.35213   1.35886   1.36528   1.37009   1.37529
  Beta virt. eigenvalues --    1.38291   1.38809   1.39165   1.39858   1.40007
  Beta virt. eigenvalues --    1.40931   1.41276   1.41753   1.42074   1.42366
  Beta virt. eigenvalues --    1.42796   1.43744   1.44569   1.44959   1.45525
  Beta virt. eigenvalues --    1.46694   1.46947   1.47457   1.48335   1.49112
  Beta virt. eigenvalues --    1.49750   1.51311   1.52525   1.52813   1.53225
  Beta virt. eigenvalues --    1.53964   1.55385   1.55759   1.55799   1.56582
  Beta virt. eigenvalues --    1.57177   1.57613   1.58930   1.60121   1.60592
  Beta virt. eigenvalues --    1.61955   1.63478   1.63903   1.64378   1.65771
  Beta virt. eigenvalues --    1.66007   1.66942   1.67081   1.68225   1.68734
  Beta virt. eigenvalues --    1.69425   1.70390   1.70727   1.71212   1.71481
  Beta virt. eigenvalues --    1.72648   1.73627   1.74980   1.75606   1.76294
  Beta virt. eigenvalues --    1.76448   1.76629   1.78587   1.80103   1.80405
  Beta virt. eigenvalues --    1.80824   1.81178   1.81717   1.82236   1.82335
  Beta virt. eigenvalues --    1.82794   1.83309   1.83758   1.84313   1.84768
  Beta virt. eigenvalues --    1.84881   1.85562   1.85890   1.86280   1.86683
  Beta virt. eigenvalues --    1.87563   1.88002   1.88324   1.88634   1.89312
  Beta virt. eigenvalues --    1.89408   1.89846   1.90110   1.90346   1.91271
  Beta virt. eigenvalues --    1.91336   1.91484   1.92087   1.92590   1.93249
  Beta virt. eigenvalues --    1.94374   1.94677   1.94814   1.95619   1.96698
  Beta virt. eigenvalues --    1.97055   1.97188   1.97512   1.97952   1.98312
  Beta virt. eigenvalues --    1.98546   1.99005   1.99234   1.99714   2.00102
  Beta virt. eigenvalues --    2.00659   2.00793   2.01129   2.01641   2.01833
  Beta virt. eigenvalues --    2.02281   2.02896   2.03136   2.03749   2.04204
  Beta virt. eigenvalues --    2.05880   2.06030   2.06475   2.06584   2.07659
  Beta virt. eigenvalues --    2.07848   2.08000   2.08255   2.08397   2.09731
  Beta virt. eigenvalues --    2.10980   2.11451   2.12681   2.14064   2.14347
  Beta virt. eigenvalues --    2.15651   2.16058   2.17000   2.17204   2.17807
  Beta virt. eigenvalues --    2.18417   2.18885   2.19911   2.20614   2.21099
  Beta virt. eigenvalues --    2.22223   2.23202   2.23735   2.24859   2.25212
  Beta virt. eigenvalues --    2.26161   2.26604   2.28247   2.29454   2.30335
  Beta virt. eigenvalues --    2.32489   2.33019   2.33513   2.35701   2.36104
  Beta virt. eigenvalues --    2.37278   2.38257   2.39778   2.40298   2.41669
  Beta virt. eigenvalues --    2.42270   2.43683   2.44166   2.44965   2.45866
  Beta virt. eigenvalues --    2.46349   2.46888   2.47193   2.48742   2.49391
  Beta virt. eigenvalues --    2.50103   2.52161   2.52954   2.55020   2.56049
  Beta virt. eigenvalues --    2.56699   2.58144   2.59628   2.60536   2.61931
  Beta virt. eigenvalues --    2.62509   2.63678   2.64596   2.67196   2.67634
  Beta virt. eigenvalues --    2.68056   2.69034   2.69749   2.71353   2.72405
  Beta virt. eigenvalues --    2.74268   2.76616   2.77614   2.78137   2.79842
  Beta virt. eigenvalues --    2.80680   2.81142   2.82679   2.82990   2.84377
  Beta virt. eigenvalues --    2.85488   2.86308   2.86803   2.87712   2.88650
  Beta virt. eigenvalues --    2.89337   2.90238   2.91045   2.91242   2.91607
  Beta virt. eigenvalues --    2.94015   2.95027   2.96829   2.98827   3.01934
  Beta virt. eigenvalues --    3.02105   3.02571   3.03359   3.03531   3.04808
  Beta virt. eigenvalues --    3.05908   3.06650   3.07542   3.09519   3.10825
  Beta virt. eigenvalues --    3.13521   3.14507   3.16404   3.17444   3.19513
  Beta virt. eigenvalues --    3.20948   3.23227   3.25678   3.26944   3.27436
  Beta virt. eigenvalues --    3.29865   3.30223   3.31885   3.33452   3.34990
  Beta virt. eigenvalues --    3.40980   3.45388   3.49497   3.63674   3.99769
  Beta virt. eigenvalues --    4.03142   4.06255   4.10190   4.14533   4.21070
  Beta virt. eigenvalues --    4.23709   4.29744   4.33008   4.34114   4.36470
  Beta virt. eigenvalues --    4.39129   4.43144   4.44009   4.47997   4.50484
  Beta virt. eigenvalues --    4.54097   4.55380   4.63193   4.63800   4.67564
  Beta virt. eigenvalues --    4.71286   4.74676   4.80951   4.88084   4.97084
  Beta virt. eigenvalues --    5.18262   5.23129   5.43760   5.47391   5.53041
  Beta virt. eigenvalues --    5.59602   5.64330   5.67987   6.15667   6.30046
  Beta virt. eigenvalues --    6.35451   6.37294
          Condensed to atoms (all electrons):
               1          2          3          4          5          6
     1  C    5.095219   0.485231  -0.059919  -0.002435   0.003465  -0.000123
     2  C    0.485231   4.291462   0.343054  -0.035225  -0.019417   0.000934
     3  N   -0.059919   0.343054   7.138005   0.233628   0.214461  -0.079615
     4  C   -0.002435  -0.035225   0.233628   4.898814  -0.026177  -0.008978
     5  C    0.003465  -0.019417   0.214461  -0.026177   4.192623   0.573450
     6  O   -0.000123   0.000934  -0.079615  -0.008978   0.573450   8.030351
     7  N   -0.000150   0.000980  -0.092244   0.002591   0.210223  -0.087248
     8  C    0.000007   0.000257   0.001596   0.000001  -0.013909   0.013080
     9  F    0.000000   0.000006   0.000027   0.000002   0.007326  -0.007370
    10  F    0.000000   0.000006  -0.000021   0.000000   0.000742   0.000014
    11  C    0.000000   0.000040  -0.000266   0.000000  -0.002559  -0.001340
    12  F    0.000000   0.000003   0.000009   0.000002   0.009231  -0.006984
    13  O    0.000000   0.000000   0.000000   0.000000   0.000176  -0.000035
    14  C    0.000000   0.000000   0.000000   0.000000  -0.000002  -0.000003
    15  F    0.000000   0.000000   0.000000   0.000000   0.000000   0.000000
    16  F    0.000000   0.000000   0.000000   0.000000   0.000001   0.000000
    17  F    0.000000   0.000000   0.000000   0.000000   0.000000   0.000000
    18  C    0.000000   0.000002   0.000019   0.000000  -0.000354  -0.000152
    19  F    0.000000   0.000000   0.000000   0.000000   0.000003   0.000000
    20  F    0.000001   0.000256  -0.000192  -0.000001   0.003061  -0.000042
    21  F    0.000000   0.000000   0.000000   0.000000   0.000036   0.000000
    22  C    0.002547  -0.014577  -0.004914   0.000048  -0.008007   0.000333
    23  O   -0.000114   0.000709   0.000322   0.000002  -0.000047  -0.000027
    24  N   -0.065151   0.290870  -0.045260   0.002435  -0.006870   0.000242
    25  C    0.000892  -0.016961   0.001328  -0.000006   0.000194   0.000002
    26  F    0.000036   0.000766  -0.000014   0.000000   0.000008   0.000000
    27  F   -0.008045  -0.001677   0.000080   0.000000   0.000002   0.000000
    28  C   -0.001913  -0.000738  -0.000068   0.000001   0.000012   0.000000
    29  F    0.000016   0.000025   0.000000   0.000000   0.000000   0.000000
    30  O   -0.001773   0.001995  -0.000045   0.000000   0.000001   0.000000
    31  C    0.000205   0.000078  -0.000001   0.000000   0.000000   0.000000
    32  F   -0.000007   0.000000   0.000000   0.000000   0.000000   0.000000
    33  F   -0.000003  -0.000003   0.000000   0.000000   0.000000   0.000000
    34  F    0.000000   0.000000   0.000000   0.000000   0.000000   0.000000
    35  C    0.000025   0.000166   0.000003   0.000000  -0.000002   0.000000
    36  F    0.000000  -0.000003   0.000000   0.000000   0.000000   0.000000
    37  F    0.000022   0.000216  -0.000014   0.000000   0.000036   0.000000
    38  F    0.000000   0.000000   0.000000   0.000000   0.000000   0.000000
    39  H    0.364221  -0.021002   0.002841   0.000149  -0.000034   0.000000
    40  H    0.374540  -0.023370  -0.008318   0.006084   0.000142  -0.000001
    41  H    0.000334   0.002621  -0.021819   0.386288  -0.002806   0.012197
    42  H   -0.000346  -0.004758  -0.033047   0.391326   0.001737   0.000423
    43  H   -0.000404  -0.004335  -0.033667   0.391931   0.000764   0.000320
               7          8          9         10         11         12
     1  C   -0.000150   0.000007   0.000000   0.000000   0.000000   0.000000
     2  C    0.000980   0.000257   0.000006   0.000006   0.000040   0.000003
     3  N   -0.092244   0.001596   0.000027  -0.000021  -0.000266   0.000009
     4  C    0.002591   0.000001   0.000002   0.000000   0.000000   0.000002
     5  C    0.210223  -0.013909   0.007326   0.000742  -0.002559   0.009231
     6  O   -0.087248   0.013080  -0.007370   0.000014  -0.001340  -0.006984
     7  N    7.605959   0.142334  -0.046947  -0.037937  -0.066548  -0.000683
     8  C    0.142334   4.393080   0.274746   0.281694   0.226804  -0.022699
     9  F   -0.046947   0.274746   9.095751  -0.043609  -0.022940  -0.000244
    10  F   -0.037937   0.281694  -0.043609   9.077839  -0.036664   0.000283
    11  C   -0.066548   0.226804  -0.022940  -0.036664   4.980979   0.226388
    12  F   -0.000683  -0.022699  -0.000244   0.000283   0.226388   9.116107
[...]
    32  F(19)             -0.00001      -0.03815      -0.01361      -0.01273
    33  F(19)              0.00006       0.23488       0.08381       0.07835
    34  F(19)              0.00017       0.70417       0.25127       0.23489
    35  C(13)              0.00014       0.15790       0.05634       0.05267
    36  F(19)             -0.00004      -0.14994      -0.05350      -0.05001
    37  F(19)              0.00003       0.11693       0.04172       0.03900
    38  F(19)             -0.00001      -0.02545      -0.00908      -0.00849
    39  H(1)              -0.01104     -49.33578     -17.60423     -16.45664
    40  H(1)              -0.01101     -49.19321     -17.55336     -16.40909
    41  H(1)               0.00022       0.97246       0.34700       0.32438
    42  H(1)               0.00373      16.67929       5.95158       5.56361
    43  H(1)               0.00518      23.17352       8.26889       7.72985
 --------------------------------------------------------
       Center         ----  Spin Dipole Couplings  ----
                      3XX-RR        3YY-RR        3ZZ-RR
 --------------------------------------------------------
     1   Atom       -0.360885     -0.345294      0.706180
     2   Atom       -0.003154     -0.026585      0.029739
     3   Atom       -0.262056     -0.234855      0.496910
     4   Atom       -0.000916      0.004258     -0.003342
     5   Atom        0.029834      0.008128     -0.037962
     6   Atom       -0.103307     -0.087447      0.190754
     7   Atom       -0.016964     -0.017142      0.034107
     8   Atom        0.001470      0.000353     -0.001824
     9   Atom        0.006309     -0.004308     -0.002001
    10   Atom        0.000626      0.000888     -0.001514
    11   Atom        0.000625     -0.000469     -0.000156
    12   Atom        0.002047     -0.000389     -0.001658
    13   Atom        0.000625     -0.000249     -0.000376
    14   Atom        0.000362     -0.000106     -0.000256
    15   Atom        0.000182      0.000024     -0.000206
    16   Atom        0.000361     -0.000193     -0.000168
    17   Atom        0.000334     -0.000120     -0.000214
    18   Atom        0.000244      0.000275     -0.000519
    19   Atom        0.000029      0.000064     -0.000093
    20   Atom       -0.000651     -0.000159      0.000810
    21   Atom        0.000043      0.000499     -0.000542
    22   Atom        0.007071      0.007979     -0.015050
    23   Atom       -0.007708     -0.016222      0.023930
    24   Atom       -0.095279     -0.077452      0.172731
    25   Atom       -0.002143      0.006673     -0.004530
    26   Atom       -0.003519      0.005137     -0.001618
    27   Atom       -0.013383      0.021510     -0.008126
    28   Atom       -0.002440      0.004143     -0.001703
    29   Atom        0.000632      0.002724     -0.003356
    30   Atom       -0.006244      0.013075     -0.006830
    31   Atom       -0.000564     -0.000389      0.000954
    32   Atom        0.000279     -0.000896      0.000617
    33   Atom       -0.001268     -0.000291      0.001559
    34   Atom        0.000355     -0.000163     -0.000192
    35   Atom       -0.001109      0.002167     -0.001059
    36   Atom       -0.000602      0.001514     -0.000911
    37   Atom       -0.001780      0.002912     -0.001132
    38   Atom       -0.000731      0.001075     -0.000343
    39   Atom        0.038648     -0.032777     -0.005871
    40   Atom       -0.044222      0.050190     -0.005967
    41   Atom        0.000394      0.002861     -0.003255
    42   Atom       -0.000906      0.002784     -0.001878
    43   Atom       -0.000867      0.006798     -0.005932
 --------------------------------------------------------
                        XY            XZ            YZ
 --------------------------------------------------------
     1   Atom        0.023198     -0.129392     -0.188347
     2   Atom       -0.016374     -0.001179     -0.014520
     3   Atom        0.016009     -0.061885     -0.195045
     4   Atom        0.004850      0.002701      0.003099
     5   Atom       -0.005997      0.005685      0.013700
     6   Atom        0.009443     -0.020661     -0.083757
     7   Atom       -0.003504     -0.001730     -0.011556
     8   Atom       -0.001805     -0.000233      0.000473
     9   Atom       -0.001881     -0.004145      0.001102
    10   Atom       -0.003014     -0.000916      0.001322
    11   Atom       -0.001240      0.001172     -0.000474
    12   Atom       -0.002292      0.000712     -0.000520
    13   Atom       -0.000439      0.000614     -0.000014
    14   Atom       -0.000439      0.000260     -0.000164
    15   Atom       -0.000362      0.000162     -0.000134
    16   Atom       -0.000333      0.000286     -0.000146
    17   Atom       -0.000311      0.000165     -0.000084
    18   Atom       -0.000910      0.000557     -0.000556
    19   Atom       -0.000541      0.000465     -0.000528
    20   Atom       -0.001233      0.001257     -0.001631
    21   Atom       -0.000697      0.000171     -0.000328
    22   Atom       -0.004707      0.001247     -0.000158
    23   Atom       -0.002996     -0.038245      0.001090
    24   Atom        0.001671     -0.035801     -0.059593
    25   Atom        0.001929      0.000060      0.002407
    26   Atom        0.001775      0.000407      0.004204
    27   Atom       -0.001490      0.005790     -0.010783
    28   Atom        0.003230     -0.001710     -0.003457
    29   Atom        0.005221     -0.001427     -0.001400
    30   Atom        0.009751     -0.004532     -0.009903
    31   Atom        0.001539     -0.002276     -0.001922
    32   Atom        0.001043     -0.001938     -0.001188
    33   Atom        0.000596     -0.000912     -0.001693
    34   Atom        0.001894     -0.002024     -0.001649
    35   Atom        0.000368     -0.000196     -0.001302
    36   Atom        0.000302     -0.000245     -0.000320
    37   Atom       -0.001643      0.000548     -0.002729
    38   Atom        0.000473     -0.000293     -0.001011
    39   Atom        0.035640      0.011118     -0.000714
    40   Atom       -0.012800     -0.006703      0.008455
    41   Atom        0.003964      0.001459      0.002409
    42   Atom        0.003304      0.002399      0.007004
    43   Atom        0.004465      0.000514     -0.001563
 --------------------------------------------------------


 ---------------------------------------------------------------------------------
              Anisotropic Spin Dipole Couplings in Principal Axis System
 ---------------------------------------------------------------------------------

       Atom             a.u.   MegaHertz   Gauss  10(-4) cm-1        Axes

              Baa    -0.3783   -50.761   -18.113   -16.932 -0.3457  0.9306  0.1204
     1 C(13)  Bbb    -0.3761   -50.471   -18.009   -16.835  0.9310  0.3241  0.1677
              Bcc     0.7544   101.232    36.122    33.767 -0.1171 -0.1701  0.9785
 
              Baa    -0.0377    -5.061    -1.806    -1.688  0.4252  0.8833  0.1976
     2 C(13)  Bbb     0.0042     0.567     0.202     0.189  0.9013 -0.3932 -0.1821
              Bcc     0.0335     4.494     1.604     1.499  0.0832 -0.2555  0.9632
 
              Baa    -0.2836   -10.938    -3.903    -3.649 -0.0317  0.9703  0.2399
     3 N(14)  Bbb    -0.2671   -10.300    -3.675    -3.436  0.9964  0.0119  0.0837
              Bcc     0.5507    21.238     7.578     7.084 -0.0784 -0.2417  0.9672
 
              Baa    -0.0051    -0.683    -0.244    -0.228 -0.5505  0.0089  0.8348
     4 C(13)  Bbb    -0.0035    -0.464    -0.166    -0.155  0.6664 -0.5977  0.4458
              Bcc     0.0085     1.147     0.409     0.383  0.5029  0.8017  0.3231
 
              Baa    -0.0424    -5.693    -2.031    -1.899 -0.0978 -0.2711  0.9576
     5 C(13)  Bbb     0.0110     1.472     0.525     0.491  0.2109  0.9347  0.2862
              Bcc     0.0315     4.221     1.506     1.408  0.9726 -0.2299  0.0343
 
              Baa    -0.1124     8.133     2.902     2.713 -0.4269  0.8787  0.2137
     6 O(17)  Bbb    -0.1032     7.467     2.665     2.491  0.9016  0.3952  0.1760
              Bcc     0.2156   -15.601    -5.567    -5.204 -0.0702 -0.2678  0.9609
 
              Baa    -0.0223    -0.861    -0.307    -0.287  0.5788  0.7952  0.1806
     7 N(14)  Bbb    -0.0143    -0.551    -0.197    -0.184  0.8153 -0.5692 -0.1068
              Bcc     0.0366     1.412     0.504     0.471 -0.0179 -0.2090  0.9777
 
              Baa    -0.0019    -0.259    -0.092    -0.086 -0.0686 -0.2538  0.9648
     8 C(13)  Bbb    -0.0009    -0.123    -0.044    -0.041  0.6000  0.7621  0.2432
              Bcc     0.0028     0.382     0.136     0.127  0.7970 -0.5956 -0.1000
 
              Baa    -0.0048    -2.390    -0.853    -0.797  0.0442  0.9488 -0.3127
     9 F(19)  Bbb    -0.0036    -1.824    -0.651    -0.608  0.4136  0.2676  0.8703
              Bcc     0.0084     4.214     1.504     1.406  0.9094 -0.1678 -0.3806
 
              Baa    -0.0024    -1.203    -0.429    -0.401  0.5485  0.6923 -0.4689
    10 F(19)  Bbb    -0.0018    -0.914    -0.326    -0.305  0.5149  0.1621  0.8418
              Bcc     0.0042     2.117     0.755     0.706 -0.6588  0.7031  0.2676
 
              Baa    -0.0014    -0.183    -0.065    -0.061  0.6331  0.6953 -0.3402
    11 C(13)  Bbb    -0.0007    -0.101    -0.036    -0.034 -0.1821  0.5610  0.8076
              Bcc     0.0021     0.284     0.101     0.095  0.7523 -0.4493  0.4818
 
              Baa    -0.0019    -0.937    -0.334    -0.313  0.2071  0.5949  0.7766
    12 F(19)  Bbb    -0.0017    -0.856    -0.306    -0.286  0.4947  0.6212 -0.6078
              Bcc     0.0036     1.794     0.640     0.598  0.8440 -0.5101  0.1656
 
              Baa    -0.0007     0.054     0.019     0.018 -0.4787 -0.4019  0.7806
    13 O(17)  Bbb    -0.0003     0.022     0.008     0.007  0.0820  0.8647  0.4955
              Bcc     0.0010    -0.076    -0.027    -0.025  0.8741 -0.3013  0.3810
 
              Baa    -0.0004    -0.050    -0.018    -0.017  0.4099  0.8617  0.2992
    14 C(13)  Bbb    -0.0004    -0.047    -0.017    -0.016 -0.4054 -0.1217  0.9060
              Bcc     0.0007     0.097     0.035     0.032  0.8170 -0.4927  0.2995
 
              Baa    -0.0003    -0.135    -0.048    -0.045  0.3826  0.7304  0.5657
    15 F(19)  Bbb    -0.0003    -0.133    -0.047    -0.044 -0.5418 -0.3186  0.7778
              Bcc     0.0005     0.268     0.096     0.089  0.7484 -0.6041  0.2739
 
              Baa    -0.0004    -0.176    -0.063    -0.059  0.3668  0.9171  0.1562
    16 F(19)  Bbb    -0.0003    -0.147    -0.052    -0.049 -0.3993  0.0036  0.9168
              Bcc     0.0006     0.323     0.115     0.108  0.8402 -0.3987  0.3675
 
              Baa    -0.0003    -0.139    -0.050    -0.047  0.4562  0.8897 -0.0159
    17 F(19)  Bbb    -0.0003    -0.130    -0.046    -0.043 -0.2060  0.1230  0.9708
              Bcc     0.0005     0.270     0.096     0.090  0.8657 -0.4396  0.2394
 
              Baa    -0.0008    -0.111    -0.040    -0.037 -0.2827  0.2353  0.9299
    18 C(13)  Bbb    -0.0007    -0.087    -0.031    -0.029  0.7025  0.7109  0.0337
              Bcc     0.0015     0.199     0.071     0.066 -0.6531  0.6628 -0.3663
 
              Baa    -0.0005    -0.275    -0.098    -0.092  0.0118  0.6590  0.7521
    19 F(19)  Bbb    -0.0005    -0.241    -0.086    -0.080  0.8140  0.4305 -0.3900
              Bcc     0.0010     0.517     0.184     0.172 -0.5807  0.6168 -0.5313
 
              Baa    -0.0017    -0.838    -0.299    -0.279  0.7285  0.6806  0.0786
    20 F(19)  Bbb    -0.0012    -0.614    -0.219    -0.205 -0.5224  0.4776  0.7064
              Bcc     0.0029     1.452     0.518     0.484  0.4432 -0.5556  0.7035
 
              Baa    -0.0006    -0.322    -0.115    -0.107  0.1081  0.3359  0.9357
    21 F(19)  Bbb    -0.0004    -0.224    -0.080    -0.075  0.8169  0.5063 -0.2762
              Bcc     0.0011     0.546     0.195     0.182 -0.5665  0.7942 -0.2197
 
              Baa    -0.0151    -2.029    -0.724    -0.677 -0.0571 -0.0048  0.9984
    22 C(13)  Bbb     0.0028     0.380     0.136     0.127  0.7364  0.6750  0.0454
              Bcc     0.0123     1.649     0.588     0.550 -0.6741  0.7378 -0.0350
 
              Baa    -0.0335     2.423     0.865     0.808  0.8282  0.1091  0.5497
    23 O(17)  Bbb    -0.0161     1.166     0.416     0.389 -0.0691  0.9933 -0.0930
              Bcc     0.0496    -3.589    -1.281    -1.197 -0.5561  0.0391  0.8302
 
              Baa    -0.1029    -3.967    -1.416    -1.323  0.8806  0.4265  0.2066
    24 N(14)  Bbb    -0.0877    -3.382    -1.207    -1.128 -0.4578  0.8783  0.1380
              Bcc     0.1906     7.349     2.622     2.452 -0.1226 -0.2161  0.9686
 
              Baa    -0.0051    -0.680    -0.243    -0.227  0.1245 -0.2189  0.9678
    25 C(13)  Bbb    -0.0025    -0.332    -0.119    -0.111  0.9733 -0.1626 -0.1620
              Bcc     0.0075     1.012     0.361     0.338  0.1929  0.9621  0.1928
 
              Baa    -0.0041    -2.071    -0.739    -0.691  0.7696 -0.3803  0.5129
    26 F(19)  Bbb    -0.0033    -1.665    -0.594    -0.555 -0.6181 -0.2422  0.7478
              Bcc     0.0074     3.737     1.333     1.246  0.1602  0.8926  0.4214
 
              Baa    -0.0178    -8.925    -3.185    -2.977  0.7712 -0.1412 -0.6208
    27 F(19)  Bbb    -0.0075    -3.775    -1.347    -1.259  0.6310  0.2984  0.7161
              Bcc     0.0253    12.701     4.532     4.236 -0.0842  0.9439 -0.3192
 
              Baa    -0.0039    -0.522    -0.186    -0.174  0.8932 -0.1822  0.4112
    28 C(13)  Bbb    -0.0033    -0.436    -0.156    -0.146 -0.2747  0.5030  0.8195
              Bcc     0.0071     0.958     0.342     0.320  0.3562  0.8448 -0.3992
 
              Baa    -0.0039    -1.959    -0.699    -0.654  0.5828 -0.2996  0.7554
    29 F(19)  Bbb    -0.0035    -1.743    -0.622    -0.581 -0.5182  0.5791  0.6294
              Bcc     0.0074     3.702     1.321     1.235  0.6260  0.7582 -0.1822
 
              Baa    -0.0112     0.809     0.289     0.270  0.4721  0.1639  0.8662
    30 O(17)  Bbb    -0.0102     0.736     0.263     0.246  0.8034 -0.4845 -0.3462
              Bcc     0.0213    -1.545    -0.551    -0.515  0.3629  0.8593 -0.3604
 
              Baa    -0.0022    -0.299    -0.107    -0.100  0.8508 -0.2066  0.4832
    31 C(13)  Bbb    -0.0017    -0.235    -0.084    -0.078 -0.0923  0.8464  0.5244
              Bcc     0.0040     0.534     0.191     0.178 -0.5174 -0.4908  0.7010
 
              Baa    -0.0016    -0.779    -0.278    -0.260  0.1563  0.8006  0.5784
    32 F(19)  Bbb    -0.0015    -0.743    -0.265    -0.248  0.7651 -0.4685  0.4417
              Bcc     0.0030     1.522     0.543     0.508 -0.6247 -0.3735  0.6858
 
              Baa    -0.0016    -0.785    -0.280    -0.262  0.9530 -0.2739  0.1297
    33 F(19)  Bbb    -0.0013    -0.646    -0.231    -0.216  0.1630  0.8241  0.5425
              Bcc     0.0029     1.432     0.511     0.478 -0.2555 -0.4958  0.8300
 
              Baa    -0.0020    -0.985    -0.352    -0.329  0.6664 -0.0184  0.7454
    34 F(19)  Bbb    -0.0018    -0.893    -0.319    -0.298 -0.3932  0.8407  0.3722
              Bcc     0.0037     1.878     0.670     0.627  0.6335  0.5411 -0.5530
 
              Baa    -0.0015    -0.205    -0.073    -0.068  0.1626  0.3133  0.9356
    35 C(13)  Bbb    -0.0011    -0.153    -0.055    -0.051  0.9807 -0.1555 -0.1184
              Bcc     0.0027     0.359     0.128     0.120  0.1084  0.9368 -0.3326
 
              Baa    -0.0011    -0.530    -0.189    -0.177  0.4446  0.0593  0.8938
    36 F(19)  Bbb    -0.0006    -0.276    -0.099    -0.092  0.8832 -0.1952 -0.4264
              Bcc     0.0016     0.806     0.288     0.269  0.1492  0.9790 -0.1392
 
              Baa    -0.0026    -1.330    -0.474    -0.443  0.4868  0.4966  0.7186
    37 F(19)  Bbb    -0.0021    -1.050    -0.375    -0.350  0.8356 -0.0250 -0.5488
              Bcc     0.0047     2.379     0.849     0.794 -0.2546  0.8676 -0.4272
 
              Baa    -0.0009    -0.454    -0.162    -0.151  0.6370  0.2245  0.7375
    38 F(19)  Bbb    -0.0008    -0.413    -0.147    -0.138  0.7387 -0.4512 -0.5008
              Bcc     0.0017     0.867     0.309     0.289  0.2203  0.8638 -0.4532
 
              Baa    -0.0481   -25.665    -9.158    -8.561 -0.3903  0.9131  0.1182
    39 H(1)   Bbb    -0.0069    -3.700    -1.320    -1.234 -0.1048 -0.1716  0.9796
              Bcc     0.0550    29.366    10.478     9.795  0.9147  0.3699  0.1626
 
              Baa    -0.0467   -24.913    -8.890    -8.310  0.9835  0.1179  0.1374
    40 H(1)   Bbb    -0.0067    -3.551    -1.267    -1.185 -0.1161 -0.1716  0.9783
              Bcc     0.0533    28.465    10.157     9.495 -0.1390  0.9781  0.1551
 
              Baa    -0.0041    -2.184    -0.779    -0.728 -0.0369 -0.3082  0.9506
    41 H(1)   Bbb    -0.0025    -1.327    -0.473    -0.443  0.8250 -0.5461 -0.1450
              Bcc     0.0066     3.511     1.253     1.171  0.5639  0.7789  0.2745
 
              Baa    -0.0069    -3.697    -1.319    -1.233 -0.0028 -0.5843  0.8115
    42 H(1)   Bbb    -0.0025    -1.343    -0.479    -0.448  0.9303 -0.2993 -0.2123
              Bcc     0.0094     5.040     1.798     1.681  0.3669  0.7543  0.5444
 
              Baa    -0.0064    -3.408    -1.216    -1.137 -0.2468  0.1960  0.9490
    43 H(1)   Bbb    -0.0026    -1.366    -0.487    -0.456  0.8784 -0.3683  0.3045
              Bcc     0.0089     4.774     1.704     1.593  0.4092  0.9088 -0.0813
 

 ---------------------------------------------------------------------------------

 No NMR shielding tensors so no spin-rotation constants.
 Leave Link  601 at Sun Mar  3 17:38:45 2024, MaxMem=  5368709120 cpu:         5.8
 (Enter /home/k0335/k033513/app/g09/l9999.exe)
 1\1\GINC-C18U04N4\SP\UCAM-B3LYP\6-31G(d,p)\C13H5F18N3O4(1+,2)\K033513\
 03-Mar-2024\0\\#p CAM-B3LYP/6-31G(d,p) SCRF=(PCM,Solvent=Generic,Read)
  NoSymm out=wfn\\Title A1462740671_p1\\1,2\C,0,2.448102,-2.339884,0.83
 597\C,0,1.273044,-1.682323,0.823702\N,0,0.099663,-2.375463,0.538015\C,
 0,0.125027,-3.798131,0.180854\C,0,-1.152537,-1.780649,0.60712\O,0,-2.1
 80784,-2.399475,0.338702\N,0,-1.184714,-0.461897,0.97471\C,0,-2.490786
 ,0.169385,1.070403\F,0,-3.270585,-0.636796,1.86912\F,0,-2.407651,1.313
 974,1.8181\C,0,-3.300316,0.482207,-0.220079\F,0,-3.521919,-0.664683,-0
 .924759\O,0,-4.598956,0.945068,0.196643\C,0,-5.394402,1.409199,-0.8595
 82\F,0,-5.022723,2.662567,-1.170489\F,0,-5.296585,0.61834,-1.939082\F,
 0,-6.67756,1.432626,-0.452882\C,0,-2.483758,1.44494,-1.081151\F,0,-3.0
 99177,1.709588,-2.259148\F,0,-1.282409,0.915381,-1.410961\F,0,-2.27474
 2,2.630267,-0.476217\C,0,-0.063221,0.322307,1.004461\O,0,-0.144533,1.5
 47182,0.960947\N,0,1.164238,-0.313546,1.058959\C,0,2.3231,0.570114,1.3
 24013\F,0,1.968783,1.586506,2.162636\F,0,3.216861,-0.130536,2.102789\C
 ,0,3.117906,1.126891,0.109856\F,0,4.251904,1.719614,0.610284\O,0,3.576
 261,0.023425,-0.688346\C,0,4.235239,0.417169,-1.863669\F,0,4.940207,-0
 .634816,-2.321109\F,0,3.320191,0.750811,-2.787754\F,0,5.073984,1.43893
 9,-1.643288\C,0,2.283798,2.186688,-0.610621\F,0,1.835298,3.158748,0.20
 5879\F,0,1.230512,1.62929,-1.248013\F,0,3.014557,2.813185,-1.56772\H,0
 ,3.413255,-1.891968,1.033545\H,0,2.535515,-3.405923,0.654421\H,0,-0.86
 2926,-4.18655,-0.081305\H,0,0.772128,-3.944412,-0.690286\H,0,0.490709,
 -4.377361,1.035034\\Version=ES64L-G09RevD.01\HF=-2759.6008586\S2=0.760
 693\S2-1=0.\S2A=0.750056\RMSD=2.235e-09\Dipole=3.5418709,-5.651099,1.3
 73319\Quadrupole=-1.4188868,11.6829363,-10.2640495,-13.0739979,4.26387
 59,-5.7516402\PG=C01 [X(C13H5F18N3O4)]\\@

 Writing a WFN file to "A1462740671/A1462740671_p1.wfn"


 A SCIENTIST IS SOMEONE WHOSE CURIOSITY SURVIVES
 EDUCATION'S ASSAULTS ON IT.
                          - SIR HERMANN BONDI
 Job cpu time:       0 days  0 hours 40 minutes 19.0 seconds.
 File lengths (MBytes):  RWF=    525 Int=      0 D2E=      0 Chk=     19 Scr=      1
 Normal termination of Gaussian 09 at Sun Mar  3 17:38:45 2024.
