 Entering Gaussian System, Link 0=g09
 Initial command:
 /home/k0335/k033513/app/g09/l1.exe "/home/k0335/k033513/app/g09/scratch/Gau-673878.inp" -scrdir="/home/k0335/k033513/app/g09/scratch/"
 Default is to use a total of  36 processors:
                               36 via shared-memory
                                1 via Linda
 Entering Link 1 = /home/k0335/k033513/app/g09/l1.exe PID=    673879.
  
 Copyright (c) 1988,1990,1992,1993,1995,1998,2003,2009,2013,
            Gaussian, Inc.  All Rights Reserved.
  
 This is part of the Gaussian(R) 09 program.  It is based on
 the Gaussian(R) 03 system (copyright 2003, Gaussian, Inc.),
 the Gaussian(R) 98 system (copyright 1998, Gaussian, Inc.),
 the Gaussian(R) 94 system (copyright 1995, Gaussian, Inc.),
 the Gaussian 92(TM) system (copyright 1992, Gaussian, Inc.),
 the Gaussian 90(TM) system (copyright 1990, Gaussian, Inc.),
 the Gaussian 88(TM) system (copyright 1988, Gaussian, Inc.),
 the Gaussian 86(TM) system (copyright 1986, Carnegie Mellon
 University), and the Gaussian 82(TM) system (copyright 1983,
 Carnegie Mellon University). Gaussian is a federally registered
 trademark of Gaussian, Inc.
  
 This software contains proprietary and confidential information,
 including trade secrets, belonging to Gaussian, Inc.
  
 This software is provided under written license and may be
 used, copied, transmitted, or stored only in accord with that
 written license.
  
 The following legend is applicable only to US Government
 contracts under FAR:
  
                    RESTRICTED RIGHTS LEGEND
  
 Use, reproduction and disclosure by the US Government is
 subject to restrictions as set forth in subparagraphs (a)
 and (c) of the Commercial Computer Software - Restricted
 Rights clause in FAR 52.227-19.
  
 Gaussian, Inc.
 340 Quinnipiac St., Bldg. 40, Wallingford CT 06492
  
  
 ---------------------------------------------------------------
 Warning -- This program may not be used in any manner that
 competes with the business of Gaussian, Inc. or will provide
 assistance to any competitor of Gaussian, Inc.  The licensee
 of this program is prohibited from giving any competitor of
 Gaussian, Inc. access to this program.  By using this program,
 the user acknowledges that Gaussian, Inc. is engaged in the
 business of creating and licensing software in the field of
 computational chemistry and represents and warrants to the
 licensee that it is not a competitor of Gaussian, Inc. and that
 it will not use this program in any manner prohibited above.
 ---------------------------------------------------------------
  

 Cite this work as:
 Gaussian 09, Revision D.01,
 M. J. Frisch, G. W. Trucks, H. B. Schlegel, G. E. Scuseria, 
 M. A. Robb, J. R. Cheeseman, G. Scalmani, V. Barone, B. Mennucci, 
 G. A. Petersson, H. Nakatsuji, M. Caricato, X. Li, H. P. Hratchian, 
 A. F. Izmaylov, J. Bloino, G. Zheng, J. L. Sonnenberg, M. Hada, 
 M. Ehara, K. Toyota, R. Fukuda, J. Hasegawa, M. Ishida, T. Nakajima, 
 Y. Honda, O. Kitao, H. Nakai, T. Vreven, J. A. Montgomery, Jr., 
 J. E. Peralta, F. Ogliaro, M. Bearpark, J. J. Heyd, E. Brothers, 
 K. N. Kudin, V. N. Staroverov, T. Keith, R. Kobayashi, J. Normand, 
 K. Raghavachari, A. Rendell, J. C. Burant, S. S. Iyengar, J. Tomasi, 
 M. Cossi, N. Rega, J. M. Millam, M. Klene, J. E. Knox, J. B. Cross, 
 V. Bakken, C. Adamo, J. Jaramillo, R. Gomperts, R. E. Stratmann, 
 O. Yazyev, A. J. Austin, R. Cammi, C. Pomelli, J. W. Ochterski, 
 R. L. Martin, K. Morokuma, V. G. Zakrzewski, G. A. Voth, 
 P. Salvador, J. J. Dannenberg, S. Dapprich, A. D. Daniels, 
 O. Farkas, J. B. Foresman, J. V. Ortiz, J. Cioslowski, 
 and D. J. Fox, Gaussian, Inc., Wallingford CT, 2013.
 
 ******************************************
 Gaussian 09:  ES64L-G09RevD.01 24-Apr-2013
                 3-Mar-2024 
 ******************************************
 %nprocshared=24
 Will use up to   24 processors via shared memory.
 %mem=40GB
 %rwf=A1445123341/A1445123341_0.rwf
 %nosave
 %chk=A1445123341/A1445123341_0.chk
 ----------------------------------------------------------------------
 #p CAM-B3LYP/6-31G(d,p) SCRF=(PCM,Solvent=Generic,Read) NoSymm out=wfn
 ----------------------------------------------------------------------
 1/38=1,40=2/1;
 2/12=2,15=1,17=6,18=5,40=1/2;
 3/5=1,6=6,7=101,11=2,16=1,25=1,30=1,70=2203,72=-2,74=-40/1,2,3;
 4//1;
 5/5=2,38=5/2;
 6/7=2,8=2,9=2,10=2,28=1/1;
 99/5=1,6=100,9=1/99;
 Leave Link    1 at Sun Mar  3 17:38:14 2024, MaxMem=  5368709120 cpu:         1.3
 (Enter /home/k0335/k033513/app/g09/l101.exe)
 -------------------
 Title A1445123341_0
 -------------------
 Symbolic Z-matrix:
 Charge =  0 Multiplicity = 1
 C                    -4.27158   2.24492  -1.56574 
 C                    -3.99941   0.77892  -1.26889 
 C                    -2.70459   0.59917  -0.47812 
 C                    -2.43451  -0.87966  -0.18221 
 N                    -1.193    -1.0644    0.56991 
 C                    -1.24596  -0.95698   1.94488 
 O                    -2.29895  -0.73581   2.54489 
 N                    -0.03918  -1.06408   2.60215 
 C                    -0.03136  -0.87139   4.04256 
 C                     1.17162  -1.12075   1.94665 
 O                     2.22969  -0.90649   2.53665 
 N                     1.12445  -1.38881   0.60332 
 C                     2.39187  -1.45848  -0.10775 
 F                     3.25523  -2.22483   0.62093 
 F                     2.21659  -2.1903   -1.24738 
 C                     3.04401  -0.09268  -0.45185 
 F                     3.40331   0.54083   0.703 
 O                     2.07602   0.76716  -1.06391 
 C                     2.63495   1.92421  -1.62518 
 F                     1.64474   2.80642  -1.85591 
 F                     3.2193    1.61597  -2.79367 
 F                     3.52619   2.48469  -0.79354 
 C                     4.29862  -0.43743  -1.26693 
 F                     5.05199   0.66386  -1.50696 
 F                     3.98957  -0.96237  -2.47393 
 F                     5.11059  -1.31632  -0.64015 
 C                    -0.0108   -1.16888  -0.13533 
 O                     0.01673  -1.03423  -1.359 
 H                    -5.20219   2.35057  -2.13205 
 H                    -3.46168   2.68209  -2.15844 
 H                    -4.36989   2.82094  -0.64007 
 H                    -3.93858   0.22612  -2.21355 
 H                    -4.84181   0.36407  -0.7033 
 H                    -2.76532   1.16091   0.46209 
 H                    -1.86569   1.02499  -1.04222 
 H                    -3.26879  -1.30385   0.38918 
 H                    -2.37306  -1.44285  -1.12119 
 H                    -0.93672  -1.28657   4.49547 
 H                     0.00722   0.20346   4.24656 
 H                     0.84038  -1.35214   4.49653 
 
 NAtoms=     40 NQM=       40 NQMF=       0 NMMI=      0 NMMIF=      0
                NMic=       0 NMicF=      0.
                    Isotopes and Nuclear Properties:
 (Nuclear quadrupole moments (NQMom) in fm**2, nuclear magnetic moments (NMagM)
  in nuclear magnetons)

  Atom         1           2           3           4           5           6           7           8           9          10
 IAtWgt=          12          12          12          12          14          12          16          14          12          12
 AtmWgt=  12.0000000  12.0000000  12.0000000  12.0000000  14.0030740  12.0000000  15.9949146  14.0030740  12.0000000  12.0000000
 NucSpn=           0           0           0           0           2           0           0           2           0           0
 AtZEff=   0.0000000   0.0000000   0.0000000   0.0000000   0.0000000   0.0000000   0.0000000   0.0000000   0.0000000   0.0000000
 NQMom=    0.0000000   0.0000000   0.0000000   0.0000000   2.0440000   0.0000000   0.0000000   2.0440000   0.0000000   0.0000000
 NMagM=    0.0000000   0.0000000   0.0000000   0.0000000   0.4037610   0.0000000   0.0000000   0.4037610   0.0000000   0.0000000
 AtZNuc=   6.0000000   6.0000000   6.0000000   6.0000000   7.0000000   6.0000000   8.0000000   7.0000000   6.0000000   6.0000000

  Atom        11          12          13          14          15          16          17          18          19          20
 IAtWgt=          16          14          12          19          19          12          19          16          12          19
 AtmWgt=  15.9949146  14.0030740  12.0000000  18.9984033  18.9984033  12.0000000  18.9984033  15.9949146  12.0000000  18.9984033
 NucSpn=           0           2           0           1           1           0           1           0           0           1
 AtZEff=   0.0000000   0.0000000   0.0000000   0.0000000   0.0000000   0.0000000   0.0000000   0.0000000   0.0000000   0.0000000
 NQMom=    0.0000000   2.0440000   0.0000000   0.0000000   0.0000000   0.0000000   0.0000000   0.0000000   0.0000000   0.0000000
 NMagM=    0.0000000   0.4037610   0.0000000   2.6288670   2.6288670   0.0000000   2.6288670   0.0000000   0.0000000   2.6288670
 AtZNuc=   8.0000000   7.0000000   6.0000000   9.0000000   9.0000000   6.0000000   9.0000000   8.0000000   6.0000000   9.0000000

  Atom        21          22          23          24          25          26          27          28          29          30
 IAtWgt=          19          19          12          19          19          19          12          16           1           1
 AtmWgt=  18.9984033  18.9984033  12.0000000  18.9984033  18.9984033  18.9984033  12.0000000  15.9949146   1.0078250   1.0078250
 NucSpn=           1           1           0           1           1           1           0           0           1           1
 AtZEff=   0.0000000   0.0000000   0.0000000   0.0000000   0.0000000   0.0000000   0.0000000   0.0000000   0.0000000   0.0000000
 NQMom=    0.0000000   0.0000000   0.0000000   0.0000000   0.0000000   0.0000000   0.0000000   0.0000000   0.0000000   0.0000000
 NMagM=    2.6288670   2.6288670   0.0000000   2.6288670   2.6288670   2.6288670   0.0000000   0.0000000   2.7928460   2.7928460
 AtZNuc=   9.0000000   9.0000000   6.0000000   9.0000000   9.0000000   9.0000000   6.0000000   8.0000000   1.0000000   1.0000000

  Atom        31          32          33          34          35          36          37          38          39          40
 IAtWgt=           1           1           1           1           1           1           1           1           1           1
 AtmWgt=   1.0078250   1.0078250   1.0078250   1.0078250   1.0078250   1.0078250   1.0078250   1.0078250   1.0078250   1.0078250
 NucSpn=           1           1           1           1           1           1           1           1           1           1
 AtZEff=   0.0000000   0.0000000   0.0000000   0.0000000   0.0000000   0.0000000   0.0000000   0.0000000   0.0000000   0.0000000
 NQMom=    0.0000000   0.0000000   0.0000000   0.0000000   0.0000000   0.0000000   0.0000000   0.0000000   0.0000000   0.0000000
 NMagM=    2.7928460   2.7928460   2.7928460   2.7928460   2.7928460   2.7928460   2.7928460   2.7928460   2.7928460   2.7928460
 AtZNuc=   1.0000000   1.0000000   1.0000000   1.0000000   1.0000000   1.0000000   1.0000000   1.0000000   1.0000000   1.0000000
 Leave Link  101 at Sun Mar  3 17:38:14 2024, MaxMem=  5368709120 cpu:         0.8
 (Enter /home/k0335/k033513/app/g09/l202.exe)
                          Input orientation:                          
 ---------------------------------------------------------------------
 Center     Atomic      Atomic             Coordinates (Angstroms)
 Number     Number       Type             X           Y           Z
 ---------------------------------------------------------------------
      1          6           0       -4.271584    2.244921   -1.565743
      2          6           0       -3.999408    0.778921   -1.268894
      3          6           0       -2.704591    0.599167   -0.478117
      4          6           0       -2.434505   -0.879661   -0.182206
      5          7           0       -1.192998   -1.064397    0.569912
      6          6           0       -1.245964   -0.956982    1.944878
      7          8           0       -2.298952   -0.735810    2.544894
      8          7           0       -0.039180   -1.064080    2.602148
      9          6           0       -0.031359   -0.871385    4.042564
     10          6           0        1.171623   -1.120746    1.946647
     11          8           0        2.229691   -0.906490    2.536646
     12          7           0        1.124455   -1.388811    0.603315
     13          6           0        2.391867   -1.458478   -0.107746
     14          9           0        3.255227   -2.224832    0.620933
     15          9           0        2.216586   -2.190304   -1.247384
     16          6           0        3.044011   -0.092676   -0.451846
     17          9           0        3.403306    0.540827    0.702997
     18          8           0        2.076022    0.767163   -1.063915
     19          6           0        2.634949    1.924210   -1.625178
     20          9           0        1.644743    2.806421   -1.855912
     21          9           0        3.219302    1.615971   -2.793665
     22          9           0        3.526193    2.484694   -0.793544
     23          6           0        4.298621   -0.437434   -1.266932
     24          9           0        5.051991    0.663860   -1.506961
     25          9           0        3.989567   -0.962371   -2.473925
     26          9           0        5.110586   -1.316318   -0.640153
     27          6           0       -0.010801   -1.168878   -0.135333
     28          8           0        0.016733   -1.034234   -1.359001
     29          1           0       -5.202192    2.350567   -2.132047
     30          1           0       -3.461676    2.682091   -2.158439
     31          1           0       -4.369890    2.820942   -0.640067
     32          1           0       -3.938580    0.226122   -2.213546
     33          1           0       -4.841809    0.364068   -0.703297
     34          1           0       -2.765321    1.160910    0.462092
     35          1           0       -1.865690    1.024988   -1.042220
     36          1           0       -3.268787   -1.303855    0.389184
     37          1           0       -2.373056   -1.442847   -1.121185
     38          1           0       -0.936724   -1.286569    4.495467
     39          1           0        0.007220    0.203457    4.246560
     40          1           0        0.840375   -1.352143    4.496533
 ---------------------------------------------------------------------
                    Distance matrix (angstroms):
                    1          2          3          4          5
     1  C    0.000000
     2  C    1.520314   0.000000
     3  C    2.519306   1.527806   0.000000
     4  C    3.879697   2.526006   1.532136   0.000000
     5  N    4.999030   3.828180   2.480065   1.463266   0.000000
     6  C    5.633029   4.574182   3.228018   2.437846   1.380172
     7  O    5.447327   4.441952   3.329460   2.734253   2.287282
     8  N    6.799562   5.836525   4.399868   3.677529   2.336938
     9  C    7.690512   6.832314   5.453921   4.860438   3.666875
    10  C    7.300212   6.378715   4.884938   4.194556   2.736788
    11  O    8.308283   7.491623   5.975194   5.398852   3.950668
    12  N    6.857555   5.870111   4.447825   3.680010   2.340288
    13  C    7.761604   6.870416   5.508626   4.861527   3.669575
    14  F    9.022922   8.076120   6.685979   5.901489   4.597382
    15  F    7.865680   6.888784   5.708844   4.948236   4.024363
    16  C    7.760352   7.144018   5.790144   5.541317   4.465476
    17  F    8.182607   7.664543   6.221321   6.073006   4.870366
    18  O    6.536643   6.078898   4.819299   4.882038   4.087847
    19  C    6.914231   6.741908   5.619802   5.970195   5.329481
    20  F    5.949992   6.025926   5.068234   5.747065   5.377790
    21  F    7.616872   7.425318   6.441130   6.709205   6.161689
    22  F    7.839586   7.731125   6.517467   6.871866   6.060183
    23  C    8.985139   8.386704   7.123324   6.834265   5.824514
    24  F    9.456863   9.055260   7.824786   7.757903   6.804422
    25  F    8.908318   8.264861   7.157751   6.821108   6.011184
    26  F   10.077909   9.368956   8.048126   7.571577   6.423620
    27  C    5.643967   4.581252   3.240369   2.441349   1.380535
    28  O    5.402339   4.407385   3.293867   2.723473   2.277074
    29  H    1.094483   2.159119   3.470000   4.679353   5.919138
    30  H    1.094695   2.168525   2.781229   4.200792   5.160133
    31  H    1.094687   2.168532   2.781319   4.201168   5.162611
    32  H    2.146180   1.096200   2.161852   2.758866   4.117195
    33  H    2.146294   1.096195   2.161869   2.759259   4.120121
    34  H    2.748822   2.159907   1.096921   2.165292   2.726869
    35  H    2.747843   2.159788   1.096946   2.165840   2.723420
    36  H    4.173865   2.760613   2.166107   1.096564   2.097356
    37  H    4.171531   2.757370   2.166396   1.096648   2.096562
    38  H    7.767302   6.846469   5.605167   4.928443   3.940180
    39  H    7.500574   6.841378   5.461967   5.171956   4.070100
    40  H    8.707593   7.823368   6.412608   5.730504   4.431225
                    6          7          8          9         10
     6  C    0.000000
     7  O    1.231958   0.000000
     8  N    1.378333   2.284209   0.000000
     9  C    2.425465   2.720914   1.453269   0.000000
    10  C    2.423128   3.542734   1.378019   2.429447   0.000000
    11  O    3.526034   4.531866   2.275280   2.716867   1.230249
    12  N    2.757744   3.989468   2.335558   3.664979   1.370629
    13  C    4.206968   5.437144   3.661839   4.841671   2.413211
    14  F    4.860143   6.063639   4.015679   4.933662   2.705167
    15  F    4.868354   6.073468   4.601712   5.897148   3.526717
    16  C    4.989509   6.159653   4.447086   5.501273   3.211780
    17  F    5.039981   6.126837   4.246553   4.994394   3.047605
    18  O    4.802198   5.867097   4.611675   5.762120   3.666827
    19  C    6.008998   6.986314   5.826760   6.859143   4.916403
    20  F    6.079917   6.889646   6.139273   7.150356   5.486888
    21  F    7.000891   8.030082   6.849465   7.967921   5.844071
    22  F    6.489805   7.446417   6.069300   6.878036   5.104101
    23  C    6.428692   7.625419   5.846279   6.864968   4.535650
    24  F    7.362510   8.509581   6.766873   7.680798   5.492675
    25  F    6.851032   8.048934   6.481332   7.657725   5.244745
    26  F    6.871480   8.085961   6.090667   6.968888   4.716483
    27  C    2.428540   3.550606   2.739633   4.188526   2.394804
    28  O    3.537794   4.548830   3.961656   5.404233   3.502651
    29  H    6.573655   6.310967   7.792888   8.674348   8.325339
    30  H    5.915187   5.929192   6.957763   7.927591   7.265037
    31  H    5.541982   5.204157   6.660361   7.374494   7.275738
    32  H    5.093369   5.124104   6.329364   7.457199   6.725729
    33  H    4.657049   4.269262   6.002568   6.869496   6.737080
    34  H    2.998761   2.855365   4.118527   4.942120   4.786375
    35  H    3.637997   4.019392   4.580585   5.728528   4.771035
    36  H    2.575329   2.431119   3.922380   4.900526   4.709189
    37  H    3.302596   3.734371   4.410629   5.698633   4.698946
    38  H    2.590321   2.442076   2.107070   1.094159   3.311964
    39  H    2.866152   3.016010   2.076751   1.094709   2.898094
    40  H    3.319624   3.747551   2.108386   1.094137   2.581703
                   11         12         13         14         15
    11  O    0.000000
    12  N    2.278585   0.000000
    13  C    2.706252   1.454921   0.000000
    14  F    2.541595   2.288980   1.365160   0.000000
    15  F    3.995902   2.293519   1.365675   2.137890   0.000000
    16  C    3.202576   2.545197   1.552131   2.396154   2.391141
    17  F    2.614262   2.987742   2.382758   2.770836   3.559686
    18  O    3.973508   2.886756   2.442846   3.630602   2.966484
    19  C    5.049542   4.268944   3.715409   4.758604   4.152949
    20  F    5.781214   4.890651   4.669437   5.834546   5.066021
    21  F    5.979495   4.995655   4.165459   5.139313   4.228966
    22  F    4.926582   4.766928   4.160002   4.924815   4.876130
    23  C    4.355191   3.805032   2.453967   2.801338   2.721728
    24  F    5.175146   4.908387   3.679454   4.012585   4.031520
    25  F    5.310942   4.226124   2.897856   3.422164   2.481065
    26  F    4.308082   4.176207   2.774004   2.420350   3.083475
    27  C    3.496873   1.372143   2.420215   3.514814   2.690952
    28  O    4.482139   2.281109   2.717882   3.978128   2.487631
    29  H    9.361517   7.841659   8.733633  10.002055   8.743020
    30  H    8.204474   6.725483   7.457454   8.770381   7.537434
    31  H    8.218256   7.032485   8.019860   9.229971   8.298379
    32  H    7.867319   6.014735   6.880903   8.111246   6.682713
    33  H    7.881476   6.354221   7.483477   8.603370   7.526074
    34  H    5.790342   4.653104   5.812271   6.909087   6.242783
    35  H    5.771571   4.180332   5.016736   6.288974   5.200497
    36  H    5.916312   4.399278   5.684527   6.592774   5.792535
    37  H    5.903616   3.899924   4.871529   5.943404   4.651820
    38  H    3.742676   4.405424   5.683189   5.784877   6.613655
    39  H    3.015819   4.129984   5.235318   5.439789   6.387082
    40  H    2.443351   3.903741   4.859817   4.649018   5.965656
                   16         17         18         19         20
    16  C    0.000000
    17  F    1.365314   0.000000
    18  O    1.432115   2.221461   0.000000
    19  C    2.368938   2.815052   1.402203   0.000000
    20  F    3.511996   3.843628   2.229761   1.346121   0.000000
    21  F    2.904190   3.662846   2.240446   1.342327   2.185358
    22  F    2.644257   2.456289   2.264069   1.341668   2.184488
    23  C    1.535340   2.374701   2.536181   2.910929   4.232323
    24  F    2.391150   2.759930   3.010540   2.728470   4.040009
    25  F    2.395673   3.563164   2.939570   3.299653   4.481510
    26  F    2.409044   2.857944   3.705273   4.195244   5.521514
    27  C    3.254269   3.909222   2.994219   4.334377   4.637264
    28  O    3.297556   4.266325   2.751868   3.959583   4.200948
    29  H    8.763126   9.239439   7.524658   7.865079   6.867647
    30  H    7.275696   7.739561   5.960791   6.166651   5.116883
    31  H    7.968094   8.211292   6.778454   7.130382   6.136310
    32  H    7.208453   7.906235   6.147342   6.814761   6.161115
    33  H    7.903037   8.366052   6.938942   7.693232   7.026305
    34  H    6.012911   6.204393   5.091398   5.839712   5.246857
    35  H    5.069801   5.571581   3.950195   4.626466   4.019793
    36  H    6.482724   6.929513   5.913340   7.023685   6.788048
    37  H    5.622774   6.374085   4.968070   6.055675   5.893964
    38  H    6.461233   6.046327   6.648397   7.779990   7.984770
    39  H    5.602215   4.919762   5.727028   6.659073   6.833525
    40  H    5.561360   4.954076   6.077571   7.171494   7.635065
                   21         22         23         24         25
    21  F    0.000000
    22  F    2.202123   0.000000
    23  C    2.777106   3.059342   0.000000
    24  F    2.433284   2.480415   1.355739   0.000000
    25  F    2.709869   3.862726   1.352000   2.169883   0.000000
    26  F    4.100352   4.120864   1.350769   2.162382   2.178229
    27  C    5.025503   5.127588   4.515157   5.556272   4.638384
    28  O    4.397533   5.001890   4.324259   5.315942   4.126940
    29  H    8.479324   8.831437   9.939156  10.410763   9.776547
    30  H    6.795262   7.122655   8.411209   8.773836   8.300762
    31  H    7.980337   7.904729   9.281867   9.704450   9.357190
    32  H    7.314608   7.927193   8.317924   9.028912   8.020962
    33  H    8.421307   8.632998   9.192799   9.930913   9.104272
    34  H    6.828085   6.550738   7.446039   8.076794   7.665313
    35  H    5.410542   5.591510   6.339393   6.942673   6.346921
    36  H    7.794306   7.869161   7.794810   8.758003   7.810103
    37  H    6.589994   7.094650   6.748583   7.727766   6.522556
    38  H    8.878555   7.881224   7.831673   8.700461   8.540836
    39  H    7.866221   6.556665   7.016086   7.665813   7.898301
    40  H    8.222894   7.065398   6.783339   7.605519   7.658761
                   26         27         28         29         30
    26  F    0.000000
    27  C    5.148319   0.000000
    28  O    5.152053   1.231361   0.000000
    29  H   11.046501   6.582089   6.268306   0.000000
    30  H    9.579987   5.552608   5.152621   1.772005   0.000000
    31  H   10.343904   5.930858   5.884022   1.772000   1.774707
    32  H    9.313543   4.657515   4.238307   2.473181   2.502450
    33  H   10.093456   5.100112   5.098100   2.473334   3.065198
    34  H    8.329557   3.656803   3.984327   3.752756   3.109033
    35  H    7.369654   3.012658   2.807893   3.751950   2.557168
    36  H    8.442368   3.302697   3.731419   4.842464   4.734486
    37  H    7.500153   2.574337   2.436106   4.838992   4.390456
    38  H    7.933816   4.723928   5.936965   8.680260   8.148626
    39  H    7.227311   4.591799   5.740582   8.510857   7.694211
    40  H    6.679935   4.712989   5.921717   9.703646   8.892207
                   31         32         33         34         35
    31  H    0.000000
    32  H    3.065119   0.000000
    33  H    2.502586   1.765136   0.000000
    34  H    2.558340   3.067475   2.510954   0.000000
    35  H    3.107764   2.511387   3.067404   1.758057   0.000000
    36  H    4.391553   3.092516   2.539661   2.516716   3.072639
    37  H    4.732728   2.535661   3.087768   3.072489   2.520687
    38  H    7.418355   7.504014   6.708311   5.059845   6.072253
    39  H    7.063246   7.569863   6.931087   4.788100   5.670441
    40  H    8.422954   8.387758   7.891187   5.966003   6.606915
                   36         37         38         39         40
    36  H    0.000000
    37  H    1.761496   0.000000
    38  H    4.722327   5.799504   0.000000
    39  H    5.280489   6.098255   1.781337   0.000000
    40  H    5.810151   6.472490   1.778309   1.782281   0.000000
 Symmetry turned off by external request.
 Stoichiometry    C12H12F9N3O4
 Framework group  C1[X(C12H12F9N3O4)]
 Deg. of freedom   114
 Full point group                 C1      NOp   1
 Rotational constants (GHZ):      0.2518876      0.1382734      0.1093390
 Leave Link  202 at Sun Mar  3 17:38:14 2024, MaxMem=  5368709120 cpu:         0.1
 (Enter /home/k0335/k033513/app/g09/l301.exe)
 Standard basis: 6-31G(d,p) (6D, 7F)
 Ernie: Thresh=  0.10000D-02 Tol=  0.10000D-05 Strict=F.
   480 basis functions,   868 primitive gaussians,   480 cartesian basis functions
   109 alpha electrons      109 beta electrons
       nuclear repulsion energy      3321.0789817180 Hartrees.
 IExCor=20419 DFT=T Ex+Corr=CAM-B3LYP ExCW=0 ScaHFX=  1.000000
 ScaDFX=  1.000000  1.000000  1.000000  0.810000 ScalE2=  1.000000  1.000000
 IRadAn=      0 IRanWt=     -1 IRanGd=            0 ICorTp=0 IEmpDi=  4
  HFx wShort=  0.000000 wLong=  0.330000 cFull=  0.190000 cShort=  0.000000 cLong=  0.460000
  DFx wShort=  0.000000 wLong=  0.330000 cFull=  0.190000 cShort=  0.000000 cLong=  0.460000
 NAtoms=   40 NActive=   40 NUniq=   40 SFac= 1.00D+00 NAtFMM=   60 NAOKFM=F Big=F
 Integral buffers will be    131072 words long.
 Raffenetti 2 integral format.
 Two-electron integral symmetry is turned off.
 Using the following non-standard input for PCM:
 eps=4.9
 --- end of non-standard input.
 ------------------------------------------------------------------------------
 Polarizable Continuum Model (PCM)
 =================================
 Model                : PCM (using non-symmetric T matrix).
 Atomic radii         : UFF (Universal Force Field).
 Polarization charges : Total charges.
 Charge compensation  : None.
 Solution method      : On-the-fly selection.
 Cavity type          : Scaled VdW (van der Waals Surface) (Alpha=1.100).
 Cavity algorithm     : GePol (No added spheres)
                        Default sphere list used, NSphG=   40.
                        Lebedev-Laikov grids with approx.  5.0 points / Ang**2.
                        Smoothing algorithm: Karplus/York (Gamma=1.0000).
                        Polarization charges: spherical gaussians, with
                                              point-specific exponents (IZeta= 3).
                        Self-potential: point-specific (ISelfS= 7).
                        Self-field    : sphere-specific E.n sum rule (ISelfD= 2).
 Solvent              : Generic,
                        Eps                           =   4.900000
                        Eps(infinity)                 =   0.000000
                        RSolv                         =   0.000000 Ang.
                        Molar volume                  =   0.000000 cm**3/mol
                        Thermal expansion coefficient =   0.000000 K**-1
                        Absolute temperature          = 298.150000 K
                        Numeral density               =   0.000000 Ang**-3
                        Hydrogen bond acidity         =   0.000000
                        Hydrogen bond basicity        =   0.000000
                        Surface tension at interface  =   0.000000 (cal/mol)*Ang**-2
                        Carbon aromaticity            =   0.000000
                        Electronegative halogenicity  =   0.000000
 ------------------------------------------------------------------------------
 GePol: Number of generator spheres                  =      40
 GePol: Total number of spheres                      =      40
 GePol: Number of exposed spheres                    =      40 (100.00%)
 GePol: Number of points                             =    3122
 GePol: Average weight of points                     =       0.13
 GePol: Minimum weight of points                     =   0.12D-09
 GePol: Maximum weight of points                     =    0.20577
 GePol: Number of points with low weight             =     148
 GePol: Fraction of low-weight points (<1% of avg)   =       4.74%
 GePol: Cavity surface area                          =    393.480 Ang**2
 GePol: Cavity volume                                =    437.960 Ang**3
 Leave Link  301 at Sun Mar  3 17:38:14 2024, MaxMem=  5368709120 cpu:         0.8
 (Enter /home/k0335/k033513/app/g09/l302.exe)
 NPDir=0 NMtPBC=     1 NCelOv=     1 NCel=       1 NClECP=     1 NCelD=      1
         NCelK=      1 NCelE2=     1 NClLst=     1 CellRange=     0.0.
 One-electron integrals computed using PRISM.
 NBasis=   480 RedAO= T EigKep=  1.22D-03  NBF=   480
 NBsUse=   480 1.00D-06 EigRej= -1.00D+00 NBFU=   480
 Precomputing XC quadrature grid using
 IXCGrd= 4 IRadAn=           0 IRanWt=          -1 IRanGd=           0 AccXCQ= 0.00D+00.
 Generated NRdTot=       0 NPtTot=           0 NUsed=           0 NTot=          32
 NSgBfM=   470   471   471   471   471 MxSgAt=    40 MxSgA2=    40.
 Leave Link  302 at Sun Mar  3 17:38:14 2024, MaxMem=  5368709120 cpu:         7.8
 (Enter /home/k0335/k033513/app/g09/l303.exe)
 DipDrv:  MaxL=1.
 Leave Link  303 at Sun Mar  3 17:38:14 2024, MaxMem=  5368709120 cpu:         0.7
 (Enter /home/k0335/k033513/app/g09/l401.exe)
 ExpMin= 1.61D-01 ExpMax= 7.00D+03 ExpMxC= 1.05D+03 IAcc=1 IRadAn=         1 AccDes= 0.00D+00
 Harris functional with IExCor=20419 and IRadAn=       1 diagonalized for initial guess.
 HarFok:  IExCor=20419 AccDes= 0.00D+00 IRadAn=         1 IDoV= 1 UseB2=F ITyADJ=14
 ICtDFT=  3500011 ScaDFX=  1.000000  1.000000  1.000000  1.000000
 FoFCou: FMM=F IPFlag=           0 FMFlag=      100000 FMFlg1=           0
         NFxFlg=           0 DoJE=T BraDBF=F KetDBF=T FulRan=T
         wScrn=  0.000000 ICntrl=     500 IOpCl=  0 I1Cent=   200000004 NGrid=           0
         NMat0=    1 NMatS0=      1 NMatT0=    0 NMatD0=    1 NMtDS0=    0 NMtDT0=    0
 Symmetry not used in FoFCou.
 Harris En= -1769.66032077452    
 JPrj=0 DoOrth=F DoCkMO=F.
 Leave Link  401 at Sun Mar  3 17:38:15 2024, MaxMem=  5368709120 cpu:         9.3
 (Enter /home/k0335/k033513/app/g09/l502.exe)
 Closed shell SCF:
 Using DIIS extrapolation, IDIIS=  1040.
 Two-electron integral symmetry not used.
 IVT=      724230 IEndB=      724230 NGot=  5368709120 MDV=  5368232411
 LenX=  5368232411 LenY=  5368001531
 Requested convergence on RMS density matrix=1.00D-08 within 128 cycles.
 Requested convergence on MAX density matrix=1.00D-06.
 Requested convergence on             energy=1.00D-06.
 No special actions if energy rises.
 Fock matrices will be formed incrementally for  20 cycles.

 Cycle   1  Pass 1  IDiag  1:
 FoFJK:  IHMeth= 1 ICntrl=       0 DoSepK=T KAlg= 0 I1Cent=   0 FoldK=F
 IRaf=         1 NMat=   1 IRICut=       1 DoRegI=T DoRafI=F ISym2E= 0.
 FoFCou: FMM=F IPFlag=           0 FMFlag=      100000 FMFlg1=           0
         NFxFlg=           0 DoJE=T BraDBF=F KetDBF=F FulRan=T
         wScrn=  0.000000 ICntrl=     500 IOpCl=  0 I1Cent=           0 NGrid=           0
         NMat0=    1 NMatS0=      1 NMatT0=    0 NMatD0=    1 NMtDS0=    0 NMtDT0=    0
 Symmetry not used in FoFCou.
 Inv3:  Mode=1 IEnd=    29240652.
 Iteration    1 A*A^-1 deviation from unit magnitude is 6.88D-15 for    128.
 Iteration    1 A*A^-1 deviation from orthogonality  is 4.36D-15 for   2972    121.
 Iteration    1 A^-1*A deviation from unit magnitude is 5.66D-15 for    522.
 Iteration    1 A^-1*A deviation from orthogonality  is 7.21D-14 for   3075   3064.
 E= -1827.09230587590    
 DIIS: error= 5.20D-02 at cycle   1 NSaved=   1.
 NSaved= 1 IEnMin= 1 EnMin= -1827.09230587590     IErMin= 1 ErrMin= 5.20D-02
 ErrMax= 5.20D-02  0.00D+00 EMaxC= 1.00D-01 BMatC= 1.50D+00 BMatP= 1.50D+00
 IDIUse=3 WtCom= 4.80D-01 WtEn= 5.20D-01
 Coeff-Com:  0.100D+01
 Coeff-En:   0.100D+01
 Coeff:      0.100D+01
 Gap=     0.459 Goal=   None    Shift=    0.000
 GapD=    0.459 DampG=2.000 DampE=0.500 DampFc=1.0000 IDamp=-1.
 RMSDP=3.17D-03 MaxDP=1.40D-01              OVMax= 1.49D-01

 Cycle   2  Pass 1  IDiag  1:
 RMSU=  3.16D-03    CP:  1.01D+00
 E= -1827.27245139984     Delta-E=       -0.180145523938 Rises=F Damp=F
 DIIS: error= 1.97D-02 at cycle   2 NSaved=   2.
 NSaved= 2 IEnMin= 2 EnMin= -1827.27245139984     IErMin= 2 ErrMin= 1.97D-02
 ErrMax= 1.97D-02  0.00D+00 EMaxC= 1.00D-01 BMatC= 6.07D-01 BMatP= 1.50D+00
 IDIUse=3 WtCom= 8.03D-01 WtEn= 1.97D-01
 Coeff-Com:  0.365D+00 0.635D+00
 Coeff-En:   0.389D+00 0.611D+00
 Coeff:      0.370D+00 0.630D+00
 Gap=     0.443 Goal=   None    Shift=    0.000
 RMSDP=1.81D-03 MaxDP=1.25D-01 DE=-1.80D-01 OVMax= 1.28D-01

 Cycle   3  Pass 1  IDiag  1:
 RMSU=  1.12D-03    CP:  1.00D+00  5.50D-01
 E= -1827.56406419391     Delta-E=       -0.291612794068 Rises=F Damp=F
 DIIS: error= 1.24D-02 at cycle   3 NSaved=   3.
 NSaved= 3 IEnMin= 3 EnMin= -1827.56406419391     IErMin= 3 ErrMin= 1.24D-02
 ErrMax= 1.24D-02  0.00D+00 EMaxC= 1.00D-01 BMatC= 1.75D-01 BMatP= 6.07D-01
 IDIUse=3 WtCom= 8.76D-01 WtEn= 1.24D-01
 Coeff-Com:  0.106D+00 0.358D+00 0.536D+00
 Coeff-En:   0.000D+00 0.228D+00 0.772D+00
 Coeff:      0.928D-01 0.342D+00 0.565D+00
 Gap=     0.377 Goal=   None    Shift=    0.000
 RMSDP=8.47D-04 MaxDP=6.42D-02 DE=-2.92D-01 OVMax= 8.58D-02

 Cycle   4  Pass 1  IDiag  1:
 RMSU=  3.63D-04    CP:  1.00D+00  6.78D-01  4.22D-01
 E= -1827.67960899779     Delta-E=       -0.115544803883 Rises=F Damp=F
 DIIS: error= 4.01D-03 at cycle   4 NSaved=   4.
 NSaved= 4 IEnMin= 4 EnMin= -1827.67960899779     IErMin= 4 ErrMin= 4.01D-03
 ErrMax= 4.01D-03  0.00D+00 EMaxC= 1.00D-01 BMatC= 1.63D-02 BMatP= 1.75D-01
 IDIUse=3 WtCom= 9.60D-01 WtEn= 4.01D-02
 Coeff-Com:  0.609D-02 0.956D-01 0.289D+00 0.609D+00
 Coeff-En:   0.000D+00 0.000D+00 0.390D-01 0.961D+00
 Coeff:      0.584D-02 0.918D-01 0.279D+00 0.623D+00
 Gap=     0.369 Goal=   None    Shift=    0.000
 RMSDP=2.41D-04 MaxDP=1.70D-02 DE=-1.16D-01 OVMax= 1.87D-02

 Cycle   5  Pass 1  IDiag  1:
 RMSU=  1.00D-04    CP:  1.00D+00  6.68D-01  5.82D-01  6.69D-01
 E= -1827.69050999070     Delta-E=       -0.010900992911 Rises=F Damp=F
 DIIS: error= 6.67D-04 at cycle   5 NSaved=   5.
 NSaved= 5 IEnMin= 5 EnMin= -1827.69050999070     IErMin= 5 ErrMin= 6.67D-04
 ErrMax= 6.67D-04  0.00D+00 EMaxC= 1.00D-01 BMatC= 8.13D-04 BMatP= 1.63D-02
 IDIUse=3 WtCom= 9.93D-01 WtEn= 6.67D-03
 Coeff-Com: -0.136D-02 0.294D-01 0.113D+00 0.320D+00 0.539D+00
 Coeff-En:   0.000D+00 0.000D+00 0.000D+00 0.000D+00 0.100D+01
 Coeff:     -0.135D-02 0.292D-01 0.112D+00 0.318D+00 0.542D+00
 Gap=     0.364 Goal=   None    Shift=    0.000
 RMSDP=5.01D-05 MaxDP=2.82D-03 DE=-1.09D-02 OVMax= 3.74D-03

 Cycle   6  Pass 1  IDiag  1:
 RMSU=  2.85D-05    CP:  1.00D+00  6.72D-01  5.73D-01  7.05D-01  6.53D-01
 E= -1827.69108431664     Delta-E=       -0.000574325936 Rises=F Damp=F
 DIIS: error= 1.51D-04 at cycle   6 NSaved=   6.
 NSaved= 6 IEnMin= 6 EnMin= -1827.69108431664     IErMin= 6 ErrMin= 1.51D-04
 ErrMax= 1.51D-04  0.00D+00 EMaxC= 1.00D-01 BMatC= 2.62D-05 BMatP= 8.13D-04
 IDIUse=3 WtCom= 9.98D-01 WtEn= 1.51D-03
 Coeff-Com: -0.844D-03-0.107D-02 0.391D-02 0.309D-01 0.173D+00 0.794D+00
 Coeff-En:   0.000D+00 0.000D+00 0.000D+00 0.000D+00 0.000D+00 0.100D+01
 Coeff:     -0.842D-03-0.107D-02 0.390D-02 0.309D-01 0.173D+00 0.794D+00
 Gap=     0.364 Goal=   None    Shift=    0.000
 RMSDP=1.30D-05 MaxDP=7.89D-04 DE=-5.74D-04 OVMax= 9.48D-04

 Cycle   7  Pass 1  IDiag  1:
 RMSU=  8.97D-06    CP:  1.00D+00  6.71D-01  5.76D-01  7.18D-01  7.22D-01
                    CP:  9.44D-01
 E= -1827.69110495099     Delta-E=       -0.000020634351 Rises=F Damp=F
 DIIS: error= 5.65D-05 at cycle   7 NSaved=   7.
 NSaved= 7 IEnMin= 7 EnMin= -1827.69110495099     IErMin= 7 ErrMin= 5.65D-05
 ErrMax= 5.65D-05  0.00D+00 EMaxC= 1.00D-01 BMatC= 4.07D-06 BMatP= 2.62D-05
 IDIUse=1 WtCom= 1.00D+00 WtEn= 0.00D+00
 Coeff-Com: -0.144D-03-0.321D-02-0.853D-02-0.158D-01 0.302D-01 0.352D+00
 Coeff-Com:  0.645D+00
 Coeff:     -0.144D-03-0.321D-02-0.853D-02-0.158D-01 0.302D-01 0.352D+00
 Coeff:      0.645D+00
 Gap=     0.364 Goal=   None    Shift=    0.000
 RMSDP=4.25D-06 MaxDP=2.45D-04 DE=-2.06D-05 OVMax= 3.26D-04

 Cycle   8  Pass 1  IDiag  1:
 RMSU=  2.55D-06    CP:  1.00D+00  6.71D-01  5.77D-01  7.18D-01  7.37D-01
                    CP:  1.03D+00  7.99D-01
 E= -1827.69110877378     Delta-E=       -0.000003822795 Rises=F Damp=F
 DIIS: error= 9.92D-06 at cycle   8 NSaved=   8.
 NSaved= 8 IEnMin= 8 EnMin= -1827.69110877378     IErMin= 8 ErrMin= 9.92D-06
 ErrMax= 9.92D-06  0.00D+00 EMaxC= 1.00D-01 BMatC= 1.59D-07 BMatP= 4.07D-06
 IDIUse=1 WtCom= 1.00D+00 WtEn= 0.00D+00
 Coeff-Com:  0.129D-04-0.816D-03-0.241D-02-0.686D-02-0.607D-02 0.215D-01
 Coeff-Com:  0.142D+00 0.853D+00
 Coeff:      0.129D-04-0.816D-03-0.241D-02-0.686D-02-0.607D-02 0.215D-01
 Coeff:      0.142D+00 0.853D+00
 Gap=     0.364 Goal=   None    Shift=    0.000
 RMSDP=1.48D-06 MaxDP=1.21D-04 DE=-3.82D-06 OVMax= 1.66D-04

 Cycle   9  Pass 1  IDiag  1:
 RMSU=  8.76D-07    CP:  1.00D+00  6.71D-01  5.77D-01  7.18D-01  7.43D-01
                    CP:  1.04D+00  8.76D-01  1.12D+00
 E= -1827.69110896329     Delta-E=       -0.000000189504 Rises=F Damp=F
 DIIS: error= 5.78D-06 at cycle   9 NSaved=   9.
 NSaved= 9 IEnMin= 9 EnMin= -1827.69110896329     IErMin= 9 ErrMin= 5.78D-06
 ErrMax= 5.78D-06  0.00D+00 EMaxC= 1.00D-01 BMatC= 4.90D-08 BMatP= 1.59D-07
 IDIUse=1 WtCom= 1.00D+00 WtEn= 0.00D+00
 Coeff-Com:  0.229D-04 0.116D-03 0.275D-03-0.797D-03-0.749D-02-0.462D-01
 Coeff-Com: -0.328D-01 0.417D+00 0.670D+00
 Coeff:      0.229D-04 0.116D-03 0.275D-03-0.797D-03-0.749D-02-0.462D-01
 Coeff:     -0.328D-01 0.417D+00 0.670D+00
 Gap=     0.364 Goal=   None    Shift=    0.000
 RMSDP=5.75D-07 MaxDP=4.39D-05 DE=-1.90D-07 OVMax= 6.41D-05

 Cycle  10  Pass 1  IDiag  1:
 RMSU=  3.07D-07    CP:  1.00D+00  6.71D-01  5.78D-01  7.18D-01  7.44D-01
                    CP:  1.05D+00  8.97D-01  1.24D+00  8.78D-01
 E= -1827.69110900803     Delta-E=       -0.000000044742 Rises=F Damp=F
 DIIS: error= 1.42D-06 at cycle  10 NSaved=  10.
 NSaved=10 IEnMin=10 EnMin= -1827.69110900803     IErMin=10 ErrMin= 1.42D-06
 ErrMax= 1.42D-06  0.00D+00 EMaxC= 1.00D-01 BMatC= 2.37D-09 BMatP= 4.90D-08
 IDIUse=1 WtCom= 1.00D+00 WtEn= 0.00D+00
 Coeff-Com:  0.645D-05 0.108D-03 0.321D-03 0.328D-03-0.162D-02-0.165D-01
 Coeff-Com: -0.224D-01 0.620D-01 0.212D+00 0.765D+00
 Coeff:      0.645D-05 0.108D-03 0.321D-03 0.328D-03-0.162D-02-0.165D-01
 Coeff:     -0.224D-01 0.620D-01 0.212D+00 0.765D+00
 Gap=     0.364 Goal=   None    Shift=    0.000
 RMSDP=1.57D-07 MaxDP=1.04D-05 DE=-4.47D-08 OVMax= 1.92D-05

 Cycle  11  Pass 1  IDiag  1:
 RMSU=  1.01D-07    CP:  1.00D+00  6.71D-01  5.78D-01  7.18D-01  7.44D-01
                    CP:  1.05D+00  9.02D-01  1.27D+00  9.55D-01  9.79D-01
 E= -1827.69110901013     Delta-E=       -0.000000002100 Rises=F Damp=F
 DIIS: error= 6.95D-07 at cycle  11 NSaved=  11.
 NSaved=11 IEnMin=11 EnMin= -1827.69110901013     IErMin=11 ErrMin= 6.95D-07
 ErrMax= 6.95D-07  0.00D+00 EMaxC= 1.00D-01 BMatC= 6.20D-10 BMatP= 2.37D-09
 IDIUse=1 WtCom= 1.00D+00 WtEn= 0.00D+00
 Coeff-Com:  0.134D-05 0.443D-04 0.145D-03 0.242D-03 0.130D-04-0.379D-02
 Coeff-Com: -0.829D-02-0.117D-01 0.378D-01 0.387D+00 0.599D+00
 Coeff:      0.134D-05 0.443D-04 0.145D-03 0.242D-03 0.130D-04-0.379D-02
 Coeff:     -0.829D-02-0.117D-01 0.378D-01 0.387D+00 0.599D+00
 Gap=     0.364 Goal=   None    Shift=    0.000
 RMSDP=5.67D-08 MaxDP=5.50D-06 DE=-2.10D-09 OVMax= 5.56D-06

 Cycle  12  Pass 1  IDiag  1:
 RMSU=  3.46D-08    CP:  1.00D+00  6.71D-01  5.78D-01  7.18D-01  7.44D-01
                    CP:  1.05D+00  9.03D-01  1.28D+00  9.67D-01  1.07D+00
                    CP:  8.17D-01
 E= -1827.69110901058     Delta-E=       -0.000000000448 Rises=F Damp=F
 DIIS: error= 2.61D-07 at cycle  12 NSaved=  12.
 NSaved=12 IEnMin=12 EnMin= -1827.69110901058     IErMin=12 ErrMin= 2.61D-07
 ErrMax= 2.61D-07  0.00D+00 EMaxC= 1.00D-01 BMatC= 6.11D-11 BMatP= 6.20D-10
 IDIUse=1 WtCom= 1.00D+00 WtEn= 0.00D+00
 Coeff-Com: -0.323D-06 0.296D-05 0.192D-04 0.529D-04 0.298D-03 0.875D-03
 Coeff-Com: -0.794D-04-0.137D-01-0.164D-01 0.396D-01 0.234D+00 0.755D+00
 Coeff:     -0.323D-06 0.296D-05 0.192D-04 0.529D-04 0.298D-03 0.875D-03
 Coeff:     -0.794D-04-0.137D-01-0.164D-01 0.396D-01 0.234D+00 0.755D+00
 Gap=     0.364 Goal=   None    Shift=    0.000
 RMSDP=2.22D-08 MaxDP=1.60D-06 DE=-4.48D-10 OVMax= 2.07D-06

 Cycle  13  Pass 1  IDiag  1:
 RMSU=  1.16D-08    CP:  1.00D+00  6.71D-01  5.78D-01  7.18D-01  7.44D-01
                    CP:  1.05D+00  9.03D-01  1.28D+00  9.76D-01  1.09D+00
                    CP:  9.05D-01  8.91D-01
 E= -1827.69110901073     Delta-E=       -0.000000000147 Rises=F Damp=F
 DIIS: error= 7.99D-08 at cycle  13 NSaved=  13.
 NSaved=13 IEnMin=13 EnMin= -1827.69110901073     IErMin=13 ErrMin= 7.99D-08
 ErrMax= 7.99D-08  0.00D+00 EMaxC= 1.00D-01 BMatC= 7.18D-12 BMatP= 6.11D-11
 IDIUse=1 WtCom= 1.00D+00 WtEn= 0.00D+00
 Coeff-Com: -0.301D-06-0.336D-05-0.510D-05-0.131D-05 0.143D-03 0.786D-03
 Coeff-Com:  0.848D-03-0.475D-02-0.111D-01-0.241D-01 0.378D-01 0.329D+00
 Coeff-Com:  0.671D+00
 Coeff:     -0.301D-06-0.336D-05-0.510D-05-0.131D-05 0.143D-03 0.786D-03
 Coeff:      0.848D-03-0.475D-02-0.111D-01-0.241D-01 0.378D-01 0.329D+00
 Coeff:      0.671D+00
 Gap=     0.364 Goal=   None    Shift=    0.000
 RMSDP=6.44D-09 MaxDP=4.31D-07 DE=-1.47D-10 OVMax= 5.86D-07

 Error on total polarization charges =  0.00500
 SCF Done:  E(RCAM-B3LYP) =  -1827.69110901     A.U. after   13 cycles
            NFock= 13  Conv=0.64D-08     -V/T= 2.0078
 KE= 1.813627498238D+03 PE=-1.094783730000D+04 EE= 3.985439711038D+03
 Leave Link  502 at Sun Mar  3 17:38:49 2024, MaxMem=  5368709120 cpu:       767.5
 (Enter /home/k0335/k033513/app/g09/l601.exe)
 Copying SCF densities to generalized density rwf, IOpCl= 0 IROHF=0.

 **********************************************************************

            Population analysis using the SCF density.

 **********************************************************************

 Alpha  occ. eigenvalues --  -24.83572 -24.83467 -24.83348 -24.83210 -24.82849
 Alpha  occ. eigenvalues --  -24.82584 -24.82493 -24.82440 -24.82437 -19.32869
 Alpha  occ. eigenvalues --  -19.23013 -19.22811 -19.22488 -14.51854 -14.49504
 Alpha  occ. eigenvalues --  -14.49218 -10.59498 -10.55214 -10.52849 -10.48730
 Alpha  occ. eigenvalues --  -10.44772 -10.44693 -10.43656 -10.30796 -10.30681
 Alpha  occ. eigenvalues --  -10.25891 -10.25498 -10.24464  -1.43156  -1.41585
 Alpha  occ. eigenvalues --   -1.38619  -1.35375  -1.33471  -1.33219  -1.32578
 Alpha  occ. eigenvalues --   -1.31986  -1.31156  -1.21520  -1.20401  -1.16403
 Alpha  occ. eigenvalues --   -1.16141  -1.08461  -1.06191  -1.04696  -0.93215
 Alpha  occ. eigenvalues --   -0.88933  -0.85161  -0.82834  -0.82617  -0.81666
 Alpha  occ. eigenvalues --   -0.77743  -0.77006  -0.75049  -0.73297  -0.72641
 Alpha  occ. eigenvalues --   -0.72047  -0.71269  -0.70327  -0.69509  -0.68372
 Alpha  occ. eigenvalues --   -0.67302  -0.66654  -0.66225  -0.66156  -0.64208
 Alpha  occ. eigenvalues --   -0.61215  -0.59728  -0.58973  -0.57456  -0.57000
 Alpha  occ. eigenvalues --   -0.56060  -0.55842  -0.55479  -0.55289  -0.55015
 Alpha  occ. eigenvalues --   -0.54841  -0.54650  -0.54565  -0.53771  -0.53240
 Alpha  occ. eigenvalues --   -0.53008  -0.52870  -0.52279  -0.52047  -0.51798
 Alpha  occ. eigenvalues --   -0.51351  -0.50474  -0.50257  -0.49751  -0.49594
 Alpha  occ. eigenvalues --   -0.48906  -0.48737  -0.48616  -0.48163  -0.47552
 Alpha  occ. eigenvalues --   -0.47229  -0.45570  -0.45386  -0.44363  -0.42185
 Alpha  occ. eigenvalues --   -0.41506  -0.40305  -0.39454  -0.38898  -0.38411
 Alpha  occ. eigenvalues --   -0.37388  -0.35734  -0.34859  -0.34528
 Alpha virt. eigenvalues --    0.01912   0.02681   0.06059   0.09427   0.12174
 Alpha virt. eigenvalues --    0.14286   0.14455   0.15841   0.16777   0.17546
 Alpha virt. eigenvalues --    0.17841   0.17988   0.18964   0.19320   0.20319
 Alpha virt. eigenvalues --    0.21077   0.21529   0.22426   0.22710   0.22810
 Alpha virt. eigenvalues --    0.22965   0.23664   0.24608   0.24816   0.24958
 Alpha virt. eigenvalues --    0.25081   0.25991   0.26194   0.27577   0.27865
 Alpha virt. eigenvalues --    0.28443   0.29442   0.29601   0.30199   0.31689
 Alpha virt. eigenvalues --    0.31853   0.33418   0.36754   0.38790   0.39831
 Alpha virt. eigenvalues --    0.40167   0.41326   0.47694   0.48173   0.49550
 Alpha virt. eigenvalues --    0.51240   0.51965   0.52672   0.54238   0.55280
 Alpha virt. eigenvalues --    0.55356   0.56070   0.56637   0.56898   0.57208
 Alpha virt. eigenvalues --    0.57634   0.59757   0.60134   0.60774   0.60850
 Alpha virt. eigenvalues --    0.61750   0.62534   0.63810   0.64829   0.65740
 Alpha virt. eigenvalues --    0.67502   0.68117   0.69358   0.70645   0.71702
 Alpha virt. eigenvalues --    0.73407   0.73752   0.74657   0.76210   0.76641
 Alpha virt. eigenvalues --    0.78717   0.81096   0.83136   0.83364   0.83669
 Alpha virt. eigenvalues --    0.85481   0.85956   0.86978   0.87964   0.88476
 Alpha virt. eigenvalues --    0.89637   0.90115   0.91028   0.91524   0.91616
 Alpha virt. eigenvalues --    0.93731   0.94190   0.94817   0.95505   0.95977
 Alpha virt. eigenvalues --    0.97014   0.97348   0.97794   0.98696   0.99000
 Alpha virt. eigenvalues --    1.00579   1.01214   1.01508   1.02048   1.03337
 Alpha virt. eigenvalues --    1.04358   1.05514   1.06727   1.07205   1.09006
 Alpha virt. eigenvalues --    1.09705   1.10363   1.11844   1.13156   1.14039
 Alpha virt. eigenvalues --    1.14942   1.15154   1.16867   1.17824   1.18274
 Alpha virt. eigenvalues --    1.18656   1.20394   1.21288   1.23290   1.24166
 Alpha virt. eigenvalues --    1.25667   1.26086   1.28397   1.28899   1.30365
 Alpha virt. eigenvalues --    1.31209   1.31894   1.32867   1.33192   1.34097
 Alpha virt. eigenvalues --    1.34660   1.35573   1.36699   1.37908   1.38731
 Alpha virt. eigenvalues --    1.39934   1.40241   1.41050   1.41284   1.42762
 Alpha virt. eigenvalues --    1.44052   1.44594   1.44853   1.45850   1.46671
 Alpha virt. eigenvalues --    1.47213   1.48828   1.49464   1.50753   1.51433
 Alpha virt. eigenvalues --    1.52155   1.53006   1.54995   1.55399   1.56821
 Alpha virt. eigenvalues --    1.58080   1.59021   1.59690   1.60454   1.61842
 Alpha virt. eigenvalues --    1.62500   1.63369   1.66577   1.67513   1.68803
 Alpha virt. eigenvalues --    1.69024   1.70784   1.71893   1.72388   1.74001
 Alpha virt. eigenvalues --    1.74838   1.75223   1.76192   1.77188   1.78274
 Alpha virt. eigenvalues --    1.78482   1.80490   1.80897   1.81865   1.82792
 Alpha virt. eigenvalues --    1.83844   1.85129   1.85982   1.86587   1.86938
 Alpha virt. eigenvalues --    1.87363   1.87902   1.88811   1.89421   1.89591
 Alpha virt. eigenvalues --    1.90499   1.91274   1.91723   1.92448   1.92970
 Alpha virt. eigenvalues --    1.93438   1.93688   1.94171   1.94909   1.94960
 Alpha virt. eigenvalues --    1.95992   1.96995   1.97479   1.98700   1.98967
 Alpha virt. eigenvalues --    1.99517   1.99605   2.00502   2.01122   2.01288
 Alpha virt. eigenvalues --    2.02449   2.02719   2.03051   2.03563   2.03752
 Alpha virt. eigenvalues --    2.04265   2.04619   2.05158   2.06407   2.07423
 Alpha virt. eigenvalues --    2.08679   2.09181   2.10173   2.11414   2.12235
 Alpha virt. eigenvalues --    2.12500   2.12555   2.13425   2.14045   2.14682
 Alpha virt. eigenvalues --    2.15572   2.16256   2.17654   2.18543   2.18857
 Alpha virt. eigenvalues --    2.20007   2.20493   2.20956   2.21597   2.22212
 Alpha virt. eigenvalues --    2.24024   2.26674   2.27216   2.27927   2.28746
 Alpha virt. eigenvalues --    2.30752   2.31622   2.32683   2.33077   2.33933
 Alpha virt. eigenvalues --    2.35529   2.36641   2.37350   2.38392   2.39092
 Alpha virt. eigenvalues --    2.40768   2.41172   2.41717   2.42287   2.44170
 Alpha virt. eigenvalues --    2.45125   2.46579   2.47384   2.49100   2.50354
 Alpha virt. eigenvalues --    2.51769   2.53654   2.54273   2.55310   2.58311
 Alpha virt. eigenvalues --    2.58760   2.61061   2.61614   2.63010   2.64262
 Alpha virt. eigenvalues --    2.64567   2.67041   2.68353   2.69854   2.70611
 Alpha virt. eigenvalues --    2.72522   2.73221   2.74561   2.74985   2.75517
 Alpha virt. eigenvalues --    2.76984   2.78918   2.79198   2.81108   2.82244
 Alpha virt. eigenvalues --    2.83395   2.84537   2.85747   2.88295   2.89622
 Alpha virt. eigenvalues --    2.90437   2.91026   2.91935   2.92824   2.93566
 Alpha virt. eigenvalues --    2.95246   2.96273   2.96601   2.98042   2.98256
 Alpha virt. eigenvalues --    2.99054   2.99748   3.00985   3.02855   3.04512
 Alpha virt. eigenvalues --    3.05147   3.05326   3.06900   3.07875   3.08792
 Alpha virt. eigenvalues --    3.13346   3.17052   3.17865   3.19297   3.22093
 Alpha virt. eigenvalues --    3.23077   3.25811   3.26633   3.29306   3.30932
 Alpha virt. eigenvalues --    3.33712   3.34464   3.37521   3.39719   3.43804
 Alpha virt. eigenvalues --    3.44566   3.48245   3.51955   3.52739   3.55509
 Alpha virt. eigenvalues --    3.57176   3.62364   3.65416   4.06461   4.13662
 Alpha virt. eigenvalues --    4.16225   4.18976   4.26776   4.28132   4.33631
 Alpha virt. eigenvalues --    4.36964   4.42359   4.46595   4.48328   4.50634
 Alpha virt. eigenvalues --    4.52439   4.58637   4.64371   4.68245   4.71627
 Alpha virt. eigenvalues --    4.74013   4.81990   4.84821   4.88503   5.09322
 Alpha virt. eigenvalues --    5.24961   5.31978   5.42950   5.67255   6.22338
 Alpha virt. eigenvalues --    6.62557
          Condensed to atoms (all electrons):
               1          2          3          4          5          6
     1  C    4.907611   0.371544  -0.045130   0.003779  -0.000106  -0.000003
     2  C    0.371544   4.852894   0.376978  -0.037023   0.003257  -0.000066
     3  C   -0.045130   0.376978   4.935760   0.362325  -0.046535  -0.002753
     4  C    0.003779  -0.037023   0.362325   4.836060   0.237672  -0.024110
     5  N   -0.000106   0.003257  -0.046535   0.237672   7.305707   0.262043
     6  C   -0.000003  -0.000066  -0.002753  -0.024110   0.262043   4.149365
     7  O    0.000001  -0.000035  -0.003233   0.001045  -0.090645   0.604096
     8  N    0.000000   0.000000  -0.000213   0.003204  -0.100455   0.259921
     9  C    0.000000   0.000000   0.000007  -0.000060   0.003484  -0.026792
    10  C    0.000000   0.000000  -0.000020   0.000036  -0.003126  -0.020806
    11  O    0.000000   0.000000   0.000000   0.000001   0.000107   0.000226
    12  N    0.000000   0.000000  -0.000208   0.003113  -0.094965  -0.001896
    13  C    0.000000   0.000000   0.000010  -0.000017   0.001996   0.000259
    14  F    0.000000   0.000000   0.000000   0.000000  -0.000026   0.000004
    15  F    0.000000   0.000000   0.000000   0.000007   0.000023   0.000003
    16  C    0.000000   0.000000  -0.000002   0.000002  -0.000121   0.000032
    17  F    0.000000   0.000000   0.000000   0.000000   0.000001   0.000003
    18  O    0.000000   0.000000  -0.000022   0.000004  -0.000351   0.000024
    19  C    0.000000   0.000000  -0.000002   0.000000  -0.000005   0.000000
    20  F    0.000000   0.000000  -0.000005   0.000000   0.000000   0.000000
    21  F    0.000000   0.000000   0.000000   0.000000   0.000000   0.000000
    22  F    0.000000   0.000000   0.000000   0.000000   0.000000   0.000000
    23  C    0.000000   0.000000   0.000000   0.000000  -0.000001   0.000000
    24  F    0.000000   0.000000   0.000000   0.000000   0.000000   0.000000
    25  F    0.000000   0.000000   0.000000   0.000000   0.000000   0.000000
    26  F    0.000000   0.000000   0.000000   0.000000   0.000000   0.000000
    27  C   -0.000004  -0.000047  -0.003351  -0.024695   0.265911  -0.020914
    28  O    0.000001  -0.000043  -0.003220   0.001296  -0.091096   0.000247
    29  H    0.384351  -0.029232   0.004416  -0.000150   0.000001   0.000000
    30  H    0.391348  -0.035271  -0.005408   0.000069   0.000001   0.000000
    31  H    0.391165  -0.035315  -0.005441   0.000067   0.000001  -0.000001
    32  H   -0.037442   0.393814  -0.040566  -0.004074   0.000055   0.000008
    33  H   -0.037503   0.393549  -0.040735  -0.003899   0.000055  -0.000024
    34  H   -0.003384  -0.033869   0.386197  -0.035866  -0.005420   0.004595
    35  H   -0.003393  -0.033670   0.386710  -0.035734  -0.005645  -0.000146
    36  H   -0.000032  -0.001728  -0.037635   0.386963  -0.033442  -0.004323
    37  H   -0.000025  -0.001788  -0.037824   0.387014  -0.033260   0.004327
    38  H    0.000000   0.000000   0.000001  -0.000006   0.000333  -0.003758
    39  H    0.000000   0.000000  -0.000002   0.000005  -0.000059  -0.001868
    40  H    0.000000   0.000000   0.000000   0.000001  -0.000066   0.003947
               7          8          9         10         11         12
     1  C    0.000001   0.000000   0.000000   0.000000   0.000000   0.000000
     2  C   -0.000035   0.000000   0.000000   0.000000   0.000000   0.000000
     3  C   -0.003233  -0.000213   0.000007  -0.000020   0.000000  -0.000208
     4  C    0.001045   0.003204  -0.000060   0.000036   0.000001   0.003113
     5  N   -0.090645  -0.100455   0.003484  -0.003126   0.000107  -0.094965
     6  C    0.604096   0.259921  -0.026792  -0.020806   0.000226  -0.001896
     7  O    8.082990  -0.091831   0.000745   0.000275  -0.000023   0.000055
     8  N   -0.091831   7.260736   0.258910   0.267418  -0.093642  -0.097356
     9  C    0.000745   0.258910   4.790961  -0.028404   0.000781   0.003491
    10  C    0.000275   0.267418  -0.028404   4.181180   0.591372   0.213037
    11  O   -0.000023  -0.093642   0.000781   0.591372   8.090720  -0.092730
    12  N    0.000055  -0.097356   0.003491   0.213037  -0.092730   7.540399
    13  C    0.000002   0.002119  -0.000037  -0.013595   0.016607   0.185368
    14  F    0.000000   0.000004   0.000006   0.006992  -0.009104  -0.040592
    15  F    0.000000  -0.000024   0.000000   0.000793   0.000009  -0.037903
    16  C    0.000000  -0.000317   0.000006  -0.000331  -0.001723  -0.068716
    17  F    0.000000   0.000008   0.000001   0.007739  -0.004360  -0.001023
    18  O    0.000000  -0.000006   0.000000   0.000137  -0.000056   0.000107
    19  C    0.000000   0.000000   0.000000  -0.000013  -0.000005  -0.000216
    20  F    0.000000   0.000000   0.000000   0.000000   0.000000   0.000001
    21  F    0.000000   0.000000   0.000000   0.000000   0.000000   0.000001
    22  F    0.000000   0.000000   0.000000   0.000001   0.000000  -0.000002
    23  C    0.000000   0.000000   0.000000   0.000293  -0.000009   0.003203
    24  F    0.000000   0.000000   0.000000   0.000000   0.000000  -0.000012
    25  F    0.000000   0.000000   0.000000   0.000000   0.000000  -0.000031
    26  F    0.000000   0.000000   0.000000  -0.000005  -0.000001   0.000046
    27  C    0.000324  -0.002588   0.000165  -0.013641   0.000075   0.209907
    28  O   -0.000025   0.000131   0.000002  -0.000144  -0.000028  -0.089909
    29  H    0.000000   0.000000   0.000000   0.000000   0.000000   0.000000
    30  H    0.000000   0.000000   0.000000   0.000000   0.000000   0.000000
    31  H   -0.000001   0.000000   0.000000   0.000000   0.000000   0.000000
    32  H   -0.000002   0.000000   0.000000   0.000000   0.000000   0.000000
    33  H    0.000015   0.000000   0.000000   0.000000   0.000000   0.000000
    34  H    0.004183  -0.000097   0.000005   0.000001   0.000000   0.000004
    35  H    0.000073   0.000002   0.000000   0.000007   0.000000  -0.000025
    36  H    0.008586   0.000392  -0.000011   0.000016   0.000000  -0.000104
    37  H    0.000505  -0.000107   0.000001   0.000012   0.000000   0.000313
    38  H    0.007166  -0.030903   0.388280   0.004279   0.000567  -0.000064
    39  H    0.000846  -0.042032   0.401553  -0.002695   0.001065  -0.000075
    40  H    0.000586  -0.030344   0.388107  -0.002952   0.006116   0.000286
              13         14         15         16         17         18
     1  C    0.000000   0.000000   0.000000   0.000000   0.000000   0.000000
     2  C    0.000000   0.000000   0.000000   0.000000   0.000000   0.000000
     3  C    0.000010   0.000000   0.000000  -0.000002   0.000000  -0.000022
     4  C   -0.000017   0.000000   0.000007   0.000002   0.000000   0.000004
     5  N    0.001996  -0.000026   0.000023  -0.000121   0.000001  -0.000351
     6  C    0.000259   0.000004   0.000003   0.000032   0.000003   0.000024
     7  O    0.000002   0.000000   0.000000   0.000000   0.000000   0.000000
     8  N    0.002119   0.000004  -0.000024  -0.000317   0.000008  -0.000006
     9  C   -0.000037   0.000006   0.000000   0.000006   0.000001   0.000000
    10  C   -0.013595   0.006992   0.000793  -0.000331   0.007739   0.000137
    11  O    0.016607  -0.009104   0.000009  -0.001723  -0.004360  -0.000056
    12  N    0.185368  -0.040592  -0.037903  -0.068716  -0.001023   0.000107
    13  C    4.357683   0.270763   0.267052   0.211370  -0.022183  -0.027055
    14  F    0.270763   9.101225  -0.041683  -0.024280  -0.000100   0.000542
    15  F    0.267052  -0.041683   9.102406  -0.035683   0.000301   0.000739
    16  C    0.211370  -0.024280  -0.035683   4.993586   0.220102   0.155663
    17  F   -0.022183  -0.000100   0.000301   0.220102   9.126007  -0.053286
    18  O   -0.027055   0.000542   0.000739   0.155663  -0.053286   8.352362
    19  C    0.001061   0.000004  -0.000058   0.001749  -0.001029   0.235419
    20  F   -0.000032   0.000000   0.000000   0.000528  -0.000021  -0.039483
    21  F   -0.000164   0.000000   0.000001  -0.008977  -0.000016  -0.047486
    22  F    0.000184   0.000000   0.000000   0.012514  -0.001489  -0.046229
    23  C   -0.029919  -0.001306   0.008163   0.206641  -0.014749  -0.026633
    24  F    0.001300  -0.000002   0.000000  -0.031514  -0.000056  -0.001514
    25  F   -0.000352  -0.000142  -0.000945  -0.031976   0.000312   0.000300
    26  F    0.006499  -0.002395  -0.000930  -0.029399  -0.000261   0.000542
    27  C   -0.006656   0.000506   0.005927  -0.002871  -0.000372   0.004630
    28  O    0.016716   0.000013  -0.011110  -0.003437   0.000007  -0.002730
    29  H    0.000000   0.000000   0.000000   0.000000   0.000000   0.000000
    30  H    0.000000   0.000000   0.000000   0.000000   0.000000   0.000000
    31  H    0.000000   0.000000   0.000000   0.000000   0.000000   0.000000
    32  H    0.000000   0.000000   0.000000   0.000000   0.000000   0.000000
    33  H    0.000000   0.000000   0.000000   0.000000   0.000000   0.000000
    34  H    0.000000   0.000000   0.000000   0.000000   0.000000   0.000000
    35  H   -0.000003   0.000000   0.000000   0.000005   0.000000   0.000120
    36  H   -0.000001   0.000000   0.000000   0.000000   0.000000   0.000000
    37  H   -0.000008   0.000000  -0.000001   0.000000   0.000000   0.000001
    38  H    0.000000   0.000000   0.000000   0.000000   0.000000   0.000000
    39  H    0.000008   0.000000   0.000000   0.000000   0.000000   0.000000
    40  H   -0.000001  -0.000001   0.000000   0.000000   0.000001   0.000000
              19         20         21         22         23         24
     1  C    0.000000   0.000000   0.000000   0.000000   0.000000   0.000000
     2  C    0.000000   0.000000   0.000000   0.000000   0.000000   0.000000
     3  C   -0.000002  -0.000005   0.000000   0.000000   0.000000   0.000000
     4  C    0.000000   0.000000   0.000000   0.000000   0.000000   0.000000
     5  N   -0.000005   0.000000   0.000000   0.000000  -0.000001   0.000000
     6  C    0.000000   0.000000   0.000000   0.000000   0.000000   0.000000
     7  O    0.000000   0.000000   0.000000   0.000000   0.000000   0.000000
     8  N    0.000000   0.000000   0.000000   0.000000   0.000000   0.000000
     9  C    0.000000   0.000000   0.000000   0.000000   0.000000   0.000000
    10  C   -0.000013   0.000000   0.000000   0.000001   0.000293   0.000000
    11  O   -0.000005   0.000000   0.000000   0.000000  -0.000009   0.000000
    12  N   -0.000216   0.000001   0.000001  -0.000002   0.003203  -0.000012
    13  C    0.001061  -0.000032  -0.000164   0.000184  -0.029919   0.001300
    14  F    0.000004   0.000000   0.000000   0.000000  -0.001306  -0.000002
    15  F   -0.000058   0.000000   0.000001   0.000000   0.008163   0.000000
    16  C    0.001749   0.000528  -0.008977   0.012514   0.206641  -0.031514
    17  F   -0.001029  -0.000021  -0.000016  -0.001489  -0.014749  -0.000056
    18  O    0.235419  -0.039483  -0.047486  -0.046229  -0.026633  -0.001514
    19  C    3.823042   0.338628   0.302103   0.295136  -0.003834   0.012198
    20  F    0.338628   9.014883  -0.037345  -0.036675  -0.000028  -0.000004
    21  F    0.302103  -0.037345   9.058810  -0.033874   0.017683  -0.006671
    22  F    0.295136  -0.036675  -0.033874   9.059953  -0.004221  -0.001932
    23  C   -0.003834  -0.000028   0.017683  -0.004221   4.197920   0.280066
    24  F    0.012198  -0.000004  -0.006671  -0.001932   0.280066   9.087711
    25  F   -0.000382   0.000000  -0.000465   0.000014   0.267270  -0.038855
    26  F    0.000059   0.000000   0.000000   0.000000   0.287730  -0.039917
    27  C    0.000108  -0.000016   0.000002   0.000000  -0.000015   0.000000
    28  O    0.000514  -0.000005  -0.000003   0.000000  -0.000047   0.000000
    29  H    0.000000   0.000000   0.000000   0.000000   0.000000   0.000000
    30  H    0.000000   0.000000   0.000000   0.000000   0.000000   0.000000
    31  H    0.000000   0.000000   0.000000   0.000000   0.000000   0.000000
    32  H    0.000000   0.000000   0.000000   0.000000   0.000000   0.000000
    33  H    0.000000   0.000000   0.000000   0.000000   0.000000   0.000000
    34  H    0.000000   0.000000   0.000000   0.000000   0.000000   0.000000
    35  H    0.000035   0.000062   0.000000   0.000000   0.000000   0.000000
    36  H    0.000000   0.000000   0.000000   0.000000   0.000000   0.000000
    37  H    0.000000   0.000000   0.000000   0.000000   0.000000   0.000000
    38  H    0.000000   0.000000   0.000000   0.000000   0.000000   0.000000
    39  H    0.000000   0.000000   0.000000   0.000000   0.000000   0.000000
    40  H    0.000000   0.000000   0.000000   0.000000   0.000000   0.000000
              25         26         27         28         29         30
     1  C    0.000000   0.000000  -0.000004   0.000001   0.384351   0.391348
     2  C    0.000000   0.000000  -0.000047  -0.000043  -0.029232  -0.035271
     3  C    0.000000   0.000000  -0.003351  -0.003220   0.004416  -0.005408
     4  C    0.000000   0.000000  -0.024695   0.001296  -0.000150   0.000069
     5  N    0.000000   0.000000   0.265911  -0.091096   0.000001   0.000001
     6  C    0.000000   0.000000  -0.020914   0.000247   0.000000   0.000000
     7  O    0.000000   0.000000   0.000324  -0.000025   0.000000   0.000000
     8  N    0.000000   0.000000  -0.002588   0.000131   0.000000   0.000000
     9  C    0.000000   0.000000   0.000165   0.000002   0.000000   0.000000
    10  C    0.000000  -0.000005  -0.013641  -0.000144   0.000000   0.000000
    11  O    0.000000  -0.000001   0.000075  -0.000028   0.000000   0.000000
    12  N   -0.000031   0.000046   0.209907  -0.089909   0.000000   0.000000
    13  C   -0.000352   0.006499  -0.006656   0.016716   0.000000   0.000000
    14  F   -0.000142  -0.002395   0.000506   0.000013   0.000000   0.000000
    15  F   -0.000945  -0.000930   0.005927  -0.011110   0.000000   0.000000
    16  C   -0.031976  -0.029399  -0.002871  -0.003437   0.000000   0.000000
    17  F    0.000312  -0.000261  -0.000372   0.000007   0.000000   0.000000
    18  O    0.000300   0.000542   0.004630  -0.002730   0.000000   0.000000
    19  C   -0.000382   0.000059   0.000108   0.000514   0.000000   0.000000
    20  F    0.000000   0.000000  -0.000016  -0.000005   0.000000   0.000000
    21  F   -0.000465   0.000000   0.000002  -0.000003   0.000000   0.000000
    22  F    0.000014   0.000000   0.000000   0.000000   0.000000   0.000000
    23  C    0.267270   0.287730  -0.000015  -0.000047   0.000000   0.000000
    24  F   -0.038855  -0.039917   0.000000   0.000000   0.000000   0.000000
    25  F    9.089705  -0.037930   0.000003  -0.000001   0.000000   0.000000
    26  F   -0.037930   9.060305   0.000002   0.000000   0.000000   0.000000
    27  C    0.000003   0.000002   4.171688   0.574529   0.000000  -0.000001
    28  O   -0.000001   0.000000   0.574529   8.108321   0.000000  -0.000002
    29  H    0.000000   0.000000   0.000000   0.000000   0.601433  -0.029779
    30  H    0.000000   0.000000  -0.000001  -0.000002  -0.029779   0.598022
    31  H    0.000000   0.000000   0.000000   0.000000  -0.029835  -0.031648
    32  H    0.000000   0.000000  -0.000023   0.000022  -0.003238  -0.004959
    33  H    0.000000   0.000000   0.000008  -0.000003  -0.003237   0.005242
    34  H    0.000000   0.000000  -0.000087   0.000089  -0.000006  -0.000452
    35  H    0.000000   0.000000   0.004622   0.004538  -0.000004   0.004441
    36  H    0.000000   0.000000   0.004535   0.000491   0.000003   0.000005
    37  H    0.000000   0.000000  -0.003758   0.007468   0.000003   0.000001
    38  H    0.000000   0.000000   0.000002   0.000000   0.000000   0.000000
    39  H    0.000000   0.000000  -0.000063   0.000000   0.000000   0.000000
    40  H    0.000000   0.000000  -0.000005   0.000000   0.000000   0.000000
              31         32         33         34         35         36
     1  C    0.391165  -0.037442  -0.037503  -0.003384  -0.003393  -0.000032
     2  C   -0.035315   0.393814   0.393549  -0.033869  -0.033670  -0.001728
     3  C   -0.005441  -0.040566  -0.040735   0.386197   0.386710  -0.037635
     4  C    0.000067  -0.004074  -0.003899  -0.035866  -0.035734   0.386963
     5  N    0.000001   0.000055   0.000055  -0.005420  -0.005645  -0.033442
     6  C   -0.000001   0.000008  -0.000024   0.004595  -0.000146  -0.004323
     7  O   -0.000001  -0.000002   0.000015   0.004183   0.000073   0.008586
     8  N    0.000000   0.000000   0.000000  -0.000097   0.000002   0.000392
     9  C    0.000000   0.000000   0.000000   0.000005   0.000000  -0.000011
    10  C    0.000000   0.000000   0.000000   0.000001   0.000007   0.000016
    11  O    0.000000   0.000000   0.000000   0.000000   0.000000   0.000000
    12  N    0.000000   0.000000   0.000000   0.000004  -0.000025  -0.000104
    13  C    0.000000   0.000000   0.000000   0.000000  -0.000003  -0.000001
    14  F    0.000000   0.000000   0.000000   0.000000   0.000000   0.000000
    15  F    0.000000   0.000000   0.000000   0.000000   0.000000   0.000000
    16  C    0.000000   0.000000   0.000000   0.000000   0.000005   0.000000
    17  F    0.000000   0.000000   0.000000   0.000000   0.000000   0.000000
    18  O    0.000000   0.000000   0.000000   0.000000   0.000120   0.000000
    19  C    0.000000   0.000000   0.000000   0.000000   0.000035   0.000000
    20  F    0.000000   0.000000   0.000000   0.000000   0.000062   0.000000
    21  F    0.000000   0.000000   0.000000   0.000000   0.000000   0.000000
    22  F    0.000000   0.000000   0.000000   0.000000   0.000000   0.000000
    23  C    0.000000   0.000000   0.000000   0.000000   0.000000   0.000000
    24  F    0.000000   0.000000   0.000000   0.000000   0.000000   0.000000
    25  F    0.000000   0.000000   0.000000   0.000000   0.000000   0.000000
    26  F    0.000000   0.000000   0.000000   0.000000   0.000000   0.000000
    27  C    0.000000  -0.000023   0.000008  -0.000087   0.004622   0.004535
    28  O    0.000000   0.000022  -0.000003   0.000089   0.004538   0.000491
    29  H   -0.029835  -0.003238  -0.003237  -0.000006  -0.000004   0.000003
    30  H   -0.031648  -0.004959   0.005242  -0.000452   0.004441   0.000005
    31  H    0.599110   0.005241  -0.004963   0.004453  -0.000452   0.000001
    32  H    0.005241   0.620584  -0.037503   0.005351  -0.005429  -0.000450
    33  H   -0.004963  -0.037503   0.621796  -0.005467   0.005332   0.004189
    34  H    0.004453   0.005351  -0.005467   0.605250  -0.037338  -0.005624
    35  H   -0.000452  -0.005429   0.005332  -0.037338   0.601492   0.004860
    36  H    0.000001  -0.000450   0.004189  -0.005624   0.004860   0.556020
    37  H    0.000005   0.004209  -0.000454   0.004932  -0.005577  -0.030027
    38  H    0.000000   0.000000   0.000000  -0.000001   0.000000   0.000002
    39  H    0.000000   0.000000   0.000000   0.000005   0.000000   0.000000
    40  H    0.000000   0.000000   0.000000   0.000000   0.000000   0.000000
              37         38         39         40
     1  C   -0.000025   0.000000   0.000000   0.000000
     2  C   -0.001788   0.000000   0.000000   0.000000
     3  C   -0.037824   0.000001  -0.000002   0.000000
     4  C    0.387014  -0.000006   0.000005   0.000001
     5  N   -0.033260   0.000333  -0.000059  -0.000066
     6  C    0.004327  -0.003758  -0.001868   0.003947
     7  O    0.000505   0.007166   0.000846   0.000586
     8  N   -0.000107  -0.030903  -0.042032  -0.030344
     9  C    0.000001   0.388280   0.401553   0.388107
    10  C    0.000012   0.004279  -0.002695  -0.002952
    11  O    0.000000   0.000567   0.001065   0.006116
    12  N    0.000313  -0.000064  -0.000075   0.000286
    13  C   -0.000008   0.000000   0.000008  -0.000001
    14  F    0.000000   0.000000   0.000000  -0.000001
    15  F   -0.000001   0.000000   0.000000   0.000000
    16  C    0.000000   0.000000   0.000000   0.000000
    17  F    0.000000   0.000000   0.000000   0.000001
    18  O    0.000001   0.000000   0.000000   0.000000
    19  C    0.000000   0.000000   0.000000   0.000000
    20  F    0.000000   0.000000   0.000000   0.000000
    21  F    0.000000   0.000000   0.000000   0.000000
    22  F    0.000000   0.000000   0.000000   0.000000
    23  C    0.000000   0.000000   0.000000   0.000000
    24  F    0.000000   0.000000   0.000000   0.000000
    25  F    0.000000   0.000000   0.000000   0.000000
    26  F    0.000000   0.000000   0.000000   0.000000
    27  C   -0.003758   0.000002  -0.000063  -0.000005
    28  O    0.007468   0.000000   0.000000   0.000000
    29  H    0.000003   0.000000   0.000000   0.000000
    30  H    0.000001   0.000000   0.000000   0.000000
    31  H    0.000005   0.000000   0.000000   0.000000
    32  H    0.004209   0.000000   0.000000   0.000000
    33  H   -0.000454   0.000000   0.000000   0.000000
    34  H    0.004932  -0.000001   0.000005   0.000000
    35  H   -0.005577   0.000000   0.000000   0.000000
    36  H   -0.030027   0.000002   0.000000   0.000000
    37  H    0.557940   0.000000   0.000000   0.000000
    38  H    0.000000   0.525037  -0.029152  -0.023425
    39  H    0.000000  -0.029152   0.546433  -0.028643
    40  H    0.000000  -0.023425  -0.028643   0.526202
 Mulliken charges:
               1
     1  C   -0.322775
     2  C   -0.183949
     3  C   -0.180100
     4  C   -0.057030
     5  N   -0.575324
     6  C    0.818360
     7  O   -0.525696
     8  N   -0.562929
     9  C   -0.181201
    10  C    0.812146
    11  O   -0.505966
    12  N   -0.633504
    13  C    0.761024
    14  F   -0.260427
    15  F   -0.257090
    16  C    0.437149
    17  F   -0.255536
    18  O   -0.505741
    19  C    0.995487
    20  F   -0.240489
    21  F   -0.243598
    22  F   -0.243378
    23  C    0.811794
    24  F   -0.260798
    25  F   -0.246524
    26  F   -0.244346
    27  C    0.836162
    28  O   -0.512583
    29  H    0.105272
    30  H    0.108389
    31  H    0.107614
    32  H    0.104404
    33  H    0.103600
    34  H    0.112547
    35  H    0.115117
    36  H    0.147313
    37  H    0.146096
    38  H    0.161642
    39  H    0.154675
    40  H    0.160192
 Sum of Mulliken charges =   0.00000
 Mulliken charges with hydrogens summed into heavy atoms:
               1
     1  C   -0.001500
     2  C    0.024056
     3  C    0.047565
     4  C    0.236378
     5  N   -0.575324
     6  C    0.818360
     7  O   -0.525696
     8  N   -0.562929
     9  C    0.295309
    10  C    0.812146
    11  O   -0.505966
    12  N   -0.633504
    13  C    0.761024
    14  F   -0.260427
    15  F   -0.257090
    16  C    0.437149
    17  F   -0.255536
    18  O   -0.505741
    19  C    0.995487
    20  F   -0.240489
    21  F   -0.243598
    22  F   -0.243378
    23  C    0.811794
    24  F   -0.260798
    25  F   -0.246524
    26  F   -0.244346
    27  C    0.836162
    28  O   -0.512583
 Electronic spatial extent (au):  <R**2>=          11071.7091
 Charge=              0.0000 electrons
 Dipole moment (field-independent basis, Debye):
    X=             -2.6196    Y=             -0.1122    Z=              1.2829  Tot=              2.9190
 Quadrupole moment (field-independent basis, Debye-Ang):
   XX=           -163.9345   YY=           -151.4121   ZZ=           -154.5454
   XY=              2.8194   XZ=              2.7737   YZ=             -3.3946
 Traceless Quadrupole moment (field-independent basis, Debye-Ang):
   XX=             -7.3038   YY=              5.2186   ZZ=              2.0853
   XY=              2.8194   XZ=              2.7737   YZ=             -3.3946
 Octapole moment (field-independent basis, Debye-Ang**2):
  XXX=           -462.3816  YYY=             72.1883  ZZZ=             66.3104  XYY=           -146.3415
  XXY=             35.5441  XXZ=            -33.2155  XZZ=           -144.7016  YZZ=             23.6737
  YYZ=             17.0709  XYZ=             -1.4709
 Hexadecapole moment (field-independent basis, Debye-Ang**3):
 XXXX=          -7724.5441 YYYY=          -1874.9151 ZZZZ=          -2657.9218 XXXY=            266.1884
 XXXZ=            483.6048 YYYX=            271.0235 YYYZ=            500.7900 ZZZX=            461.6059
 ZZZY=            458.2901 XXYY=          -1600.2748 XXZZ=          -1863.6133 YYZZ=           -770.8742
 XXYZ=            197.1373 YYXZ=            141.8044 ZZXY=             88.9670
 N-N= 3.321078981718D+03 E-N=-1.094783729881D+04  KE= 1.813627498238D+03
 No NMR shielding tensors so no spin-rotation constants.
 Leave Link  601 at Sun Mar  3 17:38:49 2024, MaxMem=  5368709120 cpu:         2.3
 (Enter /home/k0335/k033513/app/g09/l9999.exe)
 1\1\GINC-C24U18N3\SP\RCAM-B3LYP\6-31G(d,p)\C12H12F9N3O4\K033513\03-Mar
 -2024\0\\#p CAM-B3LYP/6-31G(d,p) SCRF=(PCM,Solvent=Generic,Read) NoSym
 m out=wfn\\Title A1445123341_0\\0,1\C,0,-4.271584,2.244921,-1.565743\C
 ,0,-3.999408,0.778921,-1.268894\C,0,-2.704591,0.599167,-0.478117\C,0,-
 2.434505,-0.879661,-0.182206\N,0,-1.192998,-1.064397,0.569912\C,0,-1.2
 45964,-0.956982,1.944878\O,0,-2.298952,-0.73581,2.544894\N,0,-0.03918,
 -1.06408,2.602148\C,0,-0.031359,-0.871385,4.042564\C,0,1.171623,-1.120
 746,1.946647\O,0,2.229691,-0.90649,2.536646\N,0,1.124455,-1.388811,0.6
 03315\C,0,2.391867,-1.458478,-0.107746\F,0,3.255227,-2.224832,0.620933
 \F,0,2.216586,-2.190304,-1.247384\C,0,3.044011,-0.092676,-0.451846\F,0
 ,3.403306,0.540827,0.702997\O,0,2.076022,0.767163,-1.063915\C,0,2.6349
 49,1.92421,-1.625178\F,0,1.644743,2.806421,-1.855912\F,0,3.219302,1.61
 5971,-2.793665\F,0,3.526193,2.484694,-0.793544\C,0,4.298621,-0.437434,
 -1.266932\F,0,5.051991,0.66386,-1.506961\F,0,3.989567,-0.962371,-2.473
 925\F,0,5.110586,-1.316318,-0.640153\C,0,-0.010801,-1.168878,-0.135333
 \O,0,0.016733,-1.034234,-1.359001\H,0,-5.202192,2.350567,-2.132047\H,0
 ,-3.461676,2.682091,-2.158439\H,0,-4.36989,2.820942,-0.640067\H,0,-3.9
 3858,0.226122,-2.213546\H,0,-4.841809,0.364068,-0.703297\H,0,-2.765321
 ,1.16091,0.462092\H,0,-1.86569,1.024988,-1.04222\H,0,-3.268787,-1.3038
 55,0.389184\H,0,-2.373056,-1.442847,-1.121185\H,0,-0.936724,-1.286569,
 4.495467\H,0,0.00722,0.203457,4.24656\H,0,0.840375,-1.352143,4.496533\
 \Version=ES64L-G09RevD.01\HF=-1827.691109\RMSD=6.437e-09\Dipole=-1.030
 6212,-0.0441522,0.5047282\Quadrupole=-5.4302316,3.8798932,1.5503384,2.
 0961494,2.0621527,-2.5237743\PG=C01 [X(C12H12F9N3O4)]\\@

 Writing a WFN file to "A1445123341/A1445123341_0.wfn"


 DON'T WORRY CHARLIE BROWN...WE LEARN MORE FROM LOSING  THAN WE DO FROM WINNING.
 THEN THAT MAKES ME THE SMARTEST PERSON IN THE WORLD...
 CHARLES SCHULZ 'PEANUTS'
 Job cpu time:       0 days  0 hours 13 minutes 13.3 seconds.
 File lengths (MBytes):  RWF=    285 Int=      0 D2E=      0 Chk=     10 Scr=      1
 Normal termination of Gaussian 09 at Sun Mar  3 17:38:49 2024.
