 Entering Gaussian System, Link 0=g09
 Initial command:
 /home/k0335/k033513/app/g09/l1.exe "/home/k0335/k033513/app/g09/scratch/Gau-846100.inp" -scrdir="/home/k0335/k033513/app/g09/scratch/"
 Default is to use a total of  36 processors:
                               36 via shared-memory
                                1 via Linda
 Entering Link 1 = /home/k0335/k033513/app/g09/l1.exe PID=    846101.
  
 Copyright (c) 1988,1990,1992,1993,1995,1998,2003,2009,2013,
            Gaussian, Inc.  All Rights Reserved.
  
 This is part of the Gaussian(R) 09 program.  It is based on
 the Gaussian(R) 03 system (copyright 2003, Gaussian, Inc.),
 the Gaussian(R) 98 system (copyright 1998, Gaussian, Inc.),
 the Gaussian(R) 94 system (copyright 1995, Gaussian, Inc.),
 the Gaussian 92(TM) system (copyright 1992, Gaussian, Inc.),
 the Gaussian 90(TM) system (copyright 1990, Gaussian, Inc.),
 the Gaussian 88(TM) system (copyright 1988, Gaussian, Inc.),
 the Gaussian 86(TM) system (copyright 1986, Carnegie Mellon
 University), and the Gaussian 82(TM) system (copyright 1983,
 Carnegie Mellon University). Gaussian is a federally registered
 trademark of Gaussian, Inc.
  
 This software contains proprietary and confidential information,
 including trade secrets, belonging to Gaussian, Inc.
  
 This software is provided under written license and may be
 used, copied, transmitted, or stored only in accord with that
 written license.
  
 The following legend is applicable only to US Government
 contracts under FAR:
  
                    RESTRICTED RIGHTS LEGEND
  
 Use, reproduction and disclosure by the US Government is
 subject to restrictions as set forth in subparagraphs (a)
 and (c) of the Commercial Computer Software - Restricted
 Rights clause in FAR 52.227-19.
  
 Gaussian, Inc.
 340 Quinnipiac St., Bldg. 40, Wallingford CT 06492
  
  
 ---------------------------------------------------------------
 Warning -- This program may not be used in any manner that
 competes with the business of Gaussian, Inc. or will provide
 assistance to any competitor of Gaussian, Inc.  The licensee
 of this program is prohibited from giving any competitor of
 Gaussian, Inc. access to this program.  By using this program,
 the user acknowledges that Gaussian, Inc. is engaged in the
 business of creating and licensing software in the field of
 computational chemistry and represents and warrants to the
 licensee that it is not a competitor of Gaussian, Inc. and that
 it will not use this program in any manner prohibited above.
 ---------------------------------------------------------------
  

 Cite this work as:
 Gaussian 09, Revision D.01,
 M. J. Frisch, G. W. Trucks, H. B. Schlegel, G. E. Scuseria, 
 M. A. Robb, J. R. Cheeseman, G. Scalmani, V. Barone, B. Mennucci, 
 G. A. Petersson, H. Nakatsuji, M. Caricato, X. Li, H. P. Hratchian, 
 A. F. Izmaylov, J. Bloino, G. Zheng, J. L. Sonnenberg, M. Hada, 
 M. Ehara, K. Toyota, R. Fukuda, J. Hasegawa, M. Ishida, T. Nakajima, 
 Y. Honda, O. Kitao, H. Nakai, T. Vreven, J. A. Montgomery, Jr., 
 J. E. Peralta, F. Ogliaro, M. Bearpark, J. J. Heyd, E. Brothers, 
 K. N. Kudin, V. N. Staroverov, T. Keith, R. Kobayashi, J. Normand, 
 K. Raghavachari, A. Rendell, J. C. Burant, S. S. Iyengar, J. Tomasi, 
 M. Cossi, N. Rega, J. M. Millam, M. Klene, J. E. Knox, J. B. Cross, 
 V. Bakken, C. Adamo, J. Jaramillo, R. Gomperts, R. E. Stratmann, 
 O. Yazyev, A. J. Austin, R. Cammi, C. Pomelli, J. W. Ochterski, 
 R. L. Martin, K. Morokuma, V. G. Zakrzewski, G. A. Voth, 
 P. Salvador, J. J. Dannenberg, S. Dapprich, A. D. Daniels, 
 O. Farkas, J. B. Foresman, J. V. Ortiz, J. Cioslowski, 
 and D. J. Fox, Gaussian, Inc., Wallingford CT, 2013.
 
 ******************************************
 Gaussian 09:  ES64L-G09RevD.01 24-Apr-2013
                 4-Feb-2025 
 ******************************************
 %nprocshared=24
 Will use up to   24 processors via shared memory.
 %mem=40GB
 %rwf=cytopopt/DIPEDA0/DIPEDA0_neu.rwf
 %nosave
 %chk=cytopopt/DIPEDA0/DIPEDA0_neu.chk
 ----------------------------------------------------------------------
 #p CAM-B3LYP/6-31G(d,p) opt SCRF=(PCM,Solvent=Generic,Read) NoSymm out
 =wfn
 ----------------------------------------------------------------------
 1/14=-1,18=20,19=15,26=3,38=1,40=2/1,3;
 2/9=110,12=2,15=1,17=6,18=5,40=1/2;
 3/5=1,6=6,7=101,11=2,16=1,25=1,30=1,70=2203,71=1,72=-2,74=-40/1,2,3;
 4//1;
 5/5=2,38=5/2;
 6/7=2,8=2,9=2,10=2,28=1/1;
 7/30=1/1,2,3,16;
 1/14=-1,18=20,19=15,26=3/3(2);
 2/9=110,15=1/2;
 99/6=100/99;
 2/9=110,15=1/2;
 3/5=1,6=6,7=101,11=2,16=1,25=1,30=1,70=2205,71=1,72=-2,74=-40/1,2,3;
 4/5=5,16=3,69=1/1;
 5/5=2,38=5/2;
 7/30=1/1,2,3,16;
 1/14=-1,18=20,19=15,26=3/3(-5);
 2/9=110,15=1/2;
 6/7=2,8=2,9=2,10=2,19=2,28=1/1;
 99/6=100,9=1/99;
 Leave Link    1 at Tue Feb  4 08:36:27 2025, MaxMem=  5368709120 cpu:         0.9
 (Enter /home/k0335/k033513/app/g09/l101.exe)
 -----------------
 Title DIPEDA0_neu
 -----------------
 Symbolic Z-matrix:
 Charge =  0 Multiplicity = 1
 F                     3.69759   1.79294  -2.43461 
 C                     4.08737   1.78424  -1.14744 
 F                     4.63811   2.9871   -0.87873 
 C                     5.02395   0.63979  -0.8174 
 F                     4.63064  -0.50244  -1.41677 
 F                     6.30201   0.85282  -1.17924 
 C                     4.82086   0.57513   0.66025 
 F                     5.42086   1.69176   1.20095 
 C                     5.3954   -0.64672   1.31271 
 F                     5.01426  -0.66096   2.62211 
 C                     6.91741  -0.64668   1.18819 
 O                     7.3718   -1.3831    0.15006 
 O                     7.71283  -0.04625   1.89265 
 F                     4.85482  -1.76554   0.76219 
 C                     3.30693   0.77963   0.76673 
 F                     3.06261   1.46285   1.92067 
 C                     2.40057  -0.46565   0.73151 
 F                     2.73     -1.3283    1.72737 
 C                     0.92235  -0.04772   0.83445 
 N                     0.25522   0.00517  -0.3825 
 C                    -1.16587   0.30616  -0.45999 
 C                    -2.02976  -0.96728  -0.35404 
 N                    -3.49531  -0.77874  -0.35458 
 C                    -3.97746  -0.28361  -1.66522 
 C                    -4.28416   1.21459  -1.7702 
 C                    -5.16577  -1.12189  -2.15292 
 C                    -4.03998  -0.13741   0.86858 
 C                    -5.55741  -0.34367   1.00619 
 C                    -3.41511  -0.67699   2.16852 
 O                     0.37227   0.22926   1.89836 
 F                     2.61542  -1.14112  -0.43497 
 O                     2.93577   1.67239  -0.31495 
 H                     8.3513   -1.30056   0.19046 
 H                     0.68391  -0.45142  -1.17897 
 H                    -1.31898   0.79743  -1.42721 
 H                    -1.42094   1.02054   0.33253 
 H                    -1.76638  -1.63195  -1.18899 
 H                    -1.72238  -1.55307   0.5188 
 H                    -3.19536  -0.47658  -2.414 
 H                    -4.5042    1.47937  -2.80878 
 H                    -5.14938   1.51752  -1.17308 
 H                    -3.43126   1.82154  -1.45844 
 H                    -6.07605  -0.95098  -1.57523 
 H                    -5.3952   -0.87462  -3.19528 
 H                    -4.9336   -2.19147  -2.11652 
 H                    -3.83782   0.93868   0.85043 
 H                    -6.12239   0.22172   0.26362 
 H                    -5.82457  -1.40215   0.91458 
 H                    -5.91569   0.00393   1.98426 
 H                    -3.49759  -1.76673   2.22738 
 H                    -3.91952  -0.25801   3.0483 
 H                    -2.36215  -0.39769   2.2582 
 
 NAtoms=     52 NQM=       52 NQMF=       0 NMMI=      0 NMMIF=      0
                NMic=       0 NMicF=      0.
                    Isotopes and Nuclear Properties:
 (Nuclear quadrupole moments (NQMom) in fm**2, nuclear magnetic moments (NMagM)
  in nuclear magnetons)

  Atom         1           2           3           4           5           6           7           8           9          10
 IAtWgt=          19          12          19          12          19          19          12          19          12          19
 AtmWgt=  18.9984033  12.0000000  18.9984033  12.0000000  18.9984033  18.9984033  12.0000000  18.9984033  12.0000000  18.9984033
 NucSpn=           1           0           1           0           1           1           0           1           0           1
 AtZEff=   0.0000000   0.0000000   0.0000000   0.0000000   0.0000000   0.0000000   0.0000000   0.0000000   0.0000000   0.0000000
 NQMom=    0.0000000   0.0000000   0.0000000   0.0000000   0.0000000   0.0000000   0.0000000   0.0000000   0.0000000   0.0000000
 NMagM=    2.6288670   0.0000000   2.6288670   0.0000000   2.6288670   2.6288670   0.0000000   2.6288670   0.0000000   2.6288670
 AtZNuc=   9.0000000   6.0000000   9.0000000   6.0000000   9.0000000   9.0000000   6.0000000   9.0000000   6.0000000   9.0000000

  Atom        11          12          13          14          15          16          17          18          19          20
 IAtWgt=          12          16          16          19          12          19          12          19          12          14
 AtmWgt=  12.0000000  15.9949146  15.9949146  18.9984033  12.0000000  18.9984033  12.0000000  18.9984033  12.0000000  14.0030740
 NucSpn=           0           0           0           1           0           1           0           1           0           2
 AtZEff=   0.0000000   0.0000000   0.0000000   0.0000000   0.0000000   0.0000000   0.0000000   0.0000000   0.0000000   0.0000000
 NQMom=    0.0000000   0.0000000   0.0000000   0.0000000   0.0000000   0.0000000   0.0000000   0.0000000   0.0000000   2.0440000
 NMagM=    0.0000000   0.0000000   0.0000000   2.6288670   0.0000000   2.6288670   0.0000000   2.6288670   0.0000000   0.4037610
 AtZNuc=   6.0000000   8.0000000   8.0000000   9.0000000   6.0000000   9.0000000   6.0000000   9.0000000   6.0000000   7.0000000

  Atom        21          22          23          24          25          26          27          28          29          30
 IAtWgt=          12          12          14          12          12          12          12          12          12          16
 AtmWgt=  12.0000000  12.0000000  14.0030740  12.0000000  12.0000000  12.0000000  12.0000000  12.0000000  12.0000000  15.9949146
 NucSpn=           0           0           2           0           0           0           0           0           0           0
 AtZEff=   0.0000000   0.0000000   0.0000000   0.0000000   0.0000000   0.0000000   0.0000000   0.0000000   0.0000000   0.0000000
 NQMom=    0.0000000   0.0000000   2.0440000   0.0000000   0.0000000   0.0000000   0.0000000   0.0000000   0.0000000   0.0000000
 NMagM=    0.0000000   0.0000000   0.4037610   0.0000000   0.0000000   0.0000000   0.0000000   0.0000000   0.0000000   0.0000000
 AtZNuc=   6.0000000   6.0000000   7.0000000   6.0000000   6.0000000   6.0000000   6.0000000   6.0000000   6.0000000   8.0000000

  Atom        31          32          33          34          35          36          37          38          39          40
 IAtWgt=          19          16           1           1           1           1           1           1           1           1
 AtmWgt=  18.9984033  15.9949146   1.0078250   1.0078250   1.0078250   1.0078250   1.0078250   1.0078250   1.0078250   1.0078250
 NucSpn=           1           0           1           1           1           1           1           1           1           1
 AtZEff=   0.0000000   0.0000000   0.0000000   0.0000000   0.0000000   0.0000000   0.0000000   0.0000000   0.0000000   0.0000000
 NQMom=    0.0000000   0.0000000   0.0000000   0.0000000   0.0000000   0.0000000   0.0000000   0.0000000   0.0000000   0.0000000
 NMagM=    2.6288670   0.0000000   2.7928460   2.7928460   2.7928460   2.7928460   2.7928460   2.7928460   2.7928460   2.7928460
 AtZNuc=   9.0000000   8.0000000   1.0000000   1.0000000   1.0000000   1.0000000   1.0000000   1.0000000   1.0000000   1.0000000

  Atom        41          42          43          44          45          46          47          48          49          50
 IAtWgt=           1           1           1           1           1           1           1           1           1           1
 AtmWgt=   1.0078250   1.0078250   1.0078250   1.0078250   1.0078250   1.0078250   1.0078250   1.0078250   1.0078250   1.0078250
 NucSpn=           1           1           1           1           1           1           1           1           1           1
 AtZEff=   0.0000000   0.0000000   0.0000000   0.0000000   0.0000000   0.0000000   0.0000000   0.0000000   0.0000000   0.0000000
 NQMom=    0.0000000   0.0000000   0.0000000   0.0000000   0.0000000   0.0000000   0.0000000   0.0000000   0.0000000   0.0000000
 NMagM=    2.7928460   2.7928460   2.7928460   2.7928460   2.7928460   2.7928460   2.7928460   2.7928460   2.7928460   2.7928460
 AtZNuc=   1.0000000   1.0000000   1.0000000   1.0000000   1.0000000   1.0000000   1.0000000   1.0000000   1.0000000   1.0000000

  Atom        51          52
 IAtWgt=           1           1
 AtmWgt=   1.0078250   1.0078250
 NucSpn=           1           1
 AtZEff=   0.0000000   0.0000000
 NQMom=    0.0000000   0.0000000
 NMagM=    2.7928460   2.7928460
 AtZNuc=   1.0000000   1.0000000
 Leave Link  101 at Tue Feb  4 08:36:27 2025, MaxMem=  5368709120 cpu:         3.1
 (Enter /home/k0335/k033513/app/g09/l103.exe)

 GradGradGradGradGradGradGradGradGradGradGradGradGradGradGradGradGradGrad
 Berny optimization.
 Initialization pass.
                           ----------------------------
                           !    Initial Parameters    !
                           ! (Angstroms and Degrees)  !
 --------------------------                            --------------------------
 ! Name  Definition              Value          Derivative Info.                !
 --------------------------------------------------------------------------------
 ! R1    R(1,2)                  1.3449         estimate D2E/DX2                !
 ! R2    R(2,3)                  1.35           estimate D2E/DX2                !
 ! R3    R(2,4)                  1.5152         estimate D2E/DX2                !
 ! R4    R(2,32)                 1.4254         estimate D2E/DX2                !
 ! R5    R(4,5)                  1.3486         estimate D2E/DX2                !
 ! R6    R(4,6)                  1.3453         estimate D2E/DX2                !
 ! R7    R(4,7)                  1.4929         estimate D2E/DX2                !
 ! R8    R(7,8)                  1.3781         estimate D2E/DX2                !
 ! R9    R(7,9)                  1.4996         estimate D2E/DX2                !
 ! R10   R(7,15)                 1.5314         estimate D2E/DX2                !
 ! R11   R(9,10)                 1.3638         estimate D2E/DX2                !
 ! R12   R(9,11)                 1.5271         estimate D2E/DX2                !
 ! R13   R(9,14)                 1.3591         estimate D2E/DX2                !
 ! R14   R(11,12)                1.3515         estimate D2E/DX2                !
 ! R15   R(11,13)                1.2204         estimate D2E/DX2                !
 ! R16   R(12,33)                0.9838         estimate D2E/DX2                !
 ! R17   R(15,16)                1.3631         estimate D2E/DX2                !
 ! R18   R(15,17)                1.5406         estimate D2E/DX2                !
 ! R19   R(15,32)                1.4508         estimate D2E/DX2                !
 ! R20   R(17,18)                1.3581         estimate D2E/DX2                !
 ! R21   R(17,19)                1.5396         estimate D2E/DX2                !
 ! R22   R(17,31)                1.3649         estimate D2E/DX2                !
 ! R23   R(19,20)                1.3888         estimate D2E/DX2                !
 ! R24   R(19,30)                1.2293         estimate D2E/DX2                !
 ! R25   R(20,21)                1.4547         estimate D2E/DX2                !
 ! R26   R(20,34)                1.0132         estimate D2E/DX2                !
 ! R27   R(21,22)                1.5425         estimate D2E/DX2                !
 ! R28   R(21,35)                1.0956         estimate D2E/DX2                !
 ! R29   R(21,36)                1.097          estimate D2E/DX2                !
 ! R30   R(22,23)                1.4776         estimate D2E/DX2                !
 ! R31   R(22,37)                1.0992         estimate D2E/DX2                !
 ! R32   R(22,38)                1.0952         estimate D2E/DX2                !
 ! R33   R(23,24)                1.4817         estimate D2E/DX2                !
 ! R34   R(23,27)                1.4846         estimate D2E/DX2                !
 ! R35   R(24,25)                1.5329         estimate D2E/DX2                !
 ! R36   R(24,26)                1.5338         estimate D2E/DX2                !
 ! R37   R(24,39)                1.0998         estimate D2E/DX2                !
 ! R38   R(25,40)                1.0942         estimate D2E/DX2                !
 ! R39   R(25,41)                1.094          estimate D2E/DX2                !
 ! R40   R(25,42)                1.0923         estimate D2E/DX2                !
 ! R41   R(26,43)                1.0916         estimate D2E/DX2                !
 ! R42   R(26,44)                1.0956         estimate D2E/DX2                !
 ! R43   R(26,45)                1.0951         estimate D2E/DX2                !
 ! R44   R(27,28)                1.5376         estimate D2E/DX2                !
 ! R45   R(27,29)                1.54           estimate D2E/DX2                !
 ! R46   R(27,46)                1.0951         estimate D2E/DX2                !
 ! R47   R(28,47)                1.091          estimate D2E/DX2                !
 ! R48   R(28,48)                1.0955         estimate D2E/DX2                !
 ! R49   R(28,49)                1.0981         estimate D2E/DX2                !
 ! R50   R(29,50)                1.0944         estimate D2E/DX2                !
 ! R51   R(29,51)                1.0973         estimate D2E/DX2                !
 ! R52   R(29,52)                1.0931         estimate D2E/DX2                !
 ! A1    A(1,2,3)              107.6363         estimate D2E/DX2                !
 ! A2    A(1,2,4)              113.1096         estimate D2E/DX2                !
 ! A3    A(1,2,32)             108.986          estimate D2E/DX2                !
 ! A4    A(3,2,4)              112.177          estimate D2E/DX2                !
 ! A5    A(3,2,32)             106.4556         estimate D2E/DX2                !
 ! A6    A(4,2,32)             108.234          estimate D2E/DX2                !
 ! A7    A(2,4,5)              111.2631         estimate D2E/DX2                !
 ! A8    A(2,4,6)              114.1448         estimate D2E/DX2                !
 ! A9    A(2,4,7)               99.4517         estimate D2E/DX2                !
 ! A10   A(5,4,6)              106.9575         estimate D2E/DX2                !
 ! A11   A(5,4,7)              111.3179         estimate D2E/DX2                !
 ! A12   A(6,4,7)              113.7229         estimate D2E/DX2                !
 ! A13   A(4,7,8)              107.0982         estimate D2E/DX2                !
 ! A14   A(4,7,9)              114.4443         estimate D2E/DX2                !
 ! A15   A(4,7,15)             101.3917         estimate D2E/DX2                !
 ! A16   A(8,7,9)              108.8251         estimate D2E/DX2                !
 ! A17   A(8,7,15)             107.1534         estimate D2E/DX2                !
 ! A18   A(9,7,15)             117.2147         estimate D2E/DX2                !
 ! A19   A(7,9,10)             108.6126         estimate D2E/DX2                !
 ! A20   A(7,9,11)             110.2648         estimate D2E/DX2                !
 ! A21   A(7,9,14)             110.0065         estimate D2E/DX2                !
 ! A22   A(10,9,11)            110.9051         estimate D2E/DX2                !
 ! A23   A(10,9,14)            105.6138         estimate D2E/DX2                !
 ! A24   A(11,9,14)            111.311          estimate D2E/DX2                !
 ! A25   A(9,11,12)            113.4354         estimate D2E/DX2                !
 ! A26   A(9,11,13)            127.0513         estimate D2E/DX2                !
 ! A27   A(12,11,13)           119.494          estimate D2E/DX2                !
 ! A28   A(11,12,33)           104.921          estimate D2E/DX2                !
 ! A29   A(7,15,16)            107.6373         estimate D2E/DX2                !
 ! A30   A(7,15,17)            118.1692         estimate D2E/DX2                !
 ! A31   A(7,15,32)            106.4544         estimate D2E/DX2                !
 ! A32   A(16,15,17)           108.6048         estimate D2E/DX2                !
 ! A33   A(16,15,32)           106.0746         estimate D2E/DX2                !
 ! A34   A(17,15,32)           109.2595         estimate D2E/DX2                !
 ! A35   A(15,17,18)           110.7297         estimate D2E/DX2                !
 ! A36   A(15,17,19)           110.1153         estimate D2E/DX2                !
 ! A37   A(15,17,31)           109.0828         estimate D2E/DX2                !
 ! A38   A(18,17,19)           110.8728         estimate D2E/DX2                !
 ! A39   A(18,17,31)           105.9108         estimate D2E/DX2                !
 ! A40   A(19,17,31)           110.0353         estimate D2E/DX2                !
 ! A41   A(17,19,20)           114.3907         estimate D2E/DX2                !
 ! A42   A(17,19,30)           123.2747         estimate D2E/DX2                !
 ! A43   A(20,19,30)           122.3317         estimate D2E/DX2                !
 ! A44   A(19,20,21)           121.5893         estimate D2E/DX2                !
 ! A45   A(19,20,34)           117.9304         estimate D2E/DX2                !
 ! A46   A(21,20,34)           117.6902         estimate D2E/DX2                !
 ! A47   A(20,21,22)           111.8793         estimate D2E/DX2                !
 ! A48   A(20,21,35)           106.0419         estimate D2E/DX2                !
 ! A49   A(20,21,36)           108.8681         estimate D2E/DX2                !
 ! A50   A(22,21,35)           110.6448         estimate D2E/DX2                !
 ! A51   A(22,21,36)           110.9632         estimate D2E/DX2                !
 ! A52   A(35,21,36)           108.2577         estimate D2E/DX2                !
 ! A53   A(21,22,23)           116.7519         estimate D2E/DX2                !
 ! A54   A(21,22,37)           108.2303         estimate D2E/DX2                !
 ! A55   A(21,22,38)           109.8244         estimate D2E/DX2                !
 ! A56   A(23,22,37)           108.3319         estimate D2E/DX2                !
 ! A57   A(23,22,38)           110.2982         estimate D2E/DX2                !
 ! A58   A(37,22,38)           102.3971         estimate D2E/DX2                !
 ! A59   A(22,23,24)           111.4513         estimate D2E/DX2                !
 ! A60   A(22,23,27)           114.7525         estimate D2E/DX2                !
 ! A61   A(24,23,27)           117.7128         estimate D2E/DX2                !
 ! A62   A(23,24,25)           116.8907         estimate D2E/DX2                !
 ! A63   A(23,24,26)           110.5322         estimate D2E/DX2                !
 ! A64   A(23,24,39)           108.1917         estimate D2E/DX2                !
 ! A65   A(25,24,26)           110.9395         estimate D2E/DX2                !
 ! A66   A(25,24,39)           105.4941         estimate D2E/DX2                !
 ! A67   A(26,24,39)           103.8015         estimate D2E/DX2                !
 ! A68   A(24,25,40)           109.9841         estimate D2E/DX2                !
 ! A69   A(24,25,41)           113.0466         estimate D2E/DX2                !
 ! A70   A(24,25,42)           111.5516         estimate D2E/DX2                !
 ! A71   A(40,25,41)           106.979          estimate D2E/DX2                !
 ! A72   A(40,25,42)           107.0675         estimate D2E/DX2                !
 ! A73   A(41,25,42)           107.9323         estimate D2E/DX2                !
 ! A74   A(24,26,43)           113.0924         estimate D2E/DX2                !
 ! A75   A(24,26,44)           109.9628         estimate D2E/DX2                !
 ! A76   A(24,26,45)           111.0376         estimate D2E/DX2                !
 ! A77   A(43,26,44)           107.0706         estimate D2E/DX2                !
 ! A78   A(43,26,45)           108.1869         estimate D2E/DX2                !
 ! A79   A(44,26,45)           107.245          estimate D2E/DX2                !
 ! A80   A(23,27,28)           112.2019         estimate D2E/DX2                !
 ! A81   A(23,27,29)           113.2814         estimate D2E/DX2                !
 ! A82   A(23,27,46)           110.0665         estimate D2E/DX2                !
 ! A83   A(28,27,29)           106.1351         estimate D2E/DX2                !
 ! A84   A(28,27,46)           108.3913         estimate D2E/DX2                !
 ! A85   A(29,27,46)           106.4628         estimate D2E/DX2                !
 ! A86   A(27,28,47)           112.3732         estimate D2E/DX2                !
 ! A87   A(27,28,48)           111.2721         estimate D2E/DX2                !
 ! A88   A(27,28,49)           111.055          estimate D2E/DX2                !
 ! A89   A(47,28,48)           108.5122         estimate D2E/DX2                !
 ! A90   A(47,28,49)           105.8568         estimate D2E/DX2                !
 ! A91   A(48,28,49)           107.5036         estimate D2E/DX2                !
 ! A92   A(27,29,50)           111.328          estimate D2E/DX2                !
 ! A93   A(27,29,51)           110.8855         estimate D2E/DX2                !
 ! A94   A(27,29,52)           111.753          estimate D2E/DX2                !
 ! A95   A(50,29,51)           107.6041         estimate D2E/DX2                !
 ! A96   A(50,29,52)           108.8213         estimate D2E/DX2                !
 ! A97   A(51,29,52)           106.229          estimate D2E/DX2                !
 ! A98   A(2,32,15)            106.0844         estimate D2E/DX2                !
 ! D1    D(1,2,4,5)            -41.0146         estimate D2E/DX2                !
 ! D2    D(1,2,4,6)             80.144          estimate D2E/DX2                !
 ! D3    D(1,2,4,7)           -158.4179         estimate D2E/DX2                !
 ! D4    D(3,2,4,5)           -162.9978         estimate D2E/DX2                !
 ! D5    D(3,2,4,6)            -41.8391         estimate D2E/DX2                !
 ! D6    D(3,2,4,7)             79.599          estimate D2E/DX2                !
 ! D7    D(32,2,4,5)            79.8496         estimate D2E/DX2                !
 ! D8    D(32,2,4,6)          -158.9918         estimate D2E/DX2                !
 ! D9    D(32,2,4,7)           -37.5537         estimate D2E/DX2                !
 ! D10   D(1,2,32,15)          140.5464         estimate D2E/DX2                !
 ! D11   D(3,2,32,15)         -103.623          estimate D2E/DX2                !
 ! D12   D(4,2,32,15)           17.1546         estimate D2E/DX2                !
 ! D13   D(2,4,7,8)            -71.0809         estimate D2E/DX2                !
 ! D14   D(2,4,7,9)            168.2109         estimate D2E/DX2                !
 ! D15   D(2,4,7,15)            41.0514         estimate D2E/DX2                !
 ! D16   D(5,4,7,8)            171.557          estimate D2E/DX2                !
 ! D17   D(5,4,7,9)             50.8489         estimate D2E/DX2                !
 ! D18   D(5,4,7,15)           -76.3106         estimate D2E/DX2                !
 ! D19   D(6,4,7,8)             50.6616         estimate D2E/DX2                !
 ! D20   D(6,4,7,9)            -70.0465         estimate D2E/DX2                !
 ! D21   D(6,4,7,15)           162.794          estimate D2E/DX2                !
 ! D22   D(4,7,9,10)          -173.1875         estimate D2E/DX2                !
 ! D23   D(4,7,9,11)            65.097          estimate D2E/DX2                !
 ! D24   D(4,7,9,14)           -58.0452         estimate D2E/DX2                !
 ! D25   D(8,7,9,10)            67.0652         estimate D2E/DX2                !
 ! D26   D(8,7,9,11)           -54.6503         estimate D2E/DX2                !
 ! D27   D(8,7,9,14)          -177.7925         estimate D2E/DX2                !
 ! D28   D(15,7,9,10)          -54.6505         estimate D2E/DX2                !
 ! D29   D(15,7,9,11)         -176.3659         estimate D2E/DX2                !
 ! D30   D(15,7,9,14)           60.4918         estimate D2E/DX2                !
 ! D31   D(4,7,15,16)         -146.6872         estimate D2E/DX2                !
 ! D32   D(4,7,15,17)           89.9452         estimate D2E/DX2                !
 ! D33   D(4,7,15,32)          -33.3055         estimate D2E/DX2                !
 ! D34   D(8,7,15,16)          -34.5967         estimate D2E/DX2                !
 ! D35   D(8,7,15,17)         -157.9643         estimate D2E/DX2                !
 ! D36   D(8,7,15,32)           78.785          estimate D2E/DX2                !
 ! D37   D(9,7,15,16)           87.9828         estimate D2E/DX2                !
 ! D38   D(9,7,15,17)          -35.3848         estimate D2E/DX2                !
 ! D39   D(9,7,15,32)         -158.6355         estimate D2E/DX2                !
 ! D40   D(7,9,11,12)          -96.7278         estimate D2E/DX2                !
 ! D41   D(7,9,11,13)           81.6517         estimate D2E/DX2                !
 ! D42   D(10,9,11,12)         142.9257         estimate D2E/DX2                !
 ! D43   D(10,9,11,13)         -38.6948         estimate D2E/DX2                !
 ! D44   D(14,9,11,12)          25.6501         estimate D2E/DX2                !
 ! D45   D(14,9,11,13)        -155.9704         estimate D2E/DX2                !
 ! D46   D(9,11,12,33)        -179.7013         estimate D2E/DX2                !
 ! D47   D(13,11,12,33)          1.7845         estimate D2E/DX2                !
 ! D48   D(7,15,17,18)          57.6856         estimate D2E/DX2                !
 ! D49   D(7,15,17,19)        -179.3364         estimate D2E/DX2                !
 ! D50   D(7,15,17,31)         -58.4877         estimate D2E/DX2                !
 ! D51   D(16,15,17,18)        -65.1968         estimate D2E/DX2                !
 ! D52   D(16,15,17,19)         57.7812         estimate D2E/DX2                !
 ! D53   D(16,15,17,31)        178.6299         estimate D2E/DX2                !
 ! D54   D(32,15,17,18)        179.5198         estimate D2E/DX2                !
 ! D55   D(32,15,17,19)        -57.5021         estimate D2E/DX2                !
 ! D56   D(32,15,17,31)         63.3466         estimate D2E/DX2                !
 ! D57   D(7,15,32,2)           10.0686         estimate D2E/DX2                !
 ! D58   D(16,15,32,2)         124.518          estimate D2E/DX2                !
 ! D59   D(17,15,32,2)        -118.5852         estimate D2E/DX2                !
 ! D60   D(15,17,19,20)         98.7319         estimate D2E/DX2                !
 ! D61   D(15,17,19,30)        -80.6651         estimate D2E/DX2                !
 ! D62   D(18,17,19,20)       -138.374          estimate D2E/DX2                !
 ! D63   D(18,17,19,30)         42.229          estimate D2E/DX2                !
 ! D64   D(31,17,19,20)        -21.5437         estimate D2E/DX2                !
 ! D65   D(31,17,19,30)        159.0593         estimate D2E/DX2                !
 ! D66   D(17,19,20,21)        176.369          estimate D2E/DX2                !
 ! D67   D(17,19,20,34)         15.7279         estimate D2E/DX2                !
 ! D68   D(30,19,20,21)         -4.2276         estimate D2E/DX2                !
 ! D69   D(30,19,20,34)       -164.8687         estimate D2E/DX2                !
 ! D70   D(19,20,21,22)        -88.7095         estimate D2E/DX2                !
 ! D71   D(19,20,21,35)        150.5731         estimate D2E/DX2                !
 ! D72   D(19,20,21,36)         34.2928         estimate D2E/DX2                !
 ! D73   D(34,20,21,22)         71.9761         estimate D2E/DX2                !
 ! D74   D(34,20,21,35)        -48.7413         estimate D2E/DX2                !
 ! D75   D(34,20,21,36)       -165.0216         estimate D2E/DX2                !
 ! D76   D(20,21,22,23)        177.1253         estimate D2E/DX2                !
 ! D77   D(20,21,22,37)        -60.4043         estimate D2E/DX2                !
 ! D78   D(20,21,22,38)         50.6351         estimate D2E/DX2                !
 ! D79   D(35,21,22,23)        -64.8711         estimate D2E/DX2                !
 ! D80   D(35,21,22,37)         57.5993         estimate D2E/DX2                !
 ! D81   D(35,21,22,38)        168.6386         estimate D2E/DX2                !
 ! D82   D(36,21,22,23)         55.319          estimate D2E/DX2                !
 ! D83   D(36,21,22,37)        177.7895         estimate D2E/DX2                !
 ! D84   D(36,21,22,38)        -71.1712         estimate D2E/DX2                !
 ! D85   D(21,22,23,24)         67.4286         estimate D2E/DX2                !
 ! D86   D(21,22,23,27)        -69.5723         estimate D2E/DX2                !
 ! D87   D(37,22,23,24)        -54.989          estimate D2E/DX2                !
 ! D88   D(37,22,23,27)        168.01           estimate D2E/DX2                !
 ! D89   D(38,22,23,24)       -166.3162         estimate D2E/DX2                !
 ! D90   D(38,22,23,27)         56.6829         estimate D2E/DX2                !
 ! D91   D(22,23,24,25)       -100.9567         estimate D2E/DX2                !
 ! D92   D(22,23,24,26)        130.886          estimate D2E/DX2                !
 ! D93   D(22,23,24,39)         17.8555         estimate D2E/DX2                !
 ! D94   D(27,23,24,25)         34.6502         estimate D2E/DX2                !
 ! D95   D(27,23,24,26)        -93.5072         estimate D2E/DX2                !
 ! D96   D(27,23,24,39)        153.4623         estimate D2E/DX2                !
 ! D97   D(22,23,27,28)       -162.8664         estimate D2E/DX2                !
 ! D98   D(22,23,27,29)        -42.7091         estimate D2E/DX2                !
 ! D99   D(22,23,27,46)         76.3446         estimate D2E/DX2                !
 ! D100  D(24,23,27,28)         62.9402         estimate D2E/DX2                !
 ! D101  D(24,23,27,29)       -176.9025         estimate D2E/DX2                !
 ! D102  D(24,23,27,46)        -57.8488         estimate D2E/DX2                !
 ! D103  D(23,24,25,40)        172.6931         estimate D2E/DX2                !
 ! D104  D(23,24,25,41)        -67.8088         estimate D2E/DX2                !
 ! D105  D(23,24,25,42)         54.0466         estimate D2E/DX2                !
 ! D106  D(26,24,25,40)        -59.3465         estimate D2E/DX2                !
 ! D107  D(26,24,25,41)         60.1516         estimate D2E/DX2                !
 ! D108  D(26,24,25,42)       -177.993          estimate D2E/DX2                !
 ! D109  D(39,24,25,40)         52.4392         estimate D2E/DX2                !
 ! D110  D(39,24,25,41)        171.9374         estimate D2E/DX2                !
 ! D111  D(39,24,25,42)        -66.2073         estimate D2E/DX2                !
 ! D112  D(23,24,26,43)         70.8902         estimate D2E/DX2                !
 ! D113  D(23,24,26,44)       -169.4799         estimate D2E/DX2                !
 ! D114  D(23,24,26,45)        -50.9485         estimate D2E/DX2                !
 ! D115  D(25,24,26,43)        -60.4429         estimate D2E/DX2                !
 ! D116  D(25,24,26,44)         59.1871         estimate D2E/DX2                !
 ! D117  D(25,24,26,45)        177.7185         estimate D2E/DX2                !
 ! D118  D(39,24,26,43)       -173.3061         estimate D2E/DX2                !
 ! D119  D(39,24,26,44)        -53.6762         estimate D2E/DX2                !
 ! D120  D(39,24,26,45)         64.8552         estimate D2E/DX2                !
 ! D121  D(23,27,28,47)        -70.148          estimate D2E/DX2                !
 ! D122  D(23,27,28,48)         51.7704         estimate D2E/DX2                !
 ! D123  D(23,27,28,49)        171.4877         estimate D2E/DX2                !
 ! D124  D(29,27,28,47)        165.6248         estimate D2E/DX2                !
 ! D125  D(29,27,28,48)        -72.4568         estimate D2E/DX2                !
 ! D126  D(29,27,28,49)         47.2606         estimate D2E/DX2                !
 ! D127  D(46,27,28,47)         51.6032         estimate D2E/DX2                !
 ! D128  D(46,27,28,48)        173.5216         estimate D2E/DX2                !
 ! D129  D(46,27,28,49)        -66.7611         estimate D2E/DX2                !
 ! D130  D(23,27,29,50)        -54.0852         estimate D2E/DX2                !
 ! D131  D(23,27,29,51)       -173.8533         estimate D2E/DX2                !
 ! D132  D(23,27,29,52)         67.8315         estimate D2E/DX2                !
 ! D133  D(28,27,29,50)         69.4683         estimate D2E/DX2                !
 ! D134  D(28,27,29,51)        -50.2997         estimate D2E/DX2                !
 ! D135  D(28,27,29,52)       -168.6149         estimate D2E/DX2                !
 ! D136  D(46,27,29,50)       -175.1926         estimate D2E/DX2                !
 ! D137  D(46,27,29,51)         65.0393         estimate D2E/DX2                !
 ! D138  D(46,27,29,52)        -53.2759         estimate D2E/DX2                !
 --------------------------------------------------------------------------------
 Trust Radius=3.00D-01 FncErr=1.00D-07 GrdErr=1.00D-06
 Number of steps in this run=    298 maximum allowed number of steps=    312.
 GradGradGradGradGradGradGradGradGradGradGradGradGradGradGradGradGradGrad

 Leave Link  103 at Tue Feb  4 08:36:28 2025, MaxMem=  5368709120 cpu:         0.1
 (Enter /home/k0335/k033513/app/g09/l202.exe)
 Symmetry turned off by external request.
 Stoichiometry    C16H20F10N2O4
 Framework group  C1[X(C16H20F10N2O4)]
 Deg. of freedom   150
 Full point group                 C1      NOp   1
                          Input orientation:                          
 ---------------------------------------------------------------------
 Center     Atomic      Atomic             Coordinates (Angstroms)
 Number     Number       Type             X           Y           Z
 ---------------------------------------------------------------------
      1          9           0        3.697594    1.792944   -2.434614
      2          6           0        4.087366    1.784242   -1.147443
      3          9           0        4.638110    2.987104   -0.878729
      4          6           0        5.023954    0.639789   -0.817398
      5          9           0        4.630642   -0.502439   -1.416773
      6          9           0        6.302012    0.852820   -1.179239
      7          6           0        4.820864    0.575129    0.660250
      8          9           0        5.420864    1.691759    1.200952
      9          6           0        5.395403   -0.646723    1.312706
     10          9           0        5.014258   -0.660963    2.622114
     11          6           0        6.917409   -0.646680    1.188191
     12          8           0        7.371802   -1.383104    0.150062
     13          8           0        7.712834   -0.046250    1.892651
     14          9           0        4.854823   -1.765543    0.762188
     15          6           0        3.306929    0.779633    0.766725
     16          9           0        3.062605    1.462846    1.920671
     17          6           0        2.400568   -0.465652    0.731511
     18          9           0        2.730000   -1.328297    1.727370
     19          6           0        0.922350   -0.047720    0.834448
     20          7           0        0.255221    0.005168   -0.382496
     21          6           0       -1.165871    0.306164   -0.459994
     22          6           0       -2.029762   -0.967276   -0.354036
     23          7           0       -3.495308   -0.778736   -0.354577
     24          6           0       -3.977462   -0.283612   -1.665221
     25          6           0       -4.284157    1.214591   -1.770199
     26          6           0       -5.165766   -1.121886   -2.152922
     27          6           0       -4.039983   -0.137410    0.868577
     28          6           0       -5.557409   -0.343665    1.006195
     29          6           0       -3.415113   -0.676994    2.168519
     30          8           0        0.372270    0.229261    1.898355
     31          9           0        2.615418   -1.141119   -0.434967
     32          8           0        2.935772    1.672385   -0.314946
     33          1           0        8.351303   -1.300559    0.190459
     34          1           0        0.683910   -0.451423   -1.178966
     35          1           0       -1.318980    0.797427   -1.427209
     36          1           0       -1.420937    1.020539    0.332528
     37          1           0       -1.766381   -1.631953   -1.188993
     38          1           0       -1.722378   -1.553071    0.518803
     39          1           0       -3.195364   -0.476579   -2.414003
     40          1           0       -4.504197    1.479365   -2.808778
     41          1           0       -5.149382    1.517518   -1.173080
     42          1           0       -3.431262    1.821543   -1.458436
     43          1           0       -6.076049   -0.950982   -1.575225
     44          1           0       -5.395196   -0.874618   -3.195280
     45          1           0       -4.933604   -2.191470   -2.116524
     46          1           0       -3.837815    0.938676    0.850430
     47          1           0       -6.122385    0.221719    0.263622
     48          1           0       -5.824565   -1.402147    0.914583
     49          1           0       -5.915690    0.003933    1.984258
     50          1           0       -3.497594   -1.766727    2.227384
     51          1           0       -3.919520   -0.258006    3.048299
     52          1           0       -2.362152   -0.397686    2.258195
 ---------------------------------------------------------------------
 Rotational constants (GHZ):      0.3161389      0.0623615      0.0585195
 Leave Link  202 at Tue Feb  4 08:36:28 2025, MaxMem=  5368709120 cpu:         0.0
 (Enter /home/k0335/k033513/app/g09/l301.exe)
 Standard basis: 6-31G(d,p) (6D, 7F)
 Ernie: Thresh=  0.10000D-02 Tol=  0.10000D-05 Strict=F.
   580 basis functions,  1036 primitive gaussians,   580 cartesian basis functions
   126 alpha electrons      126 beta electrons
       nuclear repulsion energy      4025.0942037464 Hartrees.
 IExCor=20419 DFT=T Ex+Corr=CAM-B3LYP ExCW=0 ScaHFX=  1.000000
 ScaDFX=  1.000000  1.000000  1.000000  0.810000 ScalE2=  1.000000  1.000000
 IRadAn=      0 IRanWt=     -1 IRanGd=            0 ICorTp=0 IEmpDi=  4
  HFx wShort=  0.000000 wLong=  0.330000 cFull=  0.190000 cShort=  0.000000 cLong=  0.460000
  DFx wShort=  0.000000 wLong=  0.330000 cFull=  0.190000 cShort=  0.000000 cLong=  0.460000
 NAtoms=   52 NActive=   52 NUniq=   52 SFac= 1.00D+00 NAtFMM=   60 NAOKFM=F Big=F
 Integral buffers will be    131072 words long.
 Raffenetti 2 integral format.
 Two-electron integral symmetry is turned off.
 Using the following non-standard input for PCM:
 eps=2.05
 --- end of non-standard input.
 ------------------------------------------------------------------------------
 Polarizable Continuum Model (PCM)
 =================================
 Model                : PCM (using non-symmetric T matrix).
 Atomic radii         : UFF (Universal Force Field).
 Polarization charges : Total charges.
 Charge compensation  : None.
 Solution method      : On-the-fly selection.
 Cavity type          : Scaled VdW (van der Waals Surface) (Alpha=1.100).
 Cavity algorithm     : GePol (No added spheres)
                        Default sphere list used, NSphG=   52.
                        Lebedev-Laikov grids with approx.  5.0 points / Ang**2.
                        Smoothing algorithm: Karplus/York (Gamma=1.0000).
                        Polarization charges: spherical gaussians, with
                                              point-specific exponents (IZeta= 3).
                        Self-potential: point-specific (ISelfS= 7).
                        Self-field    : sphere-specific E.n sum rule (ISelfD= 2).
 1st derivatives      : Analytical E(r).r(x)/FMM algorithm (CHGder, D1EAlg=3).
                        Cavity 1st derivative terms included.
 Solvent              : Generic,
                        Eps                           =   2.050000
                        Eps(infinity)                 =   0.000000
                        RSolv                         =   0.000000 Ang.
                        Molar volume                  =   0.000000 cm**3/mol
                        Thermal expansion coefficient =   0.000000 K**-1
                        Absolute temperature          = 298.150000 K
                        Numeral density               =   0.000000 Ang**-3
                        Hydrogen bond acidity         =   0.000000
                        Hydrogen bond basicity        =   0.000000
                        Surface tension at interface  =   0.000000 (cal/mol)*Ang**-2
                        Carbon aromaticity            =   0.000000
                        Electronegative halogenicity  =   0.000000
 ------------------------------------------------------------------------------
 GePol: Number of generator spheres                  =      52
 GePol: Total number of spheres                      =      52
 GePol: Number of exposed spheres                    =      51 ( 98.08%)
 GePol: Number of points                             =    3561
 GePol: Average weight of points                     =       0.13
 GePol: Minimum weight of points                     =   0.13D-10
 GePol: Maximum weight of points                     =    0.20577
 GePol: Number of points with low weight             =     185
 GePol: Fraction of low-weight points (<1% of avg)   =       5.20%
 GePol: Cavity surface area                          =    461.676 Ang**2
 GePol: Cavity volume                                =    534.999 Ang**3
 Leave Link  301 at Tue Feb  4 08:36:28 2025, MaxMem=  5368709120 cpu:         0.7
 (Enter /home/k0335/k033513/app/g09/l302.exe)
 NPDir=0 NMtPBC=     1 NCelOv=     1 NCel=       1 NClECP=     1 NCelD=      1
         NCelK=      1 NCelE2=     1 NClLst=     1 CellRange=     0.0.
 One-electron integrals computed using PRISM.
 NBasis=   580 RedAO= T EigKep=  8.40D-04  NBF=   580
 NBsUse=   580 1.00D-06 EigRej= -1.00D+00 NBFU=   580
 Precomputing XC quadrature grid using
 IXCGrd= 4 IRadAn=           0 IRanWt=          -1 IRanGd=           0 AccXCQ= 0.00D+00.
 Generated NRdTot=       0 NPtTot=           0 NUsed=           0 NTot=          32
 NSgBfM=   559   559   560   560   561 MxSgAt=    52 MxSgA2=    52.
 Leave Link  302 at Tue Feb  4 08:36:29 2025, MaxMem=  5368709120 cpu:        21.8
 (Enter /home/k0335/k033513/app/g09/l303.exe)
 DipDrv:  MaxL=1.
 Leave Link  303 at Tue Feb  4 08:36:30 2025, MaxMem=  5368709120 cpu:         0.9
 (Enter /home/k0335/k033513/app/g09/l401.exe)
 ExpMin= 1.61D-01 ExpMax= 7.00D+03 ExpMxC= 1.05D+03 IAcc=1 IRadAn=         1 AccDes= 0.00D+00
 Harris functional with IExCor=20419 and IRadAn=       1 diagonalized for initial guess.
 HarFok:  IExCor=20419 AccDes= 0.00D+00 IRadAn=         1 IDoV= 1 UseB2=F ITyADJ=14
 ICtDFT=  3500011 ScaDFX=  1.000000  1.000000  1.000000  1.000000
 FoFCou: FMM=F IPFlag=           0 FMFlag=      100000 FMFlg1=           0
         NFxFlg=           0 DoJE=T BraDBF=F KetDBF=T FulRan=T
         wScrn=  0.000000 ICntrl=     500 IOpCl=  0 I1Cent=   200000004 NGrid=           0
         NMat0=    1 NMatS0=      1 NMatT0=    0 NMatD0=    1 NMtDS0=    0 NMtDT0=    0
 Symmetry not used in FoFCou.
 Harris En= -1963.93305658573    
 JPrj=0 DoOrth=F DoCkMO=F.
 Leave Link  401 at Tue Feb  4 08:36:31 2025, MaxMem=  5368709120 cpu:        13.5
 (Enter /home/k0335/k033513/app/g09/l502.exe)
 Closed shell SCF:
 Using DIIS extrapolation, IDIIS=  1040.
 Two-electron integral symmetry not used.
 IVT=     1045254 IEndB=     1045254 NGot=  5368709120 MDV=  5368017487
 LenX=  5368017487 LenY=  5367680507
 Requested convergence on RMS density matrix=1.00D-08 within 128 cycles.
 Requested convergence on MAX density matrix=1.00D-06.
 Requested convergence on             energy=1.00D-06.
 No special actions if energy rises.
 Fock matrices will be formed incrementally for  20 cycles.

 Cycle   1  Pass 1  IDiag  1:
 FoFJK:  IHMeth= 1 ICntrl=       0 DoSepK=T KAlg= 0 I1Cent=   0 FoldK=F
 IRaf=         1 NMat=   1 IRICut=       1 DoRegI=T DoRafI=F ISym2E= 0.
 FoFCou: FMM=F IPFlag=           0 FMFlag=      100000 FMFlg1=           0
         NFxFlg=           0 DoJE=T BraDBF=F KetDBF=F FulRan=T
         wScrn=  0.000000 ICntrl=     500 IOpCl=  0 I1Cent=           0 NGrid=           0
         NMat0=    1 NMatS0=      1 NMatT0=    0 NMatD0=    1 NMtDS0=    0 NMtDT0=    0
 Symmetry not used in FoFCou.
 Inv3:  Mode=1 IEnd=    38042163.
 Iteration    1 A*A^-1 deviation from unit magnitude is 7.33D-15 for    292.
 Iteration    1 A*A^-1 deviation from orthogonality  is 6.34D-15 for   3552   1409.
 Iteration    1 A^-1*A deviation from unit magnitude is 7.44D-15 for   1169.
 Iteration    1 A^-1*A deviation from orthogonality  is 4.44D-15 for   3561   1503.
 E= -2029.21584521259    
 DIIS: error= 4.92D-02 at cycle   1 NSaved=   1.
 NSaved= 1 IEnMin= 1 EnMin= -2029.21584521259     IErMin= 1 ErrMin= 4.92D-02
 ErrMax= 4.92D-02  0.00D+00 EMaxC= 1.00D-01 BMatC= 1.66D+00 BMatP= 1.66D+00
 IDIUse=3 WtCom= 5.08D-01 WtEn= 4.92D-01
 Coeff-Com:  0.100D+01
 Coeff-En:   0.100D+01
 Coeff:      0.100D+01
 Gap=     0.412 Goal=   None    Shift=    0.000
 GapD=    0.412 DampG=2.000 DampE=0.500 DampFc=1.0000 IDamp=-1.
 RMSDP=2.61D-03 MaxDP=1.10D-01              OVMax= 1.26D-01

 Cycle   2  Pass 1  IDiag  1:
 RMSU=  2.61D-03    CP:  9.93D-01
 E= -2029.46171864799     Delta-E=       -0.245873435399 Rises=F Damp=F
 DIIS: error= 1.81D-02 at cycle   2 NSaved=   2.
 NSaved= 2 IEnMin= 2 EnMin= -2029.46171864799     IErMin= 2 ErrMin= 1.81D-02
 ErrMax= 1.81D-02  0.00D+00 EMaxC= 1.00D-01 BMatC= 6.07D-01 BMatP= 1.66D+00
 IDIUse=3 WtCom= 8.19D-01 WtEn= 1.81D-01
 Coeff-Com:  0.354D+00 0.646D+00
 Coeff-En:   0.340D+00 0.660D+00
 Coeff:      0.351D+00 0.649D+00
 Gap=     0.270 Goal=   None    Shift=    0.000
 RMSDP=1.21D-03 MaxDP=6.40D-02 DE=-2.46D-01 OVMax= 8.68D-02

 Cycle   3  Pass 1  IDiag  1:
 RMSU=  7.47D-04    CP:  9.99D-01  6.38D-01
 E= -2029.76416173231     Delta-E=       -0.302443084316 Rises=F Damp=F
 DIIS: error= 7.15D-03 at cycle   3 NSaved=   3.
 NSaved= 3 IEnMin= 3 EnMin= -2029.76416173231     IErMin= 3 ErrMin= 7.15D-03
 ErrMax= 7.15D-03  0.00D+00 EMaxC= 1.00D-01 BMatC= 1.08D-01 BMatP= 6.07D-01
 IDIUse=3 WtCom= 9.28D-01 WtEn= 7.15D-02
 Coeff-Com:  0.676D-01 0.312D+00 0.620D+00
 Coeff-En:   0.000D+00 0.105D+00 0.895D+00
 Coeff:      0.628D-01 0.298D+00 0.640D+00
 Gap=     0.276 Goal=   None    Shift=    0.000
 RMSDP=5.42D-04 MaxDP=3.95D-02 DE=-3.02D-01 OVMax= 6.74D-02

 Cycle   4  Pass 1  IDiag  1:
 RMSU=  3.02D-04    CP:  9.94D-01  7.25D-01  4.88D-01
 E= -2029.82727571263     Delta-E=       -0.063113980320 Rises=F Damp=F
 DIIS: error= 3.07D-03 at cycle   4 NSaved=   4.
 NSaved= 4 IEnMin= 4 EnMin= -2029.82727571263     IErMin= 4 ErrMin= 3.07D-03
 ErrMax= 3.07D-03  0.00D+00 EMaxC= 1.00D-01 BMatC= 1.09D-02 BMatP= 1.08D-01
 IDIUse=3 WtCom= 9.69D-01 WtEn= 3.07D-02
 Coeff-Com:  0.620D-02 0.971D-01 0.328D+00 0.568D+00
 Coeff-En:   0.000D+00 0.000D+00 0.371D-01 0.963D+00
 Coeff:      0.601D-02 0.941D-01 0.320D+00 0.580D+00
 Gap=     0.260 Goal=   None    Shift=    0.000
 RMSDP=1.64D-04 MaxDP=1.52D-02 DE=-6.31D-02 OVMax= 2.48D-02

 Cycle   5  Pass 1  IDiag  1:
 RMSU=  7.44D-05    CP:  9.95D-01  7.26D-01  6.21D-01  6.49D-01
 E= -2029.83489280984     Delta-E=       -0.007617097217 Rises=F Damp=F
 DIIS: error= 7.96D-04 at cycle   5 NSaved=   5.
 NSaved= 5 IEnMin= 5 EnMin= -2029.83489280984     IErMin= 5 ErrMin= 7.96D-04
 ErrMax= 7.96D-04  0.00D+00 EMaxC= 1.00D-01 BMatC= 6.09D-04 BMatP= 1.09D-02
 IDIUse=3 WtCom= 9.92D-01 WtEn= 7.96D-03
 Coeff-Com:  0.555D-03 0.394D-01 0.154D+00 0.323D+00 0.483D+00
 Coeff-En:   0.000D+00 0.000D+00 0.000D+00 0.000D+00 0.100D+01
 Coeff:      0.551D-03 0.391D-01 0.153D+00 0.321D+00 0.487D+00
 Gap=     0.259 Goal=   None    Shift=    0.000
 RMSDP=3.56D-05 MaxDP=3.70D-03 DE=-7.62D-03 OVMax= 7.10D-03

 Cycle   6  Pass 1  IDiag  1:
 RMSU=  2.22D-05    CP:  9.95D-01  7.27D-01  6.21D-01  6.63D-01  6.35D-01
 E= -2029.83533032788     Delta-E=       -0.000437518041 Rises=F Damp=F
 DIIS: error= 1.73D-04 at cycle   6 NSaved=   6.
 NSaved= 6 IEnMin= 6 EnMin= -2029.83533032788     IErMin= 6 ErrMin= 1.73D-04
 ErrMax= 1.73D-04  0.00D+00 EMaxC= 1.00D-01 BMatC= 2.71D-05 BMatP= 6.09D-04
 IDIUse=3 WtCom= 9.98D-01 WtEn= 1.73D-03
 Coeff-Com: -0.557D-03 0.395D-02 0.222D-01 0.563D-01 0.197D+00 0.721D+00
 Coeff-En:   0.000D+00 0.000D+00 0.000D+00 0.000D+00 0.000D+00 0.100D+01
 Coeff:     -0.556D-03 0.395D-02 0.222D-01 0.562D-01 0.197D+00 0.721D+00
 Gap=     0.259 Goal=   None    Shift=    0.000
 RMSDP=1.16D-05 MaxDP=7.33D-04 DE=-4.38D-04 OVMax= 1.13D-03

 Cycle   7  Pass 1  IDiag  1:
 RMSU=  7.60D-06    CP:  9.95D-01  7.27D-01  6.24D-01  6.79D-01  7.23D-01
                    CP:  8.98D-01
 E= -2029.83535076959     Delta-E=       -0.000020441705 Rises=F Damp=F
 DIIS: error= 3.95D-05 at cycle   7 NSaved=   7.
 NSaved= 7 IEnMin= 7 EnMin= -2029.83535076959     IErMin= 7 ErrMin= 3.95D-05
 ErrMax= 3.95D-05  0.00D+00 EMaxC= 1.00D-01 BMatC= 3.87D-06 BMatP= 2.71D-05
 IDIUse=1 WtCom= 1.00D+00 WtEn= 0.00D+00
 Coeff-Com: -0.235D-03-0.380D-02-0.114D-01-0.200D-01 0.283D-01 0.325D+00
 Coeff-Com:  0.682D+00
 Coeff:     -0.235D-03-0.380D-02-0.114D-01-0.200D-01 0.283D-01 0.325D+00
 Coeff:      0.682D+00
 Gap=     0.259 Goal=   None    Shift=    0.000
 RMSDP=3.75D-06 MaxDP=2.12D-04 DE=-2.04D-05 OVMax= 4.50D-04

 Cycle   8  Pass 1  IDiag  1:
 RMSU=  2.36D-06    CP:  9.95D-01  7.28D-01  6.25D-01  6.79D-01  7.41D-01
                    CP:  9.99D-01  8.65D-01
 E= -2029.83535410318     Delta-E=       -0.000003333588 Rises=F Damp=F
 DIIS: error= 9.79D-06 at cycle   8 NSaved=   8.
 NSaved= 8 IEnMin= 8 EnMin= -2029.83535410318     IErMin= 8 ErrMin= 9.79D-06
 ErrMax= 9.79D-06  0.00D+00 EMaxC= 1.00D-01 BMatC= 2.78D-07 BMatP= 3.87D-06
 IDIUse=1 WtCom= 1.00D+00 WtEn= 0.00D+00
 Coeff-Com: -0.501D-04-0.182D-02-0.611D-02-0.125D-01-0.518D-03 0.747D-01
 Coeff-Com:  0.275D+00 0.671D+00
 Coeff:     -0.501D-04-0.182D-02-0.611D-02-0.125D-01-0.518D-03 0.747D-01
 Coeff:      0.275D+00 0.671D+00
 Gap=     0.259 Goal=   None    Shift=    0.000
 RMSDP=1.17D-06 MaxDP=6.25D-05 DE=-3.33D-06 OVMax= 1.16D-04

 Cycle   9  Pass 1  IDiag  1:
 RMSU=  8.83D-07    CP:  9.95D-01  7.28D-01  6.25D-01  6.79D-01  7.48D-01
                    CP:  1.01D+00  9.25D-01  9.99D-01
 E= -2029.83535435334     Delta-E=       -0.000000250161 Rises=F Damp=F
 DIIS: error= 4.34D-06 at cycle   9 NSaved=   9.
 NSaved= 9 IEnMin= 9 EnMin= -2029.83535435334     IErMin= 9 ErrMin= 4.34D-06
 ErrMax= 4.34D-06  0.00D+00 EMaxC= 1.00D-01 BMatC= 3.39D-08 BMatP= 2.78D-07
 IDIUse=1 WtCom= 1.00D+00 WtEn= 0.00D+00
 Coeff-Com:  0.145D-04-0.627D-04-0.357D-03-0.155D-02-0.372D-02-0.308D-01
 Coeff-Com: -0.122D-01 0.225D+00 0.824D+00
 Coeff:      0.145D-04-0.627D-04-0.357D-03-0.155D-02-0.372D-02-0.308D-01
 Coeff:     -0.122D-01 0.225D+00 0.824D+00
 Gap=     0.259 Goal=   None    Shift=    0.000
 RMSDP=6.27D-07 MaxDP=4.87D-05 DE=-2.50D-07 OVMax= 6.97D-05

 Cycle  10  Pass 1  IDiag  1:
 RMSU=  3.01D-07    CP:  9.95D-01  7.28D-01  6.25D-01  6.79D-01  7.51D-01
                    CP:  1.02D+00  9.59D-01  1.13D+00  9.77D-01
 E= -2029.83535439812     Delta-E=       -0.000000044786 Rises=F Damp=F
 DIIS: error= 1.16D-06 at cycle  10 NSaved=  10.
 NSaved=10 IEnMin=10 EnMin= -2029.83535439812     IErMin=10 ErrMin= 1.16D-06
 ErrMax= 1.16D-06  0.00D+00 EMaxC= 1.00D-01 BMatC= 2.45D-09 BMatP= 3.39D-08
 IDIUse=1 WtCom= 1.00D+00 WtEn= 0.00D+00
 Coeff-Com:  0.992D-05 0.182D-03 0.568D-03 0.892D-03-0.292D-03-0.161D-01
 Coeff-Com: -0.309D-01-0.236D-01 0.196D+00 0.873D+00
 Coeff:      0.992D-05 0.182D-03 0.568D-03 0.892D-03-0.292D-03-0.161D-01
 Coeff:     -0.309D-01-0.236D-01 0.196D+00 0.873D+00
 Gap=     0.259 Goal=   None    Shift=    0.000
 RMSDP=2.03D-07 MaxDP=1.59D-05 DE=-4.48D-08 OVMax= 2.36D-05

 Cycle  11  Pass 1  IDiag  1:
 RMSU=  8.55D-08    CP:  9.95D-01  7.28D-01  6.25D-01  6.79D-01  7.52D-01
                    CP:  1.02D+00  9.69D-01  1.17D+00  1.11D+00  1.05D+00
 E= -2029.83535440174     Delta-E=       -0.000000003615 Rises=F Damp=F
 DIIS: error= 3.10D-07 at cycle  11 NSaved=  11.
 NSaved=11 IEnMin=11 EnMin= -2029.83535440174     IErMin=11 ErrMin= 3.10D-07
 ErrMax= 3.10D-07  0.00D+00 EMaxC= 1.00D-01 BMatC= 3.02D-10 BMatP= 2.45D-09
 IDIUse=1 WtCom= 1.00D+00 WtEn= 0.00D+00
 Coeff-Com:  0.269D-05 0.749D-04 0.244D-03 0.444D-03 0.323D-03-0.393D-02
 Coeff-Com: -0.104D-01-0.238D-01 0.193D-01 0.325D+00 0.693D+00
 Coeff:      0.269D-05 0.749D-04 0.244D-03 0.444D-03 0.323D-03-0.393D-02
 Coeff:     -0.104D-01-0.238D-01 0.193D-01 0.325D+00 0.693D+00
 Gap=     0.259 Goal=   None    Shift=    0.000
 RMSDP=4.19D-08 MaxDP=2.46D-06 DE=-3.62D-09 OVMax= 6.12D-06

 Cycle  12  Pass 1  IDiag  1:
 RMSU=  2.71D-08    CP:  9.95D-01  7.28D-01  6.25D-01  6.79D-01  7.52D-01
                    CP:  1.02D+00  9.70D-01  1.17D+00  1.12D+00  1.12D+00
                    CP:  9.42D-01
 E= -2029.83535440179     Delta-E=       -0.000000000051 Rises=F Damp=F
 DIIS: error= 1.78D-07 at cycle  12 NSaved=  12.
 NSaved=12 IEnMin=12 EnMin= -2029.83535440179     IErMin=12 ErrMin= 1.78D-07
 ErrMax= 1.78D-07  0.00D+00 EMaxC= 1.00D-01 BMatC= 5.38D-11 BMatP= 3.02D-10
 IDIUse=1 WtCom= 1.00D+00 WtEn= 0.00D+00
 Coeff-Com: -0.543D-06 0.268D-05 0.127D-04 0.429D-04 0.246D-03 0.989D-03
 Coeff-Com:  0.804D-03-0.659D-02-0.253D-01-0.143D-01 0.299D+00 0.745D+00
 Coeff:     -0.543D-06 0.268D-05 0.127D-04 0.429D-04 0.246D-03 0.989D-03
 Coeff:      0.804D-03-0.659D-02-0.253D-01-0.143D-01 0.299D+00 0.745D+00
 Gap=     0.259 Goal=   None    Shift=    0.000
 RMSDP=1.88D-08 MaxDP=1.64D-06 DE=-5.09D-11 OVMax= 2.14D-06

 Cycle  13  Pass 1  IDiag  1:
 RMSU=  9.09D-09    CP:  9.95D-01  7.28D-01  6.25D-01  6.79D-01  7.52D-01
                    CP:  1.02D+00  9.71D-01  1.18D+00  1.13D+00  1.15D+00
                    CP:  1.05D+00  8.96D-01
 E= -2029.83535440204     Delta-E=       -0.000000000245 Rises=F Damp=F
 DIIS: error= 5.69D-08 at cycle  13 NSaved=  13.
 NSaved=13 IEnMin=13 EnMin= -2029.83535440204     IErMin=13 ErrMin= 5.69D-08
 ErrMax= 5.69D-08  0.00D+00 EMaxC= 1.00D-01 BMatC= 5.23D-12 BMatP= 5.38D-11
 IDIUse=1 WtCom= 1.00D+00 WtEn= 0.00D+00
 Coeff-Com: -0.433D-06-0.454D-05-0.128D-04-0.167D-04 0.916D-04 0.701D-03
 Coeff-Com:  0.116D-02-0.114D-02-0.123D-01-0.299D-01 0.807D-01 0.329D+00
 Coeff-Com:  0.632D+00
 Coeff:     -0.433D-06-0.454D-05-0.128D-04-0.167D-04 0.916D-04 0.701D-03
 Coeff:      0.116D-02-0.114D-02-0.123D-01-0.299D-01 0.807D-01 0.329D+00
 Coeff:      0.632D+00
 Gap=     0.259 Goal=   None    Shift=    0.000
 RMSDP=4.88D-09 MaxDP=4.85D-07 DE=-2.45D-10 OVMax= 9.03D-07

 Error on total polarization charges =  0.00422
 SCF Done:  E(RCAM-B3LYP) =  -2029.83535440     A.U. after   13 cycles
            NFock= 13  Conv=0.49D-08     -V/T= 2.0077
 KE= 2.014318561659D+03 PE=-1.283024933354D+04 EE= 4.761001213731D+03
 Leave Link  502 at Tue Feb  4 08:37:20 2025, MaxMem=  5368709120 cpu:      1106.2
 (Enter /home/k0335/k033513/app/g09/l601.exe)
 Copying SCF densities to generalized density rwf, IOpCl= 0 IROHF=0.

 **********************************************************************

            Population analysis using the SCF density.

 **********************************************************************

 Alpha  occ. eigenvalues --  -24.84012 -24.83740 -24.83196 -24.82912 -24.82566
 Alpha  occ. eigenvalues --  -24.82455 -24.82437 -24.82069 -24.81761 -24.81624
 Alpha  occ. eigenvalues --  -19.31888 -19.30323 -19.25577 -19.22004 -14.45432
 Alpha  occ. eigenvalues --  -14.39229 -10.52844 -10.49229 -10.49146 -10.47789
 Alpha  occ. eigenvalues --  -10.47159 -10.44478 -10.42700 -10.39940 -10.30000
 Alpha  occ. eigenvalues --  -10.28714 -10.28474 -10.28372 -10.24632 -10.24047
 Alpha  occ. eigenvalues --  -10.23928 -10.23762  -1.41007  -1.38776  -1.38348
 Alpha  occ. eigenvalues --   -1.37317  -1.35715  -1.33744  -1.33116  -1.32125
 Alpha  occ. eigenvalues --   -1.31293  -1.31053  -1.22298  -1.19997  -1.13894
 Alpha  occ. eigenvalues --   -1.12442  -1.01971  -0.99245  -0.97720  -0.90785
 Alpha  occ. eigenvalues --   -0.88657  -0.86341  -0.85443  -0.83300  -0.79839
 Alpha  occ. eigenvalues --   -0.77900  -0.76536  -0.76096  -0.75430  -0.73729
 Alpha  occ. eigenvalues --   -0.72327  -0.71087  -0.70412  -0.69629  -0.68797
 Alpha  occ. eigenvalues --   -0.68054  -0.67347  -0.67040  -0.66357  -0.66045
 Alpha  occ. eigenvalues --   -0.65697  -0.65072  -0.63635  -0.62801  -0.62499
 Alpha  occ. eigenvalues --   -0.60923  -0.58622  -0.58013  -0.56825  -0.56651
 Alpha  occ. eigenvalues --   -0.56247  -0.55888  -0.55275  -0.54912  -0.54760
 Alpha  occ. eigenvalues --   -0.54293  -0.53983  -0.53875  -0.53572  -0.52948
 Alpha  occ. eigenvalues --   -0.52552  -0.52222  -0.52209  -0.51920  -0.51680
 Alpha  occ. eigenvalues --   -0.50853  -0.50647  -0.50471  -0.50214  -0.49691
 Alpha  occ. eigenvalues --   -0.49524  -0.49043  -0.48820  -0.48562  -0.48209
 Alpha  occ. eigenvalues --   -0.47326  -0.46271  -0.45725  -0.45601  -0.45338
 Alpha  occ. eigenvalues --   -0.44761  -0.44114  -0.43543  -0.43205  -0.42768
 Alpha  occ. eigenvalues --   -0.42097  -0.41272  -0.40704  -0.39830  -0.39591
 Alpha  occ. eigenvalues --   -0.37949  -0.37802  -0.37376  -0.34844  -0.33509
 Alpha  occ. eigenvalues --   -0.26118
 Alpha virt. eigenvalues --   -0.00181   0.01908   0.04755   0.08772   0.10432
 Alpha virt. eigenvalues --    0.11808   0.12124   0.13260   0.14034   0.14977
 Alpha virt. eigenvalues --    0.15468   0.16269   0.16435   0.17932   0.18591
 Alpha virt. eigenvalues --    0.18925   0.19542   0.20067   0.20247   0.20600
 Alpha virt. eigenvalues --    0.21371   0.22676   0.23445   0.24032   0.24119
 Alpha virt. eigenvalues --    0.24284   0.24703   0.24843   0.25233   0.26130
 Alpha virt. eigenvalues --    0.26480   0.26767   0.27414   0.28037   0.28507
 Alpha virt. eigenvalues --    0.28609   0.28690   0.28866   0.29825   0.30339
 Alpha virt. eigenvalues --    0.30995   0.31954   0.32088   0.32499   0.33082
 Alpha virt. eigenvalues --    0.33597   0.34615   0.36333   0.36980   0.37433
 Alpha virt. eigenvalues --    0.38336   0.40551   0.41182   0.44213   0.47831
 Alpha virt. eigenvalues --    0.50126   0.51143   0.52812   0.53973   0.54580
 Alpha virt. eigenvalues --    0.54910   0.55716   0.55774   0.56830   0.57644
 Alpha virt. eigenvalues --    0.58387   0.59213   0.59846   0.60191   0.60403
 Alpha virt. eigenvalues --    0.60843   0.61787   0.62744   0.63107   0.63821
 Alpha virt. eigenvalues --    0.64666   0.65668   0.66852   0.67982   0.68704
 Alpha virt. eigenvalues --    0.69877   0.70268   0.70904   0.71638   0.72245
 Alpha virt. eigenvalues --    0.73269   0.73446   0.73544   0.74083   0.74809
 Alpha virt. eigenvalues --    0.75549   0.76766   0.77027   0.78243   0.79389
 Alpha virt. eigenvalues --    0.80047   0.81507   0.82842   0.84382   0.85393
 Alpha virt. eigenvalues --    0.85914   0.86863   0.87469   0.87960   0.89567
 Alpha virt. eigenvalues --    0.89777   0.90680   0.91194   0.91746   0.92903
 Alpha virt. eigenvalues --    0.93311   0.93833   0.94297   0.94892   0.96096
 Alpha virt. eigenvalues --    0.96425   0.96767   0.97163   0.97738   0.97842
 Alpha virt. eigenvalues --    0.98168   0.99075   0.99653   1.00214   1.01242
 Alpha virt. eigenvalues --    1.01713   1.02998   1.03366   1.04076   1.04614
 Alpha virt. eigenvalues --    1.05450   1.05966   1.06680   1.07844   1.08657
 Alpha virt. eigenvalues --    1.08933   1.09479   1.09642   1.10188   1.10518
 Alpha virt. eigenvalues --    1.11973   1.12737   1.14005   1.14809   1.15356
 Alpha virt. eigenvalues --    1.15916   1.16431   1.17535   1.18853   1.19181
 Alpha virt. eigenvalues --    1.22360   1.22806   1.23752   1.24699   1.24996
 Alpha virt. eigenvalues --    1.27601   1.28194   1.28815   1.30566   1.31062
 Alpha virt. eigenvalues --    1.31700   1.32853   1.33899   1.34228   1.35357
 Alpha virt. eigenvalues --    1.35932   1.36189   1.36779   1.37177   1.38160
 Alpha virt. eigenvalues --    1.38947   1.39706   1.40069   1.40578   1.41487
 Alpha virt. eigenvalues --    1.42103   1.42559   1.43515   1.44854   1.45906
 Alpha virt. eigenvalues --    1.46340   1.46865   1.47920   1.48516   1.48866
 Alpha virt. eigenvalues --    1.49558   1.50141   1.50737   1.52114   1.52555
 Alpha virt. eigenvalues --    1.54142   1.55501   1.56126   1.57683   1.58368
 Alpha virt. eigenvalues --    1.59004   1.59979   1.60406   1.61464   1.62136
 Alpha virt. eigenvalues --    1.62175   1.63730   1.64158   1.65739   1.66279
 Alpha virt. eigenvalues --    1.66728   1.67726   1.68349   1.69099   1.70893
 Alpha virt. eigenvalues --    1.71614   1.72181   1.72365   1.73507   1.74080
 Alpha virt. eigenvalues --    1.75315   1.76244   1.77261   1.78544   1.79604
 Alpha virt. eigenvalues --    1.80496   1.80964   1.81441   1.83285   1.83398
 Alpha virt. eigenvalues --    1.83899   1.84029   1.85960   1.86251   1.86591
 Alpha virt. eigenvalues --    1.87603   1.87889   1.88673   1.88735   1.89802
 Alpha virt. eigenvalues --    1.90218   1.90602   1.90764   1.91931   1.92460
 Alpha virt. eigenvalues --    1.92781   1.93362   1.93852   1.94385   1.95314
 Alpha virt. eigenvalues --    1.95868   1.96629   1.97506   1.98523   1.98751
 Alpha virt. eigenvalues --    1.99325   1.99963   2.00965   2.01380   2.02265
 Alpha virt. eigenvalues --    2.02920   2.03309   2.04382   2.05732   2.06416
 Alpha virt. eigenvalues --    2.06782   2.07142   2.07243   2.07454   2.07770
 Alpha virt. eigenvalues --    2.08375   2.09676   2.10155   2.10431   2.11116
 Alpha virt. eigenvalues --    2.11976   2.12308   2.12525   2.13033   2.13795
 Alpha virt. eigenvalues --    2.14336   2.15094   2.15331   2.15598   2.16311
 Alpha virt. eigenvalues --    2.16751   2.16945   2.17706   2.18425   2.18751
 Alpha virt. eigenvalues --    2.19679   2.19827   2.20425   2.21560   2.21645
 Alpha virt. eigenvalues --    2.22049   2.23396   2.23629   2.24075   2.26012
 Alpha virt. eigenvalues --    2.26588   2.27797   2.28116   2.28522   2.29740
 Alpha virt. eigenvalues --    2.30453   2.31307   2.32267   2.32845   2.33393
 Alpha virt. eigenvalues --    2.35745   2.36856   2.37575   2.38886   2.39917
 Alpha virt. eigenvalues --    2.40285   2.40732   2.40796   2.41681   2.42283
 Alpha virt. eigenvalues --    2.43230   2.43299   2.43961   2.44636   2.45027
 Alpha virt. eigenvalues --    2.45402   2.46694   2.47886   2.48426   2.48789
 Alpha virt. eigenvalues --    2.49477   2.51838   2.52096   2.54130   2.54368
 Alpha virt. eigenvalues --    2.54936   2.56715   2.58471   2.58798   2.59981
 Alpha virt. eigenvalues --    2.60786   2.63146   2.64016   2.64556   2.66494
 Alpha virt. eigenvalues --    2.67083   2.68535   2.70018   2.70806   2.71954
 Alpha virt. eigenvalues --    2.72341   2.74353   2.74950   2.75484   2.76039
 Alpha virt. eigenvalues --    2.77487   2.78633   2.78890   2.79554   2.80250
 Alpha virt. eigenvalues --    2.81330   2.81529   2.82679   2.83183   2.83811
 Alpha virt. eigenvalues --    2.84254   2.84344   2.84995   2.85720   2.86264
 Alpha virt. eigenvalues --    2.88700   2.89642   2.90642   2.93649   2.93932
 Alpha virt. eigenvalues --    2.94143   2.95075   2.96366   2.96533   2.97212
 Alpha virt. eigenvalues --    2.98011   2.99025   2.99181   2.99501   3.00459
 Alpha virt. eigenvalues --    3.01494   3.01922   3.03085   3.03623   3.04188
 Alpha virt. eigenvalues --    3.05991   3.09218   3.10153   3.10629   3.12279
 Alpha virt. eigenvalues --    3.13518   3.15560   3.17269   3.18071   3.20345
 Alpha virt. eigenvalues --    3.21295   3.22082   3.26825   3.27090   3.28062
 Alpha virt. eigenvalues --    3.28938   3.31246   3.31810   3.32650   3.33848
 Alpha virt. eigenvalues --    3.35757   3.36627   3.41917   3.42468   3.45040
 Alpha virt. eigenvalues --    3.48217   3.48592   3.51395   3.52436   3.54627
 Alpha virt. eigenvalues --    3.57261   3.57883   3.57956   3.59136   3.61262
 Alpha virt. eigenvalues --    3.62457   3.64822   4.00824   4.10738   4.19399
 Alpha virt. eigenvalues --    4.22289   4.27192   4.30704   4.36214   4.41384
 Alpha virt. eigenvalues --    4.45251   4.45532   4.47609   4.49734   4.58535
 Alpha virt. eigenvalues --    4.59893   4.61832   4.61906   4.74514   4.76889
 Alpha virt. eigenvalues --    4.79320   4.80854   4.81664   4.94278   4.98280
 Alpha virt. eigenvalues --    5.10155   5.29250   5.34196   5.41608   5.71825
 Alpha virt. eigenvalues --    5.89413   6.30544   6.47948   7.15659
          Condensed to atoms (all electrons):
 Mulliken charges:
               1
     1  F   -0.248357
     2  C    0.758412
     3  F   -0.246217
     4  C    0.548351
     5  F   -0.248226
     6  F   -0.255660
     7  C    0.136288
     8  F   -0.286683
     9  C    0.619935
    10  F   -0.272402
    11  C    0.517037
    12  O   -0.470881
    13  O   -0.437645
    14  F   -0.268800
    15  C    0.507216
    16  F   -0.263139
    17  C    0.583448
    18  F   -0.267522
    19  C    0.527693
    20  N   -0.537396
    21  C   -0.056083
    22  C   -0.055793
    23  N   -0.437055
    24  C    0.065729
    25  C   -0.322219
    26  C   -0.295970
    27  C    0.093317
    28  C   -0.316910
    29  C   -0.342487
    30  O   -0.499670
    31  F   -0.285876
    32  O   -0.513202
    33  H    0.362207
    34  H    0.286867
    35  H    0.119391
    36  H    0.146840
    37  H    0.095503
    38  H    0.120819
    39  H    0.091921
    40  H    0.105498
    41  H    0.109643
    42  H    0.103370
    43  H    0.103485
    44  H    0.089445
    45  H    0.104605
    46  H    0.078804
    47  H    0.100090
    48  H    0.112582
    49  H    0.100735
    50  H    0.110313
    51  H    0.105048
    52  H    0.123599
 Sum of Mulliken charges =   0.00000
 Mulliken charges with hydrogens summed into heavy atoms:
               1
     1  F   -0.248357
     2  C    0.758412
     3  F   -0.246217
     4  C    0.548351
     5  F   -0.248226
     6  F   -0.255660
     7  C    0.136288
     8  F   -0.286683
     9  C    0.619935
    10  F   -0.272402
    11  C    0.517037
    12  O   -0.108674
    13  O   -0.437645
    14  F   -0.268800
    15  C    0.507216
    16  F   -0.263139
    17  C    0.583448
    18  F   -0.267522
    19  C    0.527693
    20  N   -0.250529
    21  C    0.210148
    22  C    0.160529
    23  N   -0.437055
    24  C    0.157651
    25  C   -0.003707
    26  C    0.001566
    27  C    0.172122
    28  C   -0.003503
    29  C   -0.003527
    30  O   -0.499670
    31  F   -0.285876
    32  O   -0.513202
 Electronic spatial extent (au):  <R**2>=          21157.6741
 Charge=              0.0000 electrons
 Dipole moment (field-independent basis, Debye):
    X=              0.2345    Y=             -1.3652    Z=             -4.6335  Tot=              4.8361
 Quadrupole moment (field-independent basis, Debye-Ang):
   XX=           -162.8358   YY=           -184.5909   ZZ=           -188.2786
   XY=            -14.9620   XZ=            -11.5822   YZ=             -2.4775
 Traceless Quadrupole moment (field-independent basis, Debye-Ang):
   XX=             15.7327   YY=             -6.0225   ZZ=             -9.7102
   XY=            -14.9620   XZ=            -11.5822   YZ=             -2.4775
 Octapole moment (field-independent basis, Debye-Ang**2):
  XXX=           -626.6260  YYY=            -43.5680  ZZZ=           -113.7069  XYY=           -274.5343
  XXY=            -93.4209  XXZ=           -105.0380  XZZ=           -320.9205  YZZ=            -17.9021
  YYZ=            -25.0269  XYZ=            -12.3466
 Hexadecapole moment (field-independent basis, Debye-Ang**3):
 XXXX=         -18951.0783 YYYY=          -1495.3911 ZZZZ=          -2232.9319 XXXY=          -1436.1831
 XXXZ=          -1511.3359 YYYX=           -520.4683 YYYZ=            189.4162 ZZZX=           -891.2856
 ZZZY=            186.4050 XXYY=          -3756.5086 XXZZ=          -4114.0995 YYZZ=           -612.8498
 XXYZ=            -59.4575 YYXZ=           -257.2860 ZZXY=           -191.7775
 N-N= 4.025094203746D+03 E-N=-1.283024932180D+04  KE= 2.014318561659D+03
 No NMR shielding tensors so no spin-rotation constants.
 Leave Link  601 at Tue Feb  4 08:37:21 2025, MaxMem=  5368709120 cpu:         3.8
 (Enter /home/k0335/k033513/app/g09/l701.exe)
 Compute integral first derivatives.
 ... and contract with generalized density number  0.
 D1PCM: PCM CHGder 1st derivatives, ID1Alg=3 FixD1E=F DoIter=F DoCFld=F I1PDM=0.
 GePol: Maximum number of non-zero 1st derivatives   =     203
 Leave Link  701 at Tue Feb  4 08:37:22 2025, MaxMem=  5368709120 cpu:        34.8
 (Enter /home/k0335/k033513/app/g09/l702.exe)
 L702 exits ... SP integral derivatives will be done elsewhere.
 Leave Link  702 at Tue Feb  4 08:37:22 2025, MaxMem=  5368709120 cpu:         0.1
 (Enter /home/k0335/k033513/app/g09/l703.exe)
 Compute integral first derivatives, UseDBF=F ICtDFT=           0.
 Integral derivatives from FoFJK, PRISM(SPDF).
 Calling FoFJK, ICntrl=      2127 FMM=F ISym2X=0 I1Cent= 0 IOpClX= 0 NMat=1 NMatS=1 NMatT=0.
 FoFJK:  IHMeth= 1 ICntrl=    2127 DoSepK=T KAlg= 0 I1Cent=   0 FoldK=F
 IRaf=         1 NMat=   1 IRICut=       1 DoRegI=T DoRafI=F ISym2E= 0.
 FoFCou: FMM=F IPFlag=           0 FMFlag=      100000 FMFlg1=         800
         NFxFlg=           0 DoJE=F BraDBF=F KetDBF=F FulRan=T
         wScrn=  0.000000 ICntrl=    2527 IOpCl=  0 I1Cent=           0 NGrid=           0
         NMat0=    1 NMatS0=      1 NMatT0=    0 NMatD0=    1 NMtDS0=    0 NMtDT0=    0
 Symmetry not used in FoFCou.
 Leave Link  703 at Tue Feb  4 08:37:35 2025, MaxMem=  5368709120 cpu:       285.9
 (Enter /home/k0335/k033513/app/g09/l716.exe)
 Dipole        = 9.22697856D-02-5.37099492D-01-1.82294266D+00
 -------------------------------------------------------------------
 Center     Atomic                   Forces (Hartrees/Bohr)
 Number     Number              X              Y              Z
 -------------------------------------------------------------------
      1        9           0.003849497   -0.003708066    0.011705080
      2        6          -0.037678998    0.037035482   -0.016678061
      3        9           0.004761317   -0.011484181   -0.007318038
      4        6           0.015754985   -0.006027033   -0.017527349
      5        9           0.003969777    0.011843863   -0.005016987
      6        9          -0.005409898    0.008788566    0.002939093
      7        6           0.000167107    0.004556063    0.008375074
      8        9          -0.002206948   -0.011200896   -0.001296605
      9        6          -0.009862681   -0.021856959    0.022187771
     10        9           0.015468954    0.007093002   -0.008279385
     11        6           0.059888137   -0.000814484    0.003212647
     12        8          -0.010283521    0.003118073    0.010401330
     13        8          -0.037168575   -0.009122957   -0.006524998
     14        9           0.019515315    0.005862096   -0.004097606
     15        6          -0.017761087    0.027855981    0.013852570
     16        9          -0.001164174   -0.012078745   -0.007424238
     17        6          -0.002556994   -0.009672784    0.000984303
     18        9          -0.016715343    0.016250324   -0.001091725
     19        6          -0.046909929    0.002483114   -0.010263536
     20        7           0.021813051   -0.006363541    0.024537905
     21        6          -0.000906965   -0.000008787    0.000693173
     22        6          -0.006997363   -0.005889887   -0.000838576
     23        7           0.017401655    0.001133759    0.003541603
     24        6          -0.009483055   -0.005039539   -0.002589304
     25        6           0.000607084    0.002474441    0.001393505
     26        6          -0.002646730   -0.001016413   -0.004666224
     27        6          -0.005148941   -0.005753416    0.006835878
     28        6          -0.003174519    0.003470574   -0.003581062
     29        6           0.008192077    0.001279098   -0.003784822
     30        8           0.022262823   -0.005341607   -0.015745368
     31        9          -0.011671199    0.005166167    0.004497066
     32        8           0.039901277   -0.035729277   -0.001461842
     33        1          -0.011140771   -0.000200916   -0.001589146
     34        1           0.000941634    0.003724762    0.002729704
     35        1          -0.002421004   -0.000027273    0.002411294
     36        1           0.003230166   -0.003010038   -0.002256261
     37        1          -0.003250493    0.003484328   -0.002134970
     38        1          -0.002320353    0.006185666    0.002374194
     39        1           0.003026327   -0.000743543    0.007328595
     40        1          -0.000173379   -0.001444535    0.000059225
     41        1           0.001067710   -0.000905856    0.000072241
     42        1           0.000140413    0.000834462    0.000891303
     43        1           0.000959554   -0.000069400    0.001067585
     44        1          -0.000185489    0.000738349   -0.000011463
     45        1           0.000791635    0.002200050    0.001934276
     46        1          -0.001589458    0.004957901    0.000461473
     47        1          -0.000934302   -0.001844716   -0.001644765
     48        1           0.002161896    0.001133100   -0.000738983
     49        1           0.004097846   -0.000261304   -0.002176272
     50        1          -0.000018951   -0.000022533   -0.001094920
     51        1          -0.000912294    0.000201289   -0.005198081
     52        1           0.000723179   -0.002231827    0.000543700
 -------------------------------------------------------------------
 Cartesian Forces:  Max     0.059888137 RMS     0.011970833
 Leave Link  716 at Tue Feb  4 08:37:35 2025, MaxMem=  5368709120 cpu:         0.2
 (Enter /home/k0335/k033513/app/g09/l103.exe)

 GradGradGradGradGradGradGradGradGradGradGradGradGradGradGradGradGradGrad
 Berny optimization.
 FormGI is forming the generalized inverse of G from B-inverse, IUseBI=4.
 Internal  Forces:  Max     0.045950005 RMS     0.008613726
 Search for a local minimum.
 Step number   1 out of a maximum of  298
 All quantities printed in internal units (Hartrees-Bohrs-Radians)
 RMS Force = .86137D-02 SwitMx=.10000D-02 MixMth= 1
 Mixed Optimization -- RFO/linear search
 Second derivative matrix not updated -- first step.
 ITU=  0
     Eigenvalues ---    0.00230   0.00230   0.00237   0.00242   0.00269
     Eigenvalues ---    0.00318   0.00331   0.00408   0.00573   0.00611
     Eigenvalues ---    0.00665   0.00746   0.00772   0.00832   0.00873
     Eigenvalues ---    0.00950   0.00968   0.01506   0.01675   0.01840
     Eigenvalues ---    0.02334   0.03284   0.03467   0.03732   0.03993
     Eigenvalues ---    0.04109   0.04235   0.05042   0.05111   0.05225
     Eigenvalues ---    0.05225   0.05242   0.05250   0.05257   0.05287
     Eigenvalues ---    0.05289   0.05345   0.05448   0.05465   0.05573
     Eigenvalues ---    0.05598   0.05807   0.05897   0.06323   0.06391
     Eigenvalues ---    0.06599   0.06983   0.07733   0.08049   0.08053
     Eigenvalues ---    0.08847   0.09476   0.09902   0.10135   0.10171
[...]
     10          9           0        5.084377   -1.077954    2.480712
     11          6           0        6.995863   -0.841798    1.160677
     12          8           0        7.424463   -1.038353   -0.083055
     13          8           0        7.675937   -0.660837    2.129032
     14          9           0        5.003771   -1.891518    0.440849
     15          6           0        3.289482    0.644142    0.917552
     16          9           0        3.047237    1.119156    2.149810
     17          6           0        2.352428   -0.552527    0.671437
     18          9           0        2.580201   -1.499756    1.597003
     19          6           0        0.861531   -0.152657    0.732905
     20          7           0        0.246286   -0.107963   -0.457793
     21          6           0       -1.164525    0.232598   -0.564587
     22          6           0       -2.071080   -0.990706   -0.333939
     23          7           0       -3.499372   -0.726930   -0.316703
     24          6           0       -4.036247   -0.415264   -1.659125
     25          6           0       -4.350828    1.062852   -1.924076
     26          6           0       -5.215120   -1.318877   -2.036862
     27          6           0       -4.004272    0.053099    0.827215
     28          6           0       -5.507240   -0.161386    1.023684
     29          6           0       -3.296051   -0.325081    2.130524
     30          8           0        0.359662    0.096510    1.813935
     31          9           0        2.661020   -1.059712   -0.557578
     32          8           0        2.938907    1.623406   -0.034324
     33          1           0        8.394838   -0.983152   -0.082685
     34          1           0        0.763287   -0.386304   -1.277304
     35          1           0       -1.329006    0.664932   -1.553995
     36          1           0       -1.374030    1.004053    0.179196
     37          1           0       -1.868772   -1.727961   -1.118491
     38          1           0       -1.769210   -1.459712    0.603454
     39          1           0       -3.233167   -0.679673   -2.356125
     40          1           0       -4.606940    1.198664   -2.978517
     41          1           0       -5.197955    1.422928   -1.335870
     42          1           0       -3.494439    1.705697   -1.703481
     43          1           0       -6.114085   -1.095953   -1.459932
     44          1           0       -5.461409   -1.197419   -3.096623
     45          1           0       -4.954440   -2.364914   -1.860873
     46          1           0       -3.841395    1.133740    0.670916
     47          1           0       -6.103319    0.199541    0.185644
     48          1           0       -5.718765   -1.225797    1.159901
     49          1           0       -5.842573    0.375484    1.915208
     50          1           0       -3.396340   -1.398109    2.322666
     51          1           0       -3.769423    0.208435    2.958386
     52          1           0       -2.235192   -0.068434    2.142629
 ---------------------------------------------------------------------
 Rotational constants (GHZ):      0.3136055      0.0619570      0.0583429
 Leave Link  202 at Tue Feb  4 08:57:51 2025, MaxMem=  5368709120 cpu:         0.0
 (Enter /home/k0335/k033513/app/g09/l601.exe)
 Copying SCF densities to generalized density rwf, IOpCl= 0 IROHF=0.

 **********************************************************************

            Population analysis using the SCF density.

 **********************************************************************

 Alpha  occ. eigenvalues --  -24.83151 -24.83087 -24.82712 -24.82469 -24.82303
 Alpha  occ. eigenvalues --  -24.82262 -24.82238 -24.81781 -24.81672 -24.81525
 Alpha  occ. eigenvalues --  -19.31458 -19.30768 -19.25339 -19.21297 -14.45651
 Alpha  occ. eigenvalues --  -14.38777 -10.52221 -10.48347 -10.48053 -10.46689
 Alpha  occ. eigenvalues --  -10.46644 -10.43746 -10.42184 -10.39115 -10.29962
 Alpha  occ. eigenvalues --  -10.28618 -10.28256 -10.28098 -10.24629 -10.23866
 Alpha  occ. eigenvalues --  -10.23864 -10.23625  -1.40744  -1.38534  -1.38091
 Alpha  occ. eigenvalues --   -1.37468  -1.35717  -1.33786  -1.32941  -1.31913
 Alpha  occ. eigenvalues --   -1.31622  -1.31341  -1.22989  -1.21625  -1.14360
 Alpha  occ. eigenvalues --   -1.14029  -1.03079  -0.99819  -0.94715  -0.90383
 Alpha  occ. eigenvalues --   -0.86938  -0.86450  -0.85743  -0.82921  -0.79935
 Alpha  occ. eigenvalues --   -0.78163  -0.76277  -0.75910  -0.75464  -0.73567
 Alpha  occ. eigenvalues --   -0.72324  -0.70855  -0.70186  -0.68939  -0.68489
 Alpha  occ. eigenvalues --   -0.67933  -0.67706  -0.67172  -0.66848  -0.66526
 Alpha  occ. eigenvalues --   -0.65870  -0.65088  -0.63979  -0.62855  -0.62527
 Alpha  occ. eigenvalues --   -0.60794  -0.58674  -0.57384  -0.57209  -0.56114
 Alpha  occ. eigenvalues --   -0.55421  -0.55294  -0.55090  -0.54913  -0.54659
 Alpha  occ. eigenvalues --   -0.54491  -0.54147  -0.53749  -0.53411  -0.52733
 Alpha  occ. eigenvalues --   -0.52555  -0.52391  -0.52031  -0.51844  -0.51688
 Alpha  occ. eigenvalues --   -0.50944  -0.50879  -0.50371  -0.50026  -0.49841
 Alpha  occ. eigenvalues --   -0.49378  -0.48914  -0.48577  -0.48344  -0.48248
 Alpha  occ. eigenvalues --   -0.47443  -0.46400  -0.45702  -0.45316  -0.44791
 Alpha  occ. eigenvalues --   -0.44621  -0.44129  -0.43732  -0.42789  -0.42297
 Alpha  occ. eigenvalues --   -0.42052  -0.41772  -0.40689  -0.39953  -0.39430
 Alpha  occ. eigenvalues --   -0.38180  -0.37659  -0.37587  -0.34364  -0.33848
 Alpha  occ. eigenvalues --   -0.25739
 Alpha virt. eigenvalues --    0.01096   0.03450   0.06723   0.10377   0.11889
 Alpha virt. eigenvalues --    0.12344   0.12730   0.13572   0.14670   0.15458
 Alpha virt. eigenvalues --    0.16416   0.16559   0.16885   0.18359   0.19005
 Alpha virt. eigenvalues --    0.19551   0.20175   0.20520   0.20782   0.21067
 Alpha virt. eigenvalues --    0.21750   0.23153   0.23574   0.24337   0.24724
 Alpha virt. eigenvalues --    0.24802   0.24971   0.25271   0.26001   0.26327
 Alpha virt. eigenvalues --    0.26659   0.27653   0.28374   0.28777   0.28911
 Alpha virt. eigenvalues --    0.29061   0.29329   0.29650   0.30357   0.31213
 Alpha virt. eigenvalues --    0.31556   0.32354   0.32688   0.33099   0.33709
 Alpha virt. eigenvalues --    0.34659   0.35561   0.37118   0.37338   0.37528
 Alpha virt. eigenvalues --    0.38181   0.40684   0.43355   0.45818   0.48704
 Alpha virt. eigenvalues --    0.50285   0.50896   0.52340   0.53639   0.54463
 Alpha virt. eigenvalues --    0.54800   0.55520   0.56062   0.56852   0.57503
 Alpha virt. eigenvalues --    0.58627   0.58837   0.59336   0.60312   0.60457
 Alpha virt. eigenvalues --    0.60713   0.62209   0.62647   0.62926   0.63504
 Alpha virt. eigenvalues --    0.64390   0.66199   0.67129   0.68374   0.69522
 Alpha virt. eigenvalues --    0.70515   0.71214   0.71594   0.72287   0.73038
 Alpha virt. eigenvalues --    0.73147   0.73653   0.73934   0.74318   0.74981
 Alpha virt. eigenvalues --    0.76104   0.76566   0.77083   0.78278   0.79690
 Alpha virt. eigenvalues --    0.79784   0.81908   0.82872   0.84245   0.85780
 Alpha virt. eigenvalues --    0.85972   0.86882   0.87277   0.88061   0.88682
 Alpha virt. eigenvalues --    0.89958   0.90885   0.91050   0.91945   0.92868
 Alpha virt. eigenvalues --    0.93688   0.93893   0.93974   0.94950   0.95515
 Alpha virt. eigenvalues --    0.96733   0.96840   0.97446   0.97618   0.97805
 Alpha virt. eigenvalues --    0.98343   0.98727   1.00052   1.00554   1.01131
 Alpha virt. eigenvalues --    1.01706   1.03565   1.04119   1.04362   1.04658
 Alpha virt. eigenvalues --    1.06233   1.06536   1.07089   1.07899   1.08390
 Alpha virt. eigenvalues --    1.08494   1.09049   1.10392   1.10991   1.11264
 Alpha virt. eigenvalues --    1.11666   1.12431   1.13600   1.14902   1.15050
 Alpha virt. eigenvalues --    1.16180   1.16318   1.17736   1.18916   1.19526
 Alpha virt. eigenvalues --    1.21255   1.22731   1.23628   1.24846   1.26932
 Alpha virt. eigenvalues --    1.27923   1.30816   1.31129   1.32061   1.32594
 Alpha virt. eigenvalues --    1.33484   1.33990   1.35350   1.35648   1.36426
 Alpha virt. eigenvalues --    1.36747   1.37275   1.37569   1.38272   1.39213
 Alpha virt. eigenvalues --    1.39693   1.40010   1.41107   1.42105   1.42322
 Alpha virt. eigenvalues --    1.42980   1.44211   1.44332   1.45025   1.45511
 Alpha virt. eigenvalues --    1.46303   1.47012   1.47665   1.48328   1.49242
 Alpha virt. eigenvalues --    1.49403   1.51049   1.51248   1.51954   1.52886
 Alpha virt. eigenvalues --    1.53565   1.54635   1.56114   1.57580   1.58381
 Alpha virt. eigenvalues --    1.58662   1.59691   1.59749   1.60872   1.61269
 Alpha virt. eigenvalues --    1.61855   1.63722   1.63977   1.65138   1.66549
 Alpha virt. eigenvalues --    1.67321   1.67886   1.68107   1.69225   1.69932
 Alpha virt. eigenvalues --    1.70375   1.72259   1.72789   1.73044   1.73443
 Alpha virt. eigenvalues --    1.74964   1.75564   1.76203   1.77133   1.78565
 Alpha virt. eigenvalues --    1.80183   1.80608   1.80802   1.81346   1.83762
 Alpha virt. eigenvalues --    1.84281   1.84715   1.84858   1.86257   1.86874
 Alpha virt. eigenvalues --    1.87099   1.87533   1.88007   1.89192   1.89393
 Alpha virt. eigenvalues --    1.89724   1.90464   1.90914   1.91549   1.92435
 Alpha virt. eigenvalues --    1.92980   1.93265   1.94232   1.94765   1.95185
 Alpha virt. eigenvalues --    1.96090   1.96825   1.97302   1.98082   1.99270
 Alpha virt. eigenvalues --    1.99816   2.00207   2.00359   2.01112   2.01390
 Alpha virt. eigenvalues --    2.03015   2.03668   2.04458   2.04839   2.05374
 Alpha virt. eigenvalues --    2.05745   2.06747   2.07393   2.07900   2.08237
 Alpha virt. eigenvalues --    2.08992   2.09860   2.10712   2.11840   2.12106
 Alpha virt. eigenvalues --    2.12474   2.12535   2.12888   2.13222   2.14087
 Alpha virt. eigenvalues --    2.14503   2.14931   2.15927   2.16112   2.16196
 Alpha virt. eigenvalues --    2.17429   2.18097   2.18437   2.18783   2.19035
 Alpha virt. eigenvalues --    2.19839   2.19915   2.20811   2.21374   2.21981
 Alpha virt. eigenvalues --    2.22940   2.23683   2.24149   2.24538   2.25164
 Alpha virt. eigenvalues --    2.25526   2.27908   2.29167   2.29486   2.29705
 Alpha virt. eigenvalues --    2.30772   2.32612   2.32811   2.33963   2.34870
 Alpha virt. eigenvalues --    2.36080   2.36751   2.37504   2.39904   2.40536
 Alpha virt. eigenvalues --    2.40965   2.41548   2.42500   2.42997   2.43864
 Alpha virt. eigenvalues --    2.44469   2.44605   2.44707   2.45436   2.46610
 Alpha virt. eigenvalues --    2.48061   2.48199   2.48814   2.49038   2.49716
 Alpha virt. eigenvalues --    2.50353   2.51830   2.53348   2.53653   2.55511
 Alpha virt. eigenvalues --    2.57603   2.58084   2.59763   2.59883   2.60995
 Alpha virt. eigenvalues --    2.63872   2.64405   2.65410   2.65668   2.67697
 Alpha virt. eigenvalues --    2.68149   2.69173   2.70750   2.72044   2.73853
 Alpha virt. eigenvalues --    2.74381   2.75142   2.75961   2.76133   2.76649
 Alpha virt. eigenvalues --    2.77045   2.78422   2.78770   2.79226   2.80109
 Alpha virt. eigenvalues --    2.80927   2.81526   2.82114   2.82825   2.83558
 Alpha virt. eigenvalues --    2.84246   2.85335   2.86138   2.86483   2.87845
 Alpha virt. eigenvalues --    2.89733   2.91103   2.92794   2.94705   2.95232
 Alpha virt. eigenvalues --    2.96742   2.97223   2.97678   2.97865   2.98808
 Alpha virt. eigenvalues --    2.99023   2.99392   3.00178   3.00705   3.01425
 Alpha virt. eigenvalues --    3.02468   3.03950   3.04553   3.04897   3.05655
 Alpha virt. eigenvalues --    3.07468   3.10583   3.11288   3.11976   3.13948
 Alpha virt. eigenvalues --    3.14408   3.14796   3.16500   3.17859   3.19025
 Alpha virt. eigenvalues --    3.22024   3.23302   3.26605   3.27849   3.28003
 Alpha virt. eigenvalues --    3.29006   3.30159   3.32246   3.32626   3.33634
 Alpha virt. eigenvalues --    3.35629   3.36114   3.41409   3.42984   3.46006
 Alpha virt. eigenvalues --    3.49552   3.51225   3.51428   3.52644   3.55190
 Alpha virt. eigenvalues --    3.57367   3.57899   3.58554   3.58959   3.62427
 Alpha virt. eigenvalues --    3.63222   3.66370   4.06302   4.13361   4.14142
 Alpha virt. eigenvalues --    4.20541   4.25598   4.30424   4.37673   4.40427
 Alpha virt. eigenvalues --    4.44517   4.45679   4.47971   4.50643   4.58483
 Alpha virt. eigenvalues --    4.59180   4.62548   4.62957   4.73705   4.75164
 Alpha virt. eigenvalues --    4.78772   4.80107   4.83208   4.84512   4.92707
 Alpha virt. eigenvalues --    5.05332   5.31168   5.45641   5.51524   5.66853
 Alpha virt. eigenvalues --    5.85369   5.96396   6.43370   6.71149
          Condensed to atoms (all electrons):
 Mulliken charges:
               1
     1  F   -0.248232
     2  C    0.755419
     3  F   -0.240744
     4  C    0.534515
     5  F   -0.254066
     6  F   -0.260262
     7  C    0.141349
     8  F   -0.295063
     9  C    0.596849
    10  F   -0.262630
    11  C    0.519767
    12  O   -0.467671
    13  O   -0.420702
    14  F   -0.266865
    15  C    0.508260
    16  F   -0.249977
    17  C    0.572961
    18  F   -0.264444
    19  C    0.545689
    20  N   -0.532659
    21  C   -0.059187
    22  C   -0.053599
    23  N   -0.430748
    24  C    0.065943
    25  C   -0.321078
    26  C   -0.296194
    27  C    0.091517
    28  C   -0.311526
    29  C   -0.348136
    30  O   -0.510481
    31  F   -0.295280
    32  O   -0.510932
    33  H    0.359315
    34  H    0.291945
    35  H    0.117517
    36  H    0.143988
    37  H    0.098332
    38  H    0.124093
    39  H    0.087916
    40  H    0.104405
    41  H    0.110013
    42  H    0.102924
    43  H    0.103645
    44  H    0.092372
    45  H    0.105966
    46  H    0.072979
    47  H    0.100501
    48  H    0.109589
    49  H    0.099492
    50  H    0.109733
    51  H    0.101889
    52  H    0.131593
 Sum of Mulliken charges =   0.00000
 Mulliken charges with hydrogens summed into heavy atoms:
               1
     1  F   -0.248232
     2  C    0.755419
     3  F   -0.240744
     4  C    0.534515
     5  F   -0.254066
     6  F   -0.260262
     7  C    0.141349
     8  F   -0.295063
     9  C    0.596849
    10  F   -0.262630
    11  C    0.519767
    12  O   -0.108356
    13  O   -0.420702
    14  F   -0.266865
    15  C    0.508260
    16  F   -0.249977
    17  C    0.572961
    18  F   -0.264444
    19  C    0.545689
    20  N   -0.240714
    21  C    0.202318
    22  C    0.168826
    23  N   -0.430748
    24  C    0.153860
    25  C   -0.003737
    26  C    0.005789
    27  C    0.164496
    28  C   -0.001944
    29  C   -0.004921
    30  O   -0.510481
    31  F   -0.295280
    32  O   -0.510932
 Electronic spatial extent (au):  <R**2>=          21213.4322
 Charge=              0.0000 electrons
 Dipole moment (field-independent basis, Debye):
    X=              0.3843    Y=             -0.5268    Z=             -5.4613  Tot=              5.5001
 Quadrupole moment (field-independent basis, Debye-Ang):
   XX=           -158.6960   YY=           -183.5562   ZZ=           -190.1515
   XY=             -9.1048   XZ=            -14.6953   YZ=              0.4915
 Traceless Quadrupole moment (field-independent basis, Debye-Ang):
   XX=             18.7719   YY=             -6.0883   ZZ=            -12.6836
   XY=             -9.1048   XZ=            -14.6953   YZ=              0.4915
 Octapole moment (field-independent basis, Debye-Ang**2):
  XXX=           -569.6778  YYY=            -33.6837  ZZZ=           -130.6052  XYY=           -271.7590
  XXY=            -45.7226  XXZ=           -147.8888  XZZ=           -335.8389  YZZ=             -7.8161
  YYZ=            -28.9009  XYZ=              3.7238
 Hexadecapole moment (field-independent basis, Debye-Ang**3):
 XXXX=         -18406.0282 YYYY=          -1574.1045 ZZZZ=          -2192.4457 XXXY=           -950.8551
 XXXZ=          -1867.2054 YYYX=           -441.5511 YYYZ=            182.4208 ZZZX=          -1024.8994
 ZZZY=            196.7420 XXYY=          -3777.7253 XXZZ=          -4232.9224 YYZZ=           -620.3945
 XXYZ=             93.0203 YYXZ=           -298.0189 ZZXY=           -115.8563
 N-N= 4.012078526966D+03 E-N=-1.280503129171D+04  KE= 2.014798279827D+03
 No NMR shielding tensors so no spin-rotation constants.
 Leave Link  601 at Tue Feb  4 08:57:51 2025, MaxMem=  5368709120 cpu:         2.9
 (Enter /home/k0335/k033513/app/g09/l9999.exe)
 1\1\GINC-C18U02N1\FOpt\RCAM-B3LYP\6-31G(d,p)\C16H20F10N2O4\K033513\04-
 Feb-2025\0\\#p CAM-B3LYP/6-31G(d,p) opt SCRF=(PCM,Solvent=Generic,Read
 ) NoSymm out=wfn\\Title DIPEDA0_neu\\0,1\F,3.468806784,1.9006533839,-2
 .1624006882\C,3.9464886846,1.9407339135,-0.9161886898\F,4.3995555433,3
 .1777481207,-0.6858567382\C,5.0699951976,0.8995611013,-0.7012141564\F,
 4.9176251112,-0.1104516942,-1.5710666167\F,6.2790810246,1.449513695,-0
 .8631224092\C,4.8314572767,0.4517572089,0.7483167084\F,5.4089514127,1.
 4236402495,1.5257376183\C,5.4539408154,-0.8743825431,1.2043968212\F,5.
 0843768402,-1.0779538113,2.4807120473\C,6.9958631609,-0.8417982477,1.1
 606768795\O,7.4244628233,-1.0383527153,-0.0830545796\O,7.6759369016,-0
 .6608367309,2.1290319868\F,5.00377113,-1.8915179671,0.4408493112\C,3.2
 894818033,0.6441418225,0.9175518729\F,3.0472373708,1.1191561887,2.1498
 098397\C,2.3524282591,-0.5525267275,0.6714371538\F,2.5802012275,-1.499
 7559204,1.5970028468\C,0.8615313206,-0.1526572465,0.7329048318\N,0.246
 2859729,-0.1079628158,-0.4577933526\C,-1.1645248115,0.2325984271,-0.56
 45870634\C,-2.0710799256,-0.9907055565,-0.333939152\N,-3.4993716113,-0
 .7269304851,-0.3167029846\C,-4.0362469595,-0.4152635195,-1.6591250698\
 C,-4.3508281106,1.0628518771,-1.924076184\C,-5.2151196948,-1.318876596
 1,-2.0368615727\C,-4.0042723403,0.0530989423,0.8272148032\C,-5.5072397
 213,-0.1613857354,1.0236837394\C,-3.2960506523,-0.3250807025,2.1305238
 589\O,0.3596621834,0.096510035,1.8139349916\F,2.6610200963,-1.05971228
 06,-0.5575777196\O,2.9389073478,1.6234061238,-0.0343240002\H,8.3948384
 534,-0.9831521932,-0.082684626\H,0.7632874294,-0.3863043704,-1.2773041
 61\H,-1.3290064628,0.6649321316,-1.5539947191\H,-1.3740303505,1.004053
 3149,0.1791957249\H,-1.868772187,-1.7279607447,-1.1184914685\H,-1.7692
 098231,-1.4597121213,0.6034539456\H,-3.2331670985,-0.6796734107,-2.356
 1254868\H,-4.6069401388,1.1986642736,-2.9785165093\H,-5.1979554622,1.4
 229284156,-1.335870468\H,-3.4944390685,1.7056965959,-1.7034812615\H,-6
 .1140849665,-1.0959528303,-1.4599319302\H,-5.4614086958,-1.1974186083,
 -3.0966230505\H,-4.9544401754,-2.3649136006,-1.8608732103\H,-3.8413948
 256,1.1337400181,0.6709161231\H,-6.1033193202,0.1995409603,0.185644120
 7\H,-5.7187650789,-1.2257970579,1.1599010159\H,-5.8425731433,0.3754835
 19,1.9152083872\H,-3.39633961,-1.3981094937,2.3226655078\H,-3.76942301
 46,0.2084347419,2.9583863922\H,-2.2351919212,-0.0684343335,2.142629340
 1\\Version=ES64L-G09RevD.01\HF=-2029.8684526\RMSD=4.665e-09\RMSF=3.251
 e-06\Dipole=0.1512089,-0.2072667,-2.1486457\Quadrupole=13.9564739,-4.5
 264975,-9.4299764,-6.7692109,-10.9256147,0.3654516\PG=C01 [X(C16H20F10
 N2O4)]\\@

 Writing a WFN file to "cytopopt/DIPEDA0/DIPEDA0_neu.wfn"


 SATCHEL PAIGE'S GUIDE TO LONGEVITY

    1.  AVOID FRIED MEATS, WHICH ANGRY UP THE BLOOD.

    2.  IF YOUR STOMACH DISPUTES YOU, LIE DOWN AND PACIFY IT WITH COOL
        THOUGHTS.

    3.  KEEP THE JUICES FLOWING BY JANGLING AROUND GENTLY AS YOU MOVE.

    4.  GO VERY LIGHT ON THE VICES, SUCH AS CARRYING ON IN SOCIETY.
        THE SOCIAL RUMBLE AIN'T RESTFUL.

    5.  AVOID RUNNING AT ALL TIMES.

    6.  DON'T LOOK BACK.  SOMETHING MAY BE GAINING ON YOU.
 Job cpu time:       0 days  7 hours 58 minutes 23.7 seconds.
 File lengths (MBytes):  RWF=    610 Int=      0 D2E=      0 Chk=     28 Scr=      1
 Normal termination of Gaussian 09 at Tue Feb  4 08:57:52 2025.
