 Entering Gaussian System, Link 0=g09
 Initial command:
 /home/k0335/k033513/app/g09/l1.exe "/home/k0335/k033513/app/g09/scratch/Gau-2960899.inp" -scrdir="/home/k0335/k033513/app/g09/scratch/"
 Default is to use a total of  36 processors:
                               36 via shared-memory
                                1 via Linda
 Entering Link 1 = /home/k0335/k033513/app/g09/l1.exe PID=   2960900.
  
 Copyright (c) 1988,1990,1992,1993,1995,1998,2003,2009,2013,
            Gaussian, Inc.  All Rights Reserved.
  
 This is part of the Gaussian(R) 09 program.  It is based on
 the Gaussian(R) 03 system (copyright 2003, Gaussian, Inc.),
 the Gaussian(R) 98 system (copyright 1998, Gaussian, Inc.),
 the Gaussian(R) 94 system (copyright 1995, Gaussian, Inc.),
 the Gaussian 92(TM) system (copyright 1992, Gaussian, Inc.),
 the Gaussian 90(TM) system (copyright 1990, Gaussian, Inc.),
 the Gaussian 88(TM) system (copyright 1988, Gaussian, Inc.),
 the Gaussian 86(TM) system (copyright 1986, Carnegie Mellon
 University), and the Gaussian 82(TM) system (copyright 1983,
 Carnegie Mellon University). Gaussian is a federally registered
 trademark of Gaussian, Inc.
  
 This software contains proprietary and confidential information,
 including trade secrets, belonging to Gaussian, Inc.
  
 This software is provided under written license and may be
 used, copied, transmitted, or stored only in accord with that
 written license.
  
 The following legend is applicable only to US Government
 contracts under FAR:
  
                    RESTRICTED RIGHTS LEGEND
  
 Use, reproduction and disclosure by the US Government is
 subject to restrictions as set forth in subparagraphs (a)
 and (c) of the Commercial Computer Software - Restricted
 Rights clause in FAR 52.227-19.
  
 Gaussian, Inc.
 340 Quinnipiac St., Bldg. 40, Wallingford CT 06492
  
  
 ---------------------------------------------------------------
 Warning -- This program may not be used in any manner that
 competes with the business of Gaussian, Inc. or will provide
 assistance to any competitor of Gaussian, Inc.  The licensee
 of this program is prohibited from giving any competitor of
 Gaussian, Inc. access to this program.  By using this program,
 the user acknowledges that Gaussian, Inc. is engaged in the
 business of creating and licensing software in the field of
 computational chemistry and represents and warrants to the
 licensee that it is not a competitor of Gaussian, Inc. and that
 it will not use this program in any manner prohibited above.
 ---------------------------------------------------------------
  

 Cite this work as:
 Gaussian 09, Revision D.01,
 M. J. Frisch, G. W. Trucks, H. B. Schlegel, G. E. Scuseria, 
 M. A. Robb, J. R. Cheeseman, G. Scalmani, V. Barone, B. Mennucci, 
 G. A. Petersson, H. Nakatsuji, M. Caricato, X. Li, H. P. Hratchian, 
 A. F. Izmaylov, J. Bloino, G. Zheng, J. L. Sonnenberg, M. Hada, 
 M. Ehara, K. Toyota, R. Fukuda, J. Hasegawa, M. Ishida, T. Nakajima, 
 Y. Honda, O. Kitao, H. Nakai, T. Vreven, J. A. Montgomery, Jr., 
 J. E. Peralta, F. Ogliaro, M. Bearpark, J. J. Heyd, E. Brothers, 
 K. N. Kudin, V. N. Staroverov, T. Keith, R. Kobayashi, J. Normand, 
 K. Raghavachari, A. Rendell, J. C. Burant, S. S. Iyengar, J. Tomasi, 
 M. Cossi, N. Rega, J. M. Millam, M. Klene, J. E. Knox, J. B. Cross, 
 V. Bakken, C. Adamo, J. Jaramillo, R. Gomperts, R. E. Stratmann, 
 O. Yazyev, A. J. Austin, R. Cammi, C. Pomelli, J. W. Ochterski, 
 R. L. Martin, K. Morokuma, V. G. Zakrzewski, G. A. Voth, 
 P. Salvador, J. J. Dannenberg, S. Dapprich, A. D. Daniels, 
 O. Farkas, J. B. Foresman, J. V. Ortiz, J. Cioslowski, 
 and D. J. Fox, Gaussian, Inc., Wallingford CT, 2013.
 
 ******************************************
 Gaussian 09:  ES64L-G09RevD.01 24-Apr-2013
                 3-Feb-2025 
 ******************************************
 %nprocshared=24
 Will use up to   24 processors via shared memory.
 %mem=40GB
 %rwf=cytop/DBE1/DBE1_neu.rwf
 %nosave
 %chk=cytop/DBE1/DBE1_neu.chk
 ----------------------------------------------------------------------
 #p CAM-B3LYP/6-31G(d,p) SCRF=(PCM,Solvent=Generic,Read) NoSymm out=wfn
 ----------------------------------------------------------------------
 1/38=1,40=2/1;
 2/12=2,15=1,17=6,18=5,40=1/2;
 3/5=1,6=6,7=101,11=2,16=1,25=1,30=1,70=2203,72=-2,74=-40/1,2,3;
 4//1;
 5/5=2,38=5/2;
 6/7=2,8=2,9=2,10=2,28=1/1;
 99/5=1,6=100,9=1/99;
 Leave Link    1 at Mon Feb  3 21:48:29 2025, MaxMem=  5368709120 cpu:         1.3
 (Enter /home/k0335/k033513/app/g09/l101.exe)
 --------------
 Title DBE1_neu
 --------------
 Symbolic Z-matrix:
 Charge =  0 Multiplicity = 1
 F                     6.20048   0.2337    2.85067 
 C                     5.30073   0.91078   2.11118 
 F                     4.86802   1.94876   2.85354 
 C                     5.859     1.33484   0.77174 
 F                     7.11233   1.81029   0.79616 
 F                     5.09035   2.33943   0.26395 
 C                     5.66948   0.1056   -0.06577 
 F                     5.57758   0.45102  -1.38049 
 C                     6.77236  -0.93054   0.07686 
 F                     6.80534  -1.41625   1.34621 
 C                     8.13789  -0.37408  -0.32785 
 O                     8.29525  -0.2033   -1.65784 
 O                     9.05053  -0.07858   0.42948 
 F                     6.45834  -2.0076   -0.70812 
 C                     4.33922  -0.41859   0.49284 
 F                     4.36641  -1.77809   0.53333 
 C                     3.12539   0.01304  -0.35151 
 F                     3.29278  -0.40782  -1.6418 
 C                     1.78734  -0.51846   0.19928 
 N                     0.67795   0.04858  -0.42366 
 C                    -0.67157  -0.21005   0.05722 
 C                    -1.72086  -0.0035   -1.05213 
 N                    -3.11218  -0.07284  -0.55836 
 C                    -4.04027   0.5637   -1.51569 
 C                    -4.01205   2.10049  -1.47141 
 C                    -4.35094   2.66301  -0.08856 
 C                    -4.39804   4.1831   -0.10428 
 C                    -3.50863  -1.47397  -0.30032 
 C                    -4.68145  -1.5559    0.68943 
 C                    -5.00707  -2.99064   1.11623 
 C                    -5.51774  -3.85987  -0.0225 
 O                     1.6822   -1.37505   1.07167 
 F                     3.07382   1.3766   -0.42988 
 O                     4.21127   0.03213   1.8603 
 H                     9.21345   0.1268   -1.76821 
 H                     0.83551   0.90751  -0.94206 
 H                    -0.84913   0.48636   0.88494 
 H                    -0.71269  -1.22573   0.46139 
 H                    -1.52403   0.9848   -1.48326 
 H                    -1.55623  -0.72244  -1.86597 
 H                    -5.0743    0.26884  -1.30443 
 H                    -3.83292   0.22168  -2.53824 
 H                    -4.74457   2.47327  -2.19883 
 H                    -3.03889   2.48293  -1.79802 
 H                    -3.60445   2.34134   0.64631 
 H                    -5.32199   2.27681   0.24254 
 H                    -5.16072   4.54518  -0.80112 
 H                    -3.43193   4.60211  -0.40326 
 H                    -4.64024   4.56494   0.89248 
 H                    -2.67905  -2.03073   0.14837 
 H                    -3.74866  -1.9819   -1.24235 
 H                    -5.58464  -1.10007   0.26958 
 H                    -4.42887  -0.98257   1.59073 
 H                    -4.12224  -3.45784   1.564 
 H                    -5.77506  -2.95401   1.89819 
 H                    -5.82448  -4.83843   0.36074 
 H                    -6.38342  -3.40056  -0.51005 
 H                    -4.74371  -4.02824  -0.77692 
 
 NAtoms=     58 NQM=       58 NQMF=       0 NMMI=      0 NMMIF=      0
                NMic=       0 NMicF=      0.
                    Isotopes and Nuclear Properties:
 (Nuclear quadrupole moments (NQMom) in fm**2, nuclear magnetic moments (NMagM)
  in nuclear magnetons)

  Atom         1           2           3           4           5           6           7           8           9          10
 IAtWgt=          19          12          19          12          19          19          12          19          12          19
 AtmWgt=  18.9984033  12.0000000  18.9984033  12.0000000  18.9984033  18.9984033  12.0000000  18.9984033  12.0000000  18.9984033
 NucSpn=           1           0           1           0           1           1           0           1           0           1
 AtZEff=   0.0000000   0.0000000   0.0000000   0.0000000   0.0000000   0.0000000   0.0000000   0.0000000   0.0000000   0.0000000
 NQMom=    0.0000000   0.0000000   0.0000000   0.0000000   0.0000000   0.0000000   0.0000000   0.0000000   0.0000000   0.0000000
 NMagM=    2.6288670   0.0000000   2.6288670   0.0000000   2.6288670   2.6288670   0.0000000   2.6288670   0.0000000   2.6288670
 AtZNuc=   9.0000000   6.0000000   9.0000000   6.0000000   9.0000000   9.0000000   6.0000000   9.0000000   6.0000000   9.0000000

  Atom        11          12          13          14          15          16          17          18          19          20
 IAtWgt=          12          16          16          19          12          19          12          19          12          14
 AtmWgt=  12.0000000  15.9949146  15.9949146  18.9984033  12.0000000  18.9984033  12.0000000  18.9984033  12.0000000  14.0030740
 NucSpn=           0           0           0           1           0           1           0           1           0           2
 AtZEff=   0.0000000   0.0000000   0.0000000   0.0000000   0.0000000   0.0000000   0.0000000   0.0000000   0.0000000   0.0000000
 NQMom=    0.0000000   0.0000000   0.0000000   0.0000000   0.0000000   0.0000000   0.0000000   0.0000000   0.0000000   2.0440000
 NMagM=    0.0000000   0.0000000   0.0000000   2.6288670   0.0000000   2.6288670   0.0000000   2.6288670   0.0000000   0.4037610
 AtZNuc=   6.0000000   8.0000000   8.0000000   9.0000000   6.0000000   9.0000000   6.0000000   9.0000000   6.0000000   7.0000000

  Atom        21          22          23          24          25          26          27          28          29          30
 IAtWgt=          12          12          14          12          12          12          12          12          12          12
 AtmWgt=  12.0000000  12.0000000  14.0030740  12.0000000  12.0000000  12.0000000  12.0000000  12.0000000  12.0000000  12.0000000
 NucSpn=           0           0           2           0           0           0           0           0           0           0
 AtZEff=   0.0000000   0.0000000   0.0000000   0.0000000   0.0000000   0.0000000   0.0000000   0.0000000   0.0000000   0.0000000
 NQMom=    0.0000000   0.0000000   2.0440000   0.0000000   0.0000000   0.0000000   0.0000000   0.0000000   0.0000000   0.0000000
 NMagM=    0.0000000   0.0000000   0.4037610   0.0000000   0.0000000   0.0000000   0.0000000   0.0000000   0.0000000   0.0000000
 AtZNuc=   6.0000000   6.0000000   7.0000000   6.0000000   6.0000000   6.0000000   6.0000000   6.0000000   6.0000000   6.0000000

  Atom        31          32          33          34          35          36          37          38          39          40
 IAtWgt=          12          16          19          16           1           1           1           1           1           1
 AtmWgt=  12.0000000  15.9949146  18.9984033  15.9949146   1.0078250   1.0078250   1.0078250   1.0078250   1.0078250   1.0078250
 NucSpn=           0           0           1           0           1           1           1           1           1           1
 AtZEff=   0.0000000   0.0000000   0.0000000   0.0000000   0.0000000   0.0000000   0.0000000   0.0000000   0.0000000   0.0000000
 NQMom=    0.0000000   0.0000000   0.0000000   0.0000000   0.0000000   0.0000000   0.0000000   0.0000000   0.0000000   0.0000000
 NMagM=    0.0000000   0.0000000   2.6288670   0.0000000   2.7928460   2.7928460   2.7928460   2.7928460   2.7928460   2.7928460
 AtZNuc=   6.0000000   8.0000000   9.0000000   8.0000000   1.0000000   1.0000000   1.0000000   1.0000000   1.0000000   1.0000000

  Atom        41          42          43          44          45          46          47          48          49          50
 IAtWgt=           1           1           1           1           1           1           1           1           1           1
 AtmWgt=   1.0078250   1.0078250   1.0078250   1.0078250   1.0078250   1.0078250   1.0078250   1.0078250   1.0078250   1.0078250
 NucSpn=           1           1           1           1           1           1           1           1           1           1
 AtZEff=   0.0000000   0.0000000   0.0000000   0.0000000   0.0000000   0.0000000   0.0000000   0.0000000   0.0000000   0.0000000
 NQMom=    0.0000000   0.0000000   0.0000000   0.0000000   0.0000000   0.0000000   0.0000000   0.0000000   0.0000000   0.0000000
 NMagM=    2.7928460   2.7928460   2.7928460   2.7928460   2.7928460   2.7928460   2.7928460   2.7928460   2.7928460   2.7928460
 AtZNuc=   1.0000000   1.0000000   1.0000000   1.0000000   1.0000000   1.0000000   1.0000000   1.0000000   1.0000000   1.0000000

  Atom        51          52          53          54          55          56          57          58
 IAtWgt=           1           1           1           1           1           1           1           1
 AtmWgt=   1.0078250   1.0078250   1.0078250   1.0078250   1.0078250   1.0078250   1.0078250   1.0078250
 NucSpn=           1           1           1           1           1           1           1           1
 AtZEff=   0.0000000   0.0000000   0.0000000   0.0000000   0.0000000   0.0000000   0.0000000   0.0000000
 NQMom=    0.0000000   0.0000000   0.0000000   0.0000000   0.0000000   0.0000000   0.0000000   0.0000000
 NMagM=    2.7928460   2.7928460   2.7928460   2.7928460   2.7928460   2.7928460   2.7928460   2.7928460
 AtZNuc=   1.0000000   1.0000000   1.0000000   1.0000000   1.0000000   1.0000000   1.0000000   1.0000000
 Leave Link  101 at Mon Feb  3 21:48:29 2025, MaxMem=  5368709120 cpu:         1.0
 (Enter /home/k0335/k033513/app/g09/l202.exe)
 Symmetry turned off by external request.
 Stoichiometry    C18H24F10N2O4
 Framework group  C1[X(C18H24F10N2O4)]
 Deg. of freedom   168
 Full point group                 C1      NOp   1
                          Input orientation:                          
 ---------------------------------------------------------------------
 Center     Atomic      Atomic             Coordinates (Angstroms)
 Number     Number       Type             X           Y           Z
 ---------------------------------------------------------------------
      1          9           0        6.200479    0.233704    2.850674
      2          6           0        5.300728    0.910775    2.111184
      3          9           0        4.868022    1.948764    2.853544
      4          6           0        5.858995    1.334841    0.771738
      5          9           0        7.112330    1.810286    0.796160
      6          9           0        5.090347    2.339430    0.263954
      7          6           0        5.669477    0.105597   -0.065771
      8          9           0        5.577578    0.451020   -1.380485
      9          6           0        6.772359   -0.930541    0.076855
     10          9           0        6.805340   -1.416249    1.346205
     11          6           0        8.137885   -0.374077   -0.327851
     12          8           0        8.295248   -0.203300   -1.657843
     13          8           0        9.050526   -0.078583    0.429479
     14          9           0        6.458341   -2.007597   -0.708122
     15          6           0        4.339217   -0.418587    0.492835
     16          9           0        4.366410   -1.778091    0.533332
     17          6           0        3.125390    0.013038   -0.351511
     18          9           0        3.292784   -0.407819   -1.641796
     19          6           0        1.787337   -0.518463    0.199282
     20          7           0        0.677945    0.048581   -0.423656
     21          6           0       -0.671574   -0.210054    0.057223
     22          6           0       -1.720857   -0.003503   -1.052126
     23          7           0       -3.112175   -0.072840   -0.558360
     24          6           0       -4.040267    0.563701   -1.515693
     25          6           0       -4.012053    2.100494   -1.471410
     26          6           0       -4.350942    2.663009   -0.088558
     27          6           0       -4.398043    4.183096   -0.104283
     28          6           0       -3.508632   -1.473973   -0.300315
     29          6           0       -4.681449   -1.555896    0.689429
     30          6           0       -5.007071   -2.990636    1.116226
     31          6           0       -5.517735   -3.859866   -0.022502
     32          8           0        1.682204   -1.375047    1.071670
     33          9           0        3.073824    1.376604   -0.429881
     34          8           0        4.211265    0.032126    1.860297
     35          1           0        9.213455    0.126802   -1.768205
     36          1           0        0.835513    0.907511   -0.942056
     37          1           0       -0.849129    0.486357    0.884943
     38          1           0       -0.712694   -1.225731    0.461387
     39          1           0       -1.524032    0.984799   -1.483258
     40          1           0       -1.556226   -0.722444   -1.865970
     41          1           0       -5.074303    0.268835   -1.304431
     42          1           0       -3.832916    0.221682   -2.538242
     43          1           0       -4.744571    2.473274   -2.198832
     44          1           0       -3.038888    2.482930   -1.798021
     45          1           0       -3.604447    2.341340    0.646305
     46          1           0       -5.321986    2.276813    0.242543
     47          1           0       -5.160719    4.545180   -0.801123
     48          1           0       -3.431925    4.602106   -0.403264
     49          1           0       -4.640242    4.564942    0.892478
     50          1           0       -2.679049   -2.030733    0.148369
     51          1           0       -3.748662   -1.981902   -1.242350
     52          1           0       -5.584636   -1.100070    0.269575
     53          1           0       -4.428866   -0.982572    1.590727
     54          1           0       -4.122239   -3.457835    1.564003
     55          1           0       -5.775055   -2.954010    1.898191
     56          1           0       -5.824483   -4.838427    0.360740
     57          1           0       -6.383421   -3.400559   -0.510047
     58          1           0       -4.743712   -4.028235   -0.776923
 ---------------------------------------------------------------------
 Rotational constants (GHZ):      0.2376003      0.0444262      0.0419598
 Leave Link  202 at Mon Feb  3 21:48:29 2025, MaxMem=  5368709120 cpu:         0.0
 (Enter /home/k0335/k033513/app/g09/l301.exe)
 Standard basis: 6-31G(d,p) (6D, 7F)
 Ernie: Thresh=  0.10000D-02 Tol=  0.10000D-05 Strict=F.
   630 basis functions,  1120 primitive gaussians,   630 cartesian basis functions
   134 alpha electrons      134 beta electrons
       nuclear repulsion energy      4218.5219405103 Hartrees.
 IExCor=20419 DFT=T Ex+Corr=CAM-B3LYP ExCW=0 ScaHFX=  1.000000
 ScaDFX=  1.000000  1.000000  1.000000  0.810000 ScalE2=  1.000000  1.000000
 IRadAn=      0 IRanWt=     -1 IRanGd=            0 ICorTp=0 IEmpDi=  4
  HFx wShort=  0.000000 wLong=  0.330000 cFull=  0.190000 cShort=  0.000000 cLong=  0.460000
  DFx wShort=  0.000000 wLong=  0.330000 cFull=  0.190000 cShort=  0.000000 cLong=  0.460000
 NAtoms=   58 NActive=   58 NUniq=   58 SFac= 1.00D+00 NAtFMM=   60 NAOKFM=F Big=F
 Integral buffers will be    131072 words long.
 Raffenetti 2 integral format.
 Two-electron integral symmetry is turned off.
 Using the following non-standard input for PCM:
 eps=2.05
 --- end of non-standard input.
 ------------------------------------------------------------------------------
 Polarizable Continuum Model (PCM)
 =================================
 Model                : PCM (using non-symmetric T matrix).
 Atomic radii         : UFF (Universal Force Field).
 Polarization charges : Total charges.
 Charge compensation  : None.
 Solution method      : On-the-fly selection.
 Cavity type          : Scaled VdW (van der Waals Surface) (Alpha=1.100).
 Cavity algorithm     : GePol (No added spheres)
                        Default sphere list used, NSphG=   58.
                        Lebedev-Laikov grids with approx.  5.0 points / Ang**2.
                        Smoothing algorithm: Karplus/York (Gamma=1.0000).
                        Polarization charges: spherical gaussians, with
                                              point-specific exponents (IZeta= 3).
                        Self-potential: point-specific (ISelfS= 7).
                        Self-field    : sphere-specific E.n sum rule (ISelfD= 2).
 Solvent              : Generic,
                        Eps                           =   2.050000
                        Eps(infinity)                 =   0.000000
                        RSolv                         =   0.000000 Ang.
                        Molar volume                  =   0.000000 cm**3/mol
                        Thermal expansion coefficient =   0.000000 K**-1
                        Absolute temperature          = 298.150000 K
                        Numeral density               =   0.000000 Ang**-3
                        Hydrogen bond acidity         =   0.000000
                        Hydrogen bond basicity        =   0.000000
                        Surface tension at interface  =   0.000000 (cal/mol)*Ang**-2
                        Carbon aromaticity            =   0.000000
                        Electronegative halogenicity  =   0.000000
 ------------------------------------------------------------------------------
 GePol: Number of generator spheres                  =      58
 GePol: Total number of spheres                      =      58
 GePol: Number of exposed spheres                    =      57 ( 98.28%)
 GePol: Number of points                             =    4167
 GePol: Average weight of points                     =       0.13
 GePol: Minimum weight of points                     =   0.68D-11
 GePol: Maximum weight of points                     =    0.20577
 GePol: Number of points with low weight             =     244
 GePol: Fraction of low-weight points (<1% of avg)   =       5.86%
 GePol: Cavity surface area                          =    532.643 Ang**2
 GePol: Cavity volume                                =    590.853 Ang**3
 Leave Link  301 at Mon Feb  3 21:48:29 2025, MaxMem=  5368709120 cpu:         0.8
 (Enter /home/k0335/k033513/app/g09/l302.exe)
 NPDir=0 NMtPBC=     1 NCelOv=     1 NCel=       1 NClECP=     1 NCelD=      1
         NCelK=      1 NCelE2=     1 NClLst=     1 CellRange=     0.0.
 One-electron integrals computed using PRISM.
 NBasis=   630 RedAO= T EigKep=  7.89D-04  NBF=   630
 NBsUse=   630 1.00D-06 EigRej= -1.00D+00 NBFU=   630
 Precomputing XC quadrature grid using
 IXCGrd= 4 IRadAn=           0 IRanWt=          -1 IRanGd=           0 AccXCQ= 0.00D+00.
 Generated NRdTot=       0 NPtTot=           0 NUsed=           0 NTot=          32
 NSgBfM=   591   592   592   592   592 MxSgAt=    58 MxSgA2=    58.
 Leave Link  302 at Mon Feb  3 21:48:30 2025, MaxMem=  5368709120 cpu:        14.7
 (Enter /home/k0335/k033513/app/g09/l303.exe)
 DipDrv:  MaxL=1.
 Leave Link  303 at Mon Feb  3 21:48:30 2025, MaxMem=  5368709120 cpu:         0.9
 (Enter /home/k0335/k033513/app/g09/l401.exe)
 ExpMin= 1.61D-01 ExpMax= 7.00D+03 ExpMxC= 1.05D+03 IAcc=1 IRadAn=         1 AccDes= 0.00D+00
 Harris functional with IExCor=20419 and IRadAn=       1 diagonalized for initial guess.
 HarFok:  IExCor=20419 AccDes= 0.00D+00 IRadAn=         1 IDoV= 1 UseB2=F ITyADJ=14
 ICtDFT=  3500011 ScaDFX=  1.000000  1.000000  1.000000  1.000000
 FoFCou: FMM=F IPFlag=           0 FMFlag=      100000 FMFlg1=           0
         NFxFlg=           0 DoJE=T BraDBF=F KetDBF=T FulRan=T
         wScrn=  0.000000 ICntrl=     500 IOpCl=  0 I1Cent=   200000004 NGrid=           0
         NMat0=    1 NMatS0=      1 NMatT0=    0 NMatD0=    1 NMtDS0=    0 NMtDT0=    0
 Symmetry not used in FoFCou.
 Harris En= -2039.00685126506    
 JPrj=0 DoOrth=F DoCkMO=F.
 Leave Link  401 at Mon Feb  3 21:48:31 2025, MaxMem=  5368709120 cpu:        15.8
 (Enter /home/k0335/k033513/app/g09/l502.exe)
 Closed shell SCF:
 Using DIIS extrapolation, IDIIS=  1040.
 Two-electron integral symmetry not used.
 IVT=     1228266 IEndB=     1228266 NGot=  5368709120 MDV=  5367895025
 LenX=  5367895025 LenY=  5367497495
 Requested convergence on RMS density matrix=1.00D-08 within 128 cycles.
 Requested convergence on MAX density matrix=1.00D-06.
 Requested convergence on             energy=1.00D-06.
 No special actions if energy rises.
 Fock matrices will be formed incrementally for  20 cycles.

 Cycle   1  Pass 1  IDiag  1:
 FoFJK:  IHMeth= 1 ICntrl=       0 DoSepK=T KAlg= 0 I1Cent=   0 FoldK=F
 IRaf=         1 NMat=   1 IRICut=       1 DoRegI=T DoRafI=F ISym2E= 0.
 FoFCou: FMM=F IPFlag=           0 FMFlag=      100000 FMFlg1=           0
         NFxFlg=           0 DoJE=T BraDBF=F KetDBF=F FulRan=T
         wScrn=  0.000000 ICntrl=     500 IOpCl=  0 I1Cent=           0 NGrid=           0
         NMat0=    1 NMatS0=      1 NMatT0=    0 NMatD0=    1 NMtDS0=    0 NMtDT0=    0
 Symmetry not used in FoFCou.
 Inv3:  Mode=1 IEnd=    52091667.
 Iteration    1 A*A^-1 deviation from unit magnitude is 6.55D-15 for   4149.
 Iteration    1 A*A^-1 deviation from orthogonality  is 7.40D-15 for   4161   1994.
 Iteration    1 A^-1*A deviation from unit magnitude is 5.66D-15 for   4144.
 Iteration    1 A^-1*A deviation from orthogonality  is 2.36D-15 for   4127   3997.
 E= -2107.78844177907    
 DIIS: error= 5.51D-02 at cycle   1 NSaved=   1.
 NSaved= 1 IEnMin= 1 EnMin= -2107.78844177907     IErMin= 1 ErrMin= 5.51D-02
 ErrMax= 5.51D-02  0.00D+00 EMaxC= 1.00D-01 BMatC= 1.70D+00 BMatP= 1.70D+00
 IDIUse=3 WtCom= 4.49D-01 WtEn= 5.51D-01
 Coeff-Com:  0.100D+01
 Coeff-En:   0.100D+01
 Coeff:      0.100D+01
 Gap=     0.450 Goal=   None    Shift=    0.000
 GapD=    0.450 DampG=2.000 DampE=0.500 DampFc=1.0000 IDamp=-1.
 RMSDP=2.39D-03 MaxDP=1.25D-01              OVMax= 1.31D-01

 Cycle   2  Pass 1  IDiag  1:
 RMSU=  2.39D-03    CP:  9.95D-01
 E= -2108.03761880627     Delta-E=       -0.249177027204 Rises=F Damp=F
 DIIS: error= 1.98D-02 at cycle   2 NSaved=   2.
 NSaved= 2 IEnMin= 2 EnMin= -2108.03761880627     IErMin= 2 ErrMin= 1.98D-02
 ErrMax= 1.98D-02  0.00D+00 EMaxC= 1.00D-01 BMatC= 6.14D-01 BMatP= 1.70D+00
 IDIUse=3 WtCom= 8.02D-01 WtEn= 1.98D-01
 Coeff-Com:  0.350D+00 0.650D+00
 Coeff-En:   0.340D+00 0.660D+00
 Coeff:      0.348D+00 0.652D+00
 Gap=     0.286 Goal=   None    Shift=    0.000
 RMSDP=1.15D-03 MaxDP=7.23D-02 DE=-2.49D-01 OVMax= 9.30D-02

 Cycle   3  Pass 1  IDiag  1:
 RMSU=  7.13D-04    CP:  1.00D+00  6.25D-01
 E= -2108.33930122689     Delta-E=       -0.301682420616 Rises=F Damp=F
 DIIS: error= 6.78D-03 at cycle   3 NSaved=   3.
 NSaved= 3 IEnMin= 3 EnMin= -2108.33930122689     IErMin= 3 ErrMin= 6.78D-03
 ErrMax= 6.78D-03  0.00D+00 EMaxC= 1.00D-01 BMatC= 1.19D-01 BMatP= 6.14D-01
 IDIUse=3 WtCom= 9.32D-01 WtEn= 6.78D-02
 Coeff-Com:  0.668D-01 0.320D+00 0.613D+00
 Coeff-En:   0.000D+00 0.127D+00 0.873D+00
 Coeff:      0.623D-01 0.307D+00 0.631D+00
 Gap=     0.293 Goal=   None    Shift=    0.000
 RMSDP=5.24D-04 MaxDP=4.42D-02 DE=-3.02D-01 OVMax= 6.18D-02

 Cycle   4  Pass 1  IDiag  1:
 RMSU=  2.81D-04    CP:  9.97D-01  7.19D-01  4.75D-01
 E= -2108.40981089220     Delta-E=       -0.070509665314 Rises=F Damp=F
 DIIS: error= 2.63D-03 at cycle   4 NSaved=   4.
 NSaved= 4 IEnMin= 4 EnMin= -2108.40981089220     IErMin= 4 ErrMin= 2.63D-03
 ErrMax= 2.63D-03  0.00D+00 EMaxC= 1.00D-01 BMatC= 1.17D-02 BMatP= 1.19D-01
 IDIUse=3 WtCom= 9.74D-01 WtEn= 2.63D-02
 Coeff-Com:  0.670D-02 0.103D+00 0.326D+00 0.564D+00
 Coeff-En:   0.000D+00 0.000D+00 0.319D-01 0.968D+00
 Coeff:      0.652D-02 0.100D+00 0.319D+00 0.574D+00
 Gap=     0.279 Goal=   None    Shift=    0.000
 RMSDP=1.57D-04 MaxDP=1.60D-02 DE=-7.05D-02 OVMax= 2.42D-02

 Cycle   5  Pass 1  IDiag  1:
 RMSU=  7.37D-05    CP:  9.97D-01  7.19D-01  6.08D-01  6.41D-01
 E= -2108.41797270977     Delta-E=       -0.008161817568 Rises=F Damp=F
 DIIS: error= 7.78D-04 at cycle   5 NSaved=   5.
 NSaved= 5 IEnMin= 5 EnMin= -2108.41797270977     IErMin= 5 ErrMin= 7.78D-04
 ErrMax= 7.78D-04  0.00D+00 EMaxC= 1.00D-01 BMatC= 6.70D-04 BMatP= 1.17D-02
 IDIUse=3 WtCom= 9.92D-01 WtEn= 7.78D-03
 Coeff-Com:  0.652D-03 0.413D-01 0.151D+00 0.319D+00 0.488D+00
 Coeff-En:   0.000D+00 0.000D+00 0.000D+00 0.000D+00 0.100D+01
 Coeff:      0.647D-03 0.410D-01 0.150D+00 0.317D+00 0.492D+00
 Gap=     0.277 Goal=   None    Shift=    0.000
 RMSDP=3.47D-05 MaxDP=3.87D-03 DE=-8.16D-03 OVMax= 6.75D-03

 Cycle   6  Pass 1  IDiag  1:
 RMSU=  2.03D-05    CP:  9.97D-01  7.21D-01  6.08D-01  6.55D-01  6.29D-01
 E= -2108.41845840043     Delta-E=       -0.000485690661 Rises=F Damp=F
 DIIS: error= 1.40D-04 at cycle   6 NSaved=   6.
 NSaved= 6 IEnMin= 6 EnMin= -2108.41845840043     IErMin= 6 ErrMin= 1.40D-04
 ErrMax= 1.40D-04  0.00D+00 EMaxC= 1.00D-01 BMatC= 2.65D-05 BMatP= 6.70D-04
 IDIUse=3 WtCom= 9.99D-01 WtEn= 1.40D-03
 Coeff-Com: -0.551D-03 0.385D-02 0.203D-01 0.527D-01 0.189D+00 0.735D+00
 Coeff-En:   0.000D+00 0.000D+00 0.000D+00 0.000D+00 0.000D+00 0.100D+01
 Coeff:     -0.551D-03 0.384D-02 0.203D-01 0.527D-01 0.188D+00 0.735D+00
 Gap=     0.277 Goal=   None    Shift=    0.000
 RMSDP=1.06D-05 MaxDP=7.02D-04 DE=-4.86D-04 OVMax= 1.16D-03

 Cycle   7  Pass 1  IDiag  1:
 RMSU=  6.93D-06    CP:  9.97D-01  7.21D-01  6.11D-01  6.71D-01  7.10D-01
                    CP:  9.13D-01
 E= -2108.41847829152     Delta-E=       -0.000019891090 Rises=F Damp=F
 DIIS: error= 4.98D-05 at cycle   7 NSaved=   7.
 NSaved= 7 IEnMin= 7 EnMin= -2108.41847829152     IErMin= 7 ErrMin= 4.98D-05
 ErrMax= 4.98D-05  0.00D+00 EMaxC= 1.00D-01 BMatC= 4.22D-06 BMatP= 2.65D-05
 IDIUse=1 WtCom= 1.00D+00 WtEn= 0.00D+00
 Coeff-Com: -0.239D-03-0.385D-02-0.109D-01-0.189D-01 0.273D-01 0.337D+00
 Coeff-Com:  0.669D+00
 Coeff:     -0.239D-03-0.385D-02-0.109D-01-0.189D-01 0.273D-01 0.337D+00
 Coeff:      0.669D+00
 Gap=     0.278 Goal=   None    Shift=    0.000
 RMSDP=3.41D-06 MaxDP=3.10D-04 DE=-1.99D-05 OVMax= 5.17D-04

 Cycle   8  Pass 1  IDiag  1:
 RMSU=  2.14D-06    CP:  9.97D-01  7.21D-01  6.11D-01  6.71D-01  7.28D-01
                    CP:  1.01D+00  8.43D-01
 E= -2108.41848184889     Delta-E=       -0.000003557373 Rises=F Damp=F
 DIIS: error= 1.54D-05 at cycle   8 NSaved=   8.
 NSaved= 8 IEnMin= 8 EnMin= -2108.41848184889     IErMin= 8 ErrMin= 1.54D-05
 ErrMax= 1.54D-05  0.00D+00 EMaxC= 1.00D-01 BMatC= 2.84D-07 BMatP= 4.22D-06
 IDIUse=1 WtCom= 1.00D+00 WtEn= 0.00D+00
 Coeff-Com: -0.507D-04-0.183D-02-0.574D-02-0.119D-01-0.845D-03 0.777D-01
 Coeff-Com:  0.269D+00 0.674D+00
 Coeff:     -0.507D-04-0.183D-02-0.574D-02-0.119D-01-0.845D-03 0.777D-01
 Coeff:      0.269D+00 0.674D+00
 Gap=     0.277 Goal=   None    Shift=    0.000
 RMSDP=1.07D-06 MaxDP=6.84D-05 DE=-3.56D-06 OVMax= 1.42D-04

 Cycle   9  Pass 1  IDiag  1:
 RMSU=  8.35D-07    CP:  9.97D-01  7.21D-01  6.12D-01  6.71D-01  7.33D-01
                    CP:  1.02D+00  8.99D-01  9.60D-01
 E= -2108.41848210265     Delta-E=       -0.000000253759 Rises=F Damp=F
 DIIS: error= 4.18D-06 at cycle   9 NSaved=   9.
 NSaved= 9 IEnMin= 9 EnMin= -2108.41848210265     IErMin= 9 ErrMin= 4.18D-06
 ErrMax= 4.18D-06  0.00D+00 EMaxC= 1.00D-01 BMatC= 3.66D-08 BMatP= 2.84D-07
 IDIUse=1 WtCom= 1.00D+00 WtEn= 0.00D+00
 Coeff-Com:  0.109D-04-0.135D-03-0.532D-03-0.191D-02-0.367D-02-0.268D-01
 Coeff-Com: -0.167D-03 0.245D+00 0.788D+00
 Coeff:      0.109D-04-0.135D-03-0.532D-03-0.191D-02-0.367D-02-0.268D-01
 Coeff:     -0.167D-03 0.245D+00 0.788D+00
 Gap=     0.277 Goal=   None    Shift=    0.000
 RMSDP=5.56D-07 MaxDP=4.51D-05 DE=-2.54D-07 OVMax= 8.57D-05

 Cycle  10  Pass 1  IDiag  1:
 RMSU=  2.84D-07    CP:  9.97D-01  7.21D-01  6.12D-01  6.71D-01  7.36D-01
                    CP:  1.03D+00  9.29D-01  1.08D+00  9.58D-01
 E= -2108.41848214700     Delta-E=       -0.000000044352 Rises=F Damp=F
 DIIS: error= 2.52D-06 at cycle  10 NSaved=  10.
 NSaved=10 IEnMin=10 EnMin= -2108.41848214700     IErMin=10 ErrMin= 2.52D-06
 ErrMax= 2.52D-06  0.00D+00 EMaxC= 1.00D-01 BMatC= 4.64D-09 BMatP= 3.66D-08
 IDIUse=1 WtCom= 1.00D+00 WtEn= 0.00D+00
 Coeff-Com:  0.106D-04 0.153D-03 0.435D-03 0.523D-03-0.916D-03-0.199D-01
 Coeff-Com: -0.293D-01 0.134D-01 0.302D+00 0.733D+00
 Coeff:      0.106D-04 0.153D-03 0.435D-03 0.523D-03-0.916D-03-0.199D-01
 Coeff:     -0.293D-01 0.134D-01 0.302D+00 0.733D+00
 Gap=     0.277 Goal=   None    Shift=    0.000
 RMSDP=1.74D-07 MaxDP=1.46D-05 DE=-4.44D-08 OVMax= 3.57D-05

 Cycle  11  Pass 1  IDiag  1:
 RMSU=  1.07D-07    CP:  9.97D-01  7.21D-01  6.12D-01  6.71D-01  7.37D-01
                    CP:  1.03D+00  9.38D-01  1.11D+00  1.06D+00  9.68D-01
 E= -2108.41848215128     Delta-E=       -0.000000004278 Rises=F Damp=F
 DIIS: error= 1.19D-06 at cycle  11 NSaved=  11.
 NSaved=11 IEnMin=11 EnMin= -2108.41848215128     IErMin=11 ErrMin= 1.19D-06
 ErrMax= 1.19D-06  0.00D+00 EMaxC= 1.00D-01 BMatC= 1.57D-09 BMatP= 4.64D-09
 IDIUse=1 WtCom= 1.00D+00 WtEn= 0.00D+00
 Coeff-Com:  0.504D-05 0.115D-03 0.349D-03 0.601D-03 0.173D-03-0.795D-02
 Coeff-Com: -0.169D-01-0.293D-01 0.632D-01 0.439D+00 0.551D+00
 Coeff:      0.504D-05 0.115D-03 0.349D-03 0.601D-03 0.173D-03-0.795D-02
 Coeff:     -0.169D-01-0.293D-01 0.632D-01 0.439D+00 0.551D+00
 Gap=     0.277 Goal=   None    Shift=    0.000
 RMSDP=6.97D-08 MaxDP=7.19D-06 DE=-4.28D-09 OVMax= 1.37D-05

 Cycle  12  Pass 1  IDiag  1:
 RMSU=  4.00D-08    CP:  9.97D-01  7.21D-01  6.12D-01  6.71D-01  7.37D-01
                    CP:  1.03D+00  9.40D-01  1.12D+00  1.09D+00  1.07D+00
                    CP:  7.36D-01
 E= -2108.41848215251     Delta-E=       -0.000000001225 Rises=F Damp=F
 DIIS: error= 2.54D-07 at cycle  12 NSaved=  12.
 NSaved=12 IEnMin=12 EnMin= -2108.41848215251     IErMin=12 ErrMin= 2.54D-07
 ErrMax= 2.54D-07  0.00D+00 EMaxC= 1.00D-01 BMatC= 5.99D-11 BMatP= 1.57D-09
 IDIUse=1 WtCom= 1.00D+00 WtEn= 0.00D+00
 Coeff-Com:  0.643D-07 0.154D-04 0.504D-04 0.109D-03 0.282D-03 0.241D-03
 Coeff-Com: -0.903D-03-0.103D-01-0.193D-01 0.324D-01 0.151D+00 0.847D+00
 Coeff:      0.643D-07 0.154D-04 0.504D-04 0.109D-03 0.282D-03 0.241D-03
 Coeff:     -0.903D-03-0.103D-01-0.193D-01 0.324D-01 0.151D+00 0.847D+00
 Gap=     0.277 Goal=   None    Shift=    0.000
 RMSDP=2.03D-08 MaxDP=1.18D-06 DE=-1.23D-09 OVMax= 3.94D-06

 Cycle  13  Pass 1  IDiag  1:
 RMSU=  1.07D-08    CP:  9.97D-01  7.21D-01  6.12D-01  6.71D-01  7.37D-01
                    CP:  1.03D+00  9.41D-01  1.12D+00  1.10D+00  1.10D+00
                    CP:  8.28D-01  9.84D-01
 E= -2108.41848215254     Delta-E=       -0.000000000034 Rises=F Damp=F
 DIIS: error= 6.55D-08 at cycle  13 NSaved=  13.
 NSaved=13 IEnMin=13 EnMin= -2108.41848215254     IErMin=13 ErrMin= 6.55D-08
 ErrMax= 6.55D-08  0.00D+00 EMaxC= 1.00D-01 BMatC= 1.07D-11 BMatP= 5.99D-11
 IDIUse=1 WtCom= 1.00D+00 WtEn= 0.00D+00
 Coeff-Com: -0.489D-06-0.432D-05-0.111D-04-0.114D-04 0.119D-03 0.838D-03
 Coeff-Com:  0.124D-02-0.182D-02-0.150D-01-0.298D-01 0.897D-02 0.375D+00
 Coeff-Com:  0.661D+00
 Coeff:     -0.489D-06-0.432D-05-0.111D-04-0.114D-04 0.119D-03 0.838D-03
 Coeff:      0.124D-02-0.182D-02-0.150D-01-0.298D-01 0.897D-02 0.375D+00
 Coeff:      0.661D+00
 Gap=     0.277 Goal=   None    Shift=    0.000
 RMSDP=6.40D-09 MaxDP=4.28D-07 DE=-3.37D-11 OVMax= 7.62D-07

 Error on total polarization charges =  0.00495
 SCF Done:  E(RCAM-B3LYP) =  -2108.41848215     A.U. after   13 cycles
            NFock= 13  Conv=0.64D-08     -V/T= 2.0078
 KE= 2.092153193703D+03 PE=-1.339913746119D+04 EE= 4.980043844824D+03
 Leave Link  502 at Mon Feb  3 21:49:29 2025, MaxMem=  5368709120 cpu:      1302.1
 (Enter /home/k0335/k033513/app/g09/l601.exe)
 Copying SCF densities to generalized density rwf, IOpCl= 0 IROHF=0.

 **********************************************************************

            Population analysis using the SCF density.

 **********************************************************************

 Alpha  occ. eigenvalues --  -24.84015 -24.82713 -24.82706 -24.82582 -24.82341
 Alpha  occ. eigenvalues --  -24.82109 -24.82055 -24.81669 -24.81417 -24.81225
 Alpha  occ. eigenvalues --  -19.31507 -19.30168 -19.25155 -19.22099 -14.45274
 Alpha  occ. eigenvalues --  -14.40087 -10.52451 -10.49096 -10.48795 -10.47490
 Alpha  occ. eigenvalues --  -10.46791 -10.44245 -10.42576 -10.39975 -10.30111
 Alpha  occ. eigenvalues --  -10.29124 -10.27866 -10.27778 -10.25120 -10.24956
 Alpha  occ. eigenvalues --  -10.24776 -10.24547 -10.24239 -10.24128  -1.40534
 Alpha  occ. eigenvalues --   -1.38179  -1.38011  -1.37332  -1.34766  -1.33976
 Alpha  occ. eigenvalues --   -1.32726  -1.31716  -1.30755  -1.30493  -1.22058
 Alpha  occ. eigenvalues --   -1.19746  -1.14067  -1.12129  -1.01987  -0.99842
 Alpha  occ. eigenvalues --   -0.97388  -0.90087  -0.87920  -0.87763  -0.86971
 Alpha  occ. eigenvalues --   -0.84619  -0.81890  -0.80383  -0.77907  -0.77509
 Alpha  occ. eigenvalues --   -0.75913  -0.73811  -0.72259  -0.71298  -0.70471
 Alpha  occ. eigenvalues --   -0.70347  -0.69520  -0.68497  -0.67759  -0.67360
 Alpha  occ. eigenvalues --   -0.66937  -0.65853  -0.65542  -0.65192  -0.64521
 Alpha  occ. eigenvalues --   -0.64485  -0.63581  -0.63170  -0.62798  -0.61121
 Alpha  occ. eigenvalues --   -0.58203  -0.57618  -0.56866  -0.56362  -0.56278
 Alpha  occ. eigenvalues --   -0.55791  -0.55489  -0.55226  -0.54376  -0.54191
 Alpha  occ. eigenvalues --   -0.53945  -0.53588  -0.53387  -0.52905  -0.52559
 Alpha  occ. eigenvalues --   -0.52294  -0.52115  -0.51990  -0.51839  -0.51625
 Alpha  occ. eigenvalues --   -0.51117  -0.50861  -0.50705  -0.50090  -0.49863
 Alpha  occ. eigenvalues --   -0.49302  -0.49046  -0.48365  -0.48219  -0.48110
 Alpha  occ. eigenvalues --   -0.47757  -0.47618  -0.46568  -0.46284  -0.45210
 Alpha  occ. eigenvalues --   -0.44772  -0.44258  -0.43667  -0.43228  -0.42502
 Alpha  occ. eigenvalues --   -0.41999  -0.41695  -0.40905  -0.40723  -0.39236
 Alpha  occ. eigenvalues --   -0.38842  -0.38686  -0.38379  -0.37632  -0.37617
 Alpha  occ. eigenvalues --   -0.37448  -0.34669  -0.32810  -0.27784
 Alpha virt. eigenvalues --   -0.00039   0.02236   0.04531   0.08963   0.10352
 Alpha virt. eigenvalues --    0.11511   0.12416   0.13414   0.13923   0.14239
 Alpha virt. eigenvalues --    0.14645   0.15571   0.15666   0.16537   0.17749
 Alpha virt. eigenvalues --    0.18640   0.19554   0.19761   0.20160   0.20610
 Alpha virt. eigenvalues --    0.21154   0.21347   0.21901   0.21985   0.22217
 Alpha virt. eigenvalues --    0.22432   0.23041   0.23437   0.23544   0.24145
 Alpha virt. eigenvalues --    0.24635   0.25405   0.25562   0.26129   0.26696
 Alpha virt. eigenvalues --    0.27142   0.27246   0.28328   0.28449   0.28879
 Alpha virt. eigenvalues --    0.28912   0.29626   0.29886   0.30125   0.31187
 Alpha virt. eigenvalues --    0.31419   0.31692   0.32423   0.32577   0.33272
 Alpha virt. eigenvalues --    0.33512   0.34268   0.34572   0.35160   0.36147
 Alpha virt. eigenvalues --    0.36519   0.38574   0.40398   0.42341   0.44430
 Alpha virt. eigenvalues --    0.48929   0.50430   0.51083   0.52874   0.54144
 Alpha virt. eigenvalues --    0.54928   0.55207   0.55710   0.56258   0.56728
 Alpha virt. eigenvalues --    0.57883   0.58083   0.58385   0.58896   0.59833
 Alpha virt. eigenvalues --    0.60288   0.60604   0.61264   0.61411   0.62101
 Alpha virt. eigenvalues --    0.62284   0.63886   0.64280   0.64814   0.65075
 Alpha virt. eigenvalues --    0.65546   0.67179   0.67859   0.68480   0.69483
 Alpha virt. eigenvalues --    0.69588   0.70363   0.70592   0.70917   0.72235
 Alpha virt. eigenvalues --    0.72815   0.73202   0.74249   0.74811   0.75393
 Alpha virt. eigenvalues --    0.75967   0.76112   0.77154   0.77388   0.78371
 Alpha virt. eigenvalues --    0.79039   0.80075   0.81058   0.82606   0.83146
 Alpha virt. eigenvalues --    0.84304   0.85002   0.85802   0.87361   0.88235
 Alpha virt. eigenvalues --    0.88735   0.89473   0.89678   0.90479   0.90674
 Alpha virt. eigenvalues --    0.91616   0.92136   0.92406   0.92528   0.92960
 Alpha virt. eigenvalues --    0.93714   0.94007   0.94881   0.95525   0.95829
 Alpha virt. eigenvalues --    0.96148   0.96545   0.97415   0.98367   0.99239
 Alpha virt. eigenvalues --    0.99548   0.99904   1.00240   1.00743   1.01063
 Alpha virt. eigenvalues --    1.01701   1.02588   1.03012   1.03792   1.03979
 Alpha virt. eigenvalues --    1.04741   1.04908   1.05660   1.06423   1.07738
 Alpha virt. eigenvalues --    1.08218   1.08833   1.09524   1.10202   1.11213
 Alpha virt. eigenvalues --    1.11439   1.13456   1.14061   1.14909   1.15709
 Alpha virt. eigenvalues --    1.16728   1.17053   1.17619   1.19295   1.19834
 Alpha virt. eigenvalues --    1.20883   1.21588   1.22992   1.23455   1.25089
 Alpha virt. eigenvalues --    1.26780   1.27201   1.27804   1.28842   1.28864
 Alpha virt. eigenvalues --    1.30274   1.31398   1.32139   1.32881   1.33993
 Alpha virt. eigenvalues --    1.34829   1.35229   1.35703   1.36430   1.36894
 Alpha virt. eigenvalues --    1.37342   1.37655   1.38143   1.38709   1.39553
 Alpha virt. eigenvalues --    1.40282   1.40635   1.41584   1.42605   1.42791
 Alpha virt. eigenvalues --    1.43538   1.44571   1.45107   1.45826   1.46891
 Alpha virt. eigenvalues --    1.47406   1.49054   1.49827   1.49920   1.50705
 Alpha virt. eigenvalues --    1.51451   1.53482   1.54942   1.55066   1.55537
 Alpha virt. eigenvalues --    1.56125   1.56566   1.57915   1.58159   1.59601
 Alpha virt. eigenvalues --    1.60293   1.61911   1.62730   1.63404   1.63767
 Alpha virt. eigenvalues --    1.64434   1.65201   1.65634   1.66582   1.68295
 Alpha virt. eigenvalues --    1.69249   1.70736   1.71129   1.72032   1.72255
 Alpha virt. eigenvalues --    1.72382   1.72932   1.73842   1.74448   1.74759
 Alpha virt. eigenvalues --    1.75485   1.76895   1.77073   1.77915   1.78278
 Alpha virt. eigenvalues --    1.78525   1.78952   1.79800   1.80116   1.81504
 Alpha virt. eigenvalues --    1.81727   1.82201   1.82633   1.84221   1.84375
 Alpha virt. eigenvalues --    1.85230   1.86134   1.86798   1.87332   1.87853
 Alpha virt. eigenvalues --    1.88169   1.88614   1.88948   1.89939   1.90515
 Alpha virt. eigenvalues --    1.91139   1.92844   1.93007   1.93265   1.93486
 Alpha virt. eigenvalues --    1.94341   1.94899   1.95107   1.95525   1.95961
 Alpha virt. eigenvalues --    1.96776   1.97252   1.98724   1.99081   1.99717
 Alpha virt. eigenvalues --    2.00857   2.01131   2.02167   2.02531   2.02940
 Alpha virt. eigenvalues --    2.03439   2.03756   2.04263   2.04838   2.05888
 Alpha virt. eigenvalues --    2.06669   2.07526   2.07862   2.08664   2.08773
 Alpha virt. eigenvalues --    2.09407   2.10116   2.10651   2.11160   2.11597
 Alpha virt. eigenvalues --    2.11875   2.12719   2.12952   2.13069   2.13307
 Alpha virt. eigenvalues --    2.14386   2.14456   2.14507   2.14988   2.15565
 Alpha virt. eigenvalues --    2.15928   2.17157   2.18278   2.18557   2.18977
 Alpha virt. eigenvalues --    2.19348   2.19557   2.20661   2.21786   2.22323
 Alpha virt. eigenvalues --    2.22697   2.23315   2.23635   2.24564   2.25471
 Alpha virt. eigenvalues --    2.26126   2.26894   2.28180   2.28718   2.29161
 Alpha virt. eigenvalues --    2.30638   2.31944   2.32477   2.32844   2.33490
 Alpha virt. eigenvalues --    2.34074   2.34686   2.35295   2.35797   2.36330
 Alpha virt. eigenvalues --    2.36938   2.37425   2.37905   2.38578   2.39525
 Alpha virt. eigenvalues --    2.40342   2.40754   2.41392   2.41702   2.43164
 Alpha virt. eigenvalues --    2.43689   2.44301   2.45220   2.46095   2.47032
 Alpha virt. eigenvalues --    2.48899   2.49747   2.50426   2.52236   2.53107
 Alpha virt. eigenvalues --    2.53973   2.54691   2.54965   2.57069   2.57656
 Alpha virt. eigenvalues --    2.58175   2.58273   2.60085   2.60698   2.61085
 Alpha virt. eigenvalues --    2.62301   2.62850   2.64546   2.65347   2.66252
 Alpha virt. eigenvalues --    2.67554   2.67944   2.68453   2.69550   2.70253
 Alpha virt. eigenvalues --    2.70879   2.72354   2.73399   2.73930   2.74556
 Alpha virt. eigenvalues --    2.74794   2.76369   2.77420   2.78227   2.79025
 Alpha virt. eigenvalues --    2.79848   2.80324   2.80531   2.82082   2.82728
 Alpha virt. eigenvalues --    2.83213   2.84542   2.85076   2.86337   2.86777
 Alpha virt. eigenvalues --    2.87655   2.88588   2.88844   2.89621   2.89885
 Alpha virt. eigenvalues --    2.90736   2.91496   2.92256   2.92857   2.93739
 Alpha virt. eigenvalues --    2.94671   2.94997   2.95669   2.96638   2.97214
 Alpha virt. eigenvalues --    2.97547   2.98326   2.98706   2.99304   3.00267
 Alpha virt. eigenvalues --    3.00621   3.00719   3.01345   3.02340   3.03292
 Alpha virt. eigenvalues --    3.05312   3.05736   3.07978   3.08135   3.10130
 Alpha virt. eigenvalues --    3.10830   3.12100   3.14189   3.16281   3.18019
 Alpha virt. eigenvalues --    3.18696   3.22249   3.25426   3.26683   3.26882
 Alpha virt. eigenvalues --    3.27567   3.27684   3.29918   3.32024   3.32882
 Alpha virt. eigenvalues --    3.34953   3.35568   3.36134   3.38855   3.40068
 Alpha virt. eigenvalues --    3.41554   3.41922   3.43775   3.44747   3.46316
 Alpha virt. eigenvalues --    3.48095   3.49310   3.52383   3.54571   3.56124
 Alpha virt. eigenvalues --    3.56716   3.57055   3.60978   3.62975   3.63548
 Alpha virt. eigenvalues --    3.66021   3.66994   3.96625   4.08076   4.13629
 Alpha virt. eigenvalues --    4.19068   4.22887   4.26578   4.35445   4.37548
 Alpha virt. eigenvalues --    4.37806   4.39768   4.45231   4.52371   4.54235
 Alpha virt. eigenvalues --    4.54419   4.55469   4.59670   4.67295   4.67811
 Alpha virt. eigenvalues --    4.69782   4.74005   4.77262   4.77811   4.81876
 Alpha virt. eigenvalues --    4.86091   5.00052   5.09007   5.17276   5.37599
 Alpha virt. eigenvalues --    5.49880   5.54378   6.00456   6.23155   6.61698
 Alpha virt. eigenvalues --    7.15116
          Condensed to atoms (all electrons):
 Mulliken charges:
               1
     1  F   -0.237306
     2  C    0.749614
     3  F   -0.246913
     4  C    0.546717
     5  F   -0.245804
     6  F   -0.265616
     7  C    0.131115
     8  F   -0.282923
     9  C    0.627999
    10  F   -0.262707
    11  C    0.526048
    12  O   -0.472357
    13  O   -0.444716
    14  F   -0.275945
    15  C    0.485929
    16  F   -0.270531
    17  C    0.548319
    18  F   -0.275428
    19  C    0.578434
    20  N   -0.568805
    21  C   -0.033464
    22  C   -0.047069
    23  N   -0.441014
    24  C   -0.041450
    25  C   -0.183085
    26  C   -0.162051
    27  C   -0.319382
    28  C   -0.037077
    29  C   -0.174172
    30  C   -0.186229
    31  C   -0.317839
    32  O   -0.492337
    33  F   -0.281893
    34  O   -0.488712
    35  H    0.361202
    36  H    0.284617
    37  H    0.132888
    38  H    0.148024
    39  H    0.096096
    40  H    0.095511
    41  H    0.103044
    42  H    0.077095
    43  H    0.093627
    44  H    0.088992
    45  H    0.106343
    46  H    0.090038
    47  H    0.100152
    48  H    0.099025
    49  H    0.100796
    50  H    0.098620
    51  H    0.085031
    52  H    0.093041
    53  H    0.103419
    54  H    0.096550
    55  H    0.095847
    56  H    0.102921
    57  H    0.101896
    58  H    0.105874
 Sum of Mulliken charges =   0.00000
 Mulliken charges with hydrogens summed into heavy atoms:
               1
     1  F   -0.237306
     2  C    0.749614
     3  F   -0.246913
     4  C    0.546717
     5  F   -0.245804
     6  F   -0.265616
     7  C    0.131115
     8  F   -0.282923
     9  C    0.627999
    10  F   -0.262707
    11  C    0.526048
    12  O   -0.111155
    13  O   -0.444716
    14  F   -0.275945
    15  C    0.485929
    16  F   -0.270531
    17  C    0.548319
    18  F   -0.275428
    19  C    0.578434
    20  N   -0.284188
    21  C    0.247448
    22  C    0.144537
    23  N   -0.441014
    24  C    0.138689
    25  C   -0.000466
    26  C    0.034331
    27  C   -0.019410
    28  C    0.146573
    29  C    0.022288
    30  C    0.006168
    31  C   -0.007147
    32  O   -0.492337
    33  F   -0.281893
    34  O   -0.488712
 Electronic spatial extent (au):  <R**2>=          29676.1213
 Charge=              0.0000 electrons
 Dipole moment (field-independent basis, Debye):
    X=             -2.1107    Y=              2.1736    Z=             -3.9826  Tot=              5.0041
 Quadrupole moment (field-independent basis, Debye-Ang):
   XX=           -181.2411   YY=           -197.2237   ZZ=           -197.7297
   XY=              9.2508   XZ=            -18.3452   YZ=              0.2614
 Traceless Quadrupole moment (field-independent basis, Debye-Ang):
   XX=             10.8237   YY=             -5.1589   ZZ=             -5.6649
   XY=              9.2508   XZ=            -18.3452   YZ=              0.2614
 Octapole moment (field-independent basis, Debye-Ang**2):
  XXX=           -928.3907  YYY=             -7.7744  ZZZ=            -74.9023  XYY=           -354.3744
  XXY=             24.9307  XXZ=           -216.9937  XZZ=           -356.3201  YZZ=              7.7010
  YYZ=            -25.8289  XYZ=              4.8343
 Hexadecapole moment (field-independent basis, Debye-Ang**3):
 XXXX=         -27864.7755 YYYY=          -3671.8834 ZZZZ=          -1722.4049 XXXY=            -69.0131
 XXXZ=          -2687.9081 YYYX=           -248.7565 YYYZ=             48.0122 ZZZX=           -898.1353
 ZZZY=             50.5337 XXYY=          -5577.0273 XXZZ=          -5167.3306 YYZZ=           -890.0120
 XXYZ=            -49.4519 YYXZ=           -303.5599 ZZXY=            -70.9121
 N-N= 4.218521940510D+03 E-N=-1.339913746428D+04  KE= 2.092153193703D+03
 No NMR shielding tensors so no spin-rotation constants.
 Leave Link  601 at Mon Feb  3 21:49:30 2025, MaxMem=  5368709120 cpu:         4.7
 (Enter /home/k0335/k033513/app/g09/l9999.exe)
 1\1\GINC-C15U05N1\SP\RCAM-B3LYP\6-31G(d,p)\C18H24F10N2O4\K033513\03-Fe
 b-2025\0\\#p CAM-B3LYP/6-31G(d,p) SCRF=(PCM,Solvent=Generic,Read) NoSy
 mm out=wfn\\Title DBE1_neu\\0,1\F,0,6.200479,0.233704,2.850674\C,0,5.3
 00728,0.910775,2.111184\F,0,4.868022,1.948764,2.853544\C,0,5.858995,1.
 334841,0.771738\F,0,7.11233,1.810286,0.79616\F,0,5.090347,2.33943,0.26
 3954\C,0,5.669477,0.105597,-0.065771\F,0,5.577578,0.45102,-1.380485\C,
 0,6.772359,-0.930541,0.076855\F,0,6.80534,-1.416249,1.346205\C,0,8.137
 885,-0.374077,-0.327851\O,0,8.295248,-0.2033,-1.657843\O,0,9.050526,-0
 .078583,0.429479\F,0,6.458341,-2.007597,-0.708122\C,0,4.339217,-0.4185
 87,0.492835\F,0,4.36641,-1.778091,0.533332\C,0,3.12539,0.013038,-0.351
 511\F,0,3.292784,-0.407819,-1.641796\C,0,1.787337,-0.518463,0.199282\N
 ,0,0.677945,0.048581,-0.423656\C,0,-0.671574,-0.210054,0.057223\C,0,-1
 .720857,-0.003503,-1.052126\N,0,-3.112175,-0.07284,-0.55836\C,0,-4.040
 267,0.563701,-1.515693\C,0,-4.012053,2.100494,-1.47141\C,0,-4.350942,2
 .663009,-0.088558\C,0,-4.398043,4.183096,-0.104283\C,0,-3.508632,-1.47
 3973,-0.300315\C,0,-4.681449,-1.555896,0.689429\C,0,-5.007071,-2.99063
 6,1.116226\C,0,-5.517735,-3.859866,-0.022502\O,0,1.682204,-1.375047,1.
 07167\F,0,3.073824,1.376604,-0.429881\O,0,4.211265,0.032126,1.860297\H
 ,0,9.213455,0.126802,-1.768205\H,0,0.835513,0.907511,-0.942056\H,0,-0.
 849129,0.486357,0.884943\H,0,-0.712694,-1.225731,0.461387\H,0,-1.52403
 2,0.984799,-1.483258\H,0,-1.556226,-0.722444,-1.86597\H,0,-5.074303,0.
 268835,-1.304431\H,0,-3.832916,0.221682,-2.538242\H,0,-4.744571,2.4732
 74,-2.198832\H,0,-3.038888,2.48293,-1.798021\H,0,-3.604447,2.34134,0.6
 46305\H,0,-5.321986,2.276813,0.242543\H,0,-5.160719,4.54518,-0.801123\
 H,0,-3.431925,4.602106,-0.403264\H,0,-4.640242,4.564942,0.892478\H,0,-
 2.679049,-2.030733,0.148369\H,0,-3.748662,-1.981902,-1.24235\H,0,-5.58
 4636,-1.10007,0.269575\H,0,-4.428866,-0.982572,1.590727\H,0,-4.122239,
 -3.457835,1.564003\H,0,-5.775055,-2.95401,1.898191\H,0,-5.824483,-4.83
 8427,0.36074\H,0,-6.383421,-3.400559,-0.510047\H,0,-4.743712,-4.028235
 ,-0.776923\\Version=ES64L-G09RevD.01\HF=-2108.4184822\RMSD=6.397e-09\D
 ipole=-0.830408,0.8551579,-1.5668938\Quadrupole=8.0471721,-3.83548,-4.
 2116921,6.8777764,-13.6392076,0.194325\PG=C01 [X(C18H24F10N2O4)]\\@

 Writing a WFN file to "cytop/DBE1/DBE1_neu.wfn"


     ON THE SURVIVAL OF THE FITTEST -
 "STRONG REPRESENTATIVES FROM EACH PAST ERA THRIVE TODAY,
 SUCH AS PROGRAMMING IN THE THIRTY YEAR OLD LANGUAGE KNOWN
 AS FORTRAN, AND EVEN IN THE ANCIENT SCRIPT KNOWN AS DIRECT
 MACHINE CODE. SOME PEOPLE MIGHT LOOK ON SUCH RELICS AS LIVING
 FOSSILS; OTHERS WOULD POINT OUT THAT EVEN A VERY OLD SPECIES
 MIGHT STILL BE FILLING A PARTICULAR ECOLOGICAL NICHE."
     -- ALAN KAY, SCI.AM. SEPTEMBER 1984
 Job cpu time:       0 days  0 hours 22 minutes 25.5 seconds.
 File lengths (MBytes):  RWF=    499 Int=      0 D2E=      0 Chk=     16 Scr=      1
 Normal termination of Gaussian 09 at Mon Feb  3 21:49:30 2025.
