 Entering Gaussian System, Link 0=g09
 Initial command:
 /home/k0335/k033513/app/g09/l1.exe "/home/k0335/k033513/app/g09/scratch/Gau-658735.inp" -scrdir="/home/k0335/k033513/app/g09/scratch/"
 Default is to use a total of  36 processors:
                               36 via shared-memory
                                1 via Linda
 Entering Link 1 = /home/k0335/k033513/app/g09/l1.exe PID=    658736.
  
 Copyright (c) 1988,1990,1992,1993,1995,1998,2003,2009,2013,
            Gaussian, Inc.  All Rights Reserved.
  
 This is part of the Gaussian(R) 09 program.  It is based on
 the Gaussian(R) 03 system (copyright 2003, Gaussian, Inc.),
 the Gaussian(R) 98 system (copyright 1998, Gaussian, Inc.),
 the Gaussian(R) 94 system (copyright 1995, Gaussian, Inc.),
 the Gaussian 92(TM) system (copyright 1992, Gaussian, Inc.),
 the Gaussian 90(TM) system (copyright 1990, Gaussian, Inc.),
 the Gaussian 88(TM) system (copyright 1988, Gaussian, Inc.),
 the Gaussian 86(TM) system (copyright 1986, Carnegie Mellon
 University), and the Gaussian 82(TM) system (copyright 1983,
 Carnegie Mellon University). Gaussian is a federally registered
 trademark of Gaussian, Inc.
  
 This software contains proprietary and confidential information,
 including trade secrets, belonging to Gaussian, Inc.
  
 This software is provided under written license and may be
 used, copied, transmitted, or stored only in accord with that
 written license.
  
 The following legend is applicable only to US Government
 contracts under FAR:
  
                    RESTRICTED RIGHTS LEGEND
  
 Use, reproduction and disclosure by the US Government is
 subject to restrictions as set forth in subparagraphs (a)
 and (c) of the Commercial Computer Software - Restricted
 Rights clause in FAR 52.227-19.
  
 Gaussian, Inc.
 340 Quinnipiac St., Bldg. 40, Wallingford CT 06492
  
  
 ---------------------------------------------------------------
 Warning -- This program may not be used in any manner that
 competes with the business of Gaussian, Inc. or will provide
 assistance to any competitor of Gaussian, Inc.  The licensee
 of this program is prohibited from giving any competitor of
 Gaussian, Inc. access to this program.  By using this program,
 the user acknowledges that Gaussian, Inc. is engaged in the
 business of creating and licensing software in the field of
 computational chemistry and represents and warrants to the
 licensee that it is not a competitor of Gaussian, Inc. and that
 it will not use this program in any manner prohibited above.
 ---------------------------------------------------------------
  

 Cite this work as:
 Gaussian 09, Revision D.01,
 M. J. Frisch, G. W. Trucks, H. B. Schlegel, G. E. Scuseria, 
 M. A. Robb, J. R. Cheeseman, G. Scalmani, V. Barone, B. Mennucci, 
 G. A. Petersson, H. Nakatsuji, M. Caricato, X. Li, H. P. Hratchian, 
 A. F. Izmaylov, J. Bloino, G. Zheng, J. L. Sonnenberg, M. Hada, 
 M. Ehara, K. Toyota, R. Fukuda, J. Hasegawa, M. Ishida, T. Nakajima, 
 Y. Honda, O. Kitao, H. Nakai, T. Vreven, J. A. Montgomery, Jr., 
 J. E. Peralta, F. Ogliaro, M. Bearpark, J. J. Heyd, E. Brothers, 
 K. N. Kudin, V. N. Staroverov, T. Keith, R. Kobayashi, J. Normand, 
 K. Raghavachari, A. Rendell, J. C. Burant, S. S. Iyengar, J. Tomasi, 
 M. Cossi, N. Rega, J. M. Millam, M. Klene, J. E. Knox, J. B. Cross, 
 V. Bakken, C. Adamo, J. Jaramillo, R. Gomperts, R. E. Stratmann, 
 O. Yazyev, A. J. Austin, R. Cammi, C. Pomelli, J. W. Ochterski, 
 R. L. Martin, K. Morokuma, V. G. Zakrzewski, G. A. Voth, 
 P. Salvador, J. J. Dannenberg, S. Dapprich, A. D. Daniels, 
 O. Farkas, J. B. Foresman, J. V. Ortiz, J. Cioslowski, 
 and D. J. Fox, Gaussian, Inc., Wallingford CT, 2013.
 
 ******************************************
 Gaussian 09:  ES64L-G09RevD.01 24-Apr-2013
                 6-Feb-2025 
 ******************************************
 %nprocshared=24
 Will use up to   24 processors via shared memory.
 %mem=40GB
 %rwf=cytopopt/S2/S2_neu.rwf
 %nosave
 %chk=cytopopt/S2/S2_neu.chk
 ----------------------------------------------------------------------
 #p CAM-B3LYP/6-31G(d,p) opt SCRF=(PCM,Solvent=Generic,Read) NoSymm out
 =wfn
 ----------------------------------------------------------------------
 1/14=-1,18=20,19=15,26=3,38=1,40=2/1,3;
 2/9=110,12=2,15=1,17=6,18=5,40=1/2;
 3/5=1,6=6,7=101,11=2,16=1,25=1,30=1,70=2203,71=1,72=-2,74=-40/1,2,3;
 4//1;
 5/5=2,38=5/2;
 6/7=2,8=2,9=2,10=2,28=1/1;
 7/30=1/1,2,3,16;
 1/14=-1,18=20,19=15,26=3/3(2);
 2/9=110,15=1/2;
 99/6=100/99;
 2/9=110,15=1/2;
 3/5=1,6=6,7=101,11=2,16=1,25=1,30=1,70=2205,71=1,72=-2,74=-40/1,2,3;
 4/5=5,16=3,69=1/1;
 5/5=2,38=5/2;
 7/30=1/1,2,3,16;
 1/14=-1,18=20,19=15,26=3/3(-5);
 2/9=110,15=1/2;
 6/7=2,8=2,9=2,10=2,19=2,28=1/1;
 99/6=100,9=1/99;
 Leave Link    1 at Thu Feb  6 02:09:58 2025, MaxMem=  5368709120 cpu:         0.9
 (Enter /home/k0335/k033513/app/g09/l101.exe)
 ------------
 Title S2_neu
 ------------
 Symbolic Z-matrix:
 Charge =  0 Multiplicity = 1
 F                    -0.21652  -0.18079   1.42478 
 C                     0.35816  -0.24255   0.19014 
 C                     1.34509   0.89344   0.01031 
 F                     0.65629   2.0683    0.03377 
 C                     2.44552   0.9261    1.06803 
 F                     3.23998   2.01247   0.92168 
 F                     3.24781  -0.15806   0.99409 
 F                     1.93627   0.96675   2.31927 
 F                     1.90296   0.84361  -1.23044 
 C                    -0.76059  -0.28827  -0.8603 
 O                    -0.97873  -1.6835   -1.21563 
 C                    -0.20059  -2.43721  -0.30098 
 F                     0.10059  -3.63105  -0.83995 
 F                    -0.97405  -2.64945   0.78475 
 C                     1.0013   -1.58764   0.01639 
 F                     1.68504  -1.98375   1.10364 
 F                     1.86897  -1.57343  -1.02315 
 C                    -2.12949   0.28683  -0.45345 
 F                    -3.0066    0.06873  -1.48462 
 C                    -2.1356    1.76158  -0.10226 
 F                    -3.3899    2.21428   0.13527 
 F                    -1.61657   2.51956  -1.09263 
 F                    -1.41984   2.0061    1.01958 
 F                    -2.62267  -0.44149   0.59301 
 F                    -0.33683   0.28946  -2.01131 
 
 NAtoms=     25 NQM=       25 NQMF=       0 NMMI=      0 NMMIF=      0
                NMic=       0 NMicF=      0.
                    Isotopes and Nuclear Properties:
 (Nuclear quadrupole moments (NQMom) in fm**2, nuclear magnetic moments (NMagM)
  in nuclear magnetons)

  Atom         1           2           3           4           5           6           7           8           9          10
 IAtWgt=          19          12          12          19          12          19          19          19          19          12
 AtmWgt=  18.9984033  12.0000000  12.0000000  18.9984033  12.0000000  18.9984033  18.9984033  18.9984033  18.9984033  12.0000000
 NucSpn=           1           0           0           1           0           1           1           1           1           0
 AtZEff=   0.0000000   0.0000000   0.0000000   0.0000000   0.0000000   0.0000000   0.0000000   0.0000000   0.0000000   0.0000000
 NQMom=    0.0000000   0.0000000   0.0000000   0.0000000   0.0000000   0.0000000   0.0000000   0.0000000   0.0000000   0.0000000
 NMagM=    2.6288670   0.0000000   0.0000000   2.6288670   0.0000000   2.6288670   2.6288670   2.6288670   2.6288670   0.0000000
 AtZNuc=   9.0000000   6.0000000   6.0000000   9.0000000   6.0000000   9.0000000   9.0000000   9.0000000   9.0000000   6.0000000

  Atom        11          12          13          14          15          16          17          18          19          20
 IAtWgt=          16          12          19          19          12          19          19          12          19          12
 AtmWgt=  15.9949146  12.0000000  18.9984033  18.9984033  12.0000000  18.9984033  18.9984033  12.0000000  18.9984033  12.0000000
 NucSpn=           0           0           1           1           0           1           1           0           1           0
 AtZEff=   0.0000000   0.0000000   0.0000000   0.0000000   0.0000000   0.0000000   0.0000000   0.0000000   0.0000000   0.0000000
 NQMom=    0.0000000   0.0000000   0.0000000   0.0000000   0.0000000   0.0000000   0.0000000   0.0000000   0.0000000   0.0000000
 NMagM=    0.0000000   0.0000000   2.6288670   2.6288670   0.0000000   2.6288670   2.6288670   0.0000000   2.6288670   0.0000000
 AtZNuc=   8.0000000   6.0000000   9.0000000   9.0000000   6.0000000   9.0000000   9.0000000   6.0000000   9.0000000   6.0000000

  Atom        21          22          23          24          25
 IAtWgt=          19          19          19          19          19
 AtmWgt=  18.9984033  18.9984033  18.9984033  18.9984033  18.9984033
 NucSpn=           1           1           1           1           1
 AtZEff=   0.0000000   0.0000000   0.0000000   0.0000000   0.0000000
 NQMom=    0.0000000   0.0000000   0.0000000   0.0000000   0.0000000
 NMagM=    2.6288670   2.6288670   2.6288670   2.6288670   2.6288670
 AtZNuc=   9.0000000   9.0000000   9.0000000   9.0000000   9.0000000
 Leave Link  101 at Thu Feb  6 02:09:58 2025, MaxMem=  5368709120 cpu:         4.3
 (Enter /home/k0335/k033513/app/g09/l103.exe)

 GradGradGradGradGradGradGradGradGradGradGradGradGradGradGradGradGradGrad
 Berny optimization.
 Initialization pass.
                           ----------------------------
                           !    Initial Parameters    !
                           ! (Angstroms and Degrees)  !
 --------------------------                            --------------------------
 ! Name  Definition              Value          Derivative Info.                !
 --------------------------------------------------------------------------------
 ! R1    R(1,2)                  1.3632         estimate D2E/DX2                !
 ! R2    R(2,3)                  1.5155         estimate D2E/DX2                !
 ! R3    R(2,10)                 1.5353         estimate D2E/DX2                !
 ! R4    R(2,15)                 1.501          estimate D2E/DX2                !
 ! R5    R(3,4)                  1.3621         estimate D2E/DX2                !
 ! R6    R(3,5)                  1.5267         estimate D2E/DX2                !
 ! R7    R(3,9)                  1.3613         estimate D2E/DX2                !
 ! R8    R(5,6)                  1.3538         estimate D2E/DX2                !
 ! R9    R(5,7)                  1.3508         estimate D2E/DX2                !
 ! R10   R(5,8)                  1.3515         estimate D2E/DX2                !
 ! R11   R(10,11)                1.4562         estimate D2E/DX2                !
 ! R12   R(10,18)                1.5395         estimate D2E/DX2                !
 ! R13   R(10,25)                1.3558         estimate D2E/DX2                !
 ! R14   R(11,12)                1.4178         estimate D2E/DX2                !
 ! R15   R(12,13)                1.344          estimate D2E/DX2                !
 ! R16   R(12,14)                1.3499         estimate D2E/DX2                !
 ! R17   R(12,15)                1.5057         estimate D2E/DX2                !
 ! R18   R(15,16)                1.3441         estimate D2E/DX2                !
 ! R19   R(15,17)                1.3541         estimate D2E/DX2                !
 ! R20   R(18,19)                1.3712         estimate D2E/DX2                !
 ! R21   R(18,20)                1.516          estimate D2E/DX2                !
 ! R22   R(18,24)                1.367          estimate D2E/DX2                !
 ! R23   R(20,21)                1.3545         estimate D2E/DX2                !
 ! R24   R(20,22)                1.3508         estimate D2E/DX2                !
 ! R25   R(20,23)                1.353          estimate D2E/DX2                !
 ! A1    A(1,2,3)              110.3672         estimate D2E/DX2                !
 ! A2    A(1,2,10)             108.289          estimate D2E/DX2                !
 ! A3    A(1,2,15)             109.0292         estimate D2E/DX2                !
 ! A4    A(3,2,10)             114.5618         estimate D2E/DX2                !
 ! A5    A(3,2,15)             112.2682         estimate D2E/DX2                !
 ! A6    A(10,2,15)            101.9072         estimate D2E/DX2                !
 ! A7    A(2,3,4)              108.3714         estimate D2E/DX2                !
 ! A8    A(2,3,5)              113.7797         estimate D2E/DX2                !
 ! A9    A(2,3,9)              110.3396         estimate D2E/DX2                !
 ! A10   A(4,3,5)              109.5184         estimate D2E/DX2                !
 ! A11   A(4,3,9)              104.7443         estimate D2E/DX2                !
 ! A12   A(5,3,9)              109.6855         estimate D2E/DX2                !
 ! A13   A(3,5,6)              111.4238         estimate D2E/DX2                !
 ! A14   A(3,5,7)              111.902          estimate D2E/DX2                !
 ! A15   A(3,5,8)              111.7442         estimate D2E/DX2                !
 ! A16   A(6,5,7)              106.8344         estimate D2E/DX2                !
 ! A17   A(6,5,8)              107.2819         estimate D2E/DX2                !
 ! A18   A(7,5,8)              107.3745         estimate D2E/DX2                !
 ! A19   A(2,10,11)            107.7371         estimate D2E/DX2                !
 ! A20   A(2,10,18)            117.1288         estimate D2E/DX2                !
 ! A21   A(2,10,25)            109.9012         estimate D2E/DX2                !
 ! A22   A(11,10,18)           106.8106         estimate D2E/DX2                !
 ! A23   A(11,10,25)           104.3557         estimate D2E/DX2                !
 ! A24   A(18,10,25)           110.0651         estimate D2E/DX2                !
 ! A25   A(10,11,12)           105.647          estimate D2E/DX2                !
 ! A26   A(11,12,13)           109.6627         estimate D2E/DX2                !
 ! A27   A(11,12,14)           106.7376         estimate D2E/DX2                !
 ! A28   A(11,12,15)           105.9099         estimate D2E/DX2                !
 ! A29   A(13,12,14)           108.1367         estimate D2E/DX2                !
 ! A30   A(13,12,15)           114.0069         estimate D2E/DX2                !
 ! A31   A(14,12,15)           112.1214         estimate D2E/DX2                !
 ! A32   A(2,15,12)            100.8372         estimate D2E/DX2                !
 ! A33   A(2,15,16)            112.8558         estimate D2E/DX2                !
 ! A34   A(2,15,17)            110.7319         estimate D2E/DX2                !
 ! A35   A(12,15,16)           114.2234         estimate D2E/DX2                !
 ! A36   A(12,15,17)           110.8294         estimate D2E/DX2                !
 ! A37   A(16,15,17)           107.3451         estimate D2E/DX2                !
 ! A38   A(10,18,19)           108.0961         estimate D2E/DX2                !
 ! A39   A(10,18,20)           115.353          estimate D2E/DX2                !
 ! A40   A(10,18,24)           108.9084         estimate D2E/DX2                !
 ! A41   A(19,18,20)           109.0483         estimate D2E/DX2                !
 ! A42   A(19,18,24)           105.0794         estimate D2E/DX2                !
 ! A43   A(20,18,24)           109.8462         estimate D2E/DX2                !
 ! A44   A(18,20,21)           111.6837         estimate D2E/DX2                !
 ! A45   A(18,20,22)           111.9912         estimate D2E/DX2                !
 ! A46   A(18,20,23)           111.4538         estimate D2E/DX2                !
 ! A47   A(21,20,22)           107.2679         estimate D2E/DX2                !
 ! A48   A(21,20,23)           106.5037         estimate D2E/DX2                !
 ! A49   A(22,20,23)           107.6515         estimate D2E/DX2                !
 ! D1    D(1,2,3,4)            -64.8906         estimate D2E/DX2                !
 ! D2    D(1,2,3,5)             57.1856         estimate D2E/DX2                !
 ! D3    D(1,2,3,9)           -179.0399         estimate D2E/DX2                !
 ! D4    D(10,2,3,4)            57.6374         estimate D2E/DX2                !
 ! D5    D(10,2,3,5)           179.7135         estimate D2E/DX2                !
 ! D6    D(10,2,3,9)           -56.5119         estimate D2E/DX2                !
 ! D7    D(15,2,3,4)           173.2498         estimate D2E/DX2                !
 ! D8    D(15,2,3,5)           -64.674          estimate D2E/DX2                !
 ! D9    D(15,2,3,9)            59.1005         estimate D2E/DX2                !
 ! D10   D(1,2,10,11)          -96.7087         estimate D2E/DX2                !
 ! D11   D(1,2,10,18)           23.6265         estimate D2E/DX2                !
 ! D12   D(1,2,10,25)          150.1723         estimate D2E/DX2                !
 ! D13   D(3,2,10,11)          139.6445         estimate D2E/DX2                !
 ! D14   D(3,2,10,18)         -100.0202         estimate D2E/DX2                !
 ! D15   D(3,2,10,25)           26.5255         estimate D2E/DX2                !
 ! D16   D(15,2,10,11)          18.1662         estimate D2E/DX2                !
 ! D17   D(15,2,10,18)         138.5015         estimate D2E/DX2                !
 ! D18   D(15,2,10,25)         -94.9528         estimate D2E/DX2                !
 ! D19   D(1,2,15,12)           78.7366         estimate D2E/DX2                !
 ! D20   D(1,2,15,16)          -43.5416         estimate D2E/DX2                !
 ! D21   D(1,2,15,17)         -163.9041         estimate D2E/DX2                !
 ! D22   D(3,2,15,12)         -158.6442         estimate D2E/DX2                !
 ! D23   D(3,2,15,16)           79.0776         estimate D2E/DX2                !
 ! D24   D(3,2,15,17)          -41.2849         estimate D2E/DX2                !
 ! D25   D(10,2,15,12)         -35.5925         estimate D2E/DX2                !
 ! D26   D(10,2,15,16)        -157.8706         estimate D2E/DX2                !
 ! D27   D(10,2,15,17)          81.7668         estimate D2E/DX2                !
 ! D28   D(2,3,5,6)           -175.4529         estimate D2E/DX2                !
 ! D29   D(2,3,5,7)             65.0057         estimate D2E/DX2                !
 ! D30   D(2,3,5,8)            -55.4485         estimate D2E/DX2                !
 ! D31   D(4,3,5,6)            -54.0127         estimate D2E/DX2                !
 ! D32   D(4,3,5,7)           -173.5541         estimate D2E/DX2                !
 ! D33   D(4,3,5,8)             65.9916         estimate D2E/DX2                !
 ! D34   D(9,3,5,6)             60.4187         estimate D2E/DX2                !
 ! D35   D(9,3,5,7)            -59.1227         estimate D2E/DX2                !
 ! D36   D(9,3,5,8)           -179.5769         estimate D2E/DX2                !
 ! D37   D(2,10,11,12)           8.2608         estimate D2E/DX2                !
 ! D38   D(18,10,11,12)       -118.3772         estimate D2E/DX2                !
 ! D39   D(25,10,11,12)        125.0537         estimate D2E/DX2                !
 ! D40   D(2,10,18,19)        -175.8495         estimate D2E/DX2                !
 ! D41   D(2,10,18,20)          61.8216         estimate D2E/DX2                !
 ! D42   D(2,10,18,24)         -62.1938         estimate D2E/DX2                !
 ! D43   D(11,10,18,19)        -55.0266         estimate D2E/DX2                !
 ! D44   D(11,10,18,20)       -177.3555         estimate D2E/DX2                !
 ! D45   D(11,10,18,24)         58.6291         estimate D2E/DX2                !
 ! D46   D(25,10,18,19)         57.6853         estimate D2E/DX2                !
 ! D47   D(25,10,18,20)        -64.6436         estimate D2E/DX2                !
 ! D48   D(25,10,18,24)        171.341          estimate D2E/DX2                !
 ! D49   D(10,11,12,13)       -155.4152         estimate D2E/DX2                !
 ! D50   D(10,11,12,14)         87.6715         estimate D2E/DX2                !
 ! D51   D(10,11,12,15)        -31.9728         estimate D2E/DX2                !
 ! D52   D(11,12,15,2)          43.2128         estimate D2E/DX2                !
 ! D53   D(11,12,15,16)        164.53           estimate D2E/DX2                !
 ! D54   D(11,12,15,17)        -74.0749         estimate D2E/DX2                !
 ! D55   D(13,12,15,2)         163.8745         estimate D2E/DX2                !
 ! D56   D(13,12,15,16)        -74.8084         estimate D2E/DX2                !
 ! D57   D(13,12,15,17)         46.5868         estimate D2E/DX2                !
 ! D58   D(14,12,15,2)         -72.8352         estimate D2E/DX2                !
 ! D59   D(14,12,15,16)         48.4819         estimate D2E/DX2                !
 ! D60   D(14,12,15,17)        169.8771         estimate D2E/DX2                !
 ! D61   D(10,18,20,21)        174.8764         estimate D2E/DX2                !
 ! D62   D(10,18,20,22)         54.5391         estimate D2E/DX2                !
 ! D63   D(10,18,20,23)        -66.1292         estimate D2E/DX2                !
 ! D64   D(19,18,20,21)         53.058          estimate D2E/DX2                !
 ! D65   D(19,18,20,22)        -67.2792         estimate D2E/DX2                !
 ! D66   D(19,18,20,23)        172.0524         estimate D2E/DX2                !
 ! D67   D(24,18,20,21)        -61.6016         estimate D2E/DX2                !
 ! D68   D(24,18,20,22)        178.0612         estimate D2E/DX2                !
 ! D69   D(24,18,20,23)         57.3928         estimate D2E/DX2                !
 --------------------------------------------------------------------------------
 Trust Radius=3.00D-01 FncErr=1.00D-07 GrdErr=1.00D-06
 Number of steps in this run=    150 maximum allowed number of steps=    150.
 GradGradGradGradGradGradGradGradGradGradGradGradGradGradGradGradGradGrad

 Leave Link  103 at Thu Feb  6 02:09:59 2025, MaxMem=  5368709120 cpu:         0.2
 (Enter /home/k0335/k033513/app/g09/l202.exe)
                          Input orientation:                          
 ---------------------------------------------------------------------
 Center     Atomic      Atomic             Coordinates (Angstroms)
 Number     Number       Type             X           Y           Z
 ---------------------------------------------------------------------
      1          9           0       -0.216524   -0.180793    1.424777
      2          6           0        0.358164   -0.242545    0.190137
      3          6           0        1.345090    0.893435    0.010309
      4          9           0        0.656290    2.068303    0.033770
      5          6           0        2.445522    0.926104    1.068029
      6          9           0        3.239981    2.012467    0.921677
      7          9           0        3.247809   -0.158058    0.994089
      8          9           0        1.936271    0.966745    2.319270
      9          9           0        1.902962    0.843607   -1.230437
     10          6           0       -0.760592   -0.288274   -0.860296
     11          8           0       -0.978729   -1.683504   -1.215634
     12          6           0       -0.200587   -2.437214   -0.300981
     13          9           0        0.100590   -3.631049   -0.839950
     14          9           0       -0.974054   -2.649449    0.784750
     15          6           0        1.001295   -1.587642    0.016386
     16          9           0        1.685040   -1.983745    1.103645
     17          9           0        1.868967   -1.573432   -1.023151
     18          6           0       -2.129491    0.286833   -0.453445
     19          9           0       -3.006602    0.068727   -1.484617
     20          6           0       -2.135596    1.761578   -0.102258
     21          9           0       -3.389901    2.214281    0.135273
     22          9           0       -1.616565    2.519557   -1.092631
     23          9           0       -1.419843    2.006096    1.019582
     24          9           0       -2.622666   -0.441485    0.593010
     25          9           0       -0.336829    0.289458   -2.011305
 ---------------------------------------------------------------------
                    Distance matrix (angstroms):
                    1          2          3          4          5
     1  F    0.000000
     2  C    1.363237   0.000000
     3  C    2.365021   1.515524   0.000000
     4  F    2.784805   2.335241   1.362098   0.000000
     5  C    2.904992   2.548234   1.526692   2.361284   0.000000
     6  F    4.124430   3.731635   2.381898   2.732573   1.353798
     7  F    3.491076   3.000587   2.386169   3.548925   1.350755
     8  F    2.598362   2.913076   2.384569   2.841706   1.351515
     9  F    3.548489   2.363082   1.361306   2.156917   2.363075
    10  C    2.351408   1.535290   2.566766   2.891429   3.933487
    11  O    3.132230   2.416576   3.680175   4.279060   4.873465
    12  C    2.840762   2.317320   3.685002   4.598476   4.493105
    13  F    4.139301   3.550969   4.768928   5.792651   5.468705
    14  F    2.660404   2.814526   4.304674   5.047690   4.955636
    15  C    2.333639   1.501031   2.504790   3.672229   3.083936
    16  F    2.640020   2.372103   3.096630   4.315328   3.007794
    17  F    3.504435   2.350713   2.725421   3.981193   3.309551
    18  C    2.721366   2.623522   3.557492   3.342393   4.863568
    19  F    4.038734   3.771385   4.674630   4.440786   6.080851
    20  C    3.128495   3.212607   3.589083   2.811976   4.801482
    21  F    4.179656   4.481852   4.917356   4.050096   6.048272
    22  F    3.948335   3.629636   3.554174   2.576486   4.869096
    23  F    2.528763   2.984238   3.146665   2.299135   4.013699
    24  F    2.559163   3.014503   4.226658   4.166934   5.270908
    25  F    3.470197   2.369048   2.698252   2.886677   4.198701
                    6          7          8          9         10
     6  F    0.000000
     7  F    2.171747   0.000000
     8  F    2.178637   2.177480   0.000000
     9  F    2.790242   2.785761   3.551998   0.000000
    10  C    4.947062   4.418481   4.354054   2.917650   0.000000
    11  O    6.002151   5.007343   5.293070   3.832839   1.456199
    12  C    5.756046   4.331650   4.797793   4.006569   2.290062
    13  F    6.693906   5.032927   5.872828   4.839790   3.451984
    14  F    6.285722   4.906626   4.888926   4.953750   2.885635
    15  C    4.334980   2.836625   3.564035   2.877246   2.358214
    16  F    4.291930   2.405698   3.200977   3.672785   3.565502
    17  F    4.303569   2.823782   4.198667   2.426149   2.931336
    18  C    5.805170   5.586469   4.967962   4.144200   1.539532
    19  F    6.970522   6.731498   6.301427   4.976833   2.358344
    20  C    5.477976   5.819624   4.803713   4.292483   2.582083
    21  F    6.679408   7.101039   5.890187   5.635451   3.763935
    22  F    5.282103   5.931792   5.164779   3.900624   2.944586
    23  F    4.660857   5.145016   3.746057   4.177918   3.038534
    24  F    6.364003   5.890982   5.074149   5.045565   2.367043
    25  F    4.936063   4.699180   4.937568   2.435878   1.355792
                   11         12         13         14         15
    11  O    0.000000
    12  C    1.417806   0.000000
    13  F    2.258096   1.344038   0.000000
    14  F    2.221398   1.349854   2.181295   0.000000
    15  C    2.334000   1.505661   2.391672   2.370616   0.000000
    16  F    3.544695   2.394618   3.000276   2.759644   1.344075
    17  F    2.856315   2.355993   2.719284   3.536819   1.354140
    18  C    2.405704   3.341309   4.524649   3.389677   3.679160
    19  F    2.693499   3.943914   4.874277   4.082862   4.589096
    20  C    3.800860   4.627484   5.884313   4.646840   4.590363
    21  F    4.778224   5.656717   6.877679   5.469370   5.809592
    22  F    4.252962   5.215485   6.390808   5.536786   4.995217
    23  F    4.336349   4.793065   6.127559   4.682731   4.447838
    24  F    2.741593   3.263222   4.432022   2.762208   3.844381
    25  F    2.222095   3.221570   4.115068   4.106234   3.070116
                   16         17         18         19         20
    16  F    0.000000
    17  F    2.173809   0.000000
    18  C    4.704328   4.446664   0.000000
    19  F    5.737878   5.165347   1.371207   0.000000
    20  C    5.484424   5.292151   1.515996   2.352724   0.000000
    21  F    6.657041   6.583647   2.377031   2.715578   1.354490
    22  F    6.000329   5.376460   2.378384   2.844719   1.350838
    23  F    5.056303   5.272765   2.372609   3.541499   1.353003
    24  F    4.603873   4.905920   1.367017   2.173536   2.360958
    25  F    4.354115   3.051613   2.374989   2.730167   3.007850
                   21         22         23         24         25
    21  F    0.000000
    22  F    2.178454   0.000000
    23  F    2.169440   2.182610   0.000000
    24  F    2.802011   3.552660   2.760326   0.000000
    25  F    4.199284   2.730390   3.647745   3.541438   0.000000
 Symmetry turned off by external request.
 Stoichiometry    C8F16O
 Framework group  C1[X(C8F16O)]
 Deg. of freedom    69
 Full point group                 C1      NOp   1
 Rotational constants (GHZ):      0.3164889      0.2482115      0.1792119
 Leave Link  202 at Thu Feb  6 02:09:59 2025, MaxMem=  5368709120 cpu:         0.1
 (Enter /home/k0335/k033513/app/g09/l301.exe)
 Standard basis: 6-31G(d,p) (6D, 7F)
 Ernie: Thresh=  0.10000D-02 Tol=  0.10000D-05 Strict=F.
   375 basis functions,   700 primitive gaussians,   375 cartesian basis functions
   100 alpha electrons      100 beta electrons
       nuclear repulsion energy      3161.2528353496 Hartrees.
 IExCor=20419 DFT=T Ex+Corr=CAM-B3LYP ExCW=0 ScaHFX=  1.000000
 ScaDFX=  1.000000  1.000000  1.000000  0.810000 ScalE2=  1.000000  1.000000
 IRadAn=      0 IRanWt=     -1 IRanGd=            0 ICorTp=0 IEmpDi=  4
  HFx wShort=  0.000000 wLong=  0.330000 cFull=  0.190000 cShort=  0.000000 cLong=  0.460000
  DFx wShort=  0.000000 wLong=  0.330000 cFull=  0.190000 cShort=  0.000000 cLong=  0.460000
 NAtoms=   25 NActive=   25 NUniq=   25 SFac= 1.00D+00 NAtFMM=   60 NAOKFM=F Big=F
 Integral buffers will be    131072 words long.
 Raffenetti 2 integral format.
 Two-electron integral symmetry is turned off.
 Using the following non-standard input for PCM:
 eps=2.05
 --- end of non-standard input.
 ------------------------------------------------------------------------------
 Polarizable Continuum Model (PCM)
 =================================
 Model                : PCM (using non-symmetric T matrix).
 Atomic radii         : UFF (Universal Force Field).
 Polarization charges : Total charges.
 Charge compensation  : None.
 Solution method      : On-the-fly selection.
 Cavity type          : Scaled VdW (van der Waals Surface) (Alpha=1.100).
 Cavity algorithm     : GePol (No added spheres)
                        Default sphere list used, NSphG=   25.
                        Lebedev-Laikov grids with approx.  5.0 points / Ang**2.
                        Smoothing algorithm: Karplus/York (Gamma=1.0000).
                        Polarization charges: spherical gaussians, with
                                              point-specific exponents (IZeta= 3).
                        Self-potential: point-specific (ISelfS= 7).
                        Self-field    : sphere-specific E.n sum rule (ISelfD= 2).
 1st derivatives      : Analytical E(r).r(x)/FMM algorithm (CHGder, D1EAlg=3).
                        Cavity 1st derivative terms included.
 Solvent              : Generic,
                        Eps                           =   2.050000
                        Eps(infinity)                 =   0.000000
                        RSolv                         =   0.000000 Ang.
                        Molar volume                  =   0.000000 cm**3/mol
                        Thermal expansion coefficient =   0.000000 K**-1
                        Absolute temperature          = 298.150000 K
                        Numeral density               =   0.000000 Ang**-3
                        Hydrogen bond acidity         =   0.000000
                        Hydrogen bond basicity        =   0.000000
                        Surface tension at interface  =   0.000000 (cal/mol)*Ang**-2
                        Carbon aromaticity            =   0.000000
                        Electronegative halogenicity  =   0.000000
 ------------------------------------------------------------------------------
 GePol: Number of generator spheres                  =      25
 GePol: Total number of spheres                      =      25
 GePol: Number of exposed spheres                    =      24 ( 96.00%)
 GePol: Number of points                             =    2223
 GePol: Average weight of points                     =       0.12
 GePol: Minimum weight of points                     =   0.12D-11
 GePol: Maximum weight of points                     =    0.20322
 GePol: Number of points with low weight             =      90
 GePol: Fraction of low-weight points (<1% of avg)   =       4.05%
 GePol: Cavity surface area                          =    276.735 Ang**2
 GePol: Cavity volume                                =    315.578 Ang**3
 Leave Link  301 at Thu Feb  6 02:09:59 2025, MaxMem=  5368709120 cpu:         0.9
 (Enter /home/k0335/k033513/app/g09/l302.exe)
 NPDir=0 NMtPBC=     1 NCelOv=     1 NCel=       1 NClECP=     1 NCelD=      1
         NCelK=      1 NCelE2=     1 NClLst=     1 CellRange=     0.0.
 One-electron integrals computed using PRISM.
 NBasis=   375 RedAO= T EigKep=  8.35D-04  NBF=   375
 NBsUse=   375 1.00D-06 EigRej= -1.00D+00 NBFU=   375
 Precomputing XC quadrature grid using
 IXCGrd= 4 IRadAn=           0 IRanWt=          -1 IRanGd=           0 AccXCQ= 0.00D+00.
 Generated NRdTot=       0 NPtTot=           0 NUsed=           0 NTot=          32
 NSgBfM=   372   372   372   372   372 MxSgAt=    25 MxSgA2=    25.
 Leave Link  302 at Thu Feb  6 02:09:59 2025, MaxMem=  5368709120 cpu:         5.4
 (Enter /home/k0335/k033513/app/g09/l303.exe)
 DipDrv:  MaxL=1.
 Leave Link  303 at Thu Feb  6 02:10:00 2025, MaxMem=  5368709120 cpu:         0.6
 (Enter /home/k0335/k033513/app/g09/l401.exe)
 ExpMin= 1.69D-01 ExpMax= 7.00D+03 ExpMxC= 1.05D+03 IAcc=1 IRadAn=         1 AccDes= 0.00D+00
 Harris functional with IExCor=20419 and IRadAn=       1 diagonalized for initial guess.
 HarFok:  IExCor=20419 AccDes= 0.00D+00 IRadAn=         1 IDoV= 1 UseB2=F ITyADJ=14
 ICtDFT=  3500011 ScaDFX=  1.000000  1.000000  1.000000  1.000000
 FoFCou: FMM=F IPFlag=           0 FMFlag=      100000 FMFlg1=           0
         NFxFlg=           0 DoJE=T BraDBF=F KetDBF=T FulRan=T
         wScrn=  0.000000 ICntrl=     500 IOpCl=  0 I1Cent=   200000004 NGrid=           0
         NMat0=    1 NMatS0=      1 NMatT0=    0 NMatD0=    1 NMtDS0=    0 NMtDT0=    0
 Symmetry not used in FoFCou.
 Harris En= -1919.91402675448    
 JPrj=0 DoOrth=F DoCkMO=F.
 Leave Link  401 at Thu Feb  6 02:10:01 2025, MaxMem=  5368709120 cpu:         6.3
 (Enter /home/k0335/k033513/app/g09/l502.exe)
 Closed shell SCF:
 Using DIIS extrapolation, IDIIS=  1040.
 Two-electron integral symmetry not used.
 Keep R1 ints in memory in canonical form, NReq=4997350725.
 IVT=      451725 IEndB=      451725 NGot=  5368709120 MDV=   397936896
 LenX=   397936896 LenY=   397795830
 Requested convergence on RMS density matrix=1.00D-08 within 128 cycles.
 Requested convergence on MAX density matrix=1.00D-06.
 Requested convergence on             energy=1.00D-06.
 No special actions if energy rises.
 FoFCou: FMM=F IPFlag=           0 FMFlag=           0 FMFlg1=           0
         NFxFlg=           0 DoJE=F BraDBF=F KetDBF=F FulRan=T
         wScrn=  0.000000 ICntrl=     600 IOpCl=  0 I1Cent=           0 NGrid=           0
         NMat0=    1 NMatS0=  70500 NMatT0=    0 NMatD0=    1 NMtDS0=    0 NMtDT0=    0
 Symmetry not used in FoFCou.

 Cycle   1  Pass 1  IDiag  1:
 Inv3:  Mode=1 IEnd=    14825187.
 Iteration    1 A*A^-1 deviation from unit magnitude is 6.99D-15 for   2214.
 Iteration    1 A*A^-1 deviation from orthogonality  is 2.57D-15 for   2186    624.
 Iteration    1 A^-1*A deviation from unit magnitude is 7.11D-15 for   2214.
 Iteration    1 A^-1*A deviation from orthogonality  is 1.47D-15 for   2192    475.
 E= -1976.34531425365    
 DIIS: error= 4.18D-02 at cycle   1 NSaved=   1.
 NSaved= 1 IEnMin= 1 EnMin= -1976.34531425365     IErMin= 1 ErrMin= 4.18D-02
 ErrMax= 4.18D-02  0.00D+00 EMaxC= 1.00D-01 BMatC= 1.65D+00 BMatP= 1.65D+00
 IDIUse=3 WtCom= 5.82D-01 WtEn= 4.18D-01
 Coeff-Com:  0.100D+01
 Coeff-En:   0.100D+01
 Coeff:      0.100D+01
 Gap=     0.457 Goal=   None    Shift=    0.000
 GapD=    0.457 DampG=2.000 DampE=0.500 DampFc=1.0000 IDamp=-1.
 RMSDP=3.95D-03 MaxDP=1.89D-01              OVMax= 8.60D-02

 Cycle   2  Pass 1  IDiag  1:
 E= -1976.61776778363     Delta-E=       -0.272453529975 Rises=F Damp=F
 DIIS: error= 1.94D-02 at cycle   2 NSaved=   2.
 NSaved= 2 IEnMin= 2 EnMin= -1976.61776778363     IErMin= 2 ErrMin= 1.94D-02
 ErrMax= 1.94D-02  0.00D+00 EMaxC= 1.00D-01 BMatC= 6.39D-01 BMatP= 1.65D+00
 IDIUse=3 WtCom= 8.06D-01 WtEn= 1.94D-01
 Coeff-Com:  0.367D+00 0.633D+00
 Coeff-En:   0.318D+00 0.682D+00
 Coeff:      0.358D+00 0.642D+00
 Gap=     0.463 Goal=   None    Shift=    0.000
 RMSDP=1.72D-03 MaxDP=9.34D-02 DE=-2.72D-01 OVMax= 5.24D-02

 Cycle   3  Pass 1  IDiag  1:
 E= -1976.90466108943     Delta-E=       -0.286893305808 Rises=F Damp=F
 DIIS: error= 9.08D-03 at cycle   3 NSaved=   3.
 NSaved= 3 IEnMin= 3 EnMin= -1976.90466108943     IErMin= 3 ErrMin= 9.08D-03
 ErrMax= 9.08D-03  0.00D+00 EMaxC= 1.00D-01 BMatC= 9.91D-02 BMatP= 6.39D-01
 IDIUse=3 WtCom= 9.09D-01 WtEn= 9.08D-02
 Coeff-Com:  0.902D-01 0.315D+00 0.595D+00
 Coeff-En:   0.000D+00 0.823D-01 0.918D+00
 Coeff:      0.820D-01 0.294D+00 0.624D+00
 Gap=     0.459 Goal=   None    Shift=    0.000
 RMSDP=7.89D-04 MaxDP=4.32D-02 DE=-2.87D-01 OVMax= 2.75D-02

 Cycle   4  Pass 1  IDiag  1:
 E= -1976.96211332004     Delta-E=       -0.057452230607 Rises=F Damp=F
 DIIS: error= 3.03D-03 at cycle   4 NSaved=   4.
 NSaved= 4 IEnMin= 4 EnMin= -1976.96211332004     IErMin= 4 ErrMin= 3.03D-03
 ErrMax= 3.03D-03  0.00D+00 EMaxC= 1.00D-01 BMatC= 7.06D-03 BMatP= 9.91D-02
 IDIUse=3 WtCom= 9.70D-01 WtEn= 3.03D-02
 Coeff-Com:  0.839D-03 0.539D-01 0.273D+00 0.672D+00
 Coeff-En:   0.000D+00 0.000D+00 0.170D-02 0.998D+00
 Coeff:      0.814D-03 0.523D-01 0.265D+00 0.682D+00
 Gap=     0.449 Goal=   None    Shift=    0.000
 RMSDP=1.94D-04 MaxDP=8.40D-03 DE=-5.75D-02 OVMax= 7.31D-03

 Cycle   5  Pass 1  IDiag  1:
 E= -1976.96717069674     Delta-E=       -0.005057376697 Rises=F Damp=F
 DIIS: error= 2.08D-04 at cycle   5 NSaved=   5.
 NSaved= 5 IEnMin= 5 EnMin= -1976.96717069674     IErMin= 5 ErrMin= 2.08D-04
 ErrMax= 2.08D-04  0.00D+00 EMaxC= 1.00D-01 BMatC= 6.59D-05 BMatP= 7.06D-03
 IDIUse=3 WtCom= 9.98D-01 WtEn= 2.08D-03
 Coeff-Com: -0.576D-03 0.175D-01 0.973D-01 0.270D+00 0.616D+00
 Coeff-En:   0.000D+00 0.000D+00 0.000D+00 0.000D+00 0.100D+01
 Coeff:     -0.574D-03 0.174D-01 0.971D-01 0.269D+00 0.617D+00
 Gap=     0.449 Goal=   None    Shift=    0.000
 RMSDP=2.27D-05 MaxDP=9.70D-04 DE=-5.06D-03 OVMax= 8.66D-04

 Cycle   6  Pass 1  IDiag  1:
 E= -1976.96721008653     Delta-E=       -0.000039389788 Rises=F Damp=F
 DIIS: error= 6.33D-05 at cycle   6 NSaved=   6.
 NSaved= 6 IEnMin= 6 EnMin= -1976.96721008653     IErMin= 6 ErrMin= 6.33D-05
 ErrMax= 6.33D-05  0.00D+00 EMaxC= 1.00D-01 BMatC= 9.51D-06 BMatP= 6.59D-05
 IDIUse=1 WtCom= 1.00D+00 WtEn= 0.00D+00
 Coeff-Com: -0.339D-03-0.317D-02-0.115D-01-0.173D-01 0.275D+00 0.757D+00
 Coeff:     -0.339D-03-0.317D-02-0.115D-01-0.173D-01 0.275D+00 0.757D+00
 Gap=     0.449 Goal=   None    Shift=    0.000
 RMSDP=6.86D-06 MaxDP=4.22D-04 DE=-3.94D-05 OVMax= 3.03D-04

 Cycle   7  Pass 1  IDiag  1:
 E= -1976.96721686445     Delta-E=       -0.000006777920 Rises=F Damp=F
 DIIS: error= 9.84D-06 at cycle   7 NSaved=   7.
 NSaved= 7 IEnMin= 7 EnMin= -1976.96721686445     IErMin= 7 ErrMin= 9.84D-06
 ErrMax= 9.84D-06  0.00D+00 EMaxC= 1.00D-01 BMatC= 2.10D-07 BMatP= 9.51D-06
 IDIUse=1 WtCom= 1.00D+00 WtEn= 0.00D+00
 Coeff-Com: -0.714D-04-0.174D-02-0.762D-02-0.169D-01 0.601D-01 0.227D+00
 Coeff-Com:  0.739D+00
 Coeff:     -0.714D-04-0.174D-02-0.762D-02-0.169D-01 0.601D-01 0.227D+00
 Coeff:      0.739D+00
 Gap=     0.449 Goal=   None    Shift=    0.000
 RMSDP=1.53D-06 MaxDP=8.91D-05 DE=-6.78D-06 OVMax= 9.62D-05

 Cycle   8  Pass 1  IDiag  1:
 E= -1976.96721703141     Delta-E=       -0.000000166963 Rises=F Damp=F
 DIIS: error= 4.74D-06 at cycle   8 NSaved=   8.
 NSaved= 8 IEnMin= 8 EnMin= -1976.96721703141     IErMin= 8 ErrMin= 4.74D-06
 ErrMax= 4.74D-06  0.00D+00 EMaxC= 1.00D-01 BMatC= 4.42D-08 BMatP= 2.10D-07
 IDIUse=1 WtCom= 1.00D+00 WtEn= 0.00D+00
 Coeff-Com:  0.722D-06-0.544D-03-0.262D-02-0.677D-02-0.592D-03 0.287D-01
 Coeff-Com:  0.336D+00 0.645D+00
 Coeff:      0.722D-06-0.544D-03-0.262D-02-0.677D-02-0.592D-03 0.287D-01
 Coeff:      0.336D+00 0.645D+00
 Gap=     0.449 Goal=   None    Shift=    0.000
 RMSDP=5.78D-07 MaxDP=3.76D-05 DE=-1.67D-07 OVMax= 3.30D-05

 Cycle   9  Pass 1  IDiag  1:
 E= -1976.96721706476     Delta-E=       -0.000000033351 Rises=F Damp=F
 DIIS: error= 1.13D-06 at cycle   9 NSaved=   9.
 NSaved= 9 IEnMin= 9 EnMin= -1976.96721706476     IErMin= 9 ErrMin= 1.13D-06
 ErrMax= 1.13D-06  0.00D+00 EMaxC= 1.00D-01 BMatC= 3.59D-09 BMatP= 4.42D-08
 IDIUse=1 WtCom= 1.00D+00 WtEn= 0.00D+00
 Coeff-Com:  0.935D-05 0.215D-04 0.803D-06-0.365D-03-0.794D-02-0.187D-01
 Coeff-Com:  0.259D-01 0.244D+00 0.757D+00
 Coeff:      0.935D-05 0.215D-04 0.803D-06-0.365D-03-0.794D-02-0.187D-01
 Coeff:      0.259D-01 0.244D+00 0.757D+00
 Gap=     0.449 Goal=   None    Shift=    0.000
 RMSDP=2.00D-07 MaxDP=1.07D-05 DE=-3.34D-08 OVMax= 1.40D-05

 Cycle  10  Pass 1  IDiag  1:
 E= -1976.96721706777     Delta-E=       -0.000000003009 Rises=F Damp=F
 DIIS: error= 3.98D-07 at cycle  10 NSaved=  10.
 NSaved=10 IEnMin=10 EnMin= -1976.96721706777     IErMin=10 ErrMin= 3.98D-07
 ErrMax= 3.98D-07  0.00D+00 EMaxC= 1.00D-01 BMatC= 3.05D-10 BMatP= 3.59D-09
 IDIUse=1 WtCom= 1.00D+00 WtEn= 0.00D+00
 Coeff-Com:  0.348D-05 0.559D-04 0.226D-03 0.453D-03-0.304D-02-0.982D-02
 Coeff-Com: -0.187D-01 0.430D-01 0.292D+00 0.695D+00
 Coeff:      0.348D-05 0.559D-04 0.226D-03 0.453D-03-0.304D-02-0.982D-02
 Coeff:     -0.187D-01 0.430D-01 0.292D+00 0.695D+00
 Gap=     0.449 Goal=   None    Shift=    0.000
 RMSDP=5.17D-08 MaxDP=2.25D-06 DE=-3.01D-09 OVMax= 3.30D-06

 Cycle  11  Pass 1  IDiag  1:
 E= -1976.96721706798     Delta-E=       -0.000000000209 Rises=F Damp=F
 DIIS: error= 1.36D-07 at cycle  11 NSaved=  11.
 NSaved=11 IEnMin=11 EnMin= -1976.96721706798     IErMin=11 ErrMin= 1.36D-07
 ErrMax= 1.36D-07  0.00D+00 EMaxC= 1.00D-01 BMatC= 1.77D-11 BMatP= 3.05D-10
 IDIUse=1 WtCom= 1.00D+00 WtEn= 0.00D+00
 Coeff-Com:  0.431D-06 0.166D-04 0.714D-04 0.179D-03-0.376D-03-0.170D-02
 Coeff-Com: -0.710D-02-0.201D-02 0.377D-01 0.212D+00 0.762D+00
 Coeff:      0.431D-06 0.166D-04 0.714D-04 0.179D-03-0.376D-03-0.170D-02
 Coeff:     -0.710D-02-0.201D-02 0.377D-01 0.212D+00 0.762D+00
 Gap=     0.449 Goal=   None    Shift=    0.000
 RMSDP=1.38D-08 MaxDP=5.58D-07 DE=-2.09D-10 OVMax= 9.65D-07

 Cycle  12  Pass 1  IDiag  1:
 E= -1976.96721706808     Delta-E=       -0.000000000098 Rises=F Damp=F
 DIIS: error= 4.36D-08 at cycle  12 NSaved=  12.
 NSaved=12 IEnMin=12 EnMin= -1976.96721706808     IErMin=12 ErrMin= 4.36D-08
 ErrMax= 4.36D-08  0.00D+00 EMaxC= 1.00D-01 BMatC= 3.86D-12 BMatP= 1.77D-11
 IDIUse=1 WtCom= 1.00D+00 WtEn= 0.00D+00
 Coeff-Com: -0.214D-06 0.127D-05 0.689D-05 0.330D-04 0.197D-03 0.389D-03
 Coeff-Com: -0.114D-02-0.608D-02-0.176D-01 0.141D-01 0.362D+00 0.648D+00
 Coeff:     -0.214D-06 0.127D-05 0.689D-05 0.330D-04 0.197D-03 0.389D-03
 Coeff:     -0.114D-02-0.608D-02-0.176D-01 0.141D-01 0.362D+00 0.648D+00
 Gap=     0.449 Goal=   None    Shift=    0.000
 RMSDP=5.03D-09 MaxDP=1.91D-07 DE=-9.82D-11 OVMax= 3.02D-07

 Error on total polarization charges =  0.00045
 SCF Done:  E(RCAM-B3LYP) =  -1976.96721707     A.U. after   12 cycles
            NFock= 12  Conv=0.50D-08     -V/T= 2.0068
 KE= 1.963685371806D+03 PE=-1.100916121700D+04 EE= 3.907255792778D+03
 Leave Link  502 at Thu Feb  6 02:10:38 2025, MaxMem=  5368709120 cpu:       339.9
 (Enter /home/k0335/k033513/app/g09/l601.exe)
 Copying SCF densities to generalized density rwf, IOpCl= 0 IROHF=0.

 **********************************************************************

            Population analysis using the SCF density.

 **********************************************************************

 Alpha  occ. eigenvalues --  -24.84240 -24.84150 -24.83994 -24.83936 -24.83766
 Alpha  occ. eigenvalues --  -24.83712 -24.83617 -24.83586 -24.83518 -24.83480
 Alpha  occ. eigenvalues --  -24.83464 -24.83320 -24.83218 -24.83130 -24.83094
 Alpha  occ. eigenvalues --  -24.83054 -19.32264 -10.55731 -10.55343 -10.53190
 Alpha  occ. eigenvalues --  -10.50404 -10.49925 -10.49617 -10.48675 -10.44154
 Alpha  occ. eigenvalues --   -1.42752  -1.42189  -1.41179  -1.39239  -1.38834
 Alpha  occ. eigenvalues --   -1.38257  -1.36648  -1.36313  -1.33625  -1.33446
 Alpha  occ. eigenvalues --   -1.33091  -1.32868  -1.32769  -1.32595  -1.32049
 Alpha  occ. eigenvalues --   -1.31536  -1.20553  -0.98422  -0.93227  -0.90838
 Alpha  occ. eigenvalues --   -0.86975  -0.81958  -0.78517  -0.76977  -0.75858
 Alpha  occ. eigenvalues --   -0.72815  -0.72656  -0.71130  -0.70737  -0.70458
 Alpha  occ. eigenvalues --   -0.69573  -0.69448  -0.69369  -0.68655  -0.67857
 Alpha  occ. eigenvalues --   -0.67039  -0.65964  -0.65670  -0.65270  -0.64643
 Alpha  occ. eigenvalues --   -0.63084  -0.59010  -0.58392  -0.57584  -0.57283
 Alpha  occ. eigenvalues --   -0.56944  -0.56734  -0.56568  -0.55927  -0.55891
 Alpha  occ. eigenvalues --   -0.55601  -0.54805  -0.54492  -0.54274  -0.54039
 Alpha  occ. eigenvalues --   -0.53894  -0.53656  -0.52941  -0.52688  -0.52326
 Alpha  occ. eigenvalues --   -0.51719  -0.51458  -0.51348  -0.51241  -0.50949
 Alpha  occ. eigenvalues --   -0.50714  -0.50253  -0.50138  -0.49720  -0.49034
 Alpha  occ. eigenvalues --   -0.48661  -0.46073  -0.45336  -0.44117  -0.42685
 Alpha virt. eigenvalues --    0.02230   0.05713   0.07138   0.09588   0.11252
 Alpha virt. eigenvalues --    0.12936   0.14840   0.17141   0.19165   0.22754
 Alpha virt. eigenvalues --    0.23898   0.24217   0.24483   0.25123   0.26503
 Alpha virt. eigenvalues --    0.27181   0.27497   0.28040   0.28594   0.30658
 Alpha virt. eigenvalues --    0.31419   0.33078   0.34150   0.36444   0.37140
 Alpha virt. eigenvalues --    0.44849   0.47983   0.49046   0.50322   0.51151
 Alpha virt. eigenvalues --    0.52188   0.52938   0.54369   0.54896   0.56947
 Alpha virt. eigenvalues --    0.57469   0.58880   0.60632   0.62866   0.63170
 Alpha virt. eigenvalues --    0.64238   0.66853   0.68410   0.68729   0.71298
 Alpha virt. eigenvalues --    0.73499   0.75606   0.77482   0.80535   0.86858
 Alpha virt. eigenvalues --    0.91646   0.92100   0.92930   0.96822   0.98828
 Alpha virt. eigenvalues --    1.01049   1.03030   1.04227   1.06167   1.08693
 Alpha virt. eigenvalues --    1.09410   1.09982   1.10632   1.11188   1.12561
 Alpha virt. eigenvalues --    1.12996   1.13523   1.14322   1.16305   1.18132
 Alpha virt. eigenvalues --    1.19179   1.19827   1.21470   1.22413   1.24588
 Alpha virt. eigenvalues --    1.25862   1.27418   1.27572   1.28332   1.29387
 Alpha virt. eigenvalues --    1.30021   1.30862   1.31838   1.33140   1.34154
 Alpha virt. eigenvalues --    1.35127   1.35727   1.36204   1.36714   1.36864
 Alpha virt. eigenvalues --    1.37945   1.38340   1.38930   1.39585   1.40456
 Alpha virt. eigenvalues --    1.40800   1.41035   1.41244   1.41759   1.42539
 Alpha virt. eigenvalues --    1.43024   1.44090   1.44734   1.45949   1.46500
 Alpha virt. eigenvalues --    1.47633   1.49308   1.50368   1.51030   1.52678
 Alpha virt. eigenvalues --    1.53840   1.54802   1.55192   1.57227   1.57509
 Alpha virt. eigenvalues --    1.57978   1.59886   1.61116   1.62588   1.64653
 Alpha virt. eigenvalues --    1.65850   1.67356   1.68872   1.70482   1.70725
 Alpha virt. eigenvalues --    1.72137   1.72809   1.73171   1.73728   1.74315
 Alpha virt. eigenvalues --    1.75632   1.77193   1.78307   1.79073   1.80432
 Alpha virt. eigenvalues --    1.81312   1.82609   1.82683   1.83697   1.84844
 Alpha virt. eigenvalues --    1.85072   1.86360   1.86409   1.87775   1.88361
 Alpha virt. eigenvalues --    1.89575   1.90155   1.90603   1.91540   1.92827
 Alpha virt. eigenvalues --    1.93197   1.95159   1.95900   1.96767   1.97198
 Alpha virt. eigenvalues --    1.98431   1.98581   1.99464   2.00695   2.01464
 Alpha virt. eigenvalues --    2.02859   2.02982   2.04241   2.04286   2.04434
 Alpha virt. eigenvalues --    2.05712   2.06225   2.06467   2.07081   2.07350
 Alpha virt. eigenvalues --    2.09248   2.09941   2.10092   2.10318   2.10712
 Alpha virt. eigenvalues --    2.11029   2.12038   2.13677   2.14902   2.15879
 Alpha virt. eigenvalues --    2.17650   2.17941   2.20917   2.21969   2.22960
 Alpha virt. eigenvalues --    2.25131   2.26897   2.28077   2.28816   2.29837
 Alpha virt. eigenvalues --    2.31710   2.33477   2.33925   2.34764   2.37387
 Alpha virt. eigenvalues --    2.38873   2.39938   2.40607   2.41599   2.42514
 Alpha virt. eigenvalues --    2.43411   2.44675   2.45316   2.46922   2.48875
 Alpha virt. eigenvalues --    2.51034   2.52643   2.55680   2.58292   2.59803
 Alpha virt. eigenvalues --    2.63028   2.64660   2.69422   2.70298   2.72813
 Alpha virt. eigenvalues --    2.74539   2.78382   2.80872   2.81635   2.83379
 Alpha virt. eigenvalues --    2.85470   2.87236   2.87978   2.88969   2.89662
 Alpha virt. eigenvalues --    2.91009   2.92874   2.93467   2.95156   2.96179
 Alpha virt. eigenvalues --    2.99437   3.00739   3.02822   3.06848   3.07889
 Alpha virt. eigenvalues --    3.08243   3.08828   3.11553   3.11761   3.13031
 Alpha virt. eigenvalues --    3.14902   3.16230   3.19749   3.21638   3.23179
 Alpha virt. eigenvalues --    3.25335   3.27922   3.32926   3.38842   3.39706
 Alpha virt. eigenvalues --    4.22633   4.27126   4.30909   4.37111   4.40756
 Alpha virt. eigenvalues --    4.53640   4.62811   4.66578   4.68631   4.74548
 Alpha virt. eigenvalues --    4.87910   4.96775   5.05243   5.11134   5.19759
 Alpha virt. eigenvalues --    5.23962   5.26876   5.35342   5.63505   5.68947
 Alpha virt. eigenvalues --    5.84884   6.33461   6.39157   6.59680   6.86205
          Condensed to atoms (all electrons):
               1          2          3          4          5          6
     1  F    9.146623   0.192922  -0.020222  -0.000375   0.001991   0.000000
     2  C    0.192922   5.751885   0.108001  -0.038315  -0.047965   0.002494
     3  C   -0.020222   0.108001   4.789126   0.242039   0.238582  -0.022282
     4  F   -0.000375  -0.038315   0.242039   9.113061  -0.016028  -0.000558
     5  C    0.001991  -0.047965   0.238582  -0.016028   4.186015   0.300378
     6  F    0.000000   0.002494  -0.022282  -0.000558   0.300378   9.045073
     7  F   -0.000076  -0.004468  -0.034162   0.000294   0.274947  -0.039815
     8  F    0.000028   0.006565  -0.036238  -0.000354   0.283458  -0.039267
     9  F    0.000294  -0.033704   0.232892  -0.039625  -0.013623  -0.000737
    10  C   -0.028635   0.097371  -0.026643   0.007306   0.003743  -0.000026
    11  O    0.000125  -0.027892   0.002889   0.000007  -0.000030   0.000000
    12  C    0.005407  -0.055017   0.002480  -0.000067   0.000157   0.000000
    13  F    0.000000   0.002337  -0.000021   0.000000   0.000000   0.000000
    14  F   -0.000088   0.006239   0.000156   0.000000  -0.000010   0.000000
    15  C   -0.020310   0.079595  -0.028892   0.002079  -0.009450   0.000014
    16  F   -0.000518  -0.028920  -0.007106  -0.000001   0.010873   0.000000
    17  F    0.000351  -0.053193   0.008431   0.000001  -0.001872   0.000001
    18  C    0.010119  -0.043491  -0.002852  -0.004709  -0.000078   0.000000
    19  F    0.000004   0.002135   0.000018   0.000001   0.000000   0.000000
    20  C   -0.002271  -0.003615   0.001244   0.011956   0.000012   0.000000
    21  F    0.000001  -0.000015   0.000005  -0.000003   0.000000   0.000000
    22  F    0.000006  -0.002489   0.001743  -0.001057   0.000001   0.000000
    23  F   -0.001089   0.012968  -0.000827  -0.007817  -0.000104   0.000000
    24  F   -0.000996   0.001342   0.000157   0.000002   0.000003   0.000000
    25  F    0.000389  -0.045138   0.018106  -0.001367   0.000197   0.000000
               7          8          9         10         11         12
     1  F   -0.000076   0.000028   0.000294  -0.028635   0.000125   0.005407
     2  C   -0.004468   0.006565  -0.033704   0.097371  -0.027892  -0.055017
     3  C   -0.034162  -0.036238   0.232892  -0.026643   0.002889   0.002480
     4  F    0.000294  -0.000354  -0.039625   0.007306   0.000007  -0.000067
     5  C    0.274947   0.283458  -0.013623   0.003743  -0.000030   0.000157
     6  F   -0.039815  -0.039267  -0.000737  -0.000026   0.000000   0.000000
     7  F    9.067983  -0.038211  -0.000335   0.000071   0.000000   0.000203
     8  F   -0.038211   9.066707   0.000299   0.000040   0.000000   0.000010
     9  F   -0.000335   0.000299   9.118849  -0.000360  -0.000052  -0.000150
    10  C    0.000071   0.000040  -0.000360   5.012050   0.180975  -0.037325
    11  O    0.000000   0.000000  -0.000052   0.180975   8.376927   0.189624
    12  C    0.000203   0.000010  -0.000150  -0.037325   0.189624   4.337364
    13  F    0.000000   0.000000   0.000000   0.001609  -0.039484   0.324820
    14  F    0.000000   0.000000   0.000000   0.000965  -0.053551   0.269019
    15  C    0.019973  -0.001522   0.002599  -0.033413  -0.047459   0.236436
    16  F   -0.007069  -0.000255   0.000000   0.002423   0.000788  -0.019593
    17  F   -0.000615   0.000002  -0.002806   0.015341  -0.002706  -0.017343
    18  C    0.000000   0.000005   0.000147   0.154935  -0.030038  -0.003444
    19  F    0.000000   0.000000   0.000000  -0.021420  -0.000775   0.000237
    20  C    0.000000  -0.000004  -0.000049  -0.049787   0.001774   0.000265
    21  F    0.000000   0.000000   0.000000   0.002082  -0.000003  -0.000001
    22  F    0.000000   0.000000  -0.000008   0.006852   0.000008  -0.000001
    23  F    0.000000   0.000001   0.000001  -0.004021   0.000002  -0.000014
    24  F    0.000000   0.000000   0.000000  -0.029381  -0.000863   0.002392
    25  F    0.000000   0.000000  -0.003568   0.258673  -0.046463   0.000014
              13         14         15         16         17         18
     1  F    0.000000  -0.000088  -0.020310  -0.000518   0.000351   0.010119
     2  C    0.002337   0.006239   0.079595  -0.028920  -0.053193  -0.043491
     3  C   -0.000021   0.000156  -0.028892  -0.007106   0.008431  -0.002852
     4  F    0.000000   0.000000   0.002079  -0.000001   0.000001  -0.004709
     5  C    0.000000  -0.000010  -0.009450   0.010873  -0.001872  -0.000078
     6  F    0.000000   0.000000   0.000014   0.000000   0.000001   0.000000
     7  F    0.000000   0.000000   0.019973  -0.007069  -0.000615   0.000000
     8  F    0.000000   0.000000  -0.001522  -0.000255   0.000002   0.000005
     9  F    0.000000   0.000000   0.002599   0.000000  -0.002806   0.000147
    10  C    0.001609   0.000965  -0.033413   0.002423   0.015341   0.154935
    11  O   -0.039484  -0.053551  -0.047459   0.000788  -0.002706  -0.030038
    12  C    0.324820   0.269019   0.236436  -0.019593  -0.017343  -0.003444
    13  F    9.020645  -0.040067  -0.026720  -0.000196  -0.000540  -0.000055
    14  F   -0.040067   9.098680  -0.035094   0.000019   0.000310   0.000481
    15  C   -0.026720  -0.035094   4.799129   0.263631   0.243776   0.002742
    16  F   -0.000196   0.000019   0.263631   9.079103  -0.038714  -0.000005
    17  F   -0.000540   0.000310   0.243776  -0.038714   9.105899   0.000081
    18  C   -0.000055   0.000481   0.002742  -0.000005   0.000081   4.787660
    19  F    0.000000  -0.000002  -0.000082   0.000000   0.000000   0.248404
    20  C    0.000000   0.000000  -0.000087   0.000000  -0.000001   0.219567
    21  F    0.000000   0.000000   0.000000   0.000000   0.000000  -0.020590
    22  F    0.000000   0.000000  -0.000002   0.000000   0.000000  -0.034818
    23  F    0.000000   0.000000   0.000133   0.000000   0.000000  -0.032721
    24  F    0.000000   0.000683  -0.000850   0.000000   0.000000   0.241009
    25  F   -0.000002  -0.000008   0.003310  -0.000001  -0.000405  -0.028000
              19         20         21         22         23         24
     1  F    0.000004  -0.002271   0.000001   0.000006  -0.001089  -0.000996
     2  C    0.002135  -0.003615  -0.000015  -0.002489   0.012968   0.001342
     3  C    0.000018   0.001244   0.000005   0.001743  -0.000827   0.000157
     4  F    0.000001   0.011956  -0.000003  -0.001057  -0.007817   0.000002
     5  C    0.000000   0.000012   0.000000   0.000001  -0.000104   0.000003
     6  F    0.000000   0.000000   0.000000   0.000000   0.000000   0.000000
     7  F    0.000000   0.000000   0.000000   0.000000   0.000000   0.000000
     8  F    0.000000  -0.000004   0.000000   0.000000   0.000001   0.000000
     9  F    0.000000  -0.000049   0.000000  -0.000008   0.000001   0.000000
    10  C   -0.021420  -0.049787   0.002082   0.006852  -0.004021  -0.029381
    11  O   -0.000775   0.001774  -0.000003   0.000008   0.000002  -0.000863
    12  C    0.000237   0.000265  -0.000001  -0.000001  -0.000014   0.002392
    13  F    0.000000   0.000000   0.000000   0.000000   0.000000   0.000000
    14  F   -0.000002   0.000000   0.000000   0.000000   0.000000   0.000683
    15  C   -0.000082  -0.000087   0.000000  -0.000002   0.000133  -0.000850
    16  F    0.000000   0.000000   0.000000   0.000000   0.000000   0.000000
    17  F    0.000000  -0.000001   0.000000   0.000000   0.000000   0.000000
    18  C    0.248404   0.219567  -0.020590  -0.034818  -0.032721   0.241009
    19  F    9.094196  -0.017574  -0.000515  -0.000324   0.000313  -0.038324
    20  C   -0.017574   4.228890   0.297042   0.274844   0.267772  -0.016459
    21  F   -0.000515   0.297042   9.048364  -0.038526  -0.039543  -0.000707
    22  F   -0.000324   0.274844  -0.038526   9.075614  -0.036641   0.000307
    23  F    0.000313   0.267772  -0.039543  -0.036641   9.088675  -0.000165
    24  F   -0.038324  -0.016459  -0.000707   0.000307  -0.000165   9.104671
    25  F   -0.000600   0.000538  -0.000001   0.000336  -0.000016   0.000294
              25
     1  F    0.000389
     2  C   -0.045138
     3  C    0.018106
     4  F   -0.001367
     5  C    0.000197
     6  F    0.000000
     7  F    0.000000
     8  F    0.000000
     9  F   -0.003568
    10  C    0.258673
    11  O   -0.046463
    12  C    0.000014
    13  F   -0.000002
    14  F   -0.000008
    15  C    0.003310
    16  F   -0.000001
    17  F   -0.000405
    18  C   -0.028000
    19  F   -0.000600
    20  C    0.000538
    21  F   -0.000001
    22  F    0.000336
    23  F   -0.000016
    24  F    0.000294
    25  F    9.100482
 Mulliken charges:
               1
     1  F   -0.283678
     2  C    0.120369
     3  C    0.533374
     4  F   -0.266470
     5  C    0.788802
     6  F   -0.245276
     7  F   -0.238720
     8  F   -0.241266
     9  F   -0.260062
    10  C    0.486575
    11  O   -0.503801
    12  C    0.764525
    13  F   -0.242325
    14  F   -0.247734
    15  C    0.550466
    16  F   -0.254458
    17  F   -0.255997
    18  C    0.535651
    19  F   -0.265690
    20  C    0.785942
    21  F   -0.247590
    22  F   -0.245846
    23  F   -0.246907
    24  F   -0.263114
    25  F   -0.256769
 Sum of Mulliken charges =   0.00000
 Mulliken charges with hydrogens summed into heavy atoms:
               1
     1  F   -0.283678
     2  C    0.120369
     3  C    0.533374
     4  F   -0.266470
     5  C    0.788802
     6  F   -0.245276
     7  F   -0.238720
     8  F   -0.241266
     9  F   -0.260062
    10  C    0.486575
    11  O   -0.503801
    12  C    0.764525
    13  F   -0.242325
    14  F   -0.247734
    15  C    0.550466
    16  F   -0.254458
    17  F   -0.255997
    18  C    0.535651
    19  F   -0.265690
    20  C    0.785942
    21  F   -0.247590
    22  F   -0.245846
    23  F   -0.246907
    24  F   -0.263114
    25  F   -0.256769
 Electronic spatial extent (au):  <R**2>=           5797.9553
 Charge=              0.0000 electrons
 Dipole moment (field-independent basis, Debye):
    X=              0.6068    Y=             -0.0269    Z=              0.2785  Tot=              0.6681
 Quadrupole moment (field-independent basis, Debye-Ang):
   XX=           -131.5711   YY=           -130.5018   ZZ=           -131.4135
   XY=             -1.0379   XZ=             -0.1910   YZ=             -0.4166
 Traceless Quadrupole moment (field-independent basis, Debye-Ang):
   XX=             -0.4089   YY=              0.6603   ZZ=             -0.2514
   XY=             -1.0379   XZ=             -0.1910   YZ=             -0.4166
 Octapole moment (field-independent basis, Debye-Ang**2):
  XXX=              5.3827  YYY=              2.9478  ZZZ=              5.0263  XYY=              3.4959
  XXY=              1.6280  XXZ=              1.7277  XZZ=              1.4070  YZZ=              2.8606
  YYZ=              2.8374  XYZ=              0.9044
 Hexadecapole moment (field-independent basis, Debye-Ang**3):
 XXXX=          -2735.1185 YYYY=          -2122.9634 ZZZZ=           -862.0066 XXXY=            104.9302
 XXXZ=           -255.6997 YYYX=             98.2238 YYYZ=            -88.2431 ZZZX=           -254.6506
 ZZZY=            -88.2816 XXYY=           -813.4304 XXZZ=           -596.5452 YYZZ=           -500.7839
 XXYZ=            -30.7969 YYXZ=            -84.6827 ZZXY=             32.0227
 N-N= 3.161252835350D+03 E-N=-1.100916121595D+04  KE= 1.963685371806D+03
 No NMR shielding tensors so no spin-rotation constants.
 Leave Link  601 at Thu Feb  6 02:10:39 2025, MaxMem=  5368709120 cpu:         4.0
 (Enter /home/k0335/k033513/app/g09/l701.exe)
 Compute integral first derivatives.
 ... and contract with generalized density number  0.
 D1PCM: PCM CHGder 1st derivatives, ID1Alg=3 FixD1E=F DoIter=F DoCFld=F I1PDM=0.
 GePol: Maximum number of non-zero 1st derivatives   =     207
 Leave Link  701 at Thu Feb  6 02:10:40 2025, MaxMem=  5368709120 cpu:        14.6
 (Enter /home/k0335/k033513/app/g09/l702.exe)
 L702 exits ... SP integral derivatives will be done elsewhere.
 Leave Link  702 at Thu Feb  6 02:10:40 2025, MaxMem=  5368709120 cpu:         0.2
 (Enter /home/k0335/k033513/app/g09/l703.exe)
 Compute integral first derivatives, UseDBF=F ICtDFT=           0.
 Integral derivatives from FoFJK, PRISM(SPDF).
 Calling FoFJK, ICntrl=      2127 FMM=F ISym2X=0 I1Cent= 0 IOpClX= 0 NMat=1 NMatS=1 NMatT=0.
 FoFJK:  IHMeth= 1 ICntrl=    2127 DoSepK=T KAlg= 0 I1Cent=   0 FoldK=F
 IRaf=         1 NMat=   1 IRICut=       1 DoRegI=T DoRafI=F ISym2E= 0.
 FoFCou: FMM=F IPFlag=           0 FMFlag=      100000 FMFlg1=         800
         NFxFlg=           0 DoJE=F BraDBF=F KetDBF=F FulRan=T
         wScrn=  0.000000 ICntrl=    2527 IOpCl=  0 I1Cent=           0 NGrid=           0
         NMat0=    1 NMatS0=      1 NMatT0=    0 NMatD0=    1 NMtDS0=    0 NMtDT0=    0
 Symmetry not used in FoFCou.
 Leave Link  703 at Thu Feb  6 02:10:45 2025, MaxMem=  5368709120 cpu:       133.6
 (Enter /home/k0335/k033513/app/g09/l716.exe)
 Dipole        = 2.38715066D-01-1.05987995D-02 1.09555709D-01
 -------------------------------------------------------------------
 Center     Atomic                   Forces (Hartrees/Bohr)
 Number     Number              X              Y              Z
 -------------------------------------------------------------------
      1        9           0.007301804   -0.001650694    0.003553318
      2        6          -0.003177336    0.007747460    0.001553531
      3        6          -0.005061216    0.027874097   -0.025787593
      4        9           0.019775883   -0.007518183    0.006831323
      5        6           0.035758384    0.009758102    0.030354010
      6        9          -0.017755502   -0.013751822   -0.004666093
      7        9          -0.010189318    0.015775288   -0.006038601
      8        9           0.000686358   -0.000085620   -0.019610201
      9        9           0.005791267   -0.001771913    0.018699542
     10        6          -0.007530448   -0.023083454   -0.036332876
     11        8           0.026796388    0.016690934    0.032098066
     12        6          -0.035701866   -0.030291802   -0.023717492
     13        9          -0.001785598    0.017037305    0.004175092
     14        9           0.014166616   -0.001586047    0.000619299
     15        6           0.025121553   -0.013752637    0.008771026
     16        9          -0.014741321   -0.006275823   -0.001047416
     17        9          -0.011971430   -0.007430229    0.002525616
     18        6          -0.026970367   -0.027091268   -0.003747651
     19        9           0.019313650    0.010538852    0.009819462
     20        6          -0.009227628    0.047567975    0.015460847
     21        9           0.015518514   -0.014999461   -0.006712781
     22        9          -0.007335835   -0.016275288    0.007704904
     23        9          -0.019929907   -0.008111284   -0.010094344
     24        9           0.011304745    0.014916583   -0.009148649
     25        9          -0.010157390    0.005768928    0.004737659
 -------------------------------------------------------------------
 Cartesian Forces:  Max     0.047567975 RMS     0.016868160
 Leave Link  716 at Thu Feb  6 02:10:46 2025, MaxMem=  5368709120 cpu:         0.2
 (Enter /home/k0335/k033513/app/g09/l103.exe)

 GradGradGradGradGradGradGradGradGradGradGradGradGradGradGradGradGradGrad
 Berny optimization.
 FormGI is forming the generalized inverse of G from B-inverse, IUseBI=4.
 Internal  Forces:  Max     0.056290995 RMS     0.012654360
 Search for a local minimum.
 Step number   1 out of a maximum of  150
 All quantities printed in internal units (Hartrees-Bohrs-Radians)
 RMS Force = .12654D-01 SwitMx=.10000D-02 MixMth= 1
 Mixed Optimization -- RFO/linear search
 Second derivative matrix not updated -- first step.
 ITU=  0
     Eigenvalues ---    0.00243   0.00413   0.00554   0.00561   0.00614
     Eigenvalues ---    0.01113   0.03689   0.04454   0.04923   0.05174
     Eigenvalues ---    0.05247   0.05755   0.06563   0.06805   0.06903
     Eigenvalues ---    0.06976   0.08083   0.08275   0.08338   0.08375
     Eigenvalues ---    0.08492   0.08665   0.09824   0.10238   0.10998
     Eigenvalues ---    0.12158   0.13386   0.13723   0.14534   0.17184
     Eigenvalues ---    0.17488   0.18356   0.19345   0.19589   0.20424
     Eigenvalues ---    0.23373   0.25000   0.25000   0.25000   0.25000
     Eigenvalues ---    0.25000   0.25000   0.25000   0.25000   0.27331
     Eigenvalues ---    0.28560   0.29731   0.30410   0.30756   0.30802
     Eigenvalues ---    0.30815   0.36214   0.40410   0.50745   0.51554
     Eigenvalues ---    0.52299   0.52526   0.52684   0.53807   0.54077
     Eigenvalues ---    0.54150   0.54221   0.54387   0.54700   0.54843
     Eigenvalues ---    0.54861   0.55052   0.56301   0.56310
 RFO step:  Lambda=-7.40566209D-02 EMin= 2.43008459D-03
 Linear search not attempted -- first point.
 Maximum step size (   0.300) exceeded in Quadratic search.
    -- Step size scaled by   0.701
 Iteration  1 RMS(Cart)=  0.16376982 RMS(Int)=  0.00800010
 Iteration  2 RMS(Cart)=  0.01293447 RMS(Int)=  0.00065961
 Iteration  3 RMS(Cart)=  0.00010205 RMS(Int)=  0.00065767
 Iteration  4 RMS(Cart)=  0.00000015 RMS(Int)=  0.00065767
 ITry= 1 IFail=0 DXMaxC= 9.24D-01 DCOld= 1.00D+10 DXMaxT= 3.00D-01 DXLimC= 3.00D+00 Rises=F
 Variable       Old X    -DE/DX   Delta X   Delta X   Delta X     New X
                                 (Linear)    (Quad)   (Total)
    R1        2.57614   0.00007   0.00000   0.00008   0.00008   2.57622
    R2        2.86392   0.04161   0.00000   0.07635   0.07635   2.94028
    R3        2.90128   0.03107   0.00000   0.06349   0.06301   2.96428
    R4        2.83654   0.03193   0.00000   0.06367   0.06352   2.90006
    R5        2.57399  -0.01637   0.00000  -0.01915  -0.01915   2.55484
    R6        2.88503   0.00640   0.00000   0.01209   0.01209   2.89712
    R7        2.57250  -0.01460   0.00000  -0.01704  -0.01704   2.55546
    R8        2.55831  -0.02095   0.00000  -0.02383  -0.02383   2.53447
    R9        2.55256  -0.01838   0.00000  -0.02070  -0.02070   2.53186
   R10        2.55399  -0.01842   0.00000  -0.02079  -0.02079   2.53320
   R11        2.75182  -0.01677   0.00000  -0.02898  -0.02897   2.72285
   R12        2.90929   0.01872   0.00000   0.03648   0.03648   2.94578
   R13        2.56207  -0.00474   0.00000  -0.00543  -0.00543   2.55665
   R14        2.67927  -0.02128   0.00000  -0.03282  -0.03229   2.64698
   R15        2.53986  -0.01721   0.00000  -0.01894  -0.01894   2.52093
   R16        2.55085  -0.00737   0.00000  -0.00827  -0.00827   2.54259
   R17        2.84529   0.00823   0.00000   0.01084   0.01099   2.85628
   R18        2.53993  -0.00650   0.00000  -0.00715  -0.00715   2.53278
   R19        2.55895  -0.00969   0.00000  -0.01104  -0.01104   2.54792
   R20        2.59121  -0.02142   0.00000  -0.02582  -0.02582   2.56539
   R21        2.86482   0.00952   0.00000   0.01750   0.01750   2.88231
   R22        2.58329  -0.01903   0.00000  -0.02263  -0.02263   2.56066
   R23        2.55961  -0.02056   0.00000  -0.02345  -0.02345   2.53617
   R24        2.55271  -0.01760   0.00000  -0.01982  -0.01982   2.53290
   R25        2.55680  -0.02038   0.00000  -0.02312  -0.02312   2.53368
    A1        1.92627  -0.00498   0.00000  -0.00689  -0.00701   1.91926
    A2        1.89000   0.00512   0.00000   0.00840   0.00782   1.89782
    A3        1.90292  -0.00610   0.00000  -0.02798  -0.02741   1.87551
    A4        1.99948   0.00529   0.00000   0.01646   0.01736   2.01684
    A5        1.95945   0.01488   0.00000   0.03237   0.03248   1.99193
    A6        1.77862  -0.01528   0.00000  -0.02574  -0.02708   1.75154
    A7        1.89144   0.00434   0.00000   0.02248   0.02331   1.91474
    A8        1.98583   0.02250   0.00000   0.04921   0.04955   2.03538
    A9        1.92579  -0.00047   0.00000   0.00946   0.01008   1.93587
   A10        1.91146  -0.01935   0.00000  -0.05479  -0.05571   1.85574
   A11        1.82813   0.00684   0.00000   0.01393   0.01208   1.84021
   A12        1.91437  -0.01516   0.00000  -0.04316  -0.04394   1.87043
   A13        1.94471  -0.01448   0.00000  -0.03478  -0.03509   1.90962
   A14        1.95306  -0.00309   0.00000  -0.00523  -0.00534   1.94772
   A15        1.95030  -0.00694   0.00000  -0.01302  -0.01317   1.93713
   A16        1.86461   0.00735   0.00000   0.01219   0.01195   1.87656
   A17        1.87242   0.01002   0.00000   0.01898   0.01864   1.89106
   A18        1.87404   0.00903   0.00000   0.02585   0.02589   1.89992
   A19        1.88037  -0.00760   0.00000  -0.01655  -0.01496   1.86540
   A20        2.04428   0.03464   0.00000   0.09208   0.09220   2.13649
   A21        1.91814  -0.00537   0.00000  -0.00263  -0.00304   1.91510
   A22        1.86420  -0.02233   0.00000  -0.07665  -0.07610   1.78810
   A23        1.82135   0.01061   0.00000   0.02257   0.02162   1.84297
   A24        1.92100  -0.01269   0.00000  -0.02795  -0.02977   1.89123
   A25        1.84389   0.02860   0.00000   0.05873   0.05770   1.90158
   A26        1.91397   0.00524   0.00000   0.00796   0.00789   1.92187
   A27        1.86292   0.01228   0.00000   0.03759   0.03715   1.90008
   A28        1.84848  -0.01222   0.00000  -0.02738  -0.02742   1.82106
   A29        1.88734   0.00187   0.00000   0.00693   0.00662   1.89396
   A30        1.98980  -0.00128   0.00000  -0.00416  -0.00446   1.98533
   A31        1.95689  -0.00482   0.00000  -0.01785  -0.01743   1.93946
   A32        1.75994   0.00746   0.00000   0.02415   0.02454   1.78448
   A33        1.96971   0.00435   0.00000   0.01577   0.01617   1.98588
   A34        1.93264  -0.00046   0.00000   0.00508   0.00508   1.93772
   A35        1.99357  -0.00990   0.00000  -0.03340  -0.03355   1.96002
   A36        1.93434  -0.00893   0.00000  -0.03584  -0.03647   1.89787
   A37        1.87352   0.00692   0.00000   0.02253   0.02156   1.89509
   A38        1.88663  -0.02273   0.00000  -0.05554  -0.05404   1.83259
   A39        2.01329   0.05629   0.00000   0.12467   0.12531   2.13860
   A40        1.90081  -0.01198   0.00000  -0.01448  -0.01477   1.88604
   A41        1.90325  -0.01798   0.00000  -0.04626  -0.04496   1.85829
   A42        1.83398   0.01470   0.00000   0.02561   0.02399   1.85797
   A43        1.91718  -0.02172   0.00000  -0.04253  -0.04410   1.87308
   A44        1.94925  -0.01594   0.00000  -0.04113  -0.04155   1.90770
   A45        1.95461  -0.00879   0.00000  -0.01548  -0.01577   1.93884
   A46        1.94524   0.00093   0.00000   0.00515   0.00507   1.95031
   A47        1.87218   0.01026   0.00000   0.01649   0.01588   1.88806
   A48        1.85884   0.00412   0.00000   0.00221   0.00202   1.86085
   A49        1.87887   0.01123   0.00000   0.03652   0.03654   1.91542
    D1       -1.13255   0.00181   0.00000  -0.00440  -0.00449  -1.13704
    D2        0.99808  -0.00478   0.00000  -0.02532  -0.02505   0.97302
    D3       -3.12484  -0.00850   0.00000  -0.03849  -0.03813   3.12022
    D4        1.00596   0.00856   0.00000   0.01337   0.01320   1.01917
    D5        3.13659   0.00198   0.00000  -0.00755  -0.00736   3.12923
    D6       -0.98632  -0.00174   0.00000  -0.02072  -0.02044  -1.00676
    D7        3.02378   0.00288   0.00000   0.01403   0.01348   3.03725
    D8       -1.12878  -0.00371   0.00000  -0.00689  -0.00709  -1.13586
    D9        1.03150  -0.00742   0.00000  -0.02006  -0.02017   1.01133
   D10       -1.68789   0.00462   0.00000  -0.00153  -0.00110  -1.68899
   D11        0.41236  -0.00730   0.00000  -0.05301  -0.05309   0.35928
   D12        2.62100  -0.00113   0.00000  -0.01798  -0.01705   2.60395
   D13        2.43726   0.00346   0.00000  -0.01055  -0.01049   2.42677
   D14       -1.74568  -0.00846   0.00000  -0.06203  -0.06247  -1.80816
   D15        0.46296  -0.00229   0.00000  -0.02699  -0.02644   0.43652
   D16        0.31706  -0.00730   0.00000  -0.04157  -0.04108   0.27598
   D17        2.41731  -0.01923   0.00000  -0.09305  -0.09306   2.32424
   D18       -1.65724  -0.01306   0.00000  -0.05802  -0.05703  -1.71426
   D19        1.37421   0.00076   0.00000   0.01449   0.01522   1.38944
   D20       -0.75994   0.00580   0.00000   0.03156   0.03177  -0.72817
   D21       -2.86067  -0.00574   0.00000  -0.01179  -0.01159  -2.87226
   D22       -2.76886   0.00011   0.00000   0.00768   0.00816  -2.76070
   D23        1.38016   0.00515   0.00000   0.02474   0.02471   1.40488
   D24       -0.72056  -0.00638   0.00000  -0.01860  -0.01865  -0.73921
   D25       -0.62121   0.00459   0.00000   0.02806   0.02857  -0.59264
   D26       -2.75536   0.00963   0.00000   0.04513   0.04511  -2.71025
   D27        1.42710  -0.00190   0.00000   0.00178   0.00175   1.42885
   D28       -3.06223   0.00030   0.00000   0.00944   0.00952  -3.05271
   D29        1.13456   0.00295   0.00000   0.02128   0.02131   1.15587
   D30       -0.96776  -0.00162   0.00000   0.00085   0.00106  -0.96670
   D31       -0.94270   0.00712   0.00000   0.03198   0.03103  -0.91167
   D32       -3.02909   0.00977   0.00000   0.04381   0.04282  -2.98627
   D33        1.15177   0.00520   0.00000   0.02339   0.02257   1.17435
   D34        1.05451  -0.00378   0.00000  -0.00552  -0.00473   1.04977
   D35       -1.03189  -0.00113   0.00000   0.00631   0.00705  -1.02484
   D36       -3.13421  -0.00570   0.00000  -0.01411  -0.01319   3.13578
   D37        0.14418   0.00710   0.00000   0.03427   0.03533   0.17950
   D38       -2.06607  -0.01646   0.00000  -0.01980  -0.02052  -2.08659
   D39        2.18260   0.00274   0.00000   0.03485   0.03548   2.21808
   D40       -3.06915   0.00337   0.00000   0.01119   0.01161  -3.05754
   D41        1.07899   0.00559   0.00000   0.02847   0.03005   1.10904
   D42       -1.08549   0.00277   0.00000   0.00516   0.00569  -1.07979
   D43       -0.96040  -0.00109   0.00000  -0.00936  -0.01149  -0.97189
   D44       -3.09544   0.00113   0.00000   0.00792   0.00695  -3.08849
   D45        1.02327  -0.00168   0.00000  -0.01539  -0.01741   1.00586
   D46        1.00680  -0.00646   0.00000  -0.03647  -0.03604   0.97076
   D47       -1.12824  -0.00424   0.00000  -0.01919  -0.01760  -1.14584
   D48        2.99046  -0.00705   0.00000  -0.04251  -0.04196   2.94851
   D49       -2.71251   0.00093   0.00000   0.00170   0.00160  -2.71091
   D50        1.53016  -0.01079   0.00000  -0.03142  -0.03224   1.49792
   D51       -0.55803  -0.00513   0.00000  -0.01560  -0.01599  -0.57402
   D52        0.75421  -0.00236   0.00000  -0.01549  -0.01593   0.73828
   D53        2.87159   0.00275   0.00000   0.00242   0.00200   2.87359
   D54       -1.29285  -0.00209   0.00000  -0.01929  -0.01908  -1.31193
   D55        2.86015  -0.00499   0.00000  -0.02684  -0.02715   2.83300
   D56       -1.30565   0.00012   0.00000  -0.00894  -0.00921  -1.31486
   D57        0.81309  -0.00472   0.00000  -0.03064  -0.03030   0.78279
   D58       -1.27121  -0.00733   0.00000  -0.03504  -0.03542  -1.30664
   D59        0.84617  -0.00223   0.00000  -0.01714  -0.01749   0.82868
   D60        2.96491  -0.00706   0.00000  -0.03884  -0.03858   2.92634
   D61        3.05217  -0.00701   0.00000  -0.04567  -0.04549   3.00668
   D62        0.95189  -0.00289   0.00000  -0.02723  -0.02733   0.92455
   D63       -1.15417  -0.01183   0.00000  -0.06695  -0.06682  -1.22099
   D64        0.92604  -0.00278   0.00000  -0.02454  -0.02387   0.90217
   D65       -1.17424   0.00133   0.00000  -0.00610  -0.00571  -1.17996
   D66        3.00288  -0.00761   0.00000  -0.04582  -0.04520   2.95768
   D67       -1.07515   0.00150   0.00000  -0.00623  -0.00674  -1.08189
   D68        3.10775   0.00562   0.00000   0.01221   0.01141   3.11917
   D69        1.00169  -0.00333   0.00000  -0.02751  -0.02808   0.97362
         Item               Value     Threshold  Converged?
 Maximum Force            0.056291     0.000450     NO 
 RMS     Force            0.012654     0.000300     NO 
 Maximum Displacement     0.924198     0.001800     NO 
 RMS     Displacement     0.168637     0.001200     NO 
 Predicted change in Energy=-3.920873D-02
 Lowest energy point so far.  Saving SCF results.
 GradGradGradGradGradGradGradGradGradGradGradGradGradGradGradGradGradGrad

 Leave Link  103 at Thu Feb  6 02:10:46 2025, MaxMem=  5368709120 cpu:         7.7
 (Enter /home/k0335/k033513/app/g09/l202.exe)
                          Input orientation:                          
 ---------------------------------------------------------------------
 Center     Atomic      Atomic             Coordinates (Angstroms)
 Number     Number       Type             X           Y           Z
 ---------------------------------------------------------------------
      1          9           0       -0.090178   -0.149732    1.477630
      2          6           0        0.445270   -0.220796    0.225922
      3          6           0        1.516713    0.892419    0.042426
      4          9           0        0.926188    2.107286    0.098890
      5          6           0        2.659591    0.920881    1.063886
      6          9           0        3.431516    1.994425    0.839356
      7          9           0        3.438697   -0.164382    0.962540
      8          9           0        2.183792    0.997395    2.314779
      9          9           0        2.080017    0.822719   -1.184978
     10          6           0       -0.721679   -0.216243   -0.822320
     11          8           0       -0.978680   -1.591152   -1.168261
[...]
 Symmetry turned off by external request.
 Stoichiometry    C8F16O
 Framework group  C1[X(C8F16O)]
 Deg. of freedom    69
 Full point group                 C1      NOp   1
 Rotational constants (GHZ):      0.3065991      0.2427921      0.1733367
 Leave Link  202 at Thu Feb  6 02:19:39 2025, MaxMem=  5368709120 cpu:         0.4
 (Enter /home/k0335/k033513/app/g09/l601.exe)
 Copying SCF densities to generalized density rwf, IOpCl= 0 IROHF=0.

 **********************************************************************

            Population analysis using the SCF density.

 **********************************************************************

 Alpha  occ. eigenvalues --  -24.84053 -24.83727 -24.83720 -24.83684 -24.83673
 Alpha  occ. eigenvalues --  -24.83582 -24.83569 -24.83533 -24.83433 -24.83410
 Alpha  occ. eigenvalues --  -24.83340 -24.83227 -24.83154 -24.83139 -24.82794
 Alpha  occ. eigenvalues --  -24.82771 -19.32264 -10.54945 -10.54522 -10.52729
 Alpha  occ. eigenvalues --  -10.49512 -10.48998 -10.48646 -10.48092 -10.43617
 Alpha  occ. eigenvalues --   -1.43576  -1.43059  -1.41377  -1.39448  -1.38966
 Alpha  occ. eigenvalues --   -1.38687  -1.36274  -1.35868  -1.34212  -1.33825
 Alpha  occ. eigenvalues --   -1.33782  -1.33616  -1.33292  -1.32911  -1.32546
 Alpha  occ. eigenvalues --   -1.32242  -1.22591  -0.95823  -0.91813  -0.89224
 Alpha  occ. eigenvalues --   -0.86532  -0.81630  -0.78442  -0.76718  -0.75775
 Alpha  occ. eigenvalues --   -0.72765  -0.72205  -0.71111  -0.70982  -0.70568
 Alpha  occ. eigenvalues --   -0.69954  -0.69691  -0.69466  -0.68520  -0.68216
 Alpha  occ. eigenvalues --   -0.67244  -0.66600  -0.66201  -0.65580  -0.64583
 Alpha  occ. eigenvalues --   -0.63281  -0.58714  -0.57845  -0.57457  -0.57152
 Alpha  occ. eigenvalues --   -0.56779  -0.56607  -0.56502  -0.56016  -0.55814
 Alpha  occ. eigenvalues --   -0.55394  -0.54958  -0.54659  -0.54355  -0.54158
 Alpha  occ. eigenvalues --   -0.53946  -0.53561  -0.53049  -0.52798  -0.52548
 Alpha  occ. eigenvalues --   -0.51982  -0.51701  -0.51587  -0.50953  -0.50894
 Alpha  occ. eigenvalues --   -0.50568  -0.50384  -0.50116  -0.49801  -0.48931
 Alpha  occ. eigenvalues --   -0.48025  -0.46352  -0.44398  -0.43148  -0.41671
 Alpha virt. eigenvalues --    0.03524   0.08102   0.09335   0.12752   0.13784
 Alpha virt. eigenvalues --    0.14809   0.16414   0.19026   0.20966   0.23777
 Alpha virt. eigenvalues --    0.24409   0.25194   0.25615   0.26103   0.26849
 Alpha virt. eigenvalues --    0.28002   0.29001   0.29702   0.30120   0.31254
 Alpha virt. eigenvalues --    0.31939   0.33755   0.36125   0.36840   0.38541
 Alpha virt. eigenvalues --    0.44993   0.47627   0.48627   0.49947   0.50714
 Alpha virt. eigenvalues --    0.51554   0.52473   0.53971   0.55142   0.56466
 Alpha virt. eigenvalues --    0.57368   0.58560   0.61305   0.62791   0.64018
 Alpha virt. eigenvalues --    0.64802   0.66307   0.68774   0.69540   0.71549
 Alpha virt. eigenvalues --    0.73144   0.75277   0.77545   0.80609   0.86022
 Alpha virt. eigenvalues --    0.90909   0.91495   0.92522   0.95683   0.98783
 Alpha virt. eigenvalues --    1.01021   1.03600   1.05354   1.07556   1.08049
 Alpha virt. eigenvalues --    1.09124   1.09839   1.10716   1.11398   1.12299
 Alpha virt. eigenvalues --    1.13367   1.13915   1.14097   1.16155   1.17480
 Alpha virt. eigenvalues --    1.19299   1.19995   1.20846   1.22082   1.23882
 Alpha virt. eigenvalues --    1.25428   1.27710   1.28424   1.29136   1.30608
 Alpha virt. eigenvalues --    1.31172   1.31577   1.32712   1.33621   1.34991
 Alpha virt. eigenvalues --    1.35203   1.36121   1.36745   1.37263   1.38153
 Alpha virt. eigenvalues --    1.38600   1.38708   1.39332   1.39863   1.40738
 Alpha virt. eigenvalues --    1.40996   1.41744   1.42495   1.43190   1.43568
 Alpha virt. eigenvalues --    1.44136   1.44960   1.45642   1.46367   1.47470
 Alpha virt. eigenvalues --    1.47714   1.49588   1.50271   1.51164   1.52223
 Alpha virt. eigenvalues --    1.52707   1.53696   1.54116   1.55721   1.56897
 Alpha virt. eigenvalues --    1.57360   1.58195   1.59890   1.62063   1.63797
 Alpha virt. eigenvalues --    1.65167   1.65867   1.66380   1.67888   1.70174
 Alpha virt. eigenvalues --    1.71519   1.72609   1.73545   1.74158   1.74664
 Alpha virt. eigenvalues --    1.74794   1.76055   1.77100   1.78323   1.80981
 Alpha virt. eigenvalues --    1.81656   1.82706   1.82847   1.83139   1.83812
 Alpha virt. eigenvalues --    1.85236   1.85962   1.86349   1.86523   1.87550
 Alpha virt. eigenvalues --    1.88339   1.88425   1.88773   1.90177   1.90655
 Alpha virt. eigenvalues --    1.91566   1.92673   1.93042   1.95281   1.96742
 Alpha virt. eigenvalues --    1.97215   1.97930   1.98498   1.99622   2.01174
 Alpha virt. eigenvalues --    2.02138   2.02304   2.02859   2.02932   2.03279
 Alpha virt. eigenvalues --    2.03643   2.03766   2.05299   2.05779   2.07696
 Alpha virt. eigenvalues --    2.08267   2.09446   2.10802   2.11282   2.11851
 Alpha virt. eigenvalues --    2.13065   2.15391   2.15800   2.16478   2.17477
 Alpha virt. eigenvalues --    2.18284   2.18958   2.20224   2.21347   2.24270
 Alpha virt. eigenvalues --    2.25975   2.27403   2.28377   2.30193   2.30927
 Alpha virt. eigenvalues --    2.32857   2.35254   2.35787   2.36455   2.36847
 Alpha virt. eigenvalues --    2.39215   2.40176   2.44268   2.45131   2.45568
 Alpha virt. eigenvalues --    2.46471   2.47360   2.48890   2.49994   2.51913
 Alpha virt. eigenvalues --    2.53261   2.53992   2.58686   2.60232   2.62691
 Alpha virt. eigenvalues --    2.64838   2.67529   2.70301   2.72411   2.73146
 Alpha virt. eigenvalues --    2.76553   2.80086   2.81005   2.81624   2.82743
 Alpha virt. eigenvalues --    2.85490   2.88035   2.90578   2.91249   2.93547
 Alpha virt. eigenvalues --    2.95155   2.96452   2.97698   2.98105   2.99747
 Alpha virt. eigenvalues --    3.00799   3.01717   3.04247   3.08214   3.09264
 Alpha virt. eigenvalues --    3.10982   3.11795   3.12214   3.13096   3.13588
 Alpha virt. eigenvalues --    3.15106   3.15528   3.18033   3.22250   3.22633
 Alpha virt. eigenvalues --    3.25557   3.27137   3.29945   3.36925   3.37846
 Alpha virt. eigenvalues --    4.18133   4.24557   4.31023   4.34299   4.42562
 Alpha virt. eigenvalues --    4.53171   4.56313   4.63379   4.71078   4.73037
 Alpha virt. eigenvalues --    4.84774   4.95577   4.97912   5.09326   5.13074
 Alpha virt. eigenvalues --    5.24729   5.34413   5.43849   5.63639   5.78928
 Alpha virt. eigenvalues --    5.87456   6.25440   6.30705   6.44673   6.75542
          Condensed to atoms (all electrons):
               1          2          3          4          5          6
     1  F    9.146414   0.198057  -0.026108  -0.000188   0.006898   0.000002
     2  C    0.198057   5.666501   0.133880  -0.034102  -0.047965   0.002471
     3  C   -0.026108   0.133880   4.779295   0.231347   0.258905  -0.025249
     4  F   -0.000188  -0.034102   0.231347   9.108286  -0.016131  -0.000506
     5  C    0.006898  -0.047965   0.258905  -0.016131   4.153781   0.304854
     6  F    0.000002   0.002471  -0.025249  -0.000506   0.304854   9.034096
     7  F   -0.000347   0.000713  -0.040393   0.000367   0.280901  -0.039193
     8  F    0.000158   0.001479  -0.037348  -0.000138   0.295106  -0.039751
     9  F    0.000330  -0.036487   0.235850  -0.033286  -0.015495  -0.000666
    10  C   -0.027569   0.130002  -0.031593   0.007499   0.003650  -0.000027
    11  O    0.000218  -0.027229   0.002567   0.000014  -0.000034   0.000000
    12  C    0.006206  -0.063061   0.003167  -0.000050   0.000081   0.000000
    13  F    0.000000   0.002148  -0.000008   0.000000   0.000000   0.000000
    14  F   -0.000191   0.003664   0.000031   0.000000  -0.000002   0.000000
    15  C   -0.024529   0.116842  -0.032975   0.001809  -0.006710   0.000032
    16  F   -0.000451  -0.029888  -0.003364  -0.000001   0.003675   0.000000
    17  F    0.000349  -0.050148   0.007919   0.000001  -0.001314   0.000001
    18  C    0.010926  -0.050185  -0.000523  -0.004111  -0.000052   0.000000
    19  F    0.000004   0.002136   0.000018   0.000001   0.000000   0.000000
    20  C   -0.001609  -0.001500   0.000838   0.009589   0.000002   0.000000
    21  F    0.000001  -0.000014   0.000000   0.000001   0.000000   0.000000
    22  F    0.000004  -0.001536   0.000643  -0.000175  -0.000002   0.000000
    23  F    0.000223   0.007315  -0.000943  -0.000196  -0.000021   0.000000
    24  F   -0.001045   0.003797   0.000136   0.000001   0.000002   0.000000
    25  F    0.000347  -0.044410   0.019538  -0.001662   0.000188   0.000000
               7          8          9         10         11         12
     1  F   -0.000347   0.000158   0.000330  -0.027569   0.000218   0.006206
     2  C    0.000713   0.001479  -0.036487   0.130002  -0.027229  -0.063061
     3  C   -0.040393  -0.037348   0.235850  -0.031593   0.002567   0.003167
     4  F    0.000367  -0.000138  -0.033286   0.007499   0.000014  -0.000050
     5  C    0.280901   0.295106  -0.015495   0.003650  -0.000034   0.000081
     6  F   -0.039193  -0.039751  -0.000666  -0.000027   0.000000   0.000000
     7  F    9.059307  -0.037800  -0.000374   0.000116   0.000000   0.000161
     8  F   -0.037800   9.049050   0.000352  -0.000033   0.000000   0.000001
     9  F   -0.000374   0.000352   9.105508   0.001388  -0.000071  -0.000195
    10  C    0.000116  -0.000033   0.001388   4.950804   0.176200  -0.032758
    11  O    0.000000   0.000000  -0.000071   0.176200   8.358416   0.200181
    12  C    0.000161   0.000001  -0.000195  -0.032758   0.200181   4.308005
    13  F    0.000000   0.000000   0.000000   0.001568  -0.045772   0.321772
    14  F    0.000000   0.000000   0.000000  -0.000104  -0.047733   0.290342
    15  C    0.016265  -0.000430   0.003584  -0.028326  -0.048324   0.247823
    16  F   -0.001341  -0.000042   0.000006   0.002017   0.000939  -0.023011
    17  F   -0.000519   0.000001  -0.000964   0.009276  -0.001754  -0.019229
    18  C    0.000000   0.000005   0.000100   0.176469  -0.032636  -0.002505
    19  F    0.000000   0.000000   0.000000  -0.023214  -0.000759   0.000264
    20  C    0.000000  -0.000004  -0.000003  -0.049949   0.002031   0.000271
    21  F    0.000000   0.000000   0.000000   0.002258  -0.000006  -0.000001
    22  F    0.000000   0.000000  -0.000001   0.005595   0.000009   0.000000
    23  F    0.000000   0.000002   0.000000  -0.002115  -0.000001  -0.000009
    24  F    0.000000   0.000000   0.000000  -0.034089  -0.001042   0.004801
    25  F    0.000000   0.000000  -0.001499   0.266877  -0.043239   0.000518
              13         14         15         16         17         18
     1  F    0.000000  -0.000191  -0.024529  -0.000451   0.000349   0.010926
     2  C    0.002148   0.003664   0.116842  -0.029888  -0.050148  -0.050185
     3  C   -0.000008   0.000031  -0.032975  -0.003364   0.007919  -0.000523
     4  F    0.000000   0.000000   0.001809  -0.000001   0.000001  -0.004111
     5  C    0.000000  -0.000002  -0.006710   0.003675  -0.001314  -0.000052
     6  F    0.000000   0.000000   0.000032   0.000000   0.000001   0.000000
     7  F    0.000000   0.000000   0.016265  -0.001341  -0.000519   0.000000
     8  F    0.000000   0.000000  -0.000430  -0.000042   0.000001   0.000005
     9  F    0.000000   0.000000   0.003584   0.000006  -0.000964   0.000100
    10  C    0.001568  -0.000104  -0.028326   0.002017   0.009276   0.176469
    11  O   -0.045772  -0.047733  -0.048324   0.000939  -0.001754  -0.032636
    12  C    0.321772   0.290342   0.247823  -0.023011  -0.019229  -0.002505
    13  F    9.025884  -0.041470  -0.028689   0.000018  -0.000351  -0.000059
    14  F   -0.041470   9.076967  -0.038812   0.000594   0.000361   0.000948
    15  C   -0.028689  -0.038812   4.771933   0.261103   0.252953   0.002269
    16  F    0.000018   0.000594   0.261103   9.076435  -0.035031   0.000016
    17  F   -0.000351   0.000361   0.252953  -0.035031   9.093498   0.000028
    18  C   -0.000059   0.000948   0.002269   0.000016   0.000028   4.785476
    19  F    0.000000  -0.000001  -0.000077   0.000000   0.000000   0.241306
    20  C    0.000000  -0.000001  -0.000124   0.000000   0.000000   0.241571
    21  F    0.000000   0.000000   0.000000   0.000000   0.000000  -0.022117
    22  F    0.000000   0.000000  -0.000003   0.000000   0.000000  -0.037597
    23  F    0.000000   0.000000   0.000056   0.000000   0.000000  -0.036186
    24  F    0.000001   0.000084  -0.001555   0.000001   0.000000   0.242664
    25  F   -0.000001  -0.000005   0.001585  -0.000001  -0.000132  -0.031295
              19         20         21         22         23         24
     1  F    0.000004  -0.001609   0.000001   0.000004   0.000223  -0.001045
     2  C    0.002136  -0.001500  -0.000014  -0.001536   0.007315   0.003797
     3  C    0.000018   0.000838   0.000000   0.000643  -0.000943   0.000136
     4  F    0.000001   0.009589   0.000001  -0.000175  -0.000196   0.000001
     5  C    0.000000   0.000002   0.000000  -0.000002  -0.000021   0.000002
     6  F    0.000000   0.000000   0.000000   0.000000   0.000000   0.000000
     7  F    0.000000   0.000000   0.000000   0.000000   0.000000   0.000000
     8  F    0.000000  -0.000004   0.000000   0.000000   0.000002   0.000000
     9  F    0.000000  -0.000003   0.000000  -0.000001   0.000000   0.000000
    10  C   -0.023214  -0.049949   0.002258   0.005595  -0.002115  -0.034089
    11  O   -0.000759   0.002031  -0.000006   0.000009  -0.000001  -0.001042
    12  C    0.000264   0.000271  -0.000001   0.000000  -0.000009   0.004801
    13  F    0.000000   0.000000   0.000000   0.000000   0.000000   0.000001
    14  F   -0.000001  -0.000001   0.000000   0.000000   0.000000   0.000084
    15  C   -0.000077  -0.000124   0.000000  -0.000003   0.000056  -0.001555
    16  F    0.000000   0.000000   0.000000   0.000000   0.000000   0.000001
    17  F    0.000000   0.000000   0.000000   0.000000   0.000000   0.000000
    18  C    0.241306   0.241571  -0.022117  -0.037597  -0.036186   0.242664
    19  F    9.099537  -0.019747  -0.000334  -0.000206   0.000371  -0.033301
    20  C   -0.019747   4.197909   0.295806   0.283889   0.284741  -0.019320
    21  F   -0.000334   0.295806   9.042503  -0.038432  -0.039350  -0.000593
    22  F   -0.000206   0.283889  -0.038432   9.063573  -0.037171   0.000362
    23  F    0.000371   0.284741  -0.039350  -0.037171   9.060680   0.000160
    24  F   -0.033301  -0.019320  -0.000593   0.000362   0.000160   9.099467
    25  F   -0.000586   0.000456  -0.000002   0.000406  -0.000012   0.000347
              25
     1  F    0.000347
     2  C   -0.044410
     3  C    0.019538
     4  F   -0.001662
     5  C    0.000188
     6  F    0.000000
     7  F    0.000000
     8  F    0.000000
     9  F   -0.001499
    10  C    0.266877
    11  O   -0.043239
    12  C    0.000518
    13  F   -0.000001
    14  F   -0.000005
    15  C    0.001585
    16  F   -0.000001
    17  F   -0.000132
    18  C   -0.031295
    19  F   -0.000586
    20  C    0.000456
    21  F   -0.000002
    22  F    0.000406
    23  F   -0.000012
    24  F    0.000347
    25  F    9.092088
 Mulliken charges:
               1
     1  F   -0.288100
     2  C    0.117520
     3  C    0.524370
     4  F   -0.268370
     5  C    0.779683
     6  F   -0.236064
     7  F   -0.237863
     8  F   -0.230605
     9  F   -0.258079
    10  C    0.496058
    11  O   -0.491973
    12  C    0.757225
    13  F   -0.235041
    14  F   -0.244672
    15  C    0.534298
    16  F   -0.251674
    17  F   -0.254944
    18  C    0.515492
    19  F   -0.265412
    20  C    0.775155
    21  F   -0.239721
    22  F   -0.239357
    23  F   -0.237544
    24  F   -0.260877
    25  F   -0.259506
 Sum of Mulliken charges =   0.00000
 Mulliken charges with hydrogens summed into heavy atoms:
               1
     1  F   -0.288100
     2  C    0.117520
     3  C    0.524370
     4  F   -0.268370
     5  C    0.779683
     6  F   -0.236064
     7  F   -0.237863
     8  F   -0.230605
     9  F   -0.258079
    10  C    0.496058
    11  O   -0.491973
    12  C    0.757225
    13  F   -0.235041
    14  F   -0.244672
    15  C    0.534298
    16  F   -0.251674
    17  F   -0.254944
    18  C    0.515492
    19  F   -0.265412
    20  C    0.775155
    21  F   -0.239721
    22  F   -0.239357
    23  F   -0.237544
    24  F   -0.260877
    25  F   -0.259506
 Electronic spatial extent (au):  <R**2>=           5960.5187
 Charge=              0.0000 electrons
 Dipole moment (field-independent basis, Debye):
    X=              0.6326    Y=              0.1016    Z=              0.2554  Tot=              0.6898
 Quadrupole moment (field-independent basis, Debye-Ang):
   XX=           -130.2727   YY=           -129.9075   ZZ=           -131.0281
   XY=             -0.5400   XZ=             -0.0019   YZ=              0.1021
 Traceless Quadrupole moment (field-independent basis, Debye-Ang):
   XX=              0.1301   YY=              0.4952   ZZ=             -0.6253
   XY=             -0.5400   XZ=             -0.0019   YZ=              0.1021
 Octapole moment (field-independent basis, Debye-Ang**2):
  XXX=              6.1482  YYY=              5.3707  ZZZ=              4.8833  XYY=              1.8135
  XXY=              3.0116  XXZ=              3.8351  XZZ=              2.0205  YZZ=              2.9253
  YYZ=              2.5300  XYZ=              0.6662
 Hexadecapole moment (field-independent basis, Debye-Ang**3):
 XXXX=          -2823.6914 YYYY=          -2186.1611 ZZZZ=           -852.9001 XXXY=             98.6504
 XXXZ=           -239.3264 YYYX=             87.6377 YYYZ=           -101.8615 ZZZX=           -242.9098
 ZZZY=           -102.4390 XXYY=           -836.3875 XXZZ=           -609.3947 YYZZ=           -512.4175
 XXYZ=            -31.9429 YYXZ=            -79.6578 ZZXY=             31.3546
 N-N= 3.132287665117D+03 E-N=-1.095173058495D+04  KE= 1.964003108380D+03
 No NMR shielding tensors so no spin-rotation constants.
 Leave Link  601 at Thu Feb  6 02:19:39 2025, MaxMem=  5368709120 cpu:         3.9
 (Enter /home/k0335/k033513/app/g09/l9999.exe)
 1\1\GINC-C18U05N1\FOpt\RCAM-B3LYP\6-31G(d,p)\C8F16O1\K033513\06-Feb-20
 25\0\\#p CAM-B3LYP/6-31G(d,p) opt SCRF=(PCM,Solvent=Generic,Read) NoSy
 mm out=wfn\\Title S2_neu\\0,1\F,-0.0986137406,-0.0764501474,1.44293958
 23\C,0.4207395727,-0.2357169522,0.1886795442\C,1.4431446288,0.89252763
 64,-0.045011759\F,0.7772315529,2.0664439623,-0.0686324479\C,2.53023171
 19,1.0150527898,1.0427818377\F,3.395144315,1.9560967086,0.678210932\F,
 3.1797275217,-0.1443591718,1.1687827636\F,1.9961299074,1.3457144856,2.
 213049235\F,2.0661173223,0.7229844064,-1.2219762388\C,-0.7390595346,-0
 .2498100574,-0.861925308\O,-0.9500435106,-1.5888236643,-1.2102563273\C
 ,-0.2496087593,-2.471763347,-0.4177797386\F,0.0990606894,-3.5240521097
 ,-1.1473168673\F,-1.0046856003,-2.8905842651,0.6071470016\C,0.96169229
 55,-1.6831450315,0.1101190149\F,1.3643462259,-2.1280328376,1.301663130
 1\F,1.9617387311,-1.7922331201,-0.7796208929\C,-2.1209859702,0.2907265
 806,-0.4097251729\F,-2.9467398263,0.0971724629,-1.4567299471\C,-2.2472
 89702,1.7780182428,-0.0279503922\F,-3.5381564233,2.0591592288,0.136049
 5085\F,-1.7572918595,2.5477245476,-0.9977792541\F,-1.6076219645,2.0418
 021401,1.1086678915\F,-2.5493634472,-0.4493339298,0.6278562109\F,-0.38
 58421362,0.4208824422,-1.9812433064\\Version=ES64L-G09RevD.01\HF=-1976
 .9950094\RMSD=8.706e-09\RMSF=8.982e-06\Dipole=0.2488926,0.0399609,0.10
 04953\Quadrupole=0.0967368,0.3681866,-0.4649234,-0.4014627,-0.0014086,
 0.0759396\PG=C01 [X(C8F16O1)]\\@

 Writing a WFN file to "cytopopt/S2/S2_neu.wfn"


 A DANDELION FROM A LOVER MEANS MORE THAN AN ORCHID FROM A FRIEND.
 Job cpu time:       0 days  1 hours 50 minutes 52.4 seconds.
 File lengths (MBytes):  RWF=    228 Int=      0 D2E=      0 Chk=     13 Scr=      1
 Normal termination of Gaussian 09 at Thu Feb  6 02:19:40 2025.
