 Entering Gaussian System, Link 0=g09
 Initial command:
 /home/k0335/k033513/app/g09/l1.exe "/home/k0335/k033513/app/g09/scratch/Gau-676927.inp" -scrdir="/home/k0335/k033513/app/g09/scratch/"
 Default is to use a total of  36 processors:
                               36 via shared-memory
                                1 via Linda
 Entering Link 1 = /home/k0335/k033513/app/g09/l1.exe PID=    676928.
  
 Copyright (c) 1988,1990,1992,1993,1995,1998,2003,2009,2013,
            Gaussian, Inc.  All Rights Reserved.
  
 This is part of the Gaussian(R) 09 program.  It is based on
 the Gaussian(R) 03 system (copyright 2003, Gaussian, Inc.),
 the Gaussian(R) 98 system (copyright 1998, Gaussian, Inc.),
 the Gaussian(R) 94 system (copyright 1995, Gaussian, Inc.),
 the Gaussian 92(TM) system (copyright 1992, Gaussian, Inc.),
 the Gaussian 90(TM) system (copyright 1990, Gaussian, Inc.),
 the Gaussian 88(TM) system (copyright 1988, Gaussian, Inc.),
 the Gaussian 86(TM) system (copyright 1986, Carnegie Mellon
 University), and the Gaussian 82(TM) system (copyright 1983,
 Carnegie Mellon University). Gaussian is a federally registered
 trademark of Gaussian, Inc.
  
 This software contains proprietary and confidential information,
 including trade secrets, belonging to Gaussian, Inc.
  
 This software is provided under written license and may be
 used, copied, transmitted, or stored only in accord with that
 written license.
  
 The following legend is applicable only to US Government
 contracts under FAR:
  
                    RESTRICTED RIGHTS LEGEND
  
 Use, reproduction and disclosure by the US Government is
 subject to restrictions as set forth in subparagraphs (a)
 and (c) of the Commercial Computer Software - Restricted
 Rights clause in FAR 52.227-19.
  
 Gaussian, Inc.
 340 Quinnipiac St., Bldg. 40, Wallingford CT 06492
  
  
 ---------------------------------------------------------------
 Warning -- This program may not be used in any manner that
 competes with the business of Gaussian, Inc. or will provide
 assistance to any competitor of Gaussian, Inc.  The licensee
 of this program is prohibited from giving any competitor of
 Gaussian, Inc. access to this program.  By using this program,
 the user acknowledges that Gaussian, Inc. is engaged in the
 business of creating and licensing software in the field of
 computational chemistry and represents and warrants to the
 licensee that it is not a competitor of Gaussian, Inc. and that
 it will not use this program in any manner prohibited above.
 ---------------------------------------------------------------
  

 Cite this work as:
 Gaussian 09, Revision D.01,
 M. J. Frisch, G. W. Trucks, H. B. Schlegel, G. E. Scuseria, 
 M. A. Robb, J. R. Cheeseman, G. Scalmani, V. Barone, B. Mennucci, 
 G. A. Petersson, H. Nakatsuji, M. Caricato, X. Li, H. P. Hratchian, 
 A. F. Izmaylov, J. Bloino, G. Zheng, J. L. Sonnenberg, M. Hada, 
 M. Ehara, K. Toyota, R. Fukuda, J. Hasegawa, M. Ishida, T. Nakajima, 
 Y. Honda, O. Kitao, H. Nakai, T. Vreven, J. A. Montgomery, Jr., 
 J. E. Peralta, F. Ogliaro, M. Bearpark, J. J. Heyd, E. Brothers, 
 K. N. Kudin, V. N. Staroverov, T. Keith, R. Kobayashi, J. Normand, 
 K. Raghavachari, A. Rendell, J. C. Burant, S. S. Iyengar, J. Tomasi, 
 M. Cossi, N. Rega, J. M. Millam, M. Klene, J. E. Knox, J. B. Cross, 
 V. Bakken, C. Adamo, J. Jaramillo, R. Gomperts, R. E. Stratmann, 
 O. Yazyev, A. J. Austin, R. Cammi, C. Pomelli, J. W. Ochterski, 
 R. L. Martin, K. Morokuma, V. G. Zakrzewski, G. A. Voth, 
 P. Salvador, J. J. Dannenberg, S. Dapprich, A. D. Daniels, 
 O. Farkas, J. B. Foresman, J. V. Ortiz, J. Cioslowski, 
 and D. J. Fox, Gaussian, Inc., Wallingford CT, 2013.
 
 ******************************************
 Gaussian 09:  ES64L-G09RevD.01 24-Apr-2013
                 3-Mar-2024 
 ******************************************
 %nprocshared=24
 Will use up to   24 processors via shared memory.
 %mem=40GB
 %rwf=A150513911/A150513911_p1.rwf
 %nosave
 %chk=A150513911/A150513911_p1.chk
 ----------------------------------------------------------------------
 #p CAM-B3LYP/6-31G(d,p) SCRF=(PCM,Solvent=Generic,Read) NoSymm out=wfn
 ----------------------------------------------------------------------
 1/38=1,40=2/1;
 2/12=2,15=1,17=6,18=5,40=1/2;
 3/5=1,6=6,7=101,11=2,16=1,25=1,30=1,70=2203,72=-2,74=-40/1,2,3;
 4//1;
 5/5=2,38=5/2;
 6/7=2,8=2,9=2,10=2,28=1/1;
 99/5=1,6=100,9=1/99;
 Leave Link    1 at Sun Mar  3 17:24:48 2024, MaxMem=  5368709120 cpu:         1.0
 (Enter /home/k0335/k033513/app/g09/l101.exe)
 -------------------
 Title A150513911_p1
 -------------------
 Symbolic Z-matrix:
 Charge =  1 Multiplicity = 2
 O                     1.40841   1.78414  -0.01279 
 C                     0.44077   1.06095   0.19188 
 N                    -0.72511   1.24688  -0.49572 
 C                    -0.87645   2.33873  -1.45553 
 F                    -2.19204   2.35249  -1.84166 
 F                    -0.20763   1.96511  -2.58548 
 C                    -0.49495   3.80625  -1.09005 
 F                    -1.01479   4.60814  -2.08025 
 O                     0.91313   4.00546  -1.1742 
 C                     1.33584   5.21177  -0.60574 
 F                     2.61343   5.43947  -0.9594 
 F                     1.26451   5.12297   0.73312 
 F                     0.57703   6.23314  -1.03551 
 C                    -1.22381   4.11534   0.22188 
 F                    -2.54051   3.80164   0.15435 
 F                    -1.15711   5.42221   0.55772 
 F                    -0.72096   3.41185   1.26309 
 C                    -1.87848   0.45366  -0.20289 
 N                    -1.52198  -0.84692   0.2646 
 C                    -2.51166  -1.90644   0.13814 
 F                    -3.71947  -1.27237  -0.02012 
 F                    -2.6447   -2.57801   1.30652 
 C                    -2.35644  -2.87324  -1.06127 
 F                    -2.15416  -2.07071  -2.17395 
 O                    -3.54088  -3.5976   -1.43163 
 C                    -4.13638  -4.32458  -0.38771 
 F                    -3.2224   -5.03618   0.27973 
 F                    -5.0408   -5.16769  -0.9171 
 F                    -4.76685  -3.48716   0.44903 
 C                    -1.10729  -3.74386  -0.91708 
 F                    -1.06263  -4.67127  -1.90907 
 F                    -1.0322   -4.41253   0.24632 
 F                     0.02206  -3.00329  -1.0429 
 C                    -0.38564  -1.04346   0.99155 
 O                    -0.13414  -2.1432    1.46929 
 N                     0.45492   0.03522   1.10794 
 C                     1.68272  -0.16757   1.86848 
 F                     1.35896  -0.7656    3.05198 
 F                     2.1554    1.05397   2.25547 
 C                     2.8031   -0.96753   1.1502 
 F                     2.39932  -2.26043   0.98268 
 O                     2.99186  -0.45778  -0.17424 
 C                     4.13666  -0.9657   -0.80617 
 F                     4.2471   -2.28993  -0.62221 
 F                     4.04115  -0.71757  -2.12549 
 F                     5.22297  -0.33884  -0.327 
 C                     4.00579  -0.92041   2.10297 
 F                     4.51879   0.32644   2.20662 
 F                     3.70496  -1.33804   3.35187 
 F                     5.0135   -1.71745   1.67148 
 H                    -2.46298   0.3274   -1.1199 
 H                    -2.47996   0.96212   0.55816 
 
 NAtoms=     52 NQM=       52 NQMF=       0 NMMI=      0 NMMIF=      0
                NMic=       0 NMicF=      0.
                    Isotopes and Nuclear Properties:
 (Nuclear quadrupole moments (NQMom) in fm**2, nuclear magnetic moments (NMagM)
  in nuclear magnetons)

  Atom         1           2           3           4           5           6           7           8           9          10
 IAtWgt=          16          12          14          12          19          19          12          19          16          12
 AtmWgt=  15.9949146  12.0000000  14.0030740  12.0000000  18.9984033  18.9984033  12.0000000  18.9984033  15.9949146  12.0000000
 NucSpn=           0           0           2           0           1           1           0           1           0           0
 AtZEff=   0.0000000   0.0000000   0.0000000   0.0000000   0.0000000   0.0000000   0.0000000   0.0000000   0.0000000   0.0000000
 NQMom=    0.0000000   0.0000000   2.0440000   0.0000000   0.0000000   0.0000000   0.0000000   0.0000000   0.0000000   0.0000000
 NMagM=    0.0000000   0.0000000   0.4037610   0.0000000   2.6288670   2.6288670   0.0000000   2.6288670   0.0000000   0.0000000
 AtZNuc=   8.0000000   6.0000000   7.0000000   6.0000000   9.0000000   9.0000000   6.0000000   9.0000000   8.0000000   6.0000000

  Atom        11          12          13          14          15          16          17          18          19          20
 IAtWgt=          19          19          19          12          19          19          19          12          14          12
 AtmWgt=  18.9984033  18.9984033  18.9984033  12.0000000  18.9984033  18.9984033  18.9984033  12.0000000  14.0030740  12.0000000
 NucSpn=           1           1           1           0           1           1           1           0           2           0
 AtZEff=   0.0000000   0.0000000   0.0000000   0.0000000   0.0000000   0.0000000   0.0000000   0.0000000   0.0000000   0.0000000
 NQMom=    0.0000000   0.0000000   0.0000000   0.0000000   0.0000000   0.0000000   0.0000000   0.0000000   2.0440000   0.0000000
 NMagM=    2.6288670   2.6288670   2.6288670   0.0000000   2.6288670   2.6288670   2.6288670   0.0000000   0.4037610   0.0000000
 AtZNuc=   9.0000000   9.0000000   9.0000000   6.0000000   9.0000000   9.0000000   9.0000000   6.0000000   7.0000000   6.0000000

  Atom        21          22          23          24          25          26          27          28          29          30
 IAtWgt=          19          19          12          19          16          12          19          19          19          12
 AtmWgt=  18.9984033  18.9984033  12.0000000  18.9984033  15.9949146  12.0000000  18.9984033  18.9984033  18.9984033  12.0000000
 NucSpn=           1           1           0           1           0           0           1           1           1           0
 AtZEff=   0.0000000   0.0000000   0.0000000   0.0000000   0.0000000   0.0000000   0.0000000   0.0000000   0.0000000   0.0000000
 NQMom=    0.0000000   0.0000000   0.0000000   0.0000000   0.0000000   0.0000000   0.0000000   0.0000000   0.0000000   0.0000000
 NMagM=    2.6288670   2.6288670   0.0000000   2.6288670   0.0000000   0.0000000   2.6288670   2.6288670   2.6288670   0.0000000
 AtZNuc=   9.0000000   9.0000000   6.0000000   9.0000000   8.0000000   6.0000000   9.0000000   9.0000000   9.0000000   6.0000000

  Atom        31          32          33          34          35          36          37          38          39          40
 IAtWgt=          19          19          19          12          16          14          12          19          19          12
 AtmWgt=  18.9984033  18.9984033  18.9984033  12.0000000  15.9949146  14.0030740  12.0000000  18.9984033  18.9984033  12.0000000
 NucSpn=           1           1           1           0           0           2           0           1           1           0
 AtZEff=   0.0000000   0.0000000   0.0000000   0.0000000   0.0000000   0.0000000   0.0000000   0.0000000   0.0000000   0.0000000
 NQMom=    0.0000000   0.0000000   0.0000000   0.0000000   0.0000000   2.0440000   0.0000000   0.0000000   0.0000000   0.0000000
 NMagM=    2.6288670   2.6288670   2.6288670   0.0000000   0.0000000   0.4037610   0.0000000   2.6288670   2.6288670   0.0000000
 AtZNuc=   9.0000000   9.0000000   9.0000000   6.0000000   8.0000000   7.0000000   6.0000000   9.0000000   9.0000000   6.0000000

  Atom        41          42          43          44          45          46          47          48          49          50
 IAtWgt=          19          16          12          19          19          19          12          19          19          19
 AtmWgt=  18.9984033  15.9949146  12.0000000  18.9984033  18.9984033  18.9984033  12.0000000  18.9984033  18.9984033  18.9984033
 NucSpn=           1           0           0           1           1           1           0           1           1           1
 AtZEff=   0.0000000   0.0000000   0.0000000   0.0000000   0.0000000   0.0000000   0.0000000   0.0000000   0.0000000   0.0000000
 NQMom=    0.0000000   0.0000000   0.0000000   0.0000000   0.0000000   0.0000000   0.0000000   0.0000000   0.0000000   0.0000000
 NMagM=    2.6288670   0.0000000   0.0000000   2.6288670   2.6288670   2.6288670   0.0000000   2.6288670   2.6288670   2.6288670
 AtZNuc=   9.0000000   8.0000000   6.0000000   9.0000000   9.0000000   9.0000000   6.0000000   9.0000000   9.0000000   9.0000000

  Atom        51          52
 IAtWgt=           1           1
 AtmWgt=   1.0078250   1.0078250
 NucSpn=           1           1
 AtZEff=   0.0000000   0.0000000
 NQMom=    0.0000000   0.0000000
 NMagM=    2.7928460   2.7928460
 AtZNuc=   1.0000000   1.0000000
 Leave Link  101 at Sun Mar  3 17:24:48 2024, MaxMem=  5368709120 cpu:         0.8
 (Enter /home/k0335/k033513/app/g09/l202.exe)
 Symmetry turned off by external request.
 Stoichiometry    C15H2F27N3O5(1+,2)
 Framework group  C1[X(C15H2F27N3O5)]
 Deg. of freedom   150
 Full point group                 C1      NOp   1
                          Input orientation:                          
 ---------------------------------------------------------------------
 Center     Atomic      Atomic             Coordinates (Angstroms)
 Number     Number       Type             X           Y           Z
 ---------------------------------------------------------------------
      1          8           0        1.408412    1.784144   -0.012789
      2          6           0        0.440768    1.060951    0.191879
      3          7           0       -0.725108    1.246875   -0.495715
      4          6           0       -0.876454    2.338728   -1.455532
      5          9           0       -2.192036    2.352493   -1.841659
      6          9           0       -0.207629    1.965114   -2.585483
      7          6           0       -0.494953    3.806254   -1.090049
      8          9           0       -1.014787    4.608139   -2.080247
      9          8           0        0.913128    4.005463   -1.174201
     10          6           0        1.335836    5.211771   -0.605742
     11          9           0        2.613430    5.439467   -0.959404
     12          9           0        1.264512    5.122968    0.733117
     13          9           0        0.577029    6.233139   -1.035513
     14          6           0       -1.223812    4.115343    0.221878
     15          9           0       -2.540509    3.801638    0.154349
     16          9           0       -1.157113    5.422206    0.557723
     17          9           0       -0.720958    3.411849    1.263088
     18          6           0       -1.878484    0.453658   -0.202894
     19          7           0       -1.521983   -0.846922    0.264597
     20          6           0       -2.511660   -1.906435    0.138140
     21          9           0       -3.719474   -1.272365   -0.020116
     22          9           0       -2.644700   -2.578008    1.306517
     23          6           0       -2.356439   -2.873241   -1.061274
     24          9           0       -2.154156   -2.070708   -2.173946
     25          8           0       -3.540884   -3.597600   -1.431626
     26          6           0       -4.136376   -4.324584   -0.387713
     27          9           0       -3.222395   -5.036177    0.279731
     28          9           0       -5.040799   -5.167686   -0.917103
     29          9           0       -4.766847   -3.487156    0.449032
     30          6           0       -1.107290   -3.743862   -0.917081
     31          9           0       -1.062626   -4.671274   -1.909069
     32          9           0       -1.032198   -4.412532    0.246323
     33          9           0        0.022063   -3.003289   -1.042902
     34          6           0       -0.385635   -1.043455    0.991549
     35          8           0       -0.134140   -2.143201    1.469291
     36          7           0        0.454921    0.035221    1.107939
     37          6           0        1.682723   -0.167570    1.868483
     38          9           0        1.358961   -0.765597    3.051978
     39          9           0        2.155404    1.053974    2.255471
     40          6           0        2.803099   -0.967532    1.150203
     41          9           0        2.399317   -2.260426    0.982677
     42          8           0        2.991855   -0.457783   -0.174243
     43          6           0        4.136662   -0.965702   -0.806170
     44          9           0        4.247104   -2.289931   -0.622214
     45          9           0        4.041149   -0.717569   -2.125488
     46          9           0        5.222967   -0.338841   -0.326995
     47          6           0        4.005795   -0.920411    2.102965
     48          9           0        4.518791    0.326439    2.206615
     49          9           0        3.704956   -1.338042    3.351873
     50          9           0        5.013502   -1.717450    1.671480
     51          1           0       -2.462983    0.327399   -1.119896
     52          1           0       -2.479955    0.962115    0.558163
 ---------------------------------------------------------------------
 Rotational constants (GHZ):      0.0730319      0.0489589      0.0349633
 Leave Link  202 at Sun Mar  3 17:24:48 2024, MaxMem=  5368709120 cpu:         0.1
 (Enter /home/k0335/k033513/app/g09/l301.exe)
 Standard basis: 6-31G(d,p) (6D, 7F)
 Ernie: Thresh=  0.10000D-02 Tol=  0.10000D-05 Strict=F.
   760 basis functions,  1414 primitive gaussians,   760 cartesian basis functions
   198 alpha electrons      197 beta electrons
       nuclear repulsion energy      9027.4531435365 Hartrees.
 IExCor=20419 DFT=T Ex+Corr=CAM-B3LYP ExCW=0 ScaHFX=  1.000000
 ScaDFX=  1.000000  1.000000  1.000000  0.810000 ScalE2=  1.000000  1.000000
 IRadAn=      0 IRanWt=     -1 IRanGd=            0 ICorTp=0 IEmpDi=  4
  HFx wShort=  0.000000 wLong=  0.330000 cFull=  0.190000 cShort=  0.000000 cLong=  0.460000
  DFx wShort=  0.000000 wLong=  0.330000 cFull=  0.190000 cShort=  0.000000 cLong=  0.460000
 NAtoms=   52 NActive=   52 NUniq=   52 SFac= 1.00D+00 NAtFMM=   60 NAOKFM=F Big=F
 Integral buffers will be    131072 words long.
 Raffenetti 2 integral format.
 Two-electron integral symmetry is turned off.
 Using the following non-standard input for PCM:
 eps=4.9
 --- end of non-standard input.
 ------------------------------------------------------------------------------
 Polarizable Continuum Model (PCM)
 =================================
 Model                : PCM (using non-symmetric T matrix).
 Atomic radii         : UFF (Universal Force Field).
 Polarization charges : Total charges.
 Charge compensation  : None.
 Solution method      : On-the-fly selection.
 Cavity type          : Scaled VdW (van der Waals Surface) (Alpha=1.100).
 Cavity algorithm     : GePol (No added spheres)
                        Default sphere list used, NSphG=   52.
                        Lebedev-Laikov grids with approx.  5.0 points / Ang**2.
                        Smoothing algorithm: Karplus/York (Gamma=1.0000).
                        Polarization charges: spherical gaussians, with
                                              point-specific exponents (IZeta= 3).
                        Self-potential: point-specific (ISelfS= 7).
                        Self-field    : sphere-specific E.n sum rule (ISelfD= 2).
 Solvent              : Generic,
                        Eps                           =   4.900000
                        Eps(infinity)                 =   0.000000
                        RSolv                         =   0.000000 Ang.
                        Molar volume                  =   0.000000 cm**3/mol
                        Thermal expansion coefficient =   0.000000 K**-1
                        Absolute temperature          = 298.150000 K
                        Numeral density               =   0.000000 Ang**-3
                        Hydrogen bond acidity         =   0.000000
                        Hydrogen bond basicity        =   0.000000
                        Surface tension at interface  =   0.000000 (cal/mol)*Ang**-2
                        Carbon aromaticity            =   0.000000
                        Electronegative halogenicity  =   0.000000
 ------------------------------------------------------------------------------
 GePol: Number of generator spheres                  =      52
 GePol: Total number of spheres                      =      52
 GePol: Number of exposed spheres                    =      52 (100.00%)
 GePol: Number of points                             =    4274
 GePol: Average weight of points                     =       0.12
 GePol: Minimum weight of points                     =   0.84D-10
 GePol: Maximum weight of points                     =    0.20577
 GePol: Number of points with low weight             =     181
 GePol: Fraction of low-weight points (<1% of avg)   =       4.23%
 GePol: Cavity surface area                          =    526.046 Ang**2
 GePol: Cavity volume                                =    634.278 Ang**3
 Leave Link  301 at Sun Mar  3 17:24:48 2024, MaxMem=  5368709120 cpu:         0.7
 (Enter /home/k0335/k033513/app/g09/l302.exe)
 NPDir=0 NMtPBC=     1 NCelOv=     1 NCel=       1 NClECP=     1 NCelD=      1
         NCelK=      1 NCelE2=     1 NClLst=     1 CellRange=     0.0.
 One-electron integrals computed using PRISM.
 NBasis=   760 RedAO= T EigKep=  1.19D-03  NBF=   760
 NBsUse=   760 1.00D-06 EigRej= -1.00D+00 NBFU=   760
 Precomputing XC quadrature grid using
 IXCGrd= 4 IRadAn=           0 IRanWt=          -1 IRanGd=           0 AccXCQ= 0.00D+00.
 Generated NRdTot=       0 NPtTot=           0 NUsed=           0 NTot=          32
 NSgBfM=   729   729   730   730   730 MxSgAt=    52 MxSgA2=    52.
 Leave Link  302 at Sun Mar  3 17:24:49 2024, MaxMem=  5368709120 cpu:        19.6
 (Enter /home/k0335/k033513/app/g09/l303.exe)
 DipDrv:  MaxL=1.
 Leave Link  303 at Sun Mar  3 17:24:49 2024, MaxMem=  5368709120 cpu:         1.2
 (Enter /home/k0335/k033513/app/g09/l401.exe)
 ExpMin= 1.61D-01 ExpMax= 7.00D+03 ExpMxC= 1.05D+03 IAcc=1 IRadAn=         1 AccDes= 0.00D+00
 Harris functional with IExCor=20419 and IRadAn=       1 diagonalized for initial guess.
 HarFok:  IExCor=20419 AccDes= 0.00D+00 IRadAn=         1 IDoV= 1 UseB2=F ITyADJ=14
 ICtDFT=  3500011 ScaDFX=  1.000000  1.000000  1.000000  1.000000
 FoFCou: FMM=F IPFlag=           0 FMFlag=      100000 FMFlg1=           0
         NFxFlg=           0 DoJE=T BraDBF=F KetDBF=T FulRan=T
         wScrn=  0.000000 ICntrl=     500 IOpCl=  0 I1Cent=   200000004 NGrid=           0
         NMat0=    1 NMatS0=      1 NMatT0=    0 NMatD0=    1 NMtDS0=    0 NMtDT0=    0
 Symmetry not used in FoFCou.
 Harris En= -3696.07558136312    
 JPrj=0 DoOrth=F DoCkMO=F.
 Initial guess <Sx>= 0.0000 <Sy>= 0.0000 <Sz>= 0.5000 <S**2>= 0.7500 S= 0.5000
 Leave Link  401 at Sun Mar  3 17:24:50 2024, MaxMem=  5368709120 cpu:        25.2
 (Enter /home/k0335/k033513/app/g09/l502.exe)
 UHF open shell SCF:
 Using DIIS extrapolation, IDIIS=  1040.
 Two-electron integral symmetry not used.
 IVT=     1774254 IEndB=     1774254 NGot=  5368709120 MDV=  5367529867
 LenX=  5367529867 LenY=  5366951507
 Requested convergence on RMS density matrix=1.00D-08 within 128 cycles.
 Requested convergence on MAX density matrix=1.00D-06.
 Requested convergence on             energy=1.00D-06.
 No special actions if energy rises.
 Fock matrices will be formed incrementally for  20 cycles.

 Cycle   1  Pass 1  IDiag  1:
 FoFJK:  IHMeth= 1 ICntrl=       0 DoSepK=T KAlg= 0 I1Cent=   0 FoldK=F
 IRaf=         1 NMat=   1 IRICut=       1 DoRegI=T DoRafI=F ISym2E= 0.
 FoFCou: FMM=F IPFlag=           0 FMFlag=      100000 FMFlg1=           0
         NFxFlg=           0 DoJE=T BraDBF=F KetDBF=F FulRan=T
         wScrn=  0.000000 ICntrl=     500 IOpCl=  0 I1Cent=           0 NGrid=           0
         NMat0=    1 NMatS0=      1 NMatT0=    0 NMatD0=    1 NMtDS0=    0 NMtDT0=    0
 Symmetry not used in FoFCou.
 Inv3:  Mode=1 IEnd=    54801228.
 Iteration    1 A*A^-1 deviation from unit magnitude is 8.66D-15 for    144.
 Iteration    1 A*A^-1 deviation from orthogonality  is 4.26D-15 for   4079   2141.
 Iteration    1 A^-1*A deviation from unit magnitude is 8.22D-15 for   1423.
 Iteration    1 A^-1*A deviation from orthogonality  is 1.62D-14 for   1946   1907.
 E= -3806.11969554438    
 DIIS: error= 4.39D-02 at cycle   1 NSaved=   1.
 NSaved= 1 IEnMin= 1 EnMin= -3806.11969554438     IErMin= 1 ErrMin= 4.39D-02
 ErrMax= 4.39D-02  0.00D+00 EMaxC= 1.00D-01 BMatC= 1.32D+01 BMatP= 1.32D+01
 IDIUse=3 WtCom= 5.61D-01 WtEn= 4.39D-01
 Coeff-Com:  0.100D+01
 Coeff-En:   0.100D+01
 Coeff:      0.100D+01
 Gap=     0.446 Goal=   None    Shift=    0.000
 Gap=     0.102 Goal=   None    Shift=    0.000
 GapD=    0.102 DampG=1.000 DampE=0.500 DampFc=0.5000 IDamp=-1.
 Damping current iteration by 5.00D-01
 RMSDP=3.01D-03 MaxDP=2.14D-01              OVMax= 7.61D-01

 Cycle   2  Pass 1  IDiag  1:
 RMSU=  1.51D-03    CP:  1.00D+00
 E= -3806.75166489283     Delta-E=       -0.631969348451 Rises=F Damp=T
 DIIS: error= 1.92D-02 at cycle   2 NSaved=   2.
 NSaved= 2 IEnMin= 2 EnMin= -3806.75166489283     IErMin= 2 ErrMin= 1.92D-02
 ErrMax= 1.92D-02  0.00D+00 EMaxC= 1.00D-01 BMatC= 1.79D+00 BMatP= 1.32D+01
 IDIUse=3 WtCom= 8.08D-01 WtEn= 1.92D-01
 Coeff-Com: -0.229D+00 0.123D+01
 Coeff-En:   0.000D+00 0.100D+01
 Coeff:     -0.185D+00 0.118D+01
 Gap=     0.646 Goal=   None    Shift=    0.000
 Gap=    -0.085 Goal=   None    Shift=    0.000
 RMSDP=1.28D-03 MaxDP=2.21D-01 DE=-6.32D-01 OVMax= 6.12D-01

 Cycle   3  Pass 1  IDiag  1:
 RMSU=  1.27D-03    CP:  1.00D+00  1.09D+00
 E= -3807.01231073214     Delta-E=       -0.260645839313 Rises=F Damp=F
 DIIS: error= 2.22D-02 at cycle   3 NSaved=   3.
 NSaved= 3 IEnMin= 3 EnMin= -3807.01231073214     IErMin= 2 ErrMin= 1.92D-02
 ErrMax= 2.22D-02  0.00D+00 EMaxC= 1.00D-01 BMatC= 2.43D+00 BMatP= 1.79D+00
 IDIUse=2 WtCom= 0.00D+00 WtEn= 1.00D+00
 Coeff-En:   0.000D+00 0.279D+00 0.721D+00
 Coeff:      0.000D+00 0.279D+00 0.721D+00
 Gap=     0.493 Goal=   None    Shift=    0.000
 Gap=     0.102 Goal=   None    Shift=    0.000
 RMSDP=1.95D-03 MaxDP=3.75D-01 DE=-2.61D-01 OVMax= 6.74D-01

 Cycle   4  Pass 1  IDiag  1:
 RMSU=  7.38D-04    CP:  9.98D-01  1.69D+00 -2.33D-01
 E= -3806.48403897113     Delta-E=        0.528271761008 Rises=F Damp=F
 DIIS: error= 3.04D-02 at cycle   4 NSaved=   4.
 NSaved= 4 IEnMin= 3 EnMin= -3807.01231073214     IErMin= 2 ErrMin= 1.92D-02
 ErrMax= 3.04D-02  0.00D+00 EMaxC= 1.00D-01 BMatC= 4.77D+00 BMatP= 1.79D+00
 IDIUse=2 WtCom= 0.00D+00 WtEn= 1.00D+00
 Coeff-En:   0.000D+00 0.000D+00 0.636D+00 0.364D+00
 Coeff:      0.000D+00 0.000D+00 0.636D+00 0.364D+00
 Gap=     0.430 Goal=   None    Shift=    0.000
 Gap=     0.068 Goal=   None    Shift=    0.000
 RMSDP=1.33D-03 MaxDP=2.01D-01 DE= 5.28D-01 OVMax= 8.41D-01

 Cycle   5  Pass 1  IDiag  1:
 RMSU=  5.64D-04    CP:  9.98D-01  1.31D+00  4.89D-01  2.91D-01
 E= -3807.45678648975     Delta-E=       -0.972747518619 Rises=F Damp=F
 DIIS: error= 4.16D-03 at cycle   5 NSaved=   5.
 NSaved= 5 IEnMin= 5 EnMin= -3807.45678648975     IErMin= 5 ErrMin= 4.16D-03
 ErrMax= 4.16D-03  0.00D+00 EMaxC= 1.00D-01 BMatC= 9.46D-02 BMatP= 1.79D+00
 IDIUse=3 WtCom= 9.58D-01 WtEn= 4.16D-02
 Coeff-Com:  0.111D-01-0.101D-01 0.220D+00 0.108D+00 0.670D+00
 Coeff-En:   0.000D+00 0.000D+00 0.000D+00 0.000D+00 0.100D+01
 Coeff:      0.106D-01-0.972D-02 0.211D+00 0.104D+00 0.684D+00
 Gap=     0.404 Goal=   None    Shift=    0.000
 Gap=     0.082 Goal=   None    Shift=    0.000
 RMSDP=2.65D-04 MaxDP=4.07D-02 DE=-9.73D-01 OVMax= 7.31D-02

 Cycle   6  Pass 1  IDiag  1:
 RMSU=  2.44D-04    CP:  9.99D-01  1.28D+00  5.42D-01  2.87D-01  8.71D-01
 E= -3807.46798246335     Delta-E=       -0.011195973597 Rises=F Damp=F
 DIIS: error= 2.46D-03 at cycle   6 NSaved=   6.
 NSaved= 6 IEnMin= 6 EnMin= -3807.46798246335     IErMin= 6 ErrMin= 2.46D-03
 ErrMax= 2.46D-03  0.00D+00 EMaxC= 1.00D-01 BMatC= 3.70D-02 BMatP= 9.46D-02
 IDIUse=3 WtCom= 9.75D-01 WtEn= 2.46D-02
 Coeff-Com:  0.169D-02-0.835D-02 0.398D-01 0.444D-02 0.419D+00 0.544D+00
 Coeff-En:   0.000D+00 0.000D+00 0.000D+00 0.000D+00 0.268D+00 0.732D+00
 Coeff:      0.165D-02-0.814D-02 0.388D-01 0.433D-02 0.415D+00 0.548D+00
 Gap=     0.386 Goal=   None    Shift=    0.000
 Gap=     0.113 Goal=   None    Shift=    0.000
 RMSDP=1.30D-04 MaxDP=2.07D-02 DE=-1.12D-02 OVMax= 6.48D-02

 Cycle   7  Pass 1  IDiag  1:
 RMSU=  9.02D-05    CP:  9.99D-01  1.29D+00  5.41D-01  2.83D-01  9.37D-01
                    CP:  6.48D-01
 E= -3807.47540339328     Delta-E=       -0.007420929926 Rises=F Damp=F
 DIIS: error= 4.85D-04 at cycle   7 NSaved=   7.
 NSaved= 7 IEnMin= 7 EnMin= -3807.47540339328     IErMin= 7 ErrMin= 4.85D-04
 ErrMax= 4.85D-04  0.00D+00 EMaxC= 1.00D-01 BMatC= 1.93D-03 BMatP= 3.70D-02
 IDIUse=3 WtCom= 9.95D-01 WtEn= 4.85D-03
 Coeff-Com: -0.377D-02 0.905D-02 0.686D-02-0.570D-02 0.134D+00 0.253D+00
 Coeff-Com:  0.606D+00
 Coeff-En:   0.000D+00 0.000D+00 0.000D+00 0.000D+00 0.000D+00 0.000D+00
 Coeff-En:   0.100D+01
 Coeff:     -0.375D-02 0.901D-02 0.683D-02-0.567D-02 0.134D+00 0.252D+00
 Coeff:      0.608D+00
 Gap=     0.377 Goal=   None    Shift=    0.000
 Gap=     0.114 Goal=   None    Shift=    0.000
 RMSDP=4.57D-05 MaxDP=3.80D-03 DE=-7.42D-03 OVMax= 2.61D-02

 Cycle   8  Pass 1  IDiag  1:
 RMSU=  3.63D-05    CP:  9.99D-01  1.29D+00  5.44D-01  2.79D-01  9.36D-01
                    CP:  7.12D-01  1.24D+00
 E= -3807.47628232220     Delta-E=       -0.000878928924 Rises=F Damp=F
 DIIS: error= 4.47D-04 at cycle   8 NSaved=   8.
 NSaved= 8 IEnMin= 8 EnMin= -3807.47628232220     IErMin= 8 ErrMin= 4.47D-04
 ErrMax= 4.47D-04  0.00D+00 EMaxC= 1.00D-01 BMatC= 4.23D-04 BMatP= 1.93D-03
 IDIUse=3 WtCom= 9.96D-01 WtEn= 4.47D-03
 Coeff-Com:  0.897D-03-0.143D-02-0.768D-02 0.270D-02-0.609D-01-0.326D-01
 Coeff-Com:  0.179D+00 0.920D+00
 Coeff-En:   0.000D+00 0.000D+00 0.000D+00 0.000D+00 0.000D+00 0.000D+00
 Coeff-En:   0.000D+00 0.100D+01
 Coeff:      0.893D-03-0.143D-02-0.765D-02 0.269D-02-0.606D-01-0.324D-01
 Coeff:      0.178D+00 0.920D+00
 Gap=     0.377 Goal=   None    Shift=    0.000
 Gap=     0.119 Goal=   None    Shift=    0.000
 RMSDP=6.27D-05 MaxDP=6.77D-03 DE=-8.79D-04 OVMax= 4.07D-02

 Cycle   9  Pass 1  IDiag  1:
 RMSU=  2.31D-05    CP:  9.99D-01  1.29D+00  5.49D-01  2.82D-01  9.27D-01
                    CP:  7.26D-01  1.81D+00  1.71D+00
 E= -3807.47718734592     Delta-E=       -0.000905023724 Rises=F Damp=F
 DIIS: error= 3.55D-04 at cycle   9 NSaved=   9.
 NSaved= 9 IEnMin= 9 EnMin= -3807.47718734592     IErMin= 9 ErrMin= 3.55D-04
 ErrMax= 3.55D-04  0.00D+00 EMaxC= 1.00D-01 BMatC= 4.13D-04 BMatP= 4.23D-04
 IDIUse=3 WtCom= 9.96D-01 WtEn= 3.55D-03
 Coeff-Com:  0.127D-02-0.250D-02-0.673D-02 0.556D-02-0.569D-01-0.338D-01
 Coeff-Com: -0.119D+00 0.363D+00 0.849D+00
 Coeff-En:   0.000D+00 0.000D+00 0.000D+00 0.000D+00 0.000D+00 0.000D+00
 Coeff-En:   0.000D+00 0.000D+00 0.100D+01
 Coeff:      0.127D-02-0.250D-02-0.671D-02 0.554D-02-0.567D-01-0.337D-01
 Coeff:     -0.118D+00 0.361D+00 0.850D+00
 Gap=     0.378 Goal=   None    Shift=    0.000
 Gap=     0.122 Goal=   None    Shift=    0.000
 RMSDP=5.57D-05 MaxDP=6.53D-03 DE=-9.05D-04 OVMax= 3.88D-02

 Cycle  10  Pass 1  IDiag  1:
 RMSU=  1.14D-05    CP:  9.99D-01  1.29D+00  5.51D-01  2.87D-01  9.12D-01
                    CP:  7.44D-01  2.26D+00  2.52D+00  1.80D+00
 E= -3807.47794154356     Delta-E=       -0.000754197634 Rises=F Damp=F
 DIIS: error= 3.19D-04 at cycle  10 NSaved=  10.
 NSaved=10 IEnMin=10 EnMin= -3807.47794154356     IErMin=10 ErrMin= 3.19D-04
 ErrMax= 3.19D-04  0.00D+00 EMaxC= 1.00D-01 BMatC= 2.97D-04 BMatP= 4.13D-04
 IDIUse=3 WtCom= 9.97D-01 WtEn= 3.19D-03
 Coeff-Com:  0.312D-03-0.308D-03-0.292D-02 0.426D-02-0.155D-01 0.185D-01
 Coeff-Com: -0.154D+00-0.665D-01 0.145D+00 0.107D+01
 Coeff-En:   0.000D+00 0.000D+00 0.000D+00 0.000D+00 0.000D+00 0.000D+00
 Coeff-En:   0.000D+00 0.000D+00 0.000D+00 0.100D+01
 Coeff:      0.311D-03-0.307D-03-0.291D-02 0.425D-02-0.154D-01 0.184D-01
 Coeff:     -0.153D+00-0.662D-01 0.144D+00 0.107D+01
 Gap=     0.378 Goal=   None    Shift=    0.000
 Gap=     0.125 Goal=   None    Shift=    0.000
 RMSDP=6.59D-05 MaxDP=7.93D-03 DE=-7.54D-04 OVMax= 4.73D-02

 Cycle  11  Pass 1  IDiag  1:
 RMSU=  1.83D-05    CP:  9.99D-01  1.28D+00  5.53D-01  2.93D-01  8.85D-01
                    CP:  7.52D-01  2.75D+00  3.00D+00  2.91D+00  2.25D+00
 E= -3807.47874208666     Delta-E=       -0.000800543105 Rises=F Damp=F
 DIIS: error= 2.64D-04 at cycle  11 NSaved=  11.
 NSaved=11 IEnMin=11 EnMin= -3807.47874208666     IErMin=11 ErrMin= 2.64D-04
 ErrMax= 2.64D-04  0.00D+00 EMaxC= 1.00D-01 BMatC= 1.60D-04 BMatP= 2.97D-04
 IDIUse=3 WtCom= 9.97D-01 WtEn= 2.64D-03
 Coeff-Com: -0.134D-03 0.460D-03 0.167D-02 0.801D-03 0.686D-02 0.229D-01
 Coeff-Com:  0.546D-01 0.798D-01-0.572D+00-0.298D+00 0.170D+01
 Coeff-En:   0.000D+00 0.000D+00 0.000D+00 0.000D+00 0.000D+00 0.000D+00
 Coeff-En:   0.000D+00 0.000D+00 0.000D+00 0.000D+00 0.100D+01
 Coeff:     -0.134D-03 0.458D-03 0.166D-02 0.799D-03 0.684D-02 0.228D-01
 Coeff:      0.545D-01 0.796D-01-0.570D+00-0.297D+00 0.170D+01
 Gap=     0.377 Goal=   None    Shift=    0.000
 Gap=     0.129 Goal=   None    Shift=    0.000
 RMSDP=8.85D-05 MaxDP=1.05D-02 DE=-8.01D-04 OVMax= 6.68D-02

 Cycle  12  Pass 1  IDiag  1:
 RMSU=  5.02D-05    CP:  9.99D-01  1.28D+00  5.54D-01  3.03D-01  8.33D-01
                    CP:  7.42D-01  3.00D+00  3.00D+00  3.00D+00  3.00D+00
                    CP:  3.00D+00
 E= -3807.47963004466     Delta-E=       -0.000887958000 Rises=F Damp=F
 DIIS: error= 1.85D-04 at cycle  12 NSaved=  12.
 NSaved=12 IEnMin=12 EnMin= -3807.47963004466     IErMin=12 ErrMin= 1.85D-04
 ErrMax= 1.85D-04  0.00D+00 EMaxC= 1.00D-01 BMatC= 9.47D-05 BMatP= 1.60D-04
 IDIUse=3 WtCom= 9.98D-01 WtEn= 1.85D-03
 Coeff-Com:  0.897D-04-0.156D-03 0.316D-02-0.934D-03-0.407D-02-0.181D-01
 Coeff-Com:  0.155D+00 0.325D+00-0.315D+00-0.142D+01 0.128D+01 0.996D+00
 Coeff-En:   0.000D+00 0.000D+00 0.000D+00 0.000D+00 0.000D+00 0.000D+00
 Coeff-En:   0.000D+00 0.000D+00 0.000D+00 0.000D+00 0.000D+00 0.100D+01
 Coeff:      0.896D-04-0.156D-03 0.316D-02-0.933D-03-0.406D-02-0.180D-01
 Coeff:      0.155D+00 0.324D+00-0.315D+00-0.141D+01 0.127D+01 0.996D+00
 Gap=     0.374 Goal=   None    Shift=    0.000
 Gap=     0.132 Goal=   None    Shift=    0.000
 RMSDP=7.18D-05 MaxDP=7.95D-03 DE=-8.88D-04 OVMax= 5.53D-02

 Cycle  13  Pass 1  IDiag  1:
 RMSU=  3.09D-05    CP:  9.99D-01  1.28D+00  5.56D-01  3.11D-01  7.81D-01
                    CP:  7.14D-01  3.00D+00  3.00D+00  3.00D+00  3.00D+00
                    CP:  3.00D+00  2.13D+00
 E= -3807.48018772876     Delta-E=       -0.000557684096 Rises=F Damp=F
 DIIS: error= 1.39D-04 at cycle  13 NSaved=  13.
 NSaved=13 IEnMin=13 EnMin= -3807.48018772876     IErMin=13 ErrMin= 1.39D-04
 ErrMax= 1.39D-04  0.00D+00 EMaxC= 1.00D-01 BMatC= 4.71D-05 BMatP= 9.47D-05
 IDIUse=3 WtCom= 9.99D-01 WtEn= 1.39D-03
 Coeff-Com:  0.612D-03-0.143D-02 0.893D-03-0.328D-03-0.173D-01-0.391D-01
 Coeff-Com:  0.138D-01 0.218D+00 0.422D+00-0.503D+00-0.641D+00 0.108D+00
 Coeff-Com:  0.144D+01
 Coeff-En:   0.000D+00 0.000D+00 0.000D+00 0.000D+00 0.000D+00 0.000D+00
 Coeff-En:   0.000D+00 0.000D+00 0.000D+00 0.000D+00 0.000D+00 0.000D+00
 Coeff-En:   0.100D+01
 Coeff:      0.611D-03-0.143D-02 0.892D-03-0.328D-03-0.173D-01-0.390D-01
 Coeff:      0.137D-01 0.218D+00 0.422D+00-0.502D+00-0.640D+00 0.108D+00
 Coeff:      0.144D+01
 Gap=     0.374 Goal=   None    Shift=    0.000
 Gap=     0.132 Goal=   None    Shift=    0.000
 RMSDP=6.02D-05 MaxDP=5.76D-03 DE=-5.58D-04 OVMax= 4.41D-02

 Cycle  14  Pass 1  IDiag  1:
 RMSU=  1.19D-05    CP:  9.99D-01  1.28D+00  5.59D-01  3.16D-01  7.31D-01
                    CP:  6.69D-01  3.00D+00  3.00D+00  3.00D+00  3.00D+00
                    CP:  3.00D+00  3.00D+00  1.82D+00
 E= -3807.48053520995     Delta-E=       -0.000347481197 Rises=F Damp=F
 DIIS: error= 1.06D-04 at cycle  14 NSaved=  14.
 NSaved=14 IEnMin=14 EnMin= -3807.48053520995     IErMin=14 ErrMin= 1.06D-04
 ErrMax= 1.06D-04  0.00D+00 EMaxC= 1.00D-01 BMatC= 4.81D-05 BMatP= 4.71D-05
 IDIUse=3 WtCom= 9.99D-01 WtEn= 1.06D-03
 Coeff-Com:  0.302D-03-0.626D-03-0.111D-02-0.378D-03-0.774D-02-0.116D-01
 Coeff-Com: -0.787D-01-0.192D-01 0.361D+00 0.407D+00-0.104D+01-0.790D+00
 Coeff-Com:  0.123D+01 0.955D+00
 Coeff-En:   0.000D+00 0.000D+00 0.000D+00 0.000D+00 0.000D+00 0.000D+00
 Coeff-En:   0.000D+00 0.000D+00 0.000D+00 0.000D+00 0.000D+00 0.000D+00
 Coeff-En:   0.000D+00 0.100D+01
 Coeff:      0.302D-03-0.625D-03-0.111D-02-0.378D-03-0.773D-02-0.116D-01
 Coeff:     -0.786D-01-0.191D-01 0.360D+00 0.407D+00-0.104D+01-0.789D+00
 Coeff:      0.123D+01 0.955D+00
 Gap=     0.374 Goal=   None    Shift=    0.000
 Gap=     0.133 Goal=   None    Shift=    0.000
 RMSDP=8.09D-05 MaxDP=8.22D-03 DE=-3.47D-04 OVMax= 6.92D-02

 Cycle  15  Pass 1  IDiag  1:
 RMSU=  5.69D-05    CP:  9.99D-01  1.27D+00  5.58D-01  3.25D-01  6.59D-01
                    CP:  6.35D-01  3.00D+00  3.00D+00  3.00D+00  3.00D+00
                    CP:  3.00D+00  3.00D+00  3.00D+00  2.07D+00
 E= -3807.48081609055     Delta-E=       -0.000280880593 Rises=F Damp=F
 DIIS: error= 1.16D-04 at cycle  15 NSaved=  15.
 NSaved=15 IEnMin=15 EnMin= -3807.48081609055     IErMin=14 ErrMin= 1.06D-04
 ErrMax= 1.16D-04  0.00D+00 EMaxC= 1.00D-01 BMatC= 7.93D-05 BMatP= 4.71D-05
 IDIUse=3 WtCom= 9.99D-01 WtEn= 1.06D-03
 Coeff-Com:  0.323D-04-0.425D-04-0.518D-04-0.234D-03 0.360D-02 0.520D-02
 Coeff-Com: -0.854D-01-0.126D+00 0.231D+00 0.770D+00-0.603D+00-0.938D+00
 Coeff-Com:  0.432D+00 0.618D+00 0.694D+00
 Coeff-En:   0.000D+00 0.000D+00 0.000D+00 0.000D+00 0.000D+00 0.000D+00
 Coeff-En:   0.000D+00 0.000D+00 0.000D+00 0.000D+00 0.000D+00 0.000D+00
 Coeff-En:   0.000D+00 0.000D+00 0.100D+01
 Coeff:      0.323D-04-0.425D-04-0.517D-04-0.234D-03 0.360D-02 0.519D-02
 Coeff:     -0.853D-01-0.126D+00 0.231D+00 0.769D+00-0.603D+00-0.937D+00
 Coeff:      0.431D+00 0.617D+00 0.694D+00
 Gap=     0.375 Goal=   None    Shift=    0.000
 Gap=     0.131 Goal=   None    Shift=    0.000
 RMSDP=1.45D-05 MaxDP=2.48D-03 DE=-2.81D-04 OVMax= 7.59D-03

 Cycle  16  Pass 1  IDiag  1:
 RMSU=  6.84D-06    CP:  9.99D-01  1.27D+00  5.62D-01  3.22D-01  6.53D-01
                    CP:  6.09D-01  3.00D+00  3.00D+00  3.00D+00  3.00D+00
                    CP:  3.00D+00  3.00D+00  3.00D+00  2.79D+00  1.00D+00
 E= -3807.48084822516     Delta-E=       -0.000032134616 Rises=F Damp=F
 DIIS: error= 6.49D-05 at cycle  16 NSaved=  16.
 NSaved=16 IEnMin=16 EnMin= -3807.48084822516     IErMin=16 ErrMin= 6.49D-05
 ErrMax= 6.49D-05  0.00D+00 EMaxC= 1.00D-01 BMatC= 2.20D-05 BMatP= 4.71D-05
 IDIUse=1 WtCom= 1.00D+00 WtEn= 0.00D+00
 Coeff-Com: -0.229D-03 0.491D-03 0.781D-03-0.468D-03 0.103D-01 0.142D-01
 Coeff-Com: -0.218D-01-0.107D+00-0.129D+00 0.335D+00 0.265D+00-0.431D+00
 Coeff-Com: -0.365D+00-0.972D-01 0.725D+00 0.802D+00
 Coeff:     -0.229D-03 0.491D-03 0.781D-03-0.468D-03 0.103D-01 0.142D-01
 Coeff:     -0.218D-01-0.107D+00-0.129D+00 0.335D+00 0.265D+00-0.431D+00
 Coeff:     -0.365D+00-0.972D-01 0.725D+00 0.802D+00
 Gap=     0.375 Goal=   None    Shift=    0.000
 Gap=     0.132 Goal=   None    Shift=    0.000
 RMSDP=5.24D-05 MaxDP=6.40D-03 DE=-3.21D-05 OVMax= 3.66D-02

 Cycle  17  Pass 1  IDiag  1:
 RMSU=  2.60D-05    CP:  9.99D-01  1.27D+00  5.61D-01  3.28D-01  6.03D-01
                    CP:  5.85D-01  3.00D+00  3.00D+00  3.00D+00  3.00D+00
                    CP:  3.00D+00  3.00D+00  3.00D+00  3.00D+00  1.60D+00
                    CP:  1.56D+00
 E= -3807.48093113887     Delta-E=       -0.000082913706 Rises=F Damp=F
 DIIS: error= 6.62D-05 at cycle  17 NSaved=  17.
 NSaved=17 IEnMin=17 EnMin= -3807.48093113887     IErMin=16 ErrMin= 6.49D-05
 ErrMax= 6.62D-05  0.00D+00 EMaxC= 1.00D-01 BMatC= 2.19D-05 BMatP= 2.20D-05
 IDIUse=1 WtCom= 1.00D+00 WtEn= 0.00D+00
 Coeff-Com: -0.909D-04 0.144D-03 0.131D-02-0.293D-03 0.746D-02 0.419D-02
 Coeff-Com:  0.690D-02-0.436D-01-0.869D-01 0.303D-01 0.302D+00-0.855D-01
 Coeff-Com: -0.237D+00-0.274D+00 0.901D-01 0.491D+00 0.794D+00
 Coeff:     -0.909D-04 0.144D-03 0.131D-02-0.293D-03 0.746D-02 0.419D-02
 Coeff:      0.690D-02-0.436D-01-0.869D-01 0.303D-01 0.302D+00-0.855D-01
 Coeff:     -0.237D+00-0.274D+00 0.901D-01 0.491D+00 0.794D+00
 Gap=     0.375 Goal=   None    Shift=    0.000
 Gap=     0.131 Goal=   None    Shift=    0.000
 RMSDP=1.30D-05 MaxDP=1.65D-03 DE=-8.29D-05 OVMax= 8.71D-03

 Cycle  18  Pass 1  IDiag  1:
 RMSU=  4.37D-06    CP:  9.99D-01  1.27D+00  5.62D-01  3.27D-01  5.92D-01
                    CP:  5.70D-01  3.00D+00  3.00D+00  3.00D+00  3.00D+00
                    CP:  3.00D+00  3.00D+00  3.00D+00  3.00D+00  1.70D+00
                    CP:  2.02D+00  1.26D+00
 E= -3807.48094612888     Delta-E=       -0.000014990013 Rises=F Damp=F
 DIIS: error= 1.94D-05 at cycle  18 NSaved=  18.
 NSaved=18 IEnMin=18 EnMin= -3807.48094612888     IErMin=18 ErrMin= 1.94D-05
 ErrMax= 1.94D-05  0.00D+00 EMaxC= 1.00D-01 BMatC= 3.46D-06 BMatP= 2.19D-05
 IDIUse=1 WtCom= 1.00D+00 WtEn= 0.00D+00
 Coeff-Com:  0.104D-04-0.311D-04 0.550D-03-0.180D-03 0.140D-02-0.331D-02
 Coeff-Com:  0.780D-02 0.470D-02 0.154D-01-0.822D-01 0.295D-01-0.421D-01
 Coeff-Com:  0.156D+00-0.692D-01-0.121D+00-0.302D-01-0.112D+00 0.124D+01
 Coeff:      0.104D-04-0.311D-04 0.550D-03-0.180D-03 0.140D-02-0.331D-02
 Coeff:      0.780D-02 0.470D-02 0.154D-01-0.822D-01 0.295D-01-0.421D-01
 Coeff:      0.156D+00-0.692D-01-0.121D+00-0.302D-01-0.112D+00 0.124D+01
 Gap=     0.375 Goal=   None    Shift=    0.000
 Gap=     0.132 Goal=   None    Shift=    0.000
 RMSDP=1.28D-05 MaxDP=1.61D-03 DE=-1.50D-05 OVMax= 7.89D-03

 Cycle  19  Pass 1  IDiag  1:
 RMSU=  2.17D-06    CP:  9.99D-01  1.27D+00  5.62D-01  3.28D-01  5.79D-01
                    CP:  5.63D-01  3.00D+00  3.00D+00  3.00D+00  3.00D+00
                    CP:  3.00D+00  3.00D+00  3.00D+00  3.00D+00  1.83D+00
                    CP:  2.17D+00  1.53D+00  1.64D+00
 E= -3807.48095251004     Delta-E=       -0.000006381155 Rises=F Damp=F
 DIIS: error= 3.38D-05 at cycle  19 NSaved=  19.
 NSaved=19 IEnMin=19 EnMin= -3807.48095251004     IErMin=18 ErrMin= 1.94D-05
 ErrMax= 3.38D-05  0.00D+00 EMaxC= 1.00D-01 BMatC= 7.19D-06 BMatP= 3.46D-06
 IDIUse=1 WtCom= 1.00D+00 WtEn= 0.00D+00
 Coeff-Com:  0.439D-04-0.109D-03 0.161D-03-0.357D-04 0.402D-03-0.314D-02
 Coeff-Com: -0.141D-02-0.514D-02 0.518D-01-0.190D-01-0.603D-01-0.120D+00
 Coeff-Com:  0.239D+00 0.401D-01-0.542D-01-0.804D-01-0.667D+00 0.799D+00
 Coeff-Com:  0.880D+00
 Coeff:      0.439D-04-0.109D-03 0.161D-03-0.357D-04 0.402D-03-0.314D-02
 Coeff:     -0.141D-02-0.514D-02 0.518D-01-0.190D-01-0.603D-01-0.120D+00
 Coeff:      0.239D+00 0.401D-01-0.542D-01-0.804D-01-0.667D+00 0.799D+00
 Coeff:      0.880D+00
 Gap=     0.375 Goal=   None    Shift=    0.000
 Gap=     0.131 Goal=   None    Shift=    0.000
 RMSDP=5.29D-06 MaxDP=6.55D-04 DE=-6.38D-06 OVMax= 3.26D-03

 Cycle  20  Pass 1  IDiag  1:
 RMSU=  7.89D-07    CP:  9.99D-01  1.27D+00  5.63D-01  3.28D-01  5.76D-01
                    CP:  5.59D-01  3.00D+00  3.00D+00  3.00D+00  3.00D+00
                    CP:  3.00D+00  3.00D+00  3.00D+00  3.00D+00  1.86D+00
                    CP:  2.28D+00  1.62D+00  2.27D+00  2.03D+00
 E= -3807.48095657252     Delta-E=       -0.000004062482 Rises=F Damp=F
 DIIS: error= 1.70D-05 at cycle  20 NSaved=  20.
 NSaved=20 IEnMin=20 EnMin= -3807.48095657252     IErMin=20 ErrMin= 1.70D-05
 ErrMax= 1.70D-05  0.00D+00 EMaxC= 1.00D-01 BMatC= 3.22D-06 BMatP= 3.46D-06
 IDIUse=1 WtCom= 1.00D+00 WtEn= 0.00D+00
 Coeff-Com: -0.190D-04 0.314D-04 0.473D-04-0.361D-04 0.166D-02 0.275D-03
 Coeff-Com: -0.190D-02-0.211D-01 0.167D-01 0.216D-01 0.437D-01-0.149D+00
 Coeff-Com:  0.877D-01-0.372D-01 0.125D+00 0.106D+00-0.429D+00-0.163D+00
 Coeff-Com: -0.103D+00 0.150D+01
 Coeff:     -0.190D-04 0.314D-04 0.473D-04-0.361D-04 0.166D-02 0.275D-03
 Coeff:     -0.190D-02-0.211D-01 0.167D-01 0.216D-01 0.437D-01-0.149D+00
 Coeff:      0.877D-01-0.372D-01 0.125D+00 0.106D+00-0.429D+00-0.163D+00
 Coeff:     -0.103D+00 0.150D+01
 Gap=     0.375 Goal=   None    Shift=    0.000
 Gap=     0.131 Goal=   None    Shift=    0.000
 RMSDP=6.48D-06 MaxDP=9.14D-04 DE=-4.06D-06 OVMax= 4.67D-03

 Cycle  21  Pass 1  IDiag  1:
 Restarting incremental Fock formation.
 E= -3807.48096059767     Delta-E=       -0.000004025147 Rises=F Damp=F
 DIIS: error= 1.11D-05 at cycle  21 NSaved=  20.
 NSaved=20 IEnMin=20 EnMin= -3807.48096059767     IErMin=20 ErrMin= 1.11D-05
 ErrMax= 1.11D-05  0.00D+00 EMaxC= 1.00D-01 BMatC= 1.61D-06 BMatP= 3.22D-06
 IDIUse=1 WtCom= 1.00D+00 WtEn= 0.00D+00
 Coeff-Com: -0.242D-04 0.138D-03-0.281D-04 0.144D-02-0.160D-03 0.377D-02
 Coeff-Com: -0.877D-02-0.656D-02-0.329D-01 0.128D+00-0.713D-01-0.132D-01
 Coeff-Com: -0.171D+00 0.164D+00 0.125D+00 0.202D+00-0.251D+00-0.104D+01
 Coeff-Com:  0.279D+00 0.169D+01
 Coeff:     -0.242D-04 0.138D-03-0.281D-04 0.144D-02-0.160D-03 0.377D-02
 Coeff:     -0.877D-02-0.656D-02-0.329D-01 0.128D+00-0.713D-01-0.132D-01
 Coeff:     -0.171D+00 0.164D+00 0.125D+00 0.202D+00-0.251D+00-0.104D+01
 Coeff:      0.279D+00 0.169D+01
 Gap=     0.375 Goal=   None    Shift=    0.000
 Gap=     0.131 Goal=   None    Shift=    0.000
 RMSDP=8.66D-06 MaxDP=1.33D-03 DE=-4.03D-06 OVMax= 6.79D-03

 Cycle  22  Pass 1  IDiag  1:
 RMSU=  8.66D-06    CP:  1.00D+00
 E= -3807.48096488484     Delta-E=       -0.000004287171 Rises=F Damp=F
 DIIS: error= 9.68D-06 at cycle  22 NSaved=  20.
 NSaved=20 IEnMin=20 EnMin= -3807.48096488484     IErMin=20 ErrMin= 9.68D-06
 ErrMax= 9.68D-06  0.00D+00 EMaxC= 1.00D-01 BMatC= 1.19D-06 BMatP= 1.61D-06
 IDIUse=1 WtCom= 1.00D+00 WtEn= 0.00D+00
 Coeff-Com: -0.335D-05 0.243D-03 0.988D-03-0.998D-03 0.464D-02-0.263D-02
 Coeff-Com: -0.440D-02-0.515D-01 0.105D+00-0.255D-01 0.305D-02-0.161D+00
 Coeff-Com:  0.949D-01 0.400D-01 0.272D+00 0.149D+00-0.739D+00-0.831D+00
 Coeff-Com:  0.903D+00 0.124D+01
 Coeff:     -0.335D-05 0.243D-03 0.988D-03-0.998D-03 0.464D-02-0.263D-02
 Coeff:     -0.440D-02-0.515D-01 0.105D+00-0.255D-01 0.305D-02-0.161D+00
 Coeff:      0.949D-01 0.400D-01 0.272D+00 0.149D+00-0.739D+00-0.831D+00
 Coeff:      0.903D+00 0.124D+01
 Gap=     0.375 Goal=   None    Shift=    0.000
 Gap=     0.131 Goal=   None    Shift=    0.000
 RMSDP=8.94D-06 MaxDP=1.39D-03 DE=-4.29D-06 OVMax= 7.28D-03

 Cycle  23  Pass 1  IDiag  1:
 RMSU=  1.23D-06    CP:  1.00D+00  2.02D+00
 E= -3807.48096848073     Delta-E=       -0.000003595895 Rises=F Damp=F
 DIIS: error= 8.37D-06 at cycle  23 NSaved=  20.
 NSaved=20 IEnMin=20 EnMin= -3807.48096848073     IErMin=20 ErrMin= 8.37D-06
 ErrMax= 8.37D-06  0.00D+00 EMaxC= 1.00D-01 BMatC= 9.01D-07 BMatP= 1.19D-06
 IDIUse=1 WtCom= 1.00D+00 WtEn= 0.00D+00
 Coeff-Com:  0.113D-03 0.440D-03-0.138D-02 0.827D-04-0.516D-02 0.248D-01
 Coeff-Com: -0.126D-01-0.313D-01-0.448D-01 0.116D+00 0.363D-01-0.505D-01
 Coeff-Com: -0.407D-01-0.358D+00 0.542D+00 0.539D+00-0.234D+00-0.144D+01
 Coeff-Com:  0.819D-01 0.188D+01
 Coeff:      0.113D-03 0.440D-03-0.138D-02 0.827D-04-0.516D-02 0.248D-01
 Coeff:     -0.126D-01-0.313D-01-0.448D-01 0.116D+00 0.363D-01-0.505D-01
 Coeff:     -0.407D-01-0.358D+00 0.542D+00 0.539D+00-0.234D+00-0.144D+01
 Coeff:      0.819D-01 0.188D+01
 Gap=     0.375 Goal=   None    Shift=    0.000
 Gap=     0.132 Goal=   None    Shift=    0.000
 RMSDP=1.06D-05 MaxDP=1.54D-03 DE=-3.60D-06 OVMax= 8.73D-03

 Cycle  24  Pass 1  IDiag  1:
 RMSU=  2.33D-06    CP:  1.00D+00  3.00D+00  3.00D+00
 E= -3807.48097189234     Delta-E=       -0.000003411611 Rises=F Damp=F
 DIIS: error= 6.55D-06 at cycle  24 NSaved=  20.
 NSaved=20 IEnMin=20 EnMin= -3807.48097189234     IErMin=20 ErrMin= 6.55D-06
 ErrMax= 6.55D-06  0.00D+00 EMaxC= 1.00D-01 BMatC= 5.46D-07 BMatP= 9.01D-07
 IDIUse=1 WtCom= 1.00D+00 WtEn= 0.00D+00
 Coeff-Com:  0.245D-03-0.753D-03-0.779D-03-0.487D-02 0.184D-01-0.851D-04
 Coeff-Com: -0.356D-01-0.448D-01 0.850D-01 0.623D-01-0.489D-01 0.110D-01
 Coeff-Com: -0.384D+00 0.255D+00 0.399D+00 0.507D+00-0.811D+00-0.905D+00
 Coeff-Com:  0.467D+00 0.143D+01
 Coeff:      0.245D-03-0.753D-03-0.779D-03-0.487D-02 0.184D-01-0.851D-04
 Coeff:     -0.356D-01-0.448D-01 0.850D-01 0.623D-01-0.489D-01 0.110D-01
 Coeff:     -0.384D+00 0.255D+00 0.399D+00 0.507D+00-0.811D+00-0.905D+00
 Coeff:      0.467D+00 0.143D+01
 Gap=     0.375 Goal=   None    Shift=    0.000
 Gap=     0.132 Goal=   None    Shift=    0.000
 RMSDP=8.08D-06 MaxDP=1.12D-03 DE=-3.41D-06 OVMax= 6.65D-03

 Cycle  25  Pass 1  IDiag  1:
 RMSU=  4.68D-06    CP:  1.00D+00  3.00D+00  3.00D+00  3.00D+00
 E= -3807.48097356176     Delta-E=       -0.000001669419 Rises=F Damp=F
 DIIS: error= 7.88D-06 at cycle  25 NSaved=  20.
 NSaved=20 IEnMin=20 EnMin= -3807.48097356176     IErMin=19 ErrMin= 6.55D-06
 ErrMax= 7.88D-06  0.00D+00 EMaxC= 1.00D-01 BMatC= 4.76D-07 BMatP= 5.46D-07
 IDIUse=1 WtCom= 1.00D+00 WtEn= 0.00D+00
 Coeff-Com: -0.387D-03 0.145D-03-0.197D-02 0.498D-03-0.307D-02 0.177D-01
 Coeff-Com: -0.224D-01 0.168D-02-0.121D-01 0.430D-02 0.616D-01-0.387D-01
 Coeff-Com: -0.663D-01-0.243D+00 0.316D+00 0.467D+00-0.430D+00-0.739D+00
 Coeff-Com:  0.622D+00 0.107D+01
 Coeff:     -0.387D-03 0.145D-03-0.197D-02 0.498D-03-0.307D-02 0.177D-01
 Coeff:     -0.224D-01 0.168D-02-0.121D-01 0.430D-02 0.616D-01-0.387D-01
 Coeff:     -0.663D-01-0.243D+00 0.316D+00 0.467D+00-0.430D+00-0.739D+00
 Coeff:      0.622D+00 0.107D+01
 Gap=     0.375 Goal=   None    Shift=    0.000
 Gap=     0.132 Goal=   None    Shift=    0.000
 RMSDP=5.12D-06 MaxDP=6.81D-04 DE=-1.67D-06 OVMax= 4.14D-03

 Cycle  26  Pass 1  IDiag  1:
 RMSU=  2.64D-06    CP:  1.00D+00  3.00D+00  3.00D+00  3.00D+00  1.94D+00
 E= -3807.48097426004     Delta-E=       -0.000000698275 Rises=F Damp=F
 DIIS: error= 4.66D-06 at cycle  26 NSaved=  20.
 NSaved=20 IEnMin=20 EnMin= -3807.48097426004     IErMin=20 ErrMin= 4.66D-06
 ErrMax= 4.66D-06  0.00D+00 EMaxC= 1.00D-01 BMatC= 1.40D-07 BMatP= 4.76D-07
 IDIUse=1 WtCom= 1.00D+00 WtEn= 0.00D+00
 Coeff-Com: -0.173D-02-0.225D-02 0.101D-02 0.877D-02 0.471D-02-0.195D-01
 Coeff-Com:  0.115D-02-0.158D-01 0.134D-01 0.245D-01 0.318D-01-0.402D-01
 Coeff-Com: -0.197D+00-0.347D-01 0.366D+00 0.169D+00-0.334D+00-0.345D+00
 Coeff-Com:  0.267D+00 0.110D+01
 Coeff:     -0.173D-02-0.225D-02 0.101D-02 0.877D-02 0.471D-02-0.195D-01
 Coeff:      0.115D-02-0.158D-01 0.134D-01 0.245D-01 0.318D-01-0.402D-01
 Coeff:     -0.197D+00-0.347D-01 0.366D+00 0.169D+00-0.334D+00-0.345D+00
 Coeff:      0.267D+00 0.110D+01
 Gap=     0.374 Goal=   None    Shift=    0.000
 Gap=     0.132 Goal=   None    Shift=    0.000
 RMSDP=2.37D-06 MaxDP=3.22D-04 DE=-6.98D-07 OVMax= 1.89D-03

 Cycle  27  Pass 1  IDiag  1:
 RMSU=  6.86D-07    CP:  1.00D+00  3.00D+00  3.00D+00  3.00D+00  2.41D+00
                    CP:  1.20D+00
 E= -3807.48097448843     Delta-E=       -0.000000228394 Rises=F Damp=F
 DIIS: error= 4.09D-06 at cycle  27 NSaved=  20.
 NSaved=20 IEnMin=20 EnMin= -3807.48097448843     IErMin=20 ErrMin= 4.09D-06
 ErrMax= 4.09D-06  0.00D+00 EMaxC= 1.00D-01 BMatC= 1.02D-07 BMatP= 1.40D-07
 IDIUse=1 WtCom= 1.00D+00 WtEn= 0.00D+00
 Coeff-Com:  0.995D-03-0.182D-03 0.308D-02-0.254D-02-0.645D-02 0.390D-02
 Coeff-Com: -0.133D-03 0.239D-02 0.586D-03-0.898D-02-0.137D-02-0.329D-01
 Coeff-Com: -0.464D-01 0.105D-01 0.150D+00 0.989D-01-0.275D+00-0.417D+00
 Coeff-Com:  0.251D+00 0.127D+01
 Coeff:      0.995D-03-0.182D-03 0.308D-02-0.254D-02-0.645D-02 0.390D-02
 Coeff:     -0.133D-03 0.239D-02 0.586D-03-0.898D-02-0.137D-02-0.329D-01
 Coeff:     -0.464D-01 0.105D-01 0.150D+00 0.989D-01-0.275D+00-0.417D+00
 Coeff:      0.251D+00 0.127D+01
 Gap=     0.374 Goal=   None    Shift=    0.000
 Gap=     0.132 Goal=   None    Shift=    0.000
 RMSDP=3.16D-06 MaxDP=4.41D-04 DE=-2.28D-07 OVMax= 2.53D-03

 Cycle  28  Pass 1  IDiag  1:
 RMSU=  3.62D-07    CP:  1.00D+00  3.00D+00  3.00D+00  3.00D+00  3.00D+00
                    CP:  1.57D+00  1.92D+00
 E= -3807.48097466123     Delta-E=       -0.000000172799 Rises=F Damp=F
 DIIS: error= 2.52D-06 at cycle  28 NSaved=  20.
 NSaved=20 IEnMin=20 EnMin= -3807.48097466123     IErMin=20 ErrMin= 2.52D-06
 ErrMax= 2.52D-06  0.00D+00 EMaxC= 1.00D-01 BMatC= 8.95D-09 BMatP= 1.02D-07
 IDIUse=1 WtCom= 1.00D+00 WtEn= 0.00D+00
 Coeff-Com: -0.600D-03 0.164D-02-0.120D-01-0.408D-02 0.155D-01 0.190D-01
 Coeff-Com: -0.939D-02-0.919D-02-0.544D-01 0.864D-01 0.134D+00 0.188D-02
 Coeff-Com: -0.271D+00-0.787D-01 0.254D+00 0.124D+00-0.361D+00-0.485D+00
 Coeff-Com:  0.502D+00 0.115D+01
 Coeff:     -0.600D-03 0.164D-02-0.120D-01-0.408D-02 0.155D-01 0.190D-01
 Coeff:     -0.939D-02-0.919D-02-0.544D-01 0.864D-01 0.134D+00 0.188D-02
 Coeff:     -0.271D+00-0.787D-01 0.254D+00 0.124D+00-0.361D+00-0.485D+00
 Coeff:      0.502D+00 0.115D+01
 Gap=     0.374 Goal=   None    Shift=    0.000
 Gap=     0.132 Goal=   None    Shift=    0.000
 RMSDP=1.61D-06 MaxDP=1.99D-04 DE=-1.73D-07 OVMax= 1.09D-03

 Cycle  29  Pass 1  IDiag  1:
 RMSU=  1.39D-06    CP:  1.00D+00  3.00D+00  3.00D+00  3.00D+00  3.00D+00
                    CP:  1.61D+00  3.00D+00  1.75D+00
 E= -3807.48097469480     Delta-E=       -0.000000033568 Rises=F Damp=F
 DIIS: error= 5.35D-06 at cycle  29 NSaved=  20.
 NSaved=20 IEnMin=20 EnMin= -3807.48097469480     IErMin=19 ErrMin= 2.52D-06
 ErrMax= 5.35D-06  0.00D+00 EMaxC= 1.00D-01 BMatC= 1.34D-07 BMatP= 8.95D-09
 IDIUse=1 WtCom= 1.00D+00 WtEn= 0.00D+00
 Coeff-Com:  0.167D-02-0.817D-02-0.328D-02 0.969D-02 0.183D-01-0.147D-01
 Coeff-Com:  0.436D-02-0.626D-01 0.588D-01 0.736D-01 0.606D-01-0.159D+00
 Coeff-Com: -0.125D+00 0.115D+00 0.221D+00-0.119D+00-0.358D+00-0.114D+00
 Coeff-Com:  0.711D+00 0.690D+00
 Coeff:      0.167D-02-0.817D-02-0.328D-02 0.969D-02 0.183D-01-0.147D-01
 Coeff:      0.436D-02-0.626D-01 0.588D-01 0.736D-01 0.606D-01-0.159D+00
 Coeff:     -0.125D+00 0.115D+00 0.221D+00-0.119D+00-0.358D+00-0.114D+00
 Coeff:      0.711D+00 0.690D+00
 Gap=     0.374 Goal=   None    Shift=    0.000
 Gap=     0.132 Goal=   None    Shift=    0.000
 RMSDP=4.19D-07 MaxDP=5.15D-05 DE=-3.36D-08 OVMax= 1.78D-04

 Cycle  30  Pass 1  IDiag  1:
 RMSU=  2.27D-07    CP:  1.00D+00  3.00D+00  3.00D+00  3.00D+00  3.00D+00
                    CP:  1.71D+00  3.00D+00  2.28D+00  1.10D+00
 E= -3807.48097473369     Delta-E=       -0.000000038892 Rises=F Damp=F
 DIIS: error= 2.05D-06 at cycle  30 NSaved=  20.
 NSaved=20 IEnMin=20 EnMin= -3807.48097473369     IErMin=20 ErrMin= 2.05D-06
 ErrMax= 2.05D-06  0.00D+00 EMaxC= 1.00D-01 BMatC= 2.08D-08 BMatP= 8.95D-09
 IDIUse=1 WtCom= 1.00D+00 WtEn= 0.00D+00
 Coeff-Com: -0.503D-02-0.335D-02 0.921D-02 0.129D-01-0.132D-01 0.527D-02
 Coeff-Com: -0.567D-01 0.415D-01 0.500D-01 0.758D-01-0.938D-01-0.128D+00
 Coeff-Com:  0.248D-01 0.212D+00 0.607D-01-0.144D+00-0.337D+00 0.152D+00
 Coeff-Com:  0.412D-01 0.110D+01
 Coeff:     -0.503D-02-0.335D-02 0.921D-02 0.129D-01-0.132D-01 0.527D-02
 Coeff:     -0.567D-01 0.415D-01 0.500D-01 0.758D-01-0.938D-01-0.128D+00
 Coeff:      0.248D-01 0.212D+00 0.607D-01-0.144D+00-0.337D+00 0.152D+00
 Coeff:      0.412D-01 0.110D+01
 Gap=     0.374 Goal=   None    Shift=    0.000
 Gap=     0.132 Goal=   None    Shift=    0.000
 RMSDP=3.95D-07 MaxDP=4.15D-05 DE=-3.89D-08 OVMax= 3.20D-04

 Cycle  31  Pass 1  IDiag  1:
 RMSU=  1.76D-07    CP:  1.00D+00  3.00D+00  3.00D+00  3.00D+00  3.00D+00
                    CP:  1.64D+00  3.00D+00  2.18D+00  1.10D+00  2.32D+00
 E= -3807.48097474383     Delta-E=       -0.000000010135 Rises=F Damp=F
 DIIS: error= 2.17D-06 at cycle  31 NSaved=  20.
 NSaved=20 IEnMin=20 EnMin= -3807.48097474383     IErMin=19 ErrMin= 2.05D-06
 ErrMax= 2.17D-06  0.00D+00 EMaxC= 1.00D-01 BMatC= 2.30D-08 BMatP= 8.95D-09
 IDIUse=1 WtCom= 1.00D+00 WtEn= 0.00D+00
 Coeff-Com: -0.217D-02 0.292D-02-0.488D-02 0.653D-02-0.570D-02 0.188D-01
 Coeff-Com: -0.293D-02-0.997D-02-0.341D-01 0.173D-01 0.494D-01 0.102D-01
 Coeff-Com: -0.129D+00-0.943D-01 0.132D+00 0.419D+00-0.146D+00-0.137D+01
 Coeff-Com:  0.671D-01 0.208D+01
 Coeff:     -0.217D-02 0.292D-02-0.488D-02 0.653D-02-0.570D-02 0.188D-01
 Coeff:     -0.293D-02-0.997D-02-0.341D-01 0.173D-01 0.494D-01 0.102D-01
 Coeff:     -0.129D+00-0.943D-01 0.132D+00 0.419D+00-0.146D+00-0.137D+01
 Coeff:      0.671D-01 0.208D+01
 Gap=     0.374 Goal=   None    Shift=    0.000
 Gap=     0.132 Goal=   None    Shift=    0.000
 RMSDP=5.00D-07 MaxDP=7.07D-05 DE=-1.01D-08 OVMax= 3.36D-04

 Cycle  32  Pass 1  IDiag  1:
 RMSU=  3.01D-07    CP:  1.00D+00  3.00D+00  3.00D+00  3.00D+00  3.00D+00
                    CP:  1.67D+00  3.00D+00  1.92D+00  1.12D+00  3.00D+00
                    CP:  2.19D+00
 E= -3807.48097476188     Delta-E=       -0.000000018059 Rises=F Damp=F
 DIIS: error= 1.24D-06 at cycle  32 NSaved=  20.
 NSaved=20 IEnMin=20 EnMin= -3807.48097476188     IErMin=20 ErrMin= 1.24D-06
 ErrMax= 1.24D-06  0.00D+00 EMaxC= 1.00D-01 BMatC= 7.69D-09 BMatP= 8.95D-09
 IDIUse=1 WtCom= 1.00D+00 WtEn= 0.00D+00
 Coeff-Com:  0.606D-03-0.405D-02 0.735D-02-0.830D-02 0.225D-01-0.731D-02
 Coeff-Com: -0.732D-02-0.401D-01 0.722D-02 0.539D-01 0.271D-01-0.139D+00
 Coeff-Com: -0.127D+00 0.457D-01 0.444D+00 0.603D-01-0.876D+00-0.602D+00
 Coeff-Com:  0.998D+00 0.114D+01
 Coeff:      0.606D-03-0.405D-02 0.735D-02-0.830D-02 0.225D-01-0.731D-02
 Coeff:     -0.732D-02-0.401D-01 0.722D-02 0.539D-01 0.271D-01-0.139D+00
 Coeff:     -0.127D+00 0.457D-01 0.444D+00 0.603D-01-0.876D+00-0.602D+00
 Coeff:      0.998D+00 0.114D+01
 Gap=     0.374 Goal=   None    Shift=    0.000
 Gap=     0.132 Goal=   None    Shift=    0.000
 RMSDP=6.39D-07 MaxDP=7.85D-05 DE=-1.81D-08 OVMax= 4.12D-04

 Cycle  33  Pass 1  IDiag  1:
 RMSU=  1.27D-07    CP:  1.00D+00  3.00D+00  3.00D+00  3.00D+00  3.00D+00
                    CP:  1.78D+00  3.00D+00  2.50D+00  1.45D+00  3.00D+00
                    CP:  2.78D+00  1.78D+00
 E= -3807.48097477048     Delta-E=       -0.000000008593 Rises=F Damp=F
 DIIS: error= 4.79D-07 at cycle  33 NSaved=  20.
 NSaved=20 IEnMin=20 EnMin= -3807.48097477048     IErMin=20 ErrMin= 4.79D-07
 ErrMax= 4.79D-07  0.00D+00 EMaxC= 1.00D-01 BMatC= 1.34D-09 BMatP= 7.69D-09
 IDIUse=1 WtCom= 1.00D+00 WtEn= 0.00D+00
 Coeff-Com:  0.167D-02-0.371D-03 0.675D-03-0.601D-02 0.378D-02 0.623D-02
 Coeff-Com:  0.149D-01-0.232D-01-0.160D-01 0.245D-01 0.267D-01-0.145D-01
 Coeff-Com: -0.898D-01-0.122D-01 0.203D+00 0.298D+00-0.348D+00-0.679D+00
 Coeff-Com:  0.391D+00 0.122D+01
 Coeff:      0.167D-02-0.371D-03 0.675D-03-0.601D-02 0.378D-02 0.623D-02
 Coeff:      0.149D-01-0.232D-01-0.160D-01 0.245D-01 0.267D-01-0.145D-01
 Coeff:     -0.898D-01-0.122D-01 0.203D+00 0.298D+00-0.348D+00-0.679D+00
 Coeff:      0.391D+00 0.122D+01
 Gap=     0.374 Goal=   None    Shift=    0.000
 Gap=     0.132 Goal=   None    Shift=    0.000
 RMSDP=3.74D-07 MaxDP=4.89D-05 DE=-8.59D-09 OVMax= 2.26D-04

 Cycle  34  Pass 1  IDiag  1:
 RMSU=  9.23D-08    CP:  1.00D+00  3.00D+00  3.00D+00  3.00D+00  3.00D+00
                    CP:  1.82D+00  3.00D+00  2.07D+00  1.36D+00  3.00D+00
                    CP:  3.00D+00  2.70D+00  8.00D-01
 E= -3807.48097477339     Delta-E=       -0.000000002918 Rises=F Damp=F
 DIIS: error= 2.65D-07 at cycle  34 NSaved=  20.
 NSaved=20 IEnMin=20 EnMin= -3807.48097477339     IErMin=20 ErrMin= 2.65D-07
 ErrMax= 2.65D-07  0.00D+00 EMaxC= 1.00D-01 BMatC= 3.97D-10 BMatP= 1.34D-09
 IDIUse=1 WtCom= 1.00D+00 WtEn= 0.00D+00
 Coeff-Com: -0.556D-03 0.183D-02-0.182D-02 0.181D-02 0.513D-03 0.597D-02
 Coeff-Com: -0.500D-02-0.113D-01-0.985D-03 0.290D-01 0.183D-01-0.355D-01
 Coeff-Com: -0.622D-01 0.562D-01 0.276D+00-0.468D-01-0.385D+00-0.176D+00
 Coeff-Com:  0.406D+00 0.929D+00
 Coeff:     -0.556D-03 0.183D-02-0.182D-02 0.181D-02 0.513D-03 0.597D-02
 Coeff:     -0.500D-02-0.113D-01-0.985D-03 0.290D-01 0.183D-01-0.355D-01
 Coeff:     -0.622D-01 0.562D-01 0.276D+00-0.468D-01-0.385D+00-0.176D+00
 Coeff:      0.406D+00 0.929D+00
 Gap=     0.374 Goal=   None    Shift=    0.000
 Gap=     0.132 Goal=   None    Shift=    0.000
 RMSDP=1.13D-07 MaxDP=2.39D-05 DE=-2.92D-09 OVMax= 6.87D-05

 Cycle  35  Pass 1  IDiag  1:
 RMSU=  2.57D-08    CP:  1.00D+00  3.00D+00  3.00D+00  3.00D+00  3.00D+00
                    CP:  1.84D+00  3.00D+00  2.04D+00  1.40D+00  3.00D+00
                    CP:  3.00D+00  2.90D+00  7.68D-01  1.50D+00
 E= -3807.48097477359     Delta-E=       -0.000000000193 Rises=F Damp=F
 DIIS: error= 5.90D-08 at cycle  35 NSaved=  20.
 NSaved=20 IEnMin=20 EnMin= -3807.48097477359     IErMin=20 ErrMin= 5.90D-08
 ErrMax= 5.90D-08  0.00D+00 EMaxC= 1.00D-01 BMatC= 3.33D-11 BMatP= 3.97D-10
 IDIUse=1 WtCom= 1.00D+00 WtEn= 0.00D+00
 Coeff-Com:  0.105D-02-0.213D-02-0.122D-02 0.108D-02 0.464D-02-0.994D-03
 Coeff-Com: -0.732D-02-0.393D-02 0.161D-01 0.140D-01-0.146D-01-0.334D-01
 Coeff-Com: -0.267D-02 0.118D+00 0.223D-01-0.776D-01-0.175D+00-0.638D-01
 Coeff-Com:  0.421D+00 0.785D+00
 Coeff:      0.105D-02-0.213D-02-0.122D-02 0.108D-02 0.464D-02-0.994D-03
 Coeff:     -0.732D-02-0.393D-02 0.161D-01 0.140D-01-0.146D-01-0.334D-01
 Coeff:     -0.267D-02 0.118D+00 0.223D-01-0.776D-01-0.175D+00-0.638D-01
 Coeff:      0.421D+00 0.785D+00
 Gap=     0.374 Goal=   None    Shift=    0.000
 Gap=     0.132 Goal=   None    Shift=    0.000
 RMSDP=7.49D-08 MaxDP=1.16D-05 DE=-1.93D-10 OVMax= 4.73D-05

 Cycle  36  Pass 1  IDiag  1:
 RMSU=  5.59D-09    CP:  1.00D+00  3.00D+00  3.00D+00  3.00D+00  3.00D+00
                    CP:  1.85D+00  3.00D+00  2.09D+00  1.44D+00  3.00D+00
                    CP:  3.00D+00  2.98D+00  8.25D-01  1.69D+00  1.47D+00
 E= -3807.48097477390     Delta-E=       -0.000000000311 Rises=F Damp=F
 DIIS: error= 5.04D-08 at cycle  36 NSaved=  20.
 NSaved=20 IEnMin=20 EnMin= -3807.48097477390     IErMin=20 ErrMin= 5.04D-08
 ErrMax= 5.04D-08  0.00D+00 EMaxC= 1.00D-01 BMatC= 1.60D-11 BMatP= 3.33D-11
 IDIUse=1 WtCom= 1.00D+00 WtEn= 0.00D+00
 Coeff-Com: -0.991D-03-0.378D-04 0.202D-02 0.209D-02-0.246D-02-0.263D-02
 Coeff-Com:  0.125D-02 0.315D-02 0.130D-02-0.544D-02 0.634D-02-0.573D-02
 Coeff-Com: -0.309D-01 0.743D-02 0.857D-01-0.968D-02-0.141D+00-0.995D-01
 Coeff-Com:  0.185D+00 0.100D+01
 Coeff:     -0.991D-03-0.378D-04 0.202D-02 0.209D-02-0.246D-02-0.263D-02
 Coeff:      0.125D-02 0.315D-02 0.130D-02-0.544D-02 0.634D-02-0.573D-02
 Coeff:     -0.309D-01 0.743D-02 0.857D-01-0.968D-02-0.141D+00-0.995D-01
 Coeff:      0.185D+00 0.100D+01
 Gap=     0.374 Goal=   None    Shift=    0.000
 Gap=     0.132 Goal=   None    Shift=    0.000
 RMSDP=6.11D-08 MaxDP=7.62D-06 DE=-3.11D-10 OVMax= 4.94D-05

 Cycle  37  Pass 1  IDiag  1:
 RMSU=  8.06D-09    CP:  1.00D+00  3.00D+00  3.00D+00  3.00D+00  3.00D+00
                    CP:  1.84D+00  3.00D+00  2.02D+00  1.41D+00  3.00D+00
                    CP:  3.00D+00  3.00D+00  7.78D-01  1.82D+00  1.47D+00
                    CP:  9.11D-01
 E= -3807.48097477387     Delta-E=        0.000000000031 Rises=F Damp=F
 DIIS: error= 1.38D-08 at cycle  37 NSaved=  20.
 NSaved=20 IEnMin=19 EnMin= -3807.48097477390     IErMin=20 ErrMin= 1.38D-08
 ErrMax= 1.38D-08  0.00D+00 EMaxC= 1.00D-01 BMatC= 1.81D-12 BMatP= 1.60D-11
 IDIUse=1 WtCom= 1.00D+00 WtEn= 0.00D+00
 Coeff-Com: -0.212D-03-0.317D-03 0.889D-03 0.181D-03-0.446D-03 0.247D-03
 Coeff-Com: -0.155D-04-0.117D-02-0.160D-02 0.301D-02 0.428D-02-0.151D-01
 Coeff-Com: -0.896D-02 0.910D-02 0.341D-01 0.161D-01-0.913D-01-0.113D+00
 Coeff-Com:  0.132D+00 0.103D+01
 Coeff:     -0.212D-03-0.317D-03 0.889D-03 0.181D-03-0.446D-03 0.247D-03
 Coeff:     -0.155D-04-0.117D-02-0.160D-02 0.301D-02 0.428D-02-0.151D-01
 Coeff:     -0.896D-02 0.910D-02 0.341D-01 0.161D-01-0.913D-01-0.113D+00
 Coeff:      0.132D+00 0.103D+01
 Gap=     0.374 Goal=   None    Shift=    0.000
 Gap=     0.132 Goal=   None    Shift=    0.000
 RMSDP=7.91D-09 MaxDP=8.13D-07 DE= 3.09D-11 OVMax= 4.76D-06

 Error on total polarization charges =  0.00102
 SCF Done:  E(UCAM-B3LYP) =  -3807.48097477     A.U. after   37 cycles
            NFock= 37  Conv=0.79D-08     -V/T= 2.0072
 <Sx>= 0.0000 <Sy>= 0.0000 <Sz>= 0.5000 <S**2>= 0.7661 S= 0.5080
 <L.S>= 0.000000000000E+00
 KE= 3.780111760222D+03 PE=-2.701596789205D+04 EE= 1.040092201352D+04
 Annihilation of the first spin contaminant:
 S**2 before annihilation     0.7661,   after     0.7502
 Leave Link  502 at Sun Mar  3 17:29:30 2024, MaxMem=  5368709120 cpu:      6581.3
 (Enter /home/k0335/k033513/app/g09/l601.exe)
 Copying SCF densities to generalized density rwf, IOpCl= 1 IROHF=0.

 **********************************************************************

            Population analysis using the SCF density.

 **********************************************************************

 Alpha  occ. eigenvalues --  -24.90384 -24.89323 -24.88971 -24.88918 -24.88774
 Alpha  occ. eigenvalues --  -24.88305 -24.87978 -24.87220 -24.87210 -24.87088
 Alpha  occ. eigenvalues --  -24.86879 -24.86854 -24.86735 -24.86332 -24.86278
 Alpha  occ. eigenvalues --  -24.86059 -24.85959 -24.85957 -24.85937 -24.85876
 Alpha  occ. eigenvalues --  -24.85847 -24.85709 -24.85646 -24.85610 -24.85509
 Alpha  occ. eigenvalues --  -24.85207 -24.84881 -19.37025 -19.36466 -19.36226
 Alpha  occ. eigenvalues --  -19.34497 -19.32804 -14.65266 -14.63097 -14.59938
 Alpha  occ. eigenvalues --  -10.62571 -10.62254 -10.62020 -10.60471 -10.60204
 Alpha  occ. eigenvalues --  -10.59834 -10.58859 -10.58053 -10.57853 -10.54889
 Alpha  occ. eigenvalues --  -10.54219 -10.53937 -10.53914 -10.52440 -10.49686
 Alpha  occ. eigenvalues --   -1.47065  -1.46579  -1.45613  -1.45510  -1.45346
 Alpha  occ. eigenvalues --   -1.45201  -1.44872  -1.44230  -1.42954  -1.39893
 Alpha  occ. eigenvalues --   -1.39138  -1.38801  -1.38416  -1.38065  -1.37630
 Alpha  occ. eigenvalues --   -1.36992  -1.36827  -1.36149  -1.36083  -1.35975
 Alpha  occ. eigenvalues --   -1.35754  -1.35703  -1.35444  -1.35436  -1.35123
 Alpha  occ. eigenvalues --   -1.34622  -1.34281  -1.31645  -1.27454  -1.24301
 Alpha  occ. eigenvalues --   -1.24260  -1.23731  -1.22445  -1.17216  -1.16942
 Alpha  occ. eigenvalues --   -1.00123  -0.98302  -0.98004  -0.95437  -0.92518
 Alpha  occ. eigenvalues --   -0.91685  -0.86940  -0.86197  -0.85481  -0.84960
 Alpha  occ. eigenvalues --   -0.84601  -0.82608  -0.81969  -0.80101  -0.79368
 Alpha  occ. eigenvalues --   -0.78481  -0.77560  -0.76872  -0.76769  -0.76030
 Alpha  occ. eigenvalues --   -0.75750  -0.75302  -0.75242  -0.74071  -0.73748
 Alpha  occ. eigenvalues --   -0.73534  -0.73195  -0.72860  -0.72816  -0.72592
 Alpha  occ. eigenvalues --   -0.72510  -0.72099  -0.71884  -0.71394  -0.71132
 Alpha  occ. eigenvalues --   -0.70891  -0.70405  -0.70329  -0.69999  -0.69882
 Alpha  occ. eigenvalues --   -0.69314  -0.68593  -0.68250  -0.67974  -0.65061
 Alpha  occ. eigenvalues --   -0.64632  -0.63540  -0.62817  -0.62760  -0.62478
 Alpha  occ. eigenvalues --   -0.62307  -0.61927  -0.61467  -0.60953  -0.60761
 Alpha  occ. eigenvalues --   -0.60602  -0.60527  -0.60355  -0.59840  -0.59759
 Alpha  occ. eigenvalues --   -0.59606  -0.59493  -0.59248  -0.59162  -0.58900
 Alpha  occ. eigenvalues --   -0.58838  -0.58698  -0.58636  -0.58386  -0.58176
 Alpha  occ. eigenvalues --   -0.57831  -0.57656  -0.57218  -0.56965  -0.56833
 Alpha  occ. eigenvalues --   -0.56603  -0.56411  -0.56302  -0.56257  -0.55991
 Alpha  occ. eigenvalues --   -0.55723  -0.55391  -0.55154  -0.55037  -0.54866
 Alpha  occ. eigenvalues --   -0.54689  -0.54448  -0.54367  -0.54256  -0.54188
 Alpha  occ. eigenvalues --   -0.53800  -0.53438  -0.53224  -0.53140  -0.53019
 Alpha  occ. eigenvalues --   -0.52790  -0.52706  -0.52376  -0.52231  -0.52162
 Alpha  occ. eigenvalues --   -0.51916  -0.51811  -0.51184  -0.50842  -0.50064
 Alpha  occ. eigenvalues --   -0.49382  -0.49044  -0.48870  -0.48104  -0.47307
 Alpha  occ. eigenvalues --   -0.46748  -0.45661  -0.45212
 Alpha virt. eigenvalues --   -0.07787  -0.02900  -0.00751   0.00392   0.01032
 Alpha virt. eigenvalues --    0.02114   0.03028   0.05128   0.06146   0.07984
 Alpha virt. eigenvalues --    0.08500   0.09314   0.09898   0.10200   0.11368
 Alpha virt. eigenvalues --    0.13104   0.13721   0.14493   0.14952   0.15721
 Alpha virt. eigenvalues --    0.16278   0.17196   0.17335   0.17532   0.18550
 Alpha virt. eigenvalues --    0.18958   0.19359   0.19807   0.20050   0.20258
 Alpha virt. eigenvalues --    0.20361   0.20431   0.20563   0.20968   0.21409
 Alpha virt. eigenvalues --    0.21486   0.22369   0.22629   0.22880   0.23481
 Alpha virt. eigenvalues --    0.24039   0.24749   0.25479   0.25882   0.26809
 Alpha virt. eigenvalues --    0.26997   0.28110   0.29218   0.29622   0.30018
 Alpha virt. eigenvalues --    0.31695   0.33496   0.34715   0.37504   0.40070
 Alpha virt. eigenvalues --    0.40743   0.42656   0.44207   0.44912   0.45328
 Alpha virt. eigenvalues --    0.45963   0.46553   0.47159   0.47830   0.48321
 Alpha virt. eigenvalues --    0.48472   0.48765   0.49213   0.49815   0.49995
 Alpha virt. eigenvalues --    0.50594   0.51179   0.51355   0.51938   0.52216
 Alpha virt. eigenvalues --    0.52434   0.53223   0.53525   0.53876   0.54571
 Alpha virt. eigenvalues --    0.54614   0.55904   0.56074   0.56939   0.57466
 Alpha virt. eigenvalues --    0.58471   0.59189   0.59675   0.61308   0.63193
 Alpha virt. eigenvalues --    0.63377   0.63885   0.65304   0.65929   0.67761
 Alpha virt. eigenvalues --    0.68748   0.70020   0.70933   0.71977   0.73210
 Alpha virt. eigenvalues --    0.73482   0.74623   0.75821   0.76665   0.78570
 Alpha virt. eigenvalues --    0.79804   0.80709   0.81133   0.82319   0.84239
 Alpha virt. eigenvalues --    0.84378   0.85469   0.87257   0.87545   0.88810
 Alpha virt. eigenvalues --    0.90163   0.90721   0.91731   0.92574   0.93572
 Alpha virt. eigenvalues --    0.94292   0.95478   0.96423   0.97291   0.98106
 Alpha virt. eigenvalues --    0.99063   1.00504   1.00766   1.01517   1.01874
 Alpha virt. eigenvalues --    1.02770   1.03561   1.04478   1.05442   1.05643
 Alpha virt. eigenvalues --    1.05822   1.06280   1.06754   1.07133   1.07774
 Alpha virt. eigenvalues --    1.09030   1.09397   1.09825   1.10262   1.10630
 Alpha virt. eigenvalues --    1.11256   1.11615   1.11989   1.12730   1.13523
 Alpha virt. eigenvalues --    1.13707   1.14007   1.14510   1.14902   1.15170
 Alpha virt. eigenvalues --    1.16256   1.16307   1.17036   1.17201   1.18557
 Alpha virt. eigenvalues --    1.19176   1.19751   1.20455   1.21189   1.21402
 Alpha virt. eigenvalues --    1.21878   1.22346   1.23377   1.23662   1.24851
 Alpha virt. eigenvalues --    1.25230   1.25545   1.26135   1.26492   1.26810
 Alpha virt. eigenvalues --    1.27345   1.27755   1.28621   1.28938   1.29344
 Alpha virt. eigenvalues --    1.29397   1.30466   1.30690   1.30814   1.31647
 Alpha virt. eigenvalues --    1.31808   1.32371   1.32581   1.33205   1.33542
 Alpha virt. eigenvalues --    1.34047   1.34269   1.34646   1.34887   1.35596
 Alpha virt. eigenvalues --    1.35785   1.36076   1.36205   1.36436   1.36757
 Alpha virt. eigenvalues --    1.37318   1.37729   1.38012   1.38168   1.38287
 Alpha virt. eigenvalues --    1.38432   1.38568   1.39253   1.39610   1.39949
 Alpha virt. eigenvalues --    1.40540   1.41349   1.41604   1.42530   1.42811
 Alpha virt. eigenvalues --    1.43245   1.43454   1.44084   1.44449   1.45073
 Alpha virt. eigenvalues --    1.45242   1.45873   1.46395   1.46635   1.47264
 Alpha virt. eigenvalues --    1.47849   1.48256   1.48730   1.49085   1.49516
 Alpha virt. eigenvalues --    1.50390   1.50547   1.51458   1.52329   1.52445
 Alpha virt. eigenvalues --    1.53502   1.53897   1.54902   1.55772   1.56186
 Alpha virt. eigenvalues --    1.56361   1.57254   1.57959   1.58268   1.58944
 Alpha virt. eigenvalues --    1.59797   1.60041   1.60386   1.61135   1.62406
 Alpha virt. eigenvalues --    1.62806   1.63140   1.64119   1.65366   1.66217
 Alpha virt. eigenvalues --    1.66524   1.66913   1.67778   1.67943   1.68371
 Alpha virt. eigenvalues --    1.69509   1.70157   1.70278   1.70848   1.71201
 Alpha virt. eigenvalues --    1.71298   1.72141   1.72540   1.72640   1.73390
 Alpha virt. eigenvalues --    1.74318   1.74822   1.75575   1.75763   1.76155
 Alpha virt. eigenvalues --    1.76452   1.77403   1.77951   1.78107   1.78476
 Alpha virt. eigenvalues --    1.79069   1.79505   1.80301   1.80880   1.81204
 Alpha virt. eigenvalues --    1.81369   1.81853   1.82272   1.82459   1.82601
 Alpha virt. eigenvalues --    1.83295   1.83440   1.83604   1.83790   1.84103
 Alpha virt. eigenvalues --    1.84694   1.84883   1.85104   1.85311   1.85554
 Alpha virt. eigenvalues --    1.85837   1.86152   1.86754   1.87048   1.87477
 Alpha virt. eigenvalues --    1.87650   1.88102   1.88423   1.88993   1.89122
 Alpha virt. eigenvalues --    1.89355   1.89393   1.90021   1.90822   1.90908
 Alpha virt. eigenvalues --    1.91009   1.91237   1.91498   1.91931   1.92379
 Alpha virt. eigenvalues --    1.93010   1.93622   1.94167   1.94479   1.94669
 Alpha virt. eigenvalues --    1.95057   1.95656   1.96587   1.96914   1.97582
 Alpha virt. eigenvalues --    1.97757   1.98038   1.98198   1.98516   1.98937
 Alpha virt. eigenvalues --    1.99098   1.99423   1.99680   1.99979   2.00095
 Alpha virt. eigenvalues --    2.00691   2.00835   2.01093   2.01136   2.01491
 Alpha virt. eigenvalues --    2.01765   2.02124   2.02367   2.02771   2.02890
 Alpha virt. eigenvalues --    2.03198   2.03969   2.04494   2.04861   2.05382
 Alpha virt. eigenvalues --    2.06001   2.06338   2.06549   2.06658   2.07030
 Alpha virt. eigenvalues --    2.07234   2.07402   2.08434   2.08641   2.09740
 Alpha virt. eigenvalues --    2.09997   2.10012   2.10605   2.10956   2.11391
 Alpha virt. eigenvalues --    2.11668   2.12912   2.13409   2.14397   2.15467
 Alpha virt. eigenvalues --    2.15765   2.15933   2.16740   2.16770   2.17907
 Alpha virt. eigenvalues --    2.18088   2.18994   2.19652   2.20017   2.21081
 Alpha virt. eigenvalues --    2.21483   2.22095   2.23631   2.23950   2.24277
 Alpha virt. eigenvalues --    2.24451   2.25480   2.25990   2.28220   2.28584
 Alpha virt. eigenvalues --    2.30062   2.30947   2.32504   2.33351   2.33698
 Alpha virt. eigenvalues --    2.34340   2.35417   2.36238   2.36881   2.37474
 Alpha virt. eigenvalues --    2.37711   2.38440   2.38748   2.39677   2.40411
 Alpha virt. eigenvalues --    2.41847   2.42047   2.42952   2.44032   2.44335
 Alpha virt. eigenvalues --    2.45223   2.46425   2.47062   2.47786   2.48975
 Alpha virt. eigenvalues --    2.49621   2.50422   2.51977   2.53139   2.53946
 Alpha virt. eigenvalues --    2.54172   2.55333   2.55602   2.56355   2.57562
 Alpha virt. eigenvalues --    2.58477   2.59565   2.60508   2.60896   2.61181
 Alpha virt. eigenvalues --    2.62545   2.63424   2.65177   2.66763   2.67608
 Alpha virt. eigenvalues --    2.67924   2.68586   2.70345   2.71264   2.71981
 Alpha virt. eigenvalues --    2.72339   2.73216   2.74291   2.75442   2.77829
 Alpha virt. eigenvalues --    2.78707   2.79714   2.80082   2.80654   2.81410
 Alpha virt. eigenvalues --    2.82684   2.83506   2.83740   2.84674   2.85662
 Alpha virt. eigenvalues --    2.86144   2.86562   2.87714   2.88221   2.89835
 Alpha virt. eigenvalues --    2.90180   2.90660   2.91088   2.91728   2.92925
 Alpha virt. eigenvalues --    2.93716   2.94640   2.94980   2.96160   2.97112
 Alpha virt. eigenvalues --    2.99272   3.00765   3.02260   3.02728   3.02821
 Alpha virt. eigenvalues --    3.03434   3.03768   3.04285   3.05034   3.05844
 Alpha virt. eigenvalues --    3.06604   3.07249   3.08709   3.09792   3.10641
 Alpha virt. eigenvalues --    3.11489   3.11790   3.13196   3.14676   3.15953
 Alpha virt. eigenvalues --    3.16655   3.17127   3.19169   3.19415   3.20225
 Alpha virt. eigenvalues --    3.23027   3.23860   3.25611   3.26579   3.27823
 Alpha virt. eigenvalues --    3.28613   3.29682   3.30250   3.32898   3.34964
 Alpha virt. eigenvalues --    3.35611   3.41133   3.96051   4.01083   4.07225
 Alpha virt. eigenvalues --    4.08607   4.10105   4.16901   4.21834   4.24649
 Alpha virt. eigenvalues --    4.28148   4.29583   4.30649   4.34520   4.36438
 Alpha virt. eigenvalues --    4.41978   4.44185   4.44474   4.45674   4.48691
 Alpha virt. eigenvalues --    4.51131   4.55628   4.57626   4.60397   4.63150
 Alpha virt. eigenvalues --    4.66649   4.69858   4.74387   4.77745   4.83563
 Alpha virt. eigenvalues --    4.84992   4.90284   4.98110   5.06158   5.07623
 Alpha virt. eigenvalues --    5.20648   5.23164   5.28691   5.31403   5.37952
 Alpha virt. eigenvalues --    5.41638   5.45771   5.56501   5.65234   5.69134
 Alpha virt. eigenvalues --    5.82834   6.07781   6.18371   6.20534   6.24589
 Alpha virt. eigenvalues --    6.25871   6.56397
  Beta  occ. eigenvalues --  -24.90380 -24.89309 -24.88961 -24.88829 -24.88770
  Beta  occ. eigenvalues --  -24.88305 -24.87973 -24.87213 -24.87208 -24.87087
  Beta  occ. eigenvalues --  -24.86879 -24.86854 -24.86729 -24.86331 -24.86278
  Beta  occ. eigenvalues --  -24.86059 -24.85956 -24.85956 -24.85937 -24.85876
  Beta  occ. eigenvalues --  -24.85846 -24.85709 -24.85644 -24.85610 -24.85509
  Beta  occ. eigenvalues --  -24.85207 -24.84881 -19.37006 -19.36461 -19.36221
  Beta  occ. eigenvalues --  -19.33967 -19.32438 -14.64452 -14.62534 -14.59988
  Beta  occ. eigenvalues --  -10.62572 -10.62254 -10.62020 -10.60507 -10.60205
  Beta  occ. eigenvalues --  -10.59860 -10.58857 -10.58052 -10.57854 -10.55063
  Beta  occ. eigenvalues --  -10.54209 -10.54038 -10.53909 -10.52442 -10.49658
  Beta  occ. eigenvalues --   -1.47049  -1.46563  -1.45527  -1.45508  -1.45344
  Beta  occ. eigenvalues --   -1.45175  -1.44854  -1.44229  -1.42953  -1.39877
  Beta  occ. eigenvalues --   -1.39121  -1.38795  -1.38301  -1.38033  -1.37609
  Beta  occ. eigenvalues --   -1.36989  -1.36825  -1.36143  -1.36075  -1.35974
  Beta  occ. eigenvalues --   -1.35752  -1.35702  -1.35443  -1.35435  -1.35119
  Beta  occ. eigenvalues --   -1.34620  -1.34280  -1.31012  -1.26681  -1.24260
  Beta  occ. eigenvalues --   -1.24239  -1.23706  -1.21266  -1.16669  -1.15832
  Beta  occ. eigenvalues --   -0.99928  -0.98174  -0.97814  -0.94988  -0.92347
  Beta  occ. eigenvalues --   -0.91527  -0.86875  -0.86087  -0.85458  -0.84892
  Beta  occ. eigenvalues --   -0.84566  -0.82422  -0.81824  -0.79841  -0.79319
  Beta  occ. eigenvalues --   -0.78380  -0.77158  -0.76746  -0.76537  -0.75978
  Beta  occ. eigenvalues --   -0.75603  -0.75264  -0.74937  -0.73990  -0.73564
  Beta  occ. eigenvalues --   -0.73162  -0.72980  -0.72742  -0.72701  -0.72516
  Beta  occ. eigenvalues --   -0.72266  -0.72065  -0.71722  -0.71302  -0.71018
  Beta  occ. eigenvalues --   -0.70833  -0.70272  -0.70202  -0.69855  -0.69826
  Beta  occ. eigenvalues --   -0.69207  -0.68423  -0.68191  -0.67549  -0.63738
  Beta  occ. eigenvalues --   -0.63699  -0.62870  -0.62778  -0.62583  -0.62264
  Beta  occ. eigenvalues --   -0.62159  -0.61649  -0.61327  -0.60911  -0.60575
  Beta  occ. eigenvalues --   -0.60544  -0.60418  -0.60159  -0.59737  -0.59641
  Beta  occ. eigenvalues --   -0.59497  -0.59452  -0.59201  -0.59079  -0.58835
  Beta  occ. eigenvalues --   -0.58756  -0.58583  -0.58426  -0.58348  -0.58131
  Beta  occ. eigenvalues --   -0.57703  -0.57610  -0.57175  -0.56908  -0.56773
  Beta  occ. eigenvalues --   -0.56524  -0.56372  -0.56257  -0.56227  -0.55929
  Beta  occ. eigenvalues --   -0.55638  -0.55317  -0.55134  -0.55012  -0.54836
  Beta  occ. eigenvalues --   -0.54611  -0.54368  -0.54330  -0.54172  -0.54096
  Beta  occ. eigenvalues --   -0.53780  -0.53423  -0.53160  -0.53122  -0.52975
  Beta  occ. eigenvalues --   -0.52749  -0.52676  -0.52373  -0.52212  -0.52071
  Beta  occ. eigenvalues --   -0.51846  -0.51739  -0.51177  -0.49935  -0.49384
  Beta  occ. eigenvalues --   -0.48894  -0.47945  -0.47748  -0.46945  -0.44946
  Beta  occ. eigenvalues --   -0.44591  -0.43727
  Beta virt. eigenvalues --   -0.30574  -0.06661  -0.02401  -0.00465   0.00656
[...]
    46   Atom        0.001237     -0.000519     -0.000718
    47   Atom        0.000785     -0.000229     -0.000556
    48   Atom        0.001254     -0.000720     -0.000534
    49   Atom        0.000657     -0.000410     -0.000247
    50   Atom        0.000568     -0.000322     -0.000246
    51   Atom        0.005574     -0.010540      0.004965
    52   Atom        0.004849     -0.005319      0.000470
 --------------------------------------------------------
                        XY            XZ            YZ
 --------------------------------------------------------
     1   Atom       -0.197437     -0.250266      0.520779
     2   Atom        0.041416      0.041128     -0.069211
     3   Atom       -0.244787     -0.367394      0.529669
     4   Atom       -0.000021      0.003767     -0.010196
     5   Atom        0.004003     -0.000393     -0.016293
     6   Atom        0.016009     -0.032022     -0.088004
     7   Atom        0.001341      0.000383      0.000314
     8   Atom       -0.003279     -0.000335      0.001881
     9   Atom        0.002399     -0.000601     -0.006878
    10   Atom        0.001153      0.000108     -0.000035
    11   Atom        0.001559      0.000220      0.000011
    12   Atom        0.000692      0.000223      0.000759
    13   Atom        0.000365     -0.000024      0.000443
    14   Atom       -0.000911     -0.000401      0.001010
    15   Atom       -0.002239     -0.000668     -0.000009
    16   Atom       -0.001072     -0.000122      0.000662
    17   Atom        0.004919      0.002932      0.011305
    18   Atom       -0.007811     -0.037183      0.064264
    19   Atom       -0.150761     -0.326385      0.278324
    20   Atom        0.010121      0.003518      0.002322
    21   Atom       -0.009295     -0.017146      0.003302
    22   Atom       -0.001556      0.002691     -0.021468
    23   Atom       -0.002724     -0.004048      0.017627
    24   Atom       -0.009706     -0.003310      0.006208
    25   Atom        0.000823     -0.000699      0.025160
    26   Atom        0.001455     -0.000021     -0.000138
    27   Atom        0.000880     -0.000037     -0.000234
    28   Atom        0.001186     -0.000278      0.000018
    29   Atom        0.001199     -0.000727      0.000324
    30   Atom       -0.001280      0.000753      0.001654
    31   Atom       -0.002519     -0.000723      0.001905
    32   Atom        0.001355      0.001534      0.001538
    33   Atom       -0.010549      0.006704     -0.004549
    34   Atom        0.002934      0.054029     -0.034849
    35   Atom       -0.106106     -0.325883      0.174752
    36   Atom        0.019999      0.032137     -0.032718
    37   Atom        0.000790      0.001110     -0.001673
    38   Atom        0.000233      0.004662      0.001737
    39   Atom       -0.003189      0.007644     -0.002602
    40   Atom       -0.000093      0.000893     -0.000923
    41   Atom       -0.002549      0.002355     -0.001218
    42   Atom       -0.005020      0.000757     -0.001243
    43   Atom       -0.000959     -0.000493      0.000151
    44   Atom       -0.001482     -0.001072      0.000735
    45   Atom       -0.000663     -0.000805      0.000355
    46   Atom       -0.000407     -0.000218     -0.000036
    47   Atom       -0.000437      0.000528     -0.000429
    48   Atom       -0.000276      0.000815     -0.000239
    49   Atom       -0.000541      0.000942     -0.000432
    50   Atom       -0.000108      0.000501     -0.000080
    51   Atom        0.003142      0.019013     -0.001150
    52   Atom       -0.014288     -0.021005      0.013669
 --------------------------------------------------------


 ---------------------------------------------------------------------------------
              Anisotropic Spin Dipole Couplings in Principal Axis System
 ---------------------------------------------------------------------------------

       Atom             a.u.   MegaHertz   Gauss  10(-4) cm-1        Axes

              Baa    -0.3902    28.234    10.075     9.418 -0.3008  0.6856 -0.6629
     1 O(17)  Bbb    -0.3837    27.763     9.907     9.261  0.9094  0.4156  0.0172
              Bcc     0.7739   -55.998   -19.981   -18.679 -0.2873  0.5976  0.7485
 
              Baa    -0.1186   -15.908    -5.677    -5.306 -0.3125  0.6190  0.7206
     2 C(13)  Bbb     0.0404     5.426     1.936     1.810 -0.1236  0.7256 -0.6769
              Bcc     0.0781    10.482     3.740     3.497  0.9419  0.3005  0.1502
 
              Baa    -0.4413   -17.021    -6.073    -5.677  0.6783 -0.4177  0.6045
     3 N(14)  Bbb    -0.4303   -16.597    -5.922    -5.536  0.6394  0.7410 -0.2054
              Bcc     0.8716    33.617    11.995    11.214 -0.3621  0.5258  0.7697
 
              Baa    -0.0107    -1.434    -0.512    -0.478 -0.3769  0.4987  0.7805
     4 C(13)  Bbb    -0.0020    -0.264    -0.094    -0.088  0.9154  0.3294  0.2315
              Bcc     0.0126     1.697     0.606     0.566 -0.1417  0.8017 -0.5807
 
              Baa    -0.0157    -7.885    -2.813    -2.630 -0.1701  0.5993  0.7823
     5 F(19)  Bbb    -0.0036    -1.795    -0.640    -0.599  0.9737 -0.0197  0.2268
              Bcc     0.0193     9.679     3.454     3.229  0.1514  0.8003 -0.5802
 
              Baa    -0.0980   -49.219   -17.563   -16.418 -0.6145  0.7654  0.1913
     6 F(19)  Bbb    -0.0893   -44.835   -15.998   -14.955  0.7785  0.5488  0.3045
              Bcc     0.1873    94.055    33.561    31.373 -0.1281 -0.3361  0.9331
 
              Baa    -0.0061    -0.815    -0.291    -0.272  0.9154 -0.0644 -0.3974
     7 C(13)  Bbb    -0.0051    -0.684    -0.244    -0.228  0.3947 -0.0506  0.9174
              Bcc     0.0112     1.499     0.535     0.500  0.0792  0.9966  0.0209
 
              Baa    -0.0073    -3.653    -1.304    -1.219  0.0492 -0.0836  0.9953
     8 F(19)  Bbb    -0.0066    -3.326    -1.187    -1.109  0.9854  0.1665 -0.0347
              Bcc     0.0139     6.979     2.490     2.328 -0.1628  0.9825  0.0906
 
              Baa    -0.0065     0.471     0.168     0.157  0.7351 -0.3772 -0.5633
     9 O(17)  Bbb    -0.0055     0.400     0.143     0.134  0.6643  0.2353  0.7095
              Bcc     0.0120    -0.872    -0.311    -0.291  0.1351  0.8957 -0.4236
 
              Baa    -0.0015    -0.196    -0.070    -0.066  0.7503 -0.2332 -0.6186
    10 C(13)  Bbb    -0.0012    -0.165    -0.059    -0.055  0.5908 -0.1834  0.7857
              Bcc     0.0027     0.362     0.129     0.121  0.2967  0.9550 -0.0002
 
              Baa    -0.0013    -0.640    -0.229    -0.214  0.7102 -0.4699 -0.5243
    11 F(19)  Bbb    -0.0009    -0.445    -0.159    -0.148  0.4089 -0.3309  0.8505
              Bcc     0.0022     1.085     0.387     0.362  0.5731  0.8184  0.0428
 
              Baa    -0.0015    -0.760    -0.271    -0.253 -0.2154 -0.1510  0.9648
    12 F(19)  Bbb    -0.0011    -0.566    -0.202    -0.189  0.9569 -0.2296  0.1777
              Bcc     0.0026     1.326     0.473     0.442  0.1947  0.9615  0.1940
 
              Baa    -0.0013    -0.673    -0.240    -0.225  0.9542 -0.1274  0.2707
    13 F(19)  Bbb    -0.0011    -0.545    -0.194    -0.182 -0.2832 -0.0935  0.9545
              Bcc     0.0024     1.218     0.435     0.406  0.0963  0.9874  0.1253
 
              Baa    -0.0031    -0.414    -0.148    -0.138  0.2254 -0.1000  0.9691
    14 C(13)  Bbb    -0.0018    -0.247    -0.088    -0.082  0.9639  0.1676 -0.2069
              Bcc     0.0049     0.660     0.236     0.220 -0.1417  0.9808  0.1341
 
              Baa    -0.0026    -1.326    -0.473    -0.442  0.6135  0.2436  0.7511
    15 F(19)  Bbb    -0.0014    -0.706    -0.252    -0.235  0.6722  0.3381 -0.6587
              Bcc     0.0040     2.032     0.725     0.678 -0.4145  0.9090  0.0437
 
              Baa    -0.0019    -0.931    -0.332    -0.311 -0.0465 -0.1724  0.9839
    16 F(19)  Bbb    -0.0008    -0.418    -0.149    -0.140  0.9451  0.3113  0.0992
              Bcc     0.0027     1.350     0.482     0.450 -0.3234  0.9345  0.1485
 
              Baa    -0.0090    -4.520    -1.613    -1.508 -0.5363  0.6403 -0.5499
    17 F(19)  Bbb    -0.0070    -3.492    -1.246    -1.165  0.8068  0.1975 -0.5569
              Bcc     0.0160     8.012     2.859     2.673  0.2480  0.7423  0.6225
 
              Baa    -0.0710    -9.525    -3.399    -3.177  0.8723 -0.3406  0.3508
    18 C(13)  Bbb    -0.0503    -6.754    -2.410    -2.253  0.4455  0.8493 -0.2832
              Bcc     0.1213    16.279     5.809     5.430 -0.2014  0.4033  0.8926
 
              Baa    -0.3084   -11.896    -4.245    -3.968  0.8997  0.1947  0.3907
    19 N(14)  Bbb    -0.2988   -11.523    -4.112    -3.844 -0.0117  0.9055 -0.4242
              Bcc     0.6072    23.418     8.356     7.812 -0.4364  0.3770  0.8169
 
              Baa    -0.0094    -1.265    -0.451    -0.422 -0.6324  0.2651  0.7279
    20 C(13)  Bbb    -0.0060    -0.807    -0.288    -0.269  0.5558 -0.4993  0.6647
              Bcc     0.0154     2.072     0.739     0.691  0.5396  0.8249  0.1684
 
              Baa    -0.0221   -11.084    -3.955    -3.697  0.2879 -0.0751  0.9547
    21 F(19)  Bbb    -0.0175    -8.766    -3.128    -2.924  0.1900  0.9816  0.0199
              Bcc     0.0395    19.851     7.083     6.621  0.9386 -0.1757 -0.2969
 
              Baa    -0.0170    -8.526    -3.042    -2.844 -0.0198  0.8591  0.5115
    22 F(19)  Bbb    -0.0152    -7.613    -2.716    -2.539  0.9976  0.0507 -0.0465
              Bcc     0.0321    16.139     5.759     5.383  0.0659 -0.5094  0.8580
 
              Baa    -0.0130    -1.749    -0.624    -0.583  0.4945 -0.5456  0.6766
    23 C(13)  Bbb    -0.0105    -1.415    -0.505    -0.472  0.8581  0.4304 -0.2801
              Bcc     0.0236     3.164     1.129     1.055 -0.1384  0.7191  0.6810
 
              Baa    -0.0105    -5.267    -1.879    -1.757 -0.1397 -0.5094  0.8491
    24 F(19)  Bbb    -0.0049    -2.452    -0.875    -0.818  0.7056  0.5505  0.4463
              Bcc     0.0154     7.719     2.754     2.575  0.6947 -0.6615 -0.2825
 
              Baa    -0.0193     1.398     0.499     0.466  0.9428 -0.2110  0.2582
    25 O(17)  Bbb    -0.0159     1.154     0.412     0.385 -0.3334 -0.5876  0.7373
              Bcc     0.0353    -2.552    -0.911    -0.851  0.0038  0.7812  0.6243
 
              Baa    -0.0012    -0.155    -0.055    -0.052  0.7943 -0.5857 -0.1613
    26 C(13)  Bbb    -0.0008    -0.102    -0.036    -0.034  0.1575 -0.0579  0.9858
              Bcc     0.0019     0.257     0.092     0.086  0.5868  0.8084 -0.0463
 
              Baa    -0.0009    -0.444    -0.158    -0.148 -0.3688  0.2567  0.8934
    27 F(19)  Bbb    -0.0007    -0.365    -0.130    -0.122  0.8357 -0.3293  0.4396
              Bcc     0.0016     0.809     0.289     0.270  0.4070  0.9087 -0.0931
 
              Baa    -0.0010    -0.510    -0.182    -0.170  0.4643 -0.5570  0.6886
    28 F(19)  Bbb    -0.0007    -0.334    -0.119    -0.111 -0.3462  0.6016  0.7199
              Bcc     0.0017     0.844     0.301     0.282  0.8152  0.5726 -0.0865
 
              Baa    -0.0017    -0.846    -0.302    -0.282 -0.6599  0.6764 -0.3270
    29 F(19)  Bbb     0.0005     0.252     0.090     0.084  0.2027  0.5794  0.7894
              Bcc     0.0012     0.593     0.212     0.198  0.7235  0.4547 -0.5195
 
              Baa    -0.0030    -0.397    -0.142    -0.133 -0.4583 -0.3582  0.8134
    30 C(13)  Bbb    -0.0003    -0.040    -0.014    -0.013  0.8514  0.0857  0.5174
              Bcc     0.0033     0.437     0.156     0.146 -0.2550  0.9297  0.2657
 
              Baa    -0.0026    -1.288    -0.460    -0.430 -0.3200 -0.4742  0.8202
    31 F(19)  Bbb    -0.0019    -0.966    -0.345    -0.322  0.8332  0.2712  0.4819
              Bcc     0.0045     2.254     0.804     0.752 -0.4510  0.8376  0.3083
 
              Baa    -0.0026    -1.292    -0.461    -0.431  0.8113 -0.0448 -0.5829
    32 F(19)  Bbb    -0.0009    -0.434    -0.155    -0.145  0.4517 -0.5851  0.6735
              Bcc     0.0034     1.726     0.616     0.576  0.3712  0.8097  0.4545
 
              Baa    -0.0097    -4.858    -1.733    -1.620  0.7142  0.6534 -0.2512
    33 F(19)  Bbb    -0.0058    -2.897    -1.034    -0.966 -0.1183  0.4663  0.8767
              Bcc     0.0154     7.755     2.767     2.587  0.6899 -0.5964  0.4103
 
              Baa    -0.0854   -11.465    -4.091    -3.824 -0.4780  0.2590  0.8393
    34 C(13)  Bbb     0.0274     3.683     1.314     1.229  0.6818  0.7118  0.1686
              Bcc     0.0580     7.782     2.777     2.596 -0.5538  0.6529 -0.5168
 
              Baa    -0.2710    19.608     6.997     6.541  0.7296  0.6466  0.2229
    35 O(17)  Bbb    -0.2645    19.141     6.830     6.385 -0.4791  0.7158 -0.5081
              Bcc     0.5355   -38.749   -13.827   -12.925 -0.4880  0.2640  0.8320
 
              Baa    -0.0602    -2.323    -0.829    -0.775 -0.4701  0.4993  0.7278
    36 N(14)  Bbb     0.0281     1.082     0.386     0.361  0.4938  0.8323 -0.2520
              Bcc     0.0322     1.241     0.443     0.414  0.7315 -0.2409  0.6378
 
              Baa    -0.0025    -0.331    -0.118    -0.111 -0.5909  0.4653  0.6591
    37 C(13)  Bbb     0.0004     0.052     0.019     0.017  0.8068  0.3378  0.4848
              Bcc     0.0021     0.279     0.100     0.093  0.0029  0.8181 -0.5750
 
              Baa    -0.0043    -2.142    -0.764    -0.714  0.4380  0.6658 -0.6040
    38 F(19)  Bbb    -0.0020    -1.023    -0.365    -0.341 -0.5435  0.7313  0.4120
              Bcc     0.0063     3.165     1.129     1.056  0.7160  0.1479  0.6822
 
              Baa    -0.0074    -3.717    -1.326    -1.240  0.3245  0.9459 -0.0016
    39 F(19)  Bbb    -0.0044    -2.211    -0.789    -0.737  0.6959 -0.2399 -0.6769
              Bcc     0.0118     5.928     2.115     1.977  0.6406 -0.2185  0.7361
 
              Baa    -0.0017    -0.224    -0.080    -0.075 -0.2857  0.4437  0.8494
    40 C(13)  Bbb     0.0003     0.036     0.013     0.012  0.5189  0.8168 -0.2521
              Bcc     0.0014     0.188     0.067     0.063  0.8057 -0.3687  0.4637
 
              Baa    -0.0045    -2.250    -0.803    -0.751 -0.0999  0.4186  0.9026
    41 F(19)  Bbb    -0.0029    -1.480    -0.528    -0.494  0.3387  0.8673 -0.3648
              Bcc     0.0074     3.730     1.331     1.244  0.9356 -0.2693  0.2284
 
              Baa    -0.0045     0.329     0.117     0.110  0.0191  0.1703  0.9852
    42 O(17)  Bbb    -0.0029     0.212     0.076     0.071  0.7798  0.6142 -0.1213
              Bcc     0.0075    -0.541    -0.193    -0.180 -0.6258  0.7706 -0.1211
 
              Baa    -0.0011    -0.143    -0.051    -0.048  0.2634  0.1407  0.9544
    43 C(13)  Bbb    -0.0007    -0.098    -0.035    -0.033  0.3768  0.8957 -0.2360
              Bcc     0.0018     0.241     0.086     0.080  0.8881 -0.4218 -0.1829
 
              Baa    -0.0012    -0.627    -0.224    -0.209  0.3332  0.8246 -0.4571
    44 F(19)  Bbb    -0.0012    -0.618    -0.221    -0.206  0.5488  0.2247  0.8052
              Bcc     0.0025     1.246     0.445     0.416  0.7667 -0.5191 -0.3777
 
              Baa    -0.0009    -0.431    -0.154    -0.144  0.3606 -0.1806  0.9151
    45 F(19)  Bbb    -0.0007    -0.337    -0.120    -0.112  0.4078  0.9129  0.0194
              Bcc     0.0015     0.768     0.274     0.256  0.8388 -0.3662 -0.4029
 
              Baa    -0.0008    -0.391    -0.139    -0.130  0.1788  0.4055  0.8965
    46 F(19)  Bbb    -0.0006    -0.286    -0.102    -0.095  0.1486  0.8896 -0.4320
              Bcc     0.0013     0.677     0.241     0.226  0.9726 -0.2104 -0.0988
 
              Baa    -0.0009    -0.118    -0.042    -0.039 -0.1522  0.4703  0.8693
    47 C(13)  Bbb    -0.0003    -0.041    -0.015    -0.014  0.4880  0.8006 -0.3477
              Bcc     0.0012     0.160     0.057     0.053  0.8595 -0.3713  0.3513
 
              Baa    -0.0009    -0.471    -0.168    -0.157 -0.2179  0.5823  0.7832
    48 F(19)  Bbb    -0.0007    -0.343    -0.122    -0.114  0.3261  0.7998 -0.5039
              Bcc     0.0016     0.814     0.290     0.271  0.9199 -0.1456  0.3642
 
              Baa    -0.0009    -0.435    -0.155    -0.145 -0.4159  0.3146  0.8532
    49 F(19)  Bbb    -0.0006    -0.318    -0.113    -0.106  0.4503  0.8864 -0.1074
              Bcc     0.0015     0.752     0.269     0.251  0.7901 -0.3396  0.5104
 
              Baa    -0.0005    -0.245    -0.088    -0.082 -0.4083  0.1668  0.8975
    50 F(19)  Bbb    -0.0003    -0.167    -0.060    -0.056  0.1745  0.9793 -0.1026
              Bcc     0.0008     0.413     0.147     0.138  0.8960 -0.1147  0.4290
 
              Baa    -0.0156    -8.312    -2.966    -2.773  0.6130 -0.5183 -0.5963
    51 H(1)   Bbb    -0.0088    -4.677    -1.669    -1.560  0.3374  0.8542 -0.3956
              Bcc     0.0243    12.989     4.635     4.333  0.7144  0.0413  0.6985
 
              Baa    -0.0185    -9.895    -3.531    -3.301  0.6104 -0.1453  0.7787
    52 H(1)   Bbb    -0.0152    -8.124    -2.899    -2.710  0.4387  0.8805 -0.1796
              Bcc     0.0338    18.020     6.430     6.011  0.6595 -0.4513 -0.6012
 

 ---------------------------------------------------------------------------------

 No NMR shielding tensors so no spin-rotation constants.
 Leave Link  601 at Sun Mar  3 17:29:30 2024, MaxMem=  5368709120 cpu:         8.4
 (Enter /home/k0335/k033513/app/g09/l9999.exe)
 1\1\GINC-C24U18N4\SP\UCAM-B3LYP\6-31G(d,p)\C15H2F27N3O5(1+,2)\K033513\
 03-Mar-2024\0\\#p CAM-B3LYP/6-31G(d,p) SCRF=(PCM,Solvent=Generic,Read)
  NoSymm out=wfn\\Title A150513911_p1\\1,2\O,0,1.408412,1.784144,-0.012
 789\C,0,0.440768,1.060951,0.191879\N,0,-0.725108,1.246875,-0.495715\C,
 0,-0.876454,2.338728,-1.455532\F,0,-2.192036,2.352493,-1.841659\F,0,-0
 .207629,1.965114,-2.585483\C,0,-0.494953,3.806254,-1.090049\F,0,-1.014
 787,4.608139,-2.080247\O,0,0.913128,4.005463,-1.174201\C,0,1.335836,5.
 211771,-0.605742\F,0,2.61343,5.439467,-0.959404\F,0,1.264512,5.122968,
 0.733117\F,0,0.577029,6.233139,-1.035513\C,0,-1.223812,4.115343,0.2218
 78\F,0,-2.540509,3.801638,0.154349\F,0,-1.157113,5.422206,0.557723\F,0
 ,-0.720958,3.411849,1.263088\C,0,-1.878484,0.453658,-0.202894\N,0,-1.5
 21983,-0.846922,0.264597\C,0,-2.51166,-1.906435,0.13814\F,0,-3.719474,
 -1.272365,-0.020116\F,0,-2.6447,-2.578008,1.306517\C,0,-2.356439,-2.87
 3241,-1.061274\F,0,-2.154156,-2.070708,-2.173946\O,0,-3.540884,-3.5976
 ,-1.431626\C,0,-4.136376,-4.324584,-0.387713\F,0,-3.222395,-5.036177,0
 .279731\F,0,-5.040799,-5.167686,-0.917103\F,0,-4.766847,-3.487156,0.44
 9032\C,0,-1.10729,-3.743862,-0.917081\F,0,-1.062626,-4.671274,-1.90906
 9\F,0,-1.032198,-4.412532,0.246323\F,0,0.022063,-3.003289,-1.042902\C,
 0,-0.385635,-1.043455,0.991549\O,0,-0.13414,-2.143201,1.469291\N,0,0.4
 54921,0.035221,1.107939\C,0,1.682723,-0.16757,1.868483\F,0,1.358961,-0
 .765597,3.051978\F,0,2.155404,1.053974,2.255471\C,0,2.803099,-0.967532
 ,1.150203\F,0,2.399317,-2.260426,0.982677\O,0,2.991855,-0.457783,-0.17
 4243\C,0,4.136662,-0.965702,-0.80617\F,0,4.247104,-2.289931,-0.622214\
 F,0,4.041149,-0.717569,-2.125488\F,0,5.222967,-0.338841,-0.326995\C,0,
 4.005795,-0.920411,2.102965\F,0,4.518791,0.326439,2.206615\F,0,3.70495
 6,-1.338042,3.351873\F,0,5.013502,-1.71745,1.67148\H,0,-2.462983,0.327
 399,-1.119896\H,0,-2.479955,0.962115,0.558163\\Version=ES64L-G09RevD.0
 1\HF=-3807.4809748\S2=0.766081\S2-1=0.\S2A=0.750185\RMSD=7.908e-09\Dip
 ole=-3.1454479,1.044106,-0.2114044\Quadrupole=5.7195217,2.0797039,-7.7
 992256,-0.1585538,-0.1090151,0.909162\PG=C01 [X(C15H2F27N3O5)]\\@

 Writing a WFN file to "A150513911/A150513911_p1.wfn"


 CLIMB THE MOUNTAINS AND GET THEIR GOOD TIDINGS.
 NATURE'S PEACE WILL FLOW INTO YOU AS SUNSHINE FLOWS INTO TREES.
 THE WINDS WILL BLOW THEIR OWN FRESHNESS INTO YOU, 
 AND CARES WILL DROP OFF LIKE AUTUMN LEAVES.

                                         -- JOHN MUIR
 Job cpu time:       0 days  1 hours 50 minutes 50.8 seconds.
 File lengths (MBytes):  RWF=    840 Int=      0 D2E=      0 Chk=     29 Scr=      1
 Normal termination of Gaussian 09 at Sun Mar  3 17:29:31 2024.
