 Entering Gaussian System, Link 0=g09
 Initial command:
 /home/k0335/k033513/app/g09/l1.exe "/home/k0335/k033513/app/g09/scratch/Gau-2967032.inp" -scrdir="/home/k0335/k033513/app/g09/scratch/"
 Default is to use a total of  36 processors:
                               36 via shared-memory
                                1 via Linda
 Entering Link 1 = /home/k0335/k033513/app/g09/l1.exe PID=   2967033.
  
 Copyright (c) 1988,1990,1992,1993,1995,1998,2003,2009,2013,
            Gaussian, Inc.  All Rights Reserved.
  
 This is part of the Gaussian(R) 09 program.  It is based on
 the Gaussian(R) 03 system (copyright 2003, Gaussian, Inc.),
 the Gaussian(R) 98 system (copyright 1998, Gaussian, Inc.),
 the Gaussian(R) 94 system (copyright 1995, Gaussian, Inc.),
 the Gaussian 92(TM) system (copyright 1992, Gaussian, Inc.),
 the Gaussian 90(TM) system (copyright 1990, Gaussian, Inc.),
 the Gaussian 88(TM) system (copyright 1988, Gaussian, Inc.),
 the Gaussian 86(TM) system (copyright 1986, Carnegie Mellon
 University), and the Gaussian 82(TM) system (copyright 1983,
 Carnegie Mellon University). Gaussian is a federally registered
 trademark of Gaussian, Inc.
  
 This software contains proprietary and confidential information,
 including trade secrets, belonging to Gaussian, Inc.
  
 This software is provided under written license and may be
 used, copied, transmitted, or stored only in accord with that
 written license.
  
 The following legend is applicable only to US Government
 contracts under FAR:
  
                    RESTRICTED RIGHTS LEGEND
  
 Use, reproduction and disclosure by the US Government is
 subject to restrictions as set forth in subparagraphs (a)
 and (c) of the Commercial Computer Software - Restricted
 Rights clause in FAR 52.227-19.
  
 Gaussian, Inc.
 340 Quinnipiac St., Bldg. 40, Wallingford CT 06492
  
  
 ---------------------------------------------------------------
 Warning -- This program may not be used in any manner that
 competes with the business of Gaussian, Inc. or will provide
 assistance to any competitor of Gaussian, Inc.  The licensee
 of this program is prohibited from giving any competitor of
 Gaussian, Inc. access to this program.  By using this program,
 the user acknowledges that Gaussian, Inc. is engaged in the
 business of creating and licensing software in the field of
 computational chemistry and represents and warrants to the
 licensee that it is not a competitor of Gaussian, Inc. and that
 it will not use this program in any manner prohibited above.
 ---------------------------------------------------------------
  

 Cite this work as:
 Gaussian 09, Revision D.01,
 M. J. Frisch, G. W. Trucks, H. B. Schlegel, G. E. Scuseria, 
 M. A. Robb, J. R. Cheeseman, G. Scalmani, V. Barone, B. Mennucci, 
 G. A. Petersson, H. Nakatsuji, M. Caricato, X. Li, H. P. Hratchian, 
 A. F. Izmaylov, J. Bloino, G. Zheng, J. L. Sonnenberg, M. Hada, 
 M. Ehara, K. Toyota, R. Fukuda, J. Hasegawa, M. Ishida, T. Nakajima, 
 Y. Honda, O. Kitao, H. Nakai, T. Vreven, J. A. Montgomery, Jr., 
 J. E. Peralta, F. Ogliaro, M. Bearpark, J. J. Heyd, E. Brothers, 
 K. N. Kudin, V. N. Staroverov, T. Keith, R. Kobayashi, J. Normand, 
 K. Raghavachari, A. Rendell, J. C. Burant, S. S. Iyengar, J. Tomasi, 
 M. Cossi, N. Rega, J. M. Millam, M. Klene, J. E. Knox, J. B. Cross, 
 V. Bakken, C. Adamo, J. Jaramillo, R. Gomperts, R. E. Stratmann, 
 O. Yazyev, A. J. Austin, R. Cammi, C. Pomelli, J. W. Ochterski, 
 R. L. Martin, K. Morokuma, V. G. Zakrzewski, G. A. Voth, 
 P. Salvador, J. J. Dannenberg, S. Dapprich, A. D. Daniels, 
 O. Farkas, J. B. Foresman, J. V. Ortiz, J. Cioslowski, 
 and D. J. Fox, Gaussian, Inc., Wallingford CT, 2013.
 
 ******************************************
 Gaussian 09:  ES64L-G09RevD.01 24-Apr-2013
                 3-Feb-2025 
 ******************************************
 %nprocshared=24
 Will use up to   24 processors via shared memory.
 %mem=40GB
 %rwf=cytop/DIPEDA2/DIPEDA2_neu.rwf
 %nosave
 %chk=cytop/DIPEDA2/DIPEDA2_neu.chk
 ----------------------------------------------------------------------
 #p CAM-B3LYP/6-31G(d,p) SCRF=(PCM,Solvent=Generic,Read) NoSymm out=wfn
 ----------------------------------------------------------------------
 1/38=1,40=2/1;
 2/12=2,15=1,17=6,18=5,40=1/2;
 3/5=1,6=6,7=101,11=2,16=1,25=1,30=1,70=2203,72=-2,74=-40/1,2,3;
 4//1;
 5/5=2,38=5/2;
 6/7=2,8=2,9=2,10=2,28=1/1;
 99/5=1,6=100,9=1/99;
 Leave Link    1 at Mon Feb  3 21:58:33 2025, MaxMem=  5368709120 cpu:         1.3
 (Enter /home/k0335/k033513/app/g09/l101.exe)
 -----------------
 Title DIPEDA2_neu
 -----------------
 Symbolic Z-matrix:
 Charge =  0 Multiplicity = 1
 F                     4.08497   2.84058  -2.57308 
 C                     3.64018   1.59563  -2.29316 
 F                     3.04416   1.1173   -3.40318 
 C                     4.74817   0.69738  -1.78155 
 F                     4.40551  -0.60635  -1.87328 
 F                     5.91704   0.84196  -2.43291 
 C                     4.79737   1.14748  -0.35905 
 F                     5.34657   2.41171  -0.35165 
 C                     5.61001   0.26399   0.5447 
 F                     5.45242   0.6926    1.83086 
 C                     7.0829    0.29821   0.14064 
 O                     7.43775  -0.71111  -0.6864 
 O                     7.91456   1.13209   0.46321 
 F                     5.12141  -1.0068    0.52131 
 C                     3.30689   1.29743  -0.03738 
 F                     3.18778   2.32411   0.85461 
 C                     2.56459   0.07209   0.52989 
 F                     3.15246  -0.33379   1.69126 
 C                     1.06636   0.34049   0.78329 
 N                     0.33592  -0.8158    1.0296 
 C                    -1.08962  -0.78456   1.31059 
 C                    -1.93729  -0.54365   0.04853 
 N                    -3.3856   -0.6563    0.36043 
 C                    -3.97293  -1.80234  -0.37399 
 C                    -4.33011  -1.5233   -1.83732 
 C                    -5.13332  -2.46755   0.37656 
 C                    -4.06923   0.66154   0.26977 
 C                    -5.57078   0.63537   0.59114 
 C                    -3.44342   1.6837    1.24327 
 O                     0.54741   1.4524    0.80312 
 F                     2.70099  -0.98095  -0.32878 
 O                     2.66688   1.73308  -1.26325 
 H                     8.39366  -0.57086  -0.86522 
 H                     0.7991   -1.71666   0.9655 
 H                    -1.34063  -1.75293   1.75775 
 H                    -1.27314  -0.00762   2.05998 
 H                    -1.62466  -1.27533  -0.70925 
 H                    -1.68598   0.41949  -0.41205 
 H                    -3.21241  -2.59695  -0.38923 
 H                    -4.62382  -2.45213  -2.33902 
 H                    -3.47291  -1.11551  -2.38345 
 H                    -5.16149  -0.82115  -1.93995 
 H                    -6.0784   -1.93071   0.28314 
 H                    -4.89994  -2.57932   1.44113 
 H                    -5.3052   -3.47434  -0.02261 
 H                    -3.95658   1.05951  -0.74731 
 H                    -5.7666    0.14637   1.55146 
 H                    -6.14912   0.13717  -0.18938 
 H                    -5.97434   1.65282   0.65512 
 H                    -3.98485   2.63623   1.20873 
 H                    -3.47894   1.31853   2.27598 
 H                    -2.40374   1.91676   0.99746 
 
 NAtoms=     52 NQM=       52 NQMF=       0 NMMI=      0 NMMIF=      0
                NMic=       0 NMicF=      0.
                    Isotopes and Nuclear Properties:
 (Nuclear quadrupole moments (NQMom) in fm**2, nuclear magnetic moments (NMagM)
  in nuclear magnetons)

  Atom         1           2           3           4           5           6           7           8           9          10
 IAtWgt=          19          12          19          12          19          19          12          19          12          19
 AtmWgt=  18.9984033  12.0000000  18.9984033  12.0000000  18.9984033  18.9984033  12.0000000  18.9984033  12.0000000  18.9984033
 NucSpn=           1           0           1           0           1           1           0           1           0           1
 AtZEff=   0.0000000   0.0000000   0.0000000   0.0000000   0.0000000   0.0000000   0.0000000   0.0000000   0.0000000   0.0000000
 NQMom=    0.0000000   0.0000000   0.0000000   0.0000000   0.0000000   0.0000000   0.0000000   0.0000000   0.0000000   0.0000000
 NMagM=    2.6288670   0.0000000   2.6288670   0.0000000   2.6288670   2.6288670   0.0000000   2.6288670   0.0000000   2.6288670
 AtZNuc=   9.0000000   6.0000000   9.0000000   6.0000000   9.0000000   9.0000000   6.0000000   9.0000000   6.0000000   9.0000000

  Atom        11          12          13          14          15          16          17          18          19          20
 IAtWgt=          12          16          16          19          12          19          12          19          12          14
 AtmWgt=  12.0000000  15.9949146  15.9949146  18.9984033  12.0000000  18.9984033  12.0000000  18.9984033  12.0000000  14.0030740
 NucSpn=           0           0           0           1           0           1           0           1           0           2
 AtZEff=   0.0000000   0.0000000   0.0000000   0.0000000   0.0000000   0.0000000   0.0000000   0.0000000   0.0000000   0.0000000
 NQMom=    0.0000000   0.0000000   0.0000000   0.0000000   0.0000000   0.0000000   0.0000000   0.0000000   0.0000000   2.0440000
 NMagM=    0.0000000   0.0000000   0.0000000   2.6288670   0.0000000   2.6288670   0.0000000   2.6288670   0.0000000   0.4037610
 AtZNuc=   6.0000000   8.0000000   8.0000000   9.0000000   6.0000000   9.0000000   6.0000000   9.0000000   6.0000000   7.0000000

  Atom        21          22          23          24          25          26          27          28          29          30
 IAtWgt=          12          12          14          12          12          12          12          12          12          16
 AtmWgt=  12.0000000  12.0000000  14.0030740  12.0000000  12.0000000  12.0000000  12.0000000  12.0000000  12.0000000  15.9949146
 NucSpn=           0           0           2           0           0           0           0           0           0           0
 AtZEff=   0.0000000   0.0000000   0.0000000   0.0000000   0.0000000   0.0000000   0.0000000   0.0000000   0.0000000   0.0000000
 NQMom=    0.0000000   0.0000000   2.0440000   0.0000000   0.0000000   0.0000000   0.0000000   0.0000000   0.0000000   0.0000000
 NMagM=    0.0000000   0.0000000   0.4037610   0.0000000   0.0000000   0.0000000   0.0000000   0.0000000   0.0000000   0.0000000
 AtZNuc=   6.0000000   6.0000000   7.0000000   6.0000000   6.0000000   6.0000000   6.0000000   6.0000000   6.0000000   8.0000000

  Atom        31          32          33          34          35          36          37          38          39          40
 IAtWgt=          19          16           1           1           1           1           1           1           1           1
 AtmWgt=  18.9984033  15.9949146   1.0078250   1.0078250   1.0078250   1.0078250   1.0078250   1.0078250   1.0078250   1.0078250
 NucSpn=           1           0           1           1           1           1           1           1           1           1
 AtZEff=   0.0000000   0.0000000   0.0000000   0.0000000   0.0000000   0.0000000   0.0000000   0.0000000   0.0000000   0.0000000
 NQMom=    0.0000000   0.0000000   0.0000000   0.0000000   0.0000000   0.0000000   0.0000000   0.0000000   0.0000000   0.0000000
 NMagM=    2.6288670   0.0000000   2.7928460   2.7928460   2.7928460   2.7928460   2.7928460   2.7928460   2.7928460   2.7928460
 AtZNuc=   9.0000000   8.0000000   1.0000000   1.0000000   1.0000000   1.0000000   1.0000000   1.0000000   1.0000000   1.0000000

  Atom        41          42          43          44          45          46          47          48          49          50
 IAtWgt=           1           1           1           1           1           1           1           1           1           1
 AtmWgt=   1.0078250   1.0078250   1.0078250   1.0078250   1.0078250   1.0078250   1.0078250   1.0078250   1.0078250   1.0078250
 NucSpn=           1           1           1           1           1           1           1           1           1           1
 AtZEff=   0.0000000   0.0000000   0.0000000   0.0000000   0.0000000   0.0000000   0.0000000   0.0000000   0.0000000   0.0000000
 NQMom=    0.0000000   0.0000000   0.0000000   0.0000000   0.0000000   0.0000000   0.0000000   0.0000000   0.0000000   0.0000000
 NMagM=    2.7928460   2.7928460   2.7928460   2.7928460   2.7928460   2.7928460   2.7928460   2.7928460   2.7928460   2.7928460
 AtZNuc=   1.0000000   1.0000000   1.0000000   1.0000000   1.0000000   1.0000000   1.0000000   1.0000000   1.0000000   1.0000000

  Atom        51          52
 IAtWgt=           1           1
 AtmWgt=   1.0078250   1.0078250
 NucSpn=           1           1
 AtZEff=   0.0000000   0.0000000
 NQMom=    0.0000000   0.0000000
 NMagM=    2.7928460   2.7928460
 AtZNuc=   1.0000000   1.0000000
 Leave Link  101 at Mon Feb  3 21:58:33 2025, MaxMem=  5368709120 cpu:         1.0
 (Enter /home/k0335/k033513/app/g09/l202.exe)
 Symmetry turned off by external request.
 Stoichiometry    C16H20F10N2O4
 Framework group  C1[X(C16H20F10N2O4)]
 Deg. of freedom   150
 Full point group                 C1      NOp   1
                          Input orientation:                          
 ---------------------------------------------------------------------
 Center     Atomic      Atomic             Coordinates (Angstroms)
 Number     Number       Type             X           Y           Z
 ---------------------------------------------------------------------
      1          9           0        4.084966    2.840584   -2.573076
      2          6           0        3.640175    1.595627   -2.293155
      3          9           0        3.044157    1.117296   -3.403184
      4          6           0        4.748172    0.697375   -1.781553
      5          9           0        4.405507   -0.606349   -1.873281
      6          9           0        5.917041    0.841959   -2.432914
      7          6           0        4.797371    1.147483   -0.359047
      8          9           0        5.346573    2.411709   -0.351651
      9          6           0        5.610012    0.263991    0.544695
     10          9           0        5.452425    0.692601    1.830863
     11          6           0        7.082899    0.298207    0.140635
     12          8           0        7.437753   -0.711109   -0.686401
     13          8           0        7.914555    1.132092    0.463209
     14          9           0        5.121406   -1.006800    0.521305
     15          6           0        3.306894    1.297428   -0.037378
     16          9           0        3.187780    2.324113    0.854606
     17          6           0        2.564586    0.072091    0.529893
     18          9           0        3.152463   -0.333793    1.691258
     19          6           0        1.066356    0.340489    0.783289
     20          7           0        0.335920   -0.815804    1.029596
     21          6           0       -1.089623   -0.784563    1.310593
     22          6           0       -1.937286   -0.543648    0.048527
     23          7           0       -3.385602   -0.656296    0.360425
     24          6           0       -3.972932   -1.802343   -0.373993
     25          6           0       -4.330105   -1.523297   -1.837323
     26          6           0       -5.133322   -2.467554    0.376558
     27          6           0       -4.069225    0.661536    0.269771
     28          6           0       -5.570779    0.635365    0.591139
     29          6           0       -3.443423    1.683703    1.243272
     30          8           0        0.547410    1.452400    0.803124
     31          9           0        2.700991   -0.980952   -0.328777
     32          8           0        2.666876    1.733077   -1.263253
     33          1           0        8.393661   -0.570857   -0.865219
     34          1           0        0.799095   -1.716655    0.965503
     35          1           0       -1.340629   -1.752925    1.757747
     36          1           0       -1.273137   -0.007617    2.059976
     37          1           0       -1.624664   -1.275332   -0.709253
     38          1           0       -1.685976    0.419491   -0.412049
     39          1           0       -3.212409   -2.596953   -0.389234
     40          1           0       -4.623822   -2.452128   -2.339021
     41          1           0       -3.472911   -1.115507   -2.383446
     42          1           0       -5.161487   -0.821145   -1.939954
     43          1           0       -6.078399   -1.930713    0.283136
     44          1           0       -4.899944   -2.579316    1.441130
     45          1           0       -5.305200   -3.474344   -0.022609
     46          1           0       -3.956582    1.059512   -0.747306
     47          1           0       -5.766604    0.146369    1.551462
     48          1           0       -6.149115    0.137166   -0.189383
     49          1           0       -5.974344    1.652821    0.655115
     50          1           0       -3.984852    2.636227    1.208733
     51          1           0       -3.478938    1.318528    2.275985
     52          1           0       -2.403735    1.916762    0.997464
 ---------------------------------------------------------------------
 Rotational constants (GHZ):      0.3100388      0.0608501      0.0590006
 Leave Link  202 at Mon Feb  3 21:58:33 2025, MaxMem=  5368709120 cpu:         0.0
 (Enter /home/k0335/k033513/app/g09/l301.exe)
 Standard basis: 6-31G(d,p) (6D, 7F)
 Ernie: Thresh=  0.10000D-02 Tol=  0.10000D-05 Strict=F.
   580 basis functions,  1036 primitive gaussians,   580 cartesian basis functions
   126 alpha electrons      126 beta electrons
       nuclear repulsion energy      4009.9383543099 Hartrees.
 IExCor=20419 DFT=T Ex+Corr=CAM-B3LYP ExCW=0 ScaHFX=  1.000000
 ScaDFX=  1.000000  1.000000  1.000000  0.810000 ScalE2=  1.000000  1.000000
 IRadAn=      0 IRanWt=     -1 IRanGd=            0 ICorTp=0 IEmpDi=  4
  HFx wShort=  0.000000 wLong=  0.330000 cFull=  0.190000 cShort=  0.000000 cLong=  0.460000
  DFx wShort=  0.000000 wLong=  0.330000 cFull=  0.190000 cShort=  0.000000 cLong=  0.460000
 NAtoms=   52 NActive=   52 NUniq=   52 SFac= 1.00D+00 NAtFMM=   60 NAOKFM=F Big=F
 Integral buffers will be    131072 words long.
 Raffenetti 2 integral format.
 Two-electron integral symmetry is turned off.
 Using the following non-standard input for PCM:
 eps=2.05
 --- end of non-standard input.
 ------------------------------------------------------------------------------
 Polarizable Continuum Model (PCM)
 =================================
 Model                : PCM (using non-symmetric T matrix).
 Atomic radii         : UFF (Universal Force Field).
 Polarization charges : Total charges.
 Charge compensation  : None.
 Solution method      : On-the-fly selection.
 Cavity type          : Scaled VdW (van der Waals Surface) (Alpha=1.100).
 Cavity algorithm     : GePol (No added spheres)
                        Default sphere list used, NSphG=   52.
                        Lebedev-Laikov grids with approx.  5.0 points / Ang**2.
                        Smoothing algorithm: Karplus/York (Gamma=1.0000).
                        Polarization charges: spherical gaussians, with
                                              point-specific exponents (IZeta= 3).
                        Self-potential: point-specific (ISelfS= 7).
                        Self-field    : sphere-specific E.n sum rule (ISelfD= 2).
 Solvent              : Generic,
                        Eps                           =   2.050000
                        Eps(infinity)                 =   0.000000
                        RSolv                         =   0.000000 Ang.
                        Molar volume                  =   0.000000 cm**3/mol
                        Thermal expansion coefficient =   0.000000 K**-1
                        Absolute temperature          = 298.150000 K
                        Numeral density               =   0.000000 Ang**-3
                        Hydrogen bond acidity         =   0.000000
                        Hydrogen bond basicity        =   0.000000
                        Surface tension at interface  =   0.000000 (cal/mol)*Ang**-2
                        Carbon aromaticity            =   0.000000
                        Electronegative halogenicity  =   0.000000
 ------------------------------------------------------------------------------
 GePol: Number of generator spheres                  =      52
 GePol: Total number of spheres                      =      52
 GePol: Number of exposed spheres                    =      51 ( 98.08%)
 GePol: Number of points                             =    3592
 GePol: Average weight of points                     =       0.13
 GePol: Minimum weight of points                     =   0.29D-11
 GePol: Maximum weight of points                     =    0.20577
 GePol: Number of points with low weight             =     191
 GePol: Fraction of low-weight points (<1% of avg)   =       5.32%
 GePol: Cavity surface area                          =    465.757 Ang**2
 GePol: Cavity volume                                =    535.552 Ang**3
 Leave Link  301 at Mon Feb  3 21:58:34 2025, MaxMem=  5368709120 cpu:         0.9
 (Enter /home/k0335/k033513/app/g09/l302.exe)
 NPDir=0 NMtPBC=     1 NCelOv=     1 NCel=       1 NClECP=     1 NCelD=      1
         NCelK=      1 NCelE2=     1 NClLst=     1 CellRange=     0.0.
 One-electron integrals computed using PRISM.
 NBasis=   580 RedAO= T EigKep=  8.52D-04  NBF=   580
 NBsUse=   580 1.00D-06 EigRej= -1.00D+00 NBFU=   580
 Precomputing XC quadrature grid using
 IXCGrd= 4 IRadAn=           0 IRanWt=          -1 IRanGd=           0 AccXCQ= 0.00D+00.
 Generated NRdTot=       0 NPtTot=           0 NUsed=           0 NTot=          32
 NSgBfM=   555   558   558   558   558 MxSgAt=    52 MxSgA2=    52.
 Leave Link  302 at Mon Feb  3 21:58:34 2025, MaxMem=  5368709120 cpu:        12.1
 (Enter /home/k0335/k033513/app/g09/l303.exe)
 DipDrv:  MaxL=1.
 Leave Link  303 at Mon Feb  3 21:58:34 2025, MaxMem=  5368709120 cpu:         0.9
 (Enter /home/k0335/k033513/app/g09/l401.exe)
 ExpMin= 1.61D-01 ExpMax= 7.00D+03 ExpMxC= 1.05D+03 IAcc=1 IRadAn=         1 AccDes= 0.00D+00
 Harris functional with IExCor=20419 and IRadAn=       1 diagonalized for initial guess.
 HarFok:  IExCor=20419 AccDes= 0.00D+00 IRadAn=         1 IDoV= 1 UseB2=F ITyADJ=14
 ICtDFT=  3500011 ScaDFX=  1.000000  1.000000  1.000000  1.000000
 FoFCou: FMM=F IPFlag=           0 FMFlag=      100000 FMFlg1=           0
         NFxFlg=           0 DoJE=T BraDBF=F KetDBF=T FulRan=T
         wScrn=  0.000000 ICntrl=     500 IOpCl=  0 I1Cent=   200000004 NGrid=           0
         NMat0=    1 NMatS0=      1 NMatT0=    0 NMatD0=    1 NMtDS0=    0 NMtDT0=    0
 Symmetry not used in FoFCou.
 Harris En= -1963.93373845560    
 JPrj=0 DoOrth=F DoCkMO=F.
 Leave Link  401 at Mon Feb  3 21:58:35 2025, MaxMem=  5368709120 cpu:        13.7
 (Enter /home/k0335/k033513/app/g09/l502.exe)
 Closed shell SCF:
 Using DIIS extrapolation, IDIIS=  1040.
 Two-electron integral symmetry not used.
 IVT=     1045254 IEndB=     1045254 NGot=  5368709120 MDV=  5368017487
 LenX=  5368017487 LenY=  5367680507
 Requested convergence on RMS density matrix=1.00D-08 within 128 cycles.
 Requested convergence on MAX density matrix=1.00D-06.
 Requested convergence on             energy=1.00D-06.
 No special actions if energy rises.
 Fock matrices will be formed incrementally for  20 cycles.

 Cycle   1  Pass 1  IDiag  1:
 FoFJK:  IHMeth= 1 ICntrl=       0 DoSepK=T KAlg= 0 I1Cent=   0 FoldK=F
 IRaf=         1 NMat=   1 IRICut=       1 DoRegI=T DoRafI=F ISym2E= 0.
 FoFCou: FMM=F IPFlag=           0 FMFlag=      100000 FMFlg1=           0
         NFxFlg=           0 DoJE=T BraDBF=F KetDBF=F FulRan=T
         wScrn=  0.000000 ICntrl=     500 IOpCl=  0 I1Cent=           0 NGrid=           0
         NMat0=    1 NMatS0=      1 NMatT0=    0 NMatD0=    1 NMtDS0=    0 NMtDT0=    0
 Symmetry not used in FoFCou.
 Inv3:  Mode=1 IEnd=    38707392.
 Iteration    1 A*A^-1 deviation from unit magnitude is 5.33D-15 for   3558.
 Iteration    1 A*A^-1 deviation from orthogonality  is 3.35D-15 for   3564   1989.
 Iteration    1 A^-1*A deviation from unit magnitude is 5.33D-15 for   3581.
 Iteration    1 A^-1*A deviation from orthogonality  is 2.67D-15 for   2842   1378.
 E= -2029.21492212862    
 DIIS: error= 4.72D-02 at cycle   1 NSaved=   1.
 NSaved= 1 IEnMin= 1 EnMin= -2029.21492212862     IErMin= 1 ErrMin= 4.72D-02
 ErrMax= 4.72D-02  0.00D+00 EMaxC= 1.00D-01 BMatC= 1.66D+00 BMatP= 1.66D+00
 IDIUse=3 WtCom= 5.28D-01 WtEn= 4.72D-01
 Coeff-Com:  0.100D+01
 Coeff-En:   0.100D+01
 Coeff:      0.100D+01
 Gap=     0.460 Goal=   None    Shift=    0.000
 GapD=    0.460 DampG=2.000 DampE=0.500 DampFc=1.0000 IDamp=-1.
 RMSDP=2.60D-03 MaxDP=1.02D-01              OVMax= 1.25D-01

 Cycle   2  Pass 1  IDiag  1:
 RMSU=  2.60D-03    CP:  9.94D-01
 E= -2029.45554005769     Delta-E=       -0.240617929076 Rises=F Damp=F
 DIIS: error= 1.62D-02 at cycle   2 NSaved=   2.
 NSaved= 2 IEnMin= 2 EnMin= -2029.45554005769     IErMin= 2 ErrMin= 1.62D-02
 ErrMax= 1.62D-02  0.00D+00 EMaxC= 1.00D-01 BMatC= 6.14D-01 BMatP= 1.66D+00
 IDIUse=3 WtCom= 8.38D-01 WtEn= 1.62D-01
 Coeff-Com:  0.355D+00 0.645D+00
 Coeff-En:   0.345D+00 0.655D+00
 Coeff:      0.353D+00 0.647D+00
 Gap=     0.273 Goal=   None    Shift=    0.000
 RMSDP=1.22D-03 MaxDP=6.53D-02 DE=-2.41D-01 OVMax= 8.55D-02

 Cycle   3  Pass 1  IDiag  1:
 RMSU=  7.54D-04    CP:  1.00D+00  6.32D-01
 E= -2029.76120346953     Delta-E=       -0.305663411836 Rises=F Damp=F
 DIIS: error= 6.84D-03 at cycle   3 NSaved=   3.
 NSaved= 3 IEnMin= 3 EnMin= -2029.76120346953     IErMin= 3 ErrMin= 6.84D-03
 ErrMax= 6.84D-03  0.00D+00 EMaxC= 1.00D-01 BMatC= 1.10D-01 BMatP= 6.14D-01
 IDIUse=3 WtCom= 9.32D-01 WtEn= 6.84D-02
 Coeff-Com:  0.688D-01 0.313D+00 0.618D+00
 Coeff-En:   0.000D+00 0.109D+00 0.891D+00
 Coeff:      0.641D-01 0.299D+00 0.636D+00
 Gap=     0.281 Goal=   None    Shift=    0.000
 RMSDP=5.51D-04 MaxDP=3.93D-02 DE=-3.06D-01 OVMax= 6.48D-02

 Cycle   4  Pass 1  IDiag  1:
 RMSU=  3.03D-04    CP:  9.95D-01  7.22D-01  4.81D-01
 E= -2029.82607799011     Delta-E=       -0.064874520586 Rises=F Damp=F
 DIIS: error= 3.17D-03 at cycle   4 NSaved=   4.
 NSaved= 4 IEnMin= 4 EnMin= -2029.82607799011     IErMin= 4 ErrMin= 3.17D-03
 ErrMax= 3.17D-03  0.00D+00 EMaxC= 1.00D-01 BMatC= 1.11D-02 BMatP= 1.10D-01
 IDIUse=3 WtCom= 9.68D-01 WtEn= 3.17D-02
 Coeff-Com:  0.643D-02 0.980D-01 0.328D+00 0.568D+00
 Coeff-En:   0.000D+00 0.000D+00 0.374D-01 0.963D+00
 Coeff:      0.623D-02 0.949D-01 0.318D+00 0.581D+00
 Gap=     0.267 Goal=   None    Shift=    0.000
 RMSDP=1.67D-04 MaxDP=1.50D-02 DE=-6.49D-02 OVMax= 2.36D-02

 Cycle   5  Pass 1  IDiag  1:
 RMSU=  7.87D-05    CP:  9.95D-01  7.22D-01  6.18D-01  6.53D-01
 E= -2029.83384244136     Delta-E=       -0.007764451250 Rises=F Damp=F
 DIIS: error= 8.95D-04 at cycle   5 NSaved=   5.
 NSaved= 5 IEnMin= 5 EnMin= -2029.83384244136     IErMin= 5 ErrMin= 8.95D-04
 ErrMax= 8.95D-04  0.00D+00 EMaxC= 1.00D-01 BMatC= 6.49D-04 BMatP= 1.11D-02
 IDIUse=3 WtCom= 9.91D-01 WtEn= 8.95D-03
 Coeff-Com:  0.543D-03 0.395D-01 0.153D+00 0.325D+00 0.483D+00
 Coeff-En:   0.000D+00 0.000D+00 0.000D+00 0.000D+00 0.100D+01
 Coeff:      0.538D-03 0.391D-01 0.152D+00 0.322D+00 0.487D+00
 Gap=     0.265 Goal=   None    Shift=    0.000
 RMSDP=3.72D-05 MaxDP=3.49D-03 DE=-7.76D-03 OVMax= 6.63D-03

 Cycle   6  Pass 1  IDiag  1:
 RMSU=  2.22D-05    CP:  9.96D-01  7.23D-01  6.17D-01  6.66D-01  6.31D-01
 E= -2029.83431108938     Delta-E=       -0.000468648012 Rises=F Damp=F
 DIIS: error= 1.43D-04 at cycle   6 NSaved=   6.
 NSaved= 6 IEnMin= 6 EnMin= -2029.83431108938     IErMin= 6 ErrMin= 1.43D-04
 ErrMax= 1.43D-04  0.00D+00 EMaxC= 1.00D-01 BMatC= 2.64D-05 BMatP= 6.49D-04
 IDIUse=3 WtCom= 9.99D-01 WtEn= 1.43D-03
 Coeff-Com: -0.568D-03 0.392D-02 0.218D-01 0.565D-01 0.192D+00 0.726D+00
 Coeff-En:   0.000D+00 0.000D+00 0.000D+00 0.000D+00 0.000D+00 0.100D+01
 Coeff:     -0.567D-03 0.391D-02 0.218D-01 0.564D-01 0.192D+00 0.726D+00
 Gap=     0.266 Goal=   None    Shift=    0.000
 RMSDP=1.17D-05 MaxDP=6.69D-04 DE=-4.69D-04 OVMax= 1.08D-03

 Cycle   7  Pass 1  IDiag  1:
 RMSU=  7.52D-06    CP:  9.96D-01  7.24D-01  6.20D-01  6.82D-01  7.17D-01
                    CP:  8.99D-01
 E= -2029.83433103980     Delta-E=       -0.000019950423 Rises=F Damp=F
 DIIS: error= 3.91D-05 at cycle   7 NSaved=   7.
 NSaved= 7 IEnMin= 7 EnMin= -2029.83433103980     IErMin= 7 ErrMin= 3.91D-05
 ErrMax= 3.91D-05  0.00D+00 EMaxC= 1.00D-01 BMatC= 3.91D-06 BMatP= 2.64D-05
 IDIUse=1 WtCom= 1.00D+00 WtEn= 0.00D+00
 Coeff-Com: -0.237D-03-0.376D-02-0.112D-01-0.195D-01 0.263D-01 0.328D+00
 Coeff-Com:  0.681D+00
 Coeff:     -0.237D-03-0.376D-02-0.112D-01-0.195D-01 0.263D-01 0.328D+00
 Coeff:      0.681D+00
 Gap=     0.266 Goal=   None    Shift=    0.000
 RMSDP=3.72D-06 MaxDP=2.21D-04 DE=-2.00D-05 OVMax= 4.70D-04

 Cycle   8  Pass 1  IDiag  1:
 RMSU=  2.28D-06    CP:  9.96D-01  7.24D-01  6.21D-01  6.82D-01  7.34D-01
                    CP:  9.99D-01  8.54D-01
 E= -2029.83433435610     Delta-E=       -0.000003316301 Rises=F Damp=F
 DIIS: error= 1.32D-05 at cycle   8 NSaved=   8.
 NSaved= 8 IEnMin= 8 EnMin= -2029.83433435610     IErMin= 8 ErrMin= 1.32D-05
 ErrMax= 1.32D-05  0.00D+00 EMaxC= 1.00D-01 BMatC= 2.72D-07 BMatP= 3.91D-06
 IDIUse=1 WtCom= 1.00D+00 WtEn= 0.00D+00
 Coeff-Com: -0.519D-04-0.181D-02-0.599D-02-0.123D-01-0.608D-03 0.788D-01
 Coeff-Com:  0.276D+00 0.666D+00
 Coeff:     -0.519D-04-0.181D-02-0.599D-02-0.123D-01-0.608D-03 0.788D-01
 Coeff:      0.276D+00 0.666D+00
 Gap=     0.266 Goal=   None    Shift=    0.000
 RMSDP=1.12D-06 MaxDP=6.15D-05 DE=-3.32D-06 OVMax= 1.27D-04

 Cycle   9  Pass 1  IDiag  1:
 RMSU=  8.81D-07    CP:  9.96D-01  7.24D-01  6.21D-01  6.82D-01  7.39D-01
                    CP:  1.01D+00  9.07D-01  9.71D-01
 E= -2029.83433459344     Delta-E=       -0.000000237341 Rises=F Damp=F
 DIIS: error= 5.52D-06 at cycle   9 NSaved=   9.
 NSaved= 9 IEnMin= 9 EnMin= -2029.83433459344     IErMin= 9 ErrMin= 5.52D-06
 ErrMax= 5.52D-06  0.00D+00 EMaxC= 1.00D-01 BMatC= 3.51D-08 BMatP= 2.72D-07
 IDIUse=1 WtCom= 1.00D+00 WtEn= 0.00D+00
 Coeff-Com:  0.128D-04-0.108D-03-0.485D-03-0.180D-02-0.349D-02-0.274D-01
 Coeff-Com: -0.525D-02 0.239D+00 0.799D+00
 Coeff:      0.128D-04-0.108D-03-0.485D-03-0.180D-02-0.349D-02-0.274D-01
 Coeff:     -0.525D-02 0.239D+00 0.799D+00
 Gap=     0.266 Goal=   None    Shift=    0.000
 RMSDP=6.15D-07 MaxDP=5.43D-05 DE=-2.37D-07 OVMax= 7.87D-05

 Cycle  10  Pass 1  IDiag  1:
 RMSU=  3.09D-07    CP:  9.96D-01  7.24D-01  6.21D-01  6.83D-01  7.43D-01
                    CP:  1.02D+00  9.38D-01  1.10D+00  9.56D-01
 E= -2029.83433463584     Delta-E=       -0.000000042396 Rises=F Damp=F
 DIIS: error= 2.25D-06 at cycle  10 NSaved=  10.
 NSaved=10 IEnMin=10 EnMin= -2029.83433463584     IErMin=10 ErrMin= 2.25D-06
 ErrMax= 2.25D-06  0.00D+00 EMaxC= 1.00D-01 BMatC= 3.87D-09 BMatP= 3.51D-08
 IDIUse=1 WtCom= 1.00D+00 WtEn= 0.00D+00
 Coeff-Com:  0.107D-04 0.149D-03 0.441D-03 0.552D-03-0.767D-03-0.190D-01
 Coeff-Com: -0.299D-01 0.131D-01 0.288D+00 0.748D+00
 Coeff:      0.107D-04 0.149D-03 0.441D-03 0.552D-03-0.767D-03-0.190D-01
 Coeff:     -0.299D-01 0.131D-01 0.288D+00 0.748D+00
 Gap=     0.266 Goal=   None    Shift=    0.000
 RMSDP=1.83D-07 MaxDP=1.66D-05 DE=-4.24D-08 OVMax= 3.55D-05

 Cycle  11  Pass 1  IDiag  1:
 RMSU=  1.10D-07    CP:  9.96D-01  7.24D-01  6.21D-01  6.83D-01  7.44D-01
                    CP:  1.02D+00  9.46D-01  1.13D+00  1.07D+00  9.65D-01
 E= -2029.83433463931     Delta-E=       -0.000000003471 Rises=F Damp=F
 DIIS: error= 1.70D-06 at cycle  11 NSaved=  11.
 NSaved=11 IEnMin=11 EnMin= -2029.83433463931     IErMin=11 ErrMin= 1.70D-06
 ErrMax= 1.70D-06  0.00D+00 EMaxC= 1.00D-01 BMatC= 1.43D-09 BMatP= 3.87D-09
 IDIUse=1 WtCom= 1.00D+00 WtEn= 0.00D+00
 Coeff-Com:  0.480D-05 0.109D-03 0.346D-03 0.600D-03 0.215D-03-0.751D-02
 Coeff-Com: -0.169D-01-0.267D-01 0.572D-01 0.449D+00 0.544D+00
 Coeff:      0.480D-05 0.109D-03 0.346D-03 0.600D-03 0.215D-03-0.751D-02
 Coeff:     -0.169D-01-0.267D-01 0.572D-01 0.449D+00 0.544D+00
 Gap=     0.266 Goal=   None    Shift=    0.000
 RMSDP=7.32D-08 MaxDP=6.97D-06 DE=-3.47D-09 OVMax= 1.33D-05

 Cycle  12  Pass 1  IDiag  1:
 RMSU=  4.25D-08    CP:  9.96D-01  7.24D-01  6.21D-01  6.83D-01  7.44D-01
                    CP:  1.02D+00  9.48D-01  1.14D+00  1.09D+00  1.07D+00
                    CP:  7.64D-01
 E= -2029.83433464044     Delta-E=       -0.000000001131 Rises=F Damp=F
 DIIS: error= 2.74D-07 at cycle  12 NSaved=  12.
 NSaved=12 IEnMin=12 EnMin= -2029.83433464044     IErMin=12 ErrMin= 2.74D-07
 ErrMax= 2.74D-07  0.00D+00 EMaxC= 1.00D-01 BMatC= 5.70D-11 BMatP= 1.43D-09
 IDIUse=1 WtCom= 1.00D+00 WtEn= 0.00D+00
 Coeff-Com: -0.141D-06 0.130D-04 0.455D-04 0.103D-03 0.286D-03 0.398D-03
 Coeff-Com: -0.660D-03-0.957D-02-0.229D-01 0.282D-01 0.150D+00 0.854D+00
 Coeff:     -0.141D-06 0.130D-04 0.455D-04 0.103D-03 0.286D-03 0.398D-03
 Coeff:     -0.660D-03-0.957D-02-0.229D-01 0.282D-01 0.150D+00 0.854D+00
 Gap=     0.266 Goal=   None    Shift=    0.000
 RMSDP=2.28D-08 MaxDP=1.59D-06 DE=-1.13D-09 OVMax= 4.18D-06

 Cycle  13  Pass 1  IDiag  1:
 RMSU=  1.20D-08    CP:  9.96D-01  7.24D-01  6.21D-01  6.83D-01  7.44D-01
                    CP:  1.02D+00  9.49D-01  1.14D+00  1.10D+00  1.11D+00
                    CP:  8.61D-01  9.76D-01
 E= -2029.83433464056     Delta-E=       -0.000000000126 Rises=F Damp=F
 DIIS: error= 8.51D-08 at cycle  13 NSaved=  13.
 NSaved=13 IEnMin=13 EnMin= -2029.83433464056     IErMin=13 ErrMin= 8.51D-08
 ErrMax= 8.51D-08  0.00D+00 EMaxC= 1.00D-01 BMatC= 1.07D-11 BMatP= 5.70D-11
 IDIUse=1 WtCom= 1.00D+00 WtEn= 0.00D+00
 Coeff-Com: -0.493D-06-0.397D-05-0.106D-04-0.983D-05 0.121D-03 0.820D-03
 Coeff-Com:  0.124D-02-0.200D-02-0.158D-01-0.290D-01 0.142D-01 0.390D+00
 Coeff-Com:  0.641D+00
 Coeff:     -0.493D-06-0.397D-05-0.106D-04-0.983D-05 0.121D-03 0.820D-03
 Coeff:      0.124D-02-0.200D-02-0.158D-01-0.290D-01 0.142D-01 0.390D+00
 Coeff:      0.641D+00
 Gap=     0.266 Goal=   None    Shift=    0.000
 RMSDP=7.70D-09 MaxDP=4.39D-07 DE=-1.26D-10 OVMax= 6.68D-07

 Error on total polarization charges =  0.00420
 SCF Done:  E(RCAM-B3LYP) =  -2029.83433464     A.U. after   13 cycles
            NFock= 13  Conv=0.77D-08     -V/T= 2.0077
 KE= 2.014267972385D+03 PE=-1.280061789852D+04 EE= 4.746577237189D+03
 Leave Link  502 at Mon Feb  3 21:59:27 2025, MaxMem=  5368709120 cpu:      1150.9
 (Enter /home/k0335/k033513/app/g09/l601.exe)
 Copying SCF densities to generalized density rwf, IOpCl= 0 IROHF=0.

 **********************************************************************

            Population analysis using the SCF density.

 **********************************************************************

 Alpha  occ. eigenvalues --  -24.83673 -24.83363 -24.82736 -24.82649 -24.82465
 Alpha  occ. eigenvalues --  -24.82004 -24.82001 -24.81996 -24.81694 -24.81118
 Alpha  occ. eigenvalues --  -19.31371 -19.30249 -19.25525 -19.21986 -14.45201
 Alpha  occ. eigenvalues --  -14.39241 -10.52360 -10.49084 -10.48886 -10.47627
 Alpha  occ. eigenvalues --  -10.46836 -10.44434 -10.42511 -10.39947 -10.29762
 Alpha  occ. eigenvalues --  -10.28588 -10.28510 -10.28035 -10.24430 -10.24252
 Alpha  occ. eigenvalues --  -10.23921 -10.23829  -1.40545  -1.38489  -1.37917
 Alpha  occ. eigenvalues --   -1.37096  -1.35330  -1.33230  -1.32704  -1.31609
 Alpha  occ. eigenvalues --   -1.31151  -1.30783  -1.22198  -1.19527  -1.14000
 Alpha  occ. eigenvalues --   -1.12362  -1.01691  -0.99164  -0.97405  -0.90226
 Alpha  occ. eigenvalues --   -0.88356  -0.86280  -0.85457  -0.83081  -0.79740
 Alpha  occ. eigenvalues --   -0.77518  -0.76253  -0.76089  -0.75317  -0.73513
 Alpha  occ. eigenvalues --   -0.72238  -0.70634  -0.69912  -0.69083  -0.68456
 Alpha  occ. eigenvalues --   -0.67534  -0.67328  -0.66613  -0.66066  -0.65678
 Alpha  occ. eigenvalues --   -0.65429  -0.64910  -0.63472  -0.62487  -0.62072
 Alpha  occ. eigenvalues --   -0.61410  -0.58535  -0.57616  -0.56417  -0.56249
 Alpha  occ. eigenvalues --   -0.55844  -0.55442  -0.55329  -0.54565  -0.54202
 Alpha  occ. eigenvalues --   -0.53715  -0.53618  -0.53505  -0.53424  -0.52825
 Alpha  occ. eigenvalues --   -0.52674  -0.52136  -0.52077  -0.52019  -0.51519
 Alpha  occ. eigenvalues --   -0.50971  -0.50508  -0.49928  -0.49688  -0.49335
 Alpha  occ. eigenvalues --   -0.49186  -0.49113  -0.48569  -0.48326  -0.48181
 Alpha  occ. eigenvalues --   -0.47102  -0.46173  -0.45673  -0.45261  -0.45068
 Alpha  occ. eigenvalues --   -0.44671  -0.43999  -0.43203  -0.42909  -0.42470
 Alpha  occ. eigenvalues --   -0.42234  -0.41196  -0.40905  -0.39760  -0.39495
 Alpha  occ. eigenvalues --   -0.37998  -0.37740  -0.37169  -0.34478  -0.32913
 Alpha  occ. eigenvalues --   -0.26691
 Alpha virt. eigenvalues --   -0.00132   0.02521   0.04184   0.09174   0.11179
 Alpha virt. eigenvalues --    0.12150   0.12593   0.12785   0.13242   0.14661
 Alpha virt. eigenvalues --    0.15615   0.16144   0.16847   0.17850   0.18709
 Alpha virt. eigenvalues --    0.19051   0.19659   0.19935   0.20746   0.21369
 Alpha virt. eigenvalues --    0.22186   0.22666   0.22966   0.23554   0.24316
 Alpha virt. eigenvalues --    0.24420   0.24497   0.24658   0.25675   0.26009
 Alpha virt. eigenvalues --    0.26501   0.26761   0.26942   0.27341   0.27984
 Alpha virt. eigenvalues --    0.28386   0.28883   0.29502   0.29665   0.30647
 Alpha virt. eigenvalues --    0.31099   0.31768   0.32650   0.33044   0.33461
 Alpha virt. eigenvalues --    0.34239   0.35304   0.36122   0.37147   0.37919
 Alpha virt. eigenvalues --    0.38598   0.40093   0.41253   0.43019   0.48069
 Alpha virt. eigenvalues --    0.50610   0.51619   0.52673   0.53416   0.54683
 Alpha virt. eigenvalues --    0.55434   0.55737   0.56243   0.57797   0.58200
 Alpha virt. eigenvalues --    0.58640   0.58935   0.60062   0.60370   0.60678
 Alpha virt. eigenvalues --    0.60780   0.61430   0.62092   0.63583   0.64301
 Alpha virt. eigenvalues --    0.65415   0.65954   0.67365   0.68004   0.68884
 Alpha virt. eigenvalues --    0.69583   0.69619   0.70989   0.71727   0.72675
 Alpha virt. eigenvalues --    0.73085   0.73572   0.74257   0.75063   0.75858
 Alpha virt. eigenvalues --    0.76076   0.77368   0.78167   0.78329   0.79512
 Alpha virt. eigenvalues --    0.79831   0.82116   0.82447   0.84052   0.84313
 Alpha virt. eigenvalues --    0.85702   0.86866   0.87674   0.88011   0.88825
 Alpha virt. eigenvalues --    0.89915   0.90571   0.91077   0.91755   0.92270
 Alpha virt. eigenvalues --    0.93018   0.93488   0.93786   0.94853   0.95221
 Alpha virt. eigenvalues --    0.96143   0.96810   0.97350   0.97453   0.97834
 Alpha virt. eigenvalues --    0.98138   0.98755   0.99295   0.99919   1.00752
 Alpha virt. eigenvalues --    1.01375   1.02734   1.03068   1.03603   1.04162
 Alpha virt. eigenvalues --    1.05047   1.05783   1.06311   1.07375   1.08239
 Alpha virt. eigenvalues --    1.08462   1.09794   1.09929   1.10562   1.11520
 Alpha virt. eigenvalues --    1.12560   1.13635   1.14066   1.14798   1.14955
 Alpha virt. eigenvalues --    1.15934   1.16295   1.16532   1.18596   1.20334
 Alpha virt. eigenvalues --    1.21575   1.22457   1.24271   1.25210   1.26441
 Alpha virt. eigenvalues --    1.27291   1.27729   1.28300   1.30126   1.31193
 Alpha virt. eigenvalues --    1.32277   1.33167   1.33823   1.34259   1.34415
 Alpha virt. eigenvalues --    1.35757   1.35905   1.36977   1.37553   1.38191
 Alpha virt. eigenvalues --    1.38512   1.39328   1.40219   1.41306   1.41877
 Alpha virt. eigenvalues --    1.42203   1.42740   1.43191   1.44085   1.45410
 Alpha virt. eigenvalues --    1.46504   1.47259   1.47328   1.47603   1.48281
 Alpha virt. eigenvalues --    1.48925   1.49775   1.51487   1.52392   1.52901
 Alpha virt. eigenvalues --    1.53791   1.54777   1.56081   1.57926   1.58532
 Alpha virt. eigenvalues --    1.59903   1.60222   1.61013   1.61340   1.62031
 Alpha virt. eigenvalues --    1.62963   1.64011   1.64402   1.66167   1.66641
 Alpha virt. eigenvalues --    1.67004   1.67659   1.68481   1.68743   1.70281
 Alpha virt. eigenvalues --    1.71766   1.72077   1.73465   1.73702   1.75125
 Alpha virt. eigenvalues --    1.75714   1.77260   1.77501   1.78295   1.78792
 Alpha virt. eigenvalues --    1.79082   1.79696   1.81716   1.81762   1.82523
 Alpha virt. eigenvalues --    1.83779   1.84333   1.84937   1.85501   1.86192
 Alpha virt. eigenvalues --    1.87421   1.88014   1.88095   1.88866   1.88987
 Alpha virt. eigenvalues --    1.89784   1.90389   1.90508   1.91271   1.93062
 Alpha virt. eigenvalues --    1.93418   1.93842   1.94793   1.94885   1.95441
 Alpha virt. eigenvalues --    1.95967   1.96349   1.97197   1.97334   1.99745
 Alpha virt. eigenvalues --    2.00023   2.00574   2.00909   2.01519   2.02049
 Alpha virt. eigenvalues --    2.02663   2.03368   2.03928   2.04636   2.05795
 Alpha virt. eigenvalues --    2.06590   2.06979   2.07307   2.07644   2.08069
 Alpha virt. eigenvalues --    2.08418   2.09152   2.09894   2.10295   2.11042
 Alpha virt. eigenvalues --    2.11047   2.11911   2.12321   2.12760   2.13152
 Alpha virt. eigenvalues --    2.13847   2.14190   2.15030   2.15487   2.16281
 Alpha virt. eigenvalues --    2.16673   2.17854   2.18207   2.18224   2.19712
 Alpha virt. eigenvalues --    2.20119   2.20411   2.20690   2.21023   2.21608
 Alpha virt. eigenvalues --    2.22860   2.23309   2.23467   2.24289   2.26034
 Alpha virt. eigenvalues --    2.26156   2.27559   2.28263   2.29221   2.30065
 Alpha virt. eigenvalues --    2.30735   2.31187   2.32943   2.34367   2.35041
 Alpha virt. eigenvalues --    2.35774   2.37324   2.38152   2.38528   2.38983
 Alpha virt. eigenvalues --    2.40357   2.40821   2.41361   2.41844   2.42234
 Alpha virt. eigenvalues --    2.42940   2.44118   2.44205   2.45265   2.46259
 Alpha virt. eigenvalues --    2.46626   2.47127   2.47897   2.48898   2.49472
 Alpha virt. eigenvalues --    2.50060   2.51772   2.51846   2.53834   2.54974
 Alpha virt. eigenvalues --    2.56207   2.57186   2.58564   2.59052   2.61089
 Alpha virt. eigenvalues --    2.62560   2.63203   2.64751   2.65261   2.66175
 Alpha virt. eigenvalues --    2.67168   2.68350   2.70190   2.71286   2.72662
 Alpha virt. eigenvalues --    2.73164   2.73620   2.74436   2.75899   2.76683
 Alpha virt. eigenvalues --    2.77839   2.78065   2.78651   2.79205   2.80236
 Alpha virt. eigenvalues --    2.80537   2.81500   2.82033   2.83352   2.83927
 Alpha virt. eigenvalues --    2.84410   2.85081   2.85682   2.85808   2.86368
 Alpha virt. eigenvalues --    2.87267   2.88546   2.91088   2.92431   2.93866
 Alpha virt. eigenvalues --    2.94386   2.94733   2.95821   2.96359   2.97132
 Alpha virt. eigenvalues --    2.97627   2.97650   2.98871   3.00106   3.00728
 Alpha virt. eigenvalues --    3.02005   3.02250   3.03209   3.03820   3.05584
 Alpha virt. eigenvalues --    3.05925   3.09859   3.10411   3.11767   3.12140
 Alpha virt. eigenvalues --    3.14157   3.14261   3.17757   3.17939   3.19365
 Alpha virt. eigenvalues --    3.21179   3.22624   3.26587   3.26704   3.27817
 Alpha virt. eigenvalues --    3.28151   3.30882   3.31790   3.32680   3.34023
 Alpha virt. eigenvalues --    3.35645   3.36762   3.41610   3.43210   3.44952
 Alpha virt. eigenvalues --    3.48665   3.49576   3.51218   3.52513   3.54418
 Alpha virt. eigenvalues --    3.54879   3.57507   3.57720   3.57966   3.61709
 Alpha virt. eigenvalues --    3.62582   3.64916   4.01272   4.08900   4.13468
 Alpha virt. eigenvalues --    4.23859   4.27143   4.27940   4.30643   4.42872
 Alpha virt. eigenvalues --    4.45678   4.46002   4.47829   4.48775   4.56303
 Alpha virt. eigenvalues --    4.57442   4.62746   4.63736   4.73432   4.75804
 Alpha virt. eigenvalues --    4.78168   4.79803   4.81114   4.92263   4.97119
 Alpha virt. eigenvalues --    5.04656   5.22121   5.33225   5.39797   5.70327
 Alpha virt. eigenvalues --    5.88775   6.26111   6.35051   7.14875
          Condensed to atoms (all electrons):
 Mulliken charges:
               1
     1  F   -0.247427
     2  C    0.757899
     3  F   -0.249522
     4  C    0.549628
     5  F   -0.250083
     6  F   -0.257316
     7  C    0.136524
     8  F   -0.287403
     9  C    0.617272
    10  F   -0.274044
    11  C    0.517487
    12  O   -0.471135
    13  O   -0.437599
    14  F   -0.270918
    15  C    0.510257
    16  F   -0.268954
    17  C    0.540859
    18  F   -0.273475
    19  C    0.585332
    20  N   -0.558561
    21  C   -0.032814
    22  C   -0.049032
    23  N   -0.440048
    24  C    0.064504
    25  C   -0.319390
    26  C   -0.308898
    27  C    0.088162
    28  C   -0.325289
    29  C   -0.329712
    30  O   -0.495915
    31  F   -0.282854
    32  O   -0.503360
    33  H    0.361797
    34  H    0.288354
    35  H    0.117526
    36  H    0.138904
    37  H    0.094022
    38  H    0.121949
    39  H    0.093797
    40  H    0.103204
    41  H    0.104887
    42  H    0.108205
    43  H    0.102832
    44  H    0.106382
    45  H    0.094379
    46  H    0.078140
    47  H    0.113516
    48  H    0.102486
    49  H    0.104421
    50  H    0.101843
    51  H    0.107324
    52  H    0.121859
 Sum of Mulliken charges =   0.00000
 Mulliken charges with hydrogens summed into heavy atoms:
               1
     1  F   -0.247427
     2  C    0.757899
     3  F   -0.249522
     4  C    0.549628
     5  F   -0.250083
     6  F   -0.257316
     7  C    0.136524
     8  F   -0.287403
     9  C    0.617272
    10  F   -0.274044
    11  C    0.517487
    12  O   -0.109338
    13  O   -0.437599
    14  F   -0.270918
    15  C    0.510257
    16  F   -0.268954
    17  C    0.540859
    18  F   -0.273475
    19  C    0.585332
    20  N   -0.270206
    21  C    0.223616
    22  C    0.166939
    23  N   -0.440048
    24  C    0.158301
    25  C   -0.003095
    26  C   -0.005305
    27  C    0.166301
    28  C   -0.004865
    29  C    0.001314
    30  O   -0.495915
    31  F   -0.282854
    32  O   -0.503360
 Electronic spatial extent (au):  <R**2>=          21401.5657
 Charge=              0.0000 electrons
 Dipole moment (field-independent basis, Debye):
    X=             -0.4585    Y=             -4.9452    Z=             -1.3322  Tot=              5.1420
 Quadrupole moment (field-independent basis, Debye-Ang):
   XX=           -164.1516   YY=           -185.8653   ZZ=           -182.3163
   XY=            -15.1803   XZ=             -7.6826   YZ=             -2.5940
 Traceless Quadrupole moment (field-independent basis, Debye-Ang):
   XX=             13.2928   YY=             -8.4209   ZZ=             -4.8719
   XY=            -15.1803   XZ=             -7.6826   YZ=             -2.5940
 Octapole moment (field-independent basis, Debye-Ang**2):
  XXX=           -669.4557  YYY=           -180.1407  ZZZ=             92.0590  XYY=           -314.8555
  XXY=           -153.0191  XXZ=            -66.0217  XZZ=           -275.1390  YZZ=            -56.4104
  YYZ=             30.8547  XYZ=            -13.2252
 Hexadecapole moment (field-independent basis, Debye-Ang**3):
 XXXX=         -19044.0225 YYYY=          -2085.4882 ZZZZ=          -2016.6132 XXXY=          -2371.9210
 XXXZ=              1.0411 YYYX=          -1424.4175 YYYZ=            159.3713 ZZZX=            715.9774
 ZZZY=            161.9590 XXYY=          -4025.8897 XXZZ=          -3820.7918 YYZZ=           -688.2106
 XXYZ=             20.5629 YYXZ=            255.2811 ZZXY=           -474.4037
 N-N= 4.009938354310D+03 E-N=-1.280061788555D+04  KE= 2.014267972385D+03
 No NMR shielding tensors so no spin-rotation constants.
 Leave Link  601 at Mon Feb  3 21:59:27 2025, MaxMem=  5368709120 cpu:         4.0
 (Enter /home/k0335/k033513/app/g09/l9999.exe)
 1\1\GINC-C15U05N1\SP\RCAM-B3LYP\6-31G(d,p)\C16H20F10N2O4\K033513\03-Fe
 b-2025\0\\#p CAM-B3LYP/6-31G(d,p) SCRF=(PCM,Solvent=Generic,Read) NoSy
 mm out=wfn\\Title DIPEDA2_neu\\0,1\F,0,4.084966,2.840584,-2.573076\C,0
 ,3.640175,1.595627,-2.293155\F,0,3.044157,1.117296,-3.403184\C,0,4.748
 172,0.697375,-1.781553\F,0,4.405507,-0.606349,-1.873281\F,0,5.917041,0
 .841959,-2.432914\C,0,4.797371,1.147483,-0.359047\F,0,5.346573,2.41170
 9,-0.351651\C,0,5.610012,0.263991,0.544695\F,0,5.452425,0.692601,1.830
 863\C,0,7.082899,0.298207,0.140635\O,0,7.437753,-0.711109,-0.686401\O,
 0,7.914555,1.132092,0.463209\F,0,5.121406,-1.0068,0.521305\C,0,3.30689
 4,1.297428,-0.037378\F,0,3.18778,2.324113,0.854606\C,0,2.564586,0.0720
 91,0.529893\F,0,3.152463,-0.333793,1.691258\C,0,1.066356,0.340489,0.78
 3289\N,0,0.33592,-0.815804,1.029596\C,0,-1.089623,-0.784563,1.310593\C
 ,0,-1.937286,-0.543648,0.048527\N,0,-3.385602,-0.656296,0.360425\C,0,-
 3.972932,-1.802343,-0.373993\C,0,-4.330105,-1.523297,-1.837323\C,0,-5.
 133322,-2.467554,0.376558\C,0,-4.069225,0.661536,0.269771\C,0,-5.57077
 9,0.635365,0.591139\C,0,-3.443423,1.683703,1.243272\O,0,0.54741,1.4524
 ,0.803124\F,0,2.700991,-0.980952,-0.328777\O,0,2.666876,1.733077,-1.26
 3253\H,0,8.393661,-0.570857,-0.865219\H,0,0.799095,-1.716655,0.965503\
 H,0,-1.340629,-1.752925,1.757747\H,0,-1.273137,-0.007617,2.059976\H,0,
 -1.624664,-1.275332,-0.709253\H,0,-1.685976,0.419491,-0.412049\H,0,-3.
 212409,-2.596953,-0.389234\H,0,-4.623822,-2.452128,-2.339021\H,0,-3.47
 2911,-1.115507,-2.383446\H,0,-5.161487,-0.821145,-1.939954\H,0,-6.0783
 99,-1.930713,0.283136\H,0,-4.899944,-2.579316,1.44113\H,0,-5.3052,-3.4
 74344,-0.022609\H,0,-3.956582,1.059512,-0.747306\H,0,-5.766604,0.14636
 9,1.551462\H,0,-6.149115,0.137166,-0.189383\H,0,-5.974344,1.652821,0.6
 55115\H,0,-3.984852,2.636227,1.208733\H,0,-3.478938,1.318528,2.275985\
 H,0,-2.403735,1.916762,0.997464\\Version=ES64L-G09RevD.01\HF=-2029.834
 3346\RMSD=7.702e-09\Dipole=-0.1803816,-1.9455784,-0.5241467\Quadrupole
 =9.8828912,-6.2607636,-3.6221276,-11.2861796,-5.7118602,-1.9285734\PG=
 C01 [X(C16H20F10N2O4)]\\@

 Writing a WFN file to "cytop/DIPEDA2/DIPEDA2_neu.wfn"


 IN THE LONG RUN, DIGGING FOR TRUTH HAS ALWAYS PROVED NOT ONLY 
 MORE INTERESTING BUT MORE PROFITABLE THAN DIGGING FOR GOLD.

                             -- GEORGE R. HARRISON
 Job cpu time:       0 days  0 hours 19 minutes 50.4 seconds.
 File lengths (MBytes):  RWF=    393 Int=      0 D2E=      0 Chk=     14 Scr=      1
 Normal termination of Gaussian 09 at Mon Feb  3 21:59:27 2025.
