 Entering Gaussian System, Link 0=g09
 Initial command:
 /home/k0335/k033513/app/g09/l1.exe "/home/k0335/k033513/app/g09/scratch/Gau-551329.inp" -scrdir="/home/k0335/k033513/app/g09/scratch/"
 Default is to use a total of  36 processors:
                               36 via shared-memory
                                1 via Linda
 Entering Link 1 = /home/k0335/k033513/app/g09/l1.exe PID=    551330.
  
 Copyright (c) 1988,1990,1992,1993,1995,1998,2003,2009,2013,
            Gaussian, Inc.  All Rights Reserved.
  
 This is part of the Gaussian(R) 09 program.  It is based on
 the Gaussian(R) 03 system (copyright 2003, Gaussian, Inc.),
 the Gaussian(R) 98 system (copyright 1998, Gaussian, Inc.),
 the Gaussian(R) 94 system (copyright 1995, Gaussian, Inc.),
 the Gaussian 92(TM) system (copyright 1992, Gaussian, Inc.),
 the Gaussian 90(TM) system (copyright 1990, Gaussian, Inc.),
 the Gaussian 88(TM) system (copyright 1988, Gaussian, Inc.),
 the Gaussian 86(TM) system (copyright 1986, Carnegie Mellon
 University), and the Gaussian 82(TM) system (copyright 1983,
 Carnegie Mellon University). Gaussian is a federally registered
 trademark of Gaussian, Inc.
  
 This software contains proprietary and confidential information,
 including trade secrets, belonging to Gaussian, Inc.
  
 This software is provided under written license and may be
 used, copied, transmitted, or stored only in accord with that
 written license.
  
 The following legend is applicable only to US Government
 contracts under FAR:
  
                    RESTRICTED RIGHTS LEGEND
  
 Use, reproduction and disclosure by the US Government is
 subject to restrictions as set forth in subparagraphs (a)
 and (c) of the Commercial Computer Software - Restricted
 Rights clause in FAR 52.227-19.
  
 Gaussian, Inc.
 340 Quinnipiac St., Bldg. 40, Wallingford CT 06492
  
  
 ---------------------------------------------------------------
 Warning -- This program may not be used in any manner that
 competes with the business of Gaussian, Inc. or will provide
 assistance to any competitor of Gaussian, Inc.  The licensee
 of this program is prohibited from giving any competitor of
 Gaussian, Inc. access to this program.  By using this program,
 the user acknowledges that Gaussian, Inc. is engaged in the
 business of creating and licensing software in the field of
 computational chemistry and represents and warrants to the
 licensee that it is not a competitor of Gaussian, Inc. and that
 it will not use this program in any manner prohibited above.
 ---------------------------------------------------------------
  

 Cite this work as:
 Gaussian 09, Revision D.01,
 M. J. Frisch, G. W. Trucks, H. B. Schlegel, G. E. Scuseria, 
 M. A. Robb, J. R. Cheeseman, G. Scalmani, V. Barone, B. Mennucci, 
 G. A. Petersson, H. Nakatsuji, M. Caricato, X. Li, H. P. Hratchian, 
 A. F. Izmaylov, J. Bloino, G. Zheng, J. L. Sonnenberg, M. Hada, 
 M. Ehara, K. Toyota, R. Fukuda, J. Hasegawa, M. Ishida, T. Nakajima, 
 Y. Honda, O. Kitao, H. Nakai, T. Vreven, J. A. Montgomery, Jr., 
 J. E. Peralta, F. Ogliaro, M. Bearpark, J. J. Heyd, E. Brothers, 
 K. N. Kudin, V. N. Staroverov, T. Keith, R. Kobayashi, J. Normand, 
 K. Raghavachari, A. Rendell, J. C. Burant, S. S. Iyengar, J. Tomasi, 
 M. Cossi, N. Rega, J. M. Millam, M. Klene, J. E. Knox, J. B. Cross, 
 V. Bakken, C. Adamo, J. Jaramillo, R. Gomperts, R. E. Stratmann, 
 O. Yazyev, A. J. Austin, R. Cammi, C. Pomelli, J. W. Ochterski, 
 R. L. Martin, K. Morokuma, V. G. Zakrzewski, G. A. Voth, 
 P. Salvador, J. J. Dannenberg, S. Dapprich, A. D. Daniels, 
 O. Farkas, J. B. Foresman, J. V. Ortiz, J. Cioslowski, 
 and D. J. Fox, Gaussian, Inc., Wallingford CT, 2013.
 
 ******************************************
 Gaussian 09:  ES64L-G09RevD.01 24-Apr-2013
                 3-Mar-2024 
 ******************************************
 %nprocshared=24
 Will use up to   24 processors via shared memory.
 %mem=40GB
 %rwf=A904173282/A904173282_0.rwf
 %nosave
 %chk=A904173282/A904173282_0.chk
 ----------------------------------------------------------------------
 #p CAM-B3LYP/6-31G(d,p) SCRF=(PCM,Solvent=Generic,Read) NoSymm out=wfn
 ----------------------------------------------------------------------
 1/38=1,40=2/1;
 2/12=2,15=1,17=6,18=5,40=1/2;
 3/5=1,6=6,7=101,11=2,16=1,25=1,30=1,70=2203,72=-2,74=-40/1,2,3;
 4//1;
 5/5=2,38=5/2;
 6/7=2,8=2,9=2,10=2,28=1/1;
 99/5=1,6=100,9=1/99;
 Leave Link    1 at Sun Mar  3 17:57:01 2024, MaxMem=  5368709120 cpu:         1.2
 (Enter /home/k0335/k033513/app/g09/l101.exe)
 ------------------
 Title A904173282_0
 ------------------
 Symbolic Z-matrix:
 Charge =  0 Multiplicity = 1
 O                    -4.00809   0.91103   0.12079 
 C                    -2.88633   0.45996  -0.10788 
 N                    -2.60128  -0.87925  -0.02269 
 C                    -3.67262  -1.78113   0.32153 
 F                    -3.68395  -1.93044   1.67426 
 C                    -1.35127  -1.40772  -0.24779 
 O                    -1.19357  -2.62119  -0.3765 
 N                    -0.31643  -0.50231  -0.35828 
 C                     1.01395  -1.08522  -0.53953 
 F                     1.11484  -2.11733   0.3552 
 F                     1.07078  -1.65119  -1.77652 
 C                     2.27296  -0.20399  -0.3161 
 F                     2.47159   0.60723  -1.39562 
 O                     2.05208   0.63902   0.82657 
 C                     3.19789   1.36576   1.19177 
 F                     4.0177    0.56464   1.89184 
 F                     2.81466   2.38404   1.98491 
 F                     3.83798   1.86179   0.12391 
 C                     3.45687  -1.17929  -0.22543 
 F                     4.63959  -0.51556  -0.22683 
 F                     3.43094  -1.90546   0.91535 
 F                     3.50433  -2.04392  -1.26154 
 C                    -0.57128   0.78977  -0.73453 
 O                     0.27375   1.50405  -1.26515 
 N                    -1.83949   1.26132  -0.49182 
 C                    -2.13381   2.63496  -0.81789 
 F                    -2.53157   2.69339  -2.11731 
 H                    -4.6481   -1.39141   0.01626 
 H                    -3.53677  -2.77001  -0.12529 
 H                    -2.94165   3.03398  -0.19753 
 H                    -1.25368   3.27447  -0.70213 
 
 NAtoms=     31 NQM=       31 NQMF=       0 NMMI=      0 NMMIF=      0
                NMic=       0 NMicF=      0.
                    Isotopes and Nuclear Properties:
 (Nuclear quadrupole moments (NQMom) in fm**2, nuclear magnetic moments (NMagM)
  in nuclear magnetons)

  Atom         1           2           3           4           5           6           7           8           9          10
 IAtWgt=          16          12          14          12          19          12          16          14          12          19
 AtmWgt=  15.9949146  12.0000000  14.0030740  12.0000000  18.9984033  12.0000000  15.9949146  14.0030740  12.0000000  18.9984033
 NucSpn=           0           0           2           0           1           0           0           2           0           1
 AtZEff=   0.0000000   0.0000000   0.0000000   0.0000000   0.0000000   0.0000000   0.0000000   0.0000000   0.0000000   0.0000000
 NQMom=    0.0000000   0.0000000   2.0440000   0.0000000   0.0000000   0.0000000   0.0000000   2.0440000   0.0000000   0.0000000
 NMagM=    0.0000000   0.0000000   0.4037610   0.0000000   2.6288670   0.0000000   0.0000000   0.4037610   0.0000000   2.6288670
 AtZNuc=   8.0000000   6.0000000   7.0000000   6.0000000   9.0000000   6.0000000   8.0000000   7.0000000   6.0000000   9.0000000

  Atom        11          12          13          14          15          16          17          18          19          20
 IAtWgt=          19          12          19          16          12          19          19          19          12          19
 AtmWgt=  18.9984033  12.0000000  18.9984033  15.9949146  12.0000000  18.9984033  18.9984033  18.9984033  12.0000000  18.9984033
 NucSpn=           1           0           1           0           0           1           1           1           0           1
 AtZEff=   0.0000000   0.0000000   0.0000000   0.0000000   0.0000000   0.0000000   0.0000000   0.0000000   0.0000000   0.0000000
 NQMom=    0.0000000   0.0000000   0.0000000   0.0000000   0.0000000   0.0000000   0.0000000   0.0000000   0.0000000   0.0000000
 NMagM=    2.6288670   0.0000000   2.6288670   0.0000000   0.0000000   2.6288670   2.6288670   2.6288670   0.0000000   2.6288670
 AtZNuc=   9.0000000   6.0000000   9.0000000   8.0000000   6.0000000   9.0000000   9.0000000   9.0000000   6.0000000   9.0000000

  Atom        21          22          23          24          25          26          27          28          29          30
 IAtWgt=          19          19          12          16          14          12          19           1           1           1
 AtmWgt=  18.9984033  18.9984033  12.0000000  15.9949146  14.0030740  12.0000000  18.9984033   1.0078250   1.0078250   1.0078250
 NucSpn=           1           1           0           0           2           0           1           1           1           1
 AtZEff=   0.0000000   0.0000000   0.0000000   0.0000000   0.0000000   0.0000000   0.0000000   0.0000000   0.0000000   0.0000000
 NQMom=    0.0000000   0.0000000   0.0000000   0.0000000   2.0440000   0.0000000   0.0000000   0.0000000   0.0000000   0.0000000
 NMagM=    2.6288670   2.6288670   0.0000000   0.0000000   0.4037610   0.0000000   2.6288670   2.7928460   2.7928460   2.7928460
 AtZNuc=   9.0000000   9.0000000   6.0000000   8.0000000   7.0000000   6.0000000   9.0000000   1.0000000   1.0000000   1.0000000

  Atom        31
 IAtWgt=           1
 AtmWgt=   1.0078250
 NucSpn=           1
 AtZEff=   0.0000000
 NQMom=    0.0000000
 NMagM=    2.7928460
 AtZNuc=   1.0000000
 Leave Link  101 at Sun Mar  3 17:57:01 2024, MaxMem=  5368709120 cpu:         1.0
 (Enter /home/k0335/k033513/app/g09/l202.exe)
                          Input orientation:                          
 ---------------------------------------------------------------------
 Center     Atomic      Atomic             Coordinates (Angstroms)
 Number     Number       Type             X           Y           Z
 ---------------------------------------------------------------------
      1          8           0       -4.008089    0.911027    0.120785
      2          6           0       -2.886331    0.459964   -0.107880
      3          7           0       -2.601283   -0.879246   -0.022694
      4          6           0       -3.672623   -1.781126    0.321533
      5          9           0       -3.683954   -1.930444    1.674256
      6          6           0       -1.351269   -1.407719   -0.247786
      7          8           0       -1.193568   -2.621191   -0.376496
      8          7           0       -0.316432   -0.502312   -0.358278
      9          6           0        1.013948   -1.085217   -0.539527
     10          9           0        1.114836   -2.117333    0.355197
     11          9           0        1.070784   -1.651190   -1.776518
     12          6           0        2.272957   -0.203985   -0.316102
     13          9           0        2.471594    0.607225   -1.395619
     14          8           0        2.052077    0.639024    0.826571
     15          6           0        3.197894    1.365756    1.191773
     16          9           0        4.017697    0.564643    1.891842
     17          9           0        2.814663    2.384042    1.984905
     18          9           0        3.837977    1.861786    0.123906
     19          6           0        3.456870   -1.179285   -0.225431
     20          9           0        4.639594   -0.515563   -0.226829
     21          9           0        3.430935   -1.905458    0.915346
     22          9           0        3.504327   -2.043923   -1.261540
     23          6           0       -0.571276    0.789770   -0.734532
     24          8           0        0.273747    1.504050   -1.265149
     25          7           0       -1.839493    1.261322   -0.491816
     26          6           0       -2.133806    2.634956   -0.817887
     27          9           0       -2.531569    2.693389   -2.117313
     28          1           0       -4.648104   -1.391413    0.016261
     29          1           0       -3.536769   -2.770007   -0.125293
     30          1           0       -2.941650    3.033985   -0.197534
     31          1           0       -1.253683    3.274472   -0.702132
 ---------------------------------------------------------------------
                    Distance matrix (angstroms):
                    1          2          3          4          5
     1  O    0.000000
     2  C    1.230482   0.000000
     3  N    2.281396   1.371857   0.000000
     4  C    2.720391   2.413532   1.442099   0.000000
     5  F    3.254580   3.086464   2.270866   1.360986   0.000000
     6  C    3.545578   2.421617   1.375676   2.419141   3.067394
     7  O    4.543719   3.525779   2.267424   2.708997   3.299203
     8  N    3.981879   2.755550   2.339923   3.655342   4.184610
     9  C    5.444434   4.217355   3.657791   4.815564   5.261704
    10  F    5.955693   4.781865   3.935124   4.799368   4.980284
    11  F    5.996638   4.785403   4.141965   5.188315   5.881612
    12  C    6.394190   5.206000   4.929532   6.184163   6.513599
    13  F    6.661687   5.512469   5.461557   6.812065   7.331757
    14  O    6.107187   5.029228   4.967912   6.235734   6.342144
    15  C    7.299314   6.287078   6.336041   7.606851   7.645754
    16  F    8.226170   7.188564   7.039969   8.192040   8.098656
    17  F    7.224587   6.370491   6.634152   7.886717   7.806620
    18  F    7.903462   6.872783   6.999916   8.349789   8.565281
    19  C    7.759825   6.552645   6.068966   7.175727   7.427275
    20  F    8.771455   7.589819   7.252878   8.425871   8.654332
    21  F    7.993935   6.822761   6.190370   7.129419   7.155293
    22  F    8.190174   6.959949   6.337956   7.354168   7.765511
    23  C    3.543720   2.420939   2.722730   4.164509   4.784411
    24  O    4.539450   3.523561   3.935682   5.374363   6.008265
    25  N    2.280525   1.373117   2.320007   3.643953   4.275661
    26  C    2.714033   2.408525   3.633247   4.813317   5.427395
    27  F    3.219629   3.025205   4.141981   5.222189   6.089648
    28  H    2.392023   2.558682   2.110286   1.093906   1.992257
    29  H    3.719235   3.294857   2.112022   1.093616   1.991207
    30  H    2.396992   2.576176   3.931895   4.897861   5.357254
    31  H    3.721534   3.307587   4.419393   5.697213   6.216477
                    6          7          8          9         10
     6  C    0.000000
     7  O    1.230427   0.000000
     8  N    1.379441   2.293327   0.000000
     9  C    2.404864   2.694239   1.463742   0.000000
    10  F    2.636060   2.473454   2.272854   1.369662   0.000000
    11  F    2.874481   2.833417   2.292530   1.361507   2.182530
    12  C    3.819510   4.226503   2.606859   1.552930   2.335120
    13  F    4.471219   4.989458   3.174939   2.392067   3.511320
    14  O    4.114142   4.755059   2.883808   2.432477   2.949257
    15  C    5.519002   6.135157   4.271162   3.711373   4.143778
    16  F    6.106883   6.515534   4.998611   4.201916   4.240386
    17  F    6.059484   6.833337   4.860587   4.653073   5.080132
    18  F    6.144599   6.757509   4.804225   4.135228   4.827254
    19  C    4.813614   4.871189   3.835850   2.464827   2.588858
    20  F    6.056965   6.203374   4.957787   3.683422   3.915142
    21  F    4.946726   4.854602   4.199249   2.937903   2.392273
    22  F    5.000926   4.815263   4.217896   2.764490   2.885982
    23  C    2.382072   3.485698   1.369667   2.463034   3.532949
    24  O    3.486274   4.467699   2.279521   2.789037   4.055535
    25  N    2.724278   3.937566   2.334085   3.694678   4.567363
    26  C    4.156994   5.357794   3.654660   4.881140   5.874866
    27  F    4.659112   5.750257   4.267733   5.416453   6.523237
    28  H    3.307432   3.687876   4.437811   5.697498   5.818360
    29  H    2.578225   2.361322   3.945541   4.870229   4.721682
    30  H    4.718111   5.921894   4.407154   5.721148   6.580020
    31  H    4.705196   5.904955   3.906504   4.916857   5.983259
                   11         12         13         14         15
    11  F    0.000000
    12  C    2.381688   0.000000
    13  F    2.684733   1.364872   0.000000
    14  O    3.603344   1.437064   2.261666   0.000000
    15  C    4.736804   2.365012   2.792397   1.405136   0.000000
    16  F    5.201065   2.917177   3.633132   2.236962   1.343114
    17  F    5.785544   3.505134   3.834412   2.228982   1.346414
    18  F    4.859009   2.628746   2.397891   2.275593   1.340184
    19  C    2.884783   1.536581   2.351962   2.527133   2.924512
    20  F    4.053096   2.388728   2.706833   3.022907   2.762298
    21  F    3.589024   2.398414   3.546050   2.895431   3.291134
    22  F    2.518248   2.407384   2.848350   3.696950   4.211717
    23  C    3.120958   3.041758   3.119201   3.056427   4.271891
    24  O    3.294284   2.795517   2.377362   2.878545   3.821809
    25  N    4.313108   4.369238   4.453108   4.155685   5.312311
    26  C    5.436857   5.266017   5.065094   4.920326   5.837519
    27  F    5.654065   5.892589   5.468506   5.822085   6.748289
    28  H    5.998935   7.030045   7.528483   7.047815   8.399017
    29  H    5.020741   6.354038   7.008555   6.615341   8.012171
    30  H    6.367392   6.139270   6.052089   5.632223   6.512078
    31  H    5.551540   4.968488   4.633877   4.495617   5.200636
                   16         17         18         19         20
    16  F    0.000000
    17  F    2.183155   0.000000
    18  F    2.200108   2.187062   0.000000
    19  C    2.799760   4.242088   3.084703   0.000000
    20  F    2.458123   4.077971   2.533257   1.356232   0.000000
    21  F    2.720153   4.463581   3.870941   1.352543   2.167309
    22  F    4.124559   5.533707   4.157565   1.350323   2.166874
    23  C    5.292183   4.626189   4.618186   4.512463   5.395815
    24  O    4.986606   4.218233   3.842029   4.291104   4.921135
    25  N    6.361907   5.390345   5.742241   5.837721   6.723549
    26  C    7.033478   5.692622   6.094830   6.793754   7.493602
    27  F    7.968549   6.745820   6.803363   7.378226   8.080649
    28  H    9.079651   8.592003   9.088920   8.111351   9.332071
    29  H    8.500511   8.447357   8.712203   7.172964   8.482083
    30  H    7.674350   6.190364   6.887722   7.661167   8.371106
    31  H    6.469878   4.956256   5.348179   6.500193   7.022891
                   21         22         23         24         25
    21  F    0.000000
    22  F    2.182520   0.000000
    23  C    5.099416   4.991803   0.000000
    24  O    5.132946   4.798414   1.227116   0.000000
    25  N    6.307615   6.330366   1.374644   2.263348   0.000000
    26  C    7.388220   7.340114   2.419330   2.697277   1.442156
    27  F    8.117750   7.720525   3.062450   3.163939   2.274209
    28  H    8.145150   8.277722   4.684205   5.852379   3.896594
    29  H    7.097836   7.169051   4.673043   5.838396   4.389385
    30  H    8.139192   8.274532   3.308102   3.717429   2.108005
    31  H    7.168930   7.157997   2.576912   2.405083   2.107173
                   26         27         28         29         30
    26  C    0.000000
    27  F    1.360198   0.000000
    28  H    4.819662   5.071239   0.000000
    29  H    5.626866   5.901463   1.776408   0.000000
    30  H    1.093926   1.992416   4.747825   5.834870   0.000000
    31  H    1.094073   1.993336   5.814522   6.486983   1.778113
                   31
    31  H    0.000000
 Symmetry turned off by external request.
 Stoichiometry    C9H4F11N3O4
 Framework group  C1[X(C9H4F11N3O4)]
 Deg. of freedom    87
 Full point group                 C1      NOp   1
 Rotational constants (GHZ):      0.3126896      0.1361617      0.1162645
 Leave Link  202 at Sun Mar  3 17:57:01 2024, MaxMem=  5368709120 cpu:         0.1
 (Enter /home/k0335/k033513/app/g09/l301.exe)
 Standard basis: 6-31G(d,p) (6D, 7F)
 Ernie: Thresh=  0.10000D-02 Tol=  0.10000D-05 Strict=F.
   425 basis functions,   784 primitive gaussians,   425 cartesian basis functions
   105 alpha electrons      105 beta electrons
       nuclear repulsion energy      3163.4423714298 Hartrees.
 IExCor=20419 DFT=T Ex+Corr=CAM-B3LYP ExCW=0 ScaHFX=  1.000000
 ScaDFX=  1.000000  1.000000  1.000000  0.810000 ScalE2=  1.000000  1.000000
 IRadAn=      0 IRanWt=     -1 IRanGd=            0 ICorTp=0 IEmpDi=  4
  HFx wShort=  0.000000 wLong=  0.330000 cFull=  0.190000 cShort=  0.000000 cLong=  0.460000
  DFx wShort=  0.000000 wLong=  0.330000 cFull=  0.190000 cShort=  0.000000 cLong=  0.460000
 NAtoms=   31 NActive=   31 NUniq=   31 SFac= 1.00D+00 NAtFMM=   60 NAOKFM=F Big=F
 Integral buffers will be    131072 words long.
 Raffenetti 2 integral format.
 Two-electron integral symmetry is turned off.
 Using the following non-standard input for PCM:
 eps=4.9
 --- end of non-standard input.
 ------------------------------------------------------------------------------
 Polarizable Continuum Model (PCM)
 =================================
 Model                : PCM (using non-symmetric T matrix).
 Atomic radii         : UFF (Universal Force Field).
 Polarization charges : Total charges.
 Charge compensation  : None.
 Solution method      : On-the-fly selection.
 Cavity type          : Scaled VdW (van der Waals Surface) (Alpha=1.100).
 Cavity algorithm     : GePol (No added spheres)
                        Default sphere list used, NSphG=   31.
                        Lebedev-Laikov grids with approx.  5.0 points / Ang**2.
                        Smoothing algorithm: Karplus/York (Gamma=1.0000).
                        Polarization charges: spherical gaussians, with
                                              point-specific exponents (IZeta= 3).
                        Self-potential: point-specific (ISelfS= 7).
                        Self-field    : sphere-specific E.n sum rule (ISelfD= 2).
 Solvent              : Generic,
                        Eps                           =   4.900000
                        Eps(infinity)                 =   0.000000
                        RSolv                         =   0.000000 Ang.
                        Molar volume                  =   0.000000 cm**3/mol
                        Thermal expansion coefficient =   0.000000 K**-1
                        Absolute temperature          = 298.150000 K
                        Numeral density               =   0.000000 Ang**-3
                        Hydrogen bond acidity         =   0.000000
                        Hydrogen bond basicity        =   0.000000
                        Surface tension at interface  =   0.000000 (cal/mol)*Ang**-2
                        Carbon aromaticity            =   0.000000
                        Electronegative halogenicity  =   0.000000
 ------------------------------------------------------------------------------
 GePol: Number of generator spheres                  =      31
 GePol: Total number of spheres                      =      31
 GePol: Number of exposed spheres                    =      31 (100.00%)
 GePol: Number of points                             =    2719
 GePol: Average weight of points                     =       0.12
 GePol: Minimum weight of points                     =   0.20D-10
 GePol: Maximum weight of points                     =    0.20577
 GePol: Number of points with low weight             =     122
 GePol: Fraction of low-weight points (<1% of avg)   =       4.49%
 GePol: Cavity surface area                          =    338.512 Ang**2
 GePol: Cavity volume                                =    375.337 Ang**3
 Leave Link  301 at Sun Mar  3 17:57:01 2024, MaxMem=  5368709120 cpu:         0.9
 (Enter /home/k0335/k033513/app/g09/l302.exe)
 NPDir=0 NMtPBC=     1 NCelOv=     1 NCel=       1 NClECP=     1 NCelD=      1
         NCelK=      1 NCelE2=     1 NClLst=     1 CellRange=     0.0.
 One-electron integrals computed using PRISM.
 NBasis=   425 RedAO= T EigKep=  1.16D-03  NBF=   425
 NBsUse=   425 1.00D-06 EigRej= -1.00D+00 NBFU=   425
 Precomputing XC quadrature grid using
 IXCGrd= 4 IRadAn=           0 IRanWt=          -1 IRanGd=           0 AccXCQ= 0.00D+00.
 Generated NRdTot=       0 NPtTot=           0 NUsed=           0 NTot=          32
 NSgBfM=   418   418   418   418   418 MxSgAt=    31 MxSgA2=    31.
 Leave Link  302 at Sun Mar  3 17:57:02 2024, MaxMem=  5368709120 cpu:         6.9
 (Enter /home/k0335/k033513/app/g09/l303.exe)
 DipDrv:  MaxL=1.
 Leave Link  303 at Sun Mar  3 17:57:02 2024, MaxMem=  5368709120 cpu:         0.7
 (Enter /home/k0335/k033513/app/g09/l401.exe)
 ExpMin= 1.61D-01 ExpMax= 7.00D+03 ExpMxC= 1.05D+03 IAcc=1 IRadAn=         1 AccDes= 0.00D+00
 Harris functional with IExCor=20419 and IRadAn=       1 diagonalized for initial guess.
 HarFok:  IExCor=20419 AccDes= 0.00D+00 IRadAn=         1 IDoV= 1 UseB2=F ITyADJ=14
 ICtDFT=  3500011 ScaDFX=  1.000000  1.000000  1.000000  1.000000
 FoFCou: FMM=F IPFlag=           0 FMFlag=      100000 FMFlg1=           0
         NFxFlg=           0 DoJE=T BraDBF=F KetDBF=T FulRan=T
         wScrn=  0.000000 ICntrl=     500 IOpCl=  0 I1Cent=   200000004 NGrid=           0
         NMat0=    1 NMatS0=      1 NMatT0=    0 NMatD0=    1 NMtDS0=    0 NMtDT0=    0
 Symmetry not used in FoFCou.
 Harris En= -1850.31929226513    
 JPrj=0 DoOrth=F DoCkMO=F.
 Leave Link  401 at Sun Mar  3 17:57:02 2024, MaxMem=  5368709120 cpu:         7.6
 (Enter /home/k0335/k033513/app/g09/l502.exe)
 Closed shell SCF:
 Using DIIS extrapolation, IDIIS=  1040.
 Two-electron integral symmetry not used.
 IVT=      573237 IEndB=      573237 NGot=  5368709120 MDV=  5368333574
 LenX=  5368333574 LenY=  5368152508
 Requested convergence on RMS density matrix=1.00D-08 within 128 cycles.
 Requested convergence on MAX density matrix=1.00D-06.
 Requested convergence on             energy=1.00D-06.
 No special actions if energy rises.
 Fock matrices will be formed incrementally for  20 cycles.

 Cycle   1  Pass 1  IDiag  1:
 FoFJK:  IHMeth= 1 ICntrl=       0 DoSepK=T KAlg= 0 I1Cent=   0 FoldK=F
 IRaf=         1 NMat=   1 IRICut=       1 DoRegI=T DoRafI=F ISym2E= 0.
 FoFCou: FMM=F IPFlag=           0 FMFlag=      100000 FMFlg1=           0
         NFxFlg=           0 DoJE=T BraDBF=F KetDBF=F FulRan=T
         wScrn=  0.000000 ICntrl=     500 IOpCl=  0 I1Cent=           0 NGrid=           0
         NMat0=    1 NMatS0=      1 NMatT0=    0 NMatD0=    1 NMtDS0=    0 NMtDT0=    0
 Symmetry not used in FoFCou.
 Inv3:  Mode=1 IEnd=    22178883.
 Iteration    1 A*A^-1 deviation from unit magnitude is 4.77D-15 for   2690.
 Iteration    1 A*A^-1 deviation from orthogonality  is 5.80D-15 for   2690   2271.
 Iteration    1 A^-1*A deviation from unit magnitude is 5.33D-15 for   2699.
 Iteration    1 A^-1*A deviation from orthogonality  is 5.28D-14 for   2691   2580.
 E= -1907.62207224930    
 DIIS: error= 5.07D-02 at cycle   1 NSaved=   1.
 NSaved= 1 IEnMin= 1 EnMin= -1907.62207224930     IErMin= 1 ErrMin= 5.07D-02
 ErrMax= 5.07D-02  0.00D+00 EMaxC= 1.00D-01 BMatC= 1.54D+00 BMatP= 1.54D+00
 IDIUse=3 WtCom= 4.93D-01 WtEn= 5.07D-01
 Coeff-Com:  0.100D+01
 Coeff-En:   0.100D+01
 Coeff:      0.100D+01
 Gap=     0.429 Goal=   None    Shift=    0.000
 GapD=    0.429 DampG=2.000 DampE=0.500 DampFc=1.0000 IDamp=-1.
 RMSDP=3.55D-03 MaxDP=1.06D-01              OVMax= 2.03D-01

 Cycle   2  Pass 1  IDiag  1:
 RMSU=  3.55D-03    CP:  1.01D+00
 E= -1907.79946968638     Delta-E=       -0.177397437088 Rises=F Damp=F
 DIIS: error= 2.14D-02 at cycle   2 NSaved=   2.
 NSaved= 2 IEnMin= 2 EnMin= -1907.79946968638     IErMin= 2 ErrMin= 2.14D-02
 ErrMax= 2.14D-02  0.00D+00 EMaxC= 1.00D-01 BMatC= 6.59D-01 BMatP= 1.54D+00
 IDIUse=3 WtCom= 7.86D-01 WtEn= 2.14D-01
 Coeff-Com:  0.375D+00 0.625D+00
 Coeff-En:   0.393D+00 0.607D+00
 Coeff:      0.379D+00 0.621D+00
 Gap=     0.406 Goal=   None    Shift=    0.000
 RMSDP=1.96D-03 MaxDP=1.01D-01 DE=-1.77D-01 OVMax= 1.25D-01

 Cycle   3  Pass 1  IDiag  1:
 RMSU=  1.22D-03    CP:  1.00D+00  5.70D-01
 E= -1908.11045129515     Delta-E=       -0.310981608767 Rises=F Damp=F
 DIIS: error= 1.29D-02 at cycle   3 NSaved=   3.
 NSaved= 3 IEnMin= 3 EnMin= -1908.11045129515     IErMin= 3 ErrMin= 1.29D-02
 ErrMax= 1.29D-02  0.00D+00 EMaxC= 1.00D-01 BMatC= 1.63D-01 BMatP= 6.59D-01
 IDIUse=3 WtCom= 8.71D-01 WtEn= 1.29D-01
 Coeff-Com:  0.110D+00 0.346D+00 0.544D+00
 Coeff-En:   0.000D+00 0.200D+00 0.800D+00
 Coeff:      0.960D-01 0.327D+00 0.577D+00
 Gap=     0.393 Goal=   None    Shift=    0.000
 RMSDP=9.07D-04 MaxDP=6.21D-02 DE=-3.11D-01 OVMax= 8.06D-02

 Cycle   4  Pass 1  IDiag  1:
 RMSU=  3.82D-04    CP:  1.00D+00  6.88D-01  4.22D-01
 E= -1908.21282262226     Delta-E=       -0.102371327109 Rises=F Damp=F
 DIIS: error= 4.41D-03 at cycle   4 NSaved=   4.
 NSaved= 4 IEnMin= 4 EnMin= -1908.21282262226     IErMin= 4 ErrMin= 4.41D-03
 ErrMax= 4.41D-03  0.00D+00 EMaxC= 1.00D-01 BMatC= 1.76D-02 BMatP= 1.63D-01
 IDIUse=3 WtCom= 9.56D-01 WtEn= 4.41D-02
 Coeff-Com:  0.951D-02 0.995D-01 0.305D+00 0.586D+00
 Coeff-En:   0.000D+00 0.000D+00 0.619D-01 0.938D+00
 Coeff:      0.909D-02 0.952D-01 0.294D+00 0.601D+00
 Gap=     0.365 Goal=   None    Shift=    0.000
 RMSDP=2.90D-04 MaxDP=1.91D-02 DE=-1.02D-01 OVMax= 2.13D-02

 Cycle   5  Pass 1  IDiag  1:
 RMSU=  1.30D-04    CP:  1.00D+00  6.75D-01  5.97D-01  6.44D-01
 E= -1908.22417990407     Delta-E=       -0.011357281805 Rises=F Damp=F
 DIIS: error= 1.05D-03 at cycle   5 NSaved=   5.
 NSaved= 5 IEnMin= 5 EnMin= -1908.22417990407     IErMin= 5 ErrMin= 1.05D-03
 ErrMax= 1.05D-03  0.00D+00 EMaxC= 1.00D-01 BMatC= 1.23D-03 BMatP= 1.76D-02
 IDIUse=3 WtCom= 9.89D-01 WtEn= 1.05D-02
 Coeff-Com: -0.187D-02 0.271D-01 0.118D+00 0.327D+00 0.530D+00
 Coeff-En:   0.000D+00 0.000D+00 0.000D+00 0.000D+00 0.100D+01
 Coeff:     -0.185D-02 0.268D-01 0.117D+00 0.324D+00 0.535D+00
 Gap=     0.363 Goal=   None    Shift=    0.000
 RMSDP=6.55D-05 MaxDP=3.07D-03 DE=-1.14D-02 OVMax= 4.65D-03

 Cycle   6  Pass 1  IDiag  1:
 RMSU=  2.88D-05    CP:  1.00D+00  6.80D-01  5.84D-01  6.95D-01  6.22D-01
 E= -1908.22503612053     Delta-E=       -0.000856216461 Rises=F Damp=F
 DIIS: error= 1.07D-04 at cycle   6 NSaved=   6.
 NSaved= 6 IEnMin= 6 EnMin= -1908.22503612053     IErMin= 6 ErrMin= 1.07D-04
 ErrMax= 1.07D-04  0.00D+00 EMaxC= 1.00D-01 BMatC= 1.40D-05 BMatP= 1.23D-03
 IDIUse=3 WtCom= 9.99D-01 WtEn= 1.07D-03
 Coeff-Com: -0.610D-03-0.164D-02 0.110D-02 0.174D-01 0.103D+00 0.881D+00
 Coeff-En:   0.000D+00 0.000D+00 0.000D+00 0.000D+00 0.000D+00 0.100D+01
 Coeff:     -0.610D-03-0.163D-02 0.110D-02 0.174D-01 0.103D+00 0.881D+00
 Gap=     0.363 Goal=   None    Shift=    0.000
 RMSDP=1.26D-05 MaxDP=6.94D-04 DE=-8.56D-04 OVMax= 6.66D-04

 Cycle   7  Pass 1  IDiag  1:
 RMSU=  8.33D-06    CP:  1.00D+00  6.80D-01  5.88D-01  7.04D-01  6.80D-01
                    CP:  1.05D+00
 E= -1908.22504740183     Delta-E=       -0.000011281304 Rises=F Damp=F
 DIIS: error= 6.96D-05 at cycle   7 NSaved=   7.
 NSaved= 7 IEnMin= 7 EnMin= -1908.22504740183     IErMin= 7 ErrMin= 6.96D-05
 ErrMax= 6.96D-05  0.00D+00 EMaxC= 1.00D-01 BMatC= 4.98D-06 BMatP= 1.40D-05
 IDIUse=1 WtCom= 1.00D+00 WtEn= 0.00D+00
 Coeff-Com: -0.150D-03-0.332D-02-0.936D-02-0.185D-01 0.106D-01 0.452D+00
 Coeff-Com:  0.568D+00
 Coeff:     -0.150D-03-0.332D-02-0.936D-02-0.185D-01 0.106D-01 0.452D+00
 Coeff:      0.568D+00
 Gap=     0.363 Goal=   None    Shift=    0.000
 RMSDP=4.24D-06 MaxDP=2.84D-04 DE=-1.13D-05 OVMax= 2.75D-04

 Cycle   8  Pass 1  IDiag  1:
 RMSU=  2.66D-06    CP:  1.00D+00  6.80D-01  5.88D-01  7.04D-01  6.85D-01
                    CP:  1.13D+00  7.36D-01
 E= -1908.22505090716     Delta-E=       -0.000003505327 Rises=F Damp=F
 DIIS: error= 1.17D-05 at cycle   8 NSaved=   8.
 NSaved= 8 IEnMin= 8 EnMin= -1908.22505090716     IErMin= 8 ErrMin= 1.17D-05
 ErrMax= 1.17D-05  0.00D+00 EMaxC= 1.00D-01 BMatC= 1.60D-07 BMatP= 4.98D-06
 IDIUse=1 WtCom= 1.00D+00 WtEn= 0.00D+00
 Coeff-Com:  0.173D-04-0.600D-03-0.194D-02-0.590D-02-0.729D-02 0.498D-02
 Coeff-Com:  0.127D+00 0.883D+00
 Coeff:      0.173D-04-0.600D-03-0.194D-02-0.590D-02-0.729D-02 0.498D-02
 Coeff:      0.127D+00 0.883D+00
 Gap=     0.363 Goal=   None    Shift=    0.000
 RMSDP=1.63D-06 MaxDP=1.09D-04 DE=-3.51D-06 OVMax= 1.42D-04

 Cycle   9  Pass 1  IDiag  1:
 RMSU=  9.15D-07    CP:  1.00D+00  6.80D-01  5.89D-01  7.04D-01  6.90D-01
                    CP:  1.15D+00  8.27D-01  1.12D+00
 E= -1908.22505110280     Delta-E=       -0.000000195641 Rises=F Damp=F
 DIIS: error= 3.14D-06 at cycle   9 NSaved=   9.
 NSaved= 9 IEnMin= 9 EnMin= -1908.22505110280     IErMin= 9 ErrMin= 3.14D-06
 ErrMax= 3.14D-06  0.00D+00 EMaxC= 1.00D-01 BMatC= 2.62D-08 BMatP= 1.60D-07
 IDIUse=1 WtCom= 1.00D+00 WtEn= 0.00D+00
 Coeff-Com:  0.227D-04 0.109D-03 0.242D-03-0.560D-03-0.452D-02-0.531D-01
 Coeff-Com: -0.125D-01 0.353D+00 0.718D+00
 Coeff:      0.227D-04 0.109D-03 0.242D-03-0.560D-03-0.452D-02-0.531D-01
 Coeff:     -0.125D-01 0.353D+00 0.718D+00
 Gap=     0.363 Goal=   None    Shift=    0.000
 RMSDP=5.64D-07 MaxDP=4.43D-05 DE=-1.96D-07 OVMax= 5.07D-05

 Cycle  10  Pass 1  IDiag  1:
 RMSU=  3.06D-07    CP:  1.00D+00  6.80D-01  5.89D-01  7.04D-01  6.91D-01
                    CP:  1.16D+00  8.50D-01  1.21D+00  9.16D-01
 E= -1908.22505112947     Delta-E=       -0.000000026674 Rises=F Damp=F
 DIIS: error= 1.18D-06 at cycle  10 NSaved=  10.
 NSaved=10 IEnMin=10 EnMin= -1908.22505112947     IErMin=10 ErrMin= 1.18D-06
 ErrMax= 1.18D-06  0.00D+00 EMaxC= 1.00D-01 BMatC= 2.10D-09 BMatP= 2.62D-08
 IDIUse=1 WtCom= 1.00D+00 WtEn= 0.00D+00
 Coeff-Com:  0.573D-05 0.101D-03 0.317D-03 0.428D-03-0.602D-03-0.188D-01
 Coeff-Com: -0.154D-01 0.431D-01 0.258D+00 0.733D+00
 Coeff:      0.573D-05 0.101D-03 0.317D-03 0.428D-03-0.602D-03-0.188D-01
 Coeff:     -0.154D-01 0.431D-01 0.258D+00 0.733D+00
 Gap=     0.363 Goal=   None    Shift=    0.000
 RMSDP=1.51D-07 MaxDP=1.22D-05 DE=-2.67D-08 OVMax= 1.56D-05

 Cycle  11  Pass 1  IDiag  1:
 RMSU=  1.07D-07    CP:  1.00D+00  6.80D-01  5.89D-01  7.04D-01  6.91D-01
                    CP:  1.16D+00  8.56D-01  1.23D+00  9.85D-01  9.87D-01
 E= -1908.22505113137     Delta-E=       -0.000000001894 Rises=F Damp=F
 DIIS: error= 6.90D-07 at cycle  11 NSaved=  11.
 NSaved=11 IEnMin=11 EnMin= -1908.22505113137     IErMin=11 ErrMin= 6.90D-07
 ErrMax= 6.90D-07  0.00D+00 EMaxC= 1.00D-01 BMatC= 4.41D-10 BMatP= 2.10D-09
 IDIUse=1 WtCom= 1.00D+00 WtEn= 0.00D+00
 Coeff-Com:  0.639D-06 0.381D-04 0.137D-03 0.259D-03 0.257D-03-0.350D-02
 Coeff-Com: -0.577D-02-0.145D-01 0.525D-01 0.354D+00 0.617D+00
 Coeff:      0.639D-06 0.381D-04 0.137D-03 0.259D-03 0.257D-03-0.350D-02
 Coeff:     -0.577D-02-0.145D-01 0.525D-01 0.354D+00 0.617D+00
 Gap=     0.363 Goal=   None    Shift=    0.000
 RMSDP=5.44D-08 MaxDP=4.03D-06 DE=-1.89D-09 OVMax= 4.58D-06

 Cycle  12  Pass 1  IDiag  1:
 RMSU=  3.55D-08    CP:  1.00D+00  6.80D-01  5.89D-01  7.04D-01  6.91D-01
                    CP:  1.16D+00  8.57D-01  1.24D+00  1.00D+00  1.06D+00
                    CP:  8.12D-01
 E= -1908.22505113160     Delta-E=       -0.000000000233 Rises=F Damp=F
 DIIS: error= 2.24D-07 at cycle  12 NSaved=  12.
 NSaved=12 IEnMin=12 EnMin= -1908.22505113160     IErMin=12 ErrMin= 2.24D-07
 ErrMax= 2.24D-07  0.00D+00 EMaxC= 1.00D-01 BMatC= 5.10D-11 BMatP= 4.41D-10
 IDIUse=1 WtCom= 1.00D+00 WtEn= 0.00D+00
 Coeff-Com: -0.359D-06 0.280D-05 0.191D-04 0.504D-04 0.221D-03 0.100D-02
 Coeff-Com: -0.425D-03-0.129D-01-0.146D-01 0.401D-01 0.254D+00 0.733D+00
 Coeff:     -0.359D-06 0.280D-05 0.191D-04 0.504D-04 0.221D-03 0.100D-02
 Coeff:     -0.425D-03-0.129D-01-0.146D-01 0.401D-01 0.254D+00 0.733D+00
 Gap=     0.363 Goal=   None    Shift=    0.000
 RMSDP=2.34D-08 MaxDP=1.61D-06 DE=-2.33D-10 OVMax= 2.23D-06

 Cycle  13  Pass 1  IDiag  1:
 RMSU=  1.25D-08    CP:  1.00D+00  6.80D-01  5.89D-01  7.04D-01  6.91D-01
                    CP:  1.16D+00  8.57D-01  1.24D+00  1.01D+00  1.09D+00
                    CP:  9.04D-01  8.88D-01
 E= -1908.22505113177     Delta-E=       -0.000000000175 Rises=F Damp=F
 DIIS: error= 6.91D-08 at cycle  13 NSaved=  13.
 NSaved=13 IEnMin=13 EnMin= -1908.22505113177     IErMin=13 ErrMin= 6.91D-08
 ErrMax= 6.91D-08  0.00D+00 EMaxC= 1.00D-01 BMatC= 6.29D-12 BMatP= 5.10D-11
 IDIUse=1 WtCom= 1.00D+00 WtEn= 0.00D+00
 Coeff-Com: -0.255D-06-0.314D-05-0.567D-05-0.602D-05 0.790D-04 0.863D-03
 Coeff-Com:  0.511D-03-0.420D-02-0.130D-01-0.260D-01 0.371D-01 0.322D+00
 Coeff-Com:  0.683D+00
 Coeff:     -0.255D-06-0.314D-05-0.567D-05-0.602D-05 0.790D-04 0.863D-03
 Coeff:      0.511D-03-0.420D-02-0.130D-01-0.260D-01 0.371D-01 0.322D+00
 Coeff:      0.683D+00
 Gap=     0.363 Goal=   None    Shift=    0.000
 RMSDP=7.62D-09 MaxDP=5.01D-07 DE=-1.75D-10 OVMax= 6.76D-07

 Error on total polarization charges =  0.00202
 SCF Done:  E(RCAM-B3LYP) =  -1908.22505113     A.U. after   13 cycles
            NFock= 13  Conv=0.76D-08     -V/T= 2.0074
 KE= 1.894268993213D+03 PE=-1.083302843916D+04 EE= 3.867092023390D+03
 Leave Link  502 at Sun Mar  3 17:57:29 2024, MaxMem=  5368709120 cpu:       604.7
 (Enter /home/k0335/k033513/app/g09/l601.exe)
 Copying SCF densities to generalized density rwf, IOpCl= 0 IROHF=0.

 **********************************************************************

            Population analysis using the SCF density.

 **********************************************************************

 Alpha  occ. eigenvalues --  -24.83854 -24.83600 -24.83554 -24.83450 -24.83038
 Alpha  occ. eigenvalues --  -24.82920 -24.82880 -24.82836 -24.82117 -24.77343
 Alpha  occ. eigenvalues --  -24.77269 -19.33278 -19.24425 -19.24397 -19.24026
 Alpha  occ. eigenvalues --  -14.53015 -14.50989 -14.50963 -10.59710 -10.55486
 Alpha  occ. eigenvalues --  -10.53532 -10.49250 -10.46289 -10.46281 -10.45420
 Alpha  occ. eigenvalues --  -10.39263 -10.39162  -1.43317  -1.41798  -1.38984
 Alpha  occ. eigenvalues --   -1.35222  -1.33593  -1.33368  -1.32834  -1.32258
 Alpha  occ. eigenvalues --   -1.31807  -1.30117  -1.29986  -1.22916  -1.20675
 Alpha  occ. eigenvalues --   -1.18044  -1.17682  -1.09903  -1.07637  -1.06469
 Alpha  occ. eigenvalues --   -0.93530  -0.86332  -0.83838  -0.83574  -0.81903
 Alpha  occ. eigenvalues --   -0.78697  -0.76440  -0.75382  -0.74689  -0.73045
 Alpha  occ. eigenvalues --   -0.71379  -0.70527  -0.69920  -0.68856  -0.68158
 Alpha  occ. eigenvalues --   -0.67421  -0.66242  -0.65401  -0.63836  -0.63614
 Alpha  occ. eigenvalues --   -0.60670  -0.60222  -0.60159  -0.58508  -0.58067
 Alpha  occ. eigenvalues --   -0.57529  -0.57378  -0.56978  -0.56617  -0.56076
 Alpha  occ. eigenvalues --   -0.55774  -0.55474  -0.54571  -0.54236  -0.53717
 Alpha  occ. eigenvalues --   -0.53395  -0.53118  -0.52972  -0.52452  -0.52101
 Alpha  occ. eigenvalues --   -0.51750  -0.51106  -0.50646  -0.50472  -0.50309
 Alpha  occ. eigenvalues --   -0.49910  -0.49190  -0.48649  -0.46802  -0.46205
 Alpha  occ. eigenvalues --   -0.46033  -0.44429  -0.42664  -0.42556  -0.40581
 Alpha  occ. eigenvalues --   -0.39972  -0.38865  -0.38493  -0.38038  -0.36175
 Alpha virt. eigenvalues --    0.00169   0.01077   0.06640   0.07459   0.09722
 Alpha virt. eigenvalues --    0.15266   0.16463   0.16913   0.17315   0.18304
 Alpha virt. eigenvalues --    0.18687   0.19184   0.20125   0.20244   0.20919
 Alpha virt. eigenvalues --    0.21792   0.22559   0.22659   0.23122   0.24666
 Alpha virt. eigenvalues --    0.25211   0.26091   0.26904   0.27147   0.27525
 Alpha virt. eigenvalues --    0.28642   0.30461   0.33023   0.34667   0.36709
 Alpha virt. eigenvalues --    0.38454   0.39103   0.39846   0.46816   0.48490
 Alpha virt. eigenvalues --    0.49040   0.51180   0.51852   0.52671   0.53718
 Alpha virt. eigenvalues --    0.53882   0.54974   0.55120   0.55456   0.56334
 Alpha virt. eigenvalues --    0.57349   0.58234   0.59438   0.60140   0.61803
 Alpha virt. eigenvalues --    0.63076   0.63488   0.64651   0.68302   0.69387
 Alpha virt. eigenvalues --    0.70258   0.71470   0.72220   0.74411   0.76284
 Alpha virt. eigenvalues --    0.78769   0.80860   0.81597   0.83343   0.84861
 Alpha virt. eigenvalues --    0.85799   0.86095   0.86914   0.88031   0.88735
 Alpha virt. eigenvalues --    0.90474   0.90645   0.91636   0.92762   0.93624
 Alpha virt. eigenvalues --    0.95418   0.96482   0.98512   0.98969   1.00598
 Alpha virt. eigenvalues --    1.02412   1.04120   1.06118   1.06615   1.07225
 Alpha virt. eigenvalues --    1.08678   1.10022   1.10413   1.11180   1.11680
 Alpha virt. eigenvalues --    1.12167   1.13260   1.14139   1.15602   1.17355
 Alpha virt. eigenvalues --    1.17572   1.18466   1.19565   1.20041   1.20929
 Alpha virt. eigenvalues --    1.22486   1.22736   1.24184   1.25375   1.26940
 Alpha virt. eigenvalues --    1.27576   1.28041   1.29629   1.31042   1.31735
 Alpha virt. eigenvalues --    1.33651   1.34028   1.35044   1.35657   1.36003
 Alpha virt. eigenvalues --    1.37777   1.38466   1.38892   1.39553   1.40003
 Alpha virt. eigenvalues --    1.40583   1.41607   1.41992   1.42639   1.42818
 Alpha virt. eigenvalues --    1.43668   1.44393   1.45679   1.46152   1.48212
 Alpha virt. eigenvalues --    1.48924   1.49355   1.50641   1.51506   1.52404
 Alpha virt. eigenvalues --    1.53855   1.54543   1.55711   1.58077   1.58582
 Alpha virt. eigenvalues --    1.58902   1.60371   1.62298   1.62591   1.66885
 Alpha virt. eigenvalues --    1.67503   1.69058   1.69179   1.69943   1.71261
 Alpha virt. eigenvalues --    1.73033   1.74018   1.74973   1.75690   1.77626
 Alpha virt. eigenvalues --    1.78247   1.79660   1.80211   1.81778   1.82223
 Alpha virt. eigenvalues --    1.82746   1.83091   1.83370   1.83815   1.84586
 Alpha virt. eigenvalues --    1.85602   1.86154   1.86362   1.87191   1.88241
 Alpha virt. eigenvalues --    1.89242   1.89350   1.89913   1.90943   1.91869
 Alpha virt. eigenvalues --    1.92542   1.92950   1.93131   1.93714   1.94242
 Alpha virt. eigenvalues --    1.95262   1.96838   1.97303   1.97850   1.99065
 Alpha virt. eigenvalues --    1.99485   1.99736   2.00393   2.00725   2.01572
 Alpha virt. eigenvalues --    2.02084   2.02566   2.03215   2.04324   2.04951
 Alpha virt. eigenvalues --    2.05032   2.05577   2.06489   2.07629   2.08879
 Alpha virt. eigenvalues --    2.09016   2.09677   2.09789   2.10475   2.10623
 Alpha virt. eigenvalues --    2.11926   2.12122   2.13477   2.14510   2.16290
 Alpha virt. eigenvalues --    2.16540   2.17777   2.19415   2.19884   2.20753
 Alpha virt. eigenvalues --    2.21406   2.23234   2.25363   2.25935   2.27678
 Alpha virt. eigenvalues --    2.28318   2.30767   2.32348   2.33121   2.34405
 Alpha virt. eigenvalues --    2.35595   2.36712   2.38155   2.40160   2.42330
 Alpha virt. eigenvalues --    2.42810   2.45442   2.46743   2.47701   2.48864
 Alpha virt. eigenvalues --    2.49291   2.50794   2.52288   2.53461   2.54963
 Alpha virt. eigenvalues --    2.55531   2.59303   2.61008   2.62512   2.64994
 Alpha virt. eigenvalues --    2.65885   2.66709   2.69512   2.70564   2.73184
 Alpha virt. eigenvalues --    2.74513   2.75634   2.76066   2.77769   2.80177
 Alpha virt. eigenvalues --    2.81062   2.83402   2.84113   2.85585   2.89072
 Alpha virt. eigenvalues --    2.89373   2.91251   2.93273   2.94097   2.94454
 Alpha virt. eigenvalues --    2.95529   2.96043   2.96401   2.97725   2.98593
 Alpha virt. eigenvalues --    3.01271   3.04764   3.05268   3.06457   3.07068
 Alpha virt. eigenvalues --    3.07644   3.08579   3.10411   3.14552   3.15194
 Alpha virt. eigenvalues --    3.17947   3.20298   3.21043   3.23163   3.27309
 Alpha virt. eigenvalues --    3.30030   3.30479   3.32171   3.32836   3.41712
 Alpha virt. eigenvalues --    3.51511   3.52912   3.55507   4.04680   4.06306
 Alpha virt. eigenvalues --    4.11767   4.13815   4.19053   4.27010   4.29772
 Alpha virt. eigenvalues --    4.32262   4.35202   4.42447   4.46232   4.48027
 Alpha virt. eigenvalues --    4.55153   4.58660   4.61306   4.66293   4.74753
 Alpha virt. eigenvalues --    4.83425   4.85633   4.93063   5.05409   5.22317
 Alpha virt. eigenvalues --    5.39480   5.47292   5.77456   6.26596   6.39813
          Condensed to atoms (all electrons):
               1          2          3          4          5          6
     1  O    8.059050   0.607696  -0.088746   0.000691  -0.000604   0.000378
     2  C    0.607696   4.186211   0.226483  -0.015200   0.004332  -0.031286
     3  N   -0.088746   0.226483   7.402954   0.235911  -0.065145   0.232746
     4  C    0.000691  -0.015200   0.235911   4.491410   0.282194  -0.012544
     5  F   -0.000604   0.004332  -0.065145   0.282194   9.139403   0.006856
     6  C    0.000378  -0.031286   0.232746  -0.012544   0.006856   4.180113
     7  O   -0.000025   0.000552  -0.086293  -0.002332  -0.000577   0.589598
     8  N    0.000019   0.001029  -0.093897   0.002006  -0.000078   0.190260
     9  C    0.000001   0.000439   0.002303  -0.000069   0.000001  -0.001001
    10  F    0.000000   0.000002  -0.000034   0.000005   0.000000   0.004859
    11  F    0.000000   0.000016   0.000015   0.000002   0.000000   0.006277
    12  C    0.000000  -0.000017  -0.000078   0.000001   0.000000   0.003731
    13  F    0.000000   0.000000   0.000000   0.000000   0.000000  -0.000058
    14  O    0.000000   0.000003  -0.000004   0.000000   0.000000  -0.000060
    15  C    0.000000   0.000000   0.000000   0.000000   0.000000   0.000002
    16  F    0.000000   0.000000   0.000000   0.000000   0.000000   0.000000
    17  F    0.000000   0.000000   0.000000   0.000000   0.000000   0.000000
    18  F    0.000000   0.000000   0.000000   0.000000   0.000000   0.000000
    19  C    0.000000   0.000000   0.000000   0.000000   0.000000  -0.000072
    20  F    0.000000   0.000000   0.000000   0.000000   0.000000   0.000000
    21  F    0.000000   0.000000   0.000000   0.000000   0.000000   0.000003
    22  F    0.000000   0.000000   0.000000   0.000000   0.000000   0.000006
    23  C    0.000370  -0.034902  -0.001247   0.000591   0.000030  -0.015467
    24  O   -0.000026   0.000187   0.000085   0.000003   0.000000  -0.000095
    25  N   -0.087815   0.219024  -0.098606   0.002364  -0.000039  -0.001210
    26  C    0.000290  -0.014205   0.002408  -0.000073   0.000001  -0.000076
    27  F   -0.000819   0.007311  -0.000054   0.000002   0.000000  -0.000002
    28  H    0.008891  -0.008893  -0.035434   0.380929  -0.032543   0.006597
    29  H    0.000469   0.006431  -0.035623   0.381962  -0.032723  -0.010163
    30  H    0.009508  -0.011454   0.000474  -0.000003   0.000000  -0.000015
    31  H    0.000426   0.007114  -0.000139   0.000001   0.000000   0.000002
               7          8          9         10         11         12
     1  O   -0.000025   0.000019   0.000001   0.000000   0.000000   0.000000
     2  C    0.000552   0.001029   0.000439   0.000002   0.000016  -0.000017
     3  N   -0.086293  -0.093897   0.002303  -0.000034   0.000015  -0.000078
     4  C   -0.002332   0.002006  -0.000069   0.000005   0.000002   0.000001
     5  F   -0.000577  -0.000078   0.000001   0.000000   0.000000   0.000000
     6  C    0.589598   0.190260  -0.001001   0.004859   0.006277   0.003731
     7  O    8.061214  -0.087127   0.017720  -0.011544  -0.002856   0.000273
     8  N   -0.087127   7.588810   0.165941  -0.038360  -0.067166  -0.029281
     9  C    0.017720   0.165941   4.284587   0.253419   0.286890   0.246954
    10  F   -0.011544  -0.038360   0.253419   9.123954  -0.036244  -0.035872
    11  F   -0.002856  -0.067166   0.286890  -0.036244   9.093312  -0.025800
    12  C    0.000273  -0.029281   0.246954  -0.035872  -0.025800   4.967914
    13  F    0.000000  -0.001384  -0.020718   0.000331   0.000143   0.200254
    14  O    0.000000  -0.001489  -0.026749   0.000681   0.000550   0.131983
    15  C    0.000000  -0.000065   0.000895  -0.000033   0.000004  -0.000184
    16  F    0.000000   0.000001  -0.000128   0.000001   0.000000  -0.009065
    17  F    0.000000   0.000000  -0.000046   0.000000   0.000000   0.000596
    18  F    0.000000  -0.000002   0.000240   0.000000   0.000000   0.012840
    19  C   -0.000002   0.002276  -0.024946   0.012069  -0.004522   0.220898
    20  F    0.000000  -0.000008   0.001388   0.000004  -0.000002  -0.031578
    21  F    0.000000  -0.000050  -0.002229  -0.002873  -0.000014  -0.034586
    22  F    0.000000   0.000047   0.010179  -0.001838  -0.000486  -0.034166
    23  C   -0.000292   0.210014  -0.009151   0.001870   0.004869  -0.009319
    24  O   -0.000023  -0.092137   0.010255   0.000025  -0.000622   0.009826
    25  N    0.000123  -0.101286   0.002905  -0.000023  -0.000013  -0.000206
    26  C    0.000002   0.002773   0.000010   0.000000   0.000000  -0.000011
    27  F    0.000000  -0.000007   0.000001   0.000000   0.000000   0.000000
    28  H    0.000446  -0.000120   0.000001   0.000000   0.000000   0.000000
    29  H    0.010560   0.000521  -0.000005   0.000004   0.000000   0.000000
    30  H    0.000000  -0.000092   0.000000   0.000000   0.000000   0.000000
    31  H    0.000000   0.000313  -0.000003   0.000000   0.000000  -0.000005
              13         14         15         16         17         18
     1  O    0.000000   0.000000   0.000000   0.000000   0.000000   0.000000
     2  C    0.000000   0.000003   0.000000   0.000000   0.000000   0.000000
     3  N    0.000000  -0.000004   0.000000   0.000000   0.000000   0.000000
     4  C    0.000000   0.000000   0.000000   0.000000   0.000000   0.000000
     5  F    0.000000   0.000000   0.000000   0.000000   0.000000   0.000000
     6  C   -0.000058  -0.000060   0.000002   0.000000   0.000000   0.000000
     7  O    0.000000   0.000000   0.000000   0.000000   0.000000   0.000000
     8  N   -0.001384  -0.001489  -0.000065   0.000001   0.000000  -0.000002
     9  C   -0.020718  -0.026749   0.000895  -0.000128  -0.000046   0.000240
    10  F    0.000331   0.000681  -0.000033   0.000001   0.000000   0.000000
    11  F    0.000143   0.000550   0.000004   0.000000   0.000000   0.000000
    12  C    0.200254   0.131983  -0.000184  -0.009065   0.000596   0.012840
    13  F    9.144639  -0.043497  -0.001082  -0.000021  -0.000021  -0.002998
    14  O   -0.043497   8.380654   0.234896  -0.048069  -0.039719  -0.044296
    15  C   -0.001082   0.234896   3.819143   0.303827   0.338207   0.299429
    16  F   -0.000021  -0.048069   0.303827   9.058756  -0.037837  -0.034315
    17  F   -0.000021  -0.039719   0.338207  -0.037837   9.015916  -0.036385
    18  F   -0.002998  -0.044296   0.299429  -0.034315  -0.036385   9.048921
    19  C   -0.010349  -0.025196  -0.002441   0.017224  -0.000034  -0.004742
    20  F   -0.000396  -0.001435   0.011429  -0.005945  -0.000002  -0.001107
    21  F    0.000315   0.000377  -0.000301  -0.000479   0.000000   0.000013
    22  F   -0.000292   0.000547   0.000063   0.000000   0.000000   0.000001
    23  C    0.003592   0.004660   0.000119   0.000002  -0.000006   0.000007
    24  O   -0.013988  -0.005127   0.000613   0.000000  -0.000006  -0.000027
    25  N   -0.000002  -0.000218  -0.000006   0.000000   0.000000   0.000000
    26  C    0.000003   0.000004   0.000000   0.000000   0.000000   0.000000
    27  F    0.000000   0.000000   0.000000   0.000000   0.000000   0.000000
    28  H    0.000000   0.000000   0.000000   0.000000   0.000000   0.000000
    29  H    0.000000   0.000000   0.000000   0.000000   0.000000   0.000000
    30  H    0.000000   0.000000   0.000000   0.000000   0.000000   0.000000
    31  H    0.000000  -0.000004   0.000003   0.000000   0.000000   0.000000
              19         20         21         22         23         24
     1  O    0.000000   0.000000   0.000000   0.000000   0.000370  -0.000026
     2  C    0.000000   0.000000   0.000000   0.000000  -0.034902   0.000187
     3  N    0.000000   0.000000   0.000000   0.000000  -0.001247   0.000085
     4  C    0.000000   0.000000   0.000000   0.000000   0.000591   0.000003
     5  F    0.000000   0.000000   0.000000   0.000000   0.000030   0.000000
     6  C   -0.000072   0.000000   0.000003   0.000006  -0.015467  -0.000095
     7  O   -0.000002   0.000000   0.000000   0.000000  -0.000292  -0.000023
     8  N    0.002276  -0.000008  -0.000050   0.000047   0.210014  -0.092137
     9  C   -0.024946   0.001388  -0.002229   0.010179  -0.009151   0.010255
    10  F    0.012069   0.000004  -0.002873  -0.001838   0.001870   0.000025
    11  F   -0.004522  -0.000002  -0.000014  -0.000486   0.004869  -0.000622
    12  C    0.220898  -0.031578  -0.034586  -0.034166  -0.009319   0.009826
    13  F   -0.010349  -0.000396   0.000315  -0.000292   0.003592  -0.013988
    14  O   -0.025196  -0.001435   0.000377   0.000547   0.004660  -0.005127
    15  C   -0.002441   0.011429  -0.000301   0.000063   0.000119   0.000613
    16  F    0.017224  -0.005945  -0.000479   0.000000   0.000002   0.000000
    17  F   -0.000034  -0.000002   0.000000   0.000000  -0.000006  -0.000006
    18  F   -0.004742  -0.001107   0.000013   0.000001   0.000007  -0.000027
    19  C    4.157353   0.283171   0.271983   0.290449   0.000303   0.000356
    20  F    0.283171   9.081461  -0.039180  -0.038718  -0.000001   0.000000
    21  F    0.271983  -0.039180   9.090824  -0.037131   0.000000   0.000000
    22  F    0.290449  -0.038718  -0.037131   9.053190  -0.000002   0.000000
    23  C    0.000303  -0.000001   0.000000  -0.000002   4.198704   0.594723
    24  O    0.000356   0.000000   0.000000   0.000000   0.594723   8.073918
    25  N    0.000000   0.000000   0.000000   0.000000   0.214208  -0.092137
    26  C    0.000000   0.000000   0.000000   0.000000  -0.016887   0.001571
    27  F    0.000000   0.000000   0.000000   0.000000   0.005527  -0.000760
    28  H    0.000000   0.000000   0.000000   0.000000  -0.000022   0.000000
    29  H    0.000000   0.000000   0.000000   0.000000  -0.000028   0.000000
    30  H    0.000000   0.000000   0.000000   0.000000   0.007262   0.000456
    31  H    0.000000   0.000000   0.000000   0.000000  -0.010796   0.007614
              25         26         27         28         29         30
     1  O   -0.087815   0.000290  -0.000819   0.008891   0.000469   0.009508
     2  C    0.219024  -0.014205   0.007311  -0.008893   0.006431  -0.011454
     3  N   -0.098606   0.002408  -0.000054  -0.035434  -0.035623   0.000474
     4  C    0.002364  -0.000073   0.000002   0.380929   0.381962  -0.000003
     5  F   -0.000039   0.000001   0.000000  -0.032543  -0.032723   0.000000
     6  C   -0.001210  -0.000076  -0.000002   0.006597  -0.010163  -0.000015
     7  O    0.000123   0.000002   0.000000   0.000446   0.010560   0.000000
     8  N   -0.101286   0.002773  -0.000007  -0.000120   0.000521  -0.000092
     9  C    0.002905   0.000010   0.000001   0.000001  -0.000005   0.000000
    10  F   -0.000023   0.000000   0.000000   0.000000   0.000004   0.000000
    11  F   -0.000013   0.000000   0.000000   0.000000   0.000000   0.000000
    12  C   -0.000206  -0.000011   0.000000   0.000000   0.000000   0.000000
    13  F   -0.000002   0.000003   0.000000   0.000000   0.000000   0.000000
    14  O   -0.000218   0.000004   0.000000   0.000000   0.000000   0.000000
    15  C   -0.000006   0.000000   0.000000   0.000000   0.000000   0.000000
    16  F    0.000000   0.000000   0.000000   0.000000   0.000000   0.000000
    17  F    0.000000   0.000000   0.000000   0.000000   0.000000   0.000000
    18  F    0.000000   0.000000   0.000000   0.000000   0.000000   0.000000
    19  C    0.000000   0.000000   0.000000   0.000000   0.000000   0.000000
    20  F    0.000000   0.000000   0.000000   0.000000   0.000000   0.000000
    21  F    0.000000   0.000000   0.000000   0.000000   0.000000   0.000000
    22  F    0.000000   0.000000   0.000000   0.000000   0.000000   0.000000
    23  C    0.214208  -0.016887   0.005527  -0.000022  -0.000028   0.007262
    24  O   -0.092137   0.001571  -0.000760   0.000000   0.000000   0.000456
    25  N    7.439588   0.236074  -0.066223   0.000465  -0.000101  -0.034472
    26  C    0.236074   4.486159   0.281657  -0.000001   0.000001   0.382543
    27  F   -0.066223   0.281657   9.138967   0.000000   0.000000  -0.032507
    28  H    0.000465  -0.000001   0.000000   0.568610  -0.044240   0.000000
    29  H   -0.000101   0.000001   0.000000  -0.044240   0.565002   0.000000
    30  H   -0.034472   0.382543  -0.032507   0.000000   0.000000   0.565691
    31  H   -0.034424   0.382210  -0.032613   0.000000   0.000000  -0.044778
              31
     1  O    0.000426
     2  C    0.007114
     3  N   -0.000139
     4  C    0.000001
     5  F    0.000000
     6  C    0.000002
     7  O    0.000000
     8  N    0.000313
     9  C   -0.000003
    10  F    0.000000
    11  F    0.000000
    12  C   -0.000005
    13  F    0.000000
    14  O   -0.000004
    15  C    0.000003
    16  F    0.000000
    17  F    0.000000
    18  F    0.000000
    19  C    0.000000
    20  F    0.000000
    21  F    0.000000
    22  F    0.000000
    23  C   -0.010796
    24  O    0.007614
    25  N   -0.034424
    26  C    0.382210
    27  F   -0.032613
    28  H    0.000000
    29  H    0.000000
    30  H   -0.044778
    31  H    0.571506
 Mulliken charges:
               1
     1  O   -0.509754
     2  C    0.849126
     3  N   -0.598081
     4  C    0.252152
     5  F   -0.301106
     6  C    0.850625
     7  O   -0.489417
     8  N   -0.651459
     9  C    0.800916
    10  F   -0.270401
    11  F   -0.254352
    12  C    0.414900
    13  F   -0.254473
    14  O   -0.518492
    15  C    0.995484
    16  F   -0.243952
    17  F   -0.240664
    18  F   -0.237578
    19  C    0.816222
    20  F   -0.259079
    21  F   -0.246671
    22  F   -0.241849
    23  C    0.851273
    24  O   -0.494681
    25  N   -0.597968
    26  C    0.255547
    27  F   -0.300479
    28  H    0.155313
    29  H    0.157934
    30  H    0.157388
    31  H    0.153575
 Sum of Mulliken charges =   0.00000
 Mulliken charges with hydrogens summed into heavy atoms:
               1
     1  O   -0.509754
     2  C    0.849126
     3  N   -0.598081
     4  C    0.565399
     5  F   -0.301106
     6  C    0.850625
     7  O   -0.489417
     8  N   -0.651459
     9  C    0.800916
    10  F   -0.270401
    11  F   -0.254352
    12  C    0.414900
    13  F   -0.254473
    14  O   -0.518492
    15  C    0.995484
    16  F   -0.243952
    17  F   -0.240664
    18  F   -0.237578
    19  C    0.816222
    20  F   -0.259079
    21  F   -0.246671
    22  F   -0.241849
    23  C    0.851273
    24  O   -0.494681
    25  N   -0.597968
    26  C    0.566510
    27  F   -0.300479
 Electronic spatial extent (au):  <R**2>=           9087.6086
 Charge=              0.0000 electrons
 Dipole moment (field-independent basis, Debye):
    X=             -1.1743    Y=              1.2600    Z=              0.5543  Tot=              1.8093
 Quadrupole moment (field-independent basis, Debye-Ang):
   XX=           -147.9616   YY=           -146.2037   ZZ=           -149.4463
   XY=              4.2171   XZ=              4.7198   YZ=              6.7057
 Traceless Quadrupole moment (field-independent basis, Debye-Ang):
   XX=             -0.0911   YY=              1.6668   ZZ=             -1.5758
   XY=              4.2171   XZ=              4.7198   YZ=              6.7057
 Octapole moment (field-independent basis, Debye-Ang**2):
  XXX=           -139.6617  YYY=             71.9163  ZZZ=             53.6931  XYY=            -65.3596
  XXY=            -21.8699  XXZ=             -0.6649  XZZ=            -39.8481  YZZ=              2.2102
  YYZ=             25.6041  XYZ=            -14.7055
 Hexadecapole moment (field-independent basis, Debye-Ang**3):
 XXXX=          -6557.3506 YYYY=          -2190.5545 ZZZZ=           -957.4486 XXXY=            209.3078
 XXXZ=           -101.6028 YYYX=            -19.3804 YYYZ=             46.8423 ZZZX=           -177.7050
 ZZZY=             60.9193 XXYY=          -1391.8973 XXZZ=          -1281.7051 YYZZ=           -571.1435
 XXYZ=             75.0594 YYXZ=            -60.9249 ZZXY=             11.9888
 N-N= 3.163442371430D+03 E-N=-1.083302844038D+04  KE= 1.894268993213D+03
 No NMR shielding tensors so no spin-rotation constants.
 Leave Link  601 at Sun Mar  3 17:57:29 2024, MaxMem=  5368709120 cpu:         3.2
 (Enter /home/k0335/k033513/app/g09/l9999.exe)
 1\1\GINC-C18U05N1\SP\RCAM-B3LYP\6-31G(d,p)\C9H4F11N3O4\K033513\03-Mar-
 2024\0\\#p CAM-B3LYP/6-31G(d,p) SCRF=(PCM,Solvent=Generic,Read) NoSymm
  out=wfn\\Title A904173282_0\\0,1\O,0,-4.008089,0.911027,0.120785\C,0,
 -2.886331,0.459964,-0.10788\N,0,-2.601283,-0.879246,-0.022694\C,0,-3.6
 72623,-1.781126,0.321533\F,0,-3.683954,-1.930444,1.674256\C,0,-1.35126
 9,-1.407719,-0.247786\O,0,-1.193568,-2.621191,-0.376496\N,0,-0.316432,
 -0.502312,-0.358278\C,0,1.013948,-1.085217,-0.539527\F,0,1.114836,-2.1
 17333,0.355197\F,0,1.070784,-1.65119,-1.776518\C,0,2.272957,-0.203985,
 -0.316102\F,0,2.471594,0.607225,-1.395619\O,0,2.052077,0.639024,0.8265
 71\C,0,3.197894,1.365756,1.191773\F,0,4.017697,0.564643,1.891842\F,0,2
 .814663,2.384042,1.984905\F,0,3.837977,1.861786,0.123906\C,0,3.45687,-
 1.179285,-0.225431\F,0,4.639594,-0.515563,-0.226829\F,0,3.430935,-1.90
 5458,0.915346\F,0,3.504327,-2.043923,-1.26154\C,0,-0.571276,0.78977,-0
 .734532\O,0,0.273747,1.50405,-1.265149\N,0,-1.839493,1.261322,-0.49181
 6\C,0,-2.133806,2.634956,-0.817887\F,0,-2.531569,2.693389,-2.117313\H,
 0,-4.648104,-1.391413,0.016261\H,0,-3.536769,-2.770007,-0.125293\H,0,-
 2.94165,3.033985,-0.197534\H,0,-1.253683,3.274472,-0.702132\\Version=E
 S64L-G09RevD.01\HF=-1908.2250511\RMSD=7.621e-09\Dipole=-0.4619864,0.49
 57203,0.2180823\Quadrupole=-0.0677102,1.2392461,-1.171536,3.1353399,3.
 5090441,4.9855076\PG=C01 [X(C9H4F11N3O4)]\\@

 Writing a WFN file to "A904173282/A904173282_0.wfn"


 A ROPE OVER THE TOP OF A FENCE HAS THE SAME LENGTH ON EACH SIDE.
 WEIGHS 1/3 POUND PER FOOT.  ON ONE END HANGS A MONKEY HOLDING A
 BANANA, AND ON THE OTHER END A WEIGHT EQUAL TO THE WEIGHT
 OF THE MONKEY.  THE BANANA WEIGHS TWO OUNCES PER INCH.
 THE ROPE IS AS LONG AS THE AGE OF THE MONKEY, 
 AND THE WEIGHT OF THE MONKEY (IN OUNCES) IS AS MUCH
 AS THE AGE OF THE MONKEY'S MOTHER.  THE COMBINED AGES OF MONKEY
 AND MOTHER ARE THIRTY YEARS.  HALF THE WEIGHT OF THE MONKEY,
  PLUS THE WEIGHT OF THE BANANA, IS ONE FOURTH AS MUCH AS THE WEIGHT
 OF THE WEIGHT AND THE ROPE.
 THE MONKEY'S MOTHER IS HALF AS OLD AS THE MONKEY WILL BE
 WHEN IT IS 3 TIMES AS OLD AS ITS MOTHER WAS WHEN
 SHE WAS HALF AS OLD AS THE MONKEY WILL BE WHEN IT IS
 AS OLD AS ITS MOTHER WILL BE WHEN SHE IS 4 TIMES AS
 OLD AS THE MONKEY WAS WHEN IT WAS TWICE AS OLD AS 
 ITS MOTHER WAS WHEN SHE WAS ONE THIRD AS OLD AS THE
 MONKEY WAS WHEN IT WAS AS OLD AS ITS MOTHER WAS WHEN 
 SHE WAS 3 TIMES AS OLD AS THE MONKEY WAS WHEN IT WAS AS OLD AS ITS
 MOTHER WAS WHEN SHE WAS 3 TIMES AS OLD AS THE MONKEY 
 WAS WHEN IT WAS ONE FOURTH WAS OLD AS IT IS NOW.

 HOW LONG IS THE BANANA?
 Job cpu time:       0 days  0 hours 10 minutes 30.4 seconds.
 File lengths (MBytes):  RWF=    220 Int=      0 D2E=      0 Chk=      8 Scr=      1
 Normal termination of Gaussian 09 at Sun Mar  3 17:57:30 2024.
