 Entering Gaussian System, Link 0=g09
 Initial command:
 /home/k0335/k033513/app/g09/l1.exe "/home/k0335/k033513/app/g09/scratch/Gau-656572.inp" -scrdir="/home/k0335/k033513/app/g09/scratch/"
 Default is to use a total of  36 processors:
                               36 via shared-memory
                                1 via Linda
 Entering Link 1 = /home/k0335/k033513/app/g09/l1.exe PID=    656573.
  
 Copyright (c) 1988,1990,1992,1993,1995,1998,2003,2009,2013,
            Gaussian, Inc.  All Rights Reserved.
  
 This is part of the Gaussian(R) 09 program.  It is based on
 the Gaussian(R) 03 system (copyright 2003, Gaussian, Inc.),
 the Gaussian(R) 98 system (copyright 1998, Gaussian, Inc.),
 the Gaussian(R) 94 system (copyright 1995, Gaussian, Inc.),
 the Gaussian 92(TM) system (copyright 1992, Gaussian, Inc.),
 the Gaussian 90(TM) system (copyright 1990, Gaussian, Inc.),
 the Gaussian 88(TM) system (copyright 1988, Gaussian, Inc.),
 the Gaussian 86(TM) system (copyright 1986, Carnegie Mellon
 University), and the Gaussian 82(TM) system (copyright 1983,
 Carnegie Mellon University). Gaussian is a federally registered
 trademark of Gaussian, Inc.
  
 This software contains proprietary and confidential information,
 including trade secrets, belonging to Gaussian, Inc.
  
 This software is provided under written license and may be
 used, copied, transmitted, or stored only in accord with that
 written license.
  
 The following legend is applicable only to US Government
 contracts under FAR:
  
                    RESTRICTED RIGHTS LEGEND
  
 Use, reproduction and disclosure by the US Government is
 subject to restrictions as set forth in subparagraphs (a)
 and (c) of the Commercial Computer Software - Restricted
 Rights clause in FAR 52.227-19.
  
 Gaussian, Inc.
 340 Quinnipiac St., Bldg. 40, Wallingford CT 06492
  
  
 ---------------------------------------------------------------
 Warning -- This program may not be used in any manner that
 competes with the business of Gaussian, Inc. or will provide
 assistance to any competitor of Gaussian, Inc.  The licensee
 of this program is prohibited from giving any competitor of
 Gaussian, Inc. access to this program.  By using this program,
 the user acknowledges that Gaussian, Inc. is engaged in the
 business of creating and licensing software in the field of
 computational chemistry and represents and warrants to the
 licensee that it is not a competitor of Gaussian, Inc. and that
 it will not use this program in any manner prohibited above.
 ---------------------------------------------------------------
  

 Cite this work as:
 Gaussian 09, Revision D.01,
 M. J. Frisch, G. W. Trucks, H. B. Schlegel, G. E. Scuseria, 
 M. A. Robb, J. R. Cheeseman, G. Scalmani, V. Barone, B. Mennucci, 
 G. A. Petersson, H. Nakatsuji, M. Caricato, X. Li, H. P. Hratchian, 
 A. F. Izmaylov, J. Bloino, G. Zheng, J. L. Sonnenberg, M. Hada, 
 M. Ehara, K. Toyota, R. Fukuda, J. Hasegawa, M. Ishida, T. Nakajima, 
 Y. Honda, O. Kitao, H. Nakai, T. Vreven, J. A. Montgomery, Jr., 
 J. E. Peralta, F. Ogliaro, M. Bearpark, J. J. Heyd, E. Brothers, 
 K. N. Kudin, V. N. Staroverov, T. Keith, R. Kobayashi, J. Normand, 
 K. Raghavachari, A. Rendell, J. C. Burant, S. S. Iyengar, J. Tomasi, 
 M. Cossi, N. Rega, J. M. Millam, M. Klene, J. E. Knox, J. B. Cross, 
 V. Bakken, C. Adamo, J. Jaramillo, R. Gomperts, R. E. Stratmann, 
 O. Yazyev, A. J. Austin, R. Cammi, C. Pomelli, J. W. Ochterski, 
 R. L. Martin, K. Morokuma, V. G. Zakrzewski, G. A. Voth, 
 P. Salvador, J. J. Dannenberg, S. Dapprich, A. D. Daniels, 
 O. Farkas, J. B. Foresman, J. V. Ortiz, J. Cioslowski, 
 and D. J. Fox, Gaussian, Inc., Wallingford CT, 2013.
 
 ******************************************
 Gaussian 09:  ES64L-G09RevD.01 24-Apr-2013
                 3-Mar-2024 
 ******************************************
 %nprocshared=24
 Will use up to   24 processors via shared memory.
 %mem=40GB
 %rwf=A584720882/A584720882_0.rwf
 %nosave
 %chk=A584720882/A584720882_0.chk
 ----------------------------------------------------------------------
 #p CAM-B3LYP/6-31G(d,p) SCRF=(PCM,Solvent=Generic,Read) NoSymm out=wfn
 ----------------------------------------------------------------------
 1/38=1,40=2/1;
 2/12=2,15=1,17=6,18=5,40=1/2;
 3/5=1,6=6,7=101,11=2,16=1,25=1,30=1,70=2203,72=-2,74=-40/1,2,3;
 4//1;
 5/5=2,38=5/2;
 6/7=2,8=2,9=2,10=2,28=1/1;
 99/5=1,6=100,9=1/99;
 Leave Link    1 at Sun Mar  3 18:07:22 2024, MaxMem=  5368709120 cpu:         1.1
 (Enter /home/k0335/k033513/app/g09/l101.exe)
 ------------------
 Title A584720882_0
 ------------------
 Symbolic Z-matrix:
 Charge =  0 Multiplicity = 1
 C                     0.16494  -4.61813  -0.21854 
 C                    -0.6334   -3.56561  -0.00472 
 N                    -0.32553  -2.2016   -0.10746 
 C                    -1.37365  -1.29732   0.07551 
 O                    -2.54732  -1.65984   0.11108 
 N                    -1.03031   0.02106   0.19457 
 C                    -2.0089    1.04183   0.5747 
 F                    -1.29619   1.9814    1.27281 
 F                    -2.44717   1.68112  -0.54221 
 C                    -3.22734   0.67042   1.47152 
 F                    -2.75185  -0.12351   2.49837 
 O                    -4.31765  -0.08967   0.94088 
 C                    -4.8321    0.3602   -0.28366 
 F                    -5.08288   1.67467  -0.23308 
 F                    -5.98466  -0.28743  -0.53292 
 F                    -3.96708   0.10202  -1.27797 
 C                    -3.70866   1.98336   2.11698 
 F                    -3.89179   2.98247   1.22986 
 F                    -4.88941   1.80077   2.7613 
 F                    -2.8356    2.43874   3.04778 
 C                     0.10229   0.49421  -0.42359 
 O                     0.27016   1.68561  -0.66953 
 N                     1.05429  -0.42835  -0.75995 
 C                     2.34681   0.03937  -1.2451 
 F                     2.84376  -0.94058  -2.07073 
 F                     2.16448   1.08102  -2.10068 
 C                     3.44293   0.372    -0.18746 
 F                     3.29612  -0.49485   0.87562 
 O                     4.78245   0.08919  -0.62864 
 C                     5.29295   1.00644  -1.56091 
 F                     5.55444   2.17315  -0.95328 
 F                     6.43758   0.51535  -2.06767 
 F                     4.42495   1.20051  -2.56095 
 C                     3.22329   1.77178   0.38458 
 F                     4.22609   2.09998   1.23831 
 F                     3.17849   2.7296   -0.56055 
 F                     2.08199   1.8348    1.10745 
 C                     0.9678   -1.74247  -0.35481 
 O                     1.98315  -2.42032  -0.20799 
 H                     1.20567  -4.54882  -0.51312 
 H                    -0.22656  -5.62556  -0.10382 
 H                    -1.66659  -3.78703   0.26802 
 
 NAtoms=     42 NQM=       42 NQMF=       0 NMMI=      0 NMMIF=      0
                NMic=       0 NMicF=      0.
                    Isotopes and Nuclear Properties:
 (Nuclear quadrupole moments (NQMom) in fm**2, nuclear magnetic moments (NMagM)
  in nuclear magnetons)

  Atom         1           2           3           4           5           6           7           8           9          10
 IAtWgt=          12          12          14          12          16          14          12          19          19          12
 AtmWgt=  12.0000000  12.0000000  14.0030740  12.0000000  15.9949146  14.0030740  12.0000000  18.9984033  18.9984033  12.0000000
 NucSpn=           0           0           2           0           0           2           0           1           1           0
 AtZEff=   0.0000000   0.0000000   0.0000000   0.0000000   0.0000000   0.0000000   0.0000000   0.0000000   0.0000000   0.0000000
 NQMom=    0.0000000   0.0000000   2.0440000   0.0000000   0.0000000   2.0440000   0.0000000   0.0000000   0.0000000   0.0000000
 NMagM=    0.0000000   0.0000000   0.4037610   0.0000000   0.0000000   0.4037610   0.0000000   2.6288670   2.6288670   0.0000000
 AtZNuc=   6.0000000   6.0000000   7.0000000   6.0000000   8.0000000   7.0000000   6.0000000   9.0000000   9.0000000   6.0000000

  Atom        11          12          13          14          15          16          17          18          19          20
 IAtWgt=          19          16          12          19          19          19          12          19          19          19
 AtmWgt=  18.9984033  15.9949146  12.0000000  18.9984033  18.9984033  18.9984033  12.0000000  18.9984033  18.9984033  18.9984033
 NucSpn=           1           0           0           1           1           1           0           1           1           1
 AtZEff=   0.0000000   0.0000000   0.0000000   0.0000000   0.0000000   0.0000000   0.0000000   0.0000000   0.0000000   0.0000000
 NQMom=    0.0000000   0.0000000   0.0000000   0.0000000   0.0000000   0.0000000   0.0000000   0.0000000   0.0000000   0.0000000
 NMagM=    2.6288670   0.0000000   0.0000000   2.6288670   2.6288670   2.6288670   0.0000000   2.6288670   2.6288670   2.6288670
 AtZNuc=   9.0000000   8.0000000   6.0000000   9.0000000   9.0000000   9.0000000   6.0000000   9.0000000   9.0000000   9.0000000

  Atom        21          22          23          24          25          26          27          28          29          30
 IAtWgt=          12          16          14          12          19          19          12          19          16          12
 AtmWgt=  12.0000000  15.9949146  14.0030740  12.0000000  18.9984033  18.9984033  12.0000000  18.9984033  15.9949146  12.0000000
 NucSpn=           0           0           2           0           1           1           0           1           0           0
 AtZEff=   0.0000000   0.0000000   0.0000000   0.0000000   0.0000000   0.0000000   0.0000000   0.0000000   0.0000000   0.0000000
 NQMom=    0.0000000   0.0000000   2.0440000   0.0000000   0.0000000   0.0000000   0.0000000   0.0000000   0.0000000   0.0000000
 NMagM=    0.0000000   0.0000000   0.4037610   0.0000000   2.6288670   2.6288670   0.0000000   2.6288670   0.0000000   0.0000000
 AtZNuc=   6.0000000   8.0000000   7.0000000   6.0000000   9.0000000   9.0000000   6.0000000   9.0000000   8.0000000   6.0000000

  Atom        31          32          33          34          35          36          37          38          39          40
 IAtWgt=          19          19          19          12          19          19          19          12          16           1
 AtmWgt=  18.9984033  18.9984033  18.9984033  12.0000000  18.9984033  18.9984033  18.9984033  12.0000000  15.9949146   1.0078250
 NucSpn=           1           1           1           0           1           1           1           0           0           1
 AtZEff=   0.0000000   0.0000000   0.0000000   0.0000000   0.0000000   0.0000000   0.0000000   0.0000000   0.0000000   0.0000000
 NQMom=    0.0000000   0.0000000   0.0000000   0.0000000   0.0000000   0.0000000   0.0000000   0.0000000   0.0000000   0.0000000
 NMagM=    2.6288670   2.6288670   2.6288670   0.0000000   2.6288670   2.6288670   2.6288670   0.0000000   0.0000000   2.7928460
 AtZNuc=   9.0000000   9.0000000   9.0000000   6.0000000   9.0000000   9.0000000   9.0000000   6.0000000   8.0000000   1.0000000

  Atom        41          42
 IAtWgt=           1           1
 AtmWgt=   1.0078250   1.0078250
 NucSpn=           1           1
 AtZEff=   0.0000000   0.0000000
 NQMom=    0.0000000   0.0000000
 NMagM=    2.7928460   2.7928460
 AtZNuc=   1.0000000   1.0000000
 Leave Link  101 at Sun Mar  3 18:07:22 2024, MaxMem=  5368709120 cpu:         1.1
 (Enter /home/k0335/k033513/app/g09/l202.exe)
                          Input orientation:                          
 ---------------------------------------------------------------------
 Center     Atomic      Atomic             Coordinates (Angstroms)
 Number     Number       Type             X           Y           Z
 ---------------------------------------------------------------------
      1          6           0        0.164936   -4.618126   -0.218540
      2          6           0       -0.633397   -3.565605   -0.004724
      3          7           0       -0.325530   -2.201599   -0.107460
      4          6           0       -1.373652   -1.297323    0.075509
      5          8           0       -2.547321   -1.659844    0.111080
      6          7           0       -1.030309    0.021058    0.194570
      7          6           0       -2.008900    1.041828    0.574702
      8          9           0       -1.296188    1.981396    1.272809
      9          9           0       -2.447171    1.681123   -0.542208
     10          6           0       -3.227339    0.670424    1.471523
     11          9           0       -2.751848   -0.123505    2.498369
     12          8           0       -4.317650   -0.089666    0.940880
     13          6           0       -4.832102    0.360198   -0.283661
     14          9           0       -5.082881    1.674673   -0.233076
     15          9           0       -5.984656   -0.287428   -0.532916
     16          9           0       -3.967080    0.102016   -1.277971
     17          6           0       -3.708655    1.983363    2.116984
     18          9           0       -3.891785    2.982470    1.229856
     19          9           0       -4.889411    1.800773    2.761299
     20          9           0       -2.835603    2.438745    3.047782
     21          6           0        0.102294    0.494213   -0.423589
     22          8           0        0.270160    1.685607   -0.669526
     23          7           0        1.054290   -0.428351   -0.759951
     24          6           0        2.346805    0.039372   -1.245099
     25          9           0        2.843762   -0.940579   -2.070733
     26          9           0        2.164479    1.081021   -2.100678
     27          6           0        3.442932    0.372001   -0.187463
     28          9           0        3.296123   -0.494851    0.875615
     29          8           0        4.782454    0.089188   -0.628641
     30          6           0        5.292953    1.006441   -1.560906
     31          9           0        5.554440    2.173153   -0.953281
     32          9           0        6.437578    0.515345   -2.067673
     33          9           0        4.424946    1.200505   -2.560951
     34          6           0        3.223292    1.771784    0.384582
     35          9           0        4.226087    2.099978    1.238309
     36          9           0        3.178485    2.729600   -0.560554
     37          9           0        2.081994    1.834800    1.107451
     38          6           0        0.967798   -1.742472   -0.354813
     39          8           0        1.983147   -2.420319   -0.207986
     40          1           0        1.205673   -4.548820   -0.513116
     41          1           0       -0.226562   -5.625563   -0.103824
     42          1           0       -1.666585   -3.787026    0.268019
 ---------------------------------------------------------------------
                    Distance matrix (angstroms):
                    1          2          3          4          5
     1  C    0.000000
     2  C    1.338228   0.000000
     3  N    2.468299   1.402087   0.000000
     4  C    3.671709   2.387366   1.396335   0.000000
     5  O    4.026962   2.703413   2.297306   1.228896   0.000000
     6  N    4.808461   3.614057   2.351200   1.367548   2.265773
     7  C    6.114726   4.843158   3.717378   2.474745   2.793542
     8  F    6.921900   5.730672   4.510517   3.491350   4.021639
     9  F    6.827035   5.577349   4.445885   3.225703   3.405712
    10  C    6.506351   5.181871   4.377465   3.042538   2.782693
    11  F    6.007565   4.754089   4.122601   3.024487   2.846281
    12  O    6.476479   5.152673   4.636410   3.297640   2.507607
    13  C    7.053959   5.754899   5.186814   3.851916   3.075161
    14  F    8.193846   6.878268   6.137887   4.763021   4.203155
    15  F    7.528032   6.297730   5.989221   4.759352   3.756798
    16  F    6.362051   5.117230   4.465157   3.242827   2.655057
    17  C    8.002439   6.689537   5.823023   4.514727   4.318021
    18  F    8.736355   7.417450   6.432819   5.098052   4.960879
    19  F    8.696443   7.386647   6.713998   5.401132   4.948224
    20  F    8.334958   7.086588   6.147260   4.992986   5.050322
    21  C    5.116833   4.147145   2.747794   2.374261   3.456341
    22  O    6.320721   5.369693   3.972548   3.486412   4.442926
    23  N    4.317209   3.641568   2.339670   2.710721   3.904724
    24  C    5.244680   4.839007   3.668453   4.168040   5.355280
    25  F    4.912340   4.821804   3.935610   4.745545   5.860156
    26  F    6.326207   5.814832   4.576970   4.786510   5.882625
    27  C    5.970560   5.670502   4.564113   5.104437   6.332508
    28  F    5.291777   5.064154   4.122596   4.805302   6.007292
    29  O    6.606698   6.563401   5.622351   6.349479   7.571783
    30  C    7.728794   7.645059   6.631092   7.240774   8.448344
    31  F    8.701038   8.492493   7.377528   7.816717   9.025700
    32  F    8.313715   8.420724   7.547440   8.300260   9.497727
    33  F    7.582285   7.405196   6.337267   6.842061   7.995865
    34  C    7.109729   6.596463   5.350142   5.535959   6.719438
    35  F    7.984252   7.566938   6.405613   6.652130   7.828535
    36  F    7.949058   7.380311   6.066312   6.110862   7.245907
    37  F    6.861022   6.146109   4.854348   4.776671   5.885223
    38  C    2.988736   2.451571   1.394517   2.421925   3.546822
    39  O    2.852430   2.863442   2.321192   3.550998   4.604918
    40  H    1.083841   2.146474   2.831711   4.191853   4.777109
    41  H    1.086904   2.102085   3.425396   4.481254   4.599895
    42  H    2.069284   1.091281   2.110211   2.514258   2.307646
                    6          7          8          9         10
     6  N    0.000000
     7  C    1.464279   0.000000
     8  F    2.253046   1.370438   0.000000
     9  F    2.303509   1.359510   2.170072   0.000000
    10  C    2.622828   1.557826   2.342537   2.384384   0.000000
    11  F    2.879598   2.368643   2.837526   3.548890   1.382327
    12  O    3.372810   2.597054   3.678139   2.972194   1.431117
    13  C    3.846732   3.028511   4.189698   2.738537   2.398369
    14  F    4.397802   3.240734   4.086663   2.653784   2.712418
    15  F    5.016967   4.335940   5.512707   4.048343   3.540911
    16  F    3.286268   2.854840   4.143937   2.311936   2.903450
    17  C    3.836646   2.480784   2.555901   2.958715   1.540160
    18  F    4.246154   2.782189   2.782286   2.630708   2.417736
    19  F    4.964690   3.695206   3.893518   4.109989   2.388241
    20  F    4.152724   2.958199   2.393637   3.689566   2.401043
    21  C    1.374331   2.398668   2.654285   2.814711   3.835226
    22  O    2.282237   2.675195   2.512688   2.720316   4.224593
    23  N    2.336371   3.650460   3.932396   4.093595   4.951679
    24  C    3.671223   4.825843   4.835568   5.115819   6.232924
    25  F    4.589637   5.871677   6.070947   6.099482   7.211184
    26  F    4.074108   4.957448   4.916025   4.904719   6.480811
    27  C    4.503221   5.545452   5.213617   6.044250   6.879957
    28  F    4.409988   5.531293   5.232483   6.303214   6.653460
    29  O    5.871161   6.962618   6.644234   7.403324   8.300922
    30  C    6.635987   7.607834   7.238595   7.835972   9.050078
    31  F    7.021965   7.798637   7.205786   8.027257   9.233499
    32  F    7.818657   8.865795   8.550980   9.089821  10.293715
    33  F    6.224452   7.159041   6.931009   7.178601   8.665985
    34  C    4.603723   5.286286   4.610703   5.746417   6.633632
    35  F    5.748130   6.358861   5.523656   6.919397   7.592863
    36  F    5.061656   5.571925   4.893233   5.722556   7.028807
    37  F    3.716106   4.200957   3.385402   4.822689   5.447691
    38  C    2.721083   4.180557   4.652094   4.839229   5.172692
    39  O    3.899140   5.341863   5.685234   6.046590   6.286701
    40  H    5.136557   6.540044   7.217517   7.221932   7.129579
    41  H    5.711338   6.934784   7.804168   7.649245   7.150233
    42  H    3.861573   4.850677   5.866983   5.582691   4.873729
                   11         12         13         14         15
    11  F    0.000000
    12  O    2.208767   0.000000
    13  C    3.507295   1.402333   0.000000
    14  F    4.015962   2.253141   1.339139   0.000000
    15  F    4.434705   2.233852   1.345336   2.180124   0.000000
    16  F    3.973461   2.254538   1.342972   2.193187   2.185723
    17  C    2.345171   2.459989   3.108037   2.739812   4.166370
    18  F    3.543397   3.114946   3.170369   2.295477   4.263767
    19  F    2.888106   2.686000   3.369024   3.003267   4.051172
    20  F    2.621830   3.609482   4.405097   4.049456   5.492718
    21  C    4.131046   4.662467   4.938198   5.321261   6.137905
    22  O    4.737191   5.176196   5.285705   5.370815   6.560050
    23  N    5.019588   5.644933   5.958043   6.508854   7.044016
    24  C    6.327428   7.014992   7.250103   7.674545   8.368228
    25  F    7.270155   7.815349   7.987774   8.546824   8.985124
    26  F    6.839034   7.255314   7.264522   7.507635   8.410644
    27  C    6.770120   7.855758   8.275602   8.624878   9.456934
    28  F    6.272893   7.624826   8.254882   8.726038   9.389347
    29  O    8.160217   9.236194   9.624559   9.999753  10.774120
    30  C    9.081482   9.991200  10.225738  10.481775  11.398040
    31  F    9.283477  10.303706  10.564821  10.673321  11.806011
    32  F   10.281168  11.184470  11.411067  11.723087  12.542401
    33  F    8.880095   9.505806   9.570011   9.800133  10.709187
    34  C    6.615324   7.787186   8.205394   8.329672   9.479898
    35  F    7.431232   8.824877   9.348477   9.434127  10.634671
    36  F    7.257139   8.148288   8.358244   8.334883   9.647092
    37  F    5.397744   6.684816   7.205163   7.290959   8.500912
    38  C    4.959583   5.687403   6.169694   6.949994   7.105314
    39  O    5.917761   6.815562   7.361020   8.166905   8.254737
    40  H    6.656908   7.246051   7.784975   8.851904   8.358270
    41  H    6.589470   6.962368   7.554646   8.768922   7.863552
    42  H    4.424211   4.599061   5.246362   6.461604   5.615552
                   16         17         18         19         20
    16  F    0.000000
    17  C    3.889983   0.000000
    18  F    3.819932   1.348609   0.000000
    19  F    4.477965   1.357448   2.176461   0.000000
    20  F    5.045065   1.354982   2.171638   2.169610   0.000000
    21  C    4.176553   4.816161   4.987782   6.063640   4.945994
    22  O    4.564227   4.866648   4.755133   6.197176   4.902179
    23  N    5.075804   6.064550   6.329035   7.259186   6.152263
    24  C    6.314281   7.193838   7.328522   8.456748   7.144450
    25  F    6.935636   8.307862   8.464738   9.521844   8.359080
    26  F    6.263491   7.286741   7.168424   8.597338   7.304168
    27  C    7.494690   7.684540   7.913369   8.953465   7.359228
    28  F    7.599230   7.533224   7.992701   8.707965   7.135990
    29  O    8.773605   9.122789   9.330997  10.390678   8.779026
    30  C    9.308397   9.772932   9.800635  11.090219   9.453302
    31  F    9.749583   9.760506   9.728939  11.091023   9.299025
    32  F   10.442767  11.073052  11.120078  12.380306  10.763793
    33  F    8.560305   9.415488   9.312015  10.744483   9.257791
    34  C    7.566615   7.148278   7.266675   8.453731   6.651893
    35  F    8.800654   7.984097   8.165703   9.246693   7.297700
    36  F    7.647090   7.426896   7.297824   8.774302   7.019540
    37  F    6.729344   5.879868   6.084255   7.164974   5.320939
    38  C    5.348587   6.469995   6.960733   7.521412   6.597430
    39  O    6.550744   7.562705   8.110015   8.594552   7.578316
    40  H    6.998046   8.587052   9.259717   9.390909   8.822583
    41  H    6.940840   8.657524   9.450439   9.225051   9.042830
    42  H    4.775669   6.394225   7.190460   6.915674   6.917652
                   21         22         23         24         25
    21  C    0.000000
    22  O    1.228041   0.000000
    23  N    1.367684   2.256514   0.000000
    24  C    2.433020   2.711794   1.457645   0.000000
    25  F    3.505333   3.934928   2.276563   1.374388   0.000000
    26  F    2.722054   2.449932   2.303969   1.360254   2.132883
    27  C    3.351202   3.467626   2.583392   1.559080   2.372462
    28  F    3.587021   4.037117   2.775845   2.384120   3.014012
    29  O    4.702126   4.786546   3.766204   2.512944   2.626514
    30  C    5.338428   5.146287   4.546034   3.116848   3.170071
    31  F    5.729338   5.314305   5.201591   3.863561   4.276892
    32  F    6.545172   6.431281   5.619652   4.199715   3.877530
    33  F    4.873652   4.590758   4.154286   2.719994   2.706418
    34  C    3.467846   3.136807   3.294711   2.534826   3.678251
    35  F    4.727161   4.411451   4.521702   3.734316   4.701656
    36  F    3.805084   3.091949   3.811118   2.897865   3.982825
    37  F    2.839097   2.542174   3.108893   2.971225   4.287642
    38  C    2.399289   3.512473   1.377872   2.422651   2.665831
    39  O    3.475427   4.472804   2.266137   2.694055   2.529845
    40  H    5.163104   6.306166   4.130631   4.784296   4.257806
    41  H    6.136942   7.349827   5.392782   6.325837   5.936724
    42  H    4.683616   5.880449   4.443037   5.747882   5.823680
                   26         27         28         29         30
    26  F    0.000000
    27  C    2.407809   0.000000
    28  F    3.552789   1.379536   0.000000
    29  O    3.162976   1.438381   2.193870   0.000000
    30  C    3.175573   2.389861   3.489677   1.403952   0.000000
    31  F    3.741805   2.879078   3.945010   2.245944   1.341194
    32  F    4.310505   3.538876   4.421785   2.234247   1.344676
    33  F    2.309943   2.698929   3.994804   2.257578   1.338352
    34  C    2.788325   1.528028   2.320356   2.507735   2.941797
    35  F    4.054298   2.373197   2.780201   2.799701   3.188986
    36  F    2.473460   2.401542   3.531785   3.090166   2.905332
    37  F    3.296525   2.380911   2.637258   3.654266   4.256356
    38  C    3.528768   3.259646   2.914036   4.240467   5.264803
    39  O    3.984287   3.150943   2.570121   3.782948   4.952564
    40  H    5.927459   5.415335   4.767937   5.858142   6.976005
    41  H    7.394780   7.031569   6.300223   7.617352   8.750521
    42  H    6.632168   6.603948   5.986323   7.577542   8.646240
                   31         32         33         34         35
    31  F    0.000000
    32  F    2.184063   0.000000
    33  F    2.192351   2.182534   0.000000
    34  C    2.717577   4.233654   3.232104   0.000000
    35  F    2.563775   4.281503   3.909344   1.357262   0.000000
    36  F    2.471645   4.218533   2.809517   1.346366   2.174811
    37  F    4.052034   5.549188   4.398742   1.352432   2.164389
    38  C    6.060327   6.160367   5.047775   4.240749   5.283834
    39  O    5.865968   5.649647   4.960765   4.411669   5.249346
    40  H    8.018132   7.445485   6.900151   6.695273   7.509787
    41  H    9.744821   9.272444   8.617958   8.176844   9.017283
    42  H    9.442378   9.468015   8.365721   7.404381   8.385813
                   36         37         38         39         40
    36  F    0.000000
    37  F    2.187510   0.000000
    38  C    4.992884   4.022005   0.000000
    39  O    5.298566   4.454905   1.229621   0.000000
    40  H    7.541196   6.644154   2.820857   2.286501   0.000000
    41  H    9.033919   7.902761   4.070367   3.894516   1.837986
    42  H    8.162576   6.808922   3.392358   3.926196   3.072518
                   41         42
    41  H    0.000000
    42  H    2.364773   0.000000
 Symmetry turned off by external request.
 Stoichiometry    C13H3F18N3O5
 Framework group  C1[X(C13H3F18N3O5)]
 Deg. of freedom   120
 Full point group                 C1      NOp   1
 Rotational constants (GHZ):      0.1943154      0.0577963      0.0514113
 Leave Link  202 at Sun Mar  3 18:07:22 2024, MaxMem=  5368709120 cpu:         0.1
 (Enter /home/k0335/k033513/app/g09/l301.exe)
 Standard basis: 6-31G(d,p) (6D, 7F)
 Ernie: Thresh=  0.10000D-02 Tol=  0.10000D-05 Strict=F.
   600 basis functions,  1113 primitive gaussians,   600 cartesian basis functions
   152 alpha electrons      152 beta electrons
       nuclear repulsion energy      5824.5036049091 Hartrees.
 IExCor=20419 DFT=T Ex+Corr=CAM-B3LYP ExCW=0 ScaHFX=  1.000000
 ScaDFX=  1.000000  1.000000  1.000000  0.810000 ScalE2=  1.000000  1.000000
 IRadAn=      0 IRanWt=     -1 IRanGd=            0 ICorTp=0 IEmpDi=  4
  HFx wShort=  0.000000 wLong=  0.330000 cFull=  0.190000 cShort=  0.000000 cLong=  0.460000
  DFx wShort=  0.000000 wLong=  0.330000 cFull=  0.190000 cShort=  0.000000 cLong=  0.460000
 NAtoms=   42 NActive=   42 NUniq=   42 SFac= 1.00D+00 NAtFMM=   60 NAOKFM=F Big=F
 Integral buffers will be    131072 words long.
 Raffenetti 2 integral format.
 Two-electron integral symmetry is turned off.
 Using the following non-standard input for PCM:
 eps=4.9
 --- end of non-standard input.
 ------------------------------------------------------------------------------
 Polarizable Continuum Model (PCM)
 =================================
 Model                : PCM (using non-symmetric T matrix).
 Atomic radii         : UFF (Universal Force Field).
 Polarization charges : Total charges.
 Charge compensation  : None.
 Solution method      : On-the-fly selection.
 Cavity type          : Scaled VdW (van der Waals Surface) (Alpha=1.100).
 Cavity algorithm     : GePol (No added spheres)
                        Default sphere list used, NSphG=   42.
                        Lebedev-Laikov grids with approx.  5.0 points / Ang**2.
                        Smoothing algorithm: Karplus/York (Gamma=1.0000).
                        Polarization charges: spherical gaussians, with
                                              point-specific exponents (IZeta= 3).
                        Self-potential: point-specific (ISelfS= 7).
                        Self-field    : sphere-specific E.n sum rule (ISelfD= 2).
 Solvent              : Generic,
                        Eps                           =   4.900000
                        Eps(infinity)                 =   0.000000
                        RSolv                         =   0.000000 Ang.
                        Molar volume                  =   0.000000 cm**3/mol
                        Thermal expansion coefficient =   0.000000 K**-1
                        Absolute temperature          = 298.150000 K
                        Numeral density               =   0.000000 Ang**-3
                        Hydrogen bond acidity         =   0.000000
                        Hydrogen bond basicity        =   0.000000
                        Surface tension at interface  =   0.000000 (cal/mol)*Ang**-2
                        Carbon aromaticity            =   0.000000
                        Electronegative halogenicity  =   0.000000
 ------------------------------------------------------------------------------
 GePol: Number of generator spheres                  =      42
 GePol: Total number of spheres                      =      42
 GePol: Number of exposed spheres                    =      42 (100.00%)
 GePol: Number of points                             =    3465
 GePol: Average weight of points                     =       0.12
 GePol: Minimum weight of points                     =   0.11D-10
 GePol: Maximum weight of points                     =    0.20577
 GePol: Number of points with low weight             =     142
 GePol: Fraction of low-weight points (<1% of avg)   =       4.10%
 GePol: Cavity surface area                          =    431.508 Ang**2
 GePol: Cavity volume                                =    510.597 Ang**3
 Leave Link  301 at Sun Mar  3 18:07:22 2024, MaxMem=  5368709120 cpu:         1.0
 (Enter /home/k0335/k033513/app/g09/l302.exe)
 NPDir=0 NMtPBC=     1 NCelOv=     1 NCel=       1 NClECP=     1 NCelD=      1
         NCelK=      1 NCelE2=     1 NClLst=     1 CellRange=     0.0.
 One-electron integrals computed using PRISM.
 NBasis=   600 RedAO= T EigKep=  1.04D-03  NBF=   600
 NBsUse=   600 1.00D-06 EigRej= -1.00D+00 NBFU=   600
 Precomputing XC quadrature grid using
 IXCGrd= 4 IRadAn=           0 IRanWt=          -1 IRanGd=           0 AccXCQ= 0.00D+00.
 Generated NRdTot=       0 NPtTot=           0 NUsed=           0 NTot=          32
 NSgBfM=   584   584   584   584   584 MxSgAt=    42 MxSgA2=    42.
 Leave Link  302 at Sun Mar  3 18:07:23 2024, MaxMem=  5368709120 cpu:        12.2
 (Enter /home/k0335/k033513/app/g09/l303.exe)
 DipDrv:  MaxL=1.
 Leave Link  303 at Sun Mar  3 18:07:23 2024, MaxMem=  5368709120 cpu:         0.9
 (Enter /home/k0335/k033513/app/g09/l401.exe)
 ExpMin= 1.61D-01 ExpMax= 7.00D+03 ExpMxC= 1.05D+03 IAcc=1 IRadAn=         1 AccDes= 0.00D+00
 Harris functional with IExCor=20419 and IRadAn=       1 diagonalized for initial guess.
 HarFok:  IExCor=20419 AccDes= 0.00D+00 IRadAn=         1 IDoV= 1 UseB2=F ITyADJ=14
 ICtDFT=  3500011 ScaDFX=  1.000000  1.000000  1.000000  1.000000
 FoFCou: FMM=F IPFlag=           0 FMFlag=      100000 FMFlg1=           0
         NFxFlg=           0 DoJE=T BraDBF=F KetDBF=T FulRan=T
         wScrn=  0.000000 ICntrl=     500 IOpCl=  0 I1Cent=   200000004 NGrid=           0
         NMat0=    1 NMatS0=      1 NMatT0=    0 NMatD0=    1 NMtDS0=    0 NMtDT0=    0
 Symmetry not used in FoFCou.
 Harris En= -2749.22364812562    
 JPrj=0 DoOrth=F DoCkMO=F.
 Leave Link  401 at Sun Mar  3 18:07:23 2024, MaxMem=  5368709120 cpu:        14.1
 (Enter /home/k0335/k033513/app/g09/l502.exe)
 Closed shell SCF:
 Using DIIS extrapolation, IDIIS=  1040.
 Two-electron integral symmetry not used.
 IVT=     1116634 IEndB=     1116634 NGot=  5368709120 MDV=  5367969727
 LenX=  5367969727 LenY=  5367609127
 Requested convergence on RMS density matrix=1.00D-08 within 128 cycles.
 Requested convergence on MAX density matrix=1.00D-06.
 Requested convergence on             energy=1.00D-06.
 No special actions if energy rises.
 Fock matrices will be formed incrementally for  20 cycles.

 Cycle   1  Pass 1  IDiag  1:
 FoFJK:  IHMeth= 1 ICntrl=       0 DoSepK=T KAlg= 0 I1Cent=   0 FoldK=F
 IRaf=         1 NMat=   1 IRICut=       1 DoRegI=T DoRafI=F ISym2E= 0.
 FoFCou: FMM=F IPFlag=           0 FMFlag=      100000 FMFlg1=           0
         NFxFlg=           0 DoJE=T BraDBF=F KetDBF=F FulRan=T
         wScrn=  0.000000 ICntrl=     500 IOpCl=  0 I1Cent=           0 NGrid=           0
         NMat0=    1 NMatS0=      1 NMatT0=    0 NMatD0=    1 NMtDS0=    0 NMtDT0=    0
 Symmetry not used in FoFCou.
 Inv3:  Mode=1 IEnd=    36018675.
 Iteration    1 A*A^-1 deviation from unit magnitude is 8.88D-15 for    425.
 Iteration    1 A*A^-1 deviation from orthogonality  is 4.34D-15 for   3430     54.
 Iteration    1 A^-1*A deviation from unit magnitude is 7.33D-15 for    568.
 Iteration    1 A^-1*A deviation from orthogonality  is 5.37D-13 for   2071   2036.
 E= -2832.87607065704    
 DIIS: error= 6.16D-02 at cycle   1 NSaved=   1.
 NSaved= 1 IEnMin= 1 EnMin= -2832.87607065704     IErMin= 1 ErrMin= 6.16D-02
 ErrMax= 6.16D-02  0.00D+00 EMaxC= 1.00D-01 BMatC= 2.38D+00 BMatP= 2.38D+00
 IDIUse=3 WtCom= 3.84D-01 WtEn= 6.16D-01
 Coeff-Com:  0.100D+01
 Coeff-En:   0.100D+01
 Coeff:      0.100D+01
 Gap=     0.521 Goal=   None    Shift=    0.000
 GapD=    0.521 DampG=2.000 DampE=0.500 DampFc=1.0000 IDamp=-1.
 RMSDP=3.18D-03 MaxDP=1.57D-01              OVMax= 2.48D-01

 Cycle   2  Pass 1  IDiag  1:
 RMSU=  3.18D-03    CP:  1.00D+00
 E= -2833.18355020965     Delta-E=       -0.307479552615 Rises=F Damp=F
 DIIS: error= 1.73D-02 at cycle   2 NSaved=   2.
 NSaved= 2 IEnMin= 2 EnMin= -2833.18355020965     IErMin= 2 ErrMin= 1.73D-02
 ErrMax= 1.73D-02  0.00D+00 EMaxC= 1.00D-01 BMatC= 1.00D+00 BMatP= 2.38D+00
 IDIUse=3 WtCom= 8.27D-01 WtEn= 1.73D-01
 Coeff-Com:  0.373D+00 0.627D+00
 Coeff-En:   0.383D+00 0.617D+00
 Coeff:      0.375D+00 0.625D+00
 Gap=     0.312 Goal=   None    Shift=    0.000
 RMSDP=1.78D-03 MaxDP=1.57D-01 DE=-3.07D-01 OVMax= 1.79D-01

 Cycle   3  Pass 1  IDiag  1:
 RMSU=  1.11D-03    CP:  1.00D+00  5.64D-01
 E= -2833.65345652031     Delta-E=       -0.469906310660 Rises=F Damp=F
 DIIS: error= 1.31D-02 at cycle   3 NSaved=   3.
 NSaved= 3 IEnMin= 3 EnMin= -2833.65345652031     IErMin= 3 ErrMin= 1.31D-02
 ErrMax= 1.31D-02  0.00D+00 EMaxC= 1.00D-01 BMatC= 2.71D-01 BMatP= 1.00D+00
 IDIUse=3 WtCom= 8.69D-01 WtEn= 1.31D-01
 Coeff-Com:  0.121D+00 0.357D+00 0.522D+00
 Coeff-En:   0.000D+00 0.220D+00 0.780D+00
 Coeff:      0.105D+00 0.339D+00 0.556D+00
 Gap=     0.319 Goal=   None    Shift=    0.000
 RMSDP=8.44D-04 MaxDP=7.30D-02 DE=-4.70D-01 OVMax= 9.20D-02

 Cycle   4  Pass 1  IDiag  1:
 RMSU=  3.61D-04    CP:  1.00D+00  6.81D-01  4.03D-01
 E= -2833.83253082758     Delta-E=       -0.179074307267 Rises=F Damp=F
 DIIS: error= 3.97D-03 at cycle   4 NSaved=   4.
 NSaved= 4 IEnMin= 4 EnMin= -2833.83253082758     IErMin= 4 ErrMin= 3.97D-03
 ErrMax= 3.97D-03  0.00D+00 EMaxC= 1.00D-01 BMatC= 2.73D-02 BMatP= 2.71D-01
 IDIUse=3 WtCom= 9.60D-01 WtEn= 3.97D-02
 Coeff-Com:  0.732D-02 0.886D-01 0.289D+00 0.615D+00
 Coeff-En:   0.000D+00 0.000D+00 0.570D-01 0.943D+00
 Coeff:      0.703D-02 0.851D-01 0.280D+00 0.628D+00
 Gap=     0.306 Goal=   None    Shift=    0.000
 RMSDP=2.54D-04 MaxDP=2.22D-02 DE=-1.79D-01 OVMax= 2.77D-02

 Cycle   5  Pass 1  IDiag  1:
 RMSU=  1.13D-04    CP:  1.00D+00  6.70D-01  5.78D-01  6.95D-01
 E= -2833.85059454075     Delta-E=       -0.018063713174 Rises=F Damp=F
 DIIS: error= 8.94D-04 at cycle   5 NSaved=   5.
 NSaved= 5 IEnMin= 5 EnMin= -2833.85059454075     IErMin= 5 ErrMin= 8.94D-04
 ErrMax= 8.94D-04  0.00D+00 EMaxC= 1.00D-01 BMatC= 1.84D-03 BMatP= 2.73D-02
 IDIUse=3 WtCom= 9.91D-01 WtEn= 8.94D-03
 Coeff-Com: -0.253D-02 0.236D-01 0.115D+00 0.340D+00 0.524D+00
 Coeff-En:   0.000D+00 0.000D+00 0.000D+00 0.000D+00 0.100D+01
 Coeff:     -0.250D-02 0.234D-01 0.114D+00 0.337D+00 0.528D+00
 Gap=     0.307 Goal=   None    Shift=    0.000
 RMSDP=5.79D-05 MaxDP=3.99D-03 DE=-1.81D-02 OVMax= 6.07D-03

 Cycle   6  Pass 1  IDiag  1:
 RMSU=  3.04D-05    CP:  1.00D+00  6.74D-01  5.67D-01  7.31D-01  6.15D-01
 E= -2833.85188470639     Delta-E=       -0.001290165636 Rises=F Damp=F
 DIIS: error= 1.40D-04 at cycle   6 NSaved=   6.
 NSaved= 6 IEnMin= 6 EnMin= -2833.85188470639     IErMin= 6 ErrMin= 1.40D-04
 ErrMax= 1.40D-04  0.00D+00 EMaxC= 1.00D-01 BMatC= 3.77D-05 BMatP= 1.84D-03
 IDIUse=3 WtCom= 9.99D-01 WtEn= 1.40D-03
 Coeff-Com: -0.924D-03-0.257D-02 0.617D-03 0.228D-01 0.139D+00 0.841D+00
 Coeff-En:   0.000D+00 0.000D+00 0.000D+00 0.000D+00 0.000D+00 0.100D+01
 Coeff:     -0.923D-03-0.256D-02 0.616D-03 0.228D-01 0.139D+00 0.841D+00
 Gap=     0.309 Goal=   None    Shift=    0.000
 RMSDP=1.37D-05 MaxDP=8.18D-04 DE=-1.29D-03 OVMax= 2.05D-03

 Cycle   7  Pass 1  IDiag  1:
 RMSU=  9.29D-06    CP:  1.00D+00  6.73D-01  5.70D-01  7.46D-01  6.82D-01
                    CP:  9.85D-01
 E= -2833.85191908162     Delta-E=       -0.000034375227 Rises=F Damp=F
 DIIS: error= 6.08D-05 at cycle   7 NSaved=   7.
 NSaved= 7 IEnMin= 7 EnMin= -2833.85191908162     IErMin= 7 ErrMin= 6.08D-05
 ErrMax= 6.08D-05  0.00D+00 EMaxC= 1.00D-01 BMatC= 5.45D-06 BMatP= 3.77D-05
 IDIUse=1 WtCom= 1.00D+00 WtEn= 0.00D+00
 Coeff-Com: -0.152D-03-0.292D-02-0.800D-02-0.153D-01 0.212D-01 0.349D+00
 Coeff-Com:  0.656D+00
 Coeff:     -0.152D-03-0.292D-02-0.800D-02-0.153D-01 0.212D-01 0.349D+00
 Coeff:      0.656D+00
 Gap=     0.308 Goal=   None    Shift=    0.000
 RMSDP=4.28D-06 MaxDP=3.43D-04 DE=-3.44D-05 OVMax= 6.19D-04

 Cycle   8  Pass 1  IDiag  1:
 RMSU=  2.77D-06    CP:  1.00D+00  6.73D-01  5.70D-01  7.46D-01  6.93D-01
                    CP:  1.06D+00  8.26D-01
 E= -2833.85192414771     Delta-E=       -0.000005066093 Rises=F Damp=F
 DIIS: error= 1.32D-05 at cycle   8 NSaved=   8.
 NSaved= 8 IEnMin= 8 EnMin= -2833.85192414771     IErMin= 8 ErrMin= 1.32D-05
 ErrMax= 1.32D-05  0.00D+00 EMaxC= 1.00D-01 BMatC= 4.29D-07 BMatP= 5.45D-06
 IDIUse=1 WtCom= 1.00D+00 WtEn= 0.00D+00
 Coeff-Com:  0.206D-04-0.897D-03-0.295D-02-0.813D-02-0.669D-02 0.403D-01
 Coeff-Com:  0.227D+00 0.751D+00
 Coeff:      0.206D-04-0.897D-03-0.295D-02-0.813D-02-0.669D-02 0.403D-01
 Coeff:      0.227D+00 0.751D+00
 Gap=     0.308 Goal=   None    Shift=    0.000
 RMSDP=1.57D-06 MaxDP=1.37D-04 DE=-5.07D-06 OVMax= 2.66D-04

 Cycle   9  Pass 1  IDiag  1:
 RMSU=  1.04D-06    CP:  1.00D+00  6.73D-01  5.71D-01  7.47D-01  6.97D-01
                    CP:  1.08D+00  9.03D-01  1.01D+00
 E= -2833.85192458497     Delta-E=       -0.000000437261 Rises=F Damp=F
 DIIS: error= 5.55D-06 at cycle   9 NSaved=   9.
 NSaved= 9 IEnMin= 9 EnMin= -2833.85192458497     IErMin= 9 ErrMin= 5.55D-06
 ErrMax= 5.55D-06  0.00D+00 EMaxC= 1.00D-01 BMatC= 8.16D-08 BMatP= 4.29D-07
 IDIUse=1 WtCom= 1.00D+00 WtEn= 0.00D+00
 Coeff-Com:  0.254D-04 0.417D-04-0.268D-04-0.128D-02-0.692D-02-0.408D-01
 Coeff-Com: -0.297D-02 0.335D+00 0.717D+00
 Coeff:      0.254D-04 0.417D-04-0.268D-04-0.128D-02-0.692D-02-0.408D-01
 Coeff:     -0.297D-02 0.335D+00 0.717D+00
 Gap=     0.308 Goal=   None    Shift=    0.000
 RMSDP=6.78D-07 MaxDP=7.24D-05 DE=-4.37D-07 OVMax= 1.08D-04

 Cycle  10  Pass 1  IDiag  1:
 RMSU=  3.72D-07    CP:  1.00D+00  6.73D-01  5.71D-01  7.47D-01  6.98D-01
                    CP:  1.09D+00  9.30D-01  1.14D+00  8.83D-01
 E= -2833.85192466725     Delta-E=       -0.000000082280 Rises=F Damp=F
 DIIS: error= 2.18D-06 at cycle  10 NSaved=  10.
 NSaved=10 IEnMin=10 EnMin= -2833.85192466725     IErMin=10 ErrMin= 2.18D-06
 ErrMax= 2.18D-06  0.00D+00 EMaxC= 1.00D-01 BMatC= 8.66D-09 BMatP= 8.16D-08
 IDIUse=1 WtCom= 1.00D+00 WtEn= 0.00D+00
 Coeff-Com:  0.876D-05 0.104D-03 0.289D-03 0.218D-03-0.237D-02-0.218D-01
 Coeff-Com: -0.216D-01 0.794D-01 0.322D+00 0.644D+00
 Coeff:      0.876D-05 0.104D-03 0.289D-03 0.218D-03-0.237D-02-0.218D-01
 Coeff:     -0.216D-01 0.794D-01 0.322D+00 0.644D+00
 Gap=     0.308 Goal=   None    Shift=    0.000
 RMSDP=1.89D-07 MaxDP=1.85D-05 DE=-8.23D-08 OVMax= 3.29D-05

 Cycle  11  Pass 1  IDiag  1:
 RMSU=  1.29D-07    CP:  1.00D+00  6.73D-01  5.71D-01  7.47D-01  6.98D-01
                    CP:  1.10D+00  9.36D-01  1.16D+00  9.63D-01  8.49D-01
 E= -2833.85192467435     Delta-E=       -0.000000007096 Rises=F Damp=F
 DIIS: error= 7.90D-07 at cycle  11 NSaved=  11.
 NSaved=11 IEnMin=11 EnMin= -2833.85192467435     IErMin=11 ErrMin= 7.90D-07
 ErrMax= 7.90D-07  0.00D+00 EMaxC= 1.00D-01 BMatC= 1.36D-09 BMatP= 8.66D-09
 IDIUse=1 WtCom= 1.00D+00 WtEn= 0.00D+00
 Coeff-Com:  0.146D-05 0.479D-04 0.158D-03 0.276D-03-0.261D-03-0.581D-02
 Coeff-Com: -0.104D-01-0.252D-02 0.722D-01 0.323D+00 0.623D+00
 Coeff:      0.146D-05 0.479D-04 0.158D-03 0.276D-03-0.261D-03-0.581D-02
 Coeff:     -0.104D-01-0.252D-02 0.722D-01 0.323D+00 0.623D+00
 Gap=     0.308 Goal=   None    Shift=    0.000
 RMSDP=6.60D-08 MaxDP=6.18D-06 DE=-7.10D-09 OVMax= 7.38D-06

 Cycle  12  Pass 1  IDiag  1:
 RMSU=  4.50D-08    CP:  1.00D+00  6.73D-01  5.71D-01  7.47D-01  6.98D-01
                    CP:  1.10D+00  9.37D-01  1.16D+00  9.74D-01  9.31D-01
                    CP:  8.63D-01
 E= -2833.85192467532     Delta-E=       -0.000000000977 Rises=F Damp=F
 DIIS: error= 2.02D-07 at cycle  12 NSaved=  12.
 NSaved=12 IEnMin=12 EnMin= -2833.85192467532     IErMin=12 ErrMin= 2.02D-07
 ErrMax= 2.02D-07  0.00D+00 EMaxC= 1.00D-01 BMatC= 8.02D-11 BMatP= 1.36D-09
 IDIUse=1 WtCom= 1.00D+00 WtEn= 0.00D+00
 Coeff-Com: -0.451D-06 0.328D-05 0.222D-04 0.659D-04 0.251D-03 0.804D-03
 Coeff-Com: -0.680D-03-0.106D-01-0.161D-01 0.211D-01 0.179D+00 0.826D+00
 Coeff:     -0.451D-06 0.328D-05 0.222D-04 0.659D-04 0.251D-03 0.804D-03
 Coeff:     -0.680D-03-0.106D-01-0.161D-01 0.211D-01 0.179D+00 0.826D+00
 Gap=     0.308 Goal=   None    Shift=    0.000
 RMSDP=2.51D-08 MaxDP=1.71D-06 DE=-9.77D-10 OVMax= 3.02D-06

 Cycle  13  Pass 1  IDiag  1:
 RMSU=  1.49D-08    CP:  1.00D+00  6.73D-01  5.71D-01  7.47D-01  6.98D-01
                    CP:  1.10D+00  9.37D-01  1.17D+00  9.84D-01  9.57D-01
                    CP:  9.46D-01  9.83D-01
 E= -2833.85192467552     Delta-E=       -0.000000000191 Rises=F Damp=F
 DIIS: error= 6.39D-08 at cycle  13 NSaved=  13.
 NSaved=13 IEnMin=13 EnMin= -2833.85192467552     IErMin=13 ErrMin= 6.39D-08
 ErrMax= 6.39D-08  0.00D+00 EMaxC= 1.00D-01 BMatC= 1.23D-11 BMatP= 8.02D-11
 IDIUse=1 WtCom= 1.00D+00 WtEn= 0.00D+00
 Coeff-Com: -0.315D-06-0.308D-05-0.427D-05 0.226D-05 0.134D-03 0.859D-03
 Coeff-Com:  0.729D-03-0.404D-02-0.130D-01-0.220D-01 0.868D-02 0.333D+00
 Coeff-Com:  0.696D+00
 Coeff:     -0.315D-06-0.308D-05-0.427D-05 0.226D-05 0.134D-03 0.859D-03
 Coeff:      0.729D-03-0.404D-02-0.130D-01-0.220D-01 0.868D-02 0.333D+00
 Coeff:      0.696D+00
 Gap=     0.308 Goal=   None    Shift=    0.000
 RMSDP=8.10D-09 MaxDP=5.42D-07 DE=-1.91D-10 OVMax= 1.30D-06

 Error on total polarization charges =  0.00232
 SCF Done:  E(RCAM-B3LYP) =  -2833.85192468     A.U. after   13 cycles
            NFock= 13  Conv=0.81D-08     -V/T= 2.0074
 KE= 2.813120845780D+03 PE=-1.834654521422D+04 EE= 6.875068838852D+03
 Leave Link  502 at Sun Mar  3 18:08:15 2024, MaxMem=  5368709120 cpu:      1173.7
 (Enter /home/k0335/k033513/app/g09/l601.exe)
 Copying SCF densities to generalized density rwf, IOpCl= 0 IROHF=0.

 **********************************************************************

            Population analysis using the SCF density.

 **********************************************************************

 Alpha  occ. eigenvalues --  -24.84195 -24.83830 -24.83812 -24.83743 -24.83721
 Alpha  occ. eigenvalues --  -24.83531 -24.83466 -24.83461 -24.83380 -24.83314
 Alpha  occ. eigenvalues --  -24.83287 -24.83198 -24.83033 -24.82955 -24.82748
 Alpha  occ. eigenvalues --  -24.82739 -24.82569 -24.82424 -19.33304 -19.32614
 Alpha  occ. eigenvalues --  -19.25268 -19.25258 -19.24670 -14.53732 -14.53578
 Alpha  occ. eigenvalues --  -14.52504 -10.59830 -10.59530 -10.55490 -10.55140
 Alpha  occ. eigenvalues --  -10.54190 -10.53690 -10.49772 -10.49344 -10.47200
 Alpha  occ. eigenvalues --  -10.46934 -10.46810 -10.32611 -10.27344  -1.43660
 Alpha  occ. eigenvalues --   -1.43249  -1.41974  -1.41587  -1.39490  -1.39078
 Alpha  occ. eigenvalues --   -1.35531  -1.35530  -1.34156  -1.33842  -1.33640
 Alpha  occ. eigenvalues --   -1.33381  -1.32978  -1.32530  -1.32311  -1.32215
 Alpha  occ. eigenvalues --   -1.31697  -1.31520  -1.24080  -1.20661  -1.20457
 Alpha  occ. eigenvalues --   -1.18979  -1.18563  -1.10779  -1.09051  -1.08144
 Alpha  occ. eigenvalues --   -0.93664  -0.92997  -0.88537  -0.85879  -0.84678
 Alpha  occ. eigenvalues --   -0.82544  -0.82033  -0.80341  -0.80225  -0.77814
 Alpha  occ. eigenvalues --   -0.75488  -0.75285  -0.74308  -0.73484  -0.72395
 Alpha  occ. eigenvalues --   -0.71617  -0.71186  -0.70997  -0.70483  -0.70194
 Alpha  occ. eigenvalues --   -0.69663  -0.69140  -0.68919  -0.68278  -0.68135
 Alpha  occ. eigenvalues --   -0.67738  -0.66978  -0.66466  -0.64931  -0.64304
 Alpha  occ. eigenvalues --   -0.64199  -0.62724  -0.59680  -0.59155  -0.59083
 Alpha  occ. eigenvalues --   -0.57991  -0.57716  -0.57647  -0.57370  -0.57293
 Alpha  occ. eigenvalues --   -0.57003  -0.56579  -0.56268  -0.56155  -0.55592
 Alpha  occ. eigenvalues --   -0.55519  -0.55455  -0.55425  -0.55089  -0.54726
 Alpha  occ. eigenvalues --   -0.54457  -0.54114  -0.53908  -0.53745  -0.53693
 Alpha  occ. eigenvalues --   -0.53113  -0.52899  -0.52650  -0.52051  -0.51781
 Alpha  occ. eigenvalues --   -0.51703  -0.51591  -0.51281  -0.51122  -0.50769
 Alpha  occ. eigenvalues --   -0.50622  -0.50599  -0.50142  -0.50134  -0.49808
 Alpha  occ. eigenvalues --   -0.49245  -0.49033  -0.48960  -0.48596  -0.48443
 Alpha  occ. eigenvalues --   -0.48103  -0.47861  -0.46486  -0.44206  -0.43285
 Alpha  occ. eigenvalues --   -0.43022  -0.40990  -0.40088  -0.39139  -0.38850
 Alpha  occ. eigenvalues --   -0.36808  -0.32122
 Alpha virt. eigenvalues --   -0.01282  -0.00410   0.03031   0.05739   0.06073
 Alpha virt. eigenvalues --    0.06584   0.07849   0.11423   0.14418   0.15291
 Alpha virt. eigenvalues --    0.15463   0.17423   0.18081   0.18504   0.18833
 Alpha virt. eigenvalues --    0.19893   0.20414   0.20665   0.21331   0.21548
 Alpha virt. eigenvalues --    0.21986   0.22579   0.22818   0.22950   0.23245
 Alpha virt. eigenvalues --    0.23735   0.24183   0.24642   0.25165   0.25368
 Alpha virt. eigenvalues --    0.26492   0.27118   0.28809   0.29516   0.30631
 Alpha virt. eigenvalues --    0.30924   0.31778   0.33215   0.34438   0.36559
 Alpha virt. eigenvalues --    0.37509   0.38167   0.39565   0.39875   0.41506
 Alpha virt. eigenvalues --    0.45664   0.46578   0.47674   0.49154   0.49332
 Alpha virt. eigenvalues --    0.50721   0.51061   0.51847   0.52214   0.52834
 Alpha virt. eigenvalues --    0.53089   0.53251   0.53862   0.54349   0.54847
 Alpha virt. eigenvalues --    0.55574   0.56256   0.56950   0.57324   0.58883
 Alpha virt. eigenvalues --    0.59142   0.60487   0.61015   0.61821   0.62034
 Alpha virt. eigenvalues --    0.63767   0.64153   0.64660   0.65151   0.67098
 Alpha virt. eigenvalues --    0.67901   0.68809   0.69489   0.71417   0.72757
 Alpha virt. eigenvalues --    0.73237   0.73514   0.77315   0.78266   0.79577
 Alpha virt. eigenvalues --    0.80929   0.81712   0.82661   0.83546   0.85449
 Alpha virt. eigenvalues --    0.85788   0.86646   0.87402   0.88265   0.88861
 Alpha virt. eigenvalues --    0.90299   0.91932   0.92579   0.93893   0.95766
 Alpha virt. eigenvalues --    0.97120   0.97736   0.98372   0.99070   0.99771
 Alpha virt. eigenvalues --    1.00601   1.02136   1.03347   1.03879   1.04823
 Alpha virt. eigenvalues --    1.05315   1.06310   1.07171   1.07880   1.08973
 Alpha virt. eigenvalues --    1.09690   1.10263   1.10462   1.11707   1.12759
 Alpha virt. eigenvalues --    1.13126   1.14187   1.14498   1.15314   1.15780
 Alpha virt. eigenvalues --    1.16158   1.16459   1.16791   1.17664   1.18044
 Alpha virt. eigenvalues --    1.18448   1.19460   1.19822   1.20437   1.21562
 Alpha virt. eigenvalues --    1.22253   1.22858   1.23374   1.23482   1.25506
 Alpha virt. eigenvalues --    1.26330   1.26730   1.27633   1.28444   1.29498
 Alpha virt. eigenvalues --    1.30353   1.31022   1.32097   1.32201   1.32658
 Alpha virt. eigenvalues --    1.33296   1.33910   1.34478   1.35338   1.35548
 Alpha virt. eigenvalues --    1.35822   1.36270   1.37699   1.37730   1.38315
 Alpha virt. eigenvalues --    1.38719   1.39462   1.39816   1.40310   1.40501
 Alpha virt. eigenvalues --    1.41185   1.41477   1.41672   1.42050   1.42838
 Alpha virt. eigenvalues --    1.43397   1.43583   1.43730   1.45047   1.45549
 Alpha virt. eigenvalues --    1.46438   1.46721   1.47160   1.47562   1.48047
 Alpha virt. eigenvalues --    1.48846   1.50008   1.50524   1.51606   1.51946
 Alpha virt. eigenvalues --    1.53088   1.53301   1.53798   1.54277   1.55441
 Alpha virt. eigenvalues --    1.55906   1.56778   1.57174   1.57862   1.59516
 Alpha virt. eigenvalues --    1.60407   1.60887   1.62057   1.63560   1.64523
 Alpha virt. eigenvalues --    1.65210   1.65932   1.66213   1.66698   1.67107
 Alpha virt. eigenvalues --    1.68050   1.68412   1.71401   1.72008   1.72841
 Alpha virt. eigenvalues --    1.73350   1.73522   1.74169   1.74304   1.75383
 Alpha virt. eigenvalues --    1.75864   1.77583   1.77837   1.78378   1.79127
 Alpha virt. eigenvalues --    1.79305   1.80689   1.80954   1.81154   1.82247
 Alpha virt. eigenvalues --    1.82832   1.83204   1.83640   1.84420   1.84908
 Alpha virt. eigenvalues --    1.85059   1.85373   1.86195   1.86508   1.86765
 Alpha virt. eigenvalues --    1.87143   1.87785   1.88076   1.88492   1.88593
 Alpha virt. eigenvalues --    1.89247   1.89789   1.90586   1.91090   1.91296
 Alpha virt. eigenvalues --    1.91797   1.92201   1.92738   1.92900   1.93436
 Alpha virt. eigenvalues --    1.93817   1.94589   1.94925   1.95235   1.95614
 Alpha virt. eigenvalues --    1.95995   1.96612   1.97323   1.98761   1.99107
 Alpha virt. eigenvalues --    1.99632   2.00016   2.00958   2.01285   2.02078
 Alpha virt. eigenvalues --    2.02330   2.02467   2.03054   2.03321   2.03598
 Alpha virt. eigenvalues --    2.03855   2.04251   2.04603   2.04682   2.05745
 Alpha virt. eigenvalues --    2.05991   2.06196   2.07083   2.07786   2.08282
 Alpha virt. eigenvalues --    2.08762   2.08858   2.09384   2.10004   2.10218
 Alpha virt. eigenvalues --    2.10750   2.11696   2.11965   2.12339   2.12914
 Alpha virt. eigenvalues --    2.13787   2.15371   2.15647   2.16182   2.16673
 Alpha virt. eigenvalues --    2.17270   2.17905   2.18985   2.19141   2.20180
 Alpha virt. eigenvalues --    2.20786   2.22049   2.22460   2.23063   2.23599
 Alpha virt. eigenvalues --    2.25625   2.26056   2.27350   2.28541   2.29995
 Alpha virt. eigenvalues --    2.30920   2.32137   2.32937   2.33734   2.34518
 Alpha virt. eigenvalues --    2.35636   2.36250   2.37064   2.37631   2.39251
 Alpha virt. eigenvalues --    2.40248   2.41587   2.42642   2.43941   2.44529
 Alpha virt. eigenvalues --    2.45836   2.46036   2.46712   2.47637   2.48708
 Alpha virt. eigenvalues --    2.49192   2.50935   2.51719   2.52783   2.53490
 Alpha virt. eigenvalues --    2.54126   2.55315   2.56618   2.58452   2.59464
 Alpha virt. eigenvalues --    2.60070   2.60706   2.61734   2.62468   2.64088
 Alpha virt. eigenvalues --    2.64770   2.65439   2.66388   2.67553   2.69360
 Alpha virt. eigenvalues --    2.70262   2.71534   2.73069   2.74381   2.75746
 Alpha virt. eigenvalues --    2.76080   2.77696   2.78593   2.81496   2.82448
 Alpha virt. eigenvalues --    2.82949   2.84491   2.85579   2.86877   2.87438
 Alpha virt. eigenvalues --    2.87821   2.88770   2.89334   2.90620   2.91947
 Alpha virt. eigenvalues --    2.93085   2.93329   2.94576   2.95401   2.97227
 Alpha virt. eigenvalues --    2.97602   2.98780   3.00919   3.01848   3.02559
 Alpha virt. eigenvalues --    3.05146   3.05846   3.06029   3.06755   3.06940
 Alpha virt. eigenvalues --    3.08230   3.09368   3.10355   3.12608   3.13717
 Alpha virt. eigenvalues --    3.14957   3.16347   3.18278   3.18983   3.21011
 Alpha virt. eigenvalues --    3.21693   3.23515   3.24503   3.26388   3.27409
 Alpha virt. eigenvalues --    3.29259   3.30072   3.32651   3.35027   3.37027
 Alpha virt. eigenvalues --    3.43061   3.49002   3.55487   3.77360   4.00611
 Alpha virt. eigenvalues --    4.12890   4.14143   4.17677   4.22677   4.23479
 Alpha virt. eigenvalues --    4.25260   4.28801   4.34774   4.35213   4.38073
 Alpha virt. eigenvalues --    4.39004   4.41388   4.45786   4.47071   4.51178
 Alpha virt. eigenvalues --    4.58366   4.62331   4.64754   4.67457   4.72194
 Alpha virt. eigenvalues --    4.75957   4.82136   4.90949   4.97378   5.01443
 Alpha virt. eigenvalues --    5.02217   5.07746   5.13295   5.37233   5.45785
 Alpha virt. eigenvalues --    5.58892   5.71716   5.74540   5.78322   6.18685
 Alpha virt. eigenvalues --    6.30137   6.70032   6.73150
          Condensed to atoms (all electrons):
               1          2          3          4          5          6
     1  C    4.947140   0.655206  -0.049693   0.002583   0.001161  -0.000183
     2  C    0.655206   4.643509   0.278542  -0.021549   0.001143   0.002744
     3  N   -0.049693   0.278542   7.278839   0.253293  -0.089913  -0.094745
     4  C    0.002583  -0.021549   0.253293   4.209795   0.561302   0.199160
     5  O    0.001161   0.001143  -0.089913   0.561302   8.099498  -0.093457
     6  N   -0.000183   0.002744  -0.094745   0.199160  -0.093457   7.612687
     7  C    0.000001  -0.000020   0.002477  -0.014261   0.010271   0.158116
     8  F    0.000000   0.000000  -0.000022   0.001952   0.000034  -0.041467
     9  F    0.000000   0.000000  -0.000026   0.001883  -0.000282  -0.057616
    10  C    0.000000  -0.000006  -0.000106  -0.005384   0.009676  -0.030021
    11  F    0.000000   0.000002  -0.000027   0.009043  -0.003575  -0.002962
    12  O    0.000000   0.000004  -0.000006   0.002477  -0.020587  -0.000463
    13  C    0.000000   0.000001   0.000008   0.000410   0.003005  -0.000242
    14  F    0.000000   0.000000   0.000000   0.000006  -0.000008   0.000019
    15  F    0.000000   0.000000   0.000000   0.000008  -0.000114   0.000000
    16  F    0.000000   0.000002   0.000015   0.006108  -0.003079  -0.002627
    17  C    0.000000   0.000000   0.000001   0.000472   0.000371   0.002180
    18  F    0.000000   0.000000   0.000000  -0.000002   0.000000   0.000048
    19  F    0.000000   0.000000   0.000000  -0.000001   0.000000  -0.000007
    20  F    0.000000   0.000000   0.000000  -0.000002   0.000000  -0.000075
    21  C   -0.000034   0.000172  -0.000232  -0.020483   0.000031   0.184933
    22  O    0.000000   0.000002   0.000136  -0.000339  -0.000027  -0.083891
    23  N    0.000168   0.002859  -0.092356   0.002324  -0.000010  -0.095923
    24  C    0.000011   0.000001   0.002223   0.000097  -0.000001   0.001354
    25  F   -0.000005   0.000012   0.000014  -0.000010   0.000000  -0.000028
    26  F    0.000000   0.000000  -0.000020  -0.000007   0.000000   0.000039
    27  C    0.000000   0.000000  -0.000129   0.000059   0.000000  -0.000136
    28  F    0.000001  -0.000001  -0.000035   0.000027   0.000000  -0.000020
    29  O    0.000000   0.000000   0.000000   0.000000   0.000000   0.000000
    30  C    0.000000   0.000000   0.000000   0.000000   0.000000   0.000000
    31  F    0.000000   0.000000   0.000000   0.000000   0.000000   0.000000
    32  F    0.000000   0.000000   0.000000   0.000000   0.000000   0.000000
    33  F    0.000000   0.000000   0.000000   0.000000   0.000000   0.000000
    34  C    0.000000   0.000000   0.000013  -0.000007   0.000000  -0.000010
    35  F    0.000000   0.000000   0.000000   0.000000   0.000000   0.000000
    36  F    0.000000   0.000000   0.000000   0.000000   0.000000  -0.000002
    37  F    0.000000   0.000000  -0.000003   0.000014   0.000000  -0.000709
    38  C   -0.001157  -0.024293   0.248178  -0.029801   0.000129   0.006557
    39  O   -0.007817  -0.001680  -0.076073   0.000407  -0.000019  -0.000035
    40  H    0.379608  -0.023323  -0.009635  -0.000138  -0.000007   0.000003
    41  H    0.377882  -0.021006   0.003263  -0.000014  -0.000005   0.000001
    42  H   -0.040440   0.396407  -0.045848  -0.001512   0.010353   0.000754
               7          8          9         10         11         12
     1  C    0.000001   0.000000   0.000000   0.000000   0.000000   0.000000
     2  C   -0.000020   0.000000   0.000000  -0.000006   0.000002   0.000004
     3  N    0.002477  -0.000022  -0.000026  -0.000106  -0.000027  -0.000006
     4  C   -0.014261   0.001952   0.001883  -0.005384   0.009043   0.002477
     5  O    0.010271   0.000034  -0.000282   0.009676  -0.003575  -0.020587
     6  N    0.158116  -0.041467  -0.057616  -0.030021  -0.002962  -0.000463
     7  C    4.415263   0.246105   0.257711   0.171750  -0.019715  -0.035040
     8  F    0.246105   9.121442  -0.036518  -0.022396  -0.000526   0.000579
     9  F    0.257711  -0.036518   9.110096  -0.026310   0.000303  -0.001023
    10  C    0.171750  -0.022396  -0.026310   4.989694   0.222989   0.156124
    11  F   -0.019715  -0.000526   0.000303   0.222989   9.123353  -0.038491
    12  O   -0.035040   0.000579  -0.001023   0.156124  -0.038491   8.338619
    13  C   -0.005879   0.000076   0.014151  -0.007968   0.000240   0.240684
    14  F   -0.003887  -0.000001  -0.000421   0.003911  -0.000001  -0.047682
    15  F   -0.000053   0.000000  -0.000002   0.001153  -0.000002  -0.038036
    16  F    0.016795   0.000000  -0.011144  -0.008194  -0.000002  -0.044644
    17  C   -0.039153   0.011554  -0.002279   0.237458  -0.009189  -0.027442
    18  F    0.018100  -0.002454  -0.000276  -0.049154   0.000305   0.000396
    19  F    0.001681   0.000004  -0.000001  -0.027719  -0.000661  -0.002374
    20  F   -0.003294  -0.003266  -0.000001  -0.031048  -0.000815   0.000643
    21  C    0.000067   0.004248   0.006668   0.002876   0.000026  -0.000070
    22  O    0.016992  -0.008865  -0.004124   0.000234   0.000000   0.000000
    23  N    0.002303  -0.000008  -0.000008  -0.000075  -0.000002   0.000000
    24  C   -0.000021   0.000010   0.000002   0.000001   0.000000   0.000000
    25  F    0.000000   0.000000   0.000000   0.000000   0.000000   0.000000
    26  F    0.000014   0.000000   0.000000   0.000000   0.000000   0.000000
    27  C    0.000000   0.000000   0.000000   0.000000   0.000000   0.000000
    28  F    0.000000   0.000000   0.000000   0.000000   0.000000   0.000000
    29  O    0.000000   0.000000   0.000000   0.000000   0.000000   0.000000
    30  C    0.000000   0.000000   0.000000   0.000000   0.000000   0.000000
    31  F    0.000000   0.000000   0.000000   0.000000   0.000000   0.000000
    32  F    0.000000   0.000000   0.000000   0.000000   0.000000   0.000000
    33  F    0.000000   0.000000   0.000000   0.000000   0.000000   0.000000
    34  C    0.000001  -0.000004   0.000000   0.000000   0.000000   0.000000
    35  F    0.000000   0.000000   0.000000   0.000000   0.000000   0.000000
    36  F    0.000000   0.000000   0.000000   0.000000   0.000000   0.000000
    37  F    0.000047   0.000030   0.000000   0.000000   0.000000   0.000000
    38  C    0.000560  -0.000014   0.000020  -0.000016   0.000001   0.000001
    39  O   -0.000001   0.000000   0.000000   0.000000   0.000000   0.000000
    40  H    0.000000   0.000000   0.000000   0.000000   0.000000   0.000000
    41  H    0.000000   0.000000   0.000000   0.000000   0.000000   0.000000
    42  H   -0.000001   0.000000   0.000000   0.000004  -0.000002   0.000001
              13         14         15         16         17         18
     1  C    0.000000   0.000000   0.000000   0.000000   0.000000   0.000000
     2  C    0.000001   0.000000   0.000000   0.000002   0.000000   0.000000
     3  N    0.000008   0.000000   0.000000   0.000015   0.000001   0.000000
     4  C    0.000410   0.000006   0.000008   0.006108   0.000472  -0.000002
     5  O    0.003005  -0.000008  -0.000114  -0.003079   0.000371   0.000000
     6  N   -0.000242   0.000019   0.000000  -0.002627   0.002180   0.000048
     7  C   -0.005879  -0.003887  -0.000053   0.016795  -0.039153   0.018100
     8  F    0.000076  -0.000001   0.000000   0.000000   0.011554  -0.002454
     9  F    0.014151  -0.000421  -0.000002  -0.011144  -0.002279  -0.000276
    10  C   -0.007968   0.003911   0.001153  -0.008194   0.237458  -0.049154
    11  F    0.000240  -0.000001  -0.000002  -0.000002  -0.009189   0.000305
    12  O    0.240684  -0.047682  -0.038036  -0.044644  -0.027442   0.000396
    13  C    3.838642   0.295787   0.336340   0.294225  -0.003097   0.002230
    14  F    0.295787   9.062191  -0.036974  -0.034169   0.012234  -0.007902
    15  F    0.336340  -0.036974   9.013777  -0.037098  -0.000176  -0.000001
    16  F    0.294225  -0.034169  -0.037098   9.067208  -0.000279  -0.000009
    17  C   -0.003097   0.012234  -0.000176  -0.000279   4.146009   0.270643
    18  F    0.002230  -0.007902  -0.000001  -0.000009   0.270643   9.084217
    19  F    0.001778  -0.000773  -0.000003   0.000000   0.300809  -0.038147
    20  F    0.000100   0.000001   0.000000   0.000000   0.290433  -0.038121
    21  C   -0.000010   0.000000   0.000000  -0.000098  -0.000060   0.000009
    22  O    0.000004   0.000000   0.000000  -0.000001  -0.000001   0.000000
    23  N    0.000000   0.000000   0.000000  -0.000001   0.000000   0.000000
    24  C    0.000000   0.000000   0.000000   0.000000   0.000000   0.000000
    25  F    0.000000   0.000000   0.000000   0.000000   0.000000   0.000000
    26  F    0.000000   0.000000   0.000000   0.000000   0.000000   0.000000
    27  C    0.000000   0.000000   0.000000   0.000000   0.000000   0.000000
    28  F    0.000000   0.000000   0.000000   0.000000   0.000000   0.000000
    29  O    0.000000   0.000000   0.000000   0.000000   0.000000   0.000000
    30  C    0.000000   0.000000   0.000000   0.000000   0.000000   0.000000
    31  F    0.000000   0.000000   0.000000   0.000000   0.000000   0.000000
    32  F    0.000000   0.000000   0.000000   0.000000   0.000000   0.000000
    33  F    0.000000   0.000000   0.000000   0.000000   0.000000   0.000000
    34  C    0.000000   0.000000   0.000000   0.000000   0.000000   0.000000
    35  F    0.000000   0.000000   0.000000   0.000000   0.000000   0.000000
    36  F    0.000000   0.000000   0.000000   0.000000   0.000000   0.000000
    37  F    0.000000   0.000000   0.000000   0.000000   0.000000   0.000000
    38  C    0.000000   0.000000   0.000000   0.000001   0.000000   0.000000
    39  O    0.000000   0.000000   0.000000   0.000000   0.000000   0.000000
    40  H    0.000000   0.000000   0.000000   0.000000   0.000000   0.000000
    41  H    0.000000   0.000000   0.000000   0.000000   0.000000   0.000000
    42  H    0.000001   0.000000   0.000000   0.000001   0.000000   0.000000
              19         20         21         22         23         24
     1  C    0.000000   0.000000  -0.000034   0.000000   0.000168   0.000011
     2  C    0.000000   0.000000   0.000172   0.000002   0.002859   0.000001
     3  N    0.000000   0.000000  -0.000232   0.000136  -0.092356   0.002223
     4  C   -0.000001  -0.000002  -0.020483  -0.000339   0.002324   0.000097
     5  O    0.000000   0.000000   0.000031  -0.000027  -0.000010  -0.000001
     6  N   -0.000007  -0.000075   0.184933  -0.083891  -0.095923   0.001354
     7  C    0.001681  -0.003294   0.000067   0.016992   0.002303  -0.000021
     8  F    0.000004  -0.003266   0.004248  -0.008865  -0.000008   0.000010
     9  F   -0.000001  -0.000001   0.006668  -0.004124  -0.000008   0.000002
    10  C   -0.027719  -0.031048   0.002876   0.000234  -0.000075   0.000001
    11  F   -0.000661  -0.000815   0.000026   0.000000  -0.000002   0.000000
    12  O   -0.002374   0.000643  -0.000070   0.000000   0.000000   0.000000
    13  C    0.001778   0.000100  -0.000010   0.000004   0.000000   0.000000
    14  F   -0.000773   0.000001   0.000000   0.000000   0.000000   0.000000
    15  F   -0.000003   0.000000   0.000000   0.000000   0.000000   0.000000
    16  F    0.000000   0.000000  -0.000098  -0.000001  -0.000001   0.000000
    17  C    0.300809   0.290433  -0.000060  -0.000001   0.000000   0.000000
    18  F   -0.038147  -0.038121   0.000009   0.000000   0.000000   0.000000
    19  F    9.059099  -0.040036   0.000000   0.000000   0.000000   0.000000
    20  F   -0.040036   9.074279   0.000001   0.000000   0.000000   0.000000
    21  C    0.000000   0.000001   4.201373   0.547355   0.218809  -0.005816
    22  O    0.000000   0.000000   0.547355   8.112311  -0.088679   0.014111
    23  N    0.000000   0.000000   0.218809  -0.088679   7.541542   0.179734
    24  C    0.000000   0.000000  -0.005816   0.014111   0.179734   4.431341
    25  F    0.000000   0.000000   0.000484   0.000024  -0.042170   0.256891
    26  F    0.000000   0.000000   0.004211  -0.012717  -0.036515   0.261940
    27  C    0.000000   0.000000  -0.000419  -0.004535  -0.067049   0.188654
    28  F    0.000000   0.000000  -0.000064   0.000021  -0.000896  -0.028343
    29  O    0.000000   0.000000   0.000033   0.000000   0.001876  -0.034476
    30  C    0.000000   0.000000   0.000006   0.000001   0.000249  -0.005595
    31  F    0.000000   0.000000   0.000000   0.000000  -0.000001  -0.000462
    32  F    0.000000   0.000000   0.000000   0.000000   0.000000  -0.000138
    33  F    0.000000   0.000000   0.000009   0.000000   0.000064   0.013951
    34  C    0.000000   0.000000   0.000896   0.006920  -0.001258  -0.044152
    35  F    0.000000   0.000000   0.000007  -0.000001  -0.000011   0.001806
    36  F    0.000000   0.000000  -0.000375   0.000050  -0.000181   0.002558
    37  F    0.000000   0.000000   0.016588  -0.009753  -0.001517   0.000583
    38  C    0.000000   0.000000  -0.017598   0.000157   0.205013  -0.013360
    39  O    0.000000   0.000000   0.000607  -0.000032  -0.089469   0.012321
    40  H    0.000000   0.000000   0.000001   0.000000   0.000046   0.000005
    41  H    0.000000   0.000000   0.000000   0.000000   0.000002   0.000000
    42  H    0.000000   0.000000  -0.000006   0.000000  -0.000147   0.000001
              25         26         27         28         29         30
     1  C   -0.000005   0.000000   0.000000   0.000001   0.000000   0.000000
     2  C    0.000012   0.000000   0.000000  -0.000001   0.000000   0.000000
     3  N    0.000014  -0.000020  -0.000129  -0.000035   0.000000   0.000000
     4  C   -0.000010  -0.000007   0.000059   0.000027   0.000000   0.000000
     5  O    0.000000   0.000000   0.000000   0.000000   0.000000   0.000000
     6  N   -0.000028   0.000039  -0.000136  -0.000020   0.000000   0.000000
     7  C    0.000000   0.000014   0.000000   0.000000   0.000000   0.000000
     8  F    0.000000   0.000000   0.000000   0.000000   0.000000   0.000000
     9  F    0.000000   0.000000   0.000000   0.000000   0.000000   0.000000
    10  C    0.000000   0.000000   0.000000   0.000000   0.000000   0.000000
    11  F    0.000000   0.000000   0.000000   0.000000   0.000000   0.000000
    12  O    0.000000   0.000000   0.000000   0.000000   0.000000   0.000000
    13  C    0.000000   0.000000   0.000000   0.000000   0.000000   0.000000
    14  F    0.000000   0.000000   0.000000   0.000000   0.000000   0.000000
    15  F    0.000000   0.000000   0.000000   0.000000   0.000000   0.000000
    16  F    0.000000   0.000000   0.000000   0.000000   0.000000   0.000000
    17  C    0.000000   0.000000   0.000000   0.000000   0.000000   0.000000
    18  F    0.000000   0.000000   0.000000   0.000000   0.000000   0.000000
    19  F    0.000000   0.000000   0.000000   0.000000   0.000000   0.000000
    20  F    0.000000   0.000000   0.000000   0.000000   0.000000   0.000000
    21  C    0.000484   0.004211  -0.000419  -0.000064   0.000033   0.000006
    22  O    0.000024  -0.012717  -0.004535   0.000021   0.000000   0.000001
    23  N   -0.042170  -0.036515  -0.067049  -0.000896   0.001876   0.000249
    24  C    0.256891   0.261940   0.188654  -0.028343  -0.034476  -0.005595
    25  F    9.123647  -0.041729  -0.024054  -0.000046  -0.002694   0.003328
    26  F   -0.041729   9.102307  -0.036246   0.000307   0.000167   0.002561
    27  C   -0.024054  -0.036246   4.983299   0.253169   0.172528  -0.001948
    28  F   -0.000046   0.000307   0.253169   9.100120  -0.042704   0.000244
    29  O   -0.002694   0.000167   0.172528  -0.042704   8.327505   0.237604
    30  C    0.003328   0.002561  -0.001948   0.000244   0.237604   3.841988
    31  F    0.000001  -0.000015  -0.007121  -0.000002  -0.047409   0.301778
    32  F   -0.000015   0.000000   0.001309  -0.000002  -0.038297   0.335962
    33  F   -0.001308  -0.007717   0.002684  -0.000001  -0.047165   0.299046
    34  C    0.001791   0.010045   0.183175  -0.013954  -0.030527  -0.005061
    35  F   -0.000001   0.000000  -0.019184  -0.000833  -0.000526   0.000217
    36  F   -0.000003  -0.001658  -0.034959   0.000311  -0.000925   0.011416
    37  F    0.000000  -0.000346  -0.025082  -0.001191   0.000596   0.000089
    38  C    0.010506   0.000850  -0.001374   0.010035   0.000145  -0.000001
    39  O   -0.010053   0.000010   0.001722  -0.006242  -0.000198   0.000007
    40  H   -0.000004   0.000000   0.000001   0.000001   0.000000   0.000000
    41  H    0.000000   0.000000   0.000000   0.000000   0.000000   0.000000
    42  H    0.000000   0.000000   0.000000   0.000000   0.000000   0.000000
              31         32         33         34         35         36
     1  C    0.000000   0.000000   0.000000   0.000000   0.000000   0.000000
     2  C    0.000000   0.000000   0.000000   0.000000   0.000000   0.000000
     3  N    0.000000   0.000000   0.000000   0.000013   0.000000   0.000000
     4  C    0.000000   0.000000   0.000000  -0.000007   0.000000   0.000000
     5  O    0.000000   0.000000   0.000000   0.000000   0.000000   0.000000
     6  N    0.000000   0.000000   0.000000  -0.000010   0.000000  -0.000002
     7  C    0.000000   0.000000   0.000000   0.000001   0.000000   0.000000
     8  F    0.000000   0.000000   0.000000  -0.000004   0.000000   0.000000
     9  F    0.000000   0.000000   0.000000   0.000000   0.000000   0.000000
    10  C    0.000000   0.000000   0.000000   0.000000   0.000000   0.000000
    11  F    0.000000   0.000000   0.000000   0.000000   0.000000   0.000000
    12  O    0.000000   0.000000   0.000000   0.000000   0.000000   0.000000
    13  C    0.000000   0.000000   0.000000   0.000000   0.000000   0.000000
    14  F    0.000000   0.000000   0.000000   0.000000   0.000000   0.000000
    15  F    0.000000   0.000000   0.000000   0.000000   0.000000   0.000000
    16  F    0.000000   0.000000   0.000000   0.000000   0.000000   0.000000
    17  C    0.000000   0.000000   0.000000   0.000000   0.000000   0.000000
    18  F    0.000000   0.000000   0.000000   0.000000   0.000000   0.000000
    19  F    0.000000   0.000000   0.000000   0.000000   0.000000   0.000000
    20  F    0.000000   0.000000   0.000000   0.000000   0.000000   0.000000
    21  C    0.000000   0.000000   0.000009   0.000896   0.000007  -0.000375
    22  O    0.000000   0.000000   0.000000   0.006920  -0.000001   0.000050
    23  N   -0.000001   0.000000   0.000064  -0.001258  -0.000011  -0.000181
    24  C   -0.000462  -0.000138   0.013951  -0.044152   0.001806   0.002558
    25  F    0.000001  -0.000015  -0.001308   0.001791  -0.000001  -0.000003
    26  F   -0.000015   0.000000  -0.007717   0.010045   0.000000  -0.001658
    27  C   -0.007121   0.001309   0.002684   0.183175  -0.019184  -0.034959
    28  F   -0.000002  -0.000002  -0.000001  -0.013954  -0.000833   0.000311
    29  O   -0.047409  -0.038297  -0.047165  -0.030527  -0.000526  -0.000925
    30  C    0.301778   0.335962   0.299046  -0.005061   0.000217   0.011416
    31  F    9.054562  -0.037737  -0.035006   0.017774  -0.001403  -0.005228
    32  F   -0.037737   9.012664  -0.037027  -0.000088  -0.000001   0.000000
    33  F   -0.035006  -0.037027   9.051626  -0.003971   0.000010  -0.000128
    34  C    0.017774  -0.000088  -0.003971   4.254186   0.271939   0.257441
    35  F   -0.001403  -0.000001   0.000010   0.271939   9.082374  -0.037003
    36  F   -0.005228   0.000000  -0.000128   0.257441  -0.037003   9.086194
    37  F    0.000000   0.000000   0.000000   0.276131  -0.038918  -0.034693
    38  C    0.000000   0.000000   0.000005   0.000197   0.000000   0.000002
    39  O    0.000000   0.000000   0.000000   0.000143   0.000000   0.000000
    40  H    0.000000   0.000000   0.000000   0.000000   0.000000   0.000000
    41  H    0.000000   0.000000   0.000000   0.000000   0.000000   0.000000
    42  H    0.000000   0.000000   0.000000   0.000000   0.000000   0.000000
              37         38         39         40         41         42
     1  C    0.000000  -0.001157  -0.007817   0.379608   0.377882  -0.040440
     2  C    0.000000  -0.024293  -0.001680  -0.023323  -0.021006   0.396407
     3  N   -0.000003   0.248178  -0.076073  -0.009635   0.003263  -0.045848
     4  C    0.000014  -0.029801   0.000407  -0.000138  -0.000014  -0.001512
     5  O    0.000000   0.000129  -0.000019  -0.000007  -0.000005   0.010353
     6  N   -0.000709   0.006557  -0.000035   0.000003   0.000001   0.000754
     7  C    0.000047   0.000560  -0.000001   0.000000   0.000000  -0.000001
     8  F    0.000030  -0.000014   0.000000   0.000000   0.000000   0.000000
     9  F    0.000000   0.000020   0.000000   0.000000   0.000000   0.000000
    10  C    0.000000  -0.000016   0.000000   0.000000   0.000000   0.000004
    11  F    0.000000   0.000001   0.000000   0.000000   0.000000  -0.000002
    12  O    0.000000   0.000001   0.000000   0.000000   0.000000   0.000001
    13  C    0.000000   0.000000   0.000000   0.000000   0.000000   0.000001
    14  F    0.000000   0.000000   0.000000   0.000000   0.000000   0.000000
    15  F    0.000000   0.000000   0.000000   0.000000   0.000000   0.000000
    16  F    0.000000   0.000001   0.000000   0.000000   0.000000   0.000001
    17  C    0.000000   0.000000   0.000000   0.000000   0.000000   0.000000
    18  F    0.000000   0.000000   0.000000   0.000000   0.000000   0.000000
    19  F    0.000000   0.000000   0.000000   0.000000   0.000000   0.000000
    20  F    0.000000   0.000000   0.000000   0.000000   0.000000   0.000000
    21  C    0.016588  -0.017598   0.000607   0.000001   0.000000  -0.000006
    22  O   -0.009753   0.000157  -0.000032   0.000000   0.000000   0.000000
    23  N   -0.001517   0.205013  -0.089469   0.000046   0.000002  -0.000147
    24  C    0.000583  -0.013360   0.012321   0.000005   0.000000   0.000001
    25  F    0.000000   0.010506  -0.010053  -0.000004   0.000000   0.000000
    26  F   -0.000346   0.000850   0.000010   0.000000   0.000000   0.000000
    27  C   -0.025082  -0.001374   0.001722   0.000001   0.000000   0.000000
    28  F   -0.001191   0.010035  -0.006242   0.000001   0.000000   0.000000
    29  O    0.000596   0.000145  -0.000198   0.000000   0.000000   0.000000
    30  C    0.000089  -0.000001   0.000007   0.000000   0.000000   0.000000
    31  F    0.000000   0.000000   0.000000   0.000000   0.000000   0.000000
    32  F    0.000000   0.000000   0.000000   0.000000   0.000000   0.000000
    33  F    0.000000   0.000005   0.000000   0.000000   0.000000   0.000000
    34  C    0.276131   0.000197   0.000143   0.000000   0.000000   0.000000
    35  F   -0.038918   0.000000   0.000000   0.000000   0.000000   0.000000
    36  F   -0.034693   0.000002   0.000000   0.000000   0.000000   0.000000
    37  F    9.061202  -0.000056   0.000001   0.000000   0.000000   0.000000
    38  C   -0.000056   4.196606   0.559364   0.002625   0.000132   0.002827
    39  O    0.000001   0.559364   8.080921   0.009302   0.000428   0.000048
    40  H    0.000000   0.002625   0.009302   0.524983  -0.033729   0.003990
    41  H    0.000000   0.000132   0.000428  -0.033729   0.547766  -0.006955
    42  H    0.000000   0.002827   0.000048   0.003990  -0.006955   0.510369
 Mulliken charges:
               1
     1  C   -0.264432
     2  C    0.111273
     3  N   -0.608133
     4  C    0.842090
     5  O   -0.485892
     6  N   -0.663976
     7  C    0.803069
     8  F   -0.270493
     9  F   -0.250805
    10  C    0.412528
    11  F   -0.280293
    12  O   -0.483670
    13  C    0.989515
    14  F   -0.242332
    15  F   -0.238820
    16  F   -0.243012
    17  C    0.809511
    18  F   -0.239882
    19  F   -0.253648
    20  F   -0.248799
    21  C    0.855857
    22  O   -0.485353
    23  N   -0.638717
    24  C    0.764772
    25  F   -0.274581
    26  F   -0.245481
    27  C    0.435637
    28  F   -0.269904
    29  O   -0.495533
    30  C    0.978108
    31  F   -0.239731
    32  F   -0.236631
    33  F   -0.235074
    34  C    0.818380
    35  F   -0.258472
    36  F   -0.242818
    37  F   -0.243014
    38  C    0.843759
    39  O   -0.473661
    40  H    0.146271
    41  H    0.132235
    42  H    0.170155
 Sum of Mulliken charges =   0.00000
 Mulliken charges with hydrogens summed into heavy atoms:
               1
     1  C    0.014075
     2  C    0.281428
     3  N   -0.608133
     4  C    0.842090
     5  O   -0.485892
     6  N   -0.663976
     7  C    0.803069
     8  F   -0.270493
     9  F   -0.250805
    10  C    0.412528
    11  F   -0.280293
    12  O   -0.483670
    13  C    0.989515
    14  F   -0.242332
    15  F   -0.238820
    16  F   -0.243012
    17  C    0.809511
    18  F   -0.239882
    19  F   -0.253648
    20  F   -0.248799
    21  C    0.855857
    22  O   -0.485353
    23  N   -0.638717
    24  C    0.764772
    25  F   -0.274581
    26  F   -0.245481
    27  C    0.435637
    28  F   -0.269904
    29  O   -0.495533
    30  C    0.978108
    31  F   -0.239731
    32  F   -0.236631
    33  F   -0.235074
    34  C    0.818380
    35  F   -0.258472
    36  F   -0.242818
    37  F   -0.243014
    38  C    0.843759
    39  O   -0.473661
 Electronic spatial extent (au):  <R**2>=          19051.0148
 Charge=              0.0000 electrons
 Dipole moment (field-independent basis, Debye):
    X=             -0.3517    Y=             -2.6411    Z=             -0.4773  Tot=              2.7068
 Quadrupole moment (field-independent basis, Debye-Ang):
   XX=           -216.6055   YY=           -204.9765   ZZ=           -206.6623
   XY=              4.0240   XZ=              1.2944   YZ=              0.6292
 Traceless Quadrupole moment (field-independent basis, Debye-Ang):
   XX=             -7.1907   YY=              4.4383   ZZ=              2.7525
   XY=              4.0240   XZ=              1.2944   YZ=              0.6292
 Octapole moment (field-independent basis, Debye-Ang**2):
  XXX=              5.8171  YYY=           -240.4002  ZZZ=            -12.4218  XYY=            -13.4480
  XXY=            -32.7251  XXZ=            -18.7902  XZZ=              2.0875  YZZ=            -58.3106
  YYZ=             -3.8662  XYZ=              2.0937
 Hexadecapole moment (field-independent basis, Debye-Ang**3):
 XXXX=         -14127.0481 YYYY=          -3643.8737 ZZZZ=          -2134.2601 XXXY=             11.0589
 XXXZ=           1382.6014 YYYX=             43.7995 YYYZ=           -283.2277 ZZZX=           1384.1523
 ZZZY=           -304.6011 XXYY=          -3046.2758 XXZZ=          -2699.6650 YYZZ=          -1042.0021
 XXYZ=           -129.4887 YYXZ=            446.8057 ZZXY=              6.6260
 N-N= 5.824503604909D+03 E-N=-1.834654522210D+04  KE= 2.813120845780D+03
 No NMR shielding tensors so no spin-rotation constants.
 Leave Link  601 at Sun Mar  3 18:08:15 2024, MaxMem=  5368709120 cpu:         4.0
 (Enter /home/k0335/k033513/app/g09/l9999.exe)
 1\1\GINC-C18U04N2\SP\RCAM-B3LYP\6-31G(d,p)\C13H3F18N3O5\K033513\03-Mar
 -2024\0\\#p CAM-B3LYP/6-31G(d,p) SCRF=(PCM,Solvent=Generic,Read) NoSym
 m out=wfn\\Title A584720882_0\\0,1\C,0,0.164936,-4.618126,-0.21854\C,0
 ,-0.633397,-3.565605,-0.004724\N,0,-0.32553,-2.201599,-0.10746\C,0,-1.
 373652,-1.297323,0.075509\O,0,-2.547321,-1.659844,0.11108\N,0,-1.03030
 9,0.021058,0.19457\C,0,-2.0089,1.041828,0.574702\F,0,-1.296188,1.98139
 6,1.272809\F,0,-2.447171,1.681123,-0.542208\C,0,-3.227339,0.670424,1.4
 71523\F,0,-2.751848,-0.123505,2.498369\O,0,-4.31765,-0.089666,0.94088\
 C,0,-4.832102,0.360198,-0.283661\F,0,-5.082881,1.674673,-0.233076\F,0,
 -5.984656,-0.287428,-0.532916\F,0,-3.96708,0.102016,-1.277971\C,0,-3.7
 08655,1.983363,2.116984\F,0,-3.891785,2.98247,1.229856\F,0,-4.889411,1
 .800773,2.761299\F,0,-2.835603,2.438745,3.047782\C,0,0.102294,0.494213
 ,-0.423589\O,0,0.27016,1.685607,-0.669526\N,0,1.05429,-0.428351,-0.759
 951\C,0,2.346805,0.039372,-1.245099\F,0,2.843762,-0.940579,-2.070733\F
 ,0,2.164479,1.081021,-2.100678\C,0,3.442932,0.372001,-0.187463\F,0,3.2
 96123,-0.494851,0.875615\O,0,4.782454,0.089188,-0.628641\C,0,5.292953,
 1.006441,-1.560906\F,0,5.55444,2.173153,-0.953281\F,0,6.437578,0.51534
 5,-2.067673\F,0,4.424946,1.200505,-2.560951\C,0,3.223292,1.771784,0.38
 4582\F,0,4.226087,2.099978,1.238309\F,0,3.178485,2.7296,-0.560554\F,0,
 2.081994,1.8348,1.107451\C,0,0.967798,-1.742472,-0.354813\O,0,1.983147
 ,-2.420319,-0.207986\H,0,1.205673,-4.54882,-0.513116\H,0,-0.226562,-5.
 625563,-0.103824\H,0,-1.666585,-3.787026,0.268019\\Version=ES64L-G09Re
 vD.01\HF=-2833.8519247\RMSD=8.099e-09\Dipole=-0.1383577,-1.0390945,-0.
 1877705\Quadrupole=-5.3461436,3.2997564,2.0463872,2.9917608,0.9623489,
 0.467784\PG=C01 [X(C13H3F18N3O5)]\\@

 Writing a WFN file to "A584720882/A584720882_0.wfn"


 TO ERR IS HUMAN - AND TO BLAME IT ON A COMPUTER IS EVEN MORE SO.
 Job cpu time:       0 days  0 hours 20 minutes 13.7 seconds.
 File lengths (MBytes):  RWF=    390 Int=      0 D2E=      0 Chk=     15 Scr=      1
 Normal termination of Gaussian 09 at Sun Mar  3 18:08:16 2024.
