 Entering Gaussian System, Link 0=g09
 Initial command:
 /home/k0335/k033513/app/g09/l1.exe "/home/k0335/k033513/app/g09/scratch/Gau-548775.inp" -scrdir="/home/k0335/k033513/app/g09/scratch/"
 Default is to use a total of  36 processors:
                               36 via shared-memory
                                1 via Linda
 Entering Link 1 = /home/k0335/k033513/app/g09/l1.exe PID=    548776.
  
 Copyright (c) 1988,1990,1992,1993,1995,1998,2003,2009,2013,
            Gaussian, Inc.  All Rights Reserved.
  
 This is part of the Gaussian(R) 09 program.  It is based on
 the Gaussian(R) 03 system (copyright 2003, Gaussian, Inc.),
 the Gaussian(R) 98 system (copyright 1998, Gaussian, Inc.),
 the Gaussian(R) 94 system (copyright 1995, Gaussian, Inc.),
 the Gaussian 92(TM) system (copyright 1992, Gaussian, Inc.),
 the Gaussian 90(TM) system (copyright 1990, Gaussian, Inc.),
 the Gaussian 88(TM) system (copyright 1988, Gaussian, Inc.),
 the Gaussian 86(TM) system (copyright 1986, Carnegie Mellon
 University), and the Gaussian 82(TM) system (copyright 1983,
 Carnegie Mellon University). Gaussian is a federally registered
 trademark of Gaussian, Inc.
  
 This software contains proprietary and confidential information,
 including trade secrets, belonging to Gaussian, Inc.
  
 This software is provided under written license and may be
 used, copied, transmitted, or stored only in accord with that
 written license.
  
 The following legend is applicable only to US Government
 contracts under FAR:
  
                    RESTRICTED RIGHTS LEGEND
  
 Use, reproduction and disclosure by the US Government is
 subject to restrictions as set forth in subparagraphs (a)
 and (c) of the Commercial Computer Software - Restricted
 Rights clause in FAR 52.227-19.
  
 Gaussian, Inc.
 340 Quinnipiac St., Bldg. 40, Wallingford CT 06492
  
  
 ---------------------------------------------------------------
 Warning -- This program may not be used in any manner that
 competes with the business of Gaussian, Inc. or will provide
 assistance to any competitor of Gaussian, Inc.  The licensee
 of this program is prohibited from giving any competitor of
 Gaussian, Inc. access to this program.  By using this program,
 the user acknowledges that Gaussian, Inc. is engaged in the
 business of creating and licensing software in the field of
 computational chemistry and represents and warrants to the
 licensee that it is not a competitor of Gaussian, Inc. and that
 it will not use this program in any manner prohibited above.
 ---------------------------------------------------------------
  

 Cite this work as:
 Gaussian 09, Revision D.01,
 M. J. Frisch, G. W. Trucks, H. B. Schlegel, G. E. Scuseria, 
 M. A. Robb, J. R. Cheeseman, G. Scalmani, V. Barone, B. Mennucci, 
 G. A. Petersson, H. Nakatsuji, M. Caricato, X. Li, H. P. Hratchian, 
 A. F. Izmaylov, J. Bloino, G. Zheng, J. L. Sonnenberg, M. Hada, 
 M. Ehara, K. Toyota, R. Fukuda, J. Hasegawa, M. Ishida, T. Nakajima, 
 Y. Honda, O. Kitao, H. Nakai, T. Vreven, J. A. Montgomery, Jr., 
 J. E. Peralta, F. Ogliaro, M. Bearpark, J. J. Heyd, E. Brothers, 
 K. N. Kudin, V. N. Staroverov, T. Keith, R. Kobayashi, J. Normand, 
 K. Raghavachari, A. Rendell, J. C. Burant, S. S. Iyengar, J. Tomasi, 
 M. Cossi, N. Rega, J. M. Millam, M. Klene, J. E. Knox, J. B. Cross, 
 V. Bakken, C. Adamo, J. Jaramillo, R. Gomperts, R. E. Stratmann, 
 O. Yazyev, A. J. Austin, R. Cammi, C. Pomelli, J. W. Ochterski, 
 R. L. Martin, K. Morokuma, V. G. Zakrzewski, G. A. Voth, 
 P. Salvador, J. J. Dannenberg, S. Dapprich, A. D. Daniels, 
 O. Farkas, J. B. Foresman, J. V. Ortiz, J. Cioslowski, 
 and D. J. Fox, Gaussian, Inc., Wallingford CT, 2013.
 
 ******************************************
 Gaussian 09:  ES64L-G09RevD.01 24-Apr-2013
                 3-Mar-2024 
 ******************************************
 %nprocshared=24
 Will use up to   24 processors via shared memory.
 %mem=40GB
 %rwf=A1386248941/A1386248941_p1.rwf
 %nosave
 %chk=A1386248941/A1386248941_p1.chk
 ----------------------------------------------------------------------
 #p CAM-B3LYP/6-31G(d,p) SCRF=(PCM,Solvent=Generic,Read) NoSymm out=wfn
 ----------------------------------------------------------------------
 1/38=1,40=2/1;
 2/12=2,15=1,17=6,18=5,40=1/2;
 3/5=1,6=6,7=101,11=2,16=1,25=1,30=1,70=2203,72=-2,74=-40/1,2,3;
 4//1;
 5/5=2,38=5/2;
 6/7=2,8=2,9=2,10=2,28=1/1;
 99/5=1,6=100,9=1/99;
 Leave Link    1 at Sun Mar  3 17:42:01 2024, MaxMem=  5368709120 cpu:         2.3
 (Enter /home/k0335/k033513/app/g09/l101.exe)
 --------------------
 Title A1386248941_p1
 --------------------
 Symbolic Z-matrix:
 Charge =  1 Multiplicity = 2
 C                    -3.30215  -3.80573  -1.54886 
 O                    -2.54916  -2.91841  -0.734 
 C                    -2.2351   -1.7141   -1.43036 
 N                    -1.47034  -0.88304  -0.52807 
 C                    -2.14885   0.03521   0.24164 
 O                    -3.37253   0.16719   0.1817 
 N                    -1.36694   0.80806   1.07201 
 C                    -2.00455   1.89151   1.78545 
 O                    -1.96192   3.04005   0.94112 
 C                    -2.54846   4.16888   1.57333 
 C                    -0.00792   0.64442   1.21833 
 O                     0.65615   1.37096   1.95735 
 N                     0.56677  -0.37362   0.4943 
 C                     2.0085   -0.53556   0.58982 
 F                     2.34136  -0.48853   1.92233 
 F                     2.3581   -1.80491   0.24483 
 C                     2.89559   0.50297  -0.15754 
 F                     2.29189   1.73924  -0.06213 
 O                     4.16943   0.74271   0.46664 
 C                     5.1074   -0.28778   0.30269 
 F                     4.58745  -1.46809   0.65848 
 F                     6.17096  -0.02975   1.08519 
 F                     5.51562  -0.3349   -0.97411 
 C                     2.94499   0.17345  -1.64868 
 F                     3.3784   -1.07672  -1.90136 
 F                     3.78411   1.02237  -2.2962 
 F                     1.73503   0.32682  -2.23371 
 C                    -0.10574  -1.04417  -0.49482 
 O                     0.48897  -1.72471  -1.3302 
 H                    -4.25139  -3.34625  -1.84092 
 H                    -2.73042  -4.08863  -2.438 
 H                    -3.51518  -4.70812  -0.96959 
 H                    -3.15918  -1.21133  -1.73707 
 H                    -1.65235  -1.94827  -2.32839 
 H                    -3.04593   1.64284   2.01911 
 H                    -1.47745   2.09962   2.72353 
 H                    -2.00188   4.42433   2.48628 
 H                    -3.60036   3.97551   1.80484 
 H                    -2.49289   5.0165    0.88507 
 
 NAtoms=     39 NQM=       39 NQMF=       0 NMMI=      0 NMMIF=      0
                NMic=       0 NMicF=      0.
                    Isotopes and Nuclear Properties:
 (Nuclear quadrupole moments (NQMom) in fm**2, nuclear magnetic moments (NMagM)
  in nuclear magnetons)

  Atom         1           2           3           4           5           6           7           8           9          10
 IAtWgt=          12          16          12          14          12          16          14          12          16          12
 AtmWgt=  12.0000000  15.9949146  12.0000000  14.0030740  12.0000000  15.9949146  14.0030740  12.0000000  15.9949146  12.0000000
 NucSpn=           0           0           0           2           0           0           2           0           0           0
 AtZEff=   0.0000000   0.0000000   0.0000000   0.0000000   0.0000000   0.0000000   0.0000000   0.0000000   0.0000000   0.0000000
 NQMom=    0.0000000   0.0000000   0.0000000   2.0440000   0.0000000   0.0000000   2.0440000   0.0000000   0.0000000   0.0000000
 NMagM=    0.0000000   0.0000000   0.0000000   0.4037610   0.0000000   0.0000000   0.4037610   0.0000000   0.0000000   0.0000000
 AtZNuc=   6.0000000   8.0000000   6.0000000   7.0000000   6.0000000   8.0000000   7.0000000   6.0000000   8.0000000   6.0000000

  Atom        11          12          13          14          15          16          17          18          19          20
 IAtWgt=          12          16          14          12          19          19          12          19          16          12
 AtmWgt=  12.0000000  15.9949146  14.0030740  12.0000000  18.9984033  18.9984033  12.0000000  18.9984033  15.9949146  12.0000000
 NucSpn=           0           0           2           0           1           1           0           1           0           0
 AtZEff=   0.0000000   0.0000000   0.0000000   0.0000000   0.0000000   0.0000000   0.0000000   0.0000000   0.0000000   0.0000000
 NQMom=    0.0000000   0.0000000   2.0440000   0.0000000   0.0000000   0.0000000   0.0000000   0.0000000   0.0000000   0.0000000
 NMagM=    0.0000000   0.0000000   0.4037610   0.0000000   2.6288670   2.6288670   0.0000000   2.6288670   0.0000000   0.0000000
 AtZNuc=   6.0000000   8.0000000   7.0000000   6.0000000   9.0000000   9.0000000   6.0000000   9.0000000   8.0000000   6.0000000

  Atom        21          22          23          24          25          26          27          28          29          30
 IAtWgt=          19          19          19          12          19          19          19          12          16           1
 AtmWgt=  18.9984033  18.9984033  18.9984033  12.0000000  18.9984033  18.9984033  18.9984033  12.0000000  15.9949146   1.0078250
 NucSpn=           1           1           1           0           1           1           1           0           0           1
 AtZEff=   0.0000000   0.0000000   0.0000000   0.0000000   0.0000000   0.0000000   0.0000000   0.0000000   0.0000000   0.0000000
 NQMom=    0.0000000   0.0000000   0.0000000   0.0000000   0.0000000   0.0000000   0.0000000   0.0000000   0.0000000   0.0000000
 NMagM=    2.6288670   2.6288670   2.6288670   0.0000000   2.6288670   2.6288670   2.6288670   0.0000000   0.0000000   2.7928460
 AtZNuc=   9.0000000   9.0000000   9.0000000   6.0000000   9.0000000   9.0000000   9.0000000   6.0000000   8.0000000   1.0000000

  Atom        31          32          33          34          35          36          37          38          39
 IAtWgt=           1           1           1           1           1           1           1           1           1
 AtmWgt=   1.0078250   1.0078250   1.0078250   1.0078250   1.0078250   1.0078250   1.0078250   1.0078250   1.0078250
 NucSpn=           1           1           1           1           1           1           1           1           1
 AtZEff=   0.0000000   0.0000000   0.0000000   0.0000000   0.0000000   0.0000000   0.0000000   0.0000000   0.0000000
 NQMom=    0.0000000   0.0000000   0.0000000   0.0000000   0.0000000   0.0000000   0.0000000   0.0000000   0.0000000
 NMagM=    2.7928460   2.7928460   2.7928460   2.7928460   2.7928460   2.7928460   2.7928460   2.7928460   2.7928460
 AtZNuc=   1.0000000   1.0000000   1.0000000   1.0000000   1.0000000   1.0000000   1.0000000   1.0000000   1.0000000
 Leave Link  101 at Sun Mar  3 17:42:02 2024, MaxMem=  5368709120 cpu:         1.0
 (Enter /home/k0335/k033513/app/g09/l202.exe)
                          Input orientation:                          
 ---------------------------------------------------------------------
 Center     Atomic      Atomic             Coordinates (Angstroms)
 Number     Number       Type             X           Y           Z
 ---------------------------------------------------------------------
      1          6           0       -3.302149   -3.805725   -1.548862
      2          8           0       -2.549161   -2.918412   -0.734000
      3          6           0       -2.235098   -1.714100   -1.430360
      4          7           0       -1.470337   -0.883039   -0.528069
      5          6           0       -2.148845    0.035207    0.241641
      6          8           0       -3.372528    0.167186    0.181700
      7          7           0       -1.366940    0.808055    1.072006
      8          6           0       -2.004554    1.891512    1.785447
      9          8           0       -1.961923    3.040045    0.941121
     10          6           0       -2.548460    4.168883    1.573332
     11          6           0       -0.007917    0.644421    1.218332
     12          8           0        0.656149    1.370961    1.957346
     13          7           0        0.566768   -0.373616    0.494299
     14          6           0        2.008496   -0.535560    0.589818
     15          9           0        2.341356   -0.488534    1.922330
     16          9           0        2.358096   -1.804912    0.244828
     17          6           0        2.895587    0.502974   -0.157536
     18          9           0        2.291889    1.739236   -0.062132
     19          8           0        4.169430    0.742711    0.466638
     20          6           0        5.107404   -0.287783    0.302686
     21          9           0        4.587445   -1.468094    0.658477
     22          9           0        6.170964   -0.029753    1.085186
     23          9           0        5.515616   -0.334899   -0.974112
     24          6           0        2.944991    0.173449   -1.648680
     25          9           0        3.378398   -1.076720   -1.901360
     26          9           0        3.784105    1.022366   -2.296200
     27          9           0        1.735026    0.326818   -2.233705
     28          6           0       -0.105742   -1.044171   -0.494819
     29          8           0        0.488973   -1.724714   -1.330204
     30          1           0       -4.251391   -3.346249   -1.840921
     31          1           0       -2.730421   -4.088632   -2.438002
     32          1           0       -3.515183   -4.708118   -0.969589
     33          1           0       -3.159180   -1.211327   -1.737070
     34          1           0       -1.652353   -1.948271   -2.328393
     35          1           0       -3.045934    1.642839    2.019110
     36          1           0       -1.477445    2.099618    2.723533
     37          1           0       -2.001882    4.424332    2.486279
     38          1           0       -3.600359    3.975512    1.804836
     39          1           0       -2.492890    5.016502    0.885070
 ---------------------------------------------------------------------
                    Distance matrix (angstroms):
                    1          2          3          4          5
     1  C    0.000000
     2  O    1.420674   0.000000
     3  C    2.351071   1.426156   0.000000
     4  N    3.597172   2.312793   1.445562   0.000000
     5  C    4.391898   3.136239   2.421384   1.376954   0.000000
     6  O    4.334030   3.322251   2.726118   2.285842   1.232238
     7  N    5.648092   4.306491   3.657431   2.330393   1.377743
     8  C    6.727546   5.457067   4.836838   3.651832   2.418683
     9  O    7.406807   6.217241   5.319816   4.217910   3.090835
    10  C    8.597122   7.453424   6.612855   5.576751   4.361235
    11  C    6.189760   4.792004   4.187902   2.742576   2.430769
    12  O    7.399979   5.993002   5.417884   3.972373   3.549067
    13  N    5.560791   4.206390   3.653993   2.335497   2.757812
    14  C    6.593245   5.310623   4.845427   3.670517   4.210758
    15  F    7.409594   6.072689   5.804005   4.548526   4.822958
    16  F    6.265696   5.126320   4.889983   4.012994   4.868117
    17  C    7.675455   6.456274   5.732314   4.595609   5.081776
    18  F    8.015623   6.751360   5.855868   4.609530   4.766142
    19  O    8.976358   7.744987   7.117057   5.953106   6.361744
    20  C    9.301867   8.161980   7.677901   6.656663   7.263690
    21  F    8.519540   7.414416   7.139387   6.200557   6.914569
    22  F   10.532618   9.364527   8.934589   7.856219   8.362715
    23  F    9.493679   8.471884   7.885678   7.021606   7.769105
    24  C    7.407466   6.370396   5.517592   4.676223   5.435034
    25  F    7.225056   6.315894   5.669165   5.043181   6.031521
    26  F    8.607205   7.621054   6.668488   5.862254   6.528018
    27  F    6.551340   5.579865   4.535702   3.827179   4.614849
    28  C    4.353643   3.088735   2.420372   1.374478   2.425222
    29  O    4.330245   3.318227   2.725932   2.278318   3.539223
    30  H    1.094293   2.075068   2.626387   3.940209   4.493552
    31  H    1.094294   2.075065   2.626612   3.938462   4.952249
    32  H    1.093277   2.047376   3.288628   4.359767   5.082626
    33  H    2.605142   2.071814   1.095801   2.102771   2.547532
    34  H    2.603772   2.070634   1.095852   2.099766   3.284169
    35  H    6.517892   5.350833   4.881121   3.917995   2.559032
    36  H    7.513719   6.187385   5.689755   4.412393   3.297326
    37  H    9.257802   8.036517   7.285245   6.126746   4.931979
    38  H    8.478436   7.421381   6.685964   5.795253   4.480678
    39  H    9.187525   8.098606   7.122407   6.152005   5.034448
                    6          7          8          9         10
     6  O    0.000000
     7  N    2.285988   0.000000
     8  C    2.723354   1.445486   0.000000
     9  O    3.289353   2.313637   1.426125   0.000000
    10  C    4.316168   3.597566   2.351009   1.420560   0.000000
    11  C    3.552881   1.376638   2.421449   3.103869   4.359153
    12  O    4.564234   2.278943   2.716590   3.266934   4.271458
    13  N    3.988513   2.338657   3.661907   4.271652   5.612776
    14  C    5.442043   3.664884   4.839915   5.354679   6.623061
    15  F    6.009013   4.019410   4.956843   5.650827   6.761925
    16  F    6.060793   4.624685   5.921974   6.528476   7.843815
    17  C    6.286263   4.446795   5.451110   5.589202   6.787668
    18  F    5.883572   3.942131   4.679333   4.559993   5.657465
    19  O    7.569250   5.569752   6.416937   6.564782   7.621907
    20  C    8.492990   6.611342   7.584712   7.839478   8.949227
    21  F    8.140186   6.388001   7.484081   7.955968   9.139672
    22  F    9.588186   7.584332   8.427379   8.694151   9.689953
    23  F    8.977031   7.270662   8.314146   8.424485   9.581380
    24  C    6.577338   5.137860   6.264421   6.245178   7.518169
    25  F    7.173663   5.908597   7.167923   7.317546   8.643927
    26  F    7.621595   6.158247   7.136093   6.896964   8.060721
    27  F    5.652148   4.558674   5.708442   5.577504   6.899511
    28  C    3.549219   2.734283   4.174127   4.710430   6.117193
    29  O    4.558106   3.953472   5.385355   5.819685   7.238163
    30  H    4.148207   5.836390   6.755217   7.332542   8.428185
    31  H    5.038564   6.177117   7.357073   7.926355   9.182073
    32  H    5.011428   6.261887   7.309401   8.130034   9.284511
    33  H    2.372234   3.896272   4.834139   5.165297   6.346527
    34  H    3.706039   4.386514   5.638409   5.972341   7.310680
    35  H    2.379137   2.100688   1.095860   2.071069   2.612871
    36  H    3.713024   2.099497   1.095973   2.072707   2.598441
    37  H    5.031207   3.934562   2.627993   2.074936   1.094292
    38  H    4.146061   3.944361   2.624886   2.074988   1.094293
    39  H    4.978389   4.360474   3.288573   2.047303   1.093275
                   11         12         13         14         15
    11  C    0.000000
    12  O    1.230848   0.000000
    13  N    1.375095   2.278606   0.000000
    14  C    2.419361   2.708099   1.453936   0.000000
    15  F    2.701534   2.509755   2.280711   1.374262   0.000000
    16  F    3.541886   3.989425   2.306447   1.361063   2.132403
    17  C    3.216109   3.200189   2.572294   1.556927   2.369832
    18  F    2.850845   2.624798   2.783847   2.383285   2.983873
    19  O    4.245578   3.867823   3.771754   2.513720   2.641374
    20  C    5.279576   5.030209   4.545488   3.122030   3.211630
    21  F    5.088567   5.020197   4.170213   2.743230   2.757132
    22  F    6.216977   5.756374   5.645742   4.222247   3.946795
    23  F    6.022898   5.926029   5.162250   3.845261   4.299873
    24  C    4.142612   4.435793   3.247704   2.527962   3.681672
    25  F    4.915479   5.318965   3.760160   2.894038   4.005250
    26  F    5.184034   5.291340   4.481842   3.729480   4.707477
    27  F    3.880114   4.451867   3.049170   2.964922   4.278442
    28  C    2.407447   3.525118   1.371229   2.430046   3.484197
    29  O    3.514930   4.518754   2.271636   2.722044   3.941883
    30  H    6.579631   7.795053   6.124088   7.279742   8.111283
    31  H    6.571347   7.784285   5.768118   6.652018   7.595796
    32  H    6.762957   7.932349   6.131329   7.095986   7.776062
    33  H    4.701985   5.905392   4.423060   5.707534   6.646016
    34  H    4.691000   5.891862   3.920667   4.890146   6.012420
    35  H    3.296609   3.712567   4.409394   5.686437   5.794395
    36  H    2.557878   2.381220   3.907068   4.862992   4.682275
    37  H    4.457725   4.082643   5.795365   6.654339   6.581642
    38  H    4.934146   4.992475   6.164201   7.299678   7.432731
    39  H    5.039965   4.935199   6.210280   7.153673   7.399410
                   16         17         18         19         20
    16  F    0.000000
    17  C    2.403566   0.000000
    18  F    3.558032   1.379093   0.000000
    19  O    3.133770   1.438660   2.190393   0.000000
    20  C    3.140656   2.393582   3.488413   1.403066   0.000000
    21  F    2.292280   2.722750   4.009466   2.258140   1.337938
    22  F    4.288980   3.543480   4.415075   2.232810   1.345379
    23  F    3.690079   2.869387   3.940325   2.247047   1.341294
    24  C    2.800666   1.527919   2.322793   2.509558   2.948999
    25  F    2.485438   2.401970   3.534525   3.089252   2.910275
    26  F    4.060028   2.373419   2.780588   2.803561   3.197158
    27  F    3.328005   2.385039   2.649670   3.659391   4.264264
    28  C    2.682592   3.393434   3.699082   4.732277   5.327760
    29  O    2.445563   3.482748   4.105784   4.781484   5.104998
    30  H    7.100098   8.290332   8.475893   9.641299  10.076523
    31  H    6.189181   7.611527   8.051857   8.909924   9.131776
    32  H    6.663244   8.301378   8.724330   9.530350   9.772771
    33  H    5.892419   6.487986   6.420700   7.898298   8.564458
    34  H    4.767150   5.604015   5.855825   6.996195   7.441378
    35  H    6.651211   6.429522   5.730027   7.435178   8.552797
    36  H    6.008386   5.474782   4.700817   6.230728   7.410831
    37  H    7.926979   6.808231   5.669269   7.464474   8.804207
    38  H    8.446900   7.622778   6.573058   8.521232   9.811079
    39  H    8.394859   7.105959   5.876374   7.926341   9.286500
                   21         22         23         24         25
    21  F    0.000000
    22  F    2.181384   0.000000
    23  F    2.193394   2.182499   0.000000
    24  C    3.273422   4.233464   2.705840   0.000000
    25  F    2.857925   4.220666   2.444952   1.347075   0.000000
    26  F    3.946880   4.270576   2.566752   1.357960   2.174088
    27  F    4.441027   5.551552   4.039468   1.352698   2.186560
    28  C    4.851372   6.551526   5.686163   3.481518   3.757479
    29  O    4.562694   6.402501   5.227382   3.120332   3.015774
    30  H    9.375472  11.321958  10.257388   8.013310   7.960408
    31  H    8.366993  10.398173   9.177724   7.141335   6.832076
    32  H    8.876989  10.951285  10.033962   8.125559   7.847083
    33  H    8.112630   9.819004   8.752275   6.259898   6.541027
    34  H    6.934482   8.748573   7.471066   5.108745   5.123516
    35  H    8.354502   9.413872   9.282832   7.176557   8.002383
    36  H    7.333206   8.106575   8.276615   6.510324   7.420106
    37  H    9.026670   9.412616   9.546589   7.722658   8.857785
    38  H    9.898844  10.584838  10.459598   8.320100   9.378912
    39  H    9.603774  10.028315   9.809700   7.710097   8.908623
                   26         27         28         29         30
    26  F    0.000000
    27  F    2.164813   0.000000
    28  C    4.758830   2.879542   0.000000
    29  O    4.397441   2.564712   1.230729   0.000000
    30  H    9.157580   7.034408   4.929296   5.035996   0.000000
    31  H    8.281392   6.283164   4.464711   4.144855   1.794711
    32  H    9.374324   7.383310   5.027345   5.006397   1.776488
    33  H    7.315136   5.154201   3.300699   3.706498   2.400334
    34  H    6.195224   4.081585   2.563473   2.373107   2.991149
    35  H    8.102859   6.532681   4.710052   5.920632   6.422146
    36  H    7.351333   6.167414   4.703485   5.909746   7.628007
    37  H    8.241549   7.282331   6.510516   7.653801   9.174251
    38  H    8.948177   7.621622   6.534369   7.683989   8.205094
    39  H    8.091617   7.042384   6.658403   7.696943   8.969892
                   31         32         33         34         35
    31  H    0.000000
    32  H    1.776472   0.000000
    33  H    2.992328   3.597682   0.000000
    34  H    2.399039   3.596281   1.778560   0.000000
    35  H    7.267404   7.034712   4.718896   5.808521   0.000000
    36  H    8.155111   8.008545   5.804099   6.475952   1.779049
    37  H    9.861535   9.881030   7.136993   7.994580   3.007490
    38  H    9.153627   9.116475   6.296272   7.481278   2.407211
    39  H    9.695499   9.952541   6.790097   7.716276   3.601875
                   36         37         38         39
    36  H    0.000000
    37  H    2.394915   0.000000
    38  H    2.978212   1.794696   0.000000
    39  H    3.594341   1.776408   1.776546   0.000000
 Symmetry turned off by external request.
 Stoichiometry    C11H10F9N3O6(1+,2)
 Framework group  C1[X(C11H10F9N3O6)]
 Deg. of freedom   111
 Full point group                 C1      NOp   1
 Rotational constants (GHZ):      0.2597968      0.1202539      0.0984285
 Leave Link  202 at Sun Mar  3 17:42:02 2024, MaxMem=  5368709120 cpu:         0.1
 (Enter /home/k0335/k033513/app/g09/l301.exe)
 Standard basis: 6-31G(d,p) (6D, 7F)
 Ernie: Thresh=  0.10000D-02 Tol=  0.10000D-05 Strict=F.
   485 basis functions,   882 primitive gaussians,   485 cartesian basis functions
   113 alpha electrons      112 beta electrons
       nuclear repulsion energy      3539.9790864510 Hartrees.
 IExCor=20419 DFT=T Ex+Corr=CAM-B3LYP ExCW=0 ScaHFX=  1.000000
 ScaDFX=  1.000000  1.000000  1.000000  0.810000 ScalE2=  1.000000  1.000000
 IRadAn=      0 IRanWt=     -1 IRanGd=            0 ICorTp=0 IEmpDi=  4
  HFx wShort=  0.000000 wLong=  0.330000 cFull=  0.190000 cShort=  0.000000 cLong=  0.460000
  DFx wShort=  0.000000 wLong=  0.330000 cFull=  0.190000 cShort=  0.000000 cLong=  0.460000
 NAtoms=   39 NActive=   39 NUniq=   39 SFac= 1.00D+00 NAtFMM=   60 NAOKFM=F Big=F
 Integral buffers will be    131072 words long.
 Raffenetti 2 integral format.
 Two-electron integral symmetry is turned off.
 Using the following non-standard input for PCM:
 eps=4.9
 --- end of non-standard input.
 ------------------------------------------------------------------------------
 Polarizable Continuum Model (PCM)
 =================================
 Model                : PCM (using non-symmetric T matrix).
 Atomic radii         : UFF (Universal Force Field).
 Polarization charges : Total charges.
 Charge compensation  : None.
 Solution method      : On-the-fly selection.
 Cavity type          : Scaled VdW (van der Waals Surface) (Alpha=1.100).
 Cavity algorithm     : GePol (No added spheres)
                        Default sphere list used, NSphG=   39.
                        Lebedev-Laikov grids with approx.  5.0 points / Ang**2.
                        Smoothing algorithm: Karplus/York (Gamma=1.0000).
                        Polarization charges: spherical gaussians, with
                                              point-specific exponents (IZeta= 3).
                        Self-potential: point-specific (ISelfS= 7).
                        Self-field    : sphere-specific E.n sum rule (ISelfD= 2).
 Solvent              : Generic,
                        Eps                           =   4.900000
                        Eps(infinity)                 =   0.000000
                        RSolv                         =   0.000000 Ang.
                        Molar volume                  =   0.000000 cm**3/mol
                        Thermal expansion coefficient =   0.000000 K**-1
                        Absolute temperature          = 298.150000 K
                        Numeral density               =   0.000000 Ang**-3
                        Hydrogen bond acidity         =   0.000000
                        Hydrogen bond basicity        =   0.000000
                        Surface tension at interface  =   0.000000 (cal/mol)*Ang**-2
                        Carbon aromaticity            =   0.000000
                        Electronegative halogenicity  =   0.000000
 ------------------------------------------------------------------------------
 GePol: Number of generator spheres                  =      39
 GePol: Total number of spheres                      =      39
 GePol: Number of exposed spheres                    =      39 (100.00%)
 GePol: Number of points                             =    3054
 GePol: Average weight of points                     =       0.13
 GePol: Minimum weight of points                     =   0.21D-09
 GePol: Maximum weight of points                     =    0.20577
 GePol: Number of points with low weight             =     138
 GePol: Fraction of low-weight points (<1% of avg)   =       4.52%
 GePol: Cavity surface area                          =    392.404 Ang**2
 GePol: Cavity volume                                =    437.678 Ang**3
 Leave Link  301 at Sun Mar  3 17:42:02 2024, MaxMem=  5368709120 cpu:         0.9
 (Enter /home/k0335/k033513/app/g09/l302.exe)
 NPDir=0 NMtPBC=     1 NCelOv=     1 NCel=       1 NClECP=     1 NCelD=      1
         NCelK=      1 NCelE2=     1 NClLst=     1 CellRange=     0.0.
 One-electron integrals computed using PRISM.
 NBasis=   485 RedAO= T EigKep=  1.08D-03  NBF=   485
 NBsUse=   485 1.00D-06 EigRej= -1.00D+00 NBFU=   485
 Precomputing XC quadrature grid using
 IXCGrd= 4 IRadAn=           0 IRanWt=          -1 IRanGd=           0 AccXCQ= 0.00D+00.
 Generated NRdTot=       0 NPtTot=           0 NUsed=           0 NTot=          32
 NSgBfM=   477   477   478   478   478 MxSgAt=    39 MxSgA2=    39.
 Leave Link  302 at Sun Mar  3 17:42:02 2024, MaxMem=  5368709120 cpu:         8.8
 (Enter /home/k0335/k033513/app/g09/l303.exe)
 DipDrv:  MaxL=1.
 Leave Link  303 at Sun Mar  3 17:42:02 2024, MaxMem=  5368709120 cpu:         0.7
 (Enter /home/k0335/k033513/app/g09/l401.exe)
 ExpMin= 1.61D-01 ExpMax= 7.00D+03 ExpMxC= 1.05D+03 IAcc=1 IRadAn=         1 AccDes= 0.00D+00
 Harris functional with IExCor=20419 and IRadAn=       1 diagonalized for initial guess.
 HarFok:  IExCor=20419 AccDes= 0.00D+00 IRadAn=         1 IDoV= 1 UseB2=F ITyADJ=14
 ICtDFT=  3500011 ScaDFX=  1.000000  1.000000  1.000000  1.000000
 FoFCou: FMM=F IPFlag=           0 FMFlag=      100000 FMFlg1=           0
         NFxFlg=           0 DoJE=T BraDBF=F KetDBF=T FulRan=T
         wScrn=  0.000000 ICntrl=     500 IOpCl=  0 I1Cent=   200000004 NGrid=           0
         NMat0=    1 NMatS0=      1 NMatT0=    0 NMatD0=    1 NMtDS0=    0 NMtDT0=    0
 Symmetry not used in FoFCou.
 Harris En= -1877.88088249126    
 JPrj=0 DoOrth=F DoCkMO=F.
 Initial guess <Sx>= 0.0000 <Sy>= 0.0000 <Sz>= 0.5000 <S**2>= 0.7500 S= 0.5000
 Leave Link  401 at Sun Mar  3 17:42:03 2024, MaxMem=  5368709120 cpu:        10.5
 (Enter /home/k0335/k033513/app/g09/l502.exe)
 UHF open shell SCF:
 Using DIIS extrapolation, IDIIS=  1040.
 Two-electron integral symmetry not used.
 IVT=      738853 IEndB=      738853 NGot=  5368709120 MDV=  5368222618
 LenX=  5368222618 LenY=  5367986908
 Requested convergence on RMS density matrix=1.00D-08 within 128 cycles.
 Requested convergence on MAX density matrix=1.00D-06.
 Requested convergence on             energy=1.00D-06.
 No special actions if energy rises.
 Fock matrices will be formed incrementally for  20 cycles.

 Cycle   1  Pass 1  IDiag  1:
 FoFJK:  IHMeth= 1 ICntrl=       0 DoSepK=T KAlg= 0 I1Cent=   0 FoldK=F
 IRaf=         1 NMat=   1 IRICut=       1 DoRegI=T DoRafI=F ISym2E= 0.
 FoFCou: FMM=F IPFlag=           0 FMFlag=      100000 FMFlg1=           0
         NFxFlg=           0 DoJE=T BraDBF=F KetDBF=F FulRan=T
         wScrn=  0.000000 ICntrl=     500 IOpCl=  0 I1Cent=           0 NGrid=           0
         NMat0=    1 NMatS0=      1 NMatT0=    0 NMatD0=    1 NMtDS0=    0 NMtDT0=    0
 Symmetry not used in FoFCou.
 Inv3:  Mode=1 IEnd=    27980748.
 Iteration    1 A*A^-1 deviation from unit magnitude is 5.44D-15 for   3051.
 Iteration    1 A*A^-1 deviation from orthogonality  is 2.58D-15 for   2794    245.
 Iteration    1 A^-1*A deviation from unit magnitude is 5.22D-15 for   3046.
 Iteration    1 A^-1*A deviation from orthogonality  is 1.80D-13 for   2564   2553.
 E= -1937.62419906671    
 DIIS: error= 4.85D-02 at cycle   1 NSaved=   1.
 NSaved= 1 IEnMin= 1 EnMin= -1937.62419906671     IErMin= 1 ErrMin= 4.85D-02
 ErrMax= 4.85D-02  0.00D+00 EMaxC= 1.00D-01 BMatC= 6.95D+00 BMatP= 6.95D+00
 IDIUse=3 WtCom= 5.15D-01 WtEn= 4.85D-01
 Coeff-Com:  0.100D+01
 Coeff-En:   0.100D+01
 Coeff:      0.100D+01
 Gap=     0.558 Goal=   None    Shift=    0.000
 Gap=    -0.044 Goal=   None    Shift=    0.000
 GapD=   -0.044 DampG=0.250 DampE=0.500 DampFc=0.2500 IDamp=-1.
 Damping current iteration by 2.50D-01
 RMSDP=3.89D-03 MaxDP=1.67D-01              OVMax= 6.51D-01

 Cycle   2  Pass 1  IDiag  1:
 RMSU=  9.73D-04    CP:  1.00D+00
 E= -1937.89062320294     Delta-E=       -0.266424136236 Rises=F Damp=T
 DIIS: error= 3.47D-02 at cycle   2 NSaved=   2.
 NSaved= 2 IEnMin= 2 EnMin= -1937.89062320294     IErMin= 2 ErrMin= 3.47D-02
 ErrMax= 3.47D-02  0.00D+00 EMaxC= 1.00D-01 BMatC= 2.88D+00 BMatP= 6.95D+00
 IDIUse=3 WtCom= 6.53D-01 WtEn= 3.47D-01
 Coeff-Com: -0.143D+01 0.243D+01
 Coeff-En:   0.000D+00 0.100D+01
 Coeff:     -0.934D+00 0.193D+01
 Gap=     0.396 Goal=   None    Shift=    0.000
 Gap=     0.024 Goal=   None    Shift=    0.000
 RMSDP=2.13D-03 MaxDP=1.04D-01 DE=-2.66D-01 OVMax= 2.31D-01

 Cycle   3  Pass 1  IDiag  1:
 RMSU=  1.28D-03    CP:  9.98D-01  2.75D+00
 E= -1938.37015526033     Delta-E=       -0.479532057388 Rises=F Damp=F
 DIIS: error= 8.83D-03 at cycle   3 NSaved=   3.
 NSaved= 3 IEnMin= 3 EnMin= -1938.37015526033     IErMin= 3 ErrMin= 8.83D-03
 ErrMax= 8.83D-03  0.00D+00 EMaxC= 1.00D-01 BMatC= 4.05D-01 BMatP= 2.88D+00
 IDIUse=3 WtCom= 9.12D-01 WtEn= 8.83D-02
 Coeff-Com: -0.565D+00 0.966D+00 0.599D+00
 Coeff-En:   0.000D+00 0.000D+00 0.100D+01
 Coeff:     -0.515D+00 0.881D+00 0.635D+00
 Gap=     0.445 Goal=   None    Shift=    0.000
 Gap=     0.046 Goal=   None    Shift=    0.000
 RMSDP=9.06D-04 MaxDP=9.41D-02 DE=-4.80D-01 OVMax= 2.52D-01

 Cycle   4  Pass 1  IDiag  1:
 RMSU=  7.64D-04    CP:  9.98D-01  2.82D+00  6.24D-01
 E= -1938.41506078836     Delta-E=       -0.044905528030 Rises=F Damp=F
 DIIS: error= 4.89D-03 at cycle   4 NSaved=   4.
 NSaved= 4 IEnMin= 4 EnMin= -1938.41506078836     IErMin= 4 ErrMin= 4.89D-03
 ErrMax= 4.89D-03  0.00D+00 EMaxC= 1.00D-01 BMatC= 1.66D-01 BMatP= 4.05D-01
 IDIUse=3 WtCom= 9.51D-01 WtEn= 4.89D-02
 Coeff-Com: -0.495D-01 0.999D-01 0.382D+00 0.568D+00
 Coeff-En:   0.000D+00 0.000D+00 0.301D+00 0.699D+00
 Coeff:     -0.471D-01 0.950D-01 0.378D+00 0.574D+00
 Gap=     0.365 Goal=   None    Shift=    0.000
 Gap=     0.058 Goal=   None    Shift=    0.000
 RMSDP=6.24D-04 MaxDP=1.13D-01 DE=-4.49D-02 OVMax= 3.35D-01

 Cycle   5  Pass 1  IDiag  1:
 RMSU=  4.09D-04    CP:  9.97D-01  2.77D+00  8.43D-01  5.10D-01
 E= -1938.43085179610     Delta-E=       -0.015791007734 Rises=F Damp=F
 DIIS: error= 5.40D-03 at cycle   5 NSaved=   5.
 NSaved= 5 IEnMin= 5 EnMin= -1938.43085179610     IErMin= 4 ErrMin= 4.89D-03
 ErrMax= 5.40D-03  0.00D+00 EMaxC= 1.00D-01 BMatC= 8.10D-02 BMatP= 1.66D-01
 IDIUse=3 WtCom= 9.46D-01 WtEn= 5.40D-02
 Coeff-Com:  0.218D-01-0.248D-01 0.233D+00 0.453D+00 0.317D+00
 Coeff-En:   0.000D+00 0.000D+00 0.000D+00 0.343D+00 0.657D+00
 Coeff:      0.207D-01-0.234D-01 0.221D+00 0.447D+00 0.335D+00
 Gap=     0.370 Goal=   None    Shift=    0.000
 Gap=     0.054 Goal=   None    Shift=    0.000
 RMSDP=3.47D-04 MaxDP=5.65D-02 DE=-1.58D-02 OVMax= 1.96D-01

 Cycle   6  Pass 1  IDiag  1:
 RMSU=  1.30D-04    CP:  9.97D-01  2.78D+00  8.17D-01  7.00D-01  3.03D-01
 E= -1938.44565370671     Delta-E=       -0.014801910615 Rises=F Damp=F
 DIIS: error= 9.75D-04 at cycle   6 NSaved=   6.
 NSaved= 6 IEnMin= 6 EnMin= -1938.44565370671     IErMin= 6 ErrMin= 9.75D-04
 ErrMax= 9.75D-04  0.00D+00 EMaxC= 1.00D-01 BMatC= 3.62D-03 BMatP= 8.10D-02
 IDIUse=3 WtCom= 9.90D-01 WtEn= 9.75D-03
 Coeff-Com:  0.110D-01-0.170D-01 0.430D-01 0.125D+00 0.197D+00 0.641D+00
 Coeff-En:   0.000D+00 0.000D+00 0.000D+00 0.000D+00 0.280D-01 0.972D+00
 Coeff:      0.108D-01-0.168D-01 0.426D-01 0.124D+00 0.195D+00 0.644D+00
 Gap=     0.368 Goal=   None    Shift=    0.000
 Gap=     0.060 Goal=   None    Shift=    0.000
 RMSDP=7.00D-05 MaxDP=1.01D-02 DE=-1.48D-02 OVMax= 2.95D-02

 Cycle   7  Pass 1  IDiag  1:
 RMSU=  4.09D-05    CP:  9.97D-01  2.79D+00  8.23D-01  6.93D-01  4.39D-01
                    CP:  9.78D-01
 E= -1938.44641401842     Delta-E=       -0.000760311707 Rises=F Damp=F
 DIIS: error= 4.77D-04 at cycle   7 NSaved=   7.
 NSaved= 7 IEnMin= 7 EnMin= -1938.44641401842     IErMin= 7 ErrMin= 4.77D-04
 ErrMax= 4.77D-04  0.00D+00 EMaxC= 1.00D-01 BMatC= 2.80D-04 BMatP= 3.62D-03
 IDIUse=3 WtCom= 9.95D-01 WtEn= 4.77D-03
 Coeff-Com: -0.469D-02 0.531D-02-0.283D-01-0.403D-01 0.213D-01 0.278D+00
 Coeff-Com:  0.769D+00
 Coeff-En:   0.000D+00 0.000D+00 0.000D+00 0.000D+00 0.000D+00 0.000D+00
 Coeff-En:   0.100D+01
 Coeff:     -0.467D-02 0.528D-02-0.282D-01-0.401D-01 0.212D-01 0.277D+00
 Coeff:      0.770D+00
 Gap=     0.368 Goal=   None    Shift=    0.000
 Gap=     0.061 Goal=   None    Shift=    0.000
 RMSDP=3.23D-05 MaxDP=3.92D-03 DE=-7.60D-04 OVMax= 9.32D-03

 Cycle   8  Pass 1  IDiag  1:
 RMSU=  2.14D-05    CP:  9.97D-01  2.79D+00  8.25D-01  7.00D-01  4.42D-01
                    CP:  1.16D+00  9.73D-01
 E= -1938.44653373195     Delta-E=       -0.000119713534 Rises=F Damp=F
 DIIS: error= 1.58D-04 at cycle   8 NSaved=   8.
 NSaved= 8 IEnMin= 8 EnMin= -1938.44653373195     IErMin= 8 ErrMin= 1.58D-04
 ErrMax= 1.58D-04  0.00D+00 EMaxC= 1.00D-01 BMatC= 7.48D-05 BMatP= 2.80D-04
 IDIUse=3 WtCom= 9.98D-01 WtEn= 1.58D-03
 Coeff-Com: -0.353D-02 0.458D-02-0.205D-01-0.358D-01-0.123D-01 0.241D-01
 Coeff-Com:  0.367D+00 0.677D+00
 Coeff-En:   0.000D+00 0.000D+00 0.000D+00 0.000D+00 0.000D+00 0.000D+00
 Coeff-En:   0.000D+00 0.100D+01
 Coeff:     -0.352D-02 0.457D-02-0.204D-01-0.358D-01-0.122D-01 0.240D-01
 Coeff:      0.366D+00 0.677D+00
 Gap=     0.368 Goal=   None    Shift=    0.000
 Gap=     0.061 Goal=   None    Shift=    0.000
 RMSDP=1.67D-05 MaxDP=1.25D-03 DE=-1.20D-04 OVMax= 5.82D-03

 Cycle   9  Pass 1  IDiag  1:
 RMSU=  1.02D-05    CP:  9.97D-01  2.79D+00  8.26D-01  7.00D-01  4.42D-01
                    CP:  1.23D+00  1.14D+00  1.29D+00
 E= -1938.44656793681     Delta-E=       -0.000034204852 Rises=F Damp=F
 DIIS: error= 1.17D-04 at cycle   9 NSaved=   9.
 NSaved= 9 IEnMin= 9 EnMin= -1938.44656793681     IErMin= 9 ErrMin= 1.17D-04
 ErrMax= 1.17D-04  0.00D+00 EMaxC= 1.00D-01 BMatC= 2.71D-05 BMatP= 7.48D-05
 IDIUse=3 WtCom= 9.99D-01 WtEn= 1.17D-03
 Coeff-Com: -0.216D-03 0.415D-03-0.219D-02-0.416D-02-0.395D-02-0.859D-01
 Coeff-Com: -0.180D-01 0.273D+00 0.841D+00
 Coeff-En:   0.000D+00 0.000D+00 0.000D+00 0.000D+00 0.000D+00 0.000D+00
 Coeff-En:   0.000D+00 0.000D+00 0.100D+01
 Coeff:     -0.216D-03 0.415D-03-0.219D-02-0.416D-02-0.394D-02-0.858D-01
 Coeff:     -0.180D-01 0.273D+00 0.841D+00
 Gap=     0.368 Goal=   None    Shift=    0.000
 Gap=     0.061 Goal=   None    Shift=    0.000
 RMSDP=1.62D-05 MaxDP=1.73D-03 DE=-3.42D-05 OVMax= 6.76D-03

 Cycle  10  Pass 1  IDiag  1:
 RMSU=  6.61D-06    CP:  9.97D-01  2.79D+00  8.26D-01  7.01D-01  4.38D-01
                    CP:  1.29D+00  1.24D+00  1.79D+00  1.48D+00
 E= -1938.44658786845     Delta-E=       -0.000019931646 Rises=F Damp=F
 DIIS: error= 9.35D-05 at cycle  10 NSaved=  10.
 NSaved=10 IEnMin=10 EnMin= -1938.44658786845     IErMin=10 ErrMin= 9.35D-05
 ErrMax= 9.35D-05  0.00D+00 EMaxC= 1.00D-01 BMatC= 2.66D-05 BMatP= 2.71D-05
 IDIUse=1 WtCom= 1.00D+00 WtEn= 0.00D+00
 Coeff-Com:  0.540D-03-0.716D-03 0.176D-02 0.339D-02 0.626D-02-0.687D-01
 Coeff-Com: -0.576D-01 0.758D-02 0.477D+00 0.631D+00
 Coeff:      0.540D-03-0.716D-03 0.176D-02 0.339D-02 0.626D-02-0.687D-01
 Coeff:     -0.576D-01 0.758D-02 0.477D+00 0.631D+00
 Gap=     0.368 Goal=   None    Shift=    0.000
 Gap=     0.061 Goal=   None    Shift=    0.000
 RMSDP=1.06D-05 MaxDP=1.07D-03 DE=-1.99D-05 OVMax= 4.33D-03

 Cycle  11  Pass 1  IDiag  1:
 RMSU=  2.79D-06    CP:  9.97D-01  2.79D+00  8.26D-01  7.03D-01  4.33D-01
                    CP:  1.32D+00  1.29D+00  2.08D+00  1.99D+00  1.56D+00
 E= -1938.44659841721     Delta-E=       -0.000010548761 Rises=F Damp=F
 DIIS: error= 9.57D-05 at cycle  11 NSaved=  11.
 NSaved=11 IEnMin=11 EnMin= -1938.44659841721     IErMin=10 ErrMin= 9.35D-05
 ErrMax= 9.57D-05  0.00D+00 EMaxC= 1.00D-01 BMatC= 2.71D-05 BMatP= 2.66D-05
 IDIUse=1 WtCom= 1.00D+00 WtEn= 0.00D+00
 Coeff-Com:  0.583D-04-0.135D-03-0.550D-03-0.142D-02 0.144D-01-0.152D-01
 Coeff-Com:  0.357D-01-0.978D-01-0.141D+00-0.118D+00 0.132D+01
 Coeff:      0.583D-04-0.135D-03-0.550D-03-0.142D-02 0.144D-01-0.152D-01
 Coeff:      0.357D-01-0.978D-01-0.141D+00-0.118D+00 0.132D+01
 Gap=     0.368 Goal=   None    Shift=    0.000
 Gap=     0.060 Goal=   None    Shift=    0.000
 RMSDP=1.75D-05 MaxDP=1.91D-03 DE=-1.05D-05 OVMax= 6.64D-03

 Cycle  12  Pass 1  IDiag  1:
 RMSU=  2.81D-06    CP:  9.97D-01  2.79D+00  8.25D-01  7.05D-01  4.20D-01
                    CP:  1.36D+00  1.35D+00  2.51D+00  2.74D+00  2.78D+00
                    CP:  2.56D+00
 E= -1938.44661272542     Delta-E=       -0.000014308212 Rises=F Damp=F
 DIIS: error= 1.15D-04 at cycle  12 NSaved=  12.
 NSaved=12 IEnMin=12 EnMin= -1938.44661272542     IErMin=10 ErrMin= 9.35D-05
 ErrMax= 1.15D-04  0.00D+00 EMaxC= 1.00D-01 BMatC= 3.72D-05 BMatP= 2.66D-05
 IDIUse=1 WtCom= 1.00D+00 WtEn= 0.00D+00
 Coeff-Com: -0.129D-03 0.146D-03-0.139D-02-0.421D-02 0.145D-01-0.147D-01
 Coeff-Com:  0.538D-01-0.440D-01-0.123D+00-0.330D+00 0.750D+00 0.698D+00
 Coeff:     -0.129D-03 0.146D-03-0.139D-02-0.421D-02 0.145D-01-0.147D-01
 Coeff:      0.538D-01-0.440D-01-0.123D+00-0.330D+00 0.750D+00 0.698D+00
 Gap=     0.368 Goal=   None    Shift=    0.000
 Gap=     0.060 Goal=   None    Shift=    0.000
 RMSDP=1.13D-05 MaxDP=1.35D-03 DE=-1.43D-05 OVMax= 5.04D-03

 Cycle  13  Pass 1  IDiag  1:
 RMSU=  4.75D-06    CP:  9.97D-01  2.79D+00  8.24D-01  7.08D-01  4.09D-01
                    CP:  1.39D+00  1.37D+00  2.74D+00  3.00D+00  3.00D+00
                    CP:  3.00D+00  2.06D+00
 E= -1938.44662132568     Delta-E=       -0.000008600253 Rises=F Damp=F
 DIIS: error= 1.31D-04 at cycle  13 NSaved=  13.
 NSaved=13 IEnMin=13 EnMin= -1938.44662132568     IErMin=10 ErrMin= 9.35D-05
 ErrMax= 1.31D-04  0.00D+00 EMaxC= 1.00D-01 BMatC= 4.72D-05 BMatP= 2.66D-05
 IDIUse=1 WtCom= 1.00D+00 WtEn= 0.00D+00
 Coeff-Com: -0.185D-03 0.219D-03-0.153D-02-0.424D-02 0.144D-01-0.109D-01
 Coeff-Com:  0.585D-01-0.539D-01-0.162D+00-0.364D+00 0.884D+00 0.874D+00
 Coeff-Com: -0.235D+00
 Coeff:     -0.185D-03 0.219D-03-0.153D-02-0.424D-02 0.144D-01-0.109D-01
 Coeff:      0.585D-01-0.539D-01-0.162D+00-0.364D+00 0.884D+00 0.874D+00
 Coeff:     -0.235D+00
 Gap=     0.368 Goal=   None    Shift=    0.000
 Gap=     0.060 Goal=   None    Shift=    0.000
 RMSDP=2.74D-06 MaxDP=3.39D-04 DE=-8.60D-06 OVMax= 1.38D-03

 Cycle  14  Pass 1  IDiag  1:
 RMSU=  3.50D-07    CP:  9.97D-01  2.79D+00  8.24D-01  7.07D-01  4.12D-01
                    CP:  1.38D+00  1.37D+00  2.70D+00  3.00D+00  3.00D+00
                    CP:  3.00D+00  1.69D+00  6.42D-01
 E= -1938.44661931464     Delta-E=        0.000002011042 Rises=F Damp=F
 DIIS: error= 1.27D-04 at cycle  14 NSaved=  14.
 NSaved=14 IEnMin=13 EnMin= -1938.44662132568     IErMin=10 ErrMin= 9.35D-05
 ErrMax= 1.27D-04  0.00D+00 EMaxC= 1.00D-01 BMatC= 4.42D-05 BMatP= 2.66D-05
 IDIUse=1 WtCom= 1.00D+00 WtEn= 0.00D+00
 Large coefficients: NSaved= 14 BigCof=   12.04 CofMax=   10.00 Det=-2.53D-09
 Inversion failed.  Reducing to 13 matrices.
 Large coefficients: NSaved= 13 BigCof=   11.09 CofMax=   10.00 Det=-2.64D-09
 Inversion failed.  Reducing to 12 matrices.
 Large coefficients: NSaved= 12 BigCof=   10.80 CofMax=   10.00 Det=-2.61D-09
 Inversion failed.  Reducing to 11 matrices.
 Large coefficients: NSaved= 11 BigCof=   10.19 CofMax=   10.00 Det=-2.66D-09
 Inversion failed.  Reducing to 10 matrices.
 Large coefficients: NSaved= 10 BigCof=   11.18 CofMax=   10.00 Det=-2.82D-09
 Inversion failed.  Reducing to  9 matrices.
 Large coefficients: NSaved=  9 BigCof=   18.97 CofMax=   10.00 Det=-3.81D-09
 Inversion failed.  Reducing to  8 matrices.
 Large coefficients: NSaved=  8 BigCof=   27.81 CofMax=   10.00 Det=-7.82D-09
 Inversion failed.  Reducing to  7 matrices.
 Large coefficients: NSaved=  7 BigCof=   29.07 CofMax=   10.00 Det=-8.01D-09
 Inversion failed.  Reducing to  6 matrices.
 Large coefficients: NSaved=  6 BigCof=   29.47 CofMax=   10.00 Det=-9.69D-09
 Inversion failed.  Reducing to  5 matrices.
 Large coefficients: NSaved=  5 BigCof=   29.49 CofMax=   10.00 Det=-9.69D-09
 Inversion failed.  Reducing to  4 matrices.
 Large coefficients: NSaved=  4 BigCof=   25.43 CofMax=   10.00 Det=-1.09D-08
 Inversion failed.  Reducing to  3 matrices.
 Large coefficients: NSaved=  3 BigCof=   21.63 CofMax=   10.00 Det=-3.31D-08
 Inversion failed.  Reducing to  2 matrices.
 Large coefficients: NSaved=  2 BigCof=   26.58 CofMax=   10.00 Det=-5.77D-08
 Coeff-Com: -0.256D+02 0.266D+02
 Coeff:     -0.256D+02 0.266D+02
 Gap=     0.368 Goal=   None    Shift=    0.000
 Gap=     0.061 Goal=   None    Shift=    0.000
 RMSDP=6.71D-05 MaxDP=8.64D-03 DE= 2.01D-06 OVMax= 3.57D-02

 Cycle  15  Pass 1  IDiag  1:
 RMSU=  2.05D-05    CP:  9.97D-01  2.78D+00  8.31D-01  6.86D-01  4.94D-01
                    CP:  1.25D+00  1.34D+00  1.81D+00  1.46D+00 -9.11D-02
                    CP: -3.00D+00 -3.00D+00 -1.32D+00  3.00D+00
 E= -1938.44658575387     Delta-E=        0.000033560761 Rises=F Damp=F
 DIIS: error= 8.20D-05 at cycle  15 NSaved=   3.
 NSaved= 3 IEnMin= 1 EnMin= -1938.44662132568     IErMin= 3 ErrMin= 8.20D-05
 ErrMax= 8.20D-05  0.00D+00 EMaxC= 1.00D-01 BMatC= 6.50D-06 BMatP= 4.42D-05
 IDIUse=1 WtCom= 1.00D+00 WtEn= 0.00D+00
 Large coefficients: NSaved=  3 BigCof=   11.91 CofMax=   10.00 Det=-1.64D-08
 Inversion failed.  Reducing to  2 matrices.
 Coeff-Com:  0.205D+00 0.795D+00
 Coeff:      0.205D+00 0.795D+00
 Gap=     0.368 Goal=   None    Shift=    0.000
 Gap=     0.060 Goal=   None    Shift=    0.000
 RMSDP=2.04D-05 MaxDP=2.62D-03 DE= 3.36D-05 OVMax= 9.15D-03

 Cycle  16  Pass 1  IDiag  1:
 RMSU=  5.45D-06    CP:  9.97D-01  2.78D+00  8.31D-01  6.89D-01  4.71D-01
                    CP:  1.29D+00  1.35D+00  2.20D+00  2.11D+00  1.22D+00
                    CP: -2.46D+00 -3.00D+00 -5.59D-01  3.00D+00  7.15D-01
 E= -1938.44659578473     Delta-E=       -0.000010030855 Rises=F Damp=F
 DIIS: error= 4.60D-05 at cycle  16 NSaved=   3.
 NSaved= 3 IEnMin= 1 EnMin= -1938.44661931464     IErMin= 3 ErrMin= 4.60D-05
 ErrMax= 4.60D-05  0.00D+00 EMaxC= 1.00D-01 BMatC= 9.80D-06 BMatP= 6.50D-06
 IDIUse=1 WtCom= 1.00D+00 WtEn= 0.00D+00
 Coeff-Com:  0.433D-01 0.560D+00 0.397D+00
 Coeff:      0.433D-01 0.560D+00 0.397D+00
 Gap=     0.368 Goal=   None    Shift=    0.000
 Gap=     0.060 Goal=   None    Shift=    0.000
 RMSDP=3.93D-06 MaxDP=2.98D-04 DE=-1.00D-05 OVMax= 1.37D-03

 Cycle  17  Pass 1  IDiag  1:
 RMSU=  1.11D-06    CP:  9.97D-01  2.78D+00  8.31D-01  6.89D-01  4.74D-01
                    CP:  1.29D+00  1.36D+00  2.19D+00  2.12D+00  1.15D+00
                    CP: -2.98D+00 -3.00D+00 -6.68D-01  3.00D+00  8.62D-01
                    CP:  1.04D+00
 E= -1938.44659610289     Delta-E=       -0.000000318163 Rises=F Damp=F
 DIIS: error= 5.47D-05 at cycle  17 NSaved=   4.
 NSaved= 4 IEnMin= 1 EnMin= -1938.44661931464     IErMin= 3 ErrMin= 4.60D-05
 ErrMax= 5.47D-05  0.00D+00 EMaxC= 1.00D-01 BMatC= 5.23D-06 BMatP= 6.50D-06
 IDIUse=1 WtCom= 1.00D+00 WtEn= 0.00D+00
 Coeff-Com: -0.347D+00 0.163D+00-0.502D-01 0.123D+01
 Coeff:     -0.347D+00 0.163D+00-0.502D-01 0.123D+01
 Gap=     0.368 Goal=   None    Shift=    0.000
 Gap=     0.060 Goal=   None    Shift=    0.000
 RMSDP=1.97D-05 MaxDP=2.67D-03 DE=-3.18D-07 OVMax= 1.07D-02

 Cycle  18  Pass 1  IDiag  1:
 RMSU=  3.30D-06    CP:  9.97D-01  2.78D+00  8.34D-01  6.81D-01  4.98D-01
                    CP:  1.26D+00  1.37D+00  2.10D+00  1.94D+00  5.85D-01
                    CP: -3.00D+00 -3.00D+00 -1.73D+00  3.00D+00  1.49D+00
                    CP:  7.15D-01 -1.48D-01
 E= -1938.44659512148     Delta-E=        0.000000981416 Rises=F Damp=F
 DIIS: error= 4.92D-05 at cycle  18 NSaved=   5.
 NSaved= 5 IEnMin= 1 EnMin= -1938.44661931464     IErMin= 3 ErrMin= 4.60D-05
 ErrMax= 4.92D-05  0.00D+00 EMaxC= 1.00D-01 BMatC= 1.48D-06 BMatP= 5.23D-06
 IDIUse=1 WtCom= 1.00D+00 WtEn= 0.00D+00
 Coeff-Com: -0.415D+00-0.275D+00-0.572D+00 0.133D+01 0.930D+00
 Coeff:     -0.415D+00-0.275D+00-0.572D+00 0.133D+01 0.930D+00
 Gap=     0.368 Goal=   None    Shift=    0.000
 Gap=     0.060 Goal=   None    Shift=    0.000
 RMSDP=2.20D-05 MaxDP=3.04D-03 DE= 9.81D-07 OVMax= 1.16D-02

 Cycle  19  Pass 1  IDiag  1:
 RMSU=  3.28D-07    CP:  9.97D-01  2.78D+00  8.37D-01  6.72D-01  5.25D-01
                    CP:  1.24D+00  1.39D+00  2.11D+00  1.91D+00  2.06D-01
                    CP: -3.00D+00 -3.00D+00 -2.88D+00  3.00D+00  2.24D+00
                    CP:  6.00D-01 -1.26D+00  2.31D+00
 E= -1938.44659906913     Delta-E=       -0.000003947657 Rises=F Damp=F
 DIIS: error= 3.81D-05 at cycle  19 NSaved=   6.
 NSaved= 6 IEnMin= 1 EnMin= -1938.44661931464     IErMin= 6 ErrMin= 3.81D-05
 ErrMax= 3.81D-05  0.00D+00 EMaxC= 1.00D-01 BMatC= 3.66D-06 BMatP= 1.48D-06
 IDIUse=1 WtCom= 1.00D+00 WtEn= 0.00D+00
 Coeff-Com:  0.106D+01-0.215D+00-0.338D+00-0.120D+01-0.746D+00 0.244D+01
 Coeff:      0.106D+01-0.215D+00-0.338D+00-0.120D+01-0.746D+00 0.244D+01
 Gap=     0.367 Goal=   None    Shift=    0.000
 Gap=     0.060 Goal=   None    Shift=    0.000
 RMSDP=2.30D-05 MaxDP=2.02D-03 DE=-3.95D-06 OVMax= 1.05D-02

 Cycle  20  Pass 1  IDiag  1:
 RMSU=  1.77D-06    CP:  9.97D-01  2.78D+00  8.37D-01  6.73D-01  5.13D-01
                    CP:  1.29D+00  1.45D+00  2.65D+00  2.89D+00  1.94D+00
                    CP: -3.00D+00 -3.00D+00 -2.40D+00  3.00D+00  2.32D+00
                    CP:  2.04D+00  1.85D+00  2.74D+00  2.71D+00
 E= -1938.44660291639     Delta-E=       -0.000003847257 Rises=F Damp=F
 DIIS: error= 1.51D-05 at cycle  20 NSaved=   7.
 NSaved= 7 IEnMin= 1 EnMin= -1938.44661931464     IErMin= 7 ErrMin= 1.51D-05
 ErrMax= 1.51D-05  0.00D+00 EMaxC= 1.00D-01 BMatC= 7.14D-07 BMatP= 1.48D-06
 IDIUse=1 WtCom= 1.00D+00 WtEn= 0.00D+00
 Coeff-Com:  0.701D+00-0.620D-01-0.886D-01-0.840D+00-0.588D+00 0.132D+01
 Coeff-Com:  0.557D+00
 Coeff:      0.701D+00-0.620D-01-0.886D-01-0.840D+00-0.588D+00 0.132D+01
 Coeff:      0.557D+00
 Gap=     0.367 Goal=   None    Shift=    0.000
 Gap=     0.060 Goal=   None    Shift=    0.000
 RMSDP=7.94D-06 MaxDP=1.01D-03 DE=-3.85D-06 OVMax= 4.17D-03

 Cycle  21  Pass 1  IDiag  1:
 Restarting incremental Fock formation.
 E= -1938.44660285738     Delta-E=        0.000000059016 Rises=F Damp=F
 DIIS: error= 2.64D-06 at cycle  21 NSaved=   8.
 NSaved= 8 IEnMin= 1 EnMin= -1938.44661931464     IErMin= 8 ErrMin= 2.64D-06
 ErrMax= 2.64D-06  0.00D+00 EMaxC= 1.00D-01 BMatC= 7.20D-09 BMatP= 7.14D-07
 IDIUse=1 WtCom= 1.00D+00 WtEn= 0.00D+00
 Coeff-Com:  0.884D-01 0.325D-03 0.132D-01-0.136D+00-0.775D-01 0.114D+00
 Coeff-Com:  0.136D+00 0.862D+00
 Coeff:      0.884D-01 0.325D-03 0.132D-01-0.136D+00-0.775D-01 0.114D+00
 Coeff:      0.136D+00 0.862D+00
 Gap=     0.367 Goal=   None    Shift=    0.000
 Gap=     0.060 Goal=   None    Shift=    0.000
 RMSDP=1.20D-06 MaxDP=1.04D-04 DE= 5.90D-08 OVMax= 5.08D-04

 Cycle  22  Pass 1  IDiag  1:
 RMSU=  1.20D-06    CP:  1.00D+00
 E= -1938.44660288314     Delta-E=       -0.000000025766 Rises=F Damp=F
 DIIS: error= 1.89D-06 at cycle  22 NSaved=   9.
 NSaved= 9 IEnMin= 1 EnMin= -1938.44661931464     IErMin= 9 ErrMin= 1.89D-06
 ErrMax= 1.89D-06  0.00D+00 EMaxC= 1.00D-01 BMatC= 8.59D-09 BMatP= 7.20D-09
 IDIUse=1 WtCom= 1.00D+00 WtEn= 0.00D+00
 Coeff-Com: -0.182D+00 0.223D-01 0.285D-01 0.207D+00 0.132D+00-0.330D+00
 Coeff-Com: -0.106D+00 0.158D+00 0.107D+01
 Coeff:     -0.182D+00 0.223D-01 0.285D-01 0.207D+00 0.132D+00-0.330D+00
 Coeff:     -0.106D+00 0.158D+00 0.107D+01
 Gap=     0.367 Goal=   None    Shift=    0.000
 Gap=     0.060 Goal=   None    Shift=    0.000
 RMSDP=7.17D-07 MaxDP=8.84D-05 DE=-2.58D-08 OVMax= 3.27D-04

 Cycle  23  Pass 1  IDiag  1:
 RMSU=  7.17D-07    CP:  1.00D+00  1.01D+00
 E= -1938.44660288833     Delta-E=       -0.000000005191 Rises=F Damp=F
 DIIS: error= 1.07D-06 at cycle  23 NSaved=  10.
 NSaved=10 IEnMin= 1 EnMin= -1938.44661931464     IErMin=10 ErrMin= 1.07D-06
 ErrMax= 1.07D-06  0.00D+00 EMaxC= 1.00D-01 BMatC= 2.63D-09 BMatP= 7.20D-09
 IDIUse=1 WtCom= 1.00D+00 WtEn= 0.00D+00
 Coeff-Com: -0.849D-01 0.153D-01 0.921D-02 0.109D+00 0.343D-01-0.133D+00
 Coeff-Com: -0.601D-01-0.318D+00 0.595D+00 0.833D+00
 Coeff:     -0.849D-01 0.153D-01 0.921D-02 0.109D+00 0.343D-01-0.133D+00
 Coeff:     -0.601D-01-0.318D+00 0.595D+00 0.833D+00
 Gap=     0.367 Goal=   None    Shift=    0.000
 Gap=     0.060 Goal=   None    Shift=    0.000
 RMSDP=3.91D-07 MaxDP=2.61D-05 DE=-5.19D-09 OVMax= 1.54D-04

 Cycle  24  Pass 1  IDiag  1:
 RMSU=  7.28D-08    CP:  1.00D+00  1.23D+00  1.39D+00
 E= -1938.44660289109     Delta-E=       -0.000000002761 Rises=F Damp=F
 DIIS: error= 6.95D-07 at cycle  24 NSaved=  11.
 NSaved=11 IEnMin= 1 EnMin= -1938.44661931464     IErMin=11 ErrMin= 6.95D-07
 ErrMax= 6.95D-07  0.00D+00 EMaxC= 1.00D-01 BMatC= 4.80D-10 BMatP= 2.63D-09
 IDIUse=1 WtCom= 1.00D+00 WtEn= 0.00D+00
 Coeff-Com: -0.285D-01 0.637D-02 0.189D-02 0.431D-01 0.880D-02-0.432D-01
 Coeff-Com: -0.140D-01-0.161D+00 0.672D-01 0.285D+00 0.834D+00
 Coeff:     -0.285D-01 0.637D-02 0.189D-02 0.431D-01 0.880D-02-0.432D-01
 Coeff:     -0.140D-01-0.161D+00 0.672D-01 0.285D+00 0.834D+00
 Gap=     0.367 Goal=   None    Shift=    0.000
 Gap=     0.060 Goal=   None    Shift=    0.000
 RMSDP=1.38D-07 MaxDP=1.03D-05 DE=-2.76D-09 OVMax= 4.75D-05

 Cycle  25  Pass 1  IDiag  1:
 RMSU=  9.34D-08    CP:  1.00D+00  1.19D+00  1.47D+00  2.01D+00
 E= -1938.44660289222     Delta-E=       -0.000000001129 Rises=F Damp=F
 DIIS: error= 4.48D-07 at cycle  25 NSaved=  12.
 NSaved=12 IEnMin= 1 EnMin= -1938.44661931464     IErMin=12 ErrMin= 4.48D-07
 ErrMax= 4.48D-07  0.00D+00 EMaxC= 1.00D-01 BMatC= 2.36D-10 BMatP= 4.80D-10
 IDIUse=1 WtCom= 1.00D+00 WtEn= 0.00D+00
 Coeff-Com:  0.564D-02-0.115D-02 0.580D-03-0.756D-02 0.563D-02 0.143D-02
 Coeff-Com:  0.139D-01 0.104D+00-0.204D+00-0.369D+00 0.383D+00 0.107D+01
 Coeff:      0.564D-02-0.115D-02 0.580D-03-0.756D-02 0.563D-02 0.143D-02
 Coeff:      0.139D-01 0.104D+00-0.204D+00-0.369D+00 0.383D+00 0.107D+01
 Gap=     0.367 Goal=   None    Shift=    0.000
 Gap=     0.060 Goal=   None    Shift=    0.000
 RMSDP=1.34D-07 MaxDP=8.27D-06 DE=-1.13D-09 OVMax= 4.88D-05

 Cycle  26  Pass 1  IDiag  1:
 RMSU=  2.88D-08    CP:  1.00D+00  1.16D+00  1.52D+00  3.00D+00  1.88D+00
 E= -1938.44660289278     Delta-E=       -0.000000000558 Rises=F Damp=F
 DIIS: error= 2.37D-07 at cycle  26 NSaved=  13.
 NSaved=13 IEnMin= 1 EnMin= -1938.44661931464     IErMin=13 ErrMin= 2.37D-07
 ErrMax= 2.37D-07  0.00D+00 EMaxC= 1.00D-01 BMatC= 5.36D-11 BMatP= 2.36D-10
 IDIUse=1 WtCom= 1.00D+00 WtEn= 0.00D+00
 Coeff-Com:  0.863D-02-0.220D-02-0.664D-03-0.128D-01 0.530D-03 0.106D-01
 Coeff-Com:  0.106D-01 0.813D-01-0.973D-01-0.243D+00 0.326D-02 0.426D+00
 Coeff-Com:  0.815D+00
 Coeff:      0.863D-02-0.220D-02-0.664D-03-0.128D-01 0.530D-03 0.106D-01
 Coeff:      0.106D-01 0.813D-01-0.973D-01-0.243D+00 0.326D-02 0.426D+00
 Coeff:      0.815D+00
 Gap=     0.367 Goal=   None    Shift=    0.000
 Gap=     0.060 Goal=   None    Shift=    0.000
 RMSDP=6.83D-08 MaxDP=7.11D-06 DE=-5.58D-10 OVMax= 2.84D-05

 Cycle  27  Pass 1  IDiag  1:
 RMSU=  2.38D-08    CP:  1.00D+00  1.14D+00  1.60D+00  3.00D+00  2.03D+00
                    CP:  1.70D+00
 E= -1938.44660289281     Delta-E=       -0.000000000025 Rises=F Damp=F
 DIIS: error= 1.71D-07 at cycle  27 NSaved=  14.
 NSaved=14 IEnMin= 1 EnMin= -1938.44661931464     IErMin=14 ErrMin= 1.71D-07
 ErrMax= 1.71D-07  0.00D+00 EMaxC= 1.00D-01 BMatC= 2.16D-11 BMatP= 5.36D-11
 IDIUse=1 WtCom= 1.00D+00 WtEn= 0.00D+00
 Coeff-Com:  0.345D-02-0.198D-03-0.387D-03-0.397D-02-0.387D-02 0.624D-02
 Coeff-Com:  0.138D-02-0.746D-02 0.278D-01 0.244D-01-0.104D+00-0.203D+00
 Coeff-Com:  0.270D+00 0.990D+00
 Coeff:      0.345D-02-0.198D-03-0.387D-03-0.397D-02-0.387D-02 0.624D-02
 Coeff:      0.138D-02-0.746D-02 0.278D-01 0.244D-01-0.104D+00-0.203D+00
 Coeff:      0.270D+00 0.990D+00
 Gap=     0.367 Goal=   None    Shift=    0.000
 Gap=     0.060 Goal=   None    Shift=    0.000
 RMSDP=4.51D-08 MaxDP=3.75D-06 DE=-2.55D-11 OVMax= 1.64D-05

 Cycle  28  Pass 1  IDiag  1:
 RMSU=  7.23D-09    CP:  1.00D+00  1.15D+00  1.57D+00  3.00D+00  2.29D+00
                    CP:  2.50D+00  1.74D+00
 E= -1938.44660289295     Delta-E=       -0.000000000149 Rises=F Damp=F
 DIIS: error= 1.07D-07 at cycle  28 NSaved=  15.
 NSaved=15 IEnMin= 1 EnMin= -1938.44661931464     IErMin=15 ErrMin= 1.07D-07
 ErrMax= 1.07D-07  0.00D+00 EMaxC= 1.00D-01 BMatC= 6.26D-12 BMatP= 2.16D-11
 IDIUse=1 WtCom= 1.00D+00 WtEn= 0.00D+00
 Coeff-Com:  0.248D-02 0.205D-03-0.605D-03-0.188D-02-0.508D-02 0.612D-02
 Coeff-Com:  0.310D-03-0.308D-01 0.353D-01 0.827D-01-0.404D-01-0.214D+00
 Coeff-Com: -0.160D+00 0.437D+00 0.889D+00
 Coeff:      0.248D-02 0.205D-03-0.605D-03-0.188D-02-0.508D-02 0.612D-02
 Coeff:      0.310D-03-0.308D-01 0.353D-01 0.827D-01-0.404D-01-0.214D+00
 Coeff:     -0.160D+00 0.437D+00 0.889D+00
 Gap=     0.367 Goal=   None    Shift=    0.000
 Gap=     0.060 Goal=   None    Shift=    0.000
 RMSDP=2.16D-08 MaxDP=1.85D-06 DE=-1.49D-10 OVMax= 6.67D-06

 Cycle  29  Pass 1  IDiag  1:
 RMSU=  6.97D-09    CP:  1.00D+00  1.16D+00  1.57D+00  3.00D+00  2.36D+00
                    CP:  2.90D+00  2.22D+00  1.41D+00
 E= -1938.44660289290     Delta-E=        0.000000000055 Rises=F Damp=F
 DIIS: error= 7.59D-08 at cycle  29 NSaved=  16.
 NSaved=16 IEnMin= 1 EnMin= -1938.44661931464     IErMin=16 ErrMin= 7.59D-08
 ErrMax= 7.59D-08  0.00D+00 EMaxC= 1.00D-01 BMatC= 1.61D-12 BMatP= 6.26D-12
 IDIUse=1 WtCom= 1.00D+00 WtEn= 0.00D+00
 Coeff-Com: -0.831D-03 0.996D-04 0.396D-04 0.109D-02 0.972D-03-0.149D-02
 Coeff-Com:  0.349D-03 0.150D-02-0.102D-01-0.102D-01 0.370D-01 0.812D-01
 Coeff-Com: -0.134D+00-0.308D+00 0.202D-01 0.132D+01
 Coeff:     -0.831D-03 0.996D-04 0.396D-04 0.109D-02 0.972D-03-0.149D-02
 Coeff:      0.349D-03 0.150D-02-0.102D-01-0.102D-01 0.370D-01 0.812D-01
 Coeff:     -0.134D+00-0.308D+00 0.202D-01 0.132D+01
 Gap=     0.367 Goal=   None    Shift=    0.000
 Gap=     0.060 Goal=   None    Shift=    0.000
 RMSDP=1.55D-08 MaxDP=1.11D-06 DE= 5.46D-11 OVMax= 4.62D-06

 Cycle  30  Pass 1  IDiag  1:
 RMSU=  6.58D-09    CP:  1.00D+00  1.16D+00  1.57D+00  3.00D+00  2.41D+00
                    CP:  3.00D+00  2.55D+00  1.92D+00  2.10D+00
 E= -1938.44660289292     Delta-E=       -0.000000000022 Rises=F Damp=F
 DIIS: error= 3.49D-08 at cycle  30 NSaved=  17.
 NSaved=17 IEnMin= 1 EnMin= -1938.44661931464     IErMin=17 ErrMin= 3.49D-08
 ErrMax= 3.49D-08  0.00D+00 EMaxC= 1.00D-01 BMatC= 8.80D-13 BMatP= 1.61D-12
 IDIUse=1 WtCom= 1.00D+00 WtEn= 0.00D+00
 Coeff-Com: -0.604D-03-0.237D-04 0.208D-03 0.357D-03 0.149D-02-0.173D-02
 Coeff-Com:  0.791D-03 0.117D-01-0.166D-01-0.375D-01 0.316D-01 0.110D+00
 Coeff-Com: -0.489D-02-0.255D+00-0.352D+00 0.581D+00 0.931D+00
 Coeff:     -0.604D-03-0.237D-04 0.208D-03 0.357D-03 0.149D-02-0.173D-02
 Coeff:      0.791D-03 0.117D-01-0.166D-01-0.375D-01 0.316D-01 0.110D+00
 Coeff:     -0.489D-02-0.255D+00-0.352D+00 0.581D+00 0.931D+00
 Gap=     0.367 Goal=   None    Shift=    0.000
 Gap=     0.060 Goal=   None    Shift=    0.000
 RMSDP=8.66D-09 MaxDP=6.37D-07 DE=-2.18D-11 OVMax= 3.09D-06

 Error on total polarization charges =  0.00340
 SCF Done:  E(UCAM-B3LYP) =  -1938.44660289     A.U. after   30 cycles
            NFock= 30  Conv=0.87D-08     -V/T= 2.0078
 <Sx>= 0.0000 <Sy>= 0.0000 <Sz>= 0.5000 <S**2>= 0.7546 S= 0.5023
 <L.S>= 0.000000000000E+00
 KE= 1.923454862063D+03 PE=-1.162213463442D+04 EE= 4.220254083009D+03
 Annihilation of the first spin contaminant:
 S**2 before annihilation     0.7546,   after     0.7500
 Leave Link  502 at Sun Mar  3 17:43:32 2024, MaxMem=  5368709120 cpu:      2072.9
 (Enter /home/k0335/k033513/app/g09/l601.exe)
 Copying SCF densities to generalized density rwf, IOpCl= 1 IROHF=0.

 **********************************************************************

            Population analysis using the SCF density.

 **********************************************************************

 Alpha  occ. eigenvalues --  -24.85567 -24.85400 -24.85196 -24.84970 -24.84963
 Alpha  occ. eigenvalues --  -24.84939 -24.84797 -24.84191 -24.84137 -19.37314
 Alpha  occ. eigenvalues --  -19.37129 -19.34813 -19.29423 -19.27984 -19.27976
 Alpha  occ. eigenvalues --  -14.56499 -14.55690 -14.55675 -10.61076 -10.57102
 Alpha  occ. eigenvalues --  -10.55635 -10.51089 -10.50154 -10.49875 -10.49855
 Alpha  occ. eigenvalues --  -10.43595 -10.43556 -10.36973 -10.36896  -1.44901
 Alpha  occ. eigenvalues --   -1.43499  -1.40950  -1.37405  -1.35414  -1.34941
 Alpha  occ. eigenvalues --   -1.34366  -1.33797  -1.33305  -1.27485  -1.24761
 Alpha  occ. eigenvalues --   -1.23843  -1.22178  -1.21964  -1.21189  -1.13629
 Alpha  occ. eigenvalues --   -1.11678  -1.10734  -0.95342  -0.91845  -0.89571
 Alpha  occ. eigenvalues --   -0.87572  -0.84083  -0.83758  -0.83009  -0.81199
 Alpha  occ. eigenvalues --   -0.79434  -0.78869  -0.77752  -0.75256  -0.74216
 Alpha  occ. eigenvalues --   -0.72925  -0.71754  -0.71333  -0.70393  -0.69616
 Alpha  occ. eigenvalues --   -0.68175  -0.68027  -0.67170  -0.66063  -0.65766
 Alpha  occ. eigenvalues --   -0.65043  -0.64706  -0.63945  -0.62819  -0.60572
 Alpha  occ. eigenvalues --   -0.60370  -0.59083  -0.58979  -0.58780  -0.58110
 Alpha  occ. eigenvalues --   -0.58010  -0.57704  -0.57174  -0.56917  -0.56463
 Alpha  occ. eigenvalues --   -0.56378  -0.56154  -0.55849  -0.55407  -0.55119
 Alpha  occ. eigenvalues --   -0.54288  -0.54023  -0.53872  -0.53613  -0.53182
 Alpha  occ. eigenvalues --   -0.52628  -0.52233  -0.51533  -0.51336  -0.50751
 Alpha  occ. eigenvalues --   -0.50119  -0.49540  -0.49063  -0.48972  -0.46156
 Alpha  occ. eigenvalues --   -0.45285  -0.45080  -0.44589  -0.43524  -0.42668
 Alpha  occ. eigenvalues --   -0.42364  -0.41846  -0.40221
 Alpha virt. eigenvalues --   -0.03483  -0.02826   0.03079   0.04438   0.05785
 Alpha virt. eigenvalues --    0.08581   0.10500   0.11876   0.12068   0.12797
 Alpha virt. eigenvalues --    0.13144   0.13747   0.14523   0.14947   0.15337
 Alpha virt. eigenvalues --    0.16344   0.16822   0.17495   0.18292   0.18675
 Alpha virt. eigenvalues --    0.18901   0.19281   0.19798   0.20348   0.21259
 Alpha virt. eigenvalues --    0.21304   0.21850   0.22230   0.22776   0.22998
 Alpha virt. eigenvalues --    0.23326   0.24030   0.25259   0.26854   0.29060
 Alpha virt. eigenvalues --    0.30726   0.31095   0.33715   0.34681   0.35030
 Alpha virt. eigenvalues --    0.35815   0.42643   0.44243   0.46672   0.47437
 Alpha virt. eigenvalues --    0.48816   0.48979   0.49557   0.50349   0.51046
 Alpha virt. eigenvalues --    0.51683   0.51756   0.52573   0.52805   0.53203
 Alpha virt. eigenvalues --    0.54908   0.55114   0.55409   0.55797   0.56037
 Alpha virt. eigenvalues --    0.57663   0.58431   0.59152   0.59983   0.60221
 Alpha virt. eigenvalues --    0.61549   0.62430   0.64737   0.65835   0.67365
 Alpha virt. eigenvalues --    0.70812   0.71665   0.72889   0.74741   0.75378
 Alpha virt. eigenvalues --    0.76707   0.78208   0.78865   0.79617   0.80464
 Alpha virt. eigenvalues --    0.80811   0.81751   0.82518   0.83868   0.83943
 Alpha virt. eigenvalues --    0.84635   0.85098   0.85827   0.86256   0.87444
 Alpha virt. eigenvalues --    0.87697   0.88778   0.89175   0.90063   0.92251
 Alpha virt. eigenvalues --    0.94256   0.94436   0.95200   0.95769   0.96446
 Alpha virt. eigenvalues --    0.97644   0.98925   0.99720   1.00473   1.01659
 Alpha virt. eigenvalues --    1.02911   1.03459   1.05748   1.05922   1.07572
 Alpha virt. eigenvalues --    1.08657   1.09647   1.10756   1.12223   1.12690
 Alpha virt. eigenvalues --    1.13253   1.14092   1.14187   1.14717   1.15322
 Alpha virt. eigenvalues --    1.16515   1.17563   1.17785   1.18831   1.19501
 Alpha virt. eigenvalues --    1.21383   1.22069   1.22701   1.24946   1.26319
 Alpha virt. eigenvalues --    1.27968   1.28535   1.29046   1.29992   1.30865
 Alpha virt. eigenvalues --    1.31738   1.32553   1.33456   1.34358   1.34572
 Alpha virt. eigenvalues --    1.35626   1.36516   1.36735   1.37316   1.37946
 Alpha virt. eigenvalues --    1.39311   1.39993   1.40031   1.41284   1.41531
 Alpha virt. eigenvalues --    1.43548   1.44241   1.45184   1.46058   1.46464
 Alpha virt. eigenvalues --    1.47875   1.48838   1.49723   1.50363   1.51576
 Alpha virt. eigenvalues --    1.52018   1.52428   1.54352   1.55128   1.57180
 Alpha virt. eigenvalues --    1.60388   1.60961   1.61192   1.62420   1.63729
 Alpha virt. eigenvalues --    1.64157   1.65476   1.66254   1.66346   1.68609
 Alpha virt. eigenvalues --    1.70331   1.70865   1.71671   1.71910   1.73841
 Alpha virt. eigenvalues --    1.74501   1.76066   1.77272   1.77799   1.78457
 Alpha virt. eigenvalues --    1.79906   1.80047   1.80992   1.82052   1.82489
 Alpha virt. eigenvalues --    1.82916   1.83139   1.84181   1.85219   1.85523
 Alpha virt. eigenvalues --    1.86079   1.86330   1.86815   1.87287   1.88401
 Alpha virt. eigenvalues --    1.88633   1.89333   1.90013   1.90658   1.91713
 Alpha virt. eigenvalues --    1.92094   1.92530   1.92686   1.92932   1.93726
 Alpha virt. eigenvalues --    1.94179   1.94481   1.95756   1.96024   1.96390
 Alpha virt. eigenvalues --    1.96684   1.97487   1.97848   1.98892   1.99287
 Alpha virt. eigenvalues --    2.00004   2.00523   2.01199   2.01505   2.01774
 Alpha virt. eigenvalues --    2.02285   2.03025   2.03411   2.03756   2.04294
 Alpha virt. eigenvalues --    2.04757   2.06256   2.06505   2.06771   2.07318
 Alpha virt. eigenvalues --    2.08334   2.08936   2.10069   2.10466   2.10502
 Alpha virt. eigenvalues --    2.11881   2.13025   2.14410   2.15225   2.15990
 Alpha virt. eigenvalues --    2.16430   2.17323   2.18011   2.19564   2.20713
 Alpha virt. eigenvalues --    2.21677   2.23218   2.25239   2.25756   2.26446
 Alpha virt. eigenvalues --    2.28731   2.29651   2.30929   2.32065   2.33304
 Alpha virt. eigenvalues --    2.33960   2.34853   2.35525   2.37046   2.39570
 Alpha virt. eigenvalues --    2.41995   2.42531   2.43874   2.44279   2.45870
 Alpha virt. eigenvalues --    2.47187   2.50980   2.51103   2.52274   2.53819
 Alpha virt. eigenvalues --    2.55349   2.56075   2.57512   2.57905   2.58658
 Alpha virt. eigenvalues --    2.59641   2.60469   2.61010   2.61518   2.63310
 Alpha virt. eigenvalues --    2.63848   2.64375   2.65800   2.66498   2.67112
 Alpha virt. eigenvalues --    2.69357   2.70080   2.71571   2.72051   2.74479
 Alpha virt. eigenvalues --    2.75043   2.76505   2.77655   2.79599   2.80625
 Alpha virt. eigenvalues --    2.82950   2.83192   2.85136   2.86637   2.87327
 Alpha virt. eigenvalues --    2.87895   2.89177   2.90273   2.90947   2.91701
 Alpha virt. eigenvalues --    2.92522   2.95792   2.96152   2.96927   2.97817
 Alpha virt. eigenvalues --    3.00108   3.01095   3.02685   3.04512   3.04750
 Alpha virt. eigenvalues --    3.05353   3.07391   3.10676   3.13220   3.14076
 Alpha virt. eigenvalues --    3.15905   3.17875   3.19750   3.20298   3.21794
 Alpha virt. eigenvalues --    3.25004   3.25934   3.27295   3.28199   3.35376
 Alpha virt. eigenvalues --    3.39802   3.39859   3.41547   3.44811   3.45252
 Alpha virt. eigenvalues --    3.47348   3.48228   3.52764   3.86722   3.94475
 Alpha virt. eigenvalues --    3.96980   4.10019   4.13126   4.14827   4.23457
 Alpha virt. eigenvalues --    4.24351   4.34256   4.37168   4.39771   4.44305
 Alpha virt. eigenvalues --    4.44555   4.45384   4.50024   4.52082   4.60260
 Alpha virt. eigenvalues --    4.65743   4.73391   4.75084   4.78781   4.97960
 Alpha virt. eigenvalues --    5.00032   5.11563   5.43935   5.61418   5.73926
 Alpha virt. eigenvalues --    6.24213   6.72551
  Beta  occ. eigenvalues --  -24.85567 -24.85400 -24.85196 -24.84967 -24.84963
  Beta  occ. eigenvalues --  -24.84939 -24.84797 -24.84191 -24.84136 -19.36332
  Beta  occ. eigenvalues --  -19.36162 -19.34813 -19.29237 -19.27933 -19.27924
  Beta  occ. eigenvalues --  -14.56494 -14.55689 -14.55675 -10.61076 -10.57102
  Beta  occ. eigenvalues --  -10.55636 -10.51089 -10.50170 -10.49880 -10.49861
  Beta  occ. eigenvalues --  -10.43586 -10.43546 -10.36978 -10.36902  -1.44901
  Beta  occ. eigenvalues --   -1.43499  -1.40947  -1.37404  -1.35414  -1.34940
  Beta  occ. eigenvalues --   -1.34365  -1.33797  -1.33301  -1.27257  -1.23237
  Beta  occ. eigenvalues --   -1.22535  -1.22121  -1.21328  -1.20737  -1.13482
  Beta  occ. eigenvalues --   -1.11533  -1.10547  -0.95320  -0.91609  -0.89343
  Beta  occ. eigenvalues --   -0.87525  -0.84046  -0.83506  -0.82696  -0.80813
  Beta  occ. eigenvalues --   -0.78901  -0.78585  -0.77659  -0.75224  -0.74133
  Beta  occ. eigenvalues --   -0.72912  -0.71722  -0.71290  -0.70391  -0.69600
  Beta  occ. eigenvalues --   -0.67975  -0.67796  -0.67070  -0.65955  -0.65185
  Beta  occ. eigenvalues --   -0.64751  -0.62582  -0.62433  -0.61573  -0.60515
  Beta  occ. eigenvalues --   -0.60241  -0.59068  -0.58874  -0.58756  -0.58022
  Beta  occ. eigenvalues --   -0.57669  -0.57532  -0.57142  -0.56833  -0.56334
  Beta  occ. eigenvalues --   -0.56049  -0.55976  -0.55671  -0.55169  -0.55045
  Beta  occ. eigenvalues --   -0.54081  -0.53647  -0.53304  -0.53142  -0.52960
  Beta  occ. eigenvalues --   -0.52565  -0.52229  -0.51516  -0.51327  -0.50742
  Beta  occ. eigenvalues --   -0.50102  -0.49523  -0.48455  -0.48376  -0.46029
  Beta  occ. eigenvalues --   -0.43715  -0.43345  -0.42416  -0.42278  -0.41719
  Beta  occ. eigenvalues --   -0.39772  -0.34530
  Beta virt. eigenvalues --   -0.28523  -0.03385  -0.02779   0.03135   0.04448
  Beta virt. eigenvalues --    0.05945   0.08739   0.10594   0.11992   0.12308
  Beta virt. eigenvalues --    0.12966   0.13546   0.14146   0.14700   0.15092
  Beta virt. eigenvalues --    0.15679   0.16490   0.16974   0.17530   0.18542
  Beta virt. eigenvalues --    0.18881   0.19001   0.19368   0.19896   0.20450
  Beta virt. eigenvalues --    0.21299   0.21358   0.21885   0.22297   0.22923
  Beta virt. eigenvalues --    0.23110   0.23421   0.24185   0.25273   0.26879
  Beta virt. eigenvalues --    0.29083   0.30759   0.31122   0.33761   0.34732
  Beta virt. eigenvalues --    0.35095   0.35903   0.42680   0.44265   0.46707
  Beta virt. eigenvalues --    0.47475   0.48884   0.49115   0.49659   0.50387
  Beta virt. eigenvalues --    0.51113   0.51787   0.51914   0.52636   0.52832
  Beta virt. eigenvalues --    0.53239   0.54945   0.55174   0.55761   0.56284
  Beta virt. eigenvalues --    0.56373   0.57739   0.58515   0.59211   0.60067
  Beta virt. eigenvalues --    0.60380   0.61671   0.62475   0.64784   0.65861
  Beta virt. eigenvalues --    0.67381   0.70875   0.71940   0.73052   0.74909
  Beta virt. eigenvalues --    0.75492   0.76814   0.78408   0.79192   0.79953
  Beta virt. eigenvalues --    0.80886   0.81276   0.82012   0.83159   0.84098
  Beta virt. eigenvalues --    0.84231   0.84761   0.85259   0.86012   0.86523
  Beta virt. eigenvalues --    0.87719   0.87922   0.89029   0.89550   0.90259
  Beta virt. eigenvalues --    0.92408   0.94507   0.94696   0.95471   0.96035
  Beta virt. eigenvalues --    0.96730   0.97899   0.99218   0.99917   1.01306
  Beta virt. eigenvalues --    1.01923   1.03234   1.03746   1.05881   1.06208
  Beta virt. eigenvalues --    1.07590   1.08765   1.09960   1.10909   1.12349
  Beta virt. eigenvalues --    1.12753   1.13392   1.14268   1.14355   1.14852
  Beta virt. eigenvalues --    1.15522   1.16706   1.17647   1.18263   1.18881
  Beta virt. eigenvalues --    1.19614   1.21601   1.22205   1.22982   1.25051
  Beta virt. eigenvalues --    1.26528   1.27994   1.28701   1.29119   1.30147
  Beta virt. eigenvalues --    1.30888   1.31786   1.32586   1.33525   1.34533
  Beta virt. eigenvalues --    1.35022   1.35766   1.36607   1.36765   1.37448
  Beta virt. eigenvalues --    1.38234   1.39462   1.40012   1.40042   1.41378
  Beta virt. eigenvalues --    1.41650   1.43730   1.44377   1.45268   1.46140
  Beta virt. eigenvalues --    1.46745   1.47938   1.48936   1.49775   1.50424
  Beta virt. eigenvalues --    1.51618   1.52087   1.52516   1.54370   1.55144
  Beta virt. eigenvalues --    1.57232   1.60460   1.61039   1.61297   1.62542
  Beta virt. eigenvalues --    1.63922   1.64243   1.65585   1.66445   1.66570
  Beta virt. eigenvalues --    1.68714   1.70496   1.71006   1.71750   1.72029
  Beta virt. eigenvalues --    1.73979   1.74627   1.76163   1.77477   1.77941
  Beta virt. eigenvalues --    1.78566   1.80094   1.80292   1.81017   1.82368
  Beta virt. eigenvalues --    1.82682   1.82996   1.83291   1.84712   1.85363
  Beta virt. eigenvalues --    1.85602   1.86217   1.86366   1.86966   1.87582
  Beta virt. eigenvalues --    1.88533   1.88905   1.89488   1.90066   1.90847
  Beta virt. eigenvalues --    1.92220   1.92322   1.92975   1.93133   1.93408
  Beta virt. eigenvalues --    1.94072   1.94628   1.94889   1.96042   1.96415
  Beta virt. eigenvalues --    1.96636   1.97394   1.97741   1.98002   1.99149
  Beta virt. eigenvalues --    1.99648   2.00147   2.00681   2.01374   2.01622
  Beta virt. eigenvalues --    2.01825   2.02372   2.03149   2.03439   2.04085
  Beta virt. eigenvalues --    2.04357   2.05177   2.06482   2.06566   2.06903
  Beta virt. eigenvalues --    2.07641   2.08467   2.08956   2.10131   2.10672
  Beta virt. eigenvalues --    2.10681   2.11920   2.13043   2.14452   2.15370
  Beta virt. eigenvalues --    2.16148   2.16565   2.17431   2.18097   2.19719
  Beta virt. eigenvalues --    2.20870   2.21716   2.23269   2.25346   2.25867
  Beta virt. eigenvalues --    2.26490   2.28763   2.29743   2.31097   2.32257
  Beta virt. eigenvalues --    2.33440   2.33986   2.34951   2.35588   2.37144
  Beta virt. eigenvalues --    2.39720   2.42082   2.42663   2.44100   2.44305
  Beta virt. eigenvalues --    2.46001   2.47266   2.51351   2.51491   2.52394
  Beta virt. eigenvalues --    2.54320   2.55705   2.56420   2.57860   2.58356
  Beta virt. eigenvalues --    2.59002   2.60067   2.60866   2.61233   2.61740
  Beta virt. eigenvalues --    2.63454   2.63980   2.64746   2.65980   2.66727
  Beta virt. eigenvalues --    2.67404   2.69540   2.70136   2.71756   2.72339
  Beta virt. eigenvalues --    2.74676   2.75438   2.76668   2.77831   2.79941
  Beta virt. eigenvalues --    2.80912   2.83018   2.83233   2.85199   2.86758
  Beta virt. eigenvalues --    2.87609   2.88094   2.89339   2.90298   2.91132
  Beta virt. eigenvalues --    2.91802   2.92555   2.95817   2.96379   2.97236
  Beta virt. eigenvalues --    2.97994   3.00233   3.01193   3.02901   3.04519
  Beta virt. eigenvalues --    3.04952   3.05355   3.07422   3.10687   3.13288
  Beta virt. eigenvalues --    3.14159   3.15943   3.17894   3.20061   3.20656
  Beta virt. eigenvalues --    3.21873   3.25019   3.26360   3.27709   3.28247
  Beta virt. eigenvalues --    3.35442   3.40231   3.40289   3.41656   3.44935
  Beta virt. eigenvalues --    3.45390   3.47798   3.48636   3.52802   3.87680
  Beta virt. eigenvalues --    3.95575   3.97008   4.10050   4.13190   4.14893
  Beta virt. eigenvalues --    4.23532   4.24410   4.34280   4.37173   4.39855
  Beta virt. eigenvalues --    4.44344   4.44593   4.45404   4.50185   4.52184
  Beta virt. eigenvalues --    4.60269   4.65763   4.73406   4.75178   4.78842
  Beta virt. eigenvalues --    4.97965   5.00036   5.11565   5.43936   5.61419
  Beta virt. eigenvalues --    5.73927   6.24215   6.72551
          Condensed to atoms (all electrons):
               1          2          3          4          5          6
     1  C    4.792256   0.217673  -0.038042   0.003858  -0.000017   0.000014
     2  O    0.217673   8.097564   0.221985  -0.059215   0.001874  -0.001231
     3  C   -0.038042   0.221985   4.666965   0.275097  -0.020769   0.002567
     4  N    0.003858  -0.059215   0.275097   7.346714   0.242222  -0.085611
     5  C   -0.000017   0.001874  -0.020769   0.242222   4.126740   0.583671
     6  O    0.000014  -0.001231   0.002567  -0.085611   0.583671   8.034241
     7  N    0.000002  -0.000126   0.002942  -0.091493   0.241669  -0.085307
     8  C    0.000000   0.000001  -0.000095   0.003000  -0.021460   0.002966
     9  O    0.000000   0.000000   0.000003  -0.000157   0.002766  -0.001298
    10  C    0.000000   0.000000   0.000000   0.000002  -0.000030   0.000014
    11  C    0.000000   0.000023   0.000211  -0.000781  -0.019181   0.000432
    12  O    0.000000   0.000000   0.000003   0.000126   0.000301  -0.000022
    13  N    0.000003  -0.000178   0.002882  -0.092260  -0.002091   0.000044
    14  C    0.000000   0.000002  -0.000037   0.000839   0.000194   0.000001
    15  F    0.000000   0.000000   0.000000  -0.000032   0.000001   0.000000
    16  F    0.000000   0.000000   0.000006   0.000056   0.000004   0.000000
    17  C    0.000000   0.000000   0.000002  -0.000127   0.000046   0.000000
    18  F    0.000000   0.000000   0.000000  -0.000003   0.000020   0.000000
    19  O    0.000000   0.000000   0.000000   0.000000   0.000000   0.000000
    20  C    0.000000   0.000000   0.000000   0.000000   0.000000   0.000000
    21  F    0.000000   0.000000   0.000000   0.000000   0.000000   0.000000
    22  F    0.000000   0.000000   0.000000   0.000000   0.000000   0.000000
    23  F    0.000000   0.000000   0.000000   0.000000   0.000000   0.000000
    24  C    0.000000   0.000000  -0.000001  -0.000018  -0.000005   0.000000
    25  F    0.000000   0.000000   0.000000  -0.000003   0.000000   0.000000
    26  F    0.000000   0.000000   0.000000   0.000000   0.000000   0.000000
    27  F    0.000000   0.000000   0.000014  -0.000366   0.000034   0.000000
    28  C   -0.000030   0.003747  -0.020704   0.216114  -0.020624   0.000430
    29  O    0.000015  -0.001039   0.001376  -0.085755   0.000421  -0.000021
    30  H    0.379197  -0.027905  -0.006786  -0.000034  -0.000014   0.000048
    31  H    0.379759  -0.027648  -0.006170  -0.000015   0.000020  -0.000004
    32  H    0.396080  -0.025521   0.003864  -0.000160  -0.000008   0.000001
    33  H   -0.001253  -0.033848   0.372815  -0.034785  -0.003946   0.013949
    34  H   -0.001300  -0.032670   0.375215  -0.033784   0.004293   0.000248
    35  H    0.000000  -0.000003  -0.000001   0.000586  -0.004544   0.013973
    36  H    0.000000   0.000000   0.000001  -0.000117   0.004306   0.000239
    37  H    0.000000   0.000000   0.000000   0.000000   0.000022  -0.000005
    38  H    0.000000   0.000000   0.000000   0.000000  -0.000016   0.000046
    39  H    0.000000   0.000000   0.000000   0.000000  -0.000008   0.000001
               7          8          9         10         11         12
     1  C    0.000002   0.000000   0.000000   0.000000   0.000000   0.000000
     2  O   -0.000126   0.000001   0.000000   0.000000   0.000023   0.000000
     3  C    0.002942  -0.000095   0.000003   0.000000   0.000211   0.000003
     4  N   -0.091493   0.003000  -0.000157   0.000002  -0.000781   0.000126
[...]
    10  C(13)             -0.01183     -13.29488      -4.74394      -4.43469
    11  C(13)             -0.00129      -1.44486      -0.51556      -0.48195
    12  O(17)              0.00272      -1.64823      -0.58813      -0.54979
    13  N(14)             -0.00162      -0.52401      -0.18698      -0.17479
    14  C(13)             -0.00012      -0.13621      -0.04860      -0.04543
    15  F(19)              0.00014       0.60595       0.21622       0.20212
    16  F(19)              0.00002       0.07374       0.02631       0.02460
    17  C(13)              0.00001       0.01046       0.00373       0.00349
    18  F(19)              0.00004       0.14746       0.05262       0.04919
    19  O(17)              0.00000      -0.00155      -0.00055      -0.00052
    20  C(13)              0.00000      -0.00192      -0.00068      -0.00064
    21  F(19)              0.00000      -0.01949      -0.00695      -0.00650
    22  F(19)              0.00000      -0.00275      -0.00098      -0.00092
    23  F(19)              0.00000      -0.00298      -0.00106      -0.00099
    24  C(13)              0.00000      -0.00318      -0.00113      -0.00106
    25  F(19)              0.00000      -0.01402      -0.00500      -0.00468
    26  F(19)              0.00000      -0.00771      -0.00275      -0.00257
    27  F(19)             -0.00001      -0.03614      -0.01289      -0.01205
    28  C(13)             -0.00145      -1.63498      -0.58340      -0.54537
    29  O(17)              0.00293      -1.77673      -0.63398      -0.59265
    30  H(1)               0.01593      71.21043      25.40965      23.75324
    31  H(1)               0.01582      70.70627      25.22975      23.58507
    32  H(1)              -0.00021      -0.92763      -0.33100      -0.30942
    33  H(1)               0.01616      72.22101      25.77025      24.09034
    34  H(1)               0.01759      78.63766      28.05987      26.23070
    35  H(1)               0.01655      73.99540      26.40340      24.68221
    36  H(1)               0.01734      77.51877      27.66062      25.85748
    37  H(1)               0.01619      72.37586      25.82550      24.14199
    38  H(1)               0.01628      72.76407      25.96403      24.27148
    39  H(1)              -0.00021      -0.95123      -0.33942      -0.31730
 --------------------------------------------------------
       Center         ----  Spin Dipole Couplings  ----
                      3XX-RR        3YY-RR        3ZZ-RR
 --------------------------------------------------------
     1   Atom        0.020962     -0.007485     -0.013477
     2   Atom        0.825177     -0.353534     -0.471642
     3   Atom        0.021465     -0.000737     -0.020728
     4   Atom        0.002976      0.004905     -0.007881
     5   Atom        0.005951      0.001615     -0.007565
     6   Atom       -0.142741     -0.086784      0.229526
     7   Atom        0.004431      0.004432     -0.008863
     8   Atom        0.026422     -0.010457     -0.015966
     9   Atom        0.984981     -0.584215     -0.400766
    10   Atom        0.022492     -0.007456     -0.015036
    11   Atom        0.000256      0.002340     -0.002596
    12   Atom        0.044126     -0.022162     -0.021964
    13   Atom       -0.002847      0.007945     -0.005098
    14   Atom        0.000722     -0.000065     -0.000657
    15   Atom        0.000603      0.001668     -0.002271
    16   Atom        0.000380     -0.002231      0.001852
    17   Atom        0.000818     -0.000277     -0.000541
    18   Atom        0.000702     -0.001027      0.000325
    19   Atom        0.000677     -0.000260     -0.000417
    20   Atom        0.000468     -0.000190     -0.000278
    21   Atom        0.000500     -0.000197     -0.000303
    22   Atom        0.000336     -0.000141     -0.000195
    23   Atom        0.000390     -0.000167     -0.000223
    24   Atom        0.000634     -0.000231     -0.000403
    25   Atom        0.000783     -0.000365     -0.000417
    26   Atom        0.000405     -0.000187     -0.000218
    27   Atom        0.000337     -0.000086     -0.000251
    28   Atom        0.001230      0.000629     -0.001859
    29   Atom        0.041812     -0.039725     -0.002087
    30   Atom        0.005933     -0.003171     -0.002762
    31   Atom       -0.005906     -0.002262      0.008168
    32   Atom       -0.002270      0.006830     -0.004559
    33   Atom        0.001543      0.002120     -0.003663
    34   Atom       -0.005348     -0.004211      0.009558
    35   Atom        0.005957     -0.001656     -0.004301
    36   Atom       -0.007716     -0.003897      0.011613
    37   Atom       -0.006915     -0.000433      0.007348
    38   Atom        0.007300     -0.002788     -0.004512
    39   Atom       -0.004243      0.008499     -0.004256
 --------------------------------------------------------
                        XY            XZ            YZ
 --------------------------------------------------------
     1   Atom       -0.010114     -0.007705      0.015969
     2   Atom       -0.718350     -0.605064      0.284674
     3   Atom       -0.023703     -0.022809      0.004067
     4   Atom       -0.004744      0.002182      0.003985
     5   Atom       -0.000840      0.001553      0.008311
     6   Atom       -0.000379     -0.006338      0.123971
     7   Atom        0.004720      0.000053      0.003509
     8   Atom        0.018815      0.024809     -0.001202
     9   Atom        0.452313      0.739491      0.193726
    10   Atom        0.003131      0.014423      0.013609
    11   Atom       -0.001063      0.001348      0.002422
    12   Atom       -0.038623     -0.039143      0.017818
    13   Atom        0.001935      0.000556      0.002128
    14   Atom       -0.000185      0.000240      0.000558
    15   Atom       -0.002890      0.000462     -0.000052
    16   Atom        0.000780      0.003344      0.001618
    17   Atom       -0.000007     -0.000261      0.000197
    18   Atom        0.000053     -0.001158     -0.000240
    19   Atom        0.000051     -0.000127      0.000011
    20   Atom       -0.000049      0.000009      0.000048
    21   Atom       -0.000133      0.000107      0.000042
    22   Atom       -0.000034      0.000049      0.000019
    23   Atom       -0.000014     -0.000086      0.000047
    24   Atom        0.000175     -0.000390      0.000115
    25   Atom        0.000065     -0.000384      0.000070
    26   Atom        0.000124     -0.000343      0.000012
    27   Atom        0.000455     -0.000797     -0.000165
    28   Atom        0.001194     -0.000277      0.003479
    29   Atom        0.004390      0.055921      0.002947
    30   Atom       -0.000798      0.008677     -0.000444
    31   Atom        0.001071     -0.002732      0.006746
    32   Atom        0.005247     -0.000050     -0.000390
    33   Atom       -0.006005      0.007320     -0.005797
    34   Atom        0.002103     -0.008386     -0.001050
    35   Atom        0.004998     -0.008158     -0.003906
    36   Atom       -0.000605      0.006186     -0.001353
    37   Atom       -0.000214      0.003147      0.007176
    38   Atom       -0.002486     -0.007631      0.001370
    39   Atom       -0.002528      0.000302     -0.002258
 --------------------------------------------------------


 ---------------------------------------------------------------------------------
              Anisotropic Spin Dipole Couplings in Principal Axis System
 ---------------------------------------------------------------------------------

       Atom             a.u.   MegaHertz   Gauss  10(-4) cm-1        Axes

              Baa    -0.0267    -3.588    -1.280    -1.197 -0.0124 -0.6423  0.7664
     1 C(13)  Bbb    -0.0014    -0.193    -0.069    -0.064  0.4931  0.6628  0.5634
              Bcc     0.0282     3.780     1.349     1.261  0.8699 -0.3849 -0.3085
 
              Baa    -0.7102    51.390    18.337    17.142  0.3362 -0.0724  0.9390
     2 O(17)  Bbb    -0.6933    50.163    17.899    16.733  0.4023  0.9125 -0.0737
              Bcc     1.4035  -101.553   -36.237   -33.875  0.8515 -0.4026 -0.3359
 
              Baa    -0.0322    -4.315    -1.540    -1.439  0.4689  0.2438  0.8489
     3 C(13)  Bbb    -0.0116    -1.562    -0.557    -0.521  0.3188  0.8496 -0.4201
              Bcc     0.0438     5.878     2.097     1.961  0.8237 -0.4676 -0.3206
 
              Baa    -0.0100    -0.385    -0.137    -0.128 -0.2725 -0.3288  0.9042
     4 N(14)  Bbb     0.0010     0.039     0.014     0.013  0.7593  0.5037  0.4120
              Bcc     0.0090     0.346     0.124     0.115 -0.5909  0.7989  0.1124
 
              Baa    -0.0126    -1.696    -0.605    -0.566 -0.0945 -0.5057  0.8575
     5 C(13)  Bbb     0.0061     0.820     0.292     0.273  0.9831 -0.1829  0.0005
              Bcc     0.0065     0.876     0.313     0.292  0.1566  0.8431  0.5144
 
              Baa    -0.1430    10.351     3.693     3.453  0.9919 -0.1143  0.0549
     6 O(17)  Bbb    -0.1294     9.361     3.340     3.122  0.1260  0.9384 -0.3219
              Bcc     0.2724   -19.712    -7.034    -6.575 -0.0147  0.3262  0.9452
 
              Baa    -0.0098    -0.379    -0.135    -0.126  0.0840 -0.2643  0.9608
     7 N(14)  Bbb     0.0003     0.012     0.004     0.004  0.7331 -0.6366 -0.2392
              Bcc     0.0095     0.367     0.131     0.122  0.6749  0.7244  0.1403
 
              Baa    -0.0320    -4.291    -1.531    -1.431 -0.4682  0.4518  0.7594
     8 C(13)  Bbb    -0.0111    -1.493    -0.533    -0.498 -0.0644  0.8397 -0.5393
              Bcc     0.0431     5.784     2.064     1.929  0.8813  0.3014  0.3640
 
              Baa    -0.7215    52.208    18.629    17.415 -0.4210  0.1177  0.8994
     9 O(17)  Bbb    -0.7044    50.971    18.188    17.002 -0.1684  0.9642 -0.2050
              Bcc     1.4259  -103.179   -36.817   -34.417  0.8913  0.2378  0.3860
 
              Baa    -0.0274    -3.675    -1.311    -1.226 -0.2047 -0.5298  0.8230
    10 C(13)  Bbb    -0.0016    -0.217    -0.077    -0.072 -0.3680  0.8208  0.4369
              Bcc     0.0290     3.892     1.389     1.298  0.9070  0.2134  0.3630
 
              Baa    -0.0042    -0.564    -0.201    -0.188 -0.3492 -0.3748  0.8589
    11 C(13)  Bbb     0.0008     0.106     0.038     0.035  0.9218  0.0275  0.3868
              Bcc     0.0034     0.458     0.163     0.153 -0.1686  0.9267  0.3359
 
              Baa    -0.0402     2.907     1.037     0.970  0.5089  0.2891  0.8108
    12 O(17)  Bbb    -0.0398     2.882     1.029     0.961  0.1993  0.8768 -0.4377
              Bcc     0.0800    -5.790    -2.066    -1.931  0.8374 -0.3843 -0.3886
 
              Baa    -0.0055    -0.211    -0.075    -0.070 -0.1050 -0.1411  0.9844
    13 N(14)  Bbb    -0.0032    -0.122    -0.044    -0.041  0.9796 -0.1855  0.0779
              Bcc     0.0086     0.333     0.119     0.111  0.1716  0.9725  0.1577
 
              Baa    -0.0010    -0.140    -0.050    -0.047 -0.1683 -0.5122  0.8422
    14 C(13)  Bbb     0.0003     0.036     0.013     0.012  0.0660  0.8467  0.5280
              Bcc     0.0008     0.104     0.037     0.035  0.9835 -0.1445  0.1087
 
              Baa    -0.0024    -1.230    -0.439    -0.410 -0.3720 -0.2498  0.8940
    15 F(19)  Bbb    -0.0016    -0.825    -0.295    -0.275  0.6712  0.5929  0.4450
              Bcc     0.0041     2.055     0.733     0.686 -0.6412  0.7656 -0.0529
 
              Baa    -0.0029    -1.464    -0.522    -0.488  0.3058  0.8154 -0.4915
    16 F(19)  Bbb    -0.0021    -1.031    -0.368    -0.344  0.7406 -0.5281 -0.4154
              Bcc     0.0050     2.495     0.890     0.832  0.5983  0.2369  0.7654
 
              Baa    -0.0007    -0.091    -0.033    -0.031  0.1528 -0.4306  0.8895
    17 C(13)  Bbb    -0.0002    -0.025    -0.009    -0.008  0.1143  0.9017  0.4169
              Bcc     0.0009     0.116     0.042     0.039  0.9816 -0.0380 -0.1870
 
              Baa    -0.0011    -0.548    -0.196    -0.183  0.1594  0.9436  0.2901
    18 F(19)  Bbb    -0.0006    -0.306    -0.109    -0.102  0.6337 -0.3231  0.7029
              Bcc     0.0017     0.854     0.305     0.285  0.7570  0.0718 -0.6495
 
              Baa    -0.0004     0.031     0.011     0.010  0.1176 -0.0991  0.9881
    19 O(17)  Bbb    -0.0003     0.019     0.007     0.006 -0.0401  0.9937  0.1044
              Bcc     0.0007    -0.050    -0.018    -0.017  0.9923  0.0520 -0.1129
 
              Baa    -0.0003    -0.040    -0.014    -0.013 -0.0375 -0.4135  0.9098
    20 C(13)  Bbb    -0.0002    -0.023    -0.008    -0.008  0.0643  0.9075  0.4151
              Bcc     0.0005     0.063     0.023     0.021  0.9972 -0.0740  0.0075
 
              Baa    -0.0003    -0.173    -0.062    -0.058 -0.1782 -0.4161  0.8917
    21 F(19)  Bbb    -0.0002    -0.096    -0.034    -0.032  0.1041  0.8931  0.4376
              Bcc     0.0005     0.269     0.096     0.090  0.9785 -0.1709  0.1159
 
              Baa    -0.0002    -0.104    -0.037    -0.035 -0.1055 -0.3232  0.9404
    22 F(19)  Bbb    -0.0001    -0.068    -0.024    -0.023  0.0331  0.9441  0.3281
              Bcc     0.0003     0.172     0.061     0.057  0.9939 -0.0657  0.0889
 
              Baa    -0.0003    -0.129    -0.046    -0.043  0.1086 -0.4484  0.8872
    23 F(19)  Bbb    -0.0001    -0.073    -0.026    -0.024  0.0951  0.8931  0.4397
              Bcc     0.0004     0.202     0.072     0.067  0.9895 -0.0366 -0.1396
 
              Baa    -0.0006    -0.082    -0.029    -0.027  0.3252 -0.4109  0.8517
    24 C(13)  Bbb    -0.0002    -0.023    -0.008    -0.008  0.0122  0.9024  0.4307
              Bcc     0.0008     0.105     0.037     0.035  0.9456  0.1297 -0.2985
 
              Baa    -0.0006    -0.285    -0.102    -0.095  0.2693 -0.3938  0.8789
    25 F(19)  Bbb    -0.0003    -0.166    -0.059    -0.055  0.0800  0.9186  0.3871
              Bcc     0.0009     0.450     0.161     0.150  0.9597  0.0339 -0.2789
 
              Baa    -0.0004    -0.196    -0.070    -0.065  0.4171 -0.3071  0.8554
    26 F(19)  Bbb    -0.0002    -0.092    -0.033    -0.031 -0.0011  0.9410  0.3384
              Bcc     0.0006     0.288     0.103     0.096  0.9088  0.1421 -0.3922
 
              Baa    -0.0008    -0.418    -0.149    -0.139  0.6038 -0.1979  0.7722
    27 F(19)  Bbb    -0.0002    -0.125    -0.045    -0.042 -0.1882  0.9059  0.3793
              Bcc     0.0011     0.543     0.194     0.181  0.7746  0.3744 -0.5097
 
              Baa    -0.0045    -0.598    -0.214    -0.200  0.1611 -0.5825  0.7967
    28 C(13)  Bbb     0.0011     0.142     0.051     0.047  0.9160 -0.2122 -0.3404
              Bcc     0.0034     0.457     0.163     0.152  0.3673  0.7846  0.4995
 
              Baa    -0.0402     2.910     1.038     0.971 -0.5627  0.1438  0.8141
    29 O(17)  Bbb    -0.0400     2.891     1.032     0.964  0.0450  0.9886 -0.1435
              Bcc     0.0802    -5.801    -2.070    -1.935  0.8255  0.0441  0.5627
 
              Baa    -0.0081    -4.333    -1.546    -1.445 -0.5257 -0.0085  0.8506
    30 H(1)   Bbb    -0.0032    -1.722    -0.615    -0.574  0.0489  0.9980  0.0402
              Bcc     0.0113     6.055     2.161     2.020  0.8493 -0.0627  0.5242
 
              Baa    -0.0080    -4.280    -1.527    -1.428  0.7469 -0.5595  0.3592
    31 H(1)   Bbb    -0.0037    -1.965    -0.701    -0.656  0.6552  0.7115 -0.2540
              Bcc     0.0117     6.246     2.229     2.083 -0.1135  0.4250  0.8980
 
              Baa    -0.0047    -2.531    -0.903    -0.844  0.7492 -0.3584 -0.5570
    32 H(1)   Bbb    -0.0045    -2.396    -0.855    -0.799  0.5163 -0.2107  0.8301
              Bcc     0.0092     4.927     1.758     1.644  0.4149  0.9095 -0.0272
 
              Baa    -0.0091    -4.837    -1.726    -1.613 -0.4868  0.1815  0.8544
    33 H(1)   Bbb    -0.0039    -2.102    -0.750    -0.701  0.6064  0.7743  0.1811
              Bcc     0.0130     6.938     2.476     2.314  0.6287 -0.6063  0.4870
 
              Baa    -0.0095    -5.091    -1.816    -1.698  0.8856 -0.2759  0.3737
    34 H(1)   Bbb    -0.0040    -2.119    -0.756    -0.707  0.2112  0.9557  0.2050
              Bcc     0.0135     7.209     2.573     2.405 -0.4137 -0.1027  0.9046
 
              Baa    -0.0090    -4.800    -1.713    -1.601  0.4224  0.1846  0.8874
    35 H(1)   Bbb    -0.0041    -2.203    -0.786    -0.735 -0.4321  0.9016  0.0181
              Bcc     0.0131     7.004     2.499     2.336  0.7968  0.3911 -0.4606
 
              Baa    -0.0095    -5.087    -1.815    -1.697  0.9598  0.0362 -0.2785
    36 H(1)   Bbb    -0.0040    -2.141    -0.764    -0.714 -0.0113  0.9958  0.0907
              Bcc     0.0135     7.228     2.579     2.411  0.2806 -0.0839  0.9562
 
              Baa    -0.0082    -4.365    -1.557    -1.456  0.8826  0.3323 -0.3325
    37 H(1)   Bbb    -0.0038    -2.027    -0.723    -0.676 -0.4495  0.8035 -0.3903
              Bcc     0.0120     6.392     2.281     2.132  0.1374  0.4940  0.8586
 
              Baa    -0.0083    -4.406    -1.572    -1.470  0.4367 -0.0267  0.8992
    38 H(1)   Bbb    -0.0033    -1.784    -0.636    -0.595  0.1854  0.9808 -0.0609
              Bcc     0.0116     6.190     2.209     2.065  0.8803 -0.1933 -0.4333
 
              Baa    -0.0048    -2.569    -0.917    -0.857  0.7861  0.2455  0.5672
    39 H(1)   Bbb    -0.0045    -2.426    -0.866    -0.809 -0.5901  0.0253  0.8069
              Bcc     0.0094     4.995     1.782     1.666 -0.1837  0.9691 -0.1648
 

 ---------------------------------------------------------------------------------

 No NMR shielding tensors so no spin-rotation constants.
 Leave Link  601 at Sun Mar  3 17:43:32 2024, MaxMem=  5368709120 cpu:         5.2
 (Enter /home/k0335/k033513/app/g09/l9999.exe)
 1\1\GINC-C18U05N1\SP\UCAM-B3LYP\6-31G(d,p)\C11H10F9N3O6(1+,2)\K033513\
 03-Mar-2024\0\\#p CAM-B3LYP/6-31G(d,p) SCRF=(PCM,Solvent=Generic,Read)
  NoSymm out=wfn\\Title A1386248941_p1\\1,2\C,0,-3.302149,-3.805725,-1.
 548862\O,0,-2.549161,-2.918412,-0.734\C,0,-2.235098,-1.7141,-1.43036\N
 ,0,-1.470337,-0.883039,-0.528069\C,0,-2.148845,0.035207,0.241641\O,0,-
 3.372528,0.167186,0.1817\N,0,-1.36694,0.808055,1.072006\C,0,-2.004554,
 1.891512,1.785447\O,0,-1.961923,3.040045,0.941121\C,0,-2.54846,4.16888
 3,1.573332\C,0,-0.007917,0.644421,1.218332\O,0,0.656149,1.370961,1.957
 346\N,0,0.566768,-0.373616,0.494299\C,0,2.008496,-0.53556,0.589818\F,0
 ,2.341356,-0.488534,1.92233\F,0,2.358096,-1.804912,0.244828\C,0,2.8955
 87,0.502974,-0.157536\F,0,2.291889,1.739236,-0.062132\O,0,4.16943,0.74
 2711,0.466638\C,0,5.107404,-0.287783,0.302686\F,0,4.587445,-1.468094,0
 .658477\F,0,6.170964,-0.029753,1.085186\F,0,5.515616,-0.334899,-0.9741
 12\C,0,2.944991,0.173449,-1.64868\F,0,3.378398,-1.07672,-1.90136\F,0,3
 .784105,1.022366,-2.2962\F,0,1.735026,0.326818,-2.233705\C,0,-0.105742
 ,-1.044171,-0.494819\O,0,0.488973,-1.724714,-1.330204\H,0,-4.251391,-3
 .346249,-1.840921\H,0,-2.730421,-4.088632,-2.438002\H,0,-3.515183,-4.7
 08118,-0.969589\H,0,-3.15918,-1.211327,-1.73707\H,0,-1.652353,-1.94827
 1,-2.328393\H,0,-3.045934,1.642839,2.01911\H,0,-1.477445,2.099618,2.72
 3533\H,0,-2.001882,4.424332,2.486279\H,0,-3.600359,3.975512,1.804836\H
 ,0,-2.49289,5.016502,0.88507\\Version=ES64L-G09RevD.01\HF=-1938.446602
 9\S2=0.754643\S2-1=0.\S2A=0.750016\RMSD=8.655e-09\Dipole=-7.4174672,0.
 3651572,0.2446885\Quadrupole=-0.6778771,12.9889657,-12.3110886,0.81771
 09,0.2746411,19.49406\PG=C01 [X(C11H10F9N3O6)]\\@

 Writing a WFN file to "A1386248941/A1386248941_p1.wfn"


 CHARLIE BROWN -- WHICH DO YOU THINK LASTS LONGER IN LIFE, THE GOOD THINGS 
                  OR THE BAD THINGS?
 LINUS --         GOOD THINGS LAST EIGHT SECONDS ..
                  BAD THINGS LAST THREE WEEKS
 CHARLIE BROWN -- WHAT ABOUT IN BETWEEN?
 SNOOPY --        IN BETWEEN YOU SHOULD TAKE A NAP ...
 Job cpu time:       0 days  0 hours 35 minutes  8.5 seconds.
 File lengths (MBytes):  RWF=    376 Int=      0 D2E=      0 Chk=     13 Scr=      1
 Normal termination of Gaussian 09 at Sun Mar  3 17:43:33 2024.
