 Entering Gaussian System, Link 0=g09
 Initial command:
 /home/k0335/k033513/app/g09/l1.exe "/home/k0335/k033513/app/g09/scratch/Gau-650898.inp" -scrdir="/home/k0335/k033513/app/g09/scratch/"
 Default is to use a total of  36 processors:
                               36 via shared-memory
                                1 via Linda
 Entering Link 1 = /home/k0335/k033513/app/g09/l1.exe PID=    650899.
  
 Copyright (c) 1988,1990,1992,1993,1995,1998,2003,2009,2013,
            Gaussian, Inc.  All Rights Reserved.
  
 This is part of the Gaussian(R) 09 program.  It is based on
 the Gaussian(R) 03 system (copyright 2003, Gaussian, Inc.),
 the Gaussian(R) 98 system (copyright 1998, Gaussian, Inc.),
 the Gaussian(R) 94 system (copyright 1995, Gaussian, Inc.),
 the Gaussian 92(TM) system (copyright 1992, Gaussian, Inc.),
 the Gaussian 90(TM) system (copyright 1990, Gaussian, Inc.),
 the Gaussian 88(TM) system (copyright 1988, Gaussian, Inc.),
 the Gaussian 86(TM) system (copyright 1986, Carnegie Mellon
 University), and the Gaussian 82(TM) system (copyright 1983,
 Carnegie Mellon University). Gaussian is a federally registered
 trademark of Gaussian, Inc.
  
 This software contains proprietary and confidential information,
 including trade secrets, belonging to Gaussian, Inc.
  
 This software is provided under written license and may be
 used, copied, transmitted, or stored only in accord with that
 written license.
  
 The following legend is applicable only to US Government
 contracts under FAR:
  
                    RESTRICTED RIGHTS LEGEND
  
 Use, reproduction and disclosure by the US Government is
 subject to restrictions as set forth in subparagraphs (a)
 and (c) of the Commercial Computer Software - Restricted
 Rights clause in FAR 52.227-19.
  
 Gaussian, Inc.
 340 Quinnipiac St., Bldg. 40, Wallingford CT 06492
  
  
 ---------------------------------------------------------------
 Warning -- This program may not be used in any manner that
 competes with the business of Gaussian, Inc. or will provide
 assistance to any competitor of Gaussian, Inc.  The licensee
 of this program is prohibited from giving any competitor of
 Gaussian, Inc. access to this program.  By using this program,
 the user acknowledges that Gaussian, Inc. is engaged in the
 business of creating and licensing software in the field of
 computational chemistry and represents and warrants to the
 licensee that it is not a competitor of Gaussian, Inc. and that
 it will not use this program in any manner prohibited above.
 ---------------------------------------------------------------
  

 Cite this work as:
 Gaussian 09, Revision D.01,
 M. J. Frisch, G. W. Trucks, H. B. Schlegel, G. E. Scuseria, 
 M. A. Robb, J. R. Cheeseman, G. Scalmani, V. Barone, B. Mennucci, 
 G. A. Petersson, H. Nakatsuji, M. Caricato, X. Li, H. P. Hratchian, 
 A. F. Izmaylov, J. Bloino, G. Zheng, J. L. Sonnenberg, M. Hada, 
 M. Ehara, K. Toyota, R. Fukuda, J. Hasegawa, M. Ishida, T. Nakajima, 
 Y. Honda, O. Kitao, H. Nakai, T. Vreven, J. A. Montgomery, Jr., 
 J. E. Peralta, F. Ogliaro, M. Bearpark, J. J. Heyd, E. Brothers, 
 K. N. Kudin, V. N. Staroverov, T. Keith, R. Kobayashi, J. Normand, 
 K. Raghavachari, A. Rendell, J. C. Burant, S. S. Iyengar, J. Tomasi, 
 M. Cossi, N. Rega, J. M. Millam, M. Klene, J. E. Knox, J. B. Cross, 
 V. Bakken, C. Adamo, J. Jaramillo, R. Gomperts, R. E. Stratmann, 
 O. Yazyev, A. J. Austin, R. Cammi, C. Pomelli, J. W. Ochterski, 
 R. L. Martin, K. Morokuma, V. G. Zakrzewski, G. A. Voth, 
 P. Salvador, J. J. Dannenberg, S. Dapprich, A. D. Daniels, 
 O. Farkas, J. B. Foresman, J. V. Ortiz, J. Cioslowski, 
 and D. J. Fox, Gaussian, Inc., Wallingford CT, 2013.
 
 ******************************************
 Gaussian 09:  ES64L-G09RevD.01 24-Apr-2013
                 3-Mar-2024 
 ******************************************
 %nprocshared=24
 Will use up to   24 processors via shared memory.
 %mem=40GB
 %rwf=A1386248941/A1386248941_0.rwf
 %nosave
 %chk=A1386248941/A1386248941_0.chk
 ----------------------------------------------------------------------
 #p CAM-B3LYP/6-31G(d,p) SCRF=(PCM,Solvent=Generic,Read) NoSymm out=wfn
 ----------------------------------------------------------------------
 1/38=1,40=2/1;
 2/12=2,15=1,17=6,18=5,40=1/2;
 3/5=1,6=6,7=101,11=2,16=1,25=1,30=1,70=2203,72=-2,74=-40/1,2,3;
 4//1;
 5/5=2,38=5/2;
 6/7=2,8=2,9=2,10=2,28=1/1;
 99/5=1,6=100,9=1/99;
 Leave Link    1 at Sun Mar  3 17:42:01 2024, MaxMem=  5368709120 cpu:         2.0
 (Enter /home/k0335/k033513/app/g09/l101.exe)
 -------------------
 Title A1386248941_0
 -------------------
 Symbolic Z-matrix:
 Charge =  0 Multiplicity = 1
 C                    -3.30215  -3.80573  -1.54886 
 O                    -2.54916  -2.91841  -0.734 
 C                    -2.2351   -1.7141   -1.43036 
 N                    -1.47034  -0.88304  -0.52807 
 C                    -2.14885   0.03521   0.24164 
 O                    -3.37253   0.16719   0.1817 
 N                    -1.36694   0.80806   1.07201 
 C                    -2.00455   1.89151   1.78545 
 O                    -1.96192   3.04005   0.94112 
 C                    -2.54846   4.16888   1.57333 
 C                    -0.00792   0.64442   1.21833 
 O                     0.65615   1.37096   1.95735 
 N                     0.56677  -0.37362   0.4943 
 C                     2.0085   -0.53556   0.58982 
 F                     2.34136  -0.48853   1.92233 
 F                     2.3581   -1.80491   0.24483 
 C                     2.89559   0.50297  -0.15754 
 F                     2.29189   1.73924  -0.06213 
 O                     4.16943   0.74271   0.46664 
 C                     5.1074   -0.28778   0.30269 
 F                     4.58745  -1.46809   0.65848 
 F                     6.17096  -0.02975   1.08519 
 F                     5.51562  -0.3349   -0.97411 
 C                     2.94499   0.17345  -1.64868 
 F                     3.3784   -1.07672  -1.90136 
 F                     3.78411   1.02237  -2.2962 
 F                     1.73503   0.32682  -2.23371 
 C                    -0.10574  -1.04417  -0.49482 
 O                     0.48897  -1.72471  -1.3302 
 H                    -4.25139  -3.34625  -1.84092 
 H                    -2.73042  -4.08863  -2.438 
 H                    -3.51518  -4.70812  -0.96959 
 H                    -3.15918  -1.21133  -1.73707 
 H                    -1.65235  -1.94827  -2.32839 
 H                    -3.04593   1.64284   2.01911 
 H                    -1.47745   2.09962   2.72353 
 H                    -2.00188   4.42433   2.48628 
 H                    -3.60036   3.97551   1.80484 
 H                    -2.49289   5.0165    0.88507 
 
 NAtoms=     39 NQM=       39 NQMF=       0 NMMI=      0 NMMIF=      0
                NMic=       0 NMicF=      0.
                    Isotopes and Nuclear Properties:
 (Nuclear quadrupole moments (NQMom) in fm**2, nuclear magnetic moments (NMagM)
  in nuclear magnetons)

  Atom         1           2           3           4           5           6           7           8           9          10
 IAtWgt=          12          16          12          14          12          16          14          12          16          12
 AtmWgt=  12.0000000  15.9949146  12.0000000  14.0030740  12.0000000  15.9949146  14.0030740  12.0000000  15.9949146  12.0000000
 NucSpn=           0           0           0           2           0           0           2           0           0           0
 AtZEff=   0.0000000   0.0000000   0.0000000   0.0000000   0.0000000   0.0000000   0.0000000   0.0000000   0.0000000   0.0000000
 NQMom=    0.0000000   0.0000000   0.0000000   2.0440000   0.0000000   0.0000000   2.0440000   0.0000000   0.0000000   0.0000000
 NMagM=    0.0000000   0.0000000   0.0000000   0.4037610   0.0000000   0.0000000   0.4037610   0.0000000   0.0000000   0.0000000
 AtZNuc=   6.0000000   8.0000000   6.0000000   7.0000000   6.0000000   8.0000000   7.0000000   6.0000000   8.0000000   6.0000000

  Atom        11          12          13          14          15          16          17          18          19          20
 IAtWgt=          12          16          14          12          19          19          12          19          16          12
 AtmWgt=  12.0000000  15.9949146  14.0030740  12.0000000  18.9984033  18.9984033  12.0000000  18.9984033  15.9949146  12.0000000
 NucSpn=           0           0           2           0           1           1           0           1           0           0
 AtZEff=   0.0000000   0.0000000   0.0000000   0.0000000   0.0000000   0.0000000   0.0000000   0.0000000   0.0000000   0.0000000
 NQMom=    0.0000000   0.0000000   2.0440000   0.0000000   0.0000000   0.0000000   0.0000000   0.0000000   0.0000000   0.0000000
 NMagM=    0.0000000   0.0000000   0.4037610   0.0000000   2.6288670   2.6288670   0.0000000   2.6288670   0.0000000   0.0000000
 AtZNuc=   6.0000000   8.0000000   7.0000000   6.0000000   9.0000000   9.0000000   6.0000000   9.0000000   8.0000000   6.0000000

  Atom        21          22          23          24          25          26          27          28          29          30
 IAtWgt=          19          19          19          12          19          19          19          12          16           1
 AtmWgt=  18.9984033  18.9984033  18.9984033  12.0000000  18.9984033  18.9984033  18.9984033  12.0000000  15.9949146   1.0078250
 NucSpn=           1           1           1           0           1           1           1           0           0           1
 AtZEff=   0.0000000   0.0000000   0.0000000   0.0000000   0.0000000   0.0000000   0.0000000   0.0000000   0.0000000   0.0000000
 NQMom=    0.0000000   0.0000000   0.0000000   0.0000000   0.0000000   0.0000000   0.0000000   0.0000000   0.0000000   0.0000000
 NMagM=    2.6288670   2.6288670   2.6288670   0.0000000   2.6288670   2.6288670   2.6288670   0.0000000   0.0000000   2.7928460
 AtZNuc=   9.0000000   9.0000000   9.0000000   6.0000000   9.0000000   9.0000000   9.0000000   6.0000000   8.0000000   1.0000000

  Atom        31          32          33          34          35          36          37          38          39
 IAtWgt=           1           1           1           1           1           1           1           1           1
 AtmWgt=   1.0078250   1.0078250   1.0078250   1.0078250   1.0078250   1.0078250   1.0078250   1.0078250   1.0078250
 NucSpn=           1           1           1           1           1           1           1           1           1
 AtZEff=   0.0000000   0.0000000   0.0000000   0.0000000   0.0000000   0.0000000   0.0000000   0.0000000   0.0000000
 NQMom=    0.0000000   0.0000000   0.0000000   0.0000000   0.0000000   0.0000000   0.0000000   0.0000000   0.0000000
 NMagM=    2.7928460   2.7928460   2.7928460   2.7928460   2.7928460   2.7928460   2.7928460   2.7928460   2.7928460
 AtZNuc=   1.0000000   1.0000000   1.0000000   1.0000000   1.0000000   1.0000000   1.0000000   1.0000000   1.0000000
 Leave Link  101 at Sun Mar  3 17:42:01 2024, MaxMem=  5368709120 cpu:         0.9
 (Enter /home/k0335/k033513/app/g09/l202.exe)
                          Input orientation:                          
 ---------------------------------------------------------------------
 Center     Atomic      Atomic             Coordinates (Angstroms)
 Number     Number       Type             X           Y           Z
 ---------------------------------------------------------------------
      1          6           0       -3.302149   -3.805725   -1.548862
      2          8           0       -2.549161   -2.918412   -0.734000
      3          6           0       -2.235098   -1.714100   -1.430360
      4          7           0       -1.470337   -0.883039   -0.528069
      5          6           0       -2.148845    0.035207    0.241641
      6          8           0       -3.372528    0.167186    0.181700
      7          7           0       -1.366940    0.808055    1.072006
      8          6           0       -2.004554    1.891512    1.785447
      9          8           0       -1.961923    3.040045    0.941121
     10          6           0       -2.548460    4.168883    1.573332
     11          6           0       -0.007917    0.644421    1.218332
     12          8           0        0.656149    1.370961    1.957346
     13          7           0        0.566768   -0.373616    0.494299
     14          6           0        2.008496   -0.535560    0.589818
     15          9           0        2.341356   -0.488534    1.922330
     16          9           0        2.358096   -1.804912    0.244828
     17          6           0        2.895587    0.502974   -0.157536
     18          9           0        2.291889    1.739236   -0.062132
     19          8           0        4.169430    0.742711    0.466638
     20          6           0        5.107404   -0.287783    0.302686
     21          9           0        4.587445   -1.468094    0.658477
     22          9           0        6.170964   -0.029753    1.085186
     23          9           0        5.515616   -0.334899   -0.974112
     24          6           0        2.944991    0.173449   -1.648680
     25          9           0        3.378398   -1.076720   -1.901360
     26          9           0        3.784105    1.022366   -2.296200
     27          9           0        1.735026    0.326818   -2.233705
     28          6           0       -0.105742   -1.044171   -0.494819
     29          8           0        0.488973   -1.724714   -1.330204
     30          1           0       -4.251391   -3.346249   -1.840921
     31          1           0       -2.730421   -4.088632   -2.438002
     32          1           0       -3.515183   -4.708118   -0.969589
     33          1           0       -3.159180   -1.211327   -1.737070
     34          1           0       -1.652353   -1.948271   -2.328393
     35          1           0       -3.045934    1.642839    2.019110
     36          1           0       -1.477445    2.099618    2.723533
     37          1           0       -2.001882    4.424332    2.486279
     38          1           0       -3.600359    3.975512    1.804836
     39          1           0       -2.492890    5.016502    0.885070
 ---------------------------------------------------------------------
                    Distance matrix (angstroms):
                    1          2          3          4          5
     1  C    0.000000
     2  O    1.420674   0.000000
     3  C    2.351071   1.426156   0.000000
     4  N    3.597172   2.312793   1.445562   0.000000
     5  C    4.391898   3.136239   2.421384   1.376954   0.000000
     6  O    4.334030   3.322251   2.726118   2.285842   1.232238
     7  N    5.648092   4.306491   3.657431   2.330393   1.377743
     8  C    6.727546   5.457067   4.836838   3.651832   2.418683
     9  O    7.406807   6.217241   5.319816   4.217910   3.090835
    10  C    8.597122   7.453424   6.612855   5.576751   4.361235
    11  C    6.189760   4.792004   4.187902   2.742576   2.430769
    12  O    7.399979   5.993002   5.417884   3.972373   3.549067
    13  N    5.560791   4.206390   3.653993   2.335497   2.757812
    14  C    6.593245   5.310623   4.845427   3.670517   4.210758
    15  F    7.409594   6.072689   5.804005   4.548526   4.822958
    16  F    6.265696   5.126320   4.889983   4.012994   4.868117
    17  C    7.675455   6.456274   5.732314   4.595609   5.081776
    18  F    8.015623   6.751360   5.855868   4.609530   4.766142
    19  O    8.976358   7.744987   7.117057   5.953106   6.361744
    20  C    9.301867   8.161980   7.677901   6.656663   7.263690
    21  F    8.519540   7.414416   7.139387   6.200557   6.914569
    22  F   10.532618   9.364527   8.934589   7.856219   8.362715
    23  F    9.493679   8.471884   7.885678   7.021606   7.769105
    24  C    7.407466   6.370396   5.517592   4.676223   5.435034
    25  F    7.225056   6.315894   5.669165   5.043181   6.031521
    26  F    8.607205   7.621054   6.668488   5.862254   6.528018
    27  F    6.551340   5.579865   4.535702   3.827179   4.614849
    28  C    4.353643   3.088735   2.420372   1.374478   2.425222
    29  O    4.330245   3.318227   2.725932   2.278318   3.539223
    30  H    1.094293   2.075068   2.626387   3.940209   4.493552
    31  H    1.094294   2.075065   2.626612   3.938462   4.952249
    32  H    1.093277   2.047376   3.288628   4.359767   5.082626
    33  H    2.605142   2.071814   1.095801   2.102771   2.547532
    34  H    2.603772   2.070634   1.095852   2.099766   3.284169
    35  H    6.517892   5.350833   4.881121   3.917995   2.559032
    36  H    7.513719   6.187385   5.689755   4.412393   3.297326
    37  H    9.257802   8.036517   7.285245   6.126746   4.931979
    38  H    8.478436   7.421381   6.685964   5.795253   4.480678
    39  H    9.187525   8.098606   7.122407   6.152005   5.034448
                    6          7          8          9         10
     6  O    0.000000
     7  N    2.285988   0.000000
     8  C    2.723354   1.445486   0.000000
     9  O    3.289353   2.313637   1.426125   0.000000
    10  C    4.316168   3.597566   2.351009   1.420560   0.000000
    11  C    3.552881   1.376638   2.421449   3.103869   4.359153
    12  O    4.564234   2.278943   2.716590   3.266934   4.271458
    13  N    3.988513   2.338657   3.661907   4.271652   5.612776
    14  C    5.442043   3.664884   4.839915   5.354679   6.623061
    15  F    6.009013   4.019410   4.956843   5.650827   6.761925
    16  F    6.060793   4.624685   5.921974   6.528476   7.843815
    17  C    6.286263   4.446795   5.451110   5.589202   6.787668
    18  F    5.883572   3.942131   4.679333   4.559993   5.657465
    19  O    7.569250   5.569752   6.416937   6.564782   7.621907
    20  C    8.492990   6.611342   7.584712   7.839478   8.949227
    21  F    8.140186   6.388001   7.484081   7.955968   9.139672
    22  F    9.588186   7.584332   8.427379   8.694151   9.689953
    23  F    8.977031   7.270662   8.314146   8.424485   9.581380
    24  C    6.577338   5.137860   6.264421   6.245178   7.518169
    25  F    7.173663   5.908597   7.167923   7.317546   8.643927
    26  F    7.621595   6.158247   7.136093   6.896964   8.060721
    27  F    5.652148   4.558674   5.708442   5.577504   6.899511
    28  C    3.549219   2.734283   4.174127   4.710430   6.117193
    29  O    4.558106   3.953472   5.385355   5.819685   7.238163
    30  H    4.148207   5.836390   6.755217   7.332542   8.428185
    31  H    5.038564   6.177117   7.357073   7.926355   9.182073
    32  H    5.011428   6.261887   7.309401   8.130034   9.284511
    33  H    2.372234   3.896272   4.834139   5.165297   6.346527
    34  H    3.706039   4.386514   5.638409   5.972341   7.310680
    35  H    2.379137   2.100688   1.095860   2.071069   2.612871
    36  H    3.713024   2.099497   1.095973   2.072707   2.598441
    37  H    5.031207   3.934562   2.627993   2.074936   1.094292
    38  H    4.146061   3.944361   2.624886   2.074988   1.094293
    39  H    4.978389   4.360474   3.288573   2.047303   1.093275
                   11         12         13         14         15
    11  C    0.000000
    12  O    1.230848   0.000000
    13  N    1.375095   2.278606   0.000000
    14  C    2.419361   2.708099   1.453936   0.000000
    15  F    2.701534   2.509755   2.280711   1.374262   0.000000
    16  F    3.541886   3.989425   2.306447   1.361063   2.132403
    17  C    3.216109   3.200189   2.572294   1.556927   2.369832
    18  F    2.850845   2.624798   2.783847   2.383285   2.983873
    19  O    4.245578   3.867823   3.771754   2.513720   2.641374
    20  C    5.279576   5.030209   4.545488   3.122030   3.211630
    21  F    5.088567   5.020197   4.170213   2.743230   2.757132
    22  F    6.216977   5.756374   5.645742   4.222247   3.946795
    23  F    6.022898   5.926029   5.162250   3.845261   4.299873
    24  C    4.142612   4.435793   3.247704   2.527962   3.681672
    25  F    4.915479   5.318965   3.760160   2.894038   4.005250
    26  F    5.184034   5.291340   4.481842   3.729480   4.707477
    27  F    3.880114   4.451867   3.049170   2.964922   4.278442
    28  C    2.407447   3.525118   1.371229   2.430046   3.484197
    29  O    3.514930   4.518754   2.271636   2.722044   3.941883
    30  H    6.579631   7.795053   6.124088   7.279742   8.111283
    31  H    6.571347   7.784285   5.768118   6.652018   7.595796
    32  H    6.762957   7.932349   6.131329   7.095986   7.776062
    33  H    4.701985   5.905392   4.423060   5.707534   6.646016
    34  H    4.691000   5.891862   3.920667   4.890146   6.012420
    35  H    3.296609   3.712567   4.409394   5.686437   5.794395
    36  H    2.557878   2.381220   3.907068   4.862992   4.682275
    37  H    4.457725   4.082643   5.795365   6.654339   6.581642
    38  H    4.934146   4.992475   6.164201   7.299678   7.432731
    39  H    5.039965   4.935199   6.210280   7.153673   7.399410
                   16         17         18         19         20
    16  F    0.000000
    17  C    2.403566   0.000000
    18  F    3.558032   1.379093   0.000000
    19  O    3.133770   1.438660   2.190393   0.000000
    20  C    3.140656   2.393582   3.488413   1.403066   0.000000
    21  F    2.292280   2.722750   4.009466   2.258140   1.337938
    22  F    4.288980   3.543480   4.415075   2.232810   1.345379
    23  F    3.690079   2.869387   3.940325   2.247047   1.341294
    24  C    2.800666   1.527919   2.322793   2.509558   2.948999
    25  F    2.485438   2.401970   3.534525   3.089252   2.910275
    26  F    4.060028   2.373419   2.780588   2.803561   3.197158
    27  F    3.328005   2.385039   2.649670   3.659391   4.264264
    28  C    2.682592   3.393434   3.699082   4.732277   5.327760
    29  O    2.445563   3.482748   4.105784   4.781484   5.104998
    30  H    7.100098   8.290332   8.475893   9.641299  10.076523
    31  H    6.189181   7.611527   8.051857   8.909924   9.131776
    32  H    6.663244   8.301378   8.724330   9.530350   9.772771
    33  H    5.892419   6.487986   6.420700   7.898298   8.564458
    34  H    4.767150   5.604015   5.855825   6.996195   7.441378
    35  H    6.651211   6.429522   5.730027   7.435178   8.552797
    36  H    6.008386   5.474782   4.700817   6.230728   7.410831
    37  H    7.926979   6.808231   5.669269   7.464474   8.804207
    38  H    8.446900   7.622778   6.573058   8.521232   9.811079
    39  H    8.394859   7.105959   5.876374   7.926341   9.286500
                   21         22         23         24         25
    21  F    0.000000
    22  F    2.181384   0.000000
    23  F    2.193394   2.182499   0.000000
    24  C    3.273422   4.233464   2.705840   0.000000
    25  F    2.857925   4.220666   2.444952   1.347075   0.000000
    26  F    3.946880   4.270576   2.566752   1.357960   2.174088
    27  F    4.441027   5.551552   4.039468   1.352698   2.186560
    28  C    4.851372   6.551526   5.686163   3.481518   3.757479
    29  O    4.562694   6.402501   5.227382   3.120332   3.015774
    30  H    9.375472  11.321958  10.257388   8.013310   7.960408
    31  H    8.366993  10.398173   9.177724   7.141335   6.832076
    32  H    8.876989  10.951285  10.033962   8.125559   7.847083
    33  H    8.112630   9.819004   8.752275   6.259898   6.541027
    34  H    6.934482   8.748573   7.471066   5.108745   5.123516
    35  H    8.354502   9.413872   9.282832   7.176557   8.002383
    36  H    7.333206   8.106575   8.276615   6.510324   7.420106
    37  H    9.026670   9.412616   9.546589   7.722658   8.857785
    38  H    9.898844  10.584838  10.459598   8.320100   9.378912
    39  H    9.603774  10.028315   9.809700   7.710097   8.908623
                   26         27         28         29         30
    26  F    0.000000
    27  F    2.164813   0.000000
    28  C    4.758830   2.879542   0.000000
    29  O    4.397441   2.564712   1.230729   0.000000
    30  H    9.157580   7.034408   4.929296   5.035996   0.000000
    31  H    8.281392   6.283164   4.464711   4.144855   1.794711
    32  H    9.374324   7.383310   5.027345   5.006397   1.776488
    33  H    7.315136   5.154201   3.300699   3.706498   2.400334
    34  H    6.195224   4.081585   2.563473   2.373107   2.991149
    35  H    8.102859   6.532681   4.710052   5.920632   6.422146
    36  H    7.351333   6.167414   4.703485   5.909746   7.628007
    37  H    8.241549   7.282331   6.510516   7.653801   9.174251
    38  H    8.948177   7.621622   6.534369   7.683989   8.205094
    39  H    8.091617   7.042384   6.658403   7.696943   8.969892
                   31         32         33         34         35
    31  H    0.000000
    32  H    1.776472   0.000000
    33  H    2.992328   3.597682   0.000000
    34  H    2.399039   3.596281   1.778560   0.000000
    35  H    7.267404   7.034712   4.718896   5.808521   0.000000
    36  H    8.155111   8.008545   5.804099   6.475952   1.779049
    37  H    9.861535   9.881030   7.136993   7.994580   3.007490
    38  H    9.153627   9.116475   6.296272   7.481278   2.407211
    39  H    9.695499   9.952541   6.790097   7.716276   3.601875
                   36         37         38         39
    36  H    0.000000
    37  H    2.394915   0.000000
    38  H    2.978212   1.794696   0.000000
    39  H    3.594341   1.776408   1.776546   0.000000
 Symmetry turned off by external request.
 Stoichiometry    C11H10F9N3O6
 Framework group  C1[X(C11H10F9N3O6)]
 Deg. of freedom   111
 Full point group                 C1      NOp   1
 Rotational constants (GHZ):      0.2597968      0.1202539      0.0984285
 Leave Link  202 at Sun Mar  3 17:42:02 2024, MaxMem=  5368709120 cpu:         0.0
 (Enter /home/k0335/k033513/app/g09/l301.exe)
 Standard basis: 6-31G(d,p) (6D, 7F)
 Ernie: Thresh=  0.10000D-02 Tol=  0.10000D-05 Strict=F.
   485 basis functions,   882 primitive gaussians,   485 cartesian basis functions
   113 alpha electrons      113 beta electrons
       nuclear repulsion energy      3539.9790864510 Hartrees.
 IExCor=20419 DFT=T Ex+Corr=CAM-B3LYP ExCW=0 ScaHFX=  1.000000
 ScaDFX=  1.000000  1.000000  1.000000  0.810000 ScalE2=  1.000000  1.000000
 IRadAn=      0 IRanWt=     -1 IRanGd=            0 ICorTp=0 IEmpDi=  4
  HFx wShort=  0.000000 wLong=  0.330000 cFull=  0.190000 cShort=  0.000000 cLong=  0.460000
  DFx wShort=  0.000000 wLong=  0.330000 cFull=  0.190000 cShort=  0.000000 cLong=  0.460000
 NAtoms=   39 NActive=   39 NUniq=   39 SFac= 1.00D+00 NAtFMM=   60 NAOKFM=F Big=F
 Integral buffers will be    131072 words long.
 Raffenetti 2 integral format.
 Two-electron integral symmetry is turned off.
 Using the following non-standard input for PCM:
 eps=4.9
 --- end of non-standard input.
 ------------------------------------------------------------------------------
 Polarizable Continuum Model (PCM)
 =================================
 Model                : PCM (using non-symmetric T matrix).
 Atomic radii         : UFF (Universal Force Field).
 Polarization charges : Total charges.
 Charge compensation  : None.
 Solution method      : On-the-fly selection.
 Cavity type          : Scaled VdW (van der Waals Surface) (Alpha=1.100).
 Cavity algorithm     : GePol (No added spheres)
                        Default sphere list used, NSphG=   39.
                        Lebedev-Laikov grids with approx.  5.0 points / Ang**2.
                        Smoothing algorithm: Karplus/York (Gamma=1.0000).
                        Polarization charges: spherical gaussians, with
                                              point-specific exponents (IZeta= 3).
                        Self-potential: point-specific (ISelfS= 7).
                        Self-field    : sphere-specific E.n sum rule (ISelfD= 2).
 Solvent              : Generic,
                        Eps                           =   4.900000
                        Eps(infinity)                 =   0.000000
                        RSolv                         =   0.000000 Ang.
                        Molar volume                  =   0.000000 cm**3/mol
                        Thermal expansion coefficient =   0.000000 K**-1
                        Absolute temperature          = 298.150000 K
                        Numeral density               =   0.000000 Ang**-3
                        Hydrogen bond acidity         =   0.000000
                        Hydrogen bond basicity        =   0.000000
                        Surface tension at interface  =   0.000000 (cal/mol)*Ang**-2
                        Carbon aromaticity            =   0.000000
                        Electronegative halogenicity  =   0.000000
 ------------------------------------------------------------------------------
 GePol: Number of generator spheres                  =      39
 GePol: Total number of spheres                      =      39
 GePol: Number of exposed spheres                    =      39 (100.00%)
 GePol: Number of points                             =    3054
 GePol: Average weight of points                     =       0.13
 GePol: Minimum weight of points                     =   0.21D-09
 GePol: Maximum weight of points                     =    0.20577
 GePol: Number of points with low weight             =     138
 GePol: Fraction of low-weight points (<1% of avg)   =       4.52%
 GePol: Cavity surface area                          =    392.404 Ang**2
 GePol: Cavity volume                                =    437.678 Ang**3
 Leave Link  301 at Sun Mar  3 17:42:02 2024, MaxMem=  5368709120 cpu:         0.9
 (Enter /home/k0335/k033513/app/g09/l302.exe)
 NPDir=0 NMtPBC=     1 NCelOv=     1 NCel=       1 NClECP=     1 NCelD=      1
         NCelK=      1 NCelE2=     1 NClLst=     1 CellRange=     0.0.
 One-electron integrals computed using PRISM.
 NBasis=   485 RedAO= T EigKep=  1.08D-03  NBF=   485
 NBsUse=   485 1.00D-06 EigRej= -1.00D+00 NBFU=   485
 Precomputing XC quadrature grid using
 IXCGrd= 4 IRadAn=           0 IRanWt=          -1 IRanGd=           0 AccXCQ= 0.00D+00.
 Generated NRdTot=       0 NPtTot=           0 NUsed=           0 NTot=          32
 NSgBfM=   477   477   478   478   478 MxSgAt=    39 MxSgA2=    39.
 Leave Link  302 at Sun Mar  3 17:42:02 2024, MaxMem=  5368709120 cpu:         8.2
 (Enter /home/k0335/k033513/app/g09/l303.exe)
 DipDrv:  MaxL=1.
 Leave Link  303 at Sun Mar  3 17:42:02 2024, MaxMem=  5368709120 cpu:         0.8
 (Enter /home/k0335/k033513/app/g09/l401.exe)
 ExpMin= 1.61D-01 ExpMax= 7.00D+03 ExpMxC= 1.05D+03 IAcc=1 IRadAn=         1 AccDes= 0.00D+00
 Harris functional with IExCor=20419 and IRadAn=       1 diagonalized for initial guess.
 HarFok:  IExCor=20419 AccDes= 0.00D+00 IRadAn=         1 IDoV= 1 UseB2=F ITyADJ=14
 ICtDFT=  3500011 ScaDFX=  1.000000  1.000000  1.000000  1.000000
 FoFCou: FMM=F IPFlag=           0 FMFlag=      100000 FMFlg1=           0
         NFxFlg=           0 DoJE=T BraDBF=F KetDBF=T FulRan=T
         wScrn=  0.000000 ICntrl=     500 IOpCl=  0 I1Cent=   200000004 NGrid=           0
         NMat0=    1 NMatS0=      1 NMatT0=    0 NMatD0=    1 NMtDS0=    0 NMtDT0=    0
 Symmetry not used in FoFCou.
 Harris En= -1877.97963518819    
 JPrj=0 DoOrth=F DoCkMO=F.
 Leave Link  401 at Sun Mar  3 17:42:03 2024, MaxMem=  5368709120 cpu:         9.5
 (Enter /home/k0335/k033513/app/g09/l502.exe)
 Closed shell SCF:
 Using DIIS extrapolation, IDIIS=  1040.
 Two-electron integral symmetry not used.
 IVT=      738853 IEndB=      738853 NGot=  5368709120 MDV=  5368222618
 LenX=  5368222618 LenY=  5367986908
 Requested convergence on RMS density matrix=1.00D-08 within 128 cycles.
 Requested convergence on MAX density matrix=1.00D-06.
 Requested convergence on             energy=1.00D-06.
 No special actions if energy rises.
 Fock matrices will be formed incrementally for  20 cycles.

 Cycle   1  Pass 1  IDiag  1:
 FoFJK:  IHMeth= 1 ICntrl=       0 DoSepK=T KAlg= 0 I1Cent=   0 FoldK=F
 IRaf=         1 NMat=   1 IRICut=       1 DoRegI=T DoRafI=F ISym2E= 0.
 FoFCou: FMM=F IPFlag=           0 FMFlag=      100000 FMFlg1=           0
         NFxFlg=           0 DoJE=T BraDBF=F KetDBF=F FulRan=T
         wScrn=  0.000000 ICntrl=     500 IOpCl=  0 I1Cent=           0 NGrid=           0
         NMat0=    1 NMatS0=      1 NMatT0=    0 NMatD0=    1 NMtDS0=    0 NMtDT0=    0
 Symmetry not used in FoFCou.
 Inv3:  Mode=1 IEnd=    27980748.
 Iteration    1 A*A^-1 deviation from unit magnitude is 5.33D-15 for   3051.
 Iteration    1 A*A^-1 deviation from orthogonality  is 2.56D-15 for   2794    245.
 Iteration    1 A^-1*A deviation from unit magnitude is 5.00D-15 for   3046.
 Iteration    1 A^-1*A deviation from orthogonality  is 1.42D-13 for   2564   2553.
 E= -1938.14993060488    
 DIIS: error= 4.84D-02 at cycle   1 NSaved=   1.
 NSaved= 1 IEnMin= 1 EnMin= -1938.14993060488     IErMin= 1 ErrMin= 4.84D-02
 ErrMax= 4.84D-02  0.00D+00 EMaxC= 1.00D-01 BMatC= 1.56D+00 BMatP= 1.56D+00
 IDIUse=3 WtCom= 5.16D-01 WtEn= 4.84D-01
 Coeff-Com:  0.100D+01
 Coeff-En:   0.100D+01
 Coeff:      0.100D+01
 Gap=     0.455 Goal=   None    Shift=    0.000
 GapD=    0.455 DampG=2.000 DampE=0.500 DampFc=1.0000 IDamp=-1.
 RMSDP=3.22D-03 MaxDP=1.30D-01              OVMax= 2.03D-01

 Cycle   2  Pass 1  IDiag  1:
 RMSU=  3.22D-03    CP:  1.01D+00
 E= -1938.30284646606     Delta-E=       -0.152915861184 Rises=F Damp=F
 DIIS: error= 1.92D-02 at cycle   2 NSaved=   2.
 NSaved= 2 IEnMin= 2 EnMin= -1938.30284646606     IErMin= 2 ErrMin= 1.92D-02
 ErrMax= 1.92D-02  0.00D+00 EMaxC= 1.00D-01 BMatC= 6.69D-01 BMatP= 1.56D+00
 IDIUse=3 WtCom= 8.08D-01 WtEn= 1.92D-01
 Coeff-Com:  0.373D+00 0.627D+00
 Coeff-En:   0.411D+00 0.589D+00
 Coeff:      0.380D+00 0.620D+00
 Gap=     0.392 Goal=   None    Shift=    0.000
 RMSDP=1.86D-03 MaxDP=1.21D-01 DE=-1.53D-01 OVMax= 1.38D-01

 Cycle   3  Pass 1  IDiag  1:
 RMSU=  1.16D-03    CP:  1.00D+00  5.48D-01
 E= -1938.61813194265     Delta-E=       -0.315285476587 Rises=F Damp=F
 DIIS: error= 1.27D-02 at cycle   3 NSaved=   3.
 NSaved= 3 IEnMin= 3 EnMin= -1938.61813194265     IErMin= 3 ErrMin= 1.27D-02
 ErrMax= 1.27D-02  0.00D+00 EMaxC= 1.00D-01 BMatC= 1.91D-01 BMatP= 6.69D-01
 IDIUse=3 WtCom= 8.73D-01 WtEn= 1.27D-01
 Coeff-Com:  0.107D+00 0.356D+00 0.537D+00
 Coeff-En:   0.000D+00 0.233D+00 0.767D+00
 Coeff:      0.937D-01 0.340D+00 0.566D+00
 Gap=     0.351 Goal=   None    Shift=    0.000
 RMSDP=8.54D-04 MaxDP=5.73D-02 DE=-3.15D-01 OVMax= 8.05D-02

 Cycle   4  Pass 1  IDiag  1:
 RMSU=  3.43D-04    CP:  1.00D+00  6.77D-01  4.27D-01
 E= -1938.74444811960     Delta-E=       -0.126316176946 Rises=F Damp=F
 DIIS: error= 3.85D-03 at cycle   4 NSaved=   4.
 NSaved= 4 IEnMin= 4 EnMin= -1938.74444811960     IErMin= 4 ErrMin= 3.85D-03
 ErrMax= 3.85D-03  0.00D+00 EMaxC= 1.00D-01 BMatC= 1.62D-02 BMatP= 1.91D-01
 IDIUse=3 WtCom= 9.61D-01 WtEn= 3.85D-02
 Coeff-Com:  0.652D-02 0.969D-01 0.283D+00 0.613D+00
 Coeff-En:   0.000D+00 0.000D+00 0.219D-01 0.978D+00
 Coeff:      0.627D-02 0.932D-01 0.273D+00 0.627D+00
 Gap=     0.351 Goal=   None    Shift=    0.000
 RMSDP=2.40D-04 MaxDP=1.67D-02 DE=-1.26D-01 OVMax= 1.98D-02

 Cycle   5  Pass 1  IDiag  1:
 RMSU=  1.10D-04    CP:  1.00D+00  6.67D-01  5.85D-01  6.91D-01
 E= -1938.75479172567     Delta-E=       -0.010343606078 Rises=F Damp=F
 DIIS: error= 6.73D-04 at cycle   5 NSaved=   5.
 NSaved= 5 IEnMin= 5 EnMin= -1938.75479172567     IErMin= 5 ErrMin= 6.73D-04
 ErrMax= 6.73D-04  0.00D+00 EMaxC= 1.00D-01 BMatC= 1.15D-03 BMatP= 1.62D-02
 IDIUse=3 WtCom= 9.93D-01 WtEn= 6.73D-03
 Coeff-Com: -0.174D-02 0.299D-01 0.114D+00 0.340D+00 0.518D+00
 Coeff-En:   0.000D+00 0.000D+00 0.000D+00 0.000D+00 0.100D+01
 Coeff:     -0.173D-02 0.297D-01 0.113D+00 0.338D+00 0.522D+00
 Gap=     0.343 Goal=   None    Shift=    0.000
 RMSDP=5.52D-05 MaxDP=2.96D-03 DE=-1.03D-02 OVMax= 4.01D-03

 Cycle   6  Pass 1  IDiag  1:
 RMSU=  2.79D-05    CP:  1.00D+00  6.72D-01  5.73D-01  7.26D-01  6.26D-01
 E= -1938.75559928225     Delta-E=       -0.000807556580 Rises=F Damp=F
 DIIS: error= 1.18D-04 at cycle   6 NSaved=   6.
 NSaved= 6 IEnMin= 6 EnMin= -1938.75559928225     IErMin= 6 ErrMin= 1.18D-04
 ErrMax= 1.18D-04  0.00D+00 EMaxC= 1.00D-01 BMatC= 1.61D-05 BMatP= 1.15D-03
 IDIUse=3 WtCom= 9.99D-01 WtEn= 1.18D-03
 Coeff-Com: -0.645D-03-0.308D-02-0.345D-02 0.100D-01 0.108D+00 0.889D+00
 Coeff-En:   0.000D+00 0.000D+00 0.000D+00 0.000D+00 0.000D+00 0.100D+01
 Coeff:     -0.644D-03-0.308D-02-0.344D-02 0.100D-01 0.108D+00 0.889D+00
 Gap=     0.344 Goal=   None    Shift=    0.000
 RMSDP=1.21D-05 MaxDP=7.01D-04 DE=-8.08D-04 OVMax= 6.15D-04

 Cycle   7  Pass 1  IDiag  1:
 RMSU=  7.52D-06    CP:  1.00D+00  6.72D-01  5.76D-01  7.39D-01  6.95D-01
                    CP:  1.01D+00
 E= -1938.75561415128     Delta-E=       -0.000014869030 Rises=F Damp=F
 DIIS: error= 6.83D-05 at cycle   7 NSaved=   7.
 NSaved= 7 IEnMin= 7 EnMin= -1938.75561415128     IErMin= 7 ErrMin= 6.83D-05
 ErrMax= 6.83D-05  0.00D+00 EMaxC= 1.00D-01 BMatC= 2.51D-06 BMatP= 1.61D-05
 IDIUse=1 WtCom= 1.00D+00 WtEn= 0.00D+00
 Coeff-Com: -0.139D-03-0.292D-02-0.718D-02-0.133D-01 0.191D-01 0.370D+00
 Coeff-Com:  0.634D+00
 Coeff:     -0.139D-03-0.292D-02-0.718D-02-0.133D-01 0.191D-01 0.370D+00
 Coeff:      0.634D+00
 Gap=     0.344 Goal=   None    Shift=    0.000
 RMSDP=3.31D-06 MaxDP=2.41D-04 DE=-1.49D-05 OVMax= 2.78D-04

 Cycle   8  Pass 1  IDiag  1:
 RMSU=  2.34D-06    CP:  1.00D+00  6.72D-01  5.76D-01  7.39D-01  7.01D-01
                    CP:  1.07D+00  8.29D-01
 E= -1938.75561622482     Delta-E=       -0.000002073538 Rises=F Damp=F
 DIIS: error= 1.66D-05 at cycle   8 NSaved=   8.
 NSaved= 8 IEnMin= 8 EnMin= -1938.75561622482     IErMin= 8 ErrMin= 1.66D-05
 ErrMax= 1.66D-05  0.00D+00 EMaxC= 1.00D-01 BMatC= 2.33D-07 BMatP= 2.51D-06
 IDIUse=1 WtCom= 1.00D+00 WtEn= 0.00D+00
 Coeff-Com:  0.169D-04-0.815D-03-0.234D-02-0.688D-02-0.646D-02 0.295D-01
 Coeff-Com:  0.230D+00 0.757D+00
 Coeff:      0.169D-04-0.815D-03-0.234D-02-0.688D-02-0.646D-02 0.295D-01
 Coeff:      0.230D+00 0.757D+00
 Gap=     0.344 Goal=   None    Shift=    0.000
 RMSDP=1.32D-06 MaxDP=9.78D-05 DE=-2.07D-06 OVMax= 1.03D-04

 Cycle   9  Pass 1  IDiag  1:
 RMSU=  8.49D-07    CP:  1.00D+00  6.72D-01  5.77D-01  7.39D-01  7.04D-01
                    CP:  1.09D+00  9.09D-01  1.01D+00
 E= -1938.75561644088     Delta-E=       -0.000000216060 Rises=F Damp=F
 DIIS: error= 3.92D-06 at cycle   9 NSaved=   9.
 NSaved= 9 IEnMin= 9 EnMin= -1938.75561644088     IErMin= 9 ErrMin= 3.92D-06
 ErrMax= 3.92D-06  0.00D+00 EMaxC= 1.00D-01 BMatC= 3.06D-08 BMatP= 2.33D-07
 IDIUse=1 WtCom= 1.00D+00 WtEn= 0.00D+00
 Coeff-Com:  0.187D-04 0.562D-04 0.818D-04-0.101D-02-0.538D-02-0.430D-01
 Coeff-Com:  0.604D-02 0.300D+00 0.743D+00
 Coeff:      0.187D-04 0.562D-04 0.818D-04-0.101D-02-0.538D-02-0.430D-01
 Coeff:      0.604D-02 0.300D+00 0.743D+00
 Gap=     0.344 Goal=   None    Shift=    0.000
 RMSDP=5.37D-07 MaxDP=3.76D-05 DE=-2.16D-07 OVMax= 5.08D-05

 Cycle  10  Pass 1  IDiag  1:
 RMSU=  3.00D-07    CP:  1.00D+00  6.72D-01  5.77D-01  7.39D-01  7.05D-01
                    CP:  1.09D+00  9.41D-01  1.11D+00  9.27D-01
 E= -1938.75561647232     Delta-E=       -0.000000031433 Rises=F Damp=F
 DIIS: error= 1.03D-06 at cycle  10 NSaved=  10.
 NSaved=10 IEnMin=10 EnMin= -1938.75561647232     IErMin=10 ErrMin= 1.03D-06
 ErrMax= 1.03D-06  0.00D+00 EMaxC= 1.00D-01 BMatC= 2.54D-09 BMatP= 3.06D-08
 IDIUse=1 WtCom= 1.00D+00 WtEn= 0.00D+00
 Coeff-Com:  0.541D-05 0.998D-04 0.278D-03 0.310D-03-0.975D-03-0.168D-01
 Coeff-Com: -0.175D-01 0.342D-01 0.265D+00 0.735D+00
 Coeff:      0.541D-05 0.998D-04 0.278D-03 0.310D-03-0.975D-03-0.168D-01
 Coeff:     -0.175D-01 0.342D-01 0.265D+00 0.735D+00
 Gap=     0.344 Goal=   None    Shift=    0.000
 RMSDP=1.44D-07 MaxDP=8.07D-06 DE=-3.14D-08 OVMax= 1.40D-05

 Cycle  11  Pass 1  IDiag  1:
 RMSU=  9.30D-08    CP:  1.00D+00  6.71D-01  5.77D-01  7.39D-01  7.06D-01
                    CP:  1.09D+00  9.47D-01  1.13D+00  1.01D+00  9.36D-01
 E= -1938.75561647472     Delta-E=       -0.000000002400 Rises=F Damp=F
 DIIS: error= 3.34D-07 at cycle  11 NSaved=  11.
 NSaved=11 IEnMin=11 EnMin= -1938.75561647472     IErMin=11 ErrMin= 3.34D-07
 ErrMax= 3.34D-07  0.00D+00 EMaxC= 1.00D-01 BMatC= 2.85D-10 BMatP= 2.54D-09
 IDIUse=1 WtCom= 1.00D+00 WtEn= 0.00D+00
 Coeff-Com:  0.104D-05 0.337D-04 0.106D-03 0.187D-03 0.105D-03-0.328D-02
 Coeff-Com: -0.760D-02-0.111D-01 0.408D-01 0.268D+00 0.712D+00
 Coeff:      0.104D-05 0.337D-04 0.106D-03 0.187D-03 0.105D-03-0.328D-02
 Coeff:     -0.760D-02-0.111D-01 0.408D-01 0.268D+00 0.712D+00
 Gap=     0.344 Goal=   None    Shift=    0.000
 RMSDP=4.54D-08 MaxDP=3.38D-06 DE=-2.40D-09 OVMax= 3.56D-06

 Cycle  12  Pass 1  IDiag  1:
 RMSU=  2.76D-08    CP:  1.00D+00  6.71D-01  5.77D-01  7.39D-01  7.06D-01
                    CP:  1.10D+00  9.47D-01  1.14D+00  1.03D+00  1.00D+00
                    CP:  9.80D-01
 E= -1938.75561647495     Delta-E=       -0.000000000236 Rises=F Damp=F
 DIIS: error= 1.30D-07 at cycle  12 NSaved=  12.
 NSaved=12 IEnMin=12 EnMin= -1938.75561647495     IErMin=12 ErrMin= 1.30D-07
 ErrMax= 1.30D-07  0.00D+00 EMaxC= 1.00D-01 BMatC= 4.32D-11 BMatP= 2.85D-10
 IDIUse=1 WtCom= 1.00D+00 WtEn= 0.00D+00
 Coeff-Com: -0.365D-06 0.673D-07 0.924D-05 0.376D-04 0.235D-03 0.116D-02
 Coeff-Com: -0.489D-03-0.947D-02-0.223D-01-0.478D-02 0.276D+00 0.759D+00
 Coeff:     -0.365D-06 0.673D-07 0.924D-05 0.376D-04 0.235D-03 0.116D-02
 Coeff:     -0.489D-03-0.947D-02-0.223D-01-0.478D-02 0.276D+00 0.759D+00
 Gap=     0.344 Goal=   None    Shift=    0.000
 RMSDP=1.91D-08 MaxDP=1.18D-06 DE=-2.36D-10 OVMax= 1.98D-06

 Cycle  13  Pass 1  IDiag  1:
 RMSU=  1.02D-08    CP:  1.00D+00  6.71D-01  5.77D-01  7.39D-01  7.06D-01
                    CP:  1.10D+00  9.48D-01  1.14D+00  1.04D+00  1.03D+00
                    CP:  1.08D+00  9.55D-01
 E= -1938.75561647502     Delta-E=       -0.000000000068 Rises=F Damp=F
 DIIS: error= 5.82D-08 at cycle  13 NSaved=  13.
 NSaved=13 IEnMin=13 EnMin= -1938.75561647502     IErMin=13 ErrMin= 5.82D-08
 ErrMax= 5.82D-08  0.00D+00 EMaxC= 1.00D-01 BMatC= 4.29D-12 BMatP= 4.32D-11
 IDIUse=1 WtCom= 1.00D+00 WtEn= 0.00D+00
 Coeff-Com: -0.255D-06-0.302D-05-0.459D-05-0.139D-05 0.906D-04 0.748D-03
 Coeff-Com:  0.522D-03-0.267D-02-0.123D-01-0.261D-01 0.391D-01 0.290D+00
 Coeff-Com:  0.711D+00
 Coeff:     -0.255D-06-0.302D-05-0.459D-05-0.139D-05 0.906D-04 0.748D-03
 Coeff:      0.522D-03-0.267D-02-0.123D-01-0.261D-01 0.391D-01 0.290D+00
 Coeff:      0.711D+00
 Gap=     0.344 Goal=   None    Shift=    0.000
 RMSDP=5.91D-09 MaxDP=4.34D-07 DE=-6.82D-11 OVMax= 7.44D-07

 Error on total polarization charges =  0.00484
 SCF Done:  E(RCAM-B3LYP) =  -1938.75561648     A.U. after   13 cycles
            NFock= 13  Conv=0.59D-08     -V/T= 2.0077
 KE= 1.923872471155D+03 PE=-1.165036125610D+04 EE= 4.247754082020D+03
 Leave Link  502 at Sun Mar  3 17:42:36 2024, MaxMem=  5368709120 cpu:       757.4
 (Enter /home/k0335/k033513/app/g09/l601.exe)
 Copying SCF densities to generalized density rwf, IOpCl= 0 IROHF=0.

 **********************************************************************

            Population analysis using the SCF density.

 **********************************************************************

 Alpha  occ. eigenvalues --  -24.83873 -24.83530 -24.83450 -24.83449 -24.83109
 Alpha  occ. eigenvalues --  -24.82978 -24.82454 -24.82415 -24.81620 -19.33004
 Alpha  occ. eigenvalues --  -19.23675 -19.23662 -19.23488 -19.23480 -19.23270
 Alpha  occ. eigenvalues --  -14.52641 -14.50323 -14.50321 -10.59566 -10.55158
 Alpha  occ. eigenvalues --  -10.52931 -10.48906 -10.45537 -10.45531 -10.44718
 Alpha  occ. eigenvalues --  -10.36266 -10.36264 -10.30621 -10.30605  -1.43383
 Alpha  occ. eigenvalues --   -1.41624  -1.38453  -1.35210  -1.33900  -1.33343
 Alpha  occ. eigenvalues --   -1.32614  -1.31975  -1.30845  -1.22402  -1.20343
 Alpha  occ. eigenvalues --   -1.17378  -1.17067  -1.13145  -1.12781  -1.09082
 Alpha  occ. eigenvalues --   -1.06645  -1.04911  -0.92865  -0.85961  -0.83462
 Alpha  occ. eigenvalues --   -0.83331  -0.82235  -0.78464  -0.77829  -0.75950
 Alpha  occ. eigenvalues --   -0.74583  -0.74070  -0.73125  -0.72515  -0.71282
 Alpha  occ. eigenvalues --   -0.70956  -0.70022  -0.68672  -0.68264  -0.67437
 Alpha  occ. eigenvalues --   -0.64836  -0.63783  -0.62441  -0.61888  -0.58927
 Alpha  occ. eigenvalues --   -0.58381  -0.57845  -0.57342  -0.57140  -0.57018
 Alpha  occ. eigenvalues --   -0.56422  -0.56235  -0.55695  -0.55550  -0.55099
 Alpha  occ. eigenvalues --   -0.55034  -0.54455  -0.54123  -0.53633  -0.53212
 Alpha  occ. eigenvalues --   -0.52805  -0.52362  -0.52028  -0.51324  -0.51218
 Alpha  occ. eigenvalues --   -0.50831  -0.50648  -0.50210  -0.49655  -0.49282
 Alpha  occ. eigenvalues --   -0.49058  -0.48870  -0.48465  -0.48268  -0.47600
 Alpha  occ. eigenvalues --   -0.47211  -0.47149  -0.43740  -0.40856  -0.40720
 Alpha  occ. eigenvalues --   -0.39485  -0.38933  -0.38332  -0.37195  -0.37106
 Alpha  occ. eigenvalues --   -0.35635  -0.33506  -0.33269
 Alpha virt. eigenvalues --    0.01143   0.01588   0.05950   0.07015   0.10750
 Alpha virt. eigenvalues --    0.13523   0.14689   0.15874   0.16696   0.17598
 Alpha virt. eigenvalues --    0.18593   0.19329   0.19696   0.19794   0.20212
 Alpha virt. eigenvalues --    0.20371   0.21087   0.21394   0.22012   0.22466
 Alpha virt. eigenvalues --    0.22791   0.23128   0.23310   0.23701   0.24295
 Alpha virt. eigenvalues --    0.24910   0.25562   0.25593   0.26934   0.27635
 Alpha virt. eigenvalues --    0.27873   0.29316   0.29434   0.30743   0.31717
 Alpha virt. eigenvalues --    0.33264   0.35556   0.37750   0.38646   0.39392
 Alpha virt. eigenvalues --    0.40061   0.46638   0.47650   0.49592   0.50420
 Alpha virt. eigenvalues --    0.51894   0.52551   0.54319   0.54681   0.54855
 Alpha virt. eigenvalues --    0.55505   0.55809   0.56430   0.57273   0.57809
 Alpha virt. eigenvalues --    0.58372   0.59572   0.60378   0.61377   0.61665
 Alpha virt. eigenvalues --    0.61808   0.62531   0.62960   0.64250   0.66012
 Alpha virt. eigenvalues --    0.66088   0.66782   0.67880   0.70186   0.70308
 Alpha virt. eigenvalues --    0.73730   0.77346   0.77875   0.79118   0.79941
 Alpha virt. eigenvalues --    0.80581   0.82785   0.83389   0.84364   0.85831
 Alpha virt. eigenvalues --    0.86181   0.86986   0.88093   0.88436   0.89051
 Alpha virt. eigenvalues --    0.89643   0.90130   0.90753   0.91230   0.92461
 Alpha virt. eigenvalues --    0.92533   0.93402   0.94684   0.94951   0.96722
 Alpha virt. eigenvalues --    0.98203   0.98768   0.99673   1.00649   1.01116
 Alpha virt. eigenvalues --    1.02794   1.03423   1.04468   1.05876   1.05983
 Alpha virt. eigenvalues --    1.07506   1.07945   1.09106   1.09681   1.10880
 Alpha virt. eigenvalues --    1.11811   1.13493   1.14624   1.15357   1.16313
 Alpha virt. eigenvalues --    1.16899   1.17769   1.17820   1.18404   1.19704
 Alpha virt. eigenvalues --    1.20818   1.20919   1.21570   1.23127   1.23967
 Alpha virt. eigenvalues --    1.24615   1.26250   1.27056   1.28104   1.29829
 Alpha virt. eigenvalues --    1.31728   1.32048   1.33113   1.33910   1.34722
 Alpha virt. eigenvalues --    1.34971   1.35892   1.36769   1.37035   1.39012
 Alpha virt. eigenvalues --    1.39268   1.40245   1.40663   1.41174   1.41776
 Alpha virt. eigenvalues --    1.42299   1.42313   1.43519   1.44963   1.45410
 Alpha virt. eigenvalues --    1.47283   1.47859   1.48830   1.49685   1.50915
 Alpha virt. eigenvalues --    1.51461   1.52109   1.53191   1.54923   1.55357
 Alpha virt. eigenvalues --    1.56008   1.56166   1.57241   1.57663   1.59937
 Alpha virt. eigenvalues --    1.62917   1.64111   1.65089   1.66438   1.67675
 Alpha virt. eigenvalues --    1.68693   1.69989   1.70651   1.71907   1.72456
 Alpha virt. eigenvalues --    1.73560   1.74322   1.75395   1.76172   1.77587
 Alpha virt. eigenvalues --    1.78410   1.79308   1.81049   1.81129   1.82556
 Alpha virt. eigenvalues --    1.83092   1.83288   1.84597   1.85060   1.85980
 Alpha virt. eigenvalues --    1.86213   1.87612   1.87969   1.88396   1.88657
 Alpha virt. eigenvalues --    1.89677   1.90529   1.91125   1.91956   1.92357
 Alpha virt. eigenvalues --    1.92438   1.93497   1.94148   1.94834   1.95329
 Alpha virt. eigenvalues --    1.96128   1.96885   1.97866   1.98263   1.98692
 Alpha virt. eigenvalues --    1.99574   2.00207   2.01090   2.01547   2.01861
 Alpha virt. eigenvalues --    2.02138   2.02653   2.03317   2.03710   2.03773
 Alpha virt. eigenvalues --    2.04216   2.04720   2.04902   2.05731   2.05852
 Alpha virt. eigenvalues --    2.06062   2.06652   2.07655   2.08268   2.08535
 Alpha virt. eigenvalues --    2.09121   2.10103   2.10551   2.11015   2.11234
 Alpha virt. eigenvalues --    2.12260   2.12775   2.13220   2.14301   2.15550
 Alpha virt. eigenvalues --    2.16310   2.16414   2.17397   2.18462   2.19489
 Alpha virt. eigenvalues --    2.20857   2.21385   2.22213   2.22493   2.24427
 Alpha virt. eigenvalues --    2.25781   2.26970   2.28586   2.30106   2.30631
 Alpha virt. eigenvalues --    2.32100   2.33828   2.35740   2.36330   2.37146
 Alpha virt. eigenvalues --    2.38306   2.39148   2.39741   2.41227   2.43968
 Alpha virt. eigenvalues --    2.45449   2.45975   2.47069   2.48280   2.50315
 Alpha virt. eigenvalues --    2.51145   2.54170   2.55782   2.56156   2.58688
 Alpha virt. eigenvalues --    2.60493   2.61634   2.63201   2.63754   2.64403
 Alpha virt. eigenvalues --    2.64974   2.65726   2.66363   2.66527   2.67874
 Alpha virt. eigenvalues --    2.67979   2.70136   2.71368   2.71729   2.72962
 Alpha virt. eigenvalues --    2.73664   2.75309   2.76175   2.76981   2.78992
 Alpha virt. eigenvalues --    2.80251   2.80939   2.83340   2.85049   2.85526
 Alpha virt. eigenvalues --    2.86906   2.87553   2.88509   2.89667   2.92252
 Alpha virt. eigenvalues --    2.92531   2.93644   2.94114   2.94890   2.95678
 Alpha virt. eigenvalues --    2.96819   2.97704   3.00861   3.03715   3.04190
 Alpha virt. eigenvalues --    3.04779   3.05713   3.06099   3.06972   3.08925
 Alpha virt. eigenvalues --    3.10242   3.11776   3.12789   3.16466   3.18395
 Alpha virt. eigenvalues --    3.19596   3.20099   3.23955   3.26170   3.26505
 Alpha virt. eigenvalues --    3.27195   3.30107   3.32514   3.34137   3.38661
 Alpha virt. eigenvalues --    3.45241   3.46333   3.46722   3.50613   3.51143
 Alpha virt. eigenvalues --    3.54210   3.54989   3.57824   3.95158   3.99654
 Alpha virt. eigenvalues --    4.03959   4.14774   4.17353   4.19376   4.27781
 Alpha virt. eigenvalues --    4.29259   4.36632   4.39346   4.44716   4.47571
 Alpha virt. eigenvalues --    4.50567   4.50852   4.56292   4.59198   4.62876
 Alpha virt. eigenvalues --    4.69617   4.76722   4.79873   4.82868   5.00295
 Alpha virt. eigenvalues --    5.02127   5.13454   5.45824   5.63664   5.75914
 Alpha virt. eigenvalues --    6.26463   6.74402
          Condensed to atoms (all electrons):
               1          2          3          4          5          6
     1  C    4.707525   0.250831  -0.039762   0.004533  -0.000020   0.000007
     2  O    0.250831   8.242884   0.254305  -0.067252   0.004900  -0.000741
     3  C   -0.039762   0.254305   4.592169   0.276241  -0.019714   0.000569
     4  N    0.004533  -0.067252   0.276241   7.345706   0.236125  -0.088687
     5  C   -0.000020   0.004900  -0.019714   0.236125   4.163006   0.606389
     6  O    0.000007  -0.000741   0.000569  -0.088687   0.606389   8.062219
     7  N    0.000002  -0.000089   0.002776  -0.095445   0.233011  -0.088204
     8  C    0.000000   0.000002  -0.000082   0.002781  -0.020471   0.000812
     9  O    0.000000   0.000000   0.000003  -0.000118   0.006322  -0.000878
    10  C    0.000000   0.000000   0.000000   0.000002  -0.000041   0.000008
    11  C    0.000000   0.000034   0.000273  -0.001247  -0.024822   0.000329
    12  O    0.000000   0.000000   0.000003   0.000119   0.000188  -0.000024
    13  N    0.000004  -0.000168   0.002548  -0.093147  -0.001378   0.000053
    14  C    0.000000   0.000003  -0.000042   0.001017   0.000221   0.000001
    15  F    0.000000   0.000000   0.000000  -0.000032   0.000001   0.000000
    16  F    0.000000   0.000000   0.000005   0.000045   0.000004   0.000000
    17  C    0.000000   0.000000   0.000002  -0.000134   0.000046   0.000000
    18  F    0.000000   0.000000   0.000000  -0.000002   0.000019   0.000000
    19  O    0.000000   0.000000   0.000000   0.000000   0.000000   0.000000
    20  C    0.000000   0.000000   0.000000   0.000000   0.000000   0.000000
    21  F    0.000000   0.000000   0.000000   0.000000   0.000000   0.000000
    22  F    0.000000   0.000000   0.000000   0.000000   0.000000   0.000000
    23  F    0.000000   0.000000   0.000000   0.000000   0.000000   0.000000
    24  C    0.000000   0.000000   0.000000  -0.000014  -0.000005   0.000000
    25  F    0.000000   0.000000   0.000000  -0.000003   0.000000   0.000000
    26  F    0.000000   0.000000   0.000000   0.000000   0.000000   0.000000
    27  F    0.000000   0.000000   0.000012  -0.000365   0.000032   0.000000
    28  C   -0.000053   0.007414  -0.020643   0.226606  -0.026062   0.000288
    29  O    0.000010  -0.000779  -0.000919  -0.086186   0.000304  -0.000023
    30  H    0.382563  -0.038088  -0.008275  -0.000008  -0.000122  -0.000006
    31  H    0.382586  -0.038157  -0.008051  -0.000003   0.000062  -0.000002
    32  H    0.398072  -0.029357   0.004821  -0.000171  -0.000010   0.000001
    33  H   -0.002450  -0.042077   0.377327  -0.032627  -0.008626   0.010300
    34  H   -0.002403  -0.043044   0.377401  -0.033472   0.006437   0.000460
    35  H    0.000000   0.000000  -0.000004   0.000466  -0.009584   0.010486
    36  H    0.000000   0.000000   0.000001  -0.000115   0.006586   0.000435
    37  H    0.000000   0.000000   0.000000   0.000000   0.000068  -0.000002
    38  H    0.000000   0.000000   0.000000   0.000000  -0.000129  -0.000004
    39  H    0.000000   0.000000   0.000000   0.000000  -0.000011   0.000002
               7          8          9         10         11         12
     1  C    0.000002   0.000000   0.000000   0.000000   0.000000   0.000000
     2  O   -0.000089   0.000002   0.000000   0.000000   0.000034   0.000000
     3  C    0.002776  -0.000082   0.000003   0.000000   0.000273   0.000003
     4  N   -0.095445   0.002781  -0.000118   0.000002  -0.001247   0.000119
     5  C    0.233011  -0.020471   0.006322  -0.000041  -0.024822   0.000188
     6  O   -0.088204   0.000812  -0.000878   0.000008   0.000329  -0.000024
     7  N    7.346127   0.276224  -0.067293   0.004518   0.234763  -0.088204
     8  C    0.276224   4.588506   0.253731  -0.039502  -0.021047   0.000898
     9  O   -0.067293   0.253731   8.243500   0.250866   0.006241  -0.000774
    10  C    0.004518  -0.039502   0.250866   4.707067  -0.000046  -0.000002
    11  C    0.234763  -0.021047   0.006241  -0.000046   4.172963   0.576224
    12  O   -0.088204   0.000898  -0.000774  -0.000002   0.576224   8.096208
    13  N   -0.092446   0.002933  -0.000092   0.000002   0.210818  -0.087140
    14  C    0.002242  -0.000026   0.000003   0.000000  -0.014435   0.012923
    15  F    0.000065   0.000007   0.000000   0.000000   0.007504  -0.009966
    16  F   -0.000022   0.000000   0.000000   0.000000   0.000547   0.000012
    17  C   -0.000157   0.000002  -0.000001   0.000000  -0.001892   0.000547
    18  F   -0.000233  -0.000001   0.000000   0.000000   0.012204  -0.005490
    19  O    0.000000   0.000000   0.000000   0.000000   0.000113  -0.000162
    20  C    0.000000   0.000000   0.000000   0.000000   0.000002   0.000005
    21  F    0.000000   0.000000   0.000000   0.000000   0.000005   0.000000
    22  F    0.000000   0.000000   0.000000   0.000000   0.000000   0.000000
    23  F    0.000000   0.000000   0.000000   0.000000   0.000000   0.000000
    24  C    0.000022   0.000000   0.000000   0.000000   0.000190   0.000127
    25  F    0.000000   0.000000   0.000000   0.000000   0.000004   0.000000
    26  F    0.000000   0.000000   0.000000   0.000000   0.000000   0.000000
    27  F   -0.000015   0.000000   0.000000   0.000000   0.000026   0.000002
    28  C   -0.001373   0.000132   0.000007   0.000000  -0.014244   0.000031
    29  O    0.000154   0.000003   0.000000   0.000000  -0.000050  -0.000031
    30  H    0.000000   0.000000   0.000000   0.000000   0.000000   0.000000
    31  H    0.000000   0.000000   0.000000   0.000000   0.000000   0.000000
    32  H    0.000000   0.000000   0.000000   0.000000   0.000000   0.000000
    33  H    0.000457  -0.000003  -0.000001   0.000000  -0.000013   0.000000
    34  H   -0.000087   0.000002   0.000000   0.000000  -0.000021   0.000000
    35  H   -0.032914   0.378356  -0.042615  -0.002361   0.006703   0.000425
    36  H   -0.032344   0.377402  -0.042474  -0.002496  -0.009409   0.009424
    37  H   -0.000002  -0.008283  -0.038057   0.382874  -0.000135   0.000007
    38  H   -0.000020  -0.008028  -0.038212   0.382326   0.000071  -0.000002
    39  H   -0.000169   0.004806  -0.029351   0.398073  -0.000013   0.000002
              13         14         15         16         17         18
     1  C    0.000004   0.000000   0.000000   0.000000   0.000000   0.000000
     2  O   -0.000168   0.000003   0.000000   0.000000   0.000000   0.000000
     3  C    0.002548  -0.000042   0.000000   0.000005   0.000002   0.000000
     4  N   -0.093147   0.001017  -0.000032   0.000045  -0.000134  -0.000002
     5  C   -0.001378   0.000221   0.000001   0.000004   0.000046   0.000019
     6  O    0.000053   0.000001   0.000000   0.000000   0.000000   0.000000
     7  N   -0.092446   0.002242   0.000065  -0.000022  -0.000157  -0.000233
     8  C    0.002933  -0.000026   0.000007   0.000000   0.000002  -0.000001
     9  O   -0.000092   0.000003   0.000000   0.000000  -0.000001   0.000000
    10  C    0.000002   0.000000   0.000000   0.000000   0.000000   0.000000
    11  C    0.210818  -0.014435   0.007504   0.000547  -0.001892   0.012204
    12  O   -0.087140   0.012923  -0.009966   0.000012   0.000547  -0.005490
    13  N    7.551064   0.179287  -0.043854  -0.035900  -0.067725  -0.001630
    14  C    0.179287   4.435888   0.261271   0.258005   0.188775  -0.026765
    15  F   -0.043854   0.261271   9.122242  -0.042250  -0.023847  -0.000101
    16  F   -0.035900   0.258005  -0.042250   9.108665  -0.035177   0.000307
    17  C   -0.067725   0.188775  -0.023847  -0.035177   4.990481   0.252260
    18  F   -0.001630  -0.026765  -0.000101   0.000307   0.252260   9.098406
    19  O    0.001925  -0.033400  -0.002365   0.000062   0.169919  -0.043244
    20  C    0.000255  -0.005482   0.002801   0.003178  -0.002311   0.000258
    21  F    0.000061   0.014274  -0.001096  -0.008932   0.001456  -0.000002
    22  F    0.000000  -0.000144  -0.000009   0.000000   0.001343  -0.000002
    23  F   -0.000001  -0.000514   0.000001  -0.000021  -0.006848  -0.000002
    24  C   -0.001608  -0.044330   0.001793   0.008967   0.181052  -0.013995
    25  F   -0.000227   0.002990  -0.000002  -0.001362  -0.034790   0.000311
    26  F   -0.000012   0.001807  -0.000001   0.000000  -0.019264  -0.000800
    27  F   -0.001072  -0.000650   0.000000  -0.000293  -0.023948  -0.001112
    28  C    0.199169  -0.007149   0.000436   0.007569  -0.000671  -0.000331
    29  O   -0.089979   0.014648   0.000019  -0.014461  -0.004821   0.000018
    30  H    0.000000   0.000000   0.000000   0.000000   0.000000   0.000000
    31  H    0.000000   0.000000   0.000000   0.000000   0.000000   0.000000
    32  H    0.000000   0.000000   0.000000   0.000000   0.000000   0.000000
    33  H   -0.000102   0.000001   0.000000   0.000000   0.000000   0.000000
    34  H    0.000519  -0.000002   0.000000   0.000003   0.000000   0.000000
    35  H   -0.000093   0.000001   0.000000   0.000000   0.000000   0.000000
    36  H    0.000374  -0.000010   0.000000   0.000000   0.000001   0.000003
    37  H    0.000000   0.000000   0.000000   0.000000   0.000000   0.000000
    38  H    0.000000   0.000000   0.000000   0.000000   0.000000   0.000000
    39  H    0.000000   0.000000   0.000000   0.000000   0.000000   0.000000
              19         20         21         22         23         24
     1  C    0.000000   0.000000   0.000000   0.000000   0.000000   0.000000
     2  O    0.000000   0.000000   0.000000   0.000000   0.000000   0.000000
     3  C    0.000000   0.000000   0.000000   0.000000   0.000000   0.000000
     4  N    0.000000   0.000000   0.000000   0.000000   0.000000  -0.000014
     5  C    0.000000   0.000000   0.000000   0.000000   0.000000  -0.000005
     6  O    0.000000   0.000000   0.000000   0.000000   0.000000   0.000000
     7  N    0.000000   0.000000   0.000000   0.000000   0.000000   0.000022
     8  C    0.000000   0.000000   0.000000   0.000000   0.000000   0.000000
     9  O    0.000000   0.000000   0.000000   0.000000   0.000000   0.000000
    10  C    0.000000   0.000000   0.000000   0.000000   0.000000   0.000000
    11  C    0.000113   0.000002   0.000005   0.000000   0.000000   0.000190
    12  O   -0.000162   0.000005   0.000000   0.000000   0.000000   0.000127
    13  N    0.001925   0.000255   0.000061   0.000000  -0.000001  -0.001608
    14  C   -0.033400  -0.005482   0.014274  -0.000144  -0.000514  -0.044330
    15  F   -0.002365   0.002801  -0.001096  -0.000009   0.000001   0.001793
    16  F    0.000062   0.003178  -0.008932   0.000000  -0.000021   0.008967
    17  C    0.169919  -0.002311   0.001456   0.001343  -0.006848   0.181052
    18  F   -0.043244   0.000258  -0.000002  -0.000002  -0.000002  -0.013995
    19  O    8.329134   0.239204  -0.047208  -0.038350  -0.047359  -0.030905
    20  C    0.239204   3.841959   0.301551   0.334875   0.301211  -0.005293
    21  F   -0.047208   0.301551   9.049275  -0.037350  -0.035039  -0.003612
    22  F   -0.038350   0.334875  -0.037350   9.016251  -0.037903  -0.000088
    23  F   -0.047359   0.301211  -0.035039  -0.037903   9.056315   0.017799
    24  C   -0.030905  -0.005293  -0.003612  -0.000088   0.017799   4.258427
    25  F   -0.000927   0.011627  -0.000178   0.000000  -0.005892   0.255409
    26  F   -0.000519   0.000308   0.000009  -0.000001  -0.001406   0.271008
    27  F    0.000584   0.000091   0.000000   0.000000  -0.000001   0.277041
    28  C    0.000029   0.000001   0.000010   0.000000   0.000000   0.001150
    29  O    0.000001   0.000003   0.000000   0.000000   0.000000   0.007694
    30  H    0.000000   0.000000   0.000000   0.000000   0.000000   0.000000
    31  H    0.000000   0.000000   0.000000   0.000000   0.000000   0.000000
    32  H    0.000000   0.000000   0.000000   0.000000   0.000000   0.000000
    33  H    0.000000   0.000000   0.000000   0.000000   0.000000   0.000000
    34  H    0.000000   0.000000   0.000000   0.000000   0.000000   0.000001
    35  H    0.000000   0.000000   0.000000   0.000000   0.000000   0.000000
    36  H    0.000000   0.000000   0.000000   0.000000   0.000000   0.000000
    37  H    0.000000   0.000000   0.000000   0.000000   0.000000   0.000000
    38  H    0.000000   0.000000   0.000000   0.000000   0.000000   0.000000
    39  H    0.000000   0.000000   0.000000   0.000000   0.000000   0.000000
              25         26         27         28         29         30
     1  C    0.000000   0.000000   0.000000  -0.000053   0.000010   0.382563
     2  O    0.000000   0.000000   0.000000   0.007414  -0.000779  -0.038088
     3  C    0.000000   0.000000   0.000012  -0.020643  -0.000919  -0.008275
     4  N   -0.000003   0.000000  -0.000365   0.226606  -0.086186  -0.000008
     5  C    0.000000   0.000000   0.000032  -0.026062   0.000304  -0.000122
     6  O    0.000000   0.000000   0.000000   0.000288  -0.000023  -0.000006
     7  N    0.000000   0.000000  -0.000015  -0.001373   0.000154   0.000000
     8  C    0.000000   0.000000   0.000000   0.000132   0.000003   0.000000
     9  O    0.000000   0.000000   0.000000   0.000007   0.000000   0.000000
    10  C    0.000000   0.000000   0.000000   0.000000   0.000000   0.000000
    11  C    0.000004   0.000000   0.000026  -0.014244  -0.000050   0.000000
    12  O    0.000000   0.000000   0.000002   0.000031  -0.000031   0.000000
    13  N   -0.000227  -0.000012  -0.001072   0.199169  -0.089979   0.000000
    14  C    0.002990   0.001807  -0.000650  -0.007149   0.014648   0.000000
    15  F   -0.000002  -0.000001   0.000000   0.000436   0.000019   0.000000
    16  F   -0.001362   0.000000  -0.000293   0.007569  -0.014461   0.000000
    17  C   -0.034790  -0.019264  -0.023948  -0.000671  -0.004821   0.000000
    18  F    0.000311  -0.000800  -0.001112  -0.000331   0.000018   0.000000
    19  O   -0.000927  -0.000519   0.000584   0.000029   0.000001   0.000000
    20  C    0.011627   0.000308   0.000091   0.000001   0.000003   0.000000
    21  F   -0.000178   0.000009   0.000000   0.000010   0.000000   0.000000
    22  F    0.000000  -0.000001   0.000000   0.000000   0.000000   0.000000
    23  F   -0.005892  -0.001406  -0.000001   0.000000   0.000000   0.000000
    24  C    0.255409   0.271008   0.277041   0.001150   0.007694   0.000000
    25  F    9.089616  -0.036957  -0.034731  -0.000495   0.000111   0.000000
    26  F   -0.036957   9.085389  -0.038977   0.000006  -0.000001   0.000000
    27  F   -0.034731  -0.038977   9.063062   0.013849  -0.008364   0.000000
    28  C   -0.000495   0.000006   0.013849   4.209093   0.563244   0.000074
    29  O    0.000111  -0.000001  -0.008364   0.563244   8.111854  -0.000002
    30  H    0.000000   0.000000   0.000000   0.000074  -0.000002   0.618459
    31  H    0.000000   0.000000   0.000000  -0.000135  -0.000004  -0.045282
    32  H    0.000000   0.000000   0.000000  -0.000012   0.000002  -0.031880
    33  H    0.000000   0.000000   0.000000   0.006704   0.000411   0.011204
    34  H    0.000000   0.000000  -0.000009  -0.009915   0.011062  -0.002427
    35  H    0.000000   0.000000   0.000000  -0.000010   0.000000   0.000000
    36  H    0.000000   0.000000   0.000000  -0.000002   0.000000   0.000000
    37  H    0.000000   0.000000   0.000000   0.000000   0.000000   0.000000
    38  H    0.000000   0.000000   0.000000   0.000000   0.000000   0.000000
    39  H    0.000000   0.000000   0.000000   0.000000   0.000000   0.000000
              31         32         33         34         35         36
     1  C    0.382586   0.398072  -0.002450  -0.002403   0.000000   0.000000
     2  O   -0.038157  -0.029357  -0.042077  -0.043044   0.000000   0.000000
     3  C   -0.008051   0.004821   0.377327   0.377401  -0.000004   0.000001
     4  N   -0.000003  -0.000171  -0.032627  -0.033472   0.000466  -0.000115
     5  C    0.000062  -0.000010  -0.008626   0.006437  -0.009584   0.006586
     6  O   -0.000002   0.000001   0.010300   0.000460   0.010486   0.000435
     7  N    0.000000   0.000000   0.000457  -0.000087  -0.032914  -0.032344
     8  C    0.000000   0.000000  -0.000003   0.000002   0.378356   0.377402
     9  O    0.000000   0.000000  -0.000001   0.000000  -0.042615  -0.042474
    10  C    0.000000   0.000000   0.000000   0.000000  -0.002361  -0.002496
    11  C    0.000000   0.000000  -0.000013  -0.000021   0.006703  -0.009409
    12  O    0.000000   0.000000   0.000000   0.000000   0.000425   0.009424
    13  N    0.000000   0.000000  -0.000102   0.000519  -0.000093   0.000374
    14  C    0.000000   0.000000   0.000001  -0.000002   0.000001  -0.000010
    15  F    0.000000   0.000000   0.000000   0.000000   0.000000   0.000000
    16  F    0.000000   0.000000   0.000000   0.000003   0.000000   0.000000
    17  C    0.000000   0.000000   0.000000   0.000000   0.000000   0.000001
    18  F    0.000000   0.000000   0.000000   0.000000   0.000000   0.000003
    19  O    0.000000   0.000000   0.000000   0.000000   0.000000   0.000000
    20  C    0.000000   0.000000   0.000000   0.000000   0.000000   0.000000
    21  F    0.000000   0.000000   0.000000   0.000000   0.000000   0.000000
    22  F    0.000000   0.000000   0.000000   0.000000   0.000000   0.000000
    23  F    0.000000   0.000000   0.000000   0.000000   0.000000   0.000000
    24  C    0.000000   0.000000   0.000000   0.000001   0.000000   0.000000
    25  F    0.000000   0.000000   0.000000   0.000000   0.000000   0.000000
    26  F    0.000000   0.000000   0.000000   0.000000   0.000000   0.000000
    27  F    0.000000   0.000000   0.000000  -0.000009   0.000000   0.000000
    28  C   -0.000135  -0.000012   0.006704  -0.009915  -0.000010  -0.000002
    29  O   -0.000004   0.000002   0.000411   0.011062   0.000000   0.000000
    30  H   -0.045282  -0.031880   0.011204  -0.002427   0.000000   0.000000
    31  H    0.617660  -0.031788  -0.002422   0.011248   0.000000   0.000000
    32  H   -0.031788   0.556662  -0.000189  -0.000191   0.000000   0.000000
    33  H   -0.002422  -0.000189   0.583939  -0.047512   0.000000   0.000000
    34  H    0.011248  -0.000191  -0.047512   0.586400   0.000000   0.000000
    35  H    0.000000   0.000000   0.000000   0.000000   0.584620  -0.047806
    36  H    0.000000   0.000000   0.000000   0.000000  -0.047806   0.587733
    37  H    0.000000   0.000000   0.000000   0.000000  -0.002349   0.011313
    38  H    0.000000   0.000000   0.000000   0.000000   0.011054  -0.002483
    39  H    0.000000   0.000000   0.000000   0.000000  -0.000195  -0.000183
              37         38         39
     1  C    0.000000   0.000000   0.000000
     2  O    0.000000   0.000000   0.000000
     3  C    0.000000   0.000000   0.000000
     4  N    0.000000   0.000000   0.000000
     5  C    0.000068  -0.000129  -0.000011
     6  O   -0.000002  -0.000004   0.000002
     7  N   -0.000002  -0.000020  -0.000169
     8  C   -0.008283  -0.008028   0.004806
     9  O   -0.038057  -0.038212  -0.029351
    10  C    0.382874   0.382326   0.398073
    11  C   -0.000135   0.000071  -0.000013
    12  O    0.000007  -0.000002   0.000002
    13  N    0.000000   0.000000   0.000000
    14  C    0.000000   0.000000   0.000000
    15  F    0.000000   0.000000   0.000000
    16  F    0.000000   0.000000   0.000000
    17  C    0.000000   0.000000   0.000000
    18  F    0.000000   0.000000   0.000000
    19  O    0.000000   0.000000   0.000000
    20  C    0.000000   0.000000   0.000000
    21  F    0.000000   0.000000   0.000000
    22  F    0.000000   0.000000   0.000000
    23  F    0.000000   0.000000   0.000000
    24  C    0.000000   0.000000   0.000000
    25  F    0.000000   0.000000   0.000000
    26  F    0.000000   0.000000   0.000000
    27  F    0.000000   0.000000   0.000000
    28  C    0.000000   0.000000   0.000000
    29  O    0.000000   0.000000   0.000000
    30  H    0.000000   0.000000   0.000000
    31  H    0.000000   0.000000   0.000000
    32  H    0.000000   0.000000   0.000000
    33  H    0.000000   0.000000   0.000000
    34  H    0.000000   0.000000   0.000000
    35  H   -0.002349   0.011054  -0.000195
    36  H    0.011313  -0.002483  -0.000183
    37  H    0.616918  -0.045319  -0.031734
    38  H   -0.045319   0.619375  -0.031939
    39  H   -0.031734  -0.031939   0.556736
 Mulliken charges:
               1
     1  C   -0.081444
     2  O   -0.500620
     3  C    0.209036
     4  N   -0.594613
     5  C    0.847274
     6  O   -0.513789
     7  N   -0.601341
     8  C    0.210846
     9  O   -0.500809
    10  C   -0.081290
    11  C    0.858361
    12  O   -0.505349
    13  N   -0.632436
    14  C    0.759593
    15  F   -0.272617
    16  F   -0.248949
    17  C    0.435699
    18  F   -0.270075
    19  O   -0.496531
    20  C    0.975759
    21  F   -0.233224
    22  F   -0.238622
    23  F   -0.240340
    24  C    0.819170
    25  F   -0.244505
    26  F   -0.260590
    27  F   -0.245163
    28  C    0.845282
    29  O   -0.503918
    30  H    0.113789
    31  H    0.114288
    32  H    0.134040
    33  H    0.145677
    34  H    0.145550
    35  H    0.145820
    36  H    0.144051
    37  H    0.114702
    38  H    0.113309
    39  H    0.133977
 Sum of Mulliken charges =   0.00000
 Mulliken charges with hydrogens summed into heavy atoms:
               1
     1  C    0.280673
     2  O   -0.500620
     3  C    0.500263
     4  N   -0.594613
     5  C    0.847274
     6  O   -0.513789
     7  N   -0.601341
     8  C    0.500718
     9  O   -0.500809
    10  C    0.280698
    11  C    0.858361
    12  O   -0.505349
    13  N   -0.632436
    14  C    0.759593
    15  F   -0.272617
    16  F   -0.248949
    17  C    0.435699
    18  F   -0.270075
    19  O   -0.496531
    20  C    0.975759
    21  F   -0.233224
    22  F   -0.238622
    23  F   -0.240340
    24  C    0.819170
    25  F   -0.244505
    26  F   -0.260590
    27  F   -0.245163
    28  C    0.845282
    29  O   -0.503918
 Electronic spatial extent (au):  <R**2>=          11626.6527
 Charge=              0.0000 electrons
 Dipole moment (field-independent basis, Debye):
    X=             -3.6171    Y=              0.0932    Z=             -0.2020  Tot=              3.6239
 Quadrupole moment (field-independent basis, Debye-Ang):
   XX=           -158.6566   YY=           -149.6534   ZZ=           -152.9916
   XY=             -0.6724   XZ=             -0.2260   YZ=              7.0320
 Traceless Quadrupole moment (field-independent basis, Debye-Ang):
   XX=             -4.8894   YY=              4.1138   ZZ=              0.7756
   XY=             -0.6724   XZ=             -0.2260   YZ=              7.0320
 Octapole moment (field-independent basis, Debye-Ang**2):
  XXX=           -359.9298  YYY=             42.4404  ZZZ=              3.7602  XYY=           -188.3594
  XXY=             -7.6425  XXZ=             -7.1974  XZZ=           -165.1195  YZZ=              7.3307
  YYZ=              6.6224  XYZ=            -45.6831
 Hexadecapole moment (field-independent basis, Debye-Ang**3):
 XXXX=          -8356.3255 YYYY=          -2574.6735 ZZZZ=          -1592.9066 XXXY=             51.9518
 XXXZ=            185.5922 YYYX=             25.2723 YYYZ=           -400.2005 ZZZX=            137.7206
 ZZZY=           -504.0836 XXYY=          -1687.9341 XXZZ=          -1604.9392 YYZZ=           -692.0239
 XXYZ=            -71.0429 YYXZ=             50.7893 ZZXY=              4.3365
 N-N= 3.539979086451D+03 E-N=-1.165036125549D+04  KE= 1.923872471155D+03
 No NMR shielding tensors so no spin-rotation constants.
 Leave Link  601 at Sun Mar  3 17:42:37 2024, MaxMem=  5368709120 cpu:         2.4
 (Enter /home/k0335/k033513/app/g09/l9999.exe)
 1\1\GINC-C18U04N2\SP\RCAM-B3LYP\6-31G(d,p)\C11H10F9N3O6\K033513\03-Mar
 -2024\0\\#p CAM-B3LYP/6-31G(d,p) SCRF=(PCM,Solvent=Generic,Read) NoSym
 m out=wfn\\Title A1386248941_0\\0,1\C,0,-3.302149,-3.805725,-1.548862\
 O,0,-2.549161,-2.918412,-0.734\C,0,-2.235098,-1.7141,-1.43036\N,0,-1.4
 70337,-0.883039,-0.528069\C,0,-2.148845,0.035207,0.241641\O,0,-3.37252
 8,0.167186,0.1817\N,0,-1.36694,0.808055,1.072006\C,0,-2.004554,1.89151
 2,1.785447\O,0,-1.961923,3.040045,0.941121\C,0,-2.54846,4.168883,1.573
 332\C,0,-0.007917,0.644421,1.218332\O,0,0.656149,1.370961,1.957346\N,0
 ,0.566768,-0.373616,0.494299\C,0,2.008496,-0.53556,0.589818\F,0,2.3413
 56,-0.488534,1.92233\F,0,2.358096,-1.804912,0.244828\C,0,2.895587,0.50
 2974,-0.157536\F,0,2.291889,1.739236,-0.062132\O,0,4.16943,0.742711,0.
 466638\C,0,5.107404,-0.287783,0.302686\F,0,4.587445,-1.468094,0.658477
 \F,0,6.170964,-0.029753,1.085186\F,0,5.515616,-0.334899,-0.974112\C,0,
 2.944991,0.173449,-1.64868\F,0,3.378398,-1.07672,-1.90136\F,0,3.784105
 ,1.022366,-2.2962\F,0,1.735026,0.326818,-2.233705\C,0,-0.105742,-1.044
 171,-0.494819\O,0,0.488973,-1.724714,-1.330204\H,0,-4.251391,-3.346249
 ,-1.840921\H,0,-2.730421,-4.088632,-2.438002\H,0,-3.515183,-4.708118,-
 0.969589\H,0,-3.15918,-1.211327,-1.73707\H,0,-1.652353,-1.948271,-2.32
 8393\H,0,-3.045934,1.642839,2.01911\H,0,-1.477445,2.099618,2.723533\H,
 0,-2.001882,4.424332,2.486279\H,0,-3.600359,3.975512,1.804836\H,0,-2.4
 9289,5.016502,0.88507\\Version=ES64L-G09RevD.01\HF=-1938.7556165\RMSD=
 5.913e-09\Dipole=-1.4230705,0.0366727,-0.0794599\Quadrupole=-3.6351487
 ,3.0585076,0.5766411,-0.499937,-0.1680359,5.2280956\PG=C01 [X(C11H10F9
 N3O6)]\\@

 Writing a WFN file to "A1386248941/A1386248941_0.wfn"


 IF YOU WANT TO LEARN FROM THE THEORETICAL PHYSICISTS ABOUT THE
 METHODS WHICH THEY USE, I ADVISE YOU TO FOLLOW THIS PRINCIPLE VERY STRICTLY:
 DON'T LISTEN TO THEIR WORDS; PAY ATTENTION, INSTEAD, TO THEIR ACTIONS.
 -- A.EINSTEIN, 1934
 Job cpu time:       0 days  0 hours 13 minutes  5.0 seconds.
 File lengths (MBytes):  RWF=    281 Int=      0 D2E=      0 Chk=     10 Scr=      1
 Normal termination of Gaussian 09 at Sun Mar  3 17:42:37 2024.
