 Entering Gaussian System, Link 0=g09
 Initial command:
 /home/k0335/k033513/app/g09/l1.exe "/home/k0335/k033513/app/g09/scratch/Gau-551830.inp" -scrdir="/home/k0335/k033513/app/g09/scratch/"
 Default is to use a total of  36 processors:
                               36 via shared-memory
                                1 via Linda
 Entering Link 1 = /home/k0335/k033513/app/g09/l1.exe PID=    551831.
  
 Copyright (c) 1988,1990,1992,1993,1995,1998,2003,2009,2013,
            Gaussian, Inc.  All Rights Reserved.
  
 This is part of the Gaussian(R) 09 program.  It is based on
 the Gaussian(R) 03 system (copyright 2003, Gaussian, Inc.),
 the Gaussian(R) 98 system (copyright 1998, Gaussian, Inc.),
 the Gaussian(R) 94 system (copyright 1995, Gaussian, Inc.),
 the Gaussian 92(TM) system (copyright 1992, Gaussian, Inc.),
 the Gaussian 90(TM) system (copyright 1990, Gaussian, Inc.),
 the Gaussian 88(TM) system (copyright 1988, Gaussian, Inc.),
 the Gaussian 86(TM) system (copyright 1986, Carnegie Mellon
 University), and the Gaussian 82(TM) system (copyright 1983,
 Carnegie Mellon University). Gaussian is a federally registered
 trademark of Gaussian, Inc.
  
 This software contains proprietary and confidential information,
 including trade secrets, belonging to Gaussian, Inc.
  
 This software is provided under written license and may be
 used, copied, transmitted, or stored only in accord with that
 written license.
  
 The following legend is applicable only to US Government
 contracts under FAR:
  
                    RESTRICTED RIGHTS LEGEND
  
 Use, reproduction and disclosure by the US Government is
 subject to restrictions as set forth in subparagraphs (a)
 and (c) of the Commercial Computer Software - Restricted
 Rights clause in FAR 52.227-19.
  
 Gaussian, Inc.
 340 Quinnipiac St., Bldg. 40, Wallingford CT 06492
  
  
 ---------------------------------------------------------------
 Warning -- This program may not be used in any manner that
 competes with the business of Gaussian, Inc. or will provide
 assistance to any competitor of Gaussian, Inc.  The licensee
 of this program is prohibited from giving any competitor of
 Gaussian, Inc. access to this program.  By using this program,
 the user acknowledges that Gaussian, Inc. is engaged in the
 business of creating and licensing software in the field of
 computational chemistry and represents and warrants to the
 licensee that it is not a competitor of Gaussian, Inc. and that
 it will not use this program in any manner prohibited above.
 ---------------------------------------------------------------
  

 Cite this work as:
 Gaussian 09, Revision D.01,
 M. J. Frisch, G. W. Trucks, H. B. Schlegel, G. E. Scuseria, 
 M. A. Robb, J. R. Cheeseman, G. Scalmani, V. Barone, B. Mennucci, 
 G. A. Petersson, H. Nakatsuji, M. Caricato, X. Li, H. P. Hratchian, 
 A. F. Izmaylov, J. Bloino, G. Zheng, J. L. Sonnenberg, M. Hada, 
 M. Ehara, K. Toyota, R. Fukuda, J. Hasegawa, M. Ishida, T. Nakajima, 
 Y. Honda, O. Kitao, H. Nakai, T. Vreven, J. A. Montgomery, Jr., 
 J. E. Peralta, F. Ogliaro, M. Bearpark, J. J. Heyd, E. Brothers, 
 K. N. Kudin, V. N. Staroverov, T. Keith, R. Kobayashi, J. Normand, 
 K. Raghavachari, A. Rendell, J. C. Burant, S. S. Iyengar, J. Tomasi, 
 M. Cossi, N. Rega, J. M. Millam, M. Klene, J. E. Knox, J. B. Cross, 
 V. Bakken, C. Adamo, J. Jaramillo, R. Gomperts, R. E. Stratmann, 
 O. Yazyev, A. J. Austin, R. Cammi, C. Pomelli, J. W. Ochterski, 
 R. L. Martin, K. Morokuma, V. G. Zakrzewski, G. A. Voth, 
 P. Salvador, J. J. Dannenberg, S. Dapprich, A. D. Daniels, 
 O. Farkas, J. B. Foresman, J. V. Ortiz, J. Cioslowski, 
 and D. J. Fox, Gaussian, Inc., Wallingford CT, 2013.
 
 ******************************************
 Gaussian 09:  ES64L-G09RevD.01 24-Apr-2013
                 3-Mar-2024 
 ******************************************
 %nprocshared=24
 Will use up to   24 processors via shared memory.
 %mem=40GB
 %rwf=A903371600/A903371600_0.rwf
 %nosave
 %chk=A903371600/A903371600_0.chk
 ----------------------------------------------------------------------
 #p CAM-B3LYP/6-31G(d,p) SCRF=(PCM,Solvent=Generic,Read) NoSymm out=wfn
 ----------------------------------------------------------------------
 1/38=1,40=2/1;
 2/12=2,15=1,17=6,18=5,40=1/2;
 3/5=1,6=6,7=101,11=2,16=1,25=1,30=1,70=2203,72=-2,74=-40/1,2,3;
 4//1;
 5/5=2,38=5/2;
 6/7=2,8=2,9=2,10=2,28=1/1;
 99/5=1,6=100,9=1/99;
 Leave Link    1 at Sun Mar  3 17:57:59 2024, MaxMem=  5368709120 cpu:         1.0
 (Enter /home/k0335/k033513/app/g09/l101.exe)
 ------------------
 Title A903371600_0
 ------------------
 Symbolic Z-matrix:
 Charge =  0 Multiplicity = 1
 C                    -4.01089  -2.66276  -0.52443 
 C                    -3.14408  -1.42227  -0.66498 
 C                    -2.28778  -1.19396   0.58344 
 N                    -1.44549  -0.00384   0.4574 
 C                    -2.00107   1.21865   0.77241 
 O                    -3.15011   1.32626   1.20292 
 N                    -1.20596   2.31492   0.52443 
 C                    -1.79127   3.63284   0.70268 
 C                     0.0128    2.22394  -0.11614 
 O                     0.51782   3.20939  -0.6539 
 N                     0.59055   0.97578  -0.14405 
 C                     1.93164   0.91294  -0.71935 
 F                     2.62831   1.97553  -0.20608 
 F                     1.84607   1.13133  -2.06016 
 C                     2.80929  -0.34087  -0.4507 
 F                     2.42325  -1.36902  -1.26038 
 O                     2.609    -0.76418   0.90801 
 C                     3.48089  -1.79873   1.2864 
 F                     4.6817   -1.27225   1.57868 
 F                     2.98831  -2.38052   2.39619 
 F                     3.605    -2.72574   0.32641 
 C                     4.24078   0.06033  -0.83831 
 F                     4.77241   0.95114   0.02988 
 F                     5.06892  -1.01394  -0.83434 
 F                     4.31876   0.59612  -2.0754 
 C                    -0.20788  -0.13355  -0.13932 
 O                     0.13206  -1.19395  -0.65721 
 H                    -4.6908   -2.57145   0.32861 
 H                    -4.61447  -2.80764  -1.42587 
 H                    -3.39574  -3.55667  -0.3802 
 H                    -2.50288  -1.52802  -1.54781 
 H                    -3.78583  -0.55206  -0.84581 
 H                    -2.93343  -1.08536   1.46318 
 H                    -1.64963  -2.06761   0.76325 
 H                    -2.36063   3.88306  -0.19824 
 H                    -1.01355   4.38729   0.85488 
 H                    -2.46606   3.64487   1.56388 
 
 NAtoms=     37 NQM=       37 NQMF=       0 NMMI=      0 NMMIF=      0
                NMic=       0 NMicF=      0.
                    Isotopes and Nuclear Properties:
 (Nuclear quadrupole moments (NQMom) in fm**2, nuclear magnetic moments (NMagM)
  in nuclear magnetons)

  Atom         1           2           3           4           5           6           7           8           9          10
 IAtWgt=          12          12          12          14          12          16          14          12          12          16
 AtmWgt=  12.0000000  12.0000000  12.0000000  14.0030740  12.0000000  15.9949146  14.0030740  12.0000000  12.0000000  15.9949146
 NucSpn=           0           0           0           2           0           0           2           0           0           0
 AtZEff=   0.0000000   0.0000000   0.0000000   0.0000000   0.0000000   0.0000000   0.0000000   0.0000000   0.0000000   0.0000000
 NQMom=    0.0000000   0.0000000   0.0000000   2.0440000   0.0000000   0.0000000   2.0440000   0.0000000   0.0000000   0.0000000
 NMagM=    0.0000000   0.0000000   0.0000000   0.4037610   0.0000000   0.0000000   0.4037610   0.0000000   0.0000000   0.0000000
 AtZNuc=   6.0000000   6.0000000   6.0000000   7.0000000   6.0000000   8.0000000   7.0000000   6.0000000   6.0000000   8.0000000

  Atom        11          12          13          14          15          16          17          18          19          20
 IAtWgt=          14          12          19          19          12          19          16          12          19          19
 AtmWgt=  14.0030740  12.0000000  18.9984033  18.9984033  12.0000000  18.9984033  15.9949146  12.0000000  18.9984033  18.9984033
 NucSpn=           2           0           1           1           0           1           0           0           1           1
 AtZEff=   0.0000000   0.0000000   0.0000000   0.0000000   0.0000000   0.0000000   0.0000000   0.0000000   0.0000000   0.0000000
 NQMom=    2.0440000   0.0000000   0.0000000   0.0000000   0.0000000   0.0000000   0.0000000   0.0000000   0.0000000   0.0000000
 NMagM=    0.4037610   0.0000000   2.6288670   2.6288670   0.0000000   2.6288670   0.0000000   0.0000000   2.6288670   2.6288670
 AtZNuc=   7.0000000   6.0000000   9.0000000   9.0000000   6.0000000   9.0000000   8.0000000   6.0000000   9.0000000   9.0000000

  Atom        21          22          23          24          25          26          27          28          29          30
 IAtWgt=          19          12          19          19          19          12          16           1           1           1
 AtmWgt=  18.9984033  12.0000000  18.9984033  18.9984033  18.9984033  12.0000000  15.9949146   1.0078250   1.0078250   1.0078250
 NucSpn=           1           0           1           1           1           0           0           1           1           1
 AtZEff=   0.0000000   0.0000000   0.0000000   0.0000000   0.0000000   0.0000000   0.0000000   0.0000000   0.0000000   0.0000000
 NQMom=    0.0000000   0.0000000   0.0000000   0.0000000   0.0000000   0.0000000   0.0000000   0.0000000   0.0000000   0.0000000
 NMagM=    2.6288670   0.0000000   2.6288670   2.6288670   2.6288670   0.0000000   0.0000000   2.7928460   2.7928460   2.7928460
 AtZNuc=   9.0000000   6.0000000   9.0000000   9.0000000   9.0000000   6.0000000   8.0000000   1.0000000   1.0000000   1.0000000

  Atom        31          32          33          34          35          36          37
 IAtWgt=           1           1           1           1           1           1           1
 AtmWgt=   1.0078250   1.0078250   1.0078250   1.0078250   1.0078250   1.0078250   1.0078250
 NucSpn=           1           1           1           1           1           1           1
 AtZEff=   0.0000000   0.0000000   0.0000000   0.0000000   0.0000000   0.0000000   0.0000000
 NQMom=    0.0000000   0.0000000   0.0000000   0.0000000   0.0000000   0.0000000   0.0000000
 NMagM=    2.7928460   2.7928460   2.7928460   2.7928460   2.7928460   2.7928460   2.7928460
 AtZNuc=   1.0000000   1.0000000   1.0000000   1.0000000   1.0000000   1.0000000   1.0000000
 Leave Link  101 at Sun Mar  3 17:57:59 2024, MaxMem=  5368709120 cpu:         1.0
 (Enter /home/k0335/k033513/app/g09/l202.exe)
                          Input orientation:                          
 ---------------------------------------------------------------------
 Center     Atomic      Atomic             Coordinates (Angstroms)
 Number     Number       Type             X           Y           Z
 ---------------------------------------------------------------------
      1          6           0       -4.010892   -2.662761   -0.524433
      2          6           0       -3.144078   -1.422273   -0.664977
      3          6           0       -2.287784   -1.193964    0.583442
      4          7           0       -1.445491   -0.003842    0.457395
      5          6           0       -2.001071    1.218652    0.772411
      6          8           0       -3.150111    1.326257    1.202920
      7          7           0       -1.205961    2.314916    0.524428
      8          6           0       -1.791274    3.632843    0.702676
      9          6           0        0.012795    2.223941   -0.116139
     10          8           0        0.517816    3.209385   -0.653896
     11          7           0        0.590554    0.975775   -0.144045
     12          6           0        1.931640    0.912940   -0.719348
     13          9           0        2.628314    1.975534   -0.206075
     14          9           0        1.846068    1.131332   -2.060158
     15          6           0        2.809286   -0.340869   -0.450696
     16          9           0        2.423251   -1.369018   -1.260375
     17          8           0        2.609002   -0.764176    0.908012
     18          6           0        3.480894   -1.798731    1.286403
     19          9           0        4.681704   -1.272252    1.578679
     20          9           0        2.988306   -2.380517    2.396186
     21          9           0        3.605001   -2.725736    0.326410
     22          6           0        4.240785    0.060334   -0.838314
     23          9           0        4.772405    0.951143    0.029882
     24          9           0        5.068919   -1.013942   -0.834336
     25          9           0        4.318756    0.596121   -2.075403
     26          6           0       -0.207880   -0.133551   -0.139317
     27          8           0        0.132055   -1.193947   -0.657207
     28          1           0       -4.690798   -2.571450    0.328607
     29          1           0       -4.614469   -2.807643   -1.425866
     30          1           0       -3.395739   -3.556672   -0.380204
     31          1           0       -2.502880   -1.528021   -1.547808
     32          1           0       -3.785834   -0.552064   -0.845807
     33          1           0       -2.933429   -1.085364    1.463179
     34          1           0       -1.649628   -2.067608    0.763248
     35          1           0       -2.360629    3.883061   -0.198241
     36          1           0       -1.013548    4.387295    0.854884
     37          1           0       -2.466057    3.644873    1.563883
 ---------------------------------------------------------------------
                    Distance matrix (angstroms):
                    1          2          3          4          5
     1  C    0.000000
     2  C    1.519845   0.000000
     3  C    2.520685   1.530985   0.000000
     4  N    3.822973   2.481303   1.463467   0.000000
     5  C    4.559227   3.216681   2.436930   1.379274   0.000000
     6  O    4.431361   3.323175   2.734753   2.287072   1.231751
     7  N    5.809046   4.374650   3.672337   2.332061   1.376768
     8  C    6.787277   5.408766   4.853741   3.661312   2.424293
     9  C    6.343234   4.854065   4.179013   2.723703   2.419873
    10  O    7.416742   5.904392   5.365806   3.926114   3.513141
    11  N    5.878516   4.468722   3.677205   2.338131   2.759602
    12  C    6.938106   5.587405   4.892836   3.691914   4.217229
    13  F    8.105195   6.713881   5.902294   4.577555   4.791817
    14  F    7.145458   5.776589   5.429950   4.296633   4.778237
    15  C    7.204960   6.054576   5.270421   4.363639   5.202656
    16  F    6.604058   5.599329   5.062031   4.447652   5.513881
    17  O    7.034168   6.000443   4.926315   4.149708   5.020236
    18  C    7.755806   6.916636   5.842734   5.308310   6.278593
    19  F    9.050846   8.142442   7.040624   6.356781   7.177336
    20  F    7.589364   6.920627   5.703602   5.391294   6.362747
    21  F    7.663532   6.944921   6.094039   5.738757   6.869145
    22  C    8.695053   7.534213   6.798299   5.832385   6.549573
    23  F    9.513878   8.293771   7.399607   6.305315   6.819303
    24  F    9.233505   8.224885   7.494237   6.717619   7.586229
    25  F    9.077932   7.858569   7.343040   6.324679   6.959727
    26  C    4.583461   3.249366   2.443943   1.380062   2.423888
    27  O    4.397619   3.284089   2.719344   2.268775   3.523445
    28  H    1.094663   2.167985   2.781526   4.140195   4.668669
    29  H    1.094476   2.158762   3.471994   4.631457   5.279519
    30  H    1.094665   2.167969   2.781828   4.138555   5.106598
    31  H    2.146865   1.096224   2.167968   2.731672   3.630350
    32  H    2.146852   1.096273   2.167704   2.734244   2.989890
    33  H    2.756757   2.164932   1.096626   2.096485   2.579717
    34  H    2.754614   2.165563   1.096735   2.096270   3.305011
    35  H    6.758517   5.383141   5.137365   4.046647   2.858413
    36  H    7.783950   6.371830   5.731301   4.430198   3.319985
    37  H    6.821571   5.577051   4.940384   3.947023   2.594068
                    6          7          8          9         10
     6  O    0.000000
     7  N    2.284189   0.000000
     8  C    2.723421   1.453030   0.000000
     9  C    3.542559   1.379844   2.431075   0.000000
    10  O    4.521905   2.271548   2.711365   1.230987   0.000000
    11  N    3.991206   2.338294   3.667431   1.375683   2.292216
    12  C    5.448866   3.654731   4.824947   2.400948   2.697562
    13  F    5.983061   3.917969   4.806793   2.628828   2.485384
    14  F    5.970551   4.170832   5.207789   2.886848   2.839037
    15  C    6.405323   4.911850   6.187553   3.809270   4.230417
    16  F    6.662934   5.470655   6.828939   4.475369   4.996026
    17  O    6.133862   4.917508   6.224015   4.088767   4.754135
    18  C    7.330944   6.282460   7.592002   5.493335   6.133989
    19  F    8.260192   6.974512   8.168646   6.074083   6.512098
    20  F    7.269403   6.568291   7.865930   6.030462   6.830324
    21  F    7.925809   6.970849   8.348227   6.131810   6.761462
    22  C    7.771392   6.050392   7.177967   4.804022   4.879655
    23  F    8.017667   6.151854   7.122222   4.929019   4.865053
    24  F    8.785181   7.231988   8.427174   6.046824   6.211408
    25  F    8.189290   6.343175   7.366944   5.002980   4.826694
    26  C    3.548149   2.726117   4.171548   2.367911   3.459284
    27  O    4.536972   3.936835   5.370882   3.462504   4.420199
    28  H    4.281385   6.004915   6.858602   6.731817   7.843024
    29  H    5.113119   6.454625   7.347175   6.960158   7.946126
    30  H    5.139028   6.331590   7.445540   6.715901   7.821147
    31  H    4.016505   4.554594   5.674996   4.738725   5.689174
    32  H    2.851231   4.093026   4.887690   4.761113   5.718980
    33  H    2.435283   3.927761   4.913691   4.703826   5.902370
    34  H    3.736721   4.411393   5.702532   4.685548   5.878160
    35  H    3.020560   2.077158   1.094726   2.896992   2.991138
    36  H    3.749131   2.107363   1.094177   2.583867   2.451319
    37  H    2.444219   2.106441   1.094145   3.314548   3.743219
                   11         12         13         14         15
    11  N    0.000000
    12  C    1.460628   0.000000
    13  F    2.270646   1.370369   0.000000
    14  F    2.296084   1.361172   2.182249   0.000000
    15  C    2.598145   1.553858   2.336303   2.384435   0.000000
    16  F    3.178526   2.396189   3.512781   2.687851   1.364439
    17  O    2.865028   2.433072   2.957630   3.603478   1.437146
    18  C    4.254190   3.711655   4.147223   4.738923   2.365149
    19  F    4.975833   4.197481   4.236729   5.201844   2.914067
    20  F    4.844242   4.655100   5.086899   5.787641   3.506701
    21  F    4.796812   4.139289   4.831087   4.864825   2.631472
    22  C    3.826778   2.464395   2.582204   2.893892   1.536360
    23  F    4.185539   2.938154   2.387924   3.600581   2.398768
    24  F    4.948861   3.683560   3.910017   4.060986   2.388755
    25  F    4.215895   2.763618   2.873110   2.529994   2.407514
    26  C    1.366793   2.451352   3.535066   3.083547   3.040268
    27  O    2.276236   2.771523   4.059611   3.211391   2.817438
    28  H    6.379568   7.556181   8.633096   7.883363   7.863464
    29  H    6.561218   7.562635   8.764963   7.593180   7.883405
    30  H    6.040644   6.962285   8.180760   7.230226   6.989184
    31  H    4.220057   5.129289   6.356437   5.123281   5.552665
    32  H    4.688234   5.903536   6.923821   6.002232   6.610319
    33  H    4.387473   5.694343   6.564182   6.338078   6.098850
    34  H    3.886358   4.889503   5.965515   5.515862   4.933275
    35  H    4.143034   5.245641   5.341186   5.360508   6.680819
    36  H    3.899932   4.819075   4.495040   5.222659   6.218853
    37  H    4.402723   5.658298   5.645535   6.168143   6.911867
                   16         17         18         19         20
    16  F    0.000000
    17  O    2.258814   0.000000
    18  C    2.790939   1.404877   0.000000
    19  F    3.629077   2.236969   1.343335   0.000000
    20  F    3.835734   2.229594   1.346379   2.182697   0.000000
    21  F    2.398980   2.275520   1.340271   2.200019   2.187113
    22  C    2.350449   2.528277   2.923693   2.795005   4.241279
    23  F    3.544917   2.897196   3.287652   2.711178   4.458964
    24  F    2.703174   3.024789   2.763196   2.457499   4.078327
    25  F    2.849383   3.697896   4.211777   4.120056   5.534038
    26  C    3.115445   3.070734   4.290985   5.306240   4.657600
    27  O    2.375719   2.961398   3.918942   5.069973   4.346185
    28  H    7.387855   7.542482   8.263838   9.544338   7.954871
    29  H    7.185161   7.861379   8.597047   9.889568   8.520135
    30  H    6.278628   6.746440   7.290817   8.619796   7.060291
    31  H    4.937071   5.722399   6.626582   7.839553   6.814320
    32  H    6.276306   6.634365   7.675014   8.837194   7.729342
    33  H    6.015998   5.579419   6.456290   7.618302   6.133096
    34  H    4.601241   4.455987   5.164130   6.432984   4.926949
    35  H    7.183173   6.893318   8.283135   8.906691   8.635657
    36  H    7.030010   6.297884   7.658533   8.061653   8.012099
    37  H    7.551216   6.754710   8.066973   8.675761   8.169953
                   21         22         23         24         25
    21  F    0.000000
    22  C    3.085934   0.000000
    23  F    3.869134   1.352747   0.000000
    24  F    2.533895   1.356426   2.167107   0.000000
    25  F    4.160876   1.350384   2.182673   2.166863   0.000000
    26  C    4.634046   4.507417   5.099846   5.394696   4.977076
    27  O    3.921127   4.299731   5.158134   4.943319   4.769076
    28  H    8.297234   9.384091  10.101985   9.951399   9.848088
    29  H    8.404574   9.326630  10.215727   9.865864   9.581754
    30  H    7.085204   8.462216   9.338476   8.849980   8.923722
    31  H    6.500263   6.964429   7.846345   7.622694   7.164151
    32  H    7.792521   8.049950   8.733265   8.866798   8.277356
    33  H    6.836237   7.620947   8.098245   8.325938   8.242763
    34  H    5.313670   6.464527   7.133946   6.985797   7.125658
    35  H    8.918531   7.655168   7.715462   8.920955   7.677363
    36  H    8.497381   7.014095   6.779751   8.308022   7.168894
    37  H    8.886717   7.975036   7.874305   9.177792   8.280880
                   26         27         28         29         30
    26  C    0.000000
    27  O    1.228090   0.000000
    28  H    5.124340   5.111678   0.000000
    29  H    5.312627   5.071917   1.771945   0.000000
    30  H    4.683826   4.254942   1.774895   1.771936   0.000000
    31  H    3.032395   2.801367   3.065398   2.472066   2.505179
    32  H    3.670972   3.974599   2.505220   2.471991   3.065392
    33  H    3.301902   3.728943   2.565941   3.760149   3.117556
    34  H    2.575624   2.440363   3.113115   3.759010   2.563922
    35  H    4.557518   5.674516   6.882439   7.166057   7.513600
    36  H    4.698466   5.894836   7.888173   8.362750   8.384920
    37  H    4.719824   5.924323   6.716997   7.428946   7.517050
                   31         32         33         34         35
    31  H    0.000000
    32  H    1.758200   0.000000
    33  H    3.073656   2.518416   0.000000
    34  H    2.521938   3.073973   1.761491   0.000000
    35  H    5.578653   4.703284   5.270072   6.069633   0.000000
    36  H    6.556066   5.913982   5.831463   6.486815   1.782681
    37  H    6.036788   5.016243   4.754337   5.825806   1.781272
                   36         37
    36  H    0.000000
    37  H    1.778666   0.000000
 Symmetry turned off by external request.
 Stoichiometry    C11H10F9N3O4
 Framework group  C1[X(C11H10F9N3O4)]
 Deg. of freedom   105
 Full point group                 C1      NOp   1
 Rotational constants (GHZ):      0.2998392      0.1394026      0.1148275
 Leave Link  202 at Sun Mar  3 17:57:59 2024, MaxMem=  5368709120 cpu:         0.0
 (Enter /home/k0335/k033513/app/g09/l301.exe)
 Standard basis: 6-31G(d,p) (6D, 7F)
 Ernie: Thresh=  0.10000D-02 Tol=  0.10000D-05 Strict=F.
   455 basis functions,   826 primitive gaussians,   455 cartesian basis functions
   105 alpha electrons      105 beta electrons
       nuclear repulsion energy      3133.8961795206 Hartrees.
 IExCor=20419 DFT=T Ex+Corr=CAM-B3LYP ExCW=0 ScaHFX=  1.000000
 ScaDFX=  1.000000  1.000000  1.000000  0.810000 ScalE2=  1.000000  1.000000
 IRadAn=      0 IRanWt=     -1 IRanGd=            0 ICorTp=0 IEmpDi=  4
  HFx wShort=  0.000000 wLong=  0.330000 cFull=  0.190000 cShort=  0.000000 cLong=  0.460000
  DFx wShort=  0.000000 wLong=  0.330000 cFull=  0.190000 cShort=  0.000000 cLong=  0.460000
 NAtoms=   37 NActive=   37 NUniq=   37 SFac= 1.00D+00 NAtFMM=   60 NAOKFM=F Big=F
 Integral buffers will be    131072 words long.
 Raffenetti 2 integral format.
 Two-electron integral symmetry is turned off.
 Using the following non-standard input for PCM:
 eps=4.9
 --- end of non-standard input.
 ------------------------------------------------------------------------------
 Polarizable Continuum Model (PCM)
 =================================
 Model                : PCM (using non-symmetric T matrix).
 Atomic radii         : UFF (Universal Force Field).
 Polarization charges : Total charges.
 Charge compensation  : None.
 Solution method      : On-the-fly selection.
 Cavity type          : Scaled VdW (van der Waals Surface) (Alpha=1.100).
 Cavity algorithm     : GePol (No added spheres)
                        Default sphere list used, NSphG=   37.
                        Lebedev-Laikov grids with approx.  5.0 points / Ang**2.
                        Smoothing algorithm: Karplus/York (Gamma=1.0000).
                        Polarization charges: spherical gaussians, with
                                              point-specific exponents (IZeta= 3).
                        Self-potential: point-specific (ISelfS= 7).
                        Self-field    : sphere-specific E.n sum rule (ISelfD= 2).
 Solvent              : Generic,
                        Eps                           =   4.900000
                        Eps(infinity)                 =   0.000000
                        RSolv                         =   0.000000 Ang.
                        Molar volume                  =   0.000000 cm**3/mol
                        Thermal expansion coefficient =   0.000000 K**-1
                        Absolute temperature          = 298.150000 K
                        Numeral density               =   0.000000 Ang**-3
                        Hydrogen bond acidity         =   0.000000
                        Hydrogen bond basicity        =   0.000000
                        Surface tension at interface  =   0.000000 (cal/mol)*Ang**-2
                        Carbon aromaticity            =   0.000000
                        Electronegative halogenicity  =   0.000000
 ------------------------------------------------------------------------------
 GePol: Number of generator spheres                  =      37
 GePol: Total number of spheres                      =      37
 GePol: Number of exposed spheres                    =      36 ( 97.30%)
 GePol: Number of points                             =    2933
 GePol: Average weight of points                     =       0.13
 GePol: Minimum weight of points                     =   0.36D-11
 GePol: Maximum weight of points                     =    0.20577
 GePol: Number of points with low weight             =     128
 GePol: Fraction of low-weight points (<1% of avg)   =       4.36%
 GePol: Cavity surface area                          =    371.931 Ang**2
 GePol: Cavity volume                                =    413.345 Ang**3
 Leave Link  301 at Sun Mar  3 17:57:59 2024, MaxMem=  5368709120 cpu:         0.8
 (Enter /home/k0335/k033513/app/g09/l302.exe)
 NPDir=0 NMtPBC=     1 NCelOv=     1 NCel=       1 NClECP=     1 NCelD=      1
         NCelK=      1 NCelE2=     1 NClLst=     1 CellRange=     0.0.
 One-electron integrals computed using PRISM.
 NBasis=   455 RedAO= T EigKep=  1.14D-03  NBF=   455
 NBsUse=   455 1.00D-06 EigRej= -1.00D+00 NBFU=   455
 Precomputing XC quadrature grid using
 IXCGrd= 4 IRadAn=           0 IRanWt=          -1 IRanGd=           0 AccXCQ= 0.00D+00.
 Generated NRdTot=       0 NPtTot=           0 NUsed=           0 NTot=          32
 NSgBfM=   448   448   448   448   448 MxSgAt=    37 MxSgA2=    37.
 Leave Link  302 at Sun Mar  3 17:57:59 2024, MaxMem=  5368709120 cpu:         8.1
 (Enter /home/k0335/k033513/app/g09/l303.exe)
 DipDrv:  MaxL=1.
 Leave Link  303 at Sun Mar  3 17:57:59 2024, MaxMem=  5368709120 cpu:         0.8
 (Enter /home/k0335/k033513/app/g09/l401.exe)
 ExpMin= 1.61D-01 ExpMax= 7.00D+03 ExpMxC= 1.05D+03 IAcc=1 IRadAn=         1 AccDes= 0.00D+00
 Harris functional with IExCor=20419 and IRadAn=       1 diagonalized for initial guess.
 HarFok:  IExCor=20419 AccDes= 0.00D+00 IRadAn=         1 IDoV= 1 UseB2=F ITyADJ=14
 ICtDFT=  3500011 ScaDFX=  1.000000  1.000000  1.000000  1.000000
 FoFCou: FMM=F IPFlag=           0 FMFlag=      100000 FMFlg1=           0
         NFxFlg=           0 DoJE=T BraDBF=F KetDBF=T FulRan=T
         wScrn=  0.000000 ICntrl=     500 IOpCl=  0 I1Cent=   200000004 NGrid=           0
         NMat0=    1 NMatS0=      1 NMatT0=    0 NMatD0=    1 NMtDS0=    0 NMtDT0=    0
 Symmetry not used in FoFCou.
 Harris En= -1732.11324224881    
 JPrj=0 DoOrth=F DoCkMO=F.
 Leave Link  401 at Sun Mar  3 17:58:00 2024, MaxMem=  5368709120 cpu:         9.1
 (Enter /home/k0335/k033513/app/g09/l502.exe)
 Closed shell SCF:
 Using DIIS extrapolation, IDIIS=  1040.
 Two-electron integral symmetry not used.
 IVT=      653349 IEndB=      653349 NGot=  5368709120 MDV=  5368279892
 LenX=  5368279892 LenY=  5368072412
 Requested convergence on RMS density matrix=1.00D-08 within 128 cycles.
 Requested convergence on MAX density matrix=1.00D-06.
 Requested convergence on             energy=1.00D-06.
 No special actions if energy rises.
 Fock matrices will be formed incrementally for  20 cycles.

 Cycle   1  Pass 1  IDiag  1:
 FoFJK:  IHMeth= 1 ICntrl=       0 DoSepK=T KAlg= 0 I1Cent=   0 FoldK=F
 IRaf=         1 NMat=   1 IRICut=       1 DoRegI=T DoRafI=F ISym2E= 0.
 FoFCou: FMM=F IPFlag=           0 FMFlag=      100000 FMFlg1=           0
         NFxFlg=           0 DoJE=T BraDBF=F KetDBF=F FulRan=T
         wScrn=  0.000000 ICntrl=     500 IOpCl=  0 I1Cent=           0 NGrid=           0
         NMat0=    1 NMatS0=      1 NMatT0=    0 NMatD0=    1 NMtDS0=    0 NMtDT0=    0
 Symmetry not used in FoFCou.
 Inv3:  Mode=1 IEnd=    25807467.
 Iteration    1 A*A^-1 deviation from unit magnitude is 5.33D-15 for    492.
 Iteration    1 A*A^-1 deviation from orthogonality  is 8.86D-15 for   2931    292.
 Iteration    1 A^-1*A deviation from unit magnitude is 6.22D-15 for    122.
 Iteration    1 A^-1*A deviation from orthogonality  is 4.79D-14 for   1058    980.
 E= -1787.81690456626    
 DIIS: error= 6.15D-02 at cycle   1 NSaved=   1.
 NSaved= 1 IEnMin= 1 EnMin= -1787.81690456626     IErMin= 1 ErrMin= 6.15D-02
 ErrMax= 6.15D-02  0.00D+00 EMaxC= 1.00D-01 BMatC= 1.46D+00 BMatP= 1.46D+00
 IDIUse=3 WtCom= 3.85D-01 WtEn= 6.15D-01
 Coeff-Com:  0.100D+01
 Coeff-En:   0.100D+01
 Coeff:      0.100D+01
 Gap=     0.439 Goal=   None    Shift=    0.000
 GapD=    0.439 DampG=2.000 DampE=0.500 DampFc=1.0000 IDamp=-1.
 RMSDP=3.26D-03 MaxDP=1.37D-01              OVMax= 1.39D-01

 Cycle   2  Pass 1  IDiag  1:
 RMSU=  3.26D-03    CP:  1.01D+00
 E= -1787.99926994201     Delta-E=       -0.182365375743 Rises=F Damp=F
 DIIS: error= 1.75D-02 at cycle   2 NSaved=   2.
 NSaved= 2 IEnMin= 2 EnMin= -1787.99926994201     IErMin= 2 ErrMin= 1.75D-02
 ErrMax= 1.75D-02  0.00D+00 EMaxC= 1.00D-01 BMatC= 5.80D-01 BMatP= 1.46D+00
 IDIUse=3 WtCom= 8.25D-01 WtEn= 1.75D-01
 Coeff-Com:  0.363D+00 0.637D+00
 Coeff-En:   0.382D+00 0.618D+00
 Coeff:      0.366D+00 0.634D+00
 Gap=     0.424 Goal=   None    Shift=    0.000
 RMSDP=1.85D-03 MaxDP=1.23D-01 DE=-1.82D-01 OVMax= 1.23D-01

 Cycle   3  Pass 1  IDiag  1:
 RMSU=  1.16D-03    CP:  1.00D+00  5.56D-01
 E= -1788.27552560869     Delta-E=       -0.276255666680 Rises=F Damp=F
 DIIS: error= 1.16D-02 at cycle   3 NSaved=   3.
 NSaved= 3 IEnMin= 3 EnMin= -1788.27552560869     IErMin= 3 ErrMin= 1.16D-02
 ErrMax= 1.16D-02  0.00D+00 EMaxC= 1.00D-01 BMatC= 1.67D-01 BMatP= 5.80D-01
 IDIUse=3 WtCom= 8.84D-01 WtEn= 1.16D-01
 Coeff-Com:  0.106D+00 0.359D+00 0.535D+00
 Coeff-En:   0.000D+00 0.227D+00 0.773D+00
 Coeff:      0.939D-01 0.344D+00 0.562D+00
 Gap=     0.375 Goal=   None    Shift=    0.000
 RMSDP=8.69D-04 MaxDP=5.81D-02 DE=-2.76D-01 OVMax= 8.08D-02

 Cycle   4  Pass 1  IDiag  1:
 RMSU=  3.70D-04    CP:  1.00D+00  6.82D-01  4.21D-01
 E= -1788.38592335796     Delta-E=       -0.110397749269 Rises=F Damp=F
 DIIS: error= 3.48D-03 at cycle   4 NSaved=   4.
 NSaved= 4 IEnMin= 4 EnMin= -1788.38592335796     IErMin= 4 ErrMin= 3.48D-03
 ErrMax= 3.48D-03  0.00D+00 EMaxC= 1.00D-01 BMatC= 1.52D-02 BMatP= 1.67D-01
 IDIUse=3 WtCom= 9.65D-01 WtEn= 3.48D-02
 Coeff-Com:  0.621D-02 0.962D-01 0.287D+00 0.611D+00
 Coeff-En:   0.000D+00 0.000D+00 0.346D-01 0.965D+00
 Coeff:      0.599D-02 0.929D-01 0.278D+00 0.623D+00
 Gap=     0.364 Goal=   None    Shift=    0.000
 RMSDP=2.46D-04 MaxDP=1.64D-02 DE=-1.10D-01 OVMax= 1.73D-02

 Cycle   5  Pass 1  IDiag  1:
 RMSU=  1.03D-04    CP:  1.00D+00  6.73D-01  5.81D-01  6.75D-01
 E= -1788.39605982270     Delta-E=       -0.010136464742 Rises=F Damp=F
 DIIS: error= 6.06D-04 at cycle   5 NSaved=   5.
 NSaved= 5 IEnMin= 5 EnMin= -1788.39605982270     IErMin= 5 ErrMin= 6.06D-04
 ErrMax= 6.06D-04  0.00D+00 EMaxC= 1.00D-01 BMatC= 7.77D-04 BMatP= 1.52D-02
 IDIUse=3 WtCom= 9.94D-01 WtEn= 6.06D-03
 Coeff-Com: -0.139D-02 0.298D-01 0.114D+00 0.322D+00 0.536D+00
 Coeff-En:   0.000D+00 0.000D+00 0.000D+00 0.000D+00 0.100D+01
 Coeff:     -0.139D-02 0.296D-01 0.113D+00 0.320D+00 0.539D+00
 Gap=     0.360 Goal=   None    Shift=    0.000
 RMSDP=5.10D-05 MaxDP=2.54D-03 DE=-1.01D-02 OVMax= 3.52D-03

 Cycle   6  Pass 1  IDiag  1:
 RMSU=  2.90D-05    CP:  1.00D+00  6.77D-01  5.72D-01  7.09D-01  6.52D-01
 E= -1788.39660886334     Delta-E=       -0.000549040646 Rises=F Damp=F
 DIIS: error= 1.09D-04 at cycle   6 NSaved=   6.
 NSaved= 6 IEnMin= 6 EnMin= -1788.39660886334     IErMin= 6 ErrMin= 1.09D-04
 ErrMax= 1.09D-04  0.00D+00 EMaxC= 1.00D-01 BMatC= 2.28D-05 BMatP= 7.77D-04
 IDIUse=3 WtCom= 9.99D-01 WtEn= 1.09D-03
 Coeff-Com: -0.819D-03-0.968D-03 0.417D-02 0.302D-01 0.165D+00 0.803D+00
 Coeff-En:   0.000D+00 0.000D+00 0.000D+00 0.000D+00 0.000D+00 0.100D+01
 Coeff:     -0.818D-03-0.967D-03 0.416D-02 0.302D-01 0.164D+00 0.803D+00
 Gap=     0.361 Goal=   None    Shift=    0.000
 RMSDP=1.30D-05 MaxDP=7.87D-04 DE=-5.49D-04 OVMax= 8.87D-04

 Cycle   7  Pass 1  IDiag  1:
 RMSU=  9.00D-06    CP:  1.00D+00  6.76D-01  5.75D-01  7.22D-01  7.20D-01
                    CP:  9.66D-01
 E= -1788.39662708223     Delta-E=       -0.000018218883 Rises=F Damp=F
 DIIS: error= 7.04D-05 at cycle   7 NSaved=   7.
 NSaved= 7 IEnMin= 7 EnMin= -1788.39662708223     IErMin= 7 ErrMin= 7.04D-05
 ErrMax= 7.04D-05  0.00D+00 EMaxC= 1.00D-01 BMatC= 3.93D-06 BMatP= 2.28D-05
 IDIUse=1 WtCom= 1.00D+00 WtEn= 0.00D+00
 Coeff-Com: -0.143D-03-0.328D-02-0.867D-02-0.167D-01 0.264D-01 0.360D+00
 Coeff-Com:  0.642D+00
 Coeff:     -0.143D-03-0.328D-02-0.867D-02-0.167D-01 0.264D-01 0.360D+00
 Coeff:      0.642D+00
 Gap=     0.361 Goal=   None    Shift=    0.000
 RMSDP=4.34D-06 MaxDP=2.43D-04 DE=-1.82D-05 OVMax= 3.44D-04

 Cycle   8  Pass 1  IDiag  1:
 RMSU=  2.62D-06    CP:  1.00D+00  6.77D-01  5.76D-01  7.22D-01  7.35D-01
                    CP:  1.05D+00  8.01D-01
 E= -1788.39663075376     Delta-E=       -0.000003671533 Rises=F Damp=F
 DIIS: error= 7.95D-06 at cycle   8 NSaved=   8.
 NSaved= 8 IEnMin= 8 EnMin= -1788.39663075376     IErMin= 8 ErrMin= 7.95D-06
 ErrMax= 7.95D-06  0.00D+00 EMaxC= 1.00D-01 BMatC= 1.55D-07 BMatP= 3.93D-06
 IDIUse=1 WtCom= 1.00D+00 WtEn= 0.00D+00
 Coeff-Com:  0.126D-04-0.838D-03-0.246D-02-0.704D-02-0.623D-02 0.226D-01
 Coeff-Com:  0.144D+00 0.850D+00
 Coeff:      0.126D-04-0.838D-03-0.246D-02-0.704D-02-0.623D-02 0.226D-01
 Coeff:      0.144D+00 0.850D+00
 Gap=     0.361 Goal=   None    Shift=    0.000
 RMSDP=1.56D-06 MaxDP=1.26D-04 DE=-3.67D-06 OVMax= 1.69D-04

 Cycle   9  Pass 1  IDiag  1:
 RMSU=  9.39D-07    CP:  1.00D+00  6.76D-01  5.76D-01  7.22D-01  7.40D-01
                    CP:  1.07D+00  8.80D-01  1.12D+00
 E= -1788.39663093764     Delta-E=       -0.000000183883 Rises=F Damp=F
 DIIS: error= 4.77D-06 at cycle   9 NSaved=   9.
 NSaved= 9 IEnMin= 9 EnMin= -1788.39663093764     IErMin= 9 ErrMin= 4.77D-06
 ErrMax= 4.77D-06  0.00D+00 EMaxC= 1.00D-01 BMatC= 5.27D-08 BMatP= 1.55D-07
 IDIUse=1 WtCom= 1.00D+00 WtEn= 0.00D+00
 Coeff-Com:  0.240D-04 0.114D-03 0.260D-03-0.813D-03-0.723D-02-0.483D-01
 Coeff-Com: -0.318D-01 0.433D+00 0.655D+00
 Coeff:      0.240D-04 0.114D-03 0.260D-03-0.813D-03-0.723D-02-0.483D-01
 Coeff:     -0.318D-01 0.433D+00 0.655D+00
 Gap=     0.361 Goal=   None    Shift=    0.000
 RMSDP=6.25D-07 MaxDP=4.78D-05 DE=-1.84D-07 OVMax= 6.91D-05

 Cycle  10  Pass 1  IDiag  1:
 RMSU=  3.32D-07    CP:  1.00D+00  6.76D-01  5.76D-01  7.22D-01  7.42D-01
                    CP:  1.08D+00  9.03D-01  1.25D+00  8.57D-01
 E= -1788.39663098557     Delta-E=       -0.000000047924 Rises=F Damp=F
 DIIS: error= 1.46D-06 at cycle  10 NSaved=  10.
 NSaved=10 IEnMin=10 EnMin= -1788.39663098557     IErMin=10 ErrMin= 1.46D-06
 ErrMax= 1.46D-06  0.00D+00 EMaxC= 1.00D-01 BMatC= 2.90D-09 BMatP= 5.27D-08
 IDIUse=1 WtCom= 1.00D+00 WtEn= 0.00D+00
 Coeff-Com:  0.760D-05 0.119D-03 0.348D-03 0.347D-03-0.180D-02-0.194D-01
 Coeff-Com: -0.241D-01 0.833D-01 0.233D+00 0.729D+00
 Coeff:      0.760D-05 0.119D-03 0.348D-03 0.347D-03-0.180D-02-0.194D-01
 Coeff:     -0.241D-01 0.833D-01 0.233D+00 0.729D+00
 Gap=     0.361 Goal=   None    Shift=    0.000
 RMSDP=1.75D-07 MaxDP=1.17D-05 DE=-4.79D-08 OVMax= 2.42D-05

 Cycle  11  Pass 1  IDiag  1:
 RMSU=  1.17D-07    CP:  1.00D+00  6.76D-01  5.76D-01  7.22D-01  7.42D-01
                    CP:  1.08D+00  9.08D-01  1.27D+00  9.42D-01  9.56D-01
 E= -1788.39663098807     Delta-E=       -0.000000002497 Rises=F Damp=F
 DIIS: error= 9.36D-07 at cycle  11 NSaved=  11.
 NSaved=11 IEnMin=11 EnMin= -1788.39663098807     IErMin=11 ErrMin= 9.36D-07
 ErrMax= 9.36D-07  0.00D+00 EMaxC= 1.00D-01 BMatC= 7.75D-10 BMatP= 2.90D-09
 IDIUse=1 WtCom= 1.00D+00 WtEn= 0.00D+00
 Coeff-Com:  0.132D-05 0.484D-04 0.158D-03 0.276D-03 0.625D-04-0.406D-02
 Coeff-Com: -0.878D-02-0.126D-01 0.356D-01 0.381D+00 0.609D+00
 Coeff:      0.132D-05 0.484D-04 0.158D-03 0.276D-03 0.625D-04-0.406D-02
 Coeff:     -0.878D-02-0.126D-01 0.356D-01 0.381D+00 0.609D+00
 Gap=     0.361 Goal=   None    Shift=    0.000
 RMSDP=6.70D-08 MaxDP=5.46D-06 DE=-2.50D-09 OVMax= 6.62D-06

 Cycle  12  Pass 1  IDiag  1:
 RMSU=  3.65D-08    CP:  1.00D+00  6.76D-01  5.76D-01  7.22D-01  7.42D-01
                    CP:  1.08D+00  9.09D-01  1.28D+00  9.53D-01  1.06D+00
                    CP:  8.27D-01
 E= -1788.39663098860     Delta-E=       -0.000000000537 Rises=F Damp=F
 DIIS: error= 1.69D-07 at cycle  12 NSaved=  12.
 NSaved=12 IEnMin=12 EnMin= -1788.39663098860     IErMin=12 ErrMin= 1.69D-07
 ErrMax= 1.69D-07  0.00D+00 EMaxC= 1.00D-01 BMatC= 5.44D-11 BMatP= 7.75D-10
 IDIUse=1 WtCom= 1.00D+00 WtEn= 0.00D+00
 Coeff-Com: -0.372D-06 0.270D-05 0.188D-04 0.526D-04 0.300D-03 0.973D-03
 Coeff-Com: -0.103D-04-0.142D-01-0.169D-01 0.336D-01 0.195D+00 0.801D+00
 Coeff:     -0.372D-06 0.270D-05 0.188D-04 0.526D-04 0.300D-03 0.973D-03
 Coeff:     -0.103D-04-0.142D-01-0.169D-01 0.336D-01 0.195D+00 0.801D+00
 Gap=     0.361 Goal=   None    Shift=    0.000
 RMSDP=2.40D-08 MaxDP=1.57D-06 DE=-5.37D-10 OVMax= 2.28D-06

 Cycle  13  Pass 1  IDiag  1:
 RMSU=  1.22D-08    CP:  1.00D+00  6.76D-01  5.76D-01  7.22D-01  7.42D-01
                    CP:  1.08D+00  9.09D-01  1.28D+00  9.63D-01  1.09D+00
                    CP:  9.03D-01  9.53D-01
 E= -1788.39663098864     Delta-E=       -0.000000000041 Rises=F Damp=F
 DIIS: error= 7.29D-08 at cycle  13 NSaved=  13.
 NSaved=13 IEnMin=13 EnMin= -1788.39663098864     IErMin=13 ErrMin= 7.29D-08
 ErrMax= 7.29D-08  0.00D+00 EMaxC= 1.00D-01 BMatC= 6.41D-12 BMatP= 5.44D-11
 IDIUse=1 WtCom= 1.00D+00 WtEn= 0.00D+00
 Coeff-Com: -0.305D-06-0.375D-05-0.637D-05-0.498D-05 0.130D-03 0.811D-03
 Coeff-Com:  0.897D-03-0.454D-02-0.105D-01-0.261D-01 0.170D-01 0.328D+00
 Coeff-Com:  0.694D+00
 Coeff:     -0.305D-06-0.375D-05-0.637D-05-0.498D-05 0.130D-03 0.811D-03
 Coeff:      0.897D-03-0.454D-02-0.105D-01-0.261D-01 0.170D-01 0.328D+00
 Coeff:      0.694D+00
 Gap=     0.361 Goal=   None    Shift=    0.000
 RMSDP=6.87D-09 MaxDP=3.36D-07 DE=-4.09D-11 OVMax= 6.30D-07

 Error on total polarization charges =  0.00454
 SCF Done:  E(RCAM-B3LYP) =  -1788.39663099     A.U. after   13 cycles
            NFock= 13  Conv=0.69D-08     -V/T= 2.0077
 KE= 1.774711968972D+03 PE=-1.048264603806D+04 EE= 3.785641258576D+03
 Leave Link  502 at Sun Mar  3 17:58:31 2024, MaxMem=  5368709120 cpu:       699.4
 (Enter /home/k0335/k033513/app/g09/l601.exe)
 Copying SCF densities to generalized density rwf, IOpCl= 0 IROHF=0.

 **********************************************************************

            Population analysis using the SCF density.

 **********************************************************************

 Alpha  occ. eigenvalues --  -24.83696 -24.83466 -24.83377 -24.83310 -24.82683
 Alpha  occ. eigenvalues --  -24.82637 -24.82527 -24.82470 -24.81775 -19.33059
 Alpha  occ. eigenvalues --  -19.23214 -19.23103 -19.22438 -14.51790 -14.49413
 Alpha  occ. eigenvalues --  -14.49173 -10.59544 -10.55253 -10.52894 -10.48879
 Alpha  occ. eigenvalues --  -10.44798 -10.44792 -10.43577 -10.30882 -10.30670
 Alpha  occ. eigenvalues --  -10.26115 -10.24988  -1.43159  -1.41593  -1.38502
 Alpha  occ. eigenvalues --   -1.34928  -1.33427  -1.33208  -1.32593  -1.32030
 Alpha  occ. eigenvalues --   -1.31421  -1.21582  -1.20418  -1.16674  -1.16118
 Alpha  occ. eigenvalues --   -1.08584  -1.06096  -1.04692  -0.93152  -0.88271
 Alpha  occ. eigenvalues --   -0.84740  -0.82689  -0.81740  -0.80501  -0.77840
 Alpha  occ. eigenvalues --   -0.75142  -0.74672  -0.72891  -0.72499  -0.70728
 Alpha  occ. eigenvalues --   -0.70323  -0.69578  -0.68637  -0.68284  -0.67178
 Alpha  occ. eigenvalues --   -0.66785  -0.65708  -0.64876  -0.61228  -0.59959
 Alpha  occ. eigenvalues --   -0.59210  -0.57411  -0.57085  -0.56167  -0.56047
 Alpha  occ. eigenvalues --   -0.55604  -0.55446  -0.54896  -0.54432  -0.54403
 Alpha  occ. eigenvalues --   -0.54226  -0.53884  -0.53257  -0.52912  -0.52656
 Alpha  occ. eigenvalues --   -0.51998  -0.51753  -0.51432  -0.51233  -0.50224
 Alpha  occ. eigenvalues --   -0.50189  -0.50017  -0.49658  -0.49016  -0.48345
 Alpha  occ. eigenvalues --   -0.48220  -0.47521  -0.47445  -0.45775  -0.45581
 Alpha  occ. eigenvalues --   -0.44071  -0.43647  -0.41872  -0.40194  -0.39283
 Alpha  occ. eigenvalues --   -0.38802  -0.37713  -0.35625  -0.34996  -0.34686
 Alpha virt. eigenvalues --    0.01381   0.02841   0.07290   0.08096   0.11349
 Alpha virt. eigenvalues --    0.14214   0.16319   0.16863   0.17499   0.17813
 Alpha virt. eigenvalues --    0.17887   0.19084   0.19380   0.19716   0.20301
 Alpha virt. eigenvalues --    0.21033   0.21945   0.22655   0.22758   0.22980
 Alpha virt. eigenvalues --    0.23484   0.23939   0.24333   0.24983   0.25504
 Alpha virt. eigenvalues --    0.26657   0.27406   0.27992   0.28466   0.28731
 Alpha virt. eigenvalues --    0.29549   0.30659   0.31031   0.33588   0.36570
 Alpha virt. eigenvalues --    0.38237   0.40407   0.40944   0.41987   0.48036
 Alpha virt. eigenvalues --    0.48770   0.50739   0.51350   0.52191   0.53237
 Alpha virt. eigenvalues --    0.54216   0.55320   0.55718   0.55933   0.56667
 Alpha virt. eigenvalues --    0.56906   0.58117   0.58782   0.59101   0.60036
 Alpha virt. eigenvalues --    0.60271   0.61594   0.62527   0.63369   0.63787
 Alpha virt. eigenvalues --    0.66168   0.68329   0.69786   0.70514   0.71723
 Alpha virt. eigenvalues --    0.72126   0.72921   0.73821   0.74338   0.76672
 Alpha virt. eigenvalues --    0.76888   0.80852   0.82680   0.83576   0.84327
 Alpha virt. eigenvalues --    0.86295   0.86941   0.87283   0.88604   0.89605
 Alpha virt. eigenvalues --    0.89822   0.91213   0.91931   0.92295   0.93569
 Alpha virt. eigenvalues --    0.94020   0.94844   0.95132   0.96465   0.96548
 Alpha virt. eigenvalues --    0.97428   0.98383   0.98890   0.99594   1.00456
 Alpha virt. eigenvalues --    1.01814   1.02922   1.04382   1.05227   1.06681
 Alpha virt. eigenvalues --    1.07211   1.08128   1.09554   1.09934   1.11845
 Alpha virt. eigenvalues --    1.13629   1.14515   1.14898   1.15966   1.16850
 Alpha virt. eigenvalues --    1.17786   1.18125   1.19455   1.20646   1.21832
 Alpha virt. eigenvalues --    1.22212   1.22978   1.23193   1.25514   1.27390
 Alpha virt. eigenvalues --    1.28086   1.29451   1.29938   1.31519   1.32755
 Alpha virt. eigenvalues --    1.33476   1.34233   1.34289   1.35167   1.36065
 Alpha virt. eigenvalues --    1.36942   1.38232   1.39087   1.39797   1.40451
 Alpha virt. eigenvalues --    1.41467   1.42307   1.42671   1.43706   1.44592
 Alpha virt. eigenvalues --    1.45722   1.47528   1.48753   1.49218   1.49970
 Alpha virt. eigenvalues --    1.51420   1.52868   1.53669   1.54212   1.54986
 Alpha virt. eigenvalues --    1.55534   1.58049   1.59015   1.59520   1.60115
 Alpha virt. eigenvalues --    1.61839   1.62957   1.63529   1.66386   1.67590
 Alpha virt. eigenvalues --    1.69369   1.70323   1.70891   1.71140   1.73844
 Alpha virt. eigenvalues --    1.74666   1.75710   1.76769   1.77646   1.78628
 Alpha virt. eigenvalues --    1.79327   1.80471   1.80946   1.81953   1.82821
 Alpha virt. eigenvalues --    1.83333   1.84007   1.85689   1.86043   1.86618
 Alpha virt. eigenvalues --    1.87362   1.88064   1.88538   1.89531   1.89844
 Alpha virt. eigenvalues --    1.90670   1.91166   1.91688   1.92369   1.92913
 Alpha virt. eigenvalues --    1.93669   1.94157   1.94340   1.94720   1.95625
 Alpha virt. eigenvalues --    1.97030   1.97327   1.98044   1.99010   1.99622
 Alpha virt. eigenvalues --    1.99990   2.00407   2.01135   2.01626   2.02240
 Alpha virt. eigenvalues --    2.02545   2.03195   2.03632   2.04032   2.04757
 Alpha virt. eigenvalues --    2.05541   2.05922   2.07286   2.08520   2.09200
 Alpha virt. eigenvalues --    2.10117   2.10416   2.12092   2.12290   2.12376
 Alpha virt. eigenvalues --    2.13682   2.13991   2.15740   2.16323   2.16848
 Alpha virt. eigenvalues --    2.17766   2.18205   2.18703   2.19484   2.20430
 Alpha virt. eigenvalues --    2.21625   2.22896   2.25090   2.26866   2.27508
 Alpha virt. eigenvalues --    2.28508   2.28798   2.31235   2.31469   2.33188
 Alpha virt. eigenvalues --    2.33890   2.34422   2.34934   2.36459   2.37969
 Alpha virt. eigenvalues --    2.38897   2.41092   2.42199   2.43186   2.46059
 Alpha virt. eigenvalues --    2.46733   2.47195   2.48121   2.49069   2.50498
 Alpha virt. eigenvalues --    2.51954   2.54558   2.54850   2.55801   2.56653
 Alpha virt. eigenvalues --    2.57686   2.59722   2.63025   2.63367   2.64833
 Alpha virt. eigenvalues --    2.66816   2.67720   2.68227   2.69924   2.70817
 Alpha virt. eigenvalues --    2.73524   2.74078   2.75434   2.75868   2.78113
 Alpha virt. eigenvalues --    2.78812   2.79801   2.80876   2.82974   2.83564
 Alpha virt. eigenvalues --    2.84334   2.84421   2.89197   2.89906   2.91076
 Alpha virt. eigenvalues --    2.92074   2.93982   2.94241   2.95433   2.96086
 Alpha virt. eigenvalues --    2.97148   2.97690   2.98233   2.99203   2.99317
 Alpha virt. eigenvalues --    3.01184   3.04516   3.05445   3.06604   3.06894
 Alpha virt. eigenvalues --    3.08080   3.09135   3.14827   3.15671   3.18613
 Alpha virt. eigenvalues --    3.20561   3.21810   3.23165   3.25881   3.26475
 Alpha virt. eigenvalues --    3.27514   3.30423   3.32947   3.34881   3.40648
 Alpha virt. eigenvalues --    3.41154   3.44376   3.47635   3.51952   3.53502
 Alpha virt. eigenvalues --    3.56724   3.57475   3.64449   4.05183   4.12700
 Alpha virt. eigenvalues --    4.16318   4.17540   4.28251   4.30067   4.33810
 Alpha virt. eigenvalues --    4.35663   4.42260   4.43338   4.47950   4.51186
 Alpha virt. eigenvalues --    4.56048   4.58777   4.64584   4.66195   4.70584
 Alpha virt. eigenvalues --    4.79101   4.80507   4.89799   5.06528   5.22008
 Alpha virt. eigenvalues --    5.39725   5.47646   5.79610   6.28097   6.38633
          Condensed to atoms (all electrons):
               1          2          3          4          5          6
     1  C    4.897554   0.367463  -0.044221   0.003580  -0.000077  -0.000032
     2  C    0.367463   4.905111   0.372187  -0.047312  -0.002439  -0.003340
     3  C   -0.044221   0.372187   4.821193   0.245295  -0.023982   0.001256
     4  N    0.003580  -0.047312   0.245295   7.316558   0.261683  -0.090603
     5  C   -0.000077  -0.002439  -0.023982   0.261683   4.148797   0.604822
     6  O   -0.000032  -0.003340   0.001256  -0.090603   0.604822   8.082736
     7  N    0.000000  -0.000203   0.003438  -0.101742   0.261119  -0.091691
     8  C    0.000000   0.000009  -0.000062   0.003476  -0.027014   0.000546
     9  C    0.000000  -0.000032  -0.000121  -0.002494  -0.022056   0.000336
    10  O    0.000000   0.000000   0.000001   0.000106   0.000406  -0.000024
    11  N    0.000000  -0.000196   0.002921  -0.101080  -0.002358   0.000027
    12  C    0.000000   0.000009  -0.000017   0.003260   0.000388   0.000002
    13  F    0.000000   0.000000   0.000000  -0.000022   0.000001   0.000000
    14  F    0.000000   0.000000   0.000000  -0.000004   0.000010   0.000000
    15  C    0.000000   0.000000  -0.000014  -0.000251  -0.000011   0.000000
    16  F    0.000000   0.000000   0.000003  -0.000004   0.000000   0.000000
    17  O    0.000000   0.000000   0.000003  -0.000210   0.000006   0.000000
    18  C    0.000000   0.000000   0.000000  -0.000007   0.000000   0.000000
    19  F    0.000000   0.000000   0.000000   0.000000   0.000000   0.000000
    20  F    0.000000   0.000000   0.000000   0.000000   0.000000   0.000000
    21  F    0.000000   0.000000   0.000000   0.000000   0.000000   0.000000
    22  C    0.000000   0.000000   0.000000   0.000000   0.000000   0.000000
    23  F    0.000000   0.000000   0.000000   0.000000   0.000000   0.000000
    24  F    0.000000   0.000000   0.000000   0.000000   0.000000   0.000000
    25  F    0.000000   0.000000   0.000000   0.000000   0.000000   0.000000
    26  C   -0.000042  -0.003293  -0.025764   0.256582  -0.021009   0.000209
    27  O   -0.000033  -0.003202   0.000968  -0.094093   0.000178  -0.000026
    28  H    0.392293  -0.036992  -0.005016   0.000052  -0.000027   0.000013
    29  H    0.387801  -0.027319   0.004106  -0.000119  -0.000003   0.000000
    30  H    0.392520  -0.036836  -0.005212   0.000054   0.000010  -0.000002
    31  H   -0.033122   0.391445  -0.036552  -0.005419  -0.000199   0.000072
    32  H   -0.033231   0.389936  -0.036433  -0.005485   0.004820   0.004121
    33  H   -0.001105  -0.038574   0.387069  -0.033229  -0.004830   0.008634
    34  H   -0.001152  -0.038900   0.387352  -0.033274   0.004341   0.000504
    35  H    0.000000  -0.000003   0.000006  -0.000035  -0.001657   0.000848
    36  H    0.000000   0.000000   0.000001  -0.000074   0.003915   0.000578
    37  H    0.000000   0.000001  -0.000006   0.000342  -0.003986   0.007329
               7          8          9         10         11         12
     1  C    0.000000   0.000000   0.000000   0.000000   0.000000   0.000000
     2  C   -0.000203   0.000009  -0.000032   0.000000  -0.000196   0.000009
     3  C    0.003438  -0.000062  -0.000121   0.000001   0.002921  -0.000017
     4  N   -0.101742   0.003476  -0.002494   0.000106  -0.101080   0.003260
     5  C    0.261119  -0.027014  -0.022056   0.000406  -0.002358   0.000388
     6  O   -0.091691   0.000546   0.000336  -0.000024   0.000027   0.000002
     7  N    7.254181   0.259477   0.275004  -0.093125  -0.096677   0.002961
     8  C    0.259477   4.789949  -0.027978   0.001397   0.003545  -0.000031
     9  C    0.275004  -0.027978   4.173511   0.598537   0.194056  -0.002621
    10  O   -0.093125   0.001397   0.598537   8.068999  -0.090177   0.018123
    11  N   -0.096677   0.003545   0.194056  -0.090177   7.579787   0.166131
    12  C    0.002961  -0.000031  -0.002621   0.018123   0.166131   4.292686
    13  F   -0.000110   0.000010   0.004608  -0.011142  -0.038015   0.253228
    14  F    0.000021   0.000002   0.005826  -0.002707  -0.067338   0.284223
    15  C   -0.000079   0.000001   0.003856   0.000276  -0.029785   0.244536
    16  F    0.000000   0.000000  -0.000053   0.000000  -0.001164  -0.021696
    17  O   -0.000004   0.000000  -0.000061   0.000000  -0.001823  -0.026631
    18  C    0.000000   0.000000   0.000003   0.000000  -0.000039   0.000865
    19  F    0.000000   0.000000   0.000000   0.000000   0.000001  -0.000132
    20  F    0.000000   0.000000   0.000000   0.000000   0.000000  -0.000045
    21  F    0.000000   0.000000   0.000000   0.000000  -0.000003   0.000232
    22  C    0.000000   0.000000  -0.000068  -0.000001   0.002383  -0.026032
    23  F    0.000000   0.000000   0.000002   0.000000  -0.000055  -0.002343
    24  F    0.000000   0.000000   0.000000   0.000000  -0.000008   0.001403
    25  F    0.000000   0.000000   0.000005   0.000000   0.000046   0.010231
    26  C   -0.005376   0.000153  -0.014440  -0.000229   0.207427  -0.008457
    27  O    0.000118   0.000002  -0.000092  -0.000021  -0.094092   0.011908
    28  H    0.000000   0.000000   0.000000   0.000000   0.000000   0.000000
    29  H    0.000000   0.000000   0.000000   0.000000   0.000000   0.000000
    30  H    0.000000   0.000000   0.000000   0.000000   0.000000   0.000000
    31  H    0.000004   0.000000   0.000000   0.000000  -0.000004   0.000000
    32  H   -0.000119   0.000006  -0.000001   0.000000   0.000004   0.000000
    33  H    0.000385  -0.000011   0.000021   0.000000  -0.000107  -0.000001
    34  H   -0.000113   0.000001   0.000024   0.000000   0.000302  -0.000010
    35  H   -0.042072   0.401318  -0.002953   0.001146  -0.000081   0.000009
    36  H   -0.030386   0.388396  -0.002875   0.005693   0.000281  -0.000003
    37  H   -0.030923   0.388111   0.004366   0.000586  -0.000066  -0.000001
              13         14         15         16         17         18
     1  C    0.000000   0.000000   0.000000   0.000000   0.000000   0.000000
     2  C    0.000000   0.000000   0.000000   0.000000   0.000000   0.000000
     3  C    0.000000   0.000000  -0.000014   0.000003   0.000003   0.000000
     4  N   -0.000022  -0.000004  -0.000251  -0.000004  -0.000210  -0.000007
     5  C    0.000001   0.000010  -0.000011   0.000000   0.000006   0.000000
     6  O    0.000000   0.000000   0.000000   0.000000   0.000000   0.000000
     7  N   -0.000110   0.000021  -0.000079   0.000000  -0.000004   0.000000
     8  C    0.000010   0.000002   0.000001   0.000000   0.000000   0.000000
     9  C    0.004608   0.005826   0.003856  -0.000053  -0.000061   0.000003
    10  O   -0.011142  -0.002707   0.000276   0.000000   0.000000   0.000000
    11  N   -0.038015  -0.067338  -0.029785  -0.001164  -0.001823  -0.000039
    12  C    0.253228   0.284223   0.244536  -0.021696  -0.026631   0.000865
    13  F    9.127428  -0.036261  -0.035724   0.000328   0.000648  -0.000035
    14  F   -0.036261   9.097218  -0.025336   0.000212   0.000548   0.000004
    15  C   -0.035724  -0.025336   4.967066   0.203344   0.133227  -0.000206
    16  F    0.000328   0.000212   0.203344   9.142697  -0.044143  -0.001066
    17  O    0.000648   0.000548   0.133227  -0.044143   8.378090   0.236084
    18  C   -0.000035   0.000004  -0.000206  -0.001066   0.236084   3.819844
    19  F    0.000001   0.000000  -0.008963  -0.000021  -0.048210   0.303249
    20  F    0.000000   0.000000   0.000577  -0.000021  -0.039728   0.338190
    21  F    0.000000   0.000000   0.012547  -0.002926  -0.044385   0.299353
    22  C    0.012578  -0.004547   0.220765  -0.010842  -0.025454  -0.002544
    23  F   -0.003046  -0.000012  -0.034223   0.000317   0.000389  -0.000295
    24  F    0.000004  -0.000002  -0.031728  -0.000372  -0.001409   0.011405
    25  F   -0.001921  -0.000362  -0.033917  -0.000288   0.000548   0.000063
    26  C    0.001963   0.005684  -0.009080   0.003399   0.004707   0.000098
    27  O    0.000023  -0.000892   0.009707  -0.014284  -0.003989   0.000354
    28  H    0.000000   0.000000   0.000000   0.000000   0.000000   0.000000
    29  H    0.000000   0.000000   0.000000   0.000000   0.000000   0.000000
    30  H    0.000000   0.000000   0.000000   0.000000   0.000000   0.000000
    31  H    0.000000   0.000000   0.000000   0.000000   0.000000   0.000000
    32  H    0.000000   0.000000   0.000000   0.000000   0.000000   0.000000
    33  H    0.000000   0.000000   0.000000   0.000000   0.000000   0.000000
    34  H    0.000000   0.000000   0.000005  -0.000001  -0.000003   0.000004
    35  H    0.000000   0.000000   0.000000   0.000000   0.000000   0.000000
    36  H   -0.000004   0.000000   0.000000   0.000000   0.000000   0.000000
    37  H    0.000000   0.000000   0.000000   0.000000   0.000000   0.000000
              19         20         21         22         23         24
     1  C    0.000000   0.000000   0.000000   0.000000   0.000000   0.000000
     2  C    0.000000   0.000000   0.000000   0.000000   0.000000   0.000000
     3  C    0.000000   0.000000   0.000000   0.000000   0.000000   0.000000
     4  N    0.000000   0.000000   0.000000   0.000000   0.000000   0.000000
     5  C    0.000000   0.000000   0.000000   0.000000   0.000000   0.000000
     6  O    0.000000   0.000000   0.000000   0.000000   0.000000   0.000000
     7  N    0.000000   0.000000   0.000000   0.000000   0.000000   0.000000
     8  C    0.000000   0.000000   0.000000   0.000000   0.000000   0.000000
     9  C    0.000000   0.000000   0.000000  -0.000068   0.000002   0.000000
    10  O    0.000000   0.000000   0.000000  -0.000001   0.000000   0.000000
    11  N    0.000001   0.000000  -0.000003   0.002383  -0.000055  -0.000008
    12  C   -0.000132  -0.000045   0.000232  -0.026032  -0.002343   0.001403
    13  F    0.000001   0.000000   0.000000   0.012578  -0.003046   0.000004
    14  F    0.000000   0.000000   0.000000  -0.004547  -0.000012  -0.000002
    15  C   -0.008963   0.000577   0.012547   0.220765  -0.034223  -0.031728
    16  F   -0.000021  -0.000021  -0.002926  -0.010842   0.000317  -0.000372
    17  O   -0.048210  -0.039728  -0.044385  -0.025454   0.000389  -0.001409
    18  C    0.303249   0.338190   0.299353  -0.002544  -0.000295   0.011405
    19  F    9.060321  -0.037900  -0.034335   0.017211  -0.000483  -0.005939
    20  F   -0.037900   9.016340  -0.036402  -0.000035   0.000000  -0.000002
    21  F   -0.034335  -0.036402   9.049787  -0.004707   0.000013  -0.001082
    22  C    0.017211  -0.000035  -0.004707   4.162976   0.270789   0.282472
    23  F   -0.000483   0.000000   0.000013   0.270789   9.092997  -0.039151
    24  F   -0.005939  -0.000002  -0.001082   0.282472  -0.039151   9.083335
    25  F    0.000000   0.000000   0.000000   0.289969  -0.037062  -0.038685
    26  C    0.000001  -0.000007   0.000004   0.000303   0.000000  -0.000001
    27  O    0.000000  -0.000003  -0.000019   0.000352   0.000000   0.000000
    28  H    0.000000   0.000000   0.000000   0.000000   0.000000   0.000000
    29  H    0.000000   0.000000   0.000000   0.000000   0.000000   0.000000
    30  H    0.000000   0.000000   0.000000   0.000000   0.000000   0.000000
    31  H    0.000000   0.000000   0.000000   0.000000   0.000000   0.000000
    32  H    0.000000   0.000000   0.000000   0.000000   0.000000   0.000000
    33  H    0.000000   0.000000   0.000000   0.000000   0.000000   0.000000
    34  H    0.000000   0.000000   0.000000   0.000000   0.000000   0.000000
    35  H    0.000000   0.000000   0.000000   0.000000   0.000000   0.000000
    36  H    0.000000   0.000000   0.000000   0.000000   0.000000   0.000000
    37  H    0.000000   0.000000   0.000000   0.000000   0.000000   0.000000
              25         26         27         28         29         30
     1  C    0.000000  -0.000042  -0.000033   0.392293   0.387801   0.392520
     2  C    0.000000  -0.003293  -0.003202  -0.036992  -0.027319  -0.036836
     3  C    0.000000  -0.025764   0.000968  -0.005016   0.004106  -0.005212
     4  N    0.000000   0.256582  -0.094093   0.000052  -0.000119   0.000054
     5  C    0.000000  -0.021009   0.000178  -0.000027  -0.000003   0.000010
     6  O    0.000000   0.000209  -0.000026   0.000013   0.000000  -0.000002
     7  N    0.000000  -0.005376   0.000118   0.000000   0.000000   0.000000
     8  C    0.000000   0.000153   0.000002   0.000000   0.000000   0.000000
     9  C    0.000005  -0.014440  -0.000092   0.000000   0.000000   0.000000
    10  O    0.000000  -0.000229  -0.000021   0.000000   0.000000   0.000000
    11  N    0.000046   0.207427  -0.094092   0.000000   0.000000   0.000000
    12  C    0.010231  -0.008457   0.011908   0.000000   0.000000   0.000000
    13  F   -0.001921   0.001963   0.000023   0.000000   0.000000   0.000000
    14  F   -0.000362   0.005684  -0.000892   0.000000   0.000000   0.000000
    15  C   -0.033917  -0.009080   0.009707   0.000000   0.000000   0.000000
    16  F   -0.000288   0.003399  -0.014284   0.000000   0.000000   0.000000
    17  O    0.000548   0.004707  -0.003989   0.000000   0.000000   0.000000
    18  C    0.000063   0.000098   0.000354   0.000000   0.000000   0.000000
    19  F    0.000000   0.000001   0.000000   0.000000   0.000000   0.000000
    20  F    0.000000  -0.000007  -0.000003   0.000000   0.000000   0.000000
    21  F    0.000000   0.000004  -0.000019   0.000000   0.000000   0.000000
    22  C    0.289969   0.000303   0.000352   0.000000   0.000000   0.000000
    23  F   -0.037062   0.000000   0.000000   0.000000   0.000000   0.000000
    24  F   -0.038685  -0.000001   0.000000   0.000000   0.000000   0.000000
    25  F    9.053865  -0.000001   0.000000   0.000000   0.000000   0.000000
    26  C   -0.000001   4.188172   0.586961   0.000011  -0.000004  -0.000024
    27  O    0.000000   0.586961   8.095658  -0.000002   0.000000   0.000018
    28  H    0.000000   0.000011  -0.000002   0.593391  -0.028849  -0.031834
    29  H    0.000000  -0.000004   0.000000  -0.028849   0.585710  -0.028826
    30  H    0.000000  -0.000024   0.000018  -0.031834  -0.028826   0.592690
    31  H    0.000000   0.004487   0.004359   0.004963  -0.003465  -0.004811
    32  H    0.000000  -0.000138   0.000085  -0.004830  -0.003464   0.004974
    33  H    0.000000   0.004859   0.000496   0.004240  -0.000100  -0.000434
    34  H    0.000000  -0.003883   0.007070  -0.000438  -0.000092   0.004243
    35  H    0.000000  -0.000085   0.000000   0.000000   0.000000   0.000000
    36  H    0.000000   0.000005   0.000000   0.000000   0.000000   0.000000
    37  H    0.000000   0.000007   0.000000   0.000000   0.000000   0.000000
              31         32         33         34         35         36
     1  C   -0.033122  -0.033231  -0.001105  -0.001152   0.000000   0.000000
     2  C    0.391445   0.389936  -0.038574  -0.038900  -0.000003   0.000000
     3  C   -0.036552  -0.036433   0.387069   0.387352   0.000006   0.000001
     4  N   -0.005419  -0.005485  -0.033229  -0.033274  -0.000035  -0.000074
     5  C   -0.000199   0.004820  -0.004830   0.004341  -0.001657   0.003915
     6  O    0.000072   0.004121   0.008634   0.000504   0.000848   0.000578
     7  N    0.000004  -0.000119   0.000385  -0.000113  -0.042072  -0.030386
     8  C    0.000000   0.000006  -0.000011   0.000001   0.401318   0.388396
     9  C    0.000000  -0.000001   0.000021   0.000024  -0.002953  -0.002875
    10  O    0.000000   0.000000   0.000000   0.000000   0.001146   0.005693
    11  N   -0.000004   0.000004  -0.000107   0.000302  -0.000081   0.000281
    12  C    0.000000   0.000000  -0.000001  -0.000010   0.000009  -0.000003
    13  F    0.000000   0.000000   0.000000   0.000000   0.000000  -0.000004
    14  F    0.000000   0.000000   0.000000   0.000000   0.000000   0.000000
    15  C    0.000000   0.000000   0.000000   0.000005   0.000000   0.000000
    16  F    0.000000   0.000000   0.000000  -0.000001   0.000000   0.000000
    17  O    0.000000   0.000000   0.000000  -0.000003   0.000000   0.000000
    18  C    0.000000   0.000000   0.000000   0.000004   0.000000   0.000000
    19  F    0.000000   0.000000   0.000000   0.000000   0.000000   0.000000
    20  F    0.000000   0.000000   0.000000   0.000000   0.000000   0.000000
    21  F    0.000000   0.000000   0.000000   0.000000   0.000000   0.000000
    22  C    0.000000   0.000000   0.000000   0.000000   0.000000   0.000000
    23  F    0.000000   0.000000   0.000000   0.000000   0.000000   0.000000
    24  F    0.000000   0.000000   0.000000   0.000000   0.000000   0.000000
    25  F    0.000000   0.000000   0.000000   0.000000   0.000000   0.000000
    26  C    0.004487  -0.000138   0.004859  -0.003883  -0.000085   0.000005
    27  O    0.004359   0.000085   0.000496   0.007070   0.000000   0.000000
    28  H    0.004963  -0.004830   0.004240  -0.000438   0.000000   0.000000
    29  H   -0.003465  -0.003464  -0.000100  -0.000092   0.000000   0.000000
    30  H   -0.004811   0.004974  -0.000434   0.004243   0.000000   0.000000
    31  H    0.596039  -0.036171   0.004847  -0.005596   0.000000   0.000000
    32  H   -0.036171   0.599988  -0.005648   0.004953   0.000007   0.000000
    33  H    0.004847  -0.005648   0.555696  -0.030147   0.000000   0.000000
    34  H   -0.005596   0.004953  -0.030147   0.559740   0.000000   0.000000
    35  H    0.000000   0.000007   0.000000   0.000000   0.546975  -0.028733
    36  H    0.000000   0.000000   0.000000   0.000000  -0.028733   0.527484
    37  H    0.000000  -0.000001   0.000002   0.000000  -0.029241  -0.023432
              37
     1  C    0.000000
     2  C    0.000001
     3  C   -0.000006
     4  N    0.000342
     5  C   -0.003986
     6  O    0.007329
     7  N   -0.030923
     8  C    0.388111
     9  C    0.004366
    10  O    0.000586
    11  N   -0.000066
    12  C   -0.000001
    13  F    0.000000
    14  F    0.000000
    15  C    0.000000
    16  F    0.000000
    17  O    0.000000
    18  C    0.000000
    19  F    0.000000
    20  F    0.000000
    21  F    0.000000
    22  C    0.000000
    23  F    0.000000
    24  F    0.000000
    25  F    0.000000
    26  C    0.000007
    27  O    0.000000
    28  H    0.000000
    29  H    0.000000
    30  H    0.000000
    31  H    0.000000
    32  H   -0.000001
    33  H    0.000002
    34  H    0.000000
    35  H   -0.029241
    36  H   -0.023432
    37  H    0.525080
 Mulliken charges:
               1
     1  C   -0.328196
     2  C   -0.187520
     3  C   -0.048400
     4  N   -0.575529
     5  C    0.819152
     6  O   -0.526313
     7  N   -0.564087
     8  C   -0.181303
     9  C    0.815689
    10  O   -0.497843
    11  N   -0.633846
    12  C    0.797827
    13  F   -0.274540
    14  F   -0.256288
    15  C    0.413411
    16  F   -0.253419
    17  O   -0.518198
    18  C    0.994677
    19  F   -0.244801
    20  F   -0.240964
    21  F   -0.238078
    22  C    0.814431
    23  F   -0.247836
    24  F   -0.260238
    25  F   -0.242491
    26  C    0.826802
    27  O   -0.507509
    28  H    0.113025
    29  H    0.114624
    30  H    0.113469
    31  H    0.119124
    32  H    0.116627
    33  H    0.147936
    34  H    0.145070
    35  H    0.154553
    36  H    0.159153
    37  H    0.161833
 Sum of Mulliken charges =   0.00000
 Mulliken charges with hydrogens summed into heavy atoms:
               1
     1  C    0.012922
     2  C    0.048231
     3  C    0.244606
     4  N   -0.575529
     5  C    0.819152
     6  O   -0.526313
     7  N   -0.564087
     8  C    0.294236
     9  C    0.815689
    10  O   -0.497843
    11  N   -0.633846
    12  C    0.797827
    13  F   -0.274540
    14  F   -0.256288
    15  C    0.413411
    16  F   -0.253419
    17  O   -0.518198
    18  C    0.994677
    19  F   -0.244801
    20  F   -0.240964
    21  F   -0.238078
    22  C    0.814431
    23  F   -0.247836
    24  F   -0.260238
    25  F   -0.242491
    26  C    0.826802
    27  O   -0.507509
 Electronic spatial extent (au):  <R**2>=          10316.6570
 Charge=              0.0000 electrons
 Dipole moment (field-independent basis, Debye):
    X=             -2.4295    Y=             -0.2797    Z=              1.6193  Tot=              2.9330
 Quadrupole moment (field-independent basis, Debye-Ang):
   XX=           -154.4923   YY=           -147.5879   ZZ=           -148.6168
   XY=             -1.7805   XZ=              5.5569   YZ=              2.4706
 Traceless Quadrupole moment (field-independent basis, Debye-Ang):
   XX=             -4.2600   YY=              2.6444   ZZ=              1.6155
   XY=             -1.7805   XZ=              5.5569   YZ=              2.4706
 Octapole moment (field-independent basis, Debye-Ang**2):
  XXX=           -378.8576  YYY=            -30.6446  ZZZ=              8.2042  XYY=           -163.9957
  XXY=            -32.7671  XXZ=            -12.0629  XZZ=           -129.6866  YZZ=            -13.1005
  YYZ=             27.8708  XYZ=              5.5081
 Hexadecapole moment (field-independent basis, Debye-Ang**3):
 XXXX=          -7691.9781 YYYY=          -2807.2291 ZZZZ=           -995.2323 XXXY=            301.2313
 XXXZ=            212.5867 YYYX=            115.9013 YYYZ=            159.8309 ZZZX=            150.5009
 ZZZY=             87.2911 XXYY=          -1698.2642 XXZZ=          -1424.6879 YYZZ=           -640.4664
 XXYZ=              4.4793 YYXZ=             53.9051 ZZXY=             84.2443
 N-N= 3.133896179521D+03 E-N=-1.048264603855D+04  KE= 1.774711968972D+03
 No NMR shielding tensors so no spin-rotation constants.
 Leave Link  601 at Sun Mar  3 17:58:31 2024, MaxMem=  5368709120 cpu:         2.4
 (Enter /home/k0335/k033513/app/g09/l9999.exe)
 1\1\GINC-C18U05N1\SP\RCAM-B3LYP\6-31G(d,p)\C11H10F9N3O4\K033513\03-Mar
 -2024\0\\#p CAM-B3LYP/6-31G(d,p) SCRF=(PCM,Solvent=Generic,Read) NoSym
 m out=wfn\\Title A903371600_0\\0,1\C,0,-4.010892,-2.662761,-0.524433\C
 ,0,-3.144078,-1.422273,-0.664977\C,0,-2.287784,-1.193964,0.583442\N,0,
 -1.445491,-0.003842,0.457395\C,0,-2.001071,1.218652,0.772411\O,0,-3.15
 0111,1.326257,1.20292\N,0,-1.205961,2.314916,0.524428\C,0,-1.791274,3.
 632843,0.702676\C,0,0.012795,2.223941,-0.116139\O,0,0.517816,3.209385,
 -0.653896\N,0,0.590554,0.975775,-0.144045\C,0,1.93164,0.91294,-0.71934
 8\F,0,2.628314,1.975534,-0.206075\F,0,1.846068,1.131332,-2.060158\C,0,
 2.809286,-0.340869,-0.450696\F,0,2.423251,-1.369018,-1.260375\O,0,2.60
 9002,-0.764176,0.908012\C,0,3.480894,-1.798731,1.286403\F,0,4.681704,-
 1.272252,1.578679\F,0,2.988306,-2.380517,2.396186\F,0,3.605001,-2.7257
 36,0.32641\C,0,4.240785,0.060334,-0.838314\F,0,4.772405,0.951143,0.029
 882\F,0,5.068919,-1.013942,-0.834336\F,0,4.318756,0.596121,-2.075403\C
 ,0,-0.20788,-0.133551,-0.139317\O,0,0.132055,-1.193947,-0.657207\H,0,-
 4.690798,-2.57145,0.328607\H,0,-4.614469,-2.807643,-1.425866\H,0,-3.39
 5739,-3.556672,-0.380204\H,0,-2.50288,-1.528021,-1.547808\H,0,-3.78583
 4,-0.552064,-0.845807\H,0,-2.933429,-1.085364,1.463179\H,0,-1.649628,-
 2.067608,0.763248\H,0,-2.360629,3.883061,-0.198241\H,0,-1.013548,4.387
 295,0.854884\H,0,-2.466057,3.644873,1.563883\\Version=ES64L-G09RevD.01
 \HF=-1788.396631\RMSD=6.866e-09\Dipole=-0.9558296,-0.1100266,0.6370789
 \Quadrupole=-3.1671798,1.9660723,1.2011075,-1.3237259,4.1314217,1.8368
 362\PG=C01 [X(C11H10F9N3O4)]\\@

 Writing a WFN file to "A903371600/A903371600_0.wfn"


 CURIOUSER AND CURIOUSER

                  -- ALICE, IN WONDERLAND
 Job cpu time:       0 days  0 hours 12 minutes  5.5 seconds.
 File lengths (MBytes):  RWF=    254 Int=      0 D2E=      0 Chk=      9 Scr=      1
 Normal termination of Gaussian 09 at Sun Mar  3 17:58:31 2024.
