 Entering Gaussian System, Link 0=g09
 Initial command:
 /home/k0335/k033513/app/g09/l1.exe "/home/k0335/k033513/app/g09/scratch/Gau-528964.inp" -scrdir="/home/k0335/k033513/app/g09/scratch/"
 Default is to use a total of  36 processors:
                               36 via shared-memory
                                1 via Linda
 Entering Link 1 = /home/k0335/k033513/app/g09/l1.exe PID=    528965.
  
 Copyright (c) 1988,1990,1992,1993,1995,1998,2003,2009,2013,
            Gaussian, Inc.  All Rights Reserved.
  
 This is part of the Gaussian(R) 09 program.  It is based on
 the Gaussian(R) 03 system (copyright 2003, Gaussian, Inc.),
 the Gaussian(R) 98 system (copyright 1998, Gaussian, Inc.),
 the Gaussian(R) 94 system (copyright 1995, Gaussian, Inc.),
 the Gaussian 92(TM) system (copyright 1992, Gaussian, Inc.),
 the Gaussian 90(TM) system (copyright 1990, Gaussian, Inc.),
 the Gaussian 88(TM) system (copyright 1988, Gaussian, Inc.),
 the Gaussian 86(TM) system (copyright 1986, Carnegie Mellon
 University), and the Gaussian 82(TM) system (copyright 1983,
 Carnegie Mellon University). Gaussian is a federally registered
 trademark of Gaussian, Inc.
  
 This software contains proprietary and confidential information,
 including trade secrets, belonging to Gaussian, Inc.
  
 This software is provided under written license and may be
 used, copied, transmitted, or stored only in accord with that
 written license.
  
 The following legend is applicable only to US Government
 contracts under FAR:
  
                    RESTRICTED RIGHTS LEGEND
  
 Use, reproduction and disclosure by the US Government is
 subject to restrictions as set forth in subparagraphs (a)
 and (c) of the Commercial Computer Software - Restricted
 Rights clause in FAR 52.227-19.
  
 Gaussian, Inc.
 340 Quinnipiac St., Bldg. 40, Wallingford CT 06492
  
  
 ---------------------------------------------------------------
 Warning -- This program may not be used in any manner that
 competes with the business of Gaussian, Inc. or will provide
 assistance to any competitor of Gaussian, Inc.  The licensee
 of this program is prohibited from giving any competitor of
 Gaussian, Inc. access to this program.  By using this program,
 the user acknowledges that Gaussian, Inc. is engaged in the
 business of creating and licensing software in the field of
 computational chemistry and represents and warrants to the
 licensee that it is not a competitor of Gaussian, Inc. and that
 it will not use this program in any manner prohibited above.
 ---------------------------------------------------------------
  

 Cite this work as:
 Gaussian 09, Revision D.01,
 M. J. Frisch, G. W. Trucks, H. B. Schlegel, G. E. Scuseria, 
 M. A. Robb, J. R. Cheeseman, G. Scalmani, V. Barone, B. Mennucci, 
 G. A. Petersson, H. Nakatsuji, M. Caricato, X. Li, H. P. Hratchian, 
 A. F. Izmaylov, J. Bloino, G. Zheng, J. L. Sonnenberg, M. Hada, 
 M. Ehara, K. Toyota, R. Fukuda, J. Hasegawa, M. Ishida, T. Nakajima, 
 Y. Honda, O. Kitao, H. Nakai, T. Vreven, J. A. Montgomery, Jr., 
 J. E. Peralta, F. Ogliaro, M. Bearpark, J. J. Heyd, E. Brothers, 
 K. N. Kudin, V. N. Staroverov, T. Keith, R. Kobayashi, J. Normand, 
 K. Raghavachari, A. Rendell, J. C. Burant, S. S. Iyengar, J. Tomasi, 
 M. Cossi, N. Rega, J. M. Millam, M. Klene, J. E. Knox, J. B. Cross, 
 V. Bakken, C. Adamo, J. Jaramillo, R. Gomperts, R. E. Stratmann, 
 O. Yazyev, A. J. Austin, R. Cammi, C. Pomelli, J. W. Ochterski, 
 R. L. Martin, K. Morokuma, V. G. Zakrzewski, G. A. Voth, 
 P. Salvador, J. J. Dannenberg, S. Dapprich, A. D. Daniels, 
 O. Farkas, J. B. Foresman, J. V. Ortiz, J. Cioslowski, 
 and D. J. Fox, Gaussian, Inc., Wallingford CT, 2013.
 
 ******************************************
 Gaussian 09:  ES64L-G09RevD.01 24-Apr-2013
                 3-Mar-2024 
 ******************************************
 %nprocshared=24
 Will use up to   24 processors via shared memory.
 %mem=40GB
 %rwf=A903371600/A903371600_p1.rwf
 %nosave
 %chk=A903371600/A903371600_p1.chk
 ----------------------------------------------------------------------
 #p CAM-B3LYP/6-31G(d,p) SCRF=(PCM,Solvent=Generic,Read) NoSymm out=wfn
 ----------------------------------------------------------------------
 1/38=1,40=2/1;
 2/12=2,15=1,17=6,18=5,40=1/2;
 3/5=1,6=6,7=101,11=2,16=1,25=1,30=1,70=2203,72=-2,74=-40/1,2,3;
 4//1;
 5/5=2,38=5/2;
 6/7=2,8=2,9=2,10=2,28=1/1;
 99/5=1,6=100,9=1/99;
 Leave Link    1 at Sun Mar  3 17:57:59 2024, MaxMem=  5368709120 cpu:         2.3
 (Enter /home/k0335/k033513/app/g09/l101.exe)
 -------------------
 Title A903371600_p1
 -------------------
 Symbolic Z-matrix:
 Charge =  1 Multiplicity = 2
 C                    -4.01089  -2.66276  -0.52443 
 C                    -3.14408  -1.42227  -0.66498 
 C                    -2.28778  -1.19396   0.58344 
 N                    -1.44549  -0.00384   0.4574 
 C                    -2.00107   1.21865   0.77241 
 O                    -3.15011   1.32626   1.20292 
 N                    -1.20596   2.31492   0.52443 
 C                    -1.79127   3.63284   0.70268 
 C                     0.0128    2.22394  -0.11614 
 O                     0.51782   3.20939  -0.6539 
 N                     0.59055   0.97578  -0.14405 
 C                     1.93164   0.91294  -0.71935 
 F                     2.62831   1.97553  -0.20608 
 F                     1.84607   1.13133  -2.06016 
 C                     2.80929  -0.34087  -0.4507 
 F                     2.42325  -1.36902  -1.26038 
 O                     2.609    -0.76418   0.90801 
 C                     3.48089  -1.79873   1.2864 
 F                     4.6817   -1.27225   1.57868 
 F                     2.98831  -2.38052   2.39619 
 F                     3.605    -2.72574   0.32641 
 C                     4.24078   0.06033  -0.83831 
 F                     4.77241   0.95114   0.02988 
 F                     5.06892  -1.01394  -0.83434 
 F                     4.31876   0.59612  -2.0754 
 C                    -0.20788  -0.13355  -0.13932 
 O                     0.13206  -1.19395  -0.65721 
 H                    -4.6908   -2.57145   0.32861 
 H                    -4.61447  -2.80764  -1.42587 
 H                    -3.39574  -3.55667  -0.3802 
 H                    -2.50288  -1.52802  -1.54781 
 H                    -3.78583  -0.55206  -0.84581 
 H                    -2.93343  -1.08536   1.46318 
 H                    -1.64963  -2.06761   0.76325 
 H                    -2.36063   3.88306  -0.19824 
 H                    -1.01355   4.38729   0.85488 
 H                    -2.46606   3.64487   1.56388 
 
 NAtoms=     37 NQM=       37 NQMF=       0 NMMI=      0 NMMIF=      0
                NMic=       0 NMicF=      0.
                    Isotopes and Nuclear Properties:
 (Nuclear quadrupole moments (NQMom) in fm**2, nuclear magnetic moments (NMagM)
  in nuclear magnetons)

  Atom         1           2           3           4           5           6           7           8           9          10
 IAtWgt=          12          12          12          14          12          16          14          12          12          16
 AtmWgt=  12.0000000  12.0000000  12.0000000  14.0030740  12.0000000  15.9949146  14.0030740  12.0000000  12.0000000  15.9949146
 NucSpn=           0           0           0           2           0           0           2           0           0           0
 AtZEff=   0.0000000   0.0000000   0.0000000   0.0000000   0.0000000   0.0000000   0.0000000   0.0000000   0.0000000   0.0000000
 NQMom=    0.0000000   0.0000000   0.0000000   2.0440000   0.0000000   0.0000000   2.0440000   0.0000000   0.0000000   0.0000000
 NMagM=    0.0000000   0.0000000   0.0000000   0.4037610   0.0000000   0.0000000   0.4037610   0.0000000   0.0000000   0.0000000
 AtZNuc=   6.0000000   6.0000000   6.0000000   7.0000000   6.0000000   8.0000000   7.0000000   6.0000000   6.0000000   8.0000000

  Atom        11          12          13          14          15          16          17          18          19          20
 IAtWgt=          14          12          19          19          12          19          16          12          19          19
 AtmWgt=  14.0030740  12.0000000  18.9984033  18.9984033  12.0000000  18.9984033  15.9949146  12.0000000  18.9984033  18.9984033
 NucSpn=           2           0           1           1           0           1           0           0           1           1
 AtZEff=   0.0000000   0.0000000   0.0000000   0.0000000   0.0000000   0.0000000   0.0000000   0.0000000   0.0000000   0.0000000
 NQMom=    2.0440000   0.0000000   0.0000000   0.0000000   0.0000000   0.0000000   0.0000000   0.0000000   0.0000000   0.0000000
 NMagM=    0.4037610   0.0000000   2.6288670   2.6288670   0.0000000   2.6288670   0.0000000   0.0000000   2.6288670   2.6288670
 AtZNuc=   7.0000000   6.0000000   9.0000000   9.0000000   6.0000000   9.0000000   8.0000000   6.0000000   9.0000000   9.0000000

  Atom        21          22          23          24          25          26          27          28          29          30
 IAtWgt=          19          12          19          19          19          12          16           1           1           1
 AtmWgt=  18.9984033  12.0000000  18.9984033  18.9984033  18.9984033  12.0000000  15.9949146   1.0078250   1.0078250   1.0078250
 NucSpn=           1           0           1           1           1           0           0           1           1           1
 AtZEff=   0.0000000   0.0000000   0.0000000   0.0000000   0.0000000   0.0000000   0.0000000   0.0000000   0.0000000   0.0000000
 NQMom=    0.0000000   0.0000000   0.0000000   0.0000000   0.0000000   0.0000000   0.0000000   0.0000000   0.0000000   0.0000000
 NMagM=    2.6288670   0.0000000   2.6288670   2.6288670   2.6288670   0.0000000   0.0000000   2.7928460   2.7928460   2.7928460
 AtZNuc=   9.0000000   6.0000000   9.0000000   9.0000000   9.0000000   6.0000000   8.0000000   1.0000000   1.0000000   1.0000000

  Atom        31          32          33          34          35          36          37
 IAtWgt=           1           1           1           1           1           1           1
 AtmWgt=   1.0078250   1.0078250   1.0078250   1.0078250   1.0078250   1.0078250   1.0078250
 NucSpn=           1           1           1           1           1           1           1
 AtZEff=   0.0000000   0.0000000   0.0000000   0.0000000   0.0000000   0.0000000   0.0000000
 NQMom=    0.0000000   0.0000000   0.0000000   0.0000000   0.0000000   0.0000000   0.0000000
 NMagM=    2.7928460   2.7928460   2.7928460   2.7928460   2.7928460   2.7928460   2.7928460
 AtZNuc=   1.0000000   1.0000000   1.0000000   1.0000000   1.0000000   1.0000000   1.0000000
 Leave Link  101 at Sun Mar  3 17:57:59 2024, MaxMem=  5368709120 cpu:         0.9
 (Enter /home/k0335/k033513/app/g09/l202.exe)
                          Input orientation:                          
 ---------------------------------------------------------------------
 Center     Atomic      Atomic             Coordinates (Angstroms)
 Number     Number       Type             X           Y           Z
 ---------------------------------------------------------------------
      1          6           0       -4.010892   -2.662761   -0.524433
      2          6           0       -3.144078   -1.422273   -0.664977
      3          6           0       -2.287784   -1.193964    0.583442
      4          7           0       -1.445491   -0.003842    0.457395
      5          6           0       -2.001071    1.218652    0.772411
      6          8           0       -3.150111    1.326257    1.202920
      7          7           0       -1.205961    2.314916    0.524428
      8          6           0       -1.791274    3.632843    0.702676
      9          6           0        0.012795    2.223941   -0.116139
     10          8           0        0.517816    3.209385   -0.653896
     11          7           0        0.590554    0.975775   -0.144045
     12          6           0        1.931640    0.912940   -0.719348
     13          9           0        2.628314    1.975534   -0.206075
     14          9           0        1.846068    1.131332   -2.060158
     15          6           0        2.809286   -0.340869   -0.450696
     16          9           0        2.423251   -1.369018   -1.260375
     17          8           0        2.609002   -0.764176    0.908012
     18          6           0        3.480894   -1.798731    1.286403
     19          9           0        4.681704   -1.272252    1.578679
     20          9           0        2.988306   -2.380517    2.396186
     21          9           0        3.605001   -2.725736    0.326410
     22          6           0        4.240785    0.060334   -0.838314
     23          9           0        4.772405    0.951143    0.029882
     24          9           0        5.068919   -1.013942   -0.834336
     25          9           0        4.318756    0.596121   -2.075403
     26          6           0       -0.207880   -0.133551   -0.139317
     27          8           0        0.132055   -1.193947   -0.657207
     28          1           0       -4.690798   -2.571450    0.328607
     29          1           0       -4.614469   -2.807643   -1.425866
     30          1           0       -3.395739   -3.556672   -0.380204
     31          1           0       -2.502880   -1.528021   -1.547808
     32          1           0       -3.785834   -0.552064   -0.845807
     33          1           0       -2.933429   -1.085364    1.463179
     34          1           0       -1.649628   -2.067608    0.763248
     35          1           0       -2.360629    3.883061   -0.198241
     36          1           0       -1.013548    4.387295    0.854884
     37          1           0       -2.466057    3.644873    1.563883
 ---------------------------------------------------------------------
                    Distance matrix (angstroms):
                    1          2          3          4          5
     1  C    0.000000
     2  C    1.519845   0.000000
     3  C    2.520685   1.530985   0.000000
     4  N    3.822973   2.481303   1.463467   0.000000
     5  C    4.559227   3.216681   2.436930   1.379274   0.000000
     6  O    4.431361   3.323175   2.734753   2.287072   1.231751
     7  N    5.809046   4.374650   3.672337   2.332061   1.376768
     8  C    6.787277   5.408766   4.853741   3.661312   2.424293
     9  C    6.343234   4.854065   4.179013   2.723703   2.419873
    10  O    7.416742   5.904392   5.365806   3.926114   3.513141
    11  N    5.878516   4.468722   3.677205   2.338131   2.759602
    12  C    6.938106   5.587405   4.892836   3.691914   4.217229
    13  F    8.105195   6.713881   5.902294   4.577555   4.791817
    14  F    7.145458   5.776589   5.429950   4.296633   4.778237
    15  C    7.204960   6.054576   5.270421   4.363639   5.202656
    16  F    6.604058   5.599329   5.062031   4.447652   5.513881
    17  O    7.034168   6.000443   4.926315   4.149708   5.020236
    18  C    7.755806   6.916636   5.842734   5.308310   6.278593
    19  F    9.050846   8.142442   7.040624   6.356781   7.177336
    20  F    7.589364   6.920627   5.703602   5.391294   6.362747
    21  F    7.663532   6.944921   6.094039   5.738757   6.869145
    22  C    8.695053   7.534213   6.798299   5.832385   6.549573
    23  F    9.513878   8.293771   7.399607   6.305315   6.819303
    24  F    9.233505   8.224885   7.494237   6.717619   7.586229
    25  F    9.077932   7.858569   7.343040   6.324679   6.959727
    26  C    4.583461   3.249366   2.443943   1.380062   2.423888
    27  O    4.397619   3.284089   2.719344   2.268775   3.523445
    28  H    1.094663   2.167985   2.781526   4.140195   4.668669
    29  H    1.094476   2.158762   3.471994   4.631457   5.279519
    30  H    1.094665   2.167969   2.781828   4.138555   5.106598
    31  H    2.146865   1.096224   2.167968   2.731672   3.630350
    32  H    2.146852   1.096273   2.167704   2.734244   2.989890
    33  H    2.756757   2.164932   1.096626   2.096485   2.579717
    34  H    2.754614   2.165563   1.096735   2.096270   3.305011
    35  H    6.758517   5.383141   5.137365   4.046647   2.858413
    36  H    7.783950   6.371830   5.731301   4.430198   3.319985
    37  H    6.821571   5.577051   4.940384   3.947023   2.594068
                    6          7          8          9         10
     6  O    0.000000
     7  N    2.284189   0.000000
     8  C    2.723421   1.453030   0.000000
     9  C    3.542559   1.379844   2.431075   0.000000
    10  O    4.521905   2.271548   2.711365   1.230987   0.000000
    11  N    3.991206   2.338294   3.667431   1.375683   2.292216
    12  C    5.448866   3.654731   4.824947   2.400948   2.697562
    13  F    5.983061   3.917969   4.806793   2.628828   2.485384
    14  F    5.970551   4.170832   5.207789   2.886848   2.839037
    15  C    6.405323   4.911850   6.187553   3.809270   4.230417
    16  F    6.662934   5.470655   6.828939   4.475369   4.996026
    17  O    6.133862   4.917508   6.224015   4.088767   4.754135
    18  C    7.330944   6.282460   7.592002   5.493335   6.133989
    19  F    8.260192   6.974512   8.168646   6.074083   6.512098
    20  F    7.269403   6.568291   7.865930   6.030462   6.830324
    21  F    7.925809   6.970849   8.348227   6.131810   6.761462
    22  C    7.771392   6.050392   7.177967   4.804022   4.879655
    23  F    8.017667   6.151854   7.122222   4.929019   4.865053
    24  F    8.785181   7.231988   8.427174   6.046824   6.211408
    25  F    8.189290   6.343175   7.366944   5.002980   4.826694
    26  C    3.548149   2.726117   4.171548   2.367911   3.459284
    27  O    4.536972   3.936835   5.370882   3.462504   4.420199
    28  H    4.281385   6.004915   6.858602   6.731817   7.843024
    29  H    5.113119   6.454625   7.347175   6.960158   7.946126
    30  H    5.139028   6.331590   7.445540   6.715901   7.821147
    31  H    4.016505   4.554594   5.674996   4.738725   5.689174
    32  H    2.851231   4.093026   4.887690   4.761113   5.718980
    33  H    2.435283   3.927761   4.913691   4.703826   5.902370
    34  H    3.736721   4.411393   5.702532   4.685548   5.878160
    35  H    3.020560   2.077158   1.094726   2.896992   2.991138
    36  H    3.749131   2.107363   1.094177   2.583867   2.451319
    37  H    2.444219   2.106441   1.094145   3.314548   3.743219
                   11         12         13         14         15
    11  N    0.000000
    12  C    1.460628   0.000000
    13  F    2.270646   1.370369   0.000000
    14  F    2.296084   1.361172   2.182249   0.000000
    15  C    2.598145   1.553858   2.336303   2.384435   0.000000
    16  F    3.178526   2.396189   3.512781   2.687851   1.364439
    17  O    2.865028   2.433072   2.957630   3.603478   1.437146
    18  C    4.254190   3.711655   4.147223   4.738923   2.365149
    19  F    4.975833   4.197481   4.236729   5.201844   2.914067
    20  F    4.844242   4.655100   5.086899   5.787641   3.506701
    21  F    4.796812   4.139289   4.831087   4.864825   2.631472
    22  C    3.826778   2.464395   2.582204   2.893892   1.536360
    23  F    4.185539   2.938154   2.387924   3.600581   2.398768
    24  F    4.948861   3.683560   3.910017   4.060986   2.388755
    25  F    4.215895   2.763618   2.873110   2.529994   2.407514
    26  C    1.366793   2.451352   3.535066   3.083547   3.040268
    27  O    2.276236   2.771523   4.059611   3.211391   2.817438
    28  H    6.379568   7.556181   8.633096   7.883363   7.863464
    29  H    6.561218   7.562635   8.764963   7.593180   7.883405
    30  H    6.040644   6.962285   8.180760   7.230226   6.989184
    31  H    4.220057   5.129289   6.356437   5.123281   5.552665
    32  H    4.688234   5.903536   6.923821   6.002232   6.610319
    33  H    4.387473   5.694343   6.564182   6.338078   6.098850
    34  H    3.886358   4.889503   5.965515   5.515862   4.933275
    35  H    4.143034   5.245641   5.341186   5.360508   6.680819
    36  H    3.899932   4.819075   4.495040   5.222659   6.218853
    37  H    4.402723   5.658298   5.645535   6.168143   6.911867
                   16         17         18         19         20
    16  F    0.000000
    17  O    2.258814   0.000000
    18  C    2.790939   1.404877   0.000000
    19  F    3.629077   2.236969   1.343335   0.000000
    20  F    3.835734   2.229594   1.346379   2.182697   0.000000
    21  F    2.398980   2.275520   1.340271   2.200019   2.187113
    22  C    2.350449   2.528277   2.923693   2.795005   4.241279
    23  F    3.544917   2.897196   3.287652   2.711178   4.458964
    24  F    2.703174   3.024789   2.763196   2.457499   4.078327
    25  F    2.849383   3.697896   4.211777   4.120056   5.534038
    26  C    3.115445   3.070734   4.290985   5.306240   4.657600
    27  O    2.375719   2.961398   3.918942   5.069973   4.346185
    28  H    7.387855   7.542482   8.263838   9.544338   7.954871
    29  H    7.185161   7.861379   8.597047   9.889568   8.520135
    30  H    6.278628   6.746440   7.290817   8.619796   7.060291
    31  H    4.937071   5.722399   6.626582   7.839553   6.814320
    32  H    6.276306   6.634365   7.675014   8.837194   7.729342
    33  H    6.015998   5.579419   6.456290   7.618302   6.133096
    34  H    4.601241   4.455987   5.164130   6.432984   4.926949
    35  H    7.183173   6.893318   8.283135   8.906691   8.635657
    36  H    7.030010   6.297884   7.658533   8.061653   8.012099
    37  H    7.551216   6.754710   8.066973   8.675761   8.169953
                   21         22         23         24         25
    21  F    0.000000
    22  C    3.085934   0.000000
    23  F    3.869134   1.352747   0.000000
    24  F    2.533895   1.356426   2.167107   0.000000
    25  F    4.160876   1.350384   2.182673   2.166863   0.000000
    26  C    4.634046   4.507417   5.099846   5.394696   4.977076
    27  O    3.921127   4.299731   5.158134   4.943319   4.769076
    28  H    8.297234   9.384091  10.101985   9.951399   9.848088
    29  H    8.404574   9.326630  10.215727   9.865864   9.581754
    30  H    7.085204   8.462216   9.338476   8.849980   8.923722
    31  H    6.500263   6.964429   7.846345   7.622694   7.164151
    32  H    7.792521   8.049950   8.733265   8.866798   8.277356
    33  H    6.836237   7.620947   8.098245   8.325938   8.242763
    34  H    5.313670   6.464527   7.133946   6.985797   7.125658
    35  H    8.918531   7.655168   7.715462   8.920955   7.677363
    36  H    8.497381   7.014095   6.779751   8.308022   7.168894
    37  H    8.886717   7.975036   7.874305   9.177792   8.280880
                   26         27         28         29         30
    26  C    0.000000
    27  O    1.228090   0.000000
    28  H    5.124340   5.111678   0.000000
    29  H    5.312627   5.071917   1.771945   0.000000
    30  H    4.683826   4.254942   1.774895   1.771936   0.000000
    31  H    3.032395   2.801367   3.065398   2.472066   2.505179
    32  H    3.670972   3.974599   2.505220   2.471991   3.065392
    33  H    3.301902   3.728943   2.565941   3.760149   3.117556
    34  H    2.575624   2.440363   3.113115   3.759010   2.563922
    35  H    4.557518   5.674516   6.882439   7.166057   7.513600
    36  H    4.698466   5.894836   7.888173   8.362750   8.384920
    37  H    4.719824   5.924323   6.716997   7.428946   7.517050
                   31         32         33         34         35
    31  H    0.000000
    32  H    1.758200   0.000000
    33  H    3.073656   2.518416   0.000000
    34  H    2.521938   3.073973   1.761491   0.000000
    35  H    5.578653   4.703284   5.270072   6.069633   0.000000
    36  H    6.556066   5.913982   5.831463   6.486815   1.782681
    37  H    6.036788   5.016243   4.754337   5.825806   1.781272
                   36         37
    36  H    0.000000
    37  H    1.778666   0.000000
 Symmetry turned off by external request.
 Stoichiometry    C11H10F9N3O4(1+,2)
 Framework group  C1[X(C11H10F9N3O4)]
 Deg. of freedom   105
 Full point group                 C1      NOp   1
 Rotational constants (GHZ):      0.2998392      0.1394026      0.1148275
 Leave Link  202 at Sun Mar  3 17:57:59 2024, MaxMem=  5368709120 cpu:         0.1
 (Enter /home/k0335/k033513/app/g09/l301.exe)
 Standard basis: 6-31G(d,p) (6D, 7F)
 Ernie: Thresh=  0.10000D-02 Tol=  0.10000D-05 Strict=F.
   455 basis functions,   826 primitive gaussians,   455 cartesian basis functions
   105 alpha electrons      104 beta electrons
       nuclear repulsion energy      3133.8961795206 Hartrees.
 IExCor=20419 DFT=T Ex+Corr=CAM-B3LYP ExCW=0 ScaHFX=  1.000000
 ScaDFX=  1.000000  1.000000  1.000000  0.810000 ScalE2=  1.000000  1.000000
 IRadAn=      0 IRanWt=     -1 IRanGd=            0 ICorTp=0 IEmpDi=  4
  HFx wShort=  0.000000 wLong=  0.330000 cFull=  0.190000 cShort=  0.000000 cLong=  0.460000
  DFx wShort=  0.000000 wLong=  0.330000 cFull=  0.190000 cShort=  0.000000 cLong=  0.460000
 NAtoms=   37 NActive=   37 NUniq=   37 SFac= 1.00D+00 NAtFMM=   60 NAOKFM=F Big=F
 Integral buffers will be    131072 words long.
 Raffenetti 2 integral format.
 Two-electron integral symmetry is turned off.
 Using the following non-standard input for PCM:
 eps=4.9
 --- end of non-standard input.
 ------------------------------------------------------------------------------
 Polarizable Continuum Model (PCM)
 =================================
 Model                : PCM (using non-symmetric T matrix).
 Atomic radii         : UFF (Universal Force Field).
 Polarization charges : Total charges.
 Charge compensation  : None.
 Solution method      : On-the-fly selection.
 Cavity type          : Scaled VdW (van der Waals Surface) (Alpha=1.100).
 Cavity algorithm     : GePol (No added spheres)
                        Default sphere list used, NSphG=   37.
                        Lebedev-Laikov grids with approx.  5.0 points / Ang**2.
                        Smoothing algorithm: Karplus/York (Gamma=1.0000).
                        Polarization charges: spherical gaussians, with
                                              point-specific exponents (IZeta= 3).
                        Self-potential: point-specific (ISelfS= 7).
                        Self-field    : sphere-specific E.n sum rule (ISelfD= 2).
 Solvent              : Generic,
                        Eps                           =   4.900000
                        Eps(infinity)                 =   0.000000
                        RSolv                         =   0.000000 Ang.
                        Molar volume                  =   0.000000 cm**3/mol
                        Thermal expansion coefficient =   0.000000 K**-1
                        Absolute temperature          = 298.150000 K
                        Numeral density               =   0.000000 Ang**-3
                        Hydrogen bond acidity         =   0.000000
                        Hydrogen bond basicity        =   0.000000
                        Surface tension at interface  =   0.000000 (cal/mol)*Ang**-2
                        Carbon aromaticity            =   0.000000
                        Electronegative halogenicity  =   0.000000
 ------------------------------------------------------------------------------
 GePol: Number of generator spheres                  =      37
 GePol: Total number of spheres                      =      37
 GePol: Number of exposed spheres                    =      36 ( 97.30%)
 GePol: Number of points                             =    2933
 GePol: Average weight of points                     =       0.13
 GePol: Minimum weight of points                     =   0.36D-11
 GePol: Maximum weight of points                     =    0.20577
 GePol: Number of points with low weight             =     128
 GePol: Fraction of low-weight points (<1% of avg)   =       4.36%
 GePol: Cavity surface area                          =    371.931 Ang**2
 GePol: Cavity volume                                =    413.345 Ang**3
 Leave Link  301 at Sun Mar  3 17:57:59 2024, MaxMem=  5368709120 cpu:         0.8
 (Enter /home/k0335/k033513/app/g09/l302.exe)
 NPDir=0 NMtPBC=     1 NCelOv=     1 NCel=       1 NClECP=     1 NCelD=      1
         NCelK=      1 NCelE2=     1 NClLst=     1 CellRange=     0.0.
 One-electron integrals computed using PRISM.
 NBasis=   455 RedAO= T EigKep=  1.14D-03  NBF=   455
 NBsUse=   455 1.00D-06 EigRej= -1.00D+00 NBFU=   455
 Precomputing XC quadrature grid using
 IXCGrd= 4 IRadAn=           0 IRanWt=          -1 IRanGd=           0 AccXCQ= 0.00D+00.
 Generated NRdTot=       0 NPtTot=           0 NUsed=           0 NTot=          32
 NSgBfM=   448   448   448   448   448 MxSgAt=    37 MxSgA2=    37.
 Leave Link  302 at Sun Mar  3 17:57:59 2024, MaxMem=  5368709120 cpu:         7.0
 (Enter /home/k0335/k033513/app/g09/l303.exe)
 DipDrv:  MaxL=1.
 Leave Link  303 at Sun Mar  3 17:57:59 2024, MaxMem=  5368709120 cpu:         0.7
 (Enter /home/k0335/k033513/app/g09/l401.exe)
 ExpMin= 1.61D-01 ExpMax= 7.00D+03 ExpMxC= 1.05D+03 IAcc=1 IRadAn=         1 AccDes= 0.00D+00
 Harris functional with IExCor=20419 and IRadAn=       1 diagonalized for initial guess.
 HarFok:  IExCor=20419 AccDes= 0.00D+00 IRadAn=         1 IDoV= 1 UseB2=F ITyADJ=14
 ICtDFT=  3500011 ScaDFX=  1.000000  1.000000  1.000000  1.000000
 FoFCou: FMM=F IPFlag=           0 FMFlag=      100000 FMFlg1=           0
         NFxFlg=           0 DoJE=T BraDBF=F KetDBF=T FulRan=T
         wScrn=  0.000000 ICntrl=     500 IOpCl=  0 I1Cent=   200000004 NGrid=           0
         NMat0=    1 NMatS0=      1 NMatT0=    0 NMatD0=    1 NMtDS0=    0 NMtDT0=    0
 Symmetry not used in FoFCou.
 Harris En= -1732.01112844869    
 JPrj=0 DoOrth=F DoCkMO=F.
 Initial guess <Sx>= 0.0000 <Sy>= 0.0000 <Sz>= 0.5000 <S**2>= 0.7500 S= 0.5000
 Leave Link  401 at Sun Mar  3 17:58:00 2024, MaxMem=  5368709120 cpu:         9.3
 (Enter /home/k0335/k033513/app/g09/l502.exe)
 UHF open shell SCF:
 Using DIIS extrapolation, IDIIS=  1040.
 Two-electron integral symmetry not used.
 IVT=      653349 IEndB=      653349 NGot=  5368709120 MDV=  5368279892
 LenX=  5368279892 LenY=  5368072412
 Requested convergence on RMS density matrix=1.00D-08 within 128 cycles.
 Requested convergence on MAX density matrix=1.00D-06.
 Requested convergence on             energy=1.00D-06.
 No special actions if energy rises.
 Fock matrices will be formed incrementally for  20 cycles.

 Cycle   1  Pass 1  IDiag  1:
 FoFJK:  IHMeth= 1 ICntrl=       0 DoSepK=T KAlg= 0 I1Cent=   0 FoldK=F
 IRaf=         1 NMat=   1 IRICut=       1 DoRegI=T DoRafI=F ISym2E= 0.
 FoFCou: FMM=F IPFlag=           0 FMFlag=      100000 FMFlg1=           0
         NFxFlg=           0 DoJE=T BraDBF=F KetDBF=F FulRan=T
         wScrn=  0.000000 ICntrl=     500 IOpCl=  0 I1Cent=           0 NGrid=           0
         NMat0=    1 NMatS0=      1 NMatT0=    0 NMatD0=    1 NMtDS0=    0 NMtDT0=    0
 Symmetry not used in FoFCou.
 Inv3:  Mode=1 IEnd=    25807467.
 Iteration    1 A*A^-1 deviation from unit magnitude is 5.55D-15 for    492.
 Iteration    1 A*A^-1 deviation from orthogonality  is 8.85D-15 for   2931    292.
 Iteration    1 A^-1*A deviation from unit magnitude is 6.44D-15 for    122.
 Iteration    1 A^-1*A deviation from orthogonality  is 4.92D-14 for   1058    980.
 E= -1787.30890595831    
 DIIS: error= 6.15D-02 at cycle   1 NSaved=   1.
 NSaved= 1 IEnMin= 1 EnMin= -1787.30890595831     IErMin= 1 ErrMin= 6.15D-02
 ErrMax= 6.15D-02  0.00D+00 EMaxC= 1.00D-01 BMatC= 6.54D+00 BMatP= 6.54D+00
 IDIUse=3 WtCom= 3.85D-01 WtEn= 6.15D-01
 Coeff-Com:  0.100D+01
 Coeff-En:   0.100D+01
 Coeff:      0.100D+01
 Gap=     0.522 Goal=   None    Shift=    0.000
 Gap=     0.030 Goal=   None    Shift=    0.000
 GapD=    0.030 DampG=0.250 DampE=0.500 DampFc=0.2500 IDamp=-1.
 Damping current iteration by 2.50D-01
 RMSDP=3.81D-03 MaxDP=1.76D-01              OVMax= 6.17D-01

 Cycle   2  Pass 1  IDiag  1:
 RMSU=  9.53D-04    CP:  1.00D+00
 E= -1787.55638689877     Delta-E=       -0.247480940461 Rises=F Damp=T
 DIIS: error= 4.83D-02 at cycle   2 NSaved=   2.
 NSaved= 2 IEnMin= 2 EnMin= -1787.55638689877     IErMin= 2 ErrMin= 4.83D-02
 ErrMax= 4.83D-02  0.00D+00 EMaxC= 1.00D-01 BMatC= 2.67D+00 BMatP= 6.54D+00
 IDIUse=3 WtCom= 5.17D-01 WtEn= 4.83D-01
 Coeff-Com: -0.143D+01 0.243D+01
 Coeff-En:   0.000D+00 0.100D+01
 Coeff:     -0.738D+00 0.174D+01
 Gap=     0.456 Goal=   None    Shift=    0.000
 Gap=     0.098 Goal=   None    Shift=    0.000
 RMSDP=2.04D-03 MaxDP=7.91D-02 DE=-2.47D-01 OVMax= 8.55D-01

 Cycle   3  Pass 1  IDiag  1:
 RMSU=  1.41D-03    CP:  1.00D+00  2.55D+00
 E= -1788.02324410607     Delta-E=       -0.466857207303 Rises=F Damp=F
 DIIS: error= 4.90D-03 at cycle   3 NSaved=   3.
 NSaved= 3 IEnMin= 3 EnMin= -1788.02324410607     IErMin= 3 ErrMin= 4.90D-03
 ErrMax= 4.90D-03  0.00D+00 EMaxC= 1.00D-01 BMatC= 2.01D-01 BMatP= 2.67D+00
 IDIUse=3 WtCom= 9.51D-01 WtEn= 4.90D-02
 Coeff-Com: -0.279D+00 0.549D+00 0.730D+00
 Coeff-En:   0.000D+00 0.000D+00 0.100D+01
 Coeff:     -0.266D+00 0.522D+00 0.743D+00
 Gap=     0.407 Goal=   None    Shift=    0.000
 Gap=     0.089 Goal=   None    Shift=    0.000
 RMSDP=7.17D-04 MaxDP=4.46D-02 DE=-4.67D-01 OVMax= 1.27D-01

 Cycle   4  Pass 1  IDiag  1:
 RMSU=  6.93D-04    CP:  1.00D+00  2.52D+00  8.69D-01
 E= -1788.05177083092     Delta-E=       -0.028526724841 Rises=F Damp=F
 DIIS: error= 4.41D-03 at cycle   4 NSaved=   4.
 NSaved= 4 IEnMin= 4 EnMin= -1788.05177083092     IErMin= 4 ErrMin= 4.41D-03
 ErrMax= 4.41D-03  0.00D+00 EMaxC= 1.00D-01 BMatC= 7.93D-02 BMatP= 2.01D-01
 IDIUse=3 WtCom= 9.56D-01 WtEn= 4.41D-02
 Coeff-Com:  0.186D-01-0.106D-02 0.387D+00 0.596D+00
 Coeff-En:   0.000D+00 0.000D+00 0.203D+00 0.797D+00
 Coeff:      0.178D-01-0.102D-02 0.378D+00 0.605D+00
 Gap=     0.360 Goal=   None    Shift=    0.000
 Gap=     0.108 Goal=   None    Shift=    0.000
 RMSDP=4.08D-04 MaxDP=4.23D-02 DE=-2.85D-02 OVMax= 1.09D-01

 Cycle   5  Pass 1  IDiag  1:
 RMSU=  3.31D-04    CP:  1.00D+00  2.53D+00  9.71D-01  7.25D-01
 E= -1788.06869802507     Delta-E=       -0.016927194152 Rises=F Damp=F
 DIIS: error= 2.04D-03 at cycle   5 NSaved=   5.
 NSaved= 5 IEnMin= 5 EnMin= -1788.06869802507     IErMin= 5 ErrMin= 2.04D-03
 ErrMax= 2.04D-03  0.00D+00 EMaxC= 1.00D-01 BMatC= 1.71D-02 BMatP= 7.93D-02
 IDIUse=3 WtCom= 9.80D-01 WtEn= 2.04D-02
 Coeff-Com:  0.159D-01-0.198D-01 0.144D+00 0.366D+00 0.493D+00
 Coeff-En:   0.000D+00 0.000D+00 0.000D+00 0.000D+00 0.100D+01
 Coeff:      0.156D-01-0.194D-01 0.142D+00 0.359D+00 0.504D+00
 Gap=     0.357 Goal=   None    Shift=    0.000
 Gap=     0.105 Goal=   None    Shift=    0.000
 RMSDP=1.52D-04 MaxDP=1.41D-02 DE=-1.69D-02 OVMax= 3.41D-02

 Cycle   6  Pass 1  IDiag  1:
 RMSU=  1.36D-04    CP:  1.00D+00  2.55D+00  9.71D-01  8.19D-01  9.75D-01
 E= -1788.07310447629     Delta-E=       -0.004406451222 Rises=F Damp=F
 DIIS: error= 8.16D-04 at cycle   6 NSaved=   6.
 NSaved= 6 IEnMin= 6 EnMin= -1788.07310447629     IErMin= 6 ErrMin= 8.16D-04
 ErrMax= 8.16D-04  0.00D+00 EMaxC= 1.00D-01 BMatC= 1.62D-03 BMatP= 1.71D-02
 IDIUse=3 WtCom= 9.92D-01 WtEn= 8.16D-03
 Coeff-Com: -0.119D-01 0.145D-01-0.290D-01 0.456D-01 0.172D+00 0.809D+00
 Coeff-En:   0.000D+00 0.000D+00 0.000D+00 0.000D+00 0.000D+00 0.100D+01
 Coeff:     -0.118D-01 0.144D-01-0.288D-01 0.453D-01 0.170D+00 0.810D+00
 Gap=     0.358 Goal=   None    Shift=    0.000
 Gap=     0.108 Goal=   None    Shift=    0.000
 RMSDP=1.29D-04 MaxDP=1.03D-02 DE=-4.41D-03 OVMax= 4.61D-02

 Cycle   7  Pass 1  IDiag  1:
 RMSU=  6.57D-05    CP:  1.00D+00  2.57D+00  9.71D-01  8.52D-01  1.27D+00
                    CP:  1.33D+00
 E= -1788.07475694074     Delta-E=       -0.001652464453 Rises=F Damp=F
 DIIS: error= 5.99D-04 at cycle   7 NSaved=   7.
 NSaved= 7 IEnMin= 7 EnMin= -1788.07475694074     IErMin= 7 ErrMin= 5.99D-04
 ErrMax= 5.99D-04  0.00D+00 EMaxC= 1.00D-01 BMatC= 1.12D-03 BMatP= 1.62D-03
 IDIUse=3 WtCom= 9.94D-01 WtEn= 5.99D-03
 Coeff-Com: -0.204D-01 0.260D-01-0.791D-01-0.866D-01-0.776D-01 0.569D+00
 Coeff-Com:  0.669D+00
 Coeff-En:   0.000D+00 0.000D+00 0.000D+00 0.000D+00 0.000D+00 0.000D+00
 Coeff-En:   0.100D+01
 Coeff:     -0.202D-01 0.259D-01-0.787D-01-0.860D-01-0.771D-01 0.565D+00
 Coeff:      0.671D+00
 Gap=     0.357 Goal=   None    Shift=    0.000
 Gap=     0.111 Goal=   None    Shift=    0.000
 RMSDP=1.06D-04 MaxDP=7.24D-03 DE=-1.65D-03 OVMax= 3.59D-02

 Cycle   8  Pass 1  IDiag  1:
 RMSU=  4.80D-05    CP:  1.00D+00  2.58D+00  9.65D-01  8.81D-01  1.47D+00
                    CP:  1.78D+00  1.23D+00
 E= -1788.07585206375     Delta-E=       -0.001095123004 Rises=F Damp=F
 DIIS: error= 3.74D-04 at cycle   8 NSaved=   8.
 NSaved= 8 IEnMin= 8 EnMin= -1788.07585206375     IErMin= 8 ErrMin= 3.74D-04
 ErrMax= 3.74D-04  0.00D+00 EMaxC= 1.00D-01 BMatC= 3.89D-04 BMatP= 1.12D-03
 IDIUse=3 WtCom= 9.96D-01 WtEn= 3.74D-03
 Coeff-Com: -0.148D-01 0.209D-01-0.243D-01-0.233D-01-0.919D-01-0.273D-02
 Coeff-Com:  0.315D+00 0.821D+00
 Coeff-En:   0.000D+00 0.000D+00 0.000D+00 0.000D+00 0.000D+00 0.000D+00
 Coeff-En:   0.000D+00 0.100D+01
 Coeff:     -0.148D-01 0.208D-01-0.242D-01-0.233D-01-0.916D-01-0.272D-02
 Coeff:      0.314D+00 0.822D+00
 Gap=     0.358 Goal=   None    Shift=    0.000
 Gap=     0.113 Goal=   None    Shift=    0.000
 RMSDP=7.88D-05 MaxDP=5.14D-03 DE=-1.10D-03 OVMax= 2.90D-02

 Cycle   9  Pass 1  IDiag  1:
 RMSU=  2.35D-05    CP:  1.00D+00  2.59D+00  9.56D-01  8.81D-01  1.59D+00
                    CP:  2.04D+00  1.80D+00  1.71D+00
 E= -1788.07645716371     Delta-E=       -0.000605099964 Rises=F Damp=F
 DIIS: error= 3.65D-04 at cycle   9 NSaved=   9.
 NSaved= 9 IEnMin= 9 EnMin= -1788.07645716371     IErMin= 9 ErrMin= 3.65D-04
 ErrMax= 3.65D-04  0.00D+00 EMaxC= 1.00D-01 BMatC= 2.01D-04 BMatP= 3.89D-04
 IDIUse=3 WtCom= 9.96D-01 WtEn= 3.65D-03
 Coeff-Com: -0.330D-02 0.512D-02 0.165D-01 0.377D-01-0.355D-01-0.206D+00
 Coeff-Com: -0.280D-01 0.237D+00 0.976D+00
 Coeff-En:   0.000D+00 0.000D+00 0.000D+00 0.000D+00 0.000D+00 0.000D+00
 Coeff-En:   0.000D+00 0.000D+00 0.100D+01
 Coeff:     -0.328D-02 0.510D-02 0.164D-01 0.376D-01-0.354D-01-0.205D+00
 Coeff:     -0.279D-01 0.236D+00 0.976D+00
 Gap=     0.358 Goal=   None    Shift=    0.000
 Gap=     0.113 Goal=   None    Shift=    0.000
 RMSDP=8.21D-05 MaxDP=5.87D-03 DE=-6.05D-04 OVMax= 3.54D-02

 Cycle  10  Pass 1  IDiag  1:
 RMSU=  1.89D-05    CP:  1.00D+00  2.60D+00  9.46D-01  8.77D-01  1.68D+00
                    CP:  2.25D+00  2.31D+00  2.79D+00  2.07D+00
 E= -1788.07698032438     Delta-E=       -0.000523160666 Rises=F Damp=F
 DIIS: error= 3.42D-04 at cycle  10 NSaved=  10.
 NSaved=10 IEnMin=10 EnMin= -1788.07698032438     IErMin=10 ErrMin= 3.42D-04
 ErrMax= 3.42D-04  0.00D+00 EMaxC= 1.00D-01 BMatC= 1.66D-04 BMatP= 2.01D-04
 IDIUse=3 WtCom= 9.97D-01 WtEn= 3.42D-03
 Coeff-Com: -0.606D-03 0.102D-02 0.126D-01 0.359D-01-0.326D-02-0.687D-01
 Coeff-Com: -0.169D-01-0.328D+00 0.451D+00 0.917D+00
 Coeff-En:   0.000D+00 0.000D+00 0.000D+00 0.000D+00 0.000D+00 0.000D+00
 Coeff-En:   0.000D+00 0.000D+00 0.000D+00 0.100D+01
 Coeff:     -0.604D-03 0.102D-02 0.126D-01 0.358D-01-0.325D-02-0.685D-01
 Coeff:     -0.168D-01-0.327D+00 0.450D+00 0.917D+00
 Gap=     0.360 Goal=   None    Shift=    0.000
 Gap=     0.114 Goal=   None    Shift=    0.000
 RMSDP=7.37D-05 MaxDP=4.74D-03 DE=-5.23D-04 OVMax= 3.48D-02

 Cycle  11  Pass 1  IDiag  1:
 RMSU=  4.12D-05    CP:  1.00D+00  2.61D+00  9.36D-01  8.67D-01  1.73D+00
                    CP:  2.36D+00  2.73D+00  3.00D+00  3.00D+00  1.99D+00
 E= -1788.07740913876     Delta-E=       -0.000428814378 Rises=F Damp=F
 DIIS: error= 2.97D-04 at cycle  11 NSaved=  11.
 NSaved=11 IEnMin=11 EnMin= -1788.07740913876     IErMin=11 ErrMin= 2.97D-04
 ErrMax= 2.97D-04  0.00D+00 EMaxC= 1.00D-01 BMatC= 1.29D-04 BMatP= 1.66D-04
 IDIUse=3 WtCom= 9.97D-01 WtEn= 2.97D-03
 Coeff-Com: -0.177D-02 0.223D-02-0.752D-02 0.730D-02 0.112D-01 0.136D+00
 Coeff-Com:  0.142D+00-0.608D+00-0.491D+00 0.330D+00 0.148D+01
 Coeff-En:   0.000D+00 0.000D+00 0.000D+00 0.000D+00 0.000D+00 0.000D+00
 Coeff-En:   0.000D+00 0.000D+00 0.000D+00 0.000D+00 0.100D+01
 Coeff:     -0.176D-02 0.222D-02-0.750D-02 0.728D-02 0.112D-01 0.135D+00
 Coeff:      0.141D+00-0.606D+00-0.489D+00 0.329D+00 0.148D+01
 Gap=     0.362 Goal=   None    Shift=    0.000
 Gap=     0.115 Goal=   None    Shift=    0.000
 RMSDP=1.41D-04 MaxDP=8.60D-03 DE=-4.29D-04 OVMax= 6.79D-02

 Cycle  12  Pass 1  IDiag  1:
 RMSU=  6.17D-05    CP:  1.00D+00  2.63D+00  9.13D-01  8.46D-01  1.80D+00
                    CP:  2.53D+00  3.00D+00  3.00D+00  3.00D+00  3.00D+00
                    CP:  3.00D+00
 E= -1788.07814374474     Delta-E=       -0.000734605987 Rises=F Damp=F
 DIIS: error= 2.67D-04 at cycle  12 NSaved=  12.
 NSaved=12 IEnMin=12 EnMin= -1788.07814374474     IErMin=12 ErrMin= 2.67D-04
 ErrMax= 2.67D-04  0.00D+00 EMaxC= 1.00D-01 BMatC= 8.88D-05 BMatP= 1.29D-04
 IDIUse=3 WtCom= 9.97D-01 WtEn= 2.67D-03
 Coeff-Com: -0.366D-02 0.494D-02-0.124D-01-0.976D-02-0.127D-02 0.639D-01
 Coeff-Com:  0.175D+00-0.978D-01-0.350D+00-0.908D+00 0.887D+00 0.125D+01
 Coeff-En:   0.000D+00 0.000D+00 0.000D+00 0.000D+00 0.000D+00 0.000D+00
 Coeff-En:   0.000D+00 0.000D+00 0.000D+00 0.000D+00 0.000D+00 0.100D+01
 Coeff:     -0.365D-02 0.492D-02-0.123D-01-0.973D-02-0.127D-02 0.637D-01
 Coeff:      0.174D+00-0.975D-01-0.349D+00-0.905D+00 0.885D+00 0.125D+01
 Gap=     0.364 Goal=   None    Shift=    0.000
 Gap=     0.117 Goal=   None    Shift=    0.000
 RMSDP=1.52D-04 MaxDP=9.78D-03 DE=-7.35D-04 OVMax= 7.55D-02

 Cycle  13  Pass 1  IDiag  1:
 RMSU=  7.84D-05    CP:  1.00D+00  2.65D+00  8.83D-01  8.21D-01  1.85D+00
                    CP:  2.65D+00  3.00D+00  3.00D+00  3.00D+00  3.00D+00
                    CP:  3.00D+00  2.92D+00
 E= -1788.07882158332     Delta-E=       -0.000677838574 Rises=F Damp=F
 DIIS: error= 2.40D-04 at cycle  13 NSaved=  13.
 NSaved=13 IEnMin=13 EnMin= -1788.07882158332     IErMin=13 ErrMin= 2.40D-04
 ErrMax= 2.40D-04  0.00D+00 EMaxC= 1.00D-01 BMatC= 5.03D-05 BMatP= 8.88D-05
 IDIUse=3 WtCom= 9.98D-01 WtEn= 2.40D-03
 Coeff-Com: -0.217D-02 0.321D-02-0.440D-03-0.422D-02 0.509D-02-0.706D-01
 Coeff-Com:  0.572D-01 0.273D+00 0.252D+00-0.852D+00-0.179D+00 0.301D+00
 Coeff-Com:  0.122D+01
 Coeff-En:   0.000D+00 0.000D+00 0.000D+00 0.000D+00 0.000D+00 0.000D+00
 Coeff-En:   0.000D+00 0.000D+00 0.000D+00 0.000D+00 0.000D+00 0.000D+00
 Coeff-En:   0.100D+01
 Coeff:     -0.217D-02 0.321D-02-0.439D-03-0.421D-02 0.508D-02-0.704D-01
 Coeff:      0.570D-01 0.272D+00 0.251D+00-0.850D+00-0.178D+00 0.300D+00
 Coeff:      0.122D+01
 Gap=     0.364 Goal=   None    Shift=    0.000
 Gap=     0.118 Goal=   None    Shift=    0.000
 RMSDP=1.16D-04 MaxDP=9.34D-03 DE=-6.78D-04 OVMax= 5.83D-02

 Cycle  14  Pass 1  IDiag  1:
 RMSU=  8.30D-05    CP:  1.00D+00  2.66D+00  8.56D-01  7.98D-01  1.88D+00
                    CP:  2.70D+00  3.00D+00  3.00D+00  3.00D+00  3.00D+00
                    CP:  3.00D+00  3.00D+00  1.78D+00
 E= -1788.07925644696     Delta-E=       -0.000434863642 Rises=F Damp=F
 DIIS: error= 1.98D-04 at cycle  14 NSaved=  14.
 NSaved=14 IEnMin=14 EnMin= -1788.07925644696     IErMin=14 ErrMin= 1.98D-04
 ErrMax= 1.98D-04  0.00D+00 EMaxC= 1.00D-01 BMatC= 4.56D-05 BMatP= 5.03D-05
 IDIUse=3 WtCom= 9.98D-01 WtEn= 1.98D-03
 Coeff-Com:  0.107D-02-0.123D-02 0.856D-02 0.826D-02 0.199D-01-0.626D-01
 Coeff-Com: -0.649D-02-0.452D-01 0.353D+00 0.537D-01-0.347D-01-0.115D+01
 Coeff-Com:  0.395D+00 0.146D+01
 Coeff-En:   0.000D+00 0.000D+00 0.000D+00 0.000D+00 0.000D+00 0.000D+00
 Coeff-En:   0.000D+00 0.000D+00 0.000D+00 0.000D+00 0.000D+00 0.000D+00
 Coeff-En:   0.000D+00 0.100D+01
 Coeff:      0.107D-02-0.123D-02 0.855D-02 0.824D-02 0.198D-01-0.625D-01
 Coeff:     -0.647D-02-0.451D-01 0.352D+00 0.535D-01-0.346D-01-0.115D+01
 Coeff:      0.395D+00 0.146D+01
 Gap=     0.364 Goal=   None    Shift=    0.000
 Gap=     0.118 Goal=   None    Shift=    0.000
 RMSDP=1.37D-04 MaxDP=1.23D-02 DE=-4.35D-04 OVMax= 6.91D-02

 Cycle  15  Pass 1  IDiag  1:
 RMSU=  1.91D-05    CP:  1.00D+00  2.67D+00  8.22D-01  7.69D-01  1.91D+00
                    CP:  2.72D+00  3.00D+00  3.00D+00  3.00D+00  3.00D+00
                    CP:  3.00D+00  3.00D+00  2.69D+00  2.23D+00
 E= -1788.07967500219     Delta-E=       -0.000418555232 Rises=F Damp=F
 DIIS: error= 1.91D-04 at cycle  15 NSaved=  15.
 NSaved=15 IEnMin=15 EnMin= -1788.07967500219     IErMin=15 ErrMin= 1.91D-04
 ErrMax= 1.91D-04  0.00D+00 EMaxC= 1.00D-01 BMatC= 3.65D-05 BMatP= 4.56D-05
 IDIUse=3 WtCom= 9.98D-01 WtEn= 1.91D-03
 Coeff-Com:  0.212D-02-0.278D-02 0.590D-02 0.975D-02 0.202D-01 0.497D-02
 Coeff-Com:  0.156D-01-0.342D+00 0.123D+00 0.317D+00 0.606D+00-0.119D+01
 Coeff-Com: -0.555D+00 0.888D+00 0.110D+01
 Coeff-En:   0.000D+00 0.000D+00 0.000D+00 0.000D+00 0.000D+00 0.000D+00
 Coeff-En:   0.000D+00 0.000D+00 0.000D+00 0.000D+00 0.000D+00 0.000D+00
 Coeff-En:   0.000D+00 0.000D+00 0.100D+01
 Coeff:      0.212D-02-0.277D-02 0.589D-02 0.973D-02 0.202D-01 0.496D-02
 Coeff:      0.155D-01-0.342D+00 0.123D+00 0.317D+00 0.604D+00-0.119D+01
 Coeff:     -0.554D+00 0.886D+00 0.110D+01
 Gap=     0.365 Goal=   None    Shift=    0.000
 Gap=     0.120 Goal=   None    Shift=    0.000
 RMSDP=1.21D-04 MaxDP=1.13D-02 DE=-4.19D-04 OVMax= 6.03D-02

 Cycle  16  Pass 1  IDiag  1:
 RMSU=  4.16D-05    CP:  1.00D+00  2.68D+00  7.88D-01  7.44D-01  1.91D+00
                    CP:  2.73D+00  3.00D+00  3.00D+00  3.00D+00  3.00D+00
                    CP:  3.00D+00  3.00D+00  3.00D+00  3.00D+00  2.67D+00
 E= -1788.07995341545     Delta-E=       -0.000278413254 Rises=F Damp=F
 DIIS: error= 1.78D-04 at cycle  16 NSaved=  16.
 NSaved=16 IEnMin=16 EnMin= -1788.07995341545     IErMin=16 ErrMin= 1.78D-04
 ErrMax= 1.78D-04  0.00D+00 EMaxC= 1.00D-01 BMatC= 2.49D-05 BMatP= 3.65D-05
 IDIUse=3 WtCom= 9.98D-01 WtEn= 1.78D-03
 Coeff-Com:  0.127D-02-0.186D-02-0.294D-02-0.404D-02 0.903D-02 0.389D-01
 Coeff-Com:  0.334D-01-0.164D+00-0.988D-01-0.270D+00 0.850D+00 0.259D-01
 Coeff-Com: -0.408D+00-0.589D+00 0.323D+00 0.126D+01
 Coeff-En:   0.000D+00 0.000D+00 0.000D+00 0.000D+00 0.000D+00 0.000D+00
 Coeff-En:   0.000D+00 0.000D+00 0.000D+00 0.000D+00 0.000D+00 0.000D+00
 Coeff-En:   0.000D+00 0.000D+00 0.000D+00 0.100D+01
 Coeff:      0.127D-02-0.186D-02-0.293D-02-0.403D-02 0.901D-02 0.388D-01
 Coeff:      0.333D-01-0.164D+00-0.986D-01-0.270D+00 0.849D+00 0.258D-01
 Coeff:     -0.407D+00-0.588D+00 0.323D+00 0.126D+01
 Gap=     0.366 Goal=   None    Shift=    0.000
 Gap=     0.120 Goal=   None    Shift=    0.000
 RMSDP=6.42D-05 MaxDP=6.98D-03 DE=-2.78D-04 OVMax= 2.73D-02

 Cycle  17  Pass 1  IDiag  1:
 RMSU=  3.40D-05    CP:  1.00D+00  2.69D+00  7.71D-01  7.31D-01  1.91D+00
                    CP:  2.73D+00  3.00D+00  3.00D+00  3.00D+00  3.00D+00
                    CP:  3.00D+00  3.00D+00  3.00D+00  3.00D+00  3.00D+00
                    CP:  2.06D+00
 E= -1788.08007614516     Delta-E=       -0.000122729719 Rises=F Damp=F
 DIIS: error= 1.60D-04 at cycle  17 NSaved=  17.
 NSaved=17 IEnMin=17 EnMin= -1788.08007614516     IErMin=17 ErrMin= 1.60D-04
 ErrMax= 1.60D-04  0.00D+00 EMaxC= 1.00D-01 BMatC= 4.74D-05 BMatP= 2.49D-05
 IDIUse=3 WtCom= 9.98D-01 WtEn= 1.78D-03
 Coeff-Com: -0.344D-04-0.124D-04-0.475D-02-0.803D-02 0.526D-02 0.324D-01
 Coeff-Com:  0.478D-01-0.611D-01-0.574D-01-0.659D+00 0.814D+00 0.362D+00
 Coeff-Com: -0.686D-01-0.945D+00-0.162D+00 0.128D+01 0.430D+00
 Coeff-En:   0.000D+00 0.000D+00 0.000D+00 0.000D+00 0.000D+00 0.000D+00
 Coeff-En:   0.000D+00 0.000D+00 0.000D+00 0.000D+00 0.000D+00 0.000D+00
 Coeff-En:   0.000D+00 0.000D+00 0.000D+00 0.000D+00 0.100D+01
 Coeff:     -0.343D-04-0.123D-04-0.475D-02-0.802D-02 0.525D-02 0.323D-01
 Coeff:      0.477D-01-0.610D-01-0.573D-01-0.658D+00 0.812D+00 0.361D+00
 Coeff:     -0.685D-01-0.943D+00-0.162D+00 0.127D+01 0.431D+00
 Gap=     0.366 Goal=   None    Shift=    0.000
 Gap=     0.121 Goal=   None    Shift=    0.000
 RMSDP=5.42D-05 MaxDP=4.96D-03 DE=-1.23D-04 OVMax= 2.52D-02

 Cycle  18  Pass 1  IDiag  1:
 RMSU=  1.25D-05    CP:  1.00D+00  2.69D+00  7.54D-01  7.21D-01  1.91D+00
                    CP:  2.72D+00  3.00D+00  3.00D+00  3.00D+00  3.00D+00
                    CP:  3.00D+00  3.00D+00  3.00D+00  3.00D+00  3.00D+00
                    CP:  2.99D+00  1.78D+00
 E= -1788.08016405209     Delta-E=       -0.000087906926 Rises=F Damp=F
 DIIS: error= 1.27D-04 at cycle  18 NSaved=  18.
 NSaved=18 IEnMin=18 EnMin= -1788.08016405209     IErMin=18 ErrMin= 1.27D-04
 ErrMax= 1.27D-04  0.00D+00 EMaxC= 1.00D-01 BMatC= 2.86D-05 BMatP= 2.49D-05
 IDIUse=3 WtCom= 9.98D-01 WtEn= 1.78D-03
 Coeff-Com:  0.607D-03-0.811D-03 0.765D-03-0.400D-02 0.109D-01-0.977D-02
 Coeff-Com: -0.592D-02 0.313D-01 0.155D+00-0.518D+00 0.499D+00-0.119D+00
 Coeff-Com:  0.418D+00-0.279D+00-0.611D+00 0.316D+00-0.411D+00 0.153D+01
 Coeff-En:   0.000D+00 0.000D+00 0.000D+00 0.000D+00 0.000D+00 0.000D+00
 Coeff-En:   0.000D+00 0.000D+00 0.000D+00 0.000D+00 0.000D+00 0.000D+00
 Coeff-En:   0.000D+00 0.000D+00 0.000D+00 0.000D+00 0.000D+00 0.100D+01
 Coeff:      0.606D-03-0.810D-03 0.764D-03-0.399D-02 0.109D-01-0.975D-02
 Coeff:     -0.591D-02 0.312D-01 0.155D+00-0.517D+00 0.498D+00-0.119D+00
 Coeff:      0.417D+00-0.279D+00-0.610D+00 0.316D+00-0.410D+00 0.153D+01
 Gap=     0.367 Goal=   None    Shift=    0.000
 Gap=     0.119 Goal=   None    Shift=    0.000
 RMSDP=3.78D-05 MaxDP=3.60D-03 DE=-8.79D-05 OVMax= 1.93D-02

 Cycle  19  Pass 1  IDiag  1:
 RMSU=  2.09D-05    CP:  1.00D+00  2.69D+00  7.50D-01  7.16D-01  1.91D+00
                    CP:  2.72D+00  3.00D+00  3.00D+00  3.00D+00  3.00D+00
                    CP:  3.00D+00  3.00D+00  3.00D+00  3.00D+00  3.00D+00
                    CP:  3.00D+00  2.60D+00  2.27D-02
 E= -1788.08020902772     Delta-E=       -0.000044975626 Rises=F Damp=F
 DIIS: error= 2.49D-04 at cycle  19 NSaved=  19.
 NSaved=19 IEnMin=19 EnMin= -1788.08020902772     IErMin=18 ErrMin= 1.27D-04
 ErrMax= 2.49D-04  0.00D+00 EMaxC= 1.00D-01 BMatC= 9.40D-05 BMatP= 2.49D-05
 IDIUse=3 WtCom= 9.98D-01 WtEn= 1.78D-03
 Coeff-Com:  0.686D-03-0.910D-03 0.154D-02-0.275D-02 0.109D-01-0.168D-01
 Coeff-Com: -0.462D-02 0.176D-01 0.191D+00-0.497D+00 0.484D+00-0.235D+00
 Coeff-Com:  0.434D+00-0.179D+00-0.543D+00 0.264D+00-0.710D+00 0.160D+01
 Coeff-Com:  0.185D+00
 Coeff-En:   0.000D+00 0.000D+00 0.000D+00 0.000D+00 0.000D+00 0.000D+00
 Coeff-En:   0.000D+00 0.000D+00 0.000D+00 0.000D+00 0.000D+00 0.000D+00
 Coeff-En:   0.000D+00 0.000D+00 0.000D+00 0.000D+00 0.000D+00 0.000D+00
 Coeff-En:   0.100D+01
 Coeff:      0.685D-03-0.908D-03 0.153D-02-0.274D-02 0.109D-01-0.168D-01
 Coeff:     -0.461D-02 0.176D-01 0.191D+00-0.496D+00 0.483D+00-0.235D+00
 Coeff:      0.433D+00-0.178D+00-0.542D+00 0.264D+00-0.709D+00 0.160D+01
 Coeff:      0.187D+00
 Gap=     0.367 Goal=   None    Shift=    0.000
 Gap=     0.119 Goal=   None    Shift=    0.000
 RMSDP=1.46D-05 MaxDP=1.21D-03 DE=-4.50D-05 OVMax= 5.59D-03

 Cycle  20  Pass 1  IDiag  1:
 RMSU=  6.99D-06    CP:  1.00D+00  2.69D+00  7.46D-01  7.13D-01  1.91D+00
                    CP:  2.71D+00  3.00D+00  3.00D+00  3.00D+00  3.00D+00
                    CP:  3.00D+00  3.00D+00  3.00D+00  3.00D+00  3.00D+00
                    CP:  3.00D+00  2.85D+00  2.48D-01  1.33D+00
 E= -1788.08023494607     Delta-E=       -0.000025918349 Rises=F Damp=F
 DIIS: error= 2.30D-04 at cycle  20 NSaved=  20.
 NSaved=20 IEnMin=20 EnMin= -1788.08023494607     IErMin=18 ErrMin= 1.27D-04
 ErrMax= 2.30D-04  0.00D+00 EMaxC= 1.00D-01 BMatC= 7.90D-05 BMatP= 2.49D-05
 IDIUse=3 WtCom= 9.98D-01 WtEn= 1.78D-03
 Coeff-Com:  0.120D-02-0.164D-02 0.130D-02-0.260D-02 0.114D-01-0.681D-02
 Coeff-Com: -0.719D-02-0.190D-01 0.139D+00-0.395D+00 0.563D+00-0.289D+00
 Coeff-Com:  0.262D+00-0.135D+00-0.328D+00 0.402D+00-0.794D+00 0.991D+00
 Coeff-Com: -0.238D+01 0.299D+01
 Coeff-En:   0.000D+00 0.000D+00 0.000D+00 0.000D+00 0.000D+00 0.000D+00
 Coeff-En:   0.000D+00 0.000D+00 0.000D+00 0.000D+00 0.000D+00 0.000D+00
 Coeff-En:   0.000D+00 0.000D+00 0.000D+00 0.000D+00 0.000D+00 0.000D+00
 Coeff-En:   0.000D+00 0.100D+01
 Coeff:      0.120D-02-0.164D-02 0.130D-02-0.259D-02 0.114D-01-0.679D-02
 Coeff:     -0.717D-02-0.190D-01 0.138D+00-0.394D+00 0.562D+00-0.288D+00
 Coeff:      0.262D+00-0.135D+00-0.327D+00 0.401D+00-0.792D+00 0.990D+00
 Coeff:     -0.238D+01 0.299D+01
 Gap=     0.368 Goal=   None    Shift=    0.000
 Gap=     0.119 Goal=   None    Shift=    0.000
 RMSDP=2.94D-05 MaxDP=2.90D-03 DE=-2.59D-05 OVMax= 1.56D-02

 Cycle  21  Pass 1  IDiag  1:
 Restarting incremental Fock formation.
 E= -1788.08028103622     Delta-E=       -0.000046090152 Rises=F Damp=F
 DIIS: error= 2.50D-04 at cycle  21 NSaved=  20.
 NSaved=20 IEnMin=20 EnMin= -1788.08028103622     IErMin=17 ErrMin= 1.27D-04
 ErrMax= 2.50D-04  0.00D+00 EMaxC= 1.00D-01 BMatC= 9.26D-05 BMatP= 2.49D-05
 IDIUse=3 WtCom= 9.98D-01 WtEn= 1.78D-03
 Coeff-Com:  0.760D-04-0.119D-02-0.680D-02 0.770D-02-0.233D-03 0.933D-02
 Coeff-Com:  0.333D-01 0.115D+00-0.554D+00 0.568D+00-0.902D-01 0.339D+00
 Coeff-Com: -0.315D+00-0.458D+00 0.468D+00-0.558D+00 0.104D+01-0.203D+01
 Coeff-Com:  0.193D+01 0.495D+00
 Coeff-En:   0.000D+00 0.000D+00 0.000D+00 0.000D+00 0.000D+00 0.000D+00
 Coeff-En:   0.000D+00 0.000D+00 0.000D+00 0.000D+00 0.000D+00 0.000D+00
 Coeff-En:   0.000D+00 0.000D+00 0.000D+00 0.000D+00 0.000D+00 0.000D+00
 Coeff-En:   0.000D+00 0.100D+01
 Coeff:      0.759D-04-0.118D-02-0.679D-02 0.768D-02-0.233D-03 0.932D-02
 Coeff:      0.333D-01 0.114D+00-0.553D+00 0.567D+00-0.901D-01 0.338D+00
 Coeff:     -0.315D+00-0.457D+00 0.467D+00-0.557D+00 0.104D+01-0.203D+01
 Coeff:      0.193D+01 0.496D+00
 Gap=     0.368 Goal=   None    Shift=    0.000
 Gap=     0.119 Goal=   None    Shift=    0.000
 RMSDP=3.84D-06 MaxDP=3.34D-04 DE=-4.61D-05 OVMax= 1.58D-03

 Cycle  22  Pass 1  IDiag  1:
 RMSU=  3.84D-06    CP:  1.00D+00
 E= -1788.08028416850     Delta-E=       -0.000003132283 Rises=F Damp=F
 DIIS: error= 2.55D-04 at cycle  22 NSaved=  20.
 NSaved=20 IEnMin=20 EnMin= -1788.08028416850     IErMin=16 ErrMin= 1.27D-04
 ErrMax= 2.55D-04  0.00D+00 EMaxC= 1.00D-01 BMatC= 9.55D-05 BMatP= 2.49D-05
 IDIUse=3 WtCom= 9.98D-01 WtEn= 1.78D-03
 Coeff-Com: -0.145D-02-0.683D-02 0.810D-02 0.196D-02 0.993D-02 0.261D-01
 Coeff-Com:  0.108D+00-0.551D+00 0.582D+00-0.857D-01 0.330D+00-0.330D+00
 Coeff-Com: -0.456D+00 0.486D+00-0.533D+00 0.103D+01-0.210D+01 0.187D+01
 Coeff-Com:  0.324D+00 0.285D+00
 Coeff-En:   0.000D+00 0.000D+00 0.000D+00 0.000D+00 0.000D+00 0.000D+00
 Coeff-En:   0.000D+00 0.000D+00 0.000D+00 0.000D+00 0.000D+00 0.000D+00
 Coeff-En:   0.000D+00 0.000D+00 0.000D+00 0.000D+00 0.000D+00 0.000D+00
 Coeff-En:   0.000D+00 0.100D+01
 Coeff:     -0.145D-02-0.682D-02 0.809D-02 0.195D-02 0.991D-02 0.260D-01
 Coeff:      0.108D+00-0.550D+00 0.581D+00-0.856D-01 0.330D+00-0.330D+00
 Coeff:     -0.456D+00 0.485D+00-0.532D+00 0.103D+01-0.209D+01 0.187D+01
 Coeff:      0.323D+00 0.286D+00
 Gap=     0.368 Goal=   None    Shift=    0.000
 Gap=     0.119 Goal=   None    Shift=    0.000
 RMSDP=3.72D-06 MaxDP=3.70D-04 DE=-3.13D-06 OVMax= 1.98D-03

 Cycle  23  Pass 1  IDiag  1:
 RMSU=  2.75D-06    CP:  1.00D+00  1.65D+00
 E= -1788.08029074740     Delta-E=       -0.000006578896 Rises=F Damp=F
 DIIS: error= 2.53D-04 at cycle  23 NSaved=  20.
 NSaved=20 IEnMin=20 EnMin= -1788.08029074740     IErMin=15 ErrMin= 1.27D-04
 ErrMax= 2.53D-04  0.00D+00 EMaxC= 1.00D-01 BMatC= 9.40D-05 BMatP= 2.49D-05
 IDIUse=3 WtCom= 9.98D-01 WtEn= 1.78D-03
 Large coefficients: NSaved= 20 BigCof=   16.46 CofMax=   10.00 Det=-4.05D-10
 Inversion failed.  Reducing to 19 matrices.
 Large coefficients: NSaved= 19 BigCof=   11.56 CofMax=   10.00 Det=-4.20D-10
 Inversion failed.  Reducing to 18 matrices.
 Large coefficients: NSaved= 18 BigCof=   13.00 CofMax=   10.00 Det=-5.45D-10
 Inversion failed.  Reducing to 17 matrices.
 Coeff-Com:  0.268D-01-0.758D-01 0.939D-01-0.397D+00 0.780D+00-0.169D+00
 Coeff-Com: -0.514D-01-0.435D+00-0.451D-01 0.727D+00-0.664D+00 0.635D+00
 Coeff-Com: -0.251D+01 0.217D+01 0.231D+00 0.772D+01-0.704D+01
 Coeff-En:   0.000D+00 0.000D+00 0.000D+00 0.000D+00 0.000D+00 0.000D+00
 Coeff-En:   0.000D+00 0.000D+00 0.000D+00 0.000D+00 0.000D+00 0.000D+00
 Coeff-En:   0.000D+00 0.000D+00 0.000D+00 0.000D+00 0.100D+01
 Coeff:      0.268D-01-0.756D-01 0.938D-01-0.396D+00 0.778D+00-0.169D+00
 Coeff:     -0.513D-01-0.434D+00-0.450D-01 0.726D+00-0.663D+00 0.634D+00
 Coeff:     -0.251D+01 0.217D+01 0.231D+00 0.770D+01-0.702D+01
 Gap=     0.368 Goal=   None    Shift=    0.000
 Gap=     0.118 Goal=   None    Shift=    0.000
 RMSDP=1.91D-05 MaxDP=1.41D-03 DE=-6.58D-06 OVMax= 8.01D-03

 Cycle  24  Pass 1  IDiag  1:
 RMSU=  8.51D-06    CP:  1.00D+00  5.63D-01 -3.00D+00
 E= -1788.08024843587     Delta-E=        0.000042311527 Rises=F Damp=F
 DIIS: error= 3.17D-04 at cycle  24 NSaved=  18.
 NSaved=18 IEnMin=17 EnMin= -1788.08029074740     IErMin=12 ErrMin= 1.27D-04
 ErrMax= 3.17D-04  0.00D+00 EMaxC= 1.00D-01 BMatC= 1.40D-04 BMatP= 2.49D-05
 IDIUse=3 WtCom= 9.98D-01 WtEn= 1.78D-03
 Rare condition: small coef for last iteration:  0.000D+00
 Coeff-Com:  0.228D-01-0.610D-01 0.113D+00-0.451D+00 0.689D+00-0.234D+00
 Coeff-Com:  0.965D-01-0.276D+00-0.713D-01 0.591D+00-0.991D+00 0.830D+00
 Coeff-Com: -0.225D+01 0.322D+01-0.105D+01-0.296D+01 0.300D+01 0.775D+00
 Coeff-En:   0.000D+00 0.000D+00 0.000D+00 0.000D+00 0.000D+00 0.000D+00
 Coeff-En:   0.000D+00 0.000D+00 0.000D+00 0.000D+00 0.000D+00 0.000D+00
 Coeff-En:   0.000D+00 0.000D+00 0.000D+00 0.000D+00 0.000D+00 0.100D+01
 Coeff:      0.228D-01-0.610D-01 0.113D+00-0.451D+00 0.689D+00-0.234D+00
 Coeff:      0.965D-01-0.276D+00-0.713D-01 0.591D+00-0.991D+00 0.830D+00
 Coeff:     -0.225D+01 0.322D+01-0.105D+01-0.296D+01 0.300D+01 0.775D+00
 Gap=     0.368 Goal=   None    Shift=    0.000
 Gap=     0.120 Goal=   None    Shift=    0.000
 RMSDP=2.05D-05 MaxDP=1.29D-03 DE= 4.23D-05 OVMax= 8.80D-03

 Cycle  25  Pass 1  IDiag  1:
 RMSU=  3.16D-06    CP:  1.00D+00 -2.53D-01  1.50D+00 -2.87D-02
 E= -1788.08029196042     Delta-E=       -0.000043524550 Rises=F Damp=F
 DIIS: error= 2.16D-04 at cycle  25 NSaved=  19.
 NSaved=19 IEnMin=19 EnMin= -1788.08029196042     IErMin=12 ErrMin= 1.27D-04
 ErrMax= 2.16D-04  0.00D+00 EMaxC= 1.00D-01 BMatC= 6.16D-05 BMatP= 2.49D-05
 IDIUse=3 WtCom= 9.98D-01 WtEn= 1.78D-03
 Coeff-Com: -0.653D-02 0.111D-01 0.705D-01-0.476D+00 0.599D+00-0.205D+00
 Coeff-Com:  0.147D+00-0.771D-01-0.103D+00 0.244D+00-0.675D+00 0.266D+00
 Coeff-Com: -0.447D+00 0.144D+01-0.115D+01-0.644D+01 0.479D+01 0.246D+00
 Coeff-Com:  0.276D+01
 Coeff-En:   0.000D+00 0.000D+00 0.000D+00 0.000D+00 0.000D+00 0.000D+00
 Coeff-En:   0.000D+00 0.000D+00 0.000D+00 0.000D+00 0.000D+00 0.000D+00
 Coeff-En:   0.000D+00 0.000D+00 0.000D+00 0.000D+00 0.000D+00 0.000D+00
 Coeff-En:   0.100D+01
 Coeff:     -0.652D-02 0.111D-01 0.704D-01-0.475D+00 0.598D+00-0.205D+00
 Coeff:      0.147D+00-0.769D-01-0.102D+00 0.244D+00-0.674D+00 0.266D+00
 Coeff:     -0.446D+00 0.144D+01-0.114D+01-0.643D+01 0.479D+01 0.245D+00
 Coeff:      0.275D+01
 Gap=     0.368 Goal=   None    Shift=    0.000
 Gap=     0.121 Goal=   None    Shift=    0.000
 RMSDP=2.31D-05 MaxDP=2.06D-03 DE=-4.35D-05 OVMax= 1.15D-02

 Cycle  26  Pass 1  IDiag  1:
 RMSU=  7.81D-06    CP:  1.00D+00  2.90D+00  3.00D+00 -1.62D+00  1.20D+00
 E= -1788.08033564931     Delta-E=       -0.000043688886 Rises=F Damp=F
 DIIS: error= 1.58D-04 at cycle  26 NSaved=  20.
 NSaved=20 IEnMin=20 EnMin= -1788.08033564931     IErMin=12 ErrMin= 1.27D-04
 ErrMax= 1.58D-04  0.00D+00 EMaxC= 1.00D-01 BMatC= 3.84D-05 BMatP= 2.49D-05
 IDIUse=3 WtCom= 9.98D-01 WtEn= 1.78D-03
 Coeff-Com: -0.750D-02 0.287D-01 0.361D-01-0.505D+00 0.602D+00-0.188D+00
 Coeff-Com:  0.806D-01 0.357D-01-0.549D-01-0.911D-02-0.270D+00-0.318D+00
 Coeff-Com:  0.260D+01-0.212D+01-0.481D+00 0.337D+01-0.633D+01-0.684D-01
 Coeff-Com:  0.296D+01 0.165D+01
 Coeff-En:   0.000D+00 0.000D+00 0.000D+00 0.000D+00 0.000D+00 0.000D+00
 Coeff-En:   0.000D+00 0.000D+00 0.000D+00 0.000D+00 0.000D+00 0.000D+00
 Coeff-En:   0.000D+00 0.000D+00 0.000D+00 0.000D+00 0.000D+00 0.000D+00
 Coeff-En:   0.000D+00 0.100D+01
 Coeff:     -0.749D-02 0.287D-01 0.361D-01-0.504D+00 0.601D+00-0.187D+00
 Coeff:      0.805D-01 0.356D-01-0.548D-01-0.909D-02-0.269D+00-0.318D+00
 Coeff:      0.259D+01-0.211D+01-0.480D+00 0.336D+01-0.632D+01-0.683D-01
 Coeff:      0.295D+01 0.165D+01
 Gap=     0.368 Goal=   None    Shift=    0.000
 Gap=     0.122 Goal=   None    Shift=    0.000
 RMSDP=1.05D-05 MaxDP=8.68D-04 DE=-4.37D-05 OVMax= 3.45D-03

 Cycle  27  Pass 1  IDiag  1:
 RMSU=  2.46D-06    CP:  1.00D+00  3.00D+00  3.00D+00 -2.61D+00  1.94D+00
                    CP:  1.66D+00
 E= -1788.08035149364     Delta-E=       -0.000015844330 Rises=F Damp=F
 DIIS: error= 1.10D-04 at cycle  27 NSaved=  20.
 NSaved=20 IEnMin=20 EnMin= -1788.08035149364     IErMin=20 ErrMin= 1.10D-04
 ErrMax= 1.10D-04  0.00D+00 EMaxC= 1.00D-01 BMatC= 2.61D-05 BMatP= 2.49D-05
 IDIUse=3 WtCom= 9.99D-01 WtEn= 1.10D-03
 Large coefficients: NSaved= 20 BigCof=   10.98 CofMax=   10.00 Det=-4.28D-10
 Inversion failed.  Reducing to 19 matrices.
 Large coefficients: NSaved= 19 BigCof=   10.44 CofMax=   10.00 Det=-4.37D-10
 Inversion failed.  Reducing to 18 matrices.
 Large coefficients: NSaved= 18 BigCof=   11.64 CofMax=   10.00 Det=-4.43D-10
 Inversion failed.  Reducing to 17 matrices.
 Coeff-Com:  0.497D+00-0.744D+00-0.709D-01 0.574D+00 0.231D+00-0.275D+00
 Coeff-Com: -0.813D+00-0.398D+00 0.216D+01 0.179D+00-0.155D+01 0.154D+01
 Coeff-Com: -0.440D+01-0.509D+00 0.301D+01 0.175D+01-0.171D+00
 Coeff-En:   0.000D+00 0.000D+00 0.000D+00 0.000D+00 0.000D+00 0.000D+00
 Coeff-En:   0.000D+00 0.000D+00 0.000D+00 0.000D+00 0.000D+00 0.000D+00
 Coeff-En:   0.000D+00 0.000D+00 0.000D+00 0.000D+00 0.100D+01
 Coeff:      0.497D+00-0.743D+00-0.708D-01 0.574D+00 0.231D+00-0.275D+00
 Coeff:     -0.812D+00-0.398D+00 0.216D+01 0.179D+00-0.155D+01 0.154D+01
 Coeff:     -0.440D+01-0.508D+00 0.301D+01 0.174D+01-0.170D+00
 Gap=     0.368 Goal=   None    Shift=    0.000
 Gap=     0.119 Goal=   None    Shift=    0.000
 RMSDP=5.06D-05 MaxDP=3.61D-03 DE=-1.58D-05 OVMax= 2.24D-02

 Cycle  28  Pass 1  IDiag  1:
 RMSU=  5.21D-06    CP:  1.00D+00  3.00D+00 -3.00D+00  1.00D+00  9.97D-01
                    CP: -8.62D-02  3.00D+00
 E= -1788.08027132471     Delta-E=        0.000080168926 Rises=F Damp=F
 DIIS: error= 2.63D-04 at cycle  28 NSaved=  18.
 NSaved=18 IEnMin=17 EnMin= -1788.08035149364     IErMin=17 ErrMin= 1.10D-04
 ErrMax= 2.63D-04  0.00D+00 EMaxC= 1.00D-01 BMatC= 9.79D-05 BMatP= 2.49D-05
 IDIUse=3 WtCom= 9.99D-01 WtEn= 1.10D-03
 Rare condition: small coef for last iteration:  0.000D+00
 Coeff-Com:  0.416D+00-0.747D+00 0.620D-01 0.575D+00 0.123D+00-0.322D+00
 Coeff-Com: -0.119D+01 0.151D-01 0.232D+01 0.122D+01-0.250D+01-0.873D+01
 Coeff-Com:  0.525D+01-0.627D+00 0.354D+01 0.149D+01-0.548D+00 0.664D+00
 Coeff-En:   0.000D+00 0.000D+00 0.000D+00 0.000D+00 0.000D+00 0.000D+00
 Coeff-En:   0.000D+00 0.000D+00 0.000D+00 0.000D+00 0.000D+00 0.000D+00
 Coeff-En:   0.000D+00 0.000D+00 0.000D+00 0.000D+00 0.000D+00 0.100D+01
 Coeff:      0.416D+00-0.747D+00 0.620D-01 0.575D+00 0.123D+00-0.322D+00
 Coeff:     -0.119D+01 0.151D-01 0.232D+01 0.122D+01-0.250D+01-0.873D+01
 Coeff:      0.525D+01-0.627D+00 0.354D+01 0.149D+01-0.548D+00 0.664D+00
 Gap=     0.368 Goal=   None    Shift=    0.000
 Gap=     0.120 Goal=   None    Shift=    0.000
 RMSDP=2.02D-05 MaxDP=1.66D-03 DE= 8.02D-05 OVMax= 8.89D-03

 Cycle  29  Pass 1  IDiag  1:
 RMSU=  1.88D-06    CP:  1.00D+00  3.00D+00  1.10D+00  1.01D-01  1.99D+00
                    CP:  4.13D-01  2.93D+00  5.54D-01
 E= -1788.08030833109     Delta-E=       -0.000037006375 Rises=F Damp=F
 DIIS: error= 2.03D-04 at cycle  29 NSaved=  19.
 NSaved=19 IEnMin=17 EnMin= -1788.08035149364     IErMin=17 ErrMin= 1.10D-04
 ErrMax= 2.03D-04  0.00D+00 EMaxC= 1.00D-01 BMatC= 5.30D-05 BMatP= 2.49D-05
 IDIUse=3 WtCom= 9.99D-01 WtEn= 1.10D-03
 Coeff-Com:  0.601D+00-0.787D+00-0.295D+00 0.691D+00 0.431D+00-0.635D+00
 Coeff-Com: -0.326D+00-0.145D+01 0.381D+01 0.759D+00-0.350D+01-0.656D+01
 Coeff-Com:  0.232D+01-0.948D+00 0.513D+01 0.295D+01 0.140D+01 0.274D+01
 Coeff-Com: -0.532D+01
 Coeff-En:   0.000D+00 0.000D+00 0.000D+00 0.000D+00 0.000D+00 0.000D+00
 Coeff-En:   0.000D+00 0.000D+00 0.000D+00 0.000D+00 0.000D+00 0.000D+00
 Coeff-En:   0.000D+00 0.000D+00 0.000D+00 0.000D+00 0.000D+00 0.000D+00
 Coeff-En:   0.100D+01
 Coeff:      0.600D+00-0.786D+00-0.295D+00 0.690D+00 0.431D+00-0.635D+00
 Coeff:     -0.326D+00-0.145D+01 0.380D+01 0.758D+00-0.350D+01-0.655D+01
 Coeff:      0.232D+01-0.947D+00 0.512D+01 0.295D+01 0.140D+01 0.273D+01
 Coeff:     -0.531D+01
 Gap=     0.368 Goal=   None    Shift=    0.000
 Gap=     0.118 Goal=   None    Shift=    0.000
 RMSDP=1.60D-05 MaxDP=1.24D-03 DE=-3.70D-05 OVMax= 3.98D-03

 Cycle  30  Pass 1  IDiag  1:
 RMSU=  5.62D-06    CP:  1.00D+00  3.00D+00 -1.67D+00  2.71D-01 -9.24D-01
                    CP:  3.60D-01  1.71D+00  1.44D+00 -2.65D+00
 E= -1788.08028309072     Delta-E=        0.000025240363 Rises=F Damp=F
 DIIS: error= 3.08D-04 at cycle  30 NSaved=  20.
 NSaved=20 IEnMin=17 EnMin= -1788.08035149364     IErMin=17 ErrMin= 1.10D-04
 ErrMax= 3.08D-04  0.00D+00 EMaxC= 1.00D-01 BMatC= 1.36D-04 BMatP= 2.49D-05
 IDIUse=3 WtCom= 9.99D-01 WtEn= 1.10D-03
 Rare condition: small coef for last iteration:  0.000D+00
 Coeff-Com:  0.589D+00-0.759D+00-0.306D+00 0.676D+00 0.420D+00-0.694D+00
 Coeff-Com: -0.415D+00-0.140D+01 0.474D+01 0.722D+00-0.415D+01-0.815D+01
 Coeff-Com:  0.296D+01-0.139D+01 0.587D+01 0.296D+01 0.178D+01 0.302D+01
 Coeff-Com: -0.632D+01 0.848D+00
 Coeff-En:   0.000D+00 0.000D+00 0.000D+00 0.000D+00 0.000D+00 0.000D+00
 Coeff-En:   0.000D+00 0.000D+00 0.000D+00 0.000D+00 0.000D+00 0.000D+00
 Coeff-En:   0.000D+00 0.000D+00 0.000D+00 0.000D+00 0.000D+00 0.000D+00
 Coeff-En:   0.000D+00 0.100D+01
 Coeff:      0.589D+00-0.759D+00-0.306D+00 0.676D+00 0.420D+00-0.694D+00
 Coeff:     -0.415D+00-0.140D+01 0.474D+01 0.722D+00-0.415D+01-0.815D+01
 Coeff:      0.296D+01-0.139D+01 0.587D+01 0.296D+01 0.178D+01 0.302D+01
 Coeff:     -0.632D+01 0.848D+00
 Gap=     0.368 Goal=   None    Shift=    0.000
 Gap=     0.118 Goal=   None    Shift=    0.000
 RMSDP=7.47D-06 MaxDP=7.37D-04 DE= 2.52D-05 OVMax= 3.04D-03

 Cycle  31  Pass 1  IDiag  1:
 RMSU=  3.06D-06    CP:  1.00D+00  3.00D+00 -1.08D+00  2.48D-01 -1.32D+00
                    CP:  2.52D-01 -1.97D-01  7.32D-01 -3.00D+00  6.94D-01
 E= -1788.08028027781     Delta-E=        0.000002812910 Rises=F Damp=F
 DIIS: error= 3.02D-04 at cycle  31 NSaved=  20.
 NSaved=20 IEnMin=16 EnMin= -1788.08035149364     IErMin=16 ErrMin= 1.10D-04
 ErrMax= 3.02D-04  0.00D+00 EMaxC= 1.00D-01 BMatC= 1.32D-04 BMatP= 2.49D-05
 IDIUse=3 WtCom= 9.99D-01 WtEn= 1.10D-03
 Large coefficients: NSaved= 20 BigCof=   18.77 CofMax=   10.00 Det=-3.86D-10
 Inversion failed.  Reducing to 19 matrices.
 Large coefficients: NSaved= 19 BigCof=   17.32 CofMax=   10.00 Det=-3.86D-10
 Inversion failed.  Reducing to 18 matrices.
 Large coefficients: NSaved= 18 BigCof=   16.25 CofMax=   10.00 Det=-3.88D-10
 Inversion failed.  Reducing to 17 matrices.
 Large coefficients: NSaved= 17 BigCof=   14.48 CofMax=   10.00 Det=-3.90D-10
 Inversion failed.  Reducing to 16 matrices.
 Large coefficients: NSaved= 16 BigCof=   13.39 CofMax=   10.00 Det=-4.06D-10
 Inversion failed.  Reducing to 15 matrices.
 Large coefficients: NSaved= 15 BigCof=   13.36 CofMax=   10.00 Det=-4.24D-10
 Inversion failed.  Reducing to 14 matrices.
 Rare condition: small coef for last iteration:  0.000D+00
 Coeff-Com: -0.584D+00 0.724D+01-0.327D+01-0.271D+01-0.512D+00-0.575D+01
 Coeff-Com: -0.138D+01 0.404D+01 0.133D+01 0.733D+00 0.120D+01-0.102D+01
 Coeff-Com: -0.116D+01 0.283D+01
 Coeff-En:   0.000D+00 0.000D+00 0.000D+00 0.000D+00 0.000D+00 0.000D+00
 Coeff-En:   0.000D+00 0.000D+00 0.000D+00 0.000D+00 0.000D+00 0.000D+00
 Coeff-En:   0.000D+00 0.100D+01
 Coeff:     -0.584D+00 0.724D+01-0.327D+01-0.271D+01-0.512D+00-0.575D+01
 Coeff:     -0.138D+01 0.404D+01 0.133D+01 0.733D+00 0.120D+01-0.102D+01
 Coeff:     -0.116D+01 0.283D+01
 Gap=     0.366 Goal=   None    Shift=    0.000
 Gap=     0.120 Goal=   None    Shift=    0.000
 RMSDP=1.11D-04 MaxDP=1.11D-02 DE= 2.81D-06 OVMax= 5.76D-02

 Cycle  32  Pass 1  IDiag  1:
 RMSU=  5.05D-05    CP:  1.00D+00 -3.00D+00 -3.00D+00  3.00D+00  3.00D+00
                    CP: -3.00D+00 -3.00D+00 -3.00D+00 -2.96D+00 -3.00D+00
                    CP:  3.00D+00
 E= -1788.08011673809     Delta-E=        0.000163539724 Rises=F Damp=F
 DIIS: error= 1.49D-04 at cycle  32 NSaved=  15.
 NSaved=15 IEnMin=10 EnMin= -1788.08035149364     IErMin=10 ErrMin= 1.10D-04
 ErrMax= 1.49D-04  0.00D+00 EMaxC= 1.00D-01 BMatC= 1.96D-05 BMatP= 2.61D-05
 IDIUse=3 WtCom= 9.99D-01 WtEn= 1.10D-03
 Rare condition: small coef for last iteration:  0.000D+00
 Coeff-Com: -0.154D+01-0.597D+00 0.240D+01-0.118D+01 0.553D+01-0.944D+01
 Coeff-Com: -0.200D+00 0.490D+01 0.201D+01 0.420D-01 0.231D+01-0.405D+01
 Coeff-Com: -0.162D+00-0.269D+00 0.125D+01
 Coeff-En:   0.000D+00 0.000D+00 0.000D+00 0.000D+00 0.000D+00 0.000D+00
 Coeff-En:   0.000D+00 0.000D+00 0.000D+00 0.000D+00 0.000D+00 0.000D+00
 Coeff-En:   0.000D+00 0.000D+00 0.100D+01
 Coeff:     -0.154D+01-0.597D+00 0.240D+01-0.118D+01 0.553D+01-0.944D+01
 Coeff:     -0.200D+00 0.490D+01 0.201D+01 0.420D-01 0.231D+01-0.405D+01
 Coeff:     -0.162D+00-0.269D+00 0.125D+01
 Gap=     0.366 Goal=   None    Shift=    0.000
 Gap=     0.121 Goal=   None    Shift=    0.000
 RMSDP=5.31D-05 MaxDP=4.47D-03 DE= 1.64D-04 OVMax= 2.77D-02

 Cycle  33  Pass 1  IDiag  1:
 RMSU=  3.15D-05    CP:  1.00D+00 -3.00D+00 -3.00D+00  2.66D+00  2.30D+00
                    CP: -2.72D+00 -3.00D+00 -3.00D+00 -7.32D-01 -3.00D+00
                    CP:  3.00D+00  2.46D-01
 E= -1788.08017557321     Delta-E=       -0.000058835123 Rises=F Damp=F
 DIIS: error= 1.15D-04 at cycle  33 NSaved=  16.
 NSaved=16 IEnMin=10 EnMin= -1788.08035149364     IErMin=10 ErrMin= 1.10D-04
 ErrMax= 1.15D-04  0.00D+00 EMaxC= 1.00D-01 BMatC= 2.50D-05 BMatP= 1.96D-05
 IDIUse=3 WtCom= 9.99D-01 WtEn= 1.10D-03
 Large coefficients: NSaved= 16 BigCof=   10.69 CofMax=   10.00 Det=-4.76D-10
 Inversion failed.  Reducing to 15 matrices.
 Large coefficients: NSaved= 15 BigCof=   21.48 CofMax=   10.00 Det=-4.92D-10
 Inversion failed.  Reducing to 14 matrices.
 Large coefficients: NSaved= 14 BigCof=   21.52 CofMax=   10.00 Det=-4.93D-10
 Inversion failed.  Reducing to 13 matrices.
 Large coefficients: NSaved= 13 BigCof=   20.05 CofMax=   10.00 Det=-6.73D-10
 Inversion failed.  Reducing to 12 matrices.
 Large coefficients: NSaved= 12 BigCof=   20.02 CofMax=   10.00 Det=-6.89D-10
 Inversion failed.  Reducing to 11 matrices.
 Large coefficients: NSaved= 11 BigCof=   25.89 CofMax=   10.00 Det=-7.45D-10
 Inversion failed.  Reducing to 10 matrices.
 Large coefficients: NSaved= 10 BigCof=   22.84 CofMax=   10.00 Det=-7.61D-10
 Inversion failed.  Reducing to  9 matrices.
 Large coefficients: NSaved=  9 BigCof=   19.98 CofMax=   10.00 Det=-9.73D-10
 Inversion failed.  Reducing to  8 matrices.
 Large coefficients: NSaved=  8 BigCof=   20.64 CofMax=   10.00 Det=-9.79D-10
 Inversion failed.  Reducing to  7 matrices.
 Coeff-Com: -0.314D+01 0.364D+01 0.735D+00-0.137D+01-0.330D-01 0.892D+00
 Coeff-Com:  0.275D+00
 Coeff-En:   0.000D+00 0.000D+00 0.000D+00 0.000D+00 0.000D+00 0.000D+00
 Coeff-En:   0.100D+01
 Coeff:     -0.314D+01 0.363D+01 0.735D+00-0.136D+01-0.330D-01 0.891D+00
 Coeff:      0.276D+00
 Gap=     0.365 Goal=   None    Shift=    0.000
 Gap=     0.121 Goal=   None    Shift=    0.000
 RMSDP=6.09D-05 MaxDP=5.04D-03 DE=-5.88D-05 OVMax= 2.76D-02

 Cycle  34  Pass 1  IDiag  1:
 RMSU=  1.22D-05    CP:  1.00D+00 -3.00D+00 -3.00D+00  3.00D+00  3.00D+00
                    CP: -3.00D+00 -3.00D+00 -3.00D+00  1.86D+00 -3.00D+00
                    CP:  3.00D+00  1.35D+00  9.60D-01
 E= -1788.08007471487     Delta-E=        0.000100858340 Rises=F Damp=F
 DIIS: error= 1.35D-04 at cycle  34 NSaved=   8.
 NSaved= 8 IEnMin= 4 EnMin= -1788.08035149364     IErMin= 4 ErrMin= 1.10D-04
 ErrMax= 1.35D-04  0.00D+00 EMaxC= 1.00D-01 BMatC= 2.00D-05 BMatP= 1.96D-05
 IDIUse=3 WtCom= 9.99D-01 WtEn= 1.10D-03
 Rare condition: small coef for last iteration:  0.000D+00
 Coeff-Com: -0.313D+01 0.384D+01 0.684D+00-0.157D+01-0.230D+00 0.605D+00
 Coeff-Com:  0.181D+00 0.620D+00
 Coeff-En:   0.000D+00 0.000D+00 0.000D+00 0.000D+00 0.000D+00 0.000D+00
 Coeff-En:   0.000D+00 0.100D+01
 Coeff:     -0.313D+01 0.384D+01 0.684D+00-0.157D+01-0.230D+00 0.605D+00
 Coeff:      0.181D+00 0.620D+00
 Gap=     0.364 Goal=   None    Shift=    0.000
 Gap=     0.122 Goal=   None    Shift=    0.000
 RMSDP=5.47D-05 MaxDP=5.17D-03 DE= 1.01D-04 OVMax= 2.90D-02

 Cycle  35  Pass 1  IDiag  1:
 RMSU=  4.37D-06    CP:  1.00D+00 -3.00D+00 -3.00D+00  3.00D+00  3.00D+00
                    CP: -3.00D+00 -3.00D+00 -3.00D+00  3.00D+00 -3.00D+00
                    CP:  3.00D+00  2.30D+00  1.68D+00  2.05D+00
 E= -1788.07998097341     Delta-E=        0.000093741465 Rises=F Damp=F
 DIIS: error= 1.33D-04 at cycle  35 NSaved=   9.
 NSaved= 9 IEnMin= 4 EnMin= -1788.08035149364     IErMin= 4 ErrMin= 1.10D-04
 ErrMax= 1.33D-04  0.00D+00 EMaxC= 1.00D-01 BMatC= 2.36D-05 BMatP= 1.96D-05
 IDIUse=3 WtCom= 9.99D-01 WtEn= 1.10D-03
 Rare condition: small coef for last iteration:  0.000D+00
 Coeff-Com: -0.285D+01 0.317D+01 0.728D+00-0.965D+00-0.590D-01 0.102D+01
 Coeff-Com:  0.184D+00 0.898D+00-0.112D+01
 Coeff-En:   0.000D+00 0.000D+00 0.000D+00 0.000D+00 0.000D+00 0.000D+00
 Coeff-En:   0.000D+00 0.000D+00 0.100D+01
 Coeff:     -0.285D+01 0.317D+01 0.728D+00-0.965D+00-0.590D-01 0.102D+01
 Coeff:      0.184D+00 0.898D+00-0.112D+01
 Gap=     0.367 Goal=   None    Shift=    0.000
 Gap=     0.120 Goal=   None    Shift=    0.000
 RMSDP=1.51D-04 MaxDP=1.47D-02 DE= 9.37D-05 OVMax= 8.08D-02

 Cycle  36  Pass 1  IDiag  1:
 RMSU=  4.10D-06    CP:  1.00D+00 -3.00D+00 -3.00D+00  1.56D+00  3.00D+00
                    CP: -2.17D+00  1.60D+00 -3.26D-01 -2.27D+00 -1.54D+00
                    CP:  2.23D+00  4.31D-02  9.86D-02 -3.66D-01  5.70D-02
 E= -1788.08023674212     Delta-E=       -0.000255768710 Rises=F Damp=F
 DIIS: error= 1.31D-04 at cycle  36 NSaved=  10.
 NSaved=10 IEnMin= 4 EnMin= -1788.08035149364     IErMin= 4 ErrMin= 1.10D-04
 ErrMax= 1.31D-04  0.00D+00 EMaxC= 1.00D-01 BMatC= 2.42D-05 BMatP= 1.96D-05
 IDIUse=3 WtCom= 9.99D-01 WtEn= 1.10D-03
 Coeff-Com: -0.271D+01 0.346D+01 0.103D+01-0.117D+01-0.863D+00 0.103D+01
 Coeff-Com:  0.230D+00 0.129D+01-0.224D+01 0.934D+00
 Coeff-En:   0.000D+00 0.000D+00 0.000D+00 0.000D+00 0.000D+00 0.000D+00
 Coeff-En:   0.000D+00 0.000D+00 0.000D+00 0.100D+01
 Coeff:     -0.270D+01 0.345D+01 0.103D+01-0.117D+01-0.862D+00 0.103D+01
 Coeff:      0.229D+00 0.129D+01-0.223D+01 0.934D+00
 Gap=     0.368 Goal=   None    Shift=    0.000
 Gap=     0.124 Goal=   None    Shift=    0.000
 RMSDP=1.08D-04 MaxDP=1.07D-02 DE=-2.56D-04 OVMax= 5.70D-02

 Cycle  37  Pass 1  IDiag  1:
 RMSU=  1.38D-05    CP:  1.00D+00  3.00D+00  3.00D+00 -3.00D+00  1.85D+00
                    CP:  2.32D+00  3.00D+00  3.00D+00 -3.00D+00  2.13D+00
                    CP: -2.57D+00 -2.70D-01 -6.78D-01 -3.98D-01 -1.53D+00
                    CP: -2.12D-01
 E= -1788.08041467590     Delta-E=       -0.000177933782 Rises=F Damp=F
 DIIS: error= 1.33D-04 at cycle  37 NSaved=  11.
 NSaved=11 IEnMin=11 EnMin= -1788.08041467590     IErMin= 4 ErrMin= 1.10D-04
 ErrMax= 1.33D-04  0.00D+00 EMaxC= 1.00D-01 BMatC= 2.73D-05 BMatP= 1.96D-05
 IDIUse=3 WtCom= 9.99D-01 WtEn= 1.10D-03
 Coeff-Com: -0.254D+01 0.360D+01 0.155D+01-0.985D+00-0.880D+00 0.890D+00
 Coeff-Com: -0.106D+00 0.148D+01-0.273D+01-0.626D+00 0.134D+01
 Coeff-En:   0.000D+00 0.000D+00 0.000D+00 0.000D+00 0.000D+00 0.000D+00
 Coeff-En:   0.000D+00 0.000D+00 0.000D+00 0.000D+00 0.100D+01
 Coeff:     -0.253D+01 0.359D+01 0.155D+01-0.984D+00-0.879D+00 0.889D+00
 Coeff:     -0.106D+00 0.148D+01-0.273D+01-0.626D+00 0.134D+01
 Gap=     0.363 Goal=   None    Shift=    0.000
 Gap=     0.129 Goal=   None    Shift=    0.000
 RMSDP=2.57D-04 MaxDP=2.60D-02 DE=-1.78D-04 OVMax= 1.33D-01

 Cycle  38  Pass 1  IDiag  1:
 RMSU=  1.06D-04    CP:  1.00D+00  3.00D+00  3.00D+00 -3.00D+00 -1.05D+00
                    CP:  3.00D+00  3.00D+00  3.00D+00 -3.00D+00  3.00D+00
                    CP: -3.00D+00 -3.00D+00 -3.00D+00 -3.00D+00  1.11D+00
                    CP:  3.00D+00  3.00D+00
 E= -1788.08072792397     Delta-E=       -0.000313248072 Rises=F Damp=F
 DIIS: error= 2.90D-04 at cycle  38 NSaved=  12.
 NSaved=12 IEnMin=12 EnMin= -1788.08072792397     IErMin= 4 ErrMin= 1.10D-04
 ErrMax= 2.90D-04  0.00D+00 EMaxC= 1.00D-01 BMatC= 2.09D-04 BMatP= 1.96D-05
 IDIUse=3 WtCom= 9.99D-01 WtEn= 1.10D-03
 Coeff-Com: -0.397D+00 0.577D+00 0.783D+00 0.454D+00-0.264D+00 0.643D+00
 Coeff-Com:  0.283D+00 0.611D+00-0.137D+01 0.328D-01-0.784D+00 0.432D+00
 Coeff-En:   0.000D+00 0.000D+00 0.000D+00 0.000D+00 0.000D+00 0.000D+00
 Coeff-En:   0.000D+00 0.000D+00 0.000D+00 0.000D+00 0.000D+00 0.100D+01
 Coeff:     -0.397D+00 0.576D+00 0.782D+00 0.454D+00-0.264D+00 0.642D+00
 Coeff:      0.283D+00 0.610D+00-0.137D+01 0.328D-01-0.784D+00 0.433D+00
 Gap=     0.366 Goal=   None    Shift=    0.000
 Gap=     0.124 Goal=   None    Shift=    0.000
 RMSDP=1.20D-04 MaxDP=1.17D-02 DE=-3.13D-04 OVMax= 6.13D-02

 Cycle  39  Pass 1  IDiag  1:
 RMSU=  2.59D-05    CP:  1.00D+00  3.00D+00  3.00D+00 -3.00D+00 -1.70D+00
                    CP:  3.00D+00  3.00D+00  3.00D+00 -3.00D+00  3.00D+00
                    CP: -3.00D+00 -2.77D+00 -1.69D+00 -2.00D+00  2.55D-01
                    CP:  1.21D+00  2.27D+00  1.64D-01
 E= -1788.08062998938     Delta-E=        0.000097934594 Rises=F Damp=F
 DIIS: error= 9.68D-05 at cycle  39 NSaved=  13.
 NSaved=13 IEnMin=12 EnMin= -1788.08072792397     IErMin=13 ErrMin= 9.68D-05
 ErrMax= 9.68D-05  0.00D+00 EMaxC= 1.00D-01 BMatC= 2.03D-05 BMatP= 1.96D-05
 IDIUse=1 WtCom= 1.00D+00 WtEn= 0.00D+00
 Coeff-Com:  0.250D+00-0.151D+00 0.413D+00-0.621D+00-0.652D+00 0.799D+00
 Coeff-Com:  0.751D+00 0.760D+00-0.130D+01 0.149D+01-0.245D+01 0.406D+00
 Coeff-Com:  0.131D+01
 Coeff:      0.250D+00-0.151D+00 0.413D+00-0.621D+00-0.652D+00 0.799D+00
 Coeff:      0.751D+00 0.760D+00-0.130D+01 0.149D+01-0.245D+01 0.406D+00
 Coeff:      0.131D+01
 Gap=     0.366 Goal=   None    Shift=    0.000
 Gap=     0.120 Goal=   None    Shift=    0.000
 RMSDP=2.96D-05 MaxDP=2.37D-03 DE= 9.79D-05 OVMax= 1.34D-02

 Cycle  40  Pass 1  IDiag  1:
 RMSU=  6.88D-06    CP:  1.00D+00  3.00D+00  3.00D+00 -3.00D+00 -3.00D+00
                    CP:  3.00D+00  3.00D+00  3.00D+00 -3.00D+00  3.00D+00
                    CP: -3.00D+00 -2.32D+00 -1.33D+00 -1.44D+00  6.95D-02
                    CP: -2.05D-01  1.65D+00  1.46D-01  9.05D-01
 E= -1788.08058510569     Delta-E=        0.000044883688 Rises=F Damp=F
 DIIS: error= 1.69D-04 at cycle  40 NSaved=  14.
 NSaved=14 IEnMin=12 EnMin= -1788.08072792397     IErMin=13 ErrMin= 9.68D-05
 ErrMax= 1.69D-04  0.00D+00 EMaxC= 1.00D-01 BMatC= 5.77D-05 BMatP= 1.96D-05
 IDIUse=1 WtCom= 1.00D+00 WtEn= 0.00D+00
 Coeff-Com: -0.437D+00 0.573D+00 0.178D+00-0.137D+01-0.467D+00 0.602D+00
 Coeff-Com:  0.502D+00 0.724D+00-0.925D+00 0.134D+01-0.197D+01 0.614D+00
 Coeff-Com:  0.488D+00 0.115D+01
 Coeff:     -0.437D+00 0.573D+00 0.178D+00-0.137D+01-0.467D+00 0.602D+00
 Coeff:      0.502D+00 0.724D+00-0.925D+00 0.134D+01-0.197D+01 0.614D+00
 Coeff:      0.488D+00 0.115D+01
 Gap=     0.365 Goal=   None    Shift=    0.000
 Gap=     0.120 Goal=   None    Shift=    0.000
 RMSDP=9.37D-05 MaxDP=1.00D-02 DE= 4.49D-05 OVMax= 5.09D-02

 Cycle  41  Pass 1  IDiag  1:
 Restarting incremental Fock formation.
 E= -1788.08071945340     Delta-E=       -0.000134347709 Rises=F Damp=F
 DIIS: error= 1.49D-04 at cycle  41 NSaved=  15.
 NSaved=15 IEnMin=12 EnMin= -1788.08072792397     IErMin=13 ErrMin= 9.68D-05
 ErrMax= 1.49D-04  0.00D+00 EMaxC= 1.00D-01 BMatC= 5.02D-05 BMatP= 1.96D-05
 IDIUse=1 WtCom= 1.00D+00 WtEn= 0.00D+00
 Coeff-Com: -0.103D+01 0.864D+00 0.219D+00-0.126D+01 0.122D+00 0.548D+00
 Coeff-Com:  0.679D-01 0.568D+00-0.603D+00 0.865D+00-0.157D+01 0.702D+00
[...]
 ZZZY=             92.7176 XXYY=          -1552.9592 XXZZ=          -1370.2416 YYZZ=           -610.2753
 XXYZ=             27.9150 YYXZ=             49.6303 ZZXY=             88.2890
 N-N= 3.133896179521D+03 E-N=-1.045240495404D+04  KE= 1.774350614549D+03
                          Isotropic Fermi Contact Couplings
        Atom                 a.u.       MegaHertz       Gauss      10(-4) cm-1
     1  C(13)             -0.00193      -2.16741      -0.77339      -0.72297
     2  C(13)              0.01296      14.57230       5.19976       4.86080
     3  C(13)             -0.01927     -21.65972      -7.72873      -7.22490
     4  N(14)              0.09637      31.13863      11.11104      10.38673
     5  C(13)             -0.01916     -21.54020      -7.68608      -7.18504
     6  O(17)              0.00363      -2.20046      -0.78518      -0.73399
     7  N(14)              0.02104       6.79762       2.42556       2.26744
     8  C(13)             -0.00401      -4.50700      -1.60821      -1.50337
     9  C(13)             -0.00813      -9.14221      -3.26217      -3.04951
    10  O(17)              0.00670      -4.06263      -1.44965      -1.35515
    11  N(14)             -0.01041      -3.36506      -1.20074      -1.12246
    12  C(13)             -0.00001      -0.01217      -0.00434      -0.00406
    13  F(19)              0.00006       0.23354       0.08333       0.07790
    14  F(19)             -0.00081      -3.40719      -1.21577      -1.13651
    15  C(13)             -0.00005      -0.05423      -0.01935      -0.01809
    16  F(19)              0.00059       2.47810       0.88425       0.82661
    17  O(17)              0.00111      -0.67039      -0.23921      -0.22362
    18  C(13)              0.00001       0.01072       0.00382       0.00358
    19  F(19)              0.00002       0.08234       0.02938       0.02747
    20  F(19)             -0.00002      -0.07340      -0.02619      -0.02448
    21  F(19)             -0.00002      -0.06741      -0.02405      -0.02249
    22  C(13)             -0.00008      -0.09379      -0.03347      -0.03128
    23  F(19)              0.00000       0.01134       0.00405       0.00378
    24  F(19)             -0.00001      -0.05220      -0.01863      -0.01741
    25  F(19)              0.00000       0.01379       0.00492       0.00460
    26  C(13)             -0.02712     -30.49197     -10.88029     -10.17103
    27  O(17)              0.02875     -17.42584      -6.21797      -5.81263
    28  H(1)               0.00023       1.01151       0.36093       0.33740
    29  H(1)               0.00688      30.73344      10.96645      10.25157
    30  H(1)              -0.00008      -0.37714      -0.13457      -0.12580
    31  H(1)               0.00064       2.88295       1.02871       0.96165
    32  H(1)              -0.00095      -4.23667      -1.51175      -1.41320
    33  H(1)               0.01100      49.15673      17.54034      16.39692
    34  H(1)               0.00719      32.14045      11.46851      10.72090
    35  H(1)               0.00890      39.78500      14.19628      13.27085
    36  H(1)               0.00140       6.25892       2.23334       2.08775
    37  H(1)               0.00276      12.33108       4.40004       4.11321
 --------------------------------------------------------
       Center         ----  Spin Dipole Couplings  ----
                      3XX-RR        3YY-RR        3ZZ-RR
 --------------------------------------------------------
     1   Atom        0.004797      0.001960     -0.006757
     2   Atom       -0.005060     -0.060453      0.065513
     3   Atom       -0.028154     -0.050780      0.078934
     4   Atom       -0.380287     -0.618683      0.998970
     5   Atom        0.012803      0.046920     -0.059722
     6   Atom       -0.044391     -0.096750      0.141141
     7   Atom       -0.086100     -0.139624      0.225724
     8   Atom       -0.009154     -0.004401      0.013555
     9   Atom        0.007501      0.014636     -0.022137
    10   Atom        0.052391     -0.121136      0.068745
    11   Atom        0.024097      0.025266     -0.049363
    12   Atom        0.001053      0.001639     -0.002691
    13   Atom        0.002721     -0.000931     -0.001790
    14   Atom        0.002532      0.002733     -0.005265
    15   Atom        0.003717     -0.001576     -0.002141
    16   Atom        0.013398     -0.009694     -0.003704
    17   Atom        0.008963     -0.003910     -0.005053
    18   Atom        0.001550     -0.000826     -0.000724
    19   Atom        0.001594     -0.000815     -0.000780
    20   Atom        0.000733     -0.000611     -0.000123
    21   Atom        0.001393     -0.000512     -0.000881
    22   Atom        0.001377     -0.000608     -0.000769
    23   Atom        0.001174     -0.000499     -0.000675
    24   Atom        0.001030     -0.000493     -0.000537
    25   Atom        0.000902     -0.000462     -0.000440
    26   Atom        0.035258      0.047968     -0.083226
    27   Atom        0.144144     -0.441638      0.297494
    28   Atom        0.002802     -0.001465     -0.001337
    29   Atom       -0.000180     -0.001897      0.002076
    30   Atom       -0.001314      0.004515     -0.003201
    31   Atom        0.003153     -0.008826      0.005673
    32   Atom        0.004229      0.000936     -0.005164
    33   Atom        0.007426     -0.005779     -0.001647
    34   Atom       -0.003493      0.011519     -0.008026
    35   Atom       -0.000601      0.001220     -0.000618
    36   Atom       -0.001274      0.003645     -0.002371
    37   Atom        0.000365      0.001333     -0.001697
 --------------------------------------------------------
                        XY            XZ            YZ
 --------------------------------------------------------
     1   Atom        0.018798      0.012688      0.012011
     2   Atom        0.034759      0.100673      0.048770
     3   Atom        0.007717      0.061146     -0.006679
     4   Atom       -0.065340      0.653434     -0.166467
     5   Atom       -0.010072     -0.033877      0.011644
     6   Atom        0.027878      0.092550      0.079488
     7   Atom        0.001749      0.156337      0.004388
     8   Atom       -0.001679      0.006884      0.000121
     9   Atom        0.002359     -0.026198     -0.014509
    10   Atom        0.028962      0.182422      0.015428
    11   Atom        0.007124     -0.024685      0.013657
    12   Atom        0.002341     -0.000535     -0.000402
    13   Atom       -0.003684      0.002422      0.000698
    14   Atom        0.001292      0.000715     -0.000071
    15   Atom        0.001582     -0.000281      0.000036
    16   Atom        0.003793     -0.011668     -0.001787
    17   Atom        0.004999      0.003414      0.001175
    18   Atom       -0.000760      0.000980     -0.000235
    19   Atom       -0.000805      0.000957     -0.000278
    20   Atom       -0.000746      0.001049     -0.000440
    21   Atom       -0.001071      0.000337     -0.000180
    22   Atom        0.000323     -0.000286     -0.000012
    23   Atom        0.000202      0.000120     -0.000001
    24   Atom       -0.000012     -0.000157      0.000028
    25   Atom        0.000203     -0.000659     -0.000043
    26   Atom        0.005740     -0.084850      0.056080
    27   Atom       -0.204501      0.723344     -0.212917
    28   Atom        0.003832     -0.001778     -0.000322
    29   Atom        0.001868      0.003770      0.000243
    30   Atom        0.001638      0.001199      0.000515
    31   Atom        0.002666     -0.002932      0.005938
    32   Atom       -0.005711      0.008144      0.000154
    33   Atom        0.001574     -0.012809     -0.001243
    34   Atom       -0.005110     -0.003745     -0.000867
    35   Atom       -0.002510      0.003011     -0.002108
    36   Atom        0.001794     -0.000927      0.000528
    37   Atom       -0.001264     -0.003075      0.001835
 --------------------------------------------------------


 ---------------------------------------------------------------------------------
              Anisotropic Spin Dipole Couplings in Principal Axis System
 ---------------------------------------------------------------------------------

       Atom             a.u.   MegaHertz   Gauss  10(-4) cm-1        Axes

              Baa    -0.0155    -2.083    -0.743    -0.695 -0.5670  0.7838 -0.2534
     1 C(13)  Bbb    -0.0149    -2.002    -0.714    -0.668 -0.4895 -0.0732  0.8689
              Bcc     0.0304     4.084     1.457     1.362  0.6625  0.6167  0.4252
 
              Baa    -0.0772   -10.363    -3.698    -3.457 -0.2950  0.9484 -0.1160
     2 C(13)  Bbb    -0.0764   -10.256    -3.660    -3.421  0.7762  0.1670 -0.6079
              Bcc     0.1537    20.619     7.357     6.878  0.5572  0.2694  0.7855
 
              Baa    -0.0635    -8.516    -3.039    -2.841  0.7157 -0.6123 -0.3360
     3 C(13)  Bbb    -0.0433    -5.804    -2.071    -1.936  0.5640  0.7904 -0.2390
              Bcc     0.1067    14.321     5.110     4.777  0.4120 -0.0185  0.9110
 
              Baa    -0.6409   -24.716    -8.819    -8.244  0.9091 -0.1714 -0.3797
     4 N(14)  Bbb    -0.6354   -24.506    -8.744    -8.174  0.1942  0.9807  0.0222
              Bcc     1.2763    49.222    17.564    16.419  0.3685 -0.0940  0.9249
 
              Baa    -0.0735    -9.865    -3.520    -3.291  0.3586 -0.0601  0.9316
     5 C(13)  Bbb     0.0195     2.618     0.934     0.873  0.8480  0.4382 -0.2982
              Bcc     0.0540     7.247     2.586     2.417 -0.3903  0.8968  0.2081
 
              Baa    -0.1209     8.746     3.121     2.917  0.0044  0.9565 -0.2917
     6 O(17)  Bbb    -0.0822     5.945     2.121     1.983  0.9314 -0.1101 -0.3469
              Bcc     0.2030   -14.690    -5.242    -4.900  0.3639  0.2702  0.8914
 
              Baa    -0.1510    -5.823    -2.078    -1.942  0.9236  0.0059 -0.3834
     7 N(14)  Bbb    -0.1397    -5.387    -1.922    -1.797 -0.0096  0.9999 -0.0079
              Bcc     0.2907    11.210     4.000     3.739  0.3833  0.0110  0.9236
 
              Baa    -0.0115    -1.538    -0.549    -0.513  0.9386  0.2276 -0.2594
     8 C(13)  Bbb    -0.0040    -0.540    -0.193    -0.180 -0.2147  0.9736  0.0774
              Bcc     0.0155     2.078     0.741     0.693  0.2701 -0.0170  0.9627
 
              Baa    -0.0398    -5.346    -1.908    -1.783  0.4655  0.2089  0.8600
     9 C(13)  Bbb     0.0103     1.385     0.494     0.462 -0.6033  0.7859  0.1357
              Bcc     0.0295     3.961     1.414     1.321  0.6475  0.5820 -0.4919
 
              Baa    -0.1332     9.637     3.439     3.215 -0.5309  0.7340  0.4235
    10 O(17)  Bbb    -0.1126     8.151     2.908     2.719  0.4915  0.6738 -0.5517
              Bcc     0.2458   -17.788    -6.347    -5.933  0.6903  0.0847  0.7185
 
              Baa    -0.0596    -2.298    -0.820    -0.767  0.2922 -0.1758  0.9400
    11 N(14)  Bbb     0.0265     1.021     0.364     0.340 -0.4088  0.8657  0.2890
              Bcc     0.0331     1.278     0.456     0.426  0.8646  0.4687 -0.1811
 
              Baa    -0.0028    -0.371    -0.133    -0.124  0.1238  0.0247  0.9920
    12 C(13)  Bbb    -0.0010    -0.135    -0.048    -0.045  0.7406 -0.6677 -0.0758
              Bcc     0.0038     0.506     0.181     0.169  0.6605  0.7440 -0.1009
 
              Baa    -0.0046    -2.313    -0.825    -0.771  0.5095  0.6235 -0.5930
    13 F(19)  Bbb    -0.0008    -0.412    -0.147    -0.138  0.1268  0.6272  0.7685
              Bcc     0.0054     2.725     0.972     0.909  0.8510 -0.4668  0.2405
 
              Baa    -0.0053    -2.679    -0.956    -0.894 -0.0944  0.0239  0.9953
    14 F(19)  Bbb     0.0014     0.696     0.248     0.232  0.7216 -0.6871  0.0849
              Bcc     0.0039     1.983     0.708     0.662  0.6859  0.7262  0.0476
 
              Baa    -0.0022    -0.297    -0.106    -0.099  0.1628 -0.4547  0.8756
    15 C(13)  Bbb    -0.0020    -0.262    -0.093    -0.087 -0.2134  0.8503  0.4812
              Bcc     0.0042     0.559     0.199     0.186  0.9633  0.2652 -0.0414
 
              Baa    -0.0103    -5.177    -1.847    -1.727 -0.2004  0.9756 -0.0900
    16 F(19)  Bbb    -0.0096    -4.821    -1.720    -1.608  0.4236  0.1691  0.8899
              Bcc     0.0199     9.997     3.567     3.335  0.8834  0.1402 -0.4472
 
              Baa    -0.0058     0.423     0.151     0.141 -0.1957 -0.0875  0.9768
    17 O(17)  Bbb    -0.0056     0.407     0.145     0.136 -0.3281  0.9444  0.0189
              Bcc     0.0115    -0.830    -0.296    -0.277  0.9242  0.3168  0.2135
 
              Baa    -0.0011    -0.149    -0.053    -0.050 -0.4206 -0.4858  0.7662
    18 C(13)  Bbb    -0.0010    -0.136    -0.049    -0.045  0.0372  0.8346  0.5496
              Bcc     0.0021     0.286     0.102     0.095  0.9065 -0.2597  0.3329
 
              Baa    -0.0011    -0.561    -0.200    -0.187 -0.3540 -0.0855  0.9313
    19 F(19)  Bbb    -0.0011    -0.531    -0.189    -0.177  0.2280  0.9579  0.1746
              Bcc     0.0022     1.092     0.390     0.364  0.9070 -0.2741  0.3195
 
              Baa    -0.0009    -0.475    -0.170    -0.158  0.4710  0.8719 -0.1340
    20 F(19)  Bbb    -0.0008    -0.406    -0.145    -0.135 -0.4057  0.3490  0.8447
              Bcc     0.0018     0.881     0.314     0.294  0.7833 -0.3435  0.5181
 
              Baa    -0.0010    -0.503    -0.180    -0.168  0.3411  0.8730  0.3487
    21 F(19)  Bbb    -0.0009    -0.464    -0.165    -0.155 -0.2595 -0.2691  0.9275
              Bcc     0.0019     0.967     0.345     0.323  0.9035 -0.4068  0.1347
 
              Baa    -0.0008    -0.109    -0.039    -0.036  0.1542 -0.1855  0.9705
    22 C(13)  Bbb    -0.0007    -0.088    -0.031    -0.029 -0.1255  0.9706  0.2055
              Bcc     0.0015     0.197     0.070     0.066  0.9800  0.1535 -0.1264
 
              Baa    -0.0007    -0.343    -0.123    -0.115 -0.0731  0.0826  0.9939
    23 F(19)  Bbb    -0.0005    -0.262    -0.093    -0.087 -0.1115  0.9896 -0.0904
              Bcc     0.0012     0.605     0.216     0.202  0.9911  0.1175  0.0631
 
              Baa    -0.0006    -0.282    -0.101    -0.094  0.0893 -0.3559  0.9302
    24 F(19)  Bbb    -0.0005    -0.243    -0.087    -0.081  0.0443  0.9345  0.3533
              Bcc     0.0010     0.525     0.187     0.175  0.9950 -0.0097 -0.0992
 
              Baa    -0.0007    -0.359    -0.128    -0.120  0.3897 -0.1572  0.9074
    25 F(19)  Bbb    -0.0005    -0.242    -0.086    -0.081 -0.0523  0.9800  0.1922
              Bcc     0.0012     0.601     0.214     0.200  0.9195  0.1223 -0.3736
 
              Baa    -0.1421   -19.063    -6.802    -6.359  0.4229 -0.2682  0.8656
    26 C(13)  Bbb     0.0492     6.599     2.355     2.201  0.5976  0.8006 -0.0439
              Bcc     0.0929    12.464     4.447     4.157  0.6812 -0.5358 -0.4988
 
              Baa    -0.5139    37.184    13.268    12.403  0.6689  0.5999 -0.4389
    27 O(17)  Bbb    -0.4944    35.773    12.765    11.933 -0.3490  0.7748  0.5271
              Bcc     1.0083   -72.957   -26.033   -24.336  0.6563 -0.1994  0.7277
 
              Baa    -0.0039    -2.076    -0.741    -0.693 -0.5313  0.8035 -0.2686
    28 H(1)   Bbb    -0.0016    -0.847    -0.302    -0.282  0.0669  0.3559  0.9321
              Bcc     0.0055     2.923     1.043     0.975  0.8445  0.4772 -0.2429
 
              Baa    -0.0040    -2.115    -0.755    -0.706  0.6994 -0.5834 -0.4130
    29 H(1)   Bbb    -0.0012    -0.625    -0.223    -0.208  0.3703  0.7899 -0.4888
              Bcc     0.0051     2.740     0.978     0.914  0.6114  0.1890  0.7684
 
              Baa    -0.0038    -2.023    -0.722    -0.675 -0.4536  0.0343  0.8906
    30 H(1)   Bbb    -0.0012    -0.657    -0.234    -0.219  0.8504 -0.2822  0.4440
              Bcc     0.0050     2.680     0.956     0.894  0.2665  0.9588  0.0988
 
              Baa    -0.0118    -6.283    -2.242    -2.096 -0.2306  0.9087 -0.3480
    31 H(1)   Bbb     0.0032     1.734     0.619     0.578  0.9021  0.3337  0.2736
              Bcc     0.0085     4.549     1.623     1.517 -0.3648  0.2508  0.8967
 
              Baa    -0.0107    -5.722    -2.042    -1.909 -0.5387 -0.2743  0.7966
    32 H(1)   Bbb    -0.0006    -0.314    -0.112    -0.105  0.2409  0.8559  0.4576
              Bcc     0.0113     6.036     2.154     2.013  0.8074 -0.4384  0.3949
 
              Baa    -0.0107    -5.710    -2.037    -1.905  0.5756  0.0223  0.8174
    33 H(1)   Bbb    -0.0060    -3.178    -1.134    -1.060 -0.0855  0.9958  0.0330
              Bcc     0.0167     8.887     3.171     2.965  0.8132  0.0889 -0.5751
 
              Baa    -0.0107    -5.687    -2.029    -1.897  0.5432  0.1574  0.8247
    34 H(1)   Bbb    -0.0024    -1.301    -0.464    -0.434  0.7852  0.2524 -0.5654
              Bcc     0.0131     6.988     2.493     2.331 -0.2971  0.9547  0.0135
 
              Baa    -0.0036    -1.946    -0.694    -0.649  0.7368  0.0899 -0.6701
    35 H(1)   Bbb    -0.0015    -0.793    -0.283    -0.265  0.3825  0.7619  0.5227
              Bcc     0.0051     2.739     0.977     0.914 -0.5575  0.6414 -0.5270
 
              Baa    -0.0032    -1.704    -0.608    -0.569  0.5787 -0.2125  0.7874
    36 H(1)   Bbb    -0.0010    -0.556    -0.198    -0.185  0.7566 -0.2204 -0.6156
              Bcc     0.0042     2.261     0.807     0.754  0.3044  0.9520  0.0333
 
              Baa    -0.0040    -2.150    -0.767    -0.717  0.5353 -0.1577  0.8298
    37 H(1)   Bbb    -0.0001    -0.074    -0.026    -0.025  0.5811  0.7817 -0.2263
              Bcc     0.0042     2.224     0.794     0.742  0.6130 -0.6034 -0.5101
 

 ---------------------------------------------------------------------------------

 No NMR shielding tensors so no spin-rotation constants.
 Leave Link  601 at Sun Mar  3 18:00:52 2024, MaxMem=  5368709120 cpu:         5.1
 (Enter /home/k0335/k033513/app/g09/l9999.exe)
 1\1\GINC-C18U06N4\SP\UCAM-B3LYP\6-31G(d,p)\C11H10F9N3O4(1+,2)\K033513\
 03-Mar-2024\0\\#p CAM-B3LYP/6-31G(d,p) SCRF=(PCM,Solvent=Generic,Read)
  NoSymm out=wfn\\Title A903371600_p1\\1,2\C,0,-4.010892,-2.662761,-0.5
 24433\C,0,-3.144078,-1.422273,-0.664977\C,0,-2.287784,-1.193964,0.5834
 42\N,0,-1.445491,-0.003842,0.457395\C,0,-2.001071,1.218652,0.772411\O,
 0,-3.150111,1.326257,1.20292\N,0,-1.205961,2.314916,0.524428\C,0,-1.79
 1274,3.632843,0.702676\C,0,0.012795,2.223941,-0.116139\O,0,0.517816,3.
 209385,-0.653896\N,0,0.590554,0.975775,-0.144045\C,0,1.93164,0.91294,-
 0.719348\F,0,2.628314,1.975534,-0.206075\F,0,1.846068,1.131332,-2.0601
 58\C,0,2.809286,-0.340869,-0.450696\F,0,2.423251,-1.369018,-1.260375\O
 ,0,2.609002,-0.764176,0.908012\C,0,3.480894,-1.798731,1.286403\F,0,4.6
 81704,-1.272252,1.578679\F,0,2.988306,-2.380517,2.396186\F,0,3.605001,
 -2.725736,0.32641\C,0,4.240785,0.060334,-0.838314\F,0,4.772405,0.95114
 3,0.029882\F,0,5.068919,-1.013942,-0.834336\F,0,4.318756,0.596121,-2.0
 75403\C,0,-0.20788,-0.133551,-0.139317\O,0,0.132055,-1.193947,-0.65720
 7\H,0,-4.690798,-2.57145,0.328607\H,0,-4.614469,-2.807643,-1.425866\H,
 0,-3.395739,-3.556672,-0.380204\H,0,-2.50288,-1.528021,-1.547808\H,0,-
 3.785834,-0.552064,-0.845807\H,0,-2.933429,-1.085364,1.463179\H,0,-1.6
 49628,-2.067608,0.763248\H,0,-2.360629,3.883061,-0.198241\H,0,-1.01354
 8,4.387295,0.854884\H,0,-2.466057,3.644873,1.563883\\Version=ES64L-G09
 RevD.01\HF=-1788.0810784\S2=0.772057\S2-1=0.\S2A=0.75028\RMSD=7.653e-0
 9\Dipole=-5.6142781,0.1813355,0.9063531\Quadrupole=4.0590862,3.9882716
 ,-8.0473579,0.5828686,2.1464117,3.2169963\PG=C01 [X(C11H10F9N3O4)]\\@

 Writing a WFN file to "A903371600/A903371600_p1.wfn"


 "I COULD HAVE DONE IT IN A MUCH MORE COMPLICATED WAY"
 SAID THE RED QUEEN, IMMENSELY PROUD.

                                      -- LEWIS CARROLL
 Job cpu time:       0 days  1 hours  8 minutes  9.6 seconds.
 File lengths (MBytes):  RWF=    338 Int=      0 D2E=      0 Chk=     12 Scr=      1
 Normal termination of Gaussian 09 at Sun Mar  3 18:00:52 2024.
