 Entering Gaussian System, Link 0=g09
 Initial command:
 /home/k0335/k033513/app/g09/l1.exe "/home/k0335/k033513/app/g09/scratch/Gau-379429.inp" -scrdir="/home/k0335/k033513/app/g09/scratch/"
 Default is to use a total of  36 processors:
                               36 via shared-memory
                                1 via Linda
 Entering Link 1 = /home/k0335/k033513/app/g09/l1.exe PID=    379430.
  
 Copyright (c) 1988,1990,1992,1993,1995,1998,2003,2009,2013,
            Gaussian, Inc.  All Rights Reserved.
  
 This is part of the Gaussian(R) 09 program.  It is based on
 the Gaussian(R) 03 system (copyright 2003, Gaussian, Inc.),
 the Gaussian(R) 98 system (copyright 1998, Gaussian, Inc.),
 the Gaussian(R) 94 system (copyright 1995, Gaussian, Inc.),
 the Gaussian 92(TM) system (copyright 1992, Gaussian, Inc.),
 the Gaussian 90(TM) system (copyright 1990, Gaussian, Inc.),
 the Gaussian 88(TM) system (copyright 1988, Gaussian, Inc.),
 the Gaussian 86(TM) system (copyright 1986, Carnegie Mellon
 University), and the Gaussian 82(TM) system (copyright 1983,
 Carnegie Mellon University). Gaussian is a federally registered
 trademark of Gaussian, Inc.
  
 This software contains proprietary and confidential information,
 including trade secrets, belonging to Gaussian, Inc.
  
 This software is provided under written license and may be
 used, copied, transmitted, or stored only in accord with that
 written license.
  
 The following legend is applicable only to US Government
 contracts under FAR:
  
                    RESTRICTED RIGHTS LEGEND
  
 Use, reproduction and disclosure by the US Government is
 subject to restrictions as set forth in subparagraphs (a)
 and (c) of the Commercial Computer Software - Restricted
 Rights clause in FAR 52.227-19.
  
 Gaussian, Inc.
 340 Quinnipiac St., Bldg. 40, Wallingford CT 06492
  
  
 ---------------------------------------------------------------
 Warning -- This program may not be used in any manner that
 competes with the business of Gaussian, Inc. or will provide
 assistance to any competitor of Gaussian, Inc.  The licensee
 of this program is prohibited from giving any competitor of
 Gaussian, Inc. access to this program.  By using this program,
 the user acknowledges that Gaussian, Inc. is engaged in the
 business of creating and licensing software in the field of
 computational chemistry and represents and warrants to the
 licensee that it is not a competitor of Gaussian, Inc. and that
 it will not use this program in any manner prohibited above.
 ---------------------------------------------------------------
  

 Cite this work as:
 Gaussian 09, Revision D.01,
 M. J. Frisch, G. W. Trucks, H. B. Schlegel, G. E. Scuseria, 
 M. A. Robb, J. R. Cheeseman, G. Scalmani, V. Barone, B. Mennucci, 
 G. A. Petersson, H. Nakatsuji, M. Caricato, X. Li, H. P. Hratchian, 
 A. F. Izmaylov, J. Bloino, G. Zheng, J. L. Sonnenberg, M. Hada, 
 M. Ehara, K. Toyota, R. Fukuda, J. Hasegawa, M. Ishida, T. Nakajima, 
 Y. Honda, O. Kitao, H. Nakai, T. Vreven, J. A. Montgomery, Jr., 
 J. E. Peralta, F. Ogliaro, M. Bearpark, J. J. Heyd, E. Brothers, 
 K. N. Kudin, V. N. Staroverov, T. Keith, R. Kobayashi, J. Normand, 
 K. Raghavachari, A. Rendell, J. C. Burant, S. S. Iyengar, J. Tomasi, 
 M. Cossi, N. Rega, J. M. Millam, M. Klene, J. E. Knox, J. B. Cross, 
 V. Bakken, C. Adamo, J. Jaramillo, R. Gomperts, R. E. Stratmann, 
 O. Yazyev, A. J. Austin, R. Cammi, C. Pomelli, J. W. Ochterski, 
 R. L. Martin, K. Morokuma, V. G. Zakrzewski, G. A. Voth, 
 P. Salvador, J. J. Dannenberg, S. Dapprich, A. D. Daniels, 
 O. Farkas, J. B. Foresman, J. V. Ortiz, J. Cioslowski, 
 and D. J. Fox, Gaussian, Inc., Wallingford CT, 2013.
 
 ******************************************
 Gaussian 09:  ES64L-G09RevD.01 24-Apr-2013
                 3-Mar-2024 
 ******************************************
 %nprocshared=24
 Will use up to   24 processors via shared memory.
 %mem=40GB
 %rwf=A153226991/A153226991_p1.rwf
 %nosave
 %chk=A153226991/A153226991_p1.chk
 ----------------------------------------------------------------------
 #p CAM-B3LYP/6-31G(d,p) SCRF=(PCM,Solvent=Generic,Read) NoSymm out=wfn
 ----------------------------------------------------------------------
 1/38=1,40=2/1;
 2/12=2,15=1,17=6,18=5,40=1/2;
 3/5=1,6=6,7=101,11=2,16=1,25=1,30=1,70=2203,72=-2,74=-40/1,2,3;
 4//1;
 5/5=2,38=5/2;
 6/7=2,8=2,9=2,10=2,28=1/1;
 99/5=1,6=100,9=1/99;
 Leave Link    1 at Sun Mar  3 17:24:17 2024, MaxMem=  5368709120 cpu:         0.9
 (Enter /home/k0335/k033513/app/g09/l101.exe)
 -------------------
 Title A153226991_p1
 -------------------
 Symbolic Z-matrix:
 Charge =  1 Multiplicity = 2
 C                     3.16008   2.02566  -1.34161 
 N                     2.22739   1.0749   -0.7597 
 C                     2.73146   0.131     0.10614 
 O                     3.93281   0.05173   0.36534 
 N                     1.79696  -0.68541   0.70402 
 C                     2.26748  -1.65419   1.68078 
 C                     0.44139  -0.50397   0.5619 
 O                    -0.35677  -1.09422   1.28524 
 N                     0.02256   0.35905  -0.41011 
 C                    -1.39779   0.62693  -0.60523 
 F                    -1.73716   1.69095   0.18066 
 F                    -1.5519    1.08414  -1.89225 
 C                    -2.49903  -0.47081  -0.44528 
 F                    -3.68558   0.0496   -0.91947 
 O                    -2.82971  -0.97871   0.8461 
 C                    -3.18129   0.02      1.76943 
 F                    -3.99652   0.93699   1.2226 
 F                    -3.82371  -0.56066   2.80202 
 F                    -2.07843   0.6265    2.24288 
 C                    -2.12994  -1.61202  -1.3943 
 F                    -0.94532  -2.19174  -1.09109 
 F                    -2.03163  -1.20109  -2.68024 
 F                    -3.06133  -2.59788  -1.37254 
 C                     0.87734   1.33451  -0.87889 
 O                     0.48266   2.40279  -1.34579 
 H                     3.32757   2.83241  -0.62078 
 H                     4.11678   1.5441   -1.56529 
 H                     2.75585   2.45031  -2.26553 
 H                     2.34052  -1.15513   2.65232 
 H                     1.57217  -2.4949    1.76387 
 H                     3.25308  -2.04083   1.40479 
 
 NAtoms=     31 NQM=       31 NQMF=       0 NMMI=      0 NMMIF=      0
                NMic=       0 NMicF=      0.
                    Isotopes and Nuclear Properties:
 (Nuclear quadrupole moments (NQMom) in fm**2, nuclear magnetic moments (NMagM)
  in nuclear magnetons)

  Atom         1           2           3           4           5           6           7           8           9          10
 IAtWgt=          12          14          12          16          14          12          12          16          14          12
 AtmWgt=  12.0000000  14.0030740  12.0000000  15.9949146  14.0030740  12.0000000  12.0000000  15.9949146  14.0030740  12.0000000
 NucSpn=           0           2           0           0           2           0           0           0           2           0
 AtZEff=   0.0000000   0.0000000   0.0000000   0.0000000   0.0000000   0.0000000   0.0000000   0.0000000   0.0000000   0.0000000
 NQMom=    0.0000000   2.0440000   0.0000000   0.0000000   2.0440000   0.0000000   0.0000000   0.0000000   2.0440000   0.0000000
 NMagM=    0.0000000   0.4037610   0.0000000   0.0000000   0.4037610   0.0000000   0.0000000   0.0000000   0.4037610   0.0000000
 AtZNuc=   6.0000000   7.0000000   6.0000000   8.0000000   7.0000000   6.0000000   6.0000000   8.0000000   7.0000000   6.0000000

  Atom        11          12          13          14          15          16          17          18          19          20
 IAtWgt=          19          19          12          19          16          12          19          19          19          12
 AtmWgt=  18.9984033  18.9984033  12.0000000  18.9984033  15.9949146  12.0000000  18.9984033  18.9984033  18.9984033  12.0000000
 NucSpn=           1           1           0           1           0           0           1           1           1           0
 AtZEff=   0.0000000   0.0000000   0.0000000   0.0000000   0.0000000   0.0000000   0.0000000   0.0000000   0.0000000   0.0000000
 NQMom=    0.0000000   0.0000000   0.0000000   0.0000000   0.0000000   0.0000000   0.0000000   0.0000000   0.0000000   0.0000000
 NMagM=    2.6288670   2.6288670   0.0000000   2.6288670   0.0000000   0.0000000   2.6288670   2.6288670   2.6288670   0.0000000
 AtZNuc=   9.0000000   9.0000000   6.0000000   9.0000000   8.0000000   6.0000000   9.0000000   9.0000000   9.0000000   6.0000000

  Atom        21          22          23          24          25          26          27          28          29          30
 IAtWgt=          19          19          19          12          16           1           1           1           1           1
 AtmWgt=  18.9984033  18.9984033  18.9984033  12.0000000  15.9949146   1.0078250   1.0078250   1.0078250   1.0078250   1.0078250
 NucSpn=           1           1           1           0           0           1           1           1           1           1
 AtZEff=   0.0000000   0.0000000   0.0000000   0.0000000   0.0000000   0.0000000   0.0000000   0.0000000   0.0000000   0.0000000
 NQMom=    0.0000000   0.0000000   0.0000000   0.0000000   0.0000000   0.0000000   0.0000000   0.0000000   0.0000000   0.0000000
 NMagM=    2.6288670   2.6288670   2.6288670   0.0000000   0.0000000   2.7928460   2.7928460   2.7928460   2.7928460   2.7928460
 AtZNuc=   9.0000000   9.0000000   9.0000000   6.0000000   8.0000000   1.0000000   1.0000000   1.0000000   1.0000000   1.0000000

  Atom        31
 IAtWgt=           1
 AtmWgt=   1.0078250
 NucSpn=           1
 AtZEff=   0.0000000
 NQMom=    0.0000000
 NMagM=    2.7928460
 AtZNuc=   1.0000000
 Leave Link  101 at Sun Mar  3 17:24:17 2024, MaxMem=  5368709120 cpu:         0.7
 (Enter /home/k0335/k033513/app/g09/l202.exe)
                          Input orientation:                          
 ---------------------------------------------------------------------
 Center     Atomic      Atomic             Coordinates (Angstroms)
 Number     Number       Type             X           Y           Z
 ---------------------------------------------------------------------
      1          6           0        3.160082    2.025656   -1.341611
      2          7           0        2.227387    1.074898   -0.759700
      3          6           0        2.731464    0.131002    0.106137
      4          8           0        3.932812    0.051732    0.365338
      5          7           0        1.796963   -0.685412    0.704017
      6          6           0        2.267479   -1.654194    1.680781
      7          6           0        0.441386   -0.503966    0.561903
      8          8           0       -0.356765   -1.094217    1.285241
      9          7           0        0.022558    0.359048   -0.410110
     10          6           0       -1.397790    0.626933   -0.605233
     11          9           0       -1.737164    1.690950    0.180663
     12          9           0       -1.551904    1.084139   -1.892246
     13          6           0       -2.499031   -0.470814   -0.445282
     14          9           0       -3.685577    0.049601   -0.919469
     15          8           0       -2.829709   -0.978711    0.846102
     16          6           0       -3.181292    0.019998    1.769425
     17          9           0       -3.996519    0.936992    1.222604
     18          9           0       -3.823707   -0.560664    2.802016
     19          9           0       -2.078431    0.626504    2.242875
     20          6           0       -2.129939   -1.612020   -1.394297
     21          9           0       -0.945322   -2.191744   -1.091090
     22          9           0       -2.031630   -1.201087   -2.680237
     23          9           0       -3.061328   -2.597878   -1.372539
     24          6           0        0.877340    1.334510   -0.878894
     25          8           0        0.482660    2.402785   -1.345789
     26          1           0        3.327571    2.832412   -0.620784
     27          1           0        4.116784    1.544096   -1.565285
     28          1           0        2.755854    2.450307   -2.265527
     29          1           0        2.340519   -1.155128    2.652324
     30          1           0        1.572171   -2.494901    1.763870
     31          1           0        3.253080   -2.040827    1.404793
 ---------------------------------------------------------------------
                    Distance matrix (angstroms):
                    1          2          3          4          5
     1  C    0.000000
     2  N    1.453438   0.000000
     3  C    2.422685   1.376484   0.000000
     4  O    2.721610   2.284962   1.231546   0.000000
     5  N    3.659587   2.329469   1.377419   2.284718   0.000000
     6  C    4.844883   3.661352   2.425224   2.722849   1.453957
     7  C    4.172968   2.725664   2.419786   3.540832   1.375030
     8  O    5.385366   3.945210   3.525423   4.534302   2.267926
     9  N    3.672783   2.344339   2.767072   3.998231   2.341087
    10  C    4.824197   3.656014   4.219329   5.448686   3.693620
    11  F    5.139296   4.120858   4.733670   5.905063   4.290810
    12  F    4.836576   3.945350   4.821747   6.020354   4.592037
    13  C    6.249906   4.982681   5.293800   6.503750   4.452247
    14  F    7.137650   6.003324   6.498993   7.725968   5.764911
    15  O    7.049107   5.689475   5.718886   6.857451   4.638136
    16  C    7.342631   6.063258   6.143251   7.251410   5.139623
    17  F    7.679670   6.533418   6.867450   8.024517   6.038672
    18  F    8.522441   7.209481   7.121547   8.153283   6.000758
    19  F    6.499860   5.268452   5.286422   6.323808   4.371257
    20  C    6.420264   5.158346   5.377980   6.528502   4.547756
    21  F    5.890973   4.565835   4.510793   5.563323   3.607156
    22  F    6.257608   5.196903   5.676743   6.813197   5.135876
    23  F    7.751385   6.468026   6.571888   7.678453   5.618950
    24  C    2.429547   1.379939   2.420019   3.539709   2.726059
    25  O    2.703855   2.269550   3.510870   4.512090   3.932691
    26  H    1.094760   2.078114   2.860310   3.011799   4.058688
    27  H    1.094170   2.106878   2.590289   2.447101   3.937259
    28  H    1.094235   2.106785   3.317312   3.749646   4.423844
    29  H    5.171130   4.077710   2.879242   3.036810   2.076532
    30  H    5.709721   4.420541   3.314726   3.743509   2.109045
    31  H    4.907919   3.929990   2.583686   2.433373   2.109150
                    6          7          8          9         10
     6  C    0.000000
     7  C    2.430952   0.000000
     8  O    2.712321   1.228275   0.000000
     9  N    3.669419   1.365657   2.264968   0.000000
    10  C    4.885038   2.454324   2.760432   1.458501   0.000000
    11  F    5.429319   3.115940   3.298901   2.284644   1.365628
    12  F    5.903616   3.538097   4.033611   2.280661   1.374478
    13  C    5.351649   3.108307   2.823587   2.654867   1.563127
    14  F    6.715884   4.419584   4.153319   3.755725   2.380342
    15  O    5.209059   3.317562   2.514287   3.391621   2.595160
    16  C    5.700867   3.854406   3.074713   3.889728   3.031213
    17  F    6.794251   4.712524   4.168638   4.376386   3.192259
    18  F    6.289318   4.817919   3.821645   5.094838   4.347966
    19  F    4.940088   3.233127   2.615737   3.394704   2.928309
    20  C    5.366113   3.415584   3.254564   3.080094   2.484265
    21  F    4.277186   2.739332   2.682893   2.811950   2.895812
    22  F    6.140531   4.136817   4.305997   3.436159   2.837085
    23  F    6.213653   4.516142   4.079148   4.379502   3.708844
    24  C    4.173341   2.376120   3.479254   1.379107   2.398285
    25  O    5.367009   3.477096   4.456005   2.294352   2.690384
    26  H    5.152730   4.567300   5.711889   4.133403   5.214731
    27  H    4.917920   4.714662   5.924427   4.416045   5.672161
    28  H    5.714787   4.698814   5.904236   3.909839   4.830531
    29  H    1.094668   2.898375   3.024561   4.128459   5.269001
    30  H    1.094141   2.585966   2.431418   3.908006   4.917231
    31  H    1.094104   3.313311   3.733811   4.414697   5.726058
                   11         12         13         14         15
    11  F    0.000000
    12  F    2.167831   0.000000
    13  C    2.376020   2.325647   0.000000
    14  F    2.775001   2.563030   1.379702   0.000000
    15  O    2.960330   3.658782   1.426527   2.215215   0.000000
    16  C    2.720616   4.146702   2.368819   2.735933   1.404833
    17  F    2.599765   3.962333   2.646929   2.339364   2.274449
    18  F    4.036697   5.468323   3.508245   3.773719   2.233471
    19  F    2.345683   4.193553   2.933803   3.593905   2.256570
    20  C    3.680269   2.802026   1.529447   2.325179   2.431079
    21  F    4.161692   3.426544   2.406799   3.544302   2.962276
    22  F    4.078644   2.464412   2.397246   2.720306   3.622354
    23  F    4.749726   4.013191   2.387548   2.757554   2.756396
    24  C    2.843474   2.644011   3.853193   4.740554   4.697746
    25  O    2.786464   2.485336   4.237802   4.805562   5.216387
    26  H    5.253265   5.336886   6.700104   7.550993   7.388404
    27  H    6.110533   5.696708   7.005946   7.970410   7.773873
    28  H    5.171816   4.534593   6.281724   7.004805   7.255268
    29  H    5.553086   6.388927   5.786596   7.107947   5.479491
    30  H    5.565931   5.994711   5.054895   6.427963   4.745280
    31  H    6.350369   6.612394   6.242956   7.610325   6.200044
                   16         17         18         19         20
    16  C    0.000000
    17  F    1.343312   0.000000
    18  F    1.347631   2.183433   0.000000
    19  F    1.344733   2.194634   2.183574   0.000000
    20  C    3.711868   4.102408   4.645777   4.271143   0.000000
    21  F    4.251342   4.944894   5.108992   4.510186   1.353267
    22  F    4.755235   4.864601   5.803170   5.251601   1.353578
    23  F    4.091406   4.483822   4.707268   4.943070   1.356420
    24  C    5.021357   5.322482   6.264234   4.356982   4.241628
    25  O    5.367194   5.367330   6.673164   4.753196   4.790270
    26  H    7.482518   7.786719   8.623764   6.503186   7.080658
    27  H    8.167318   8.600383   9.303479   7.329717   7.000847
    28  H    7.578716   7.749305   8.833831   6.857278   6.413464
    29  H    5.714090   6.824889   6.194633   4.782152   6.047221
    30  H    5.377747   6.563625   5.825334   4.826957   4.945616
    31  H    6.766173   7.839470   7.363697   6.020137   6.082407
                   21         22         23         24         25
    21  F    0.000000
    22  F    2.164914   0.000000
    23  F    2.172933   2.172873   0.000000
    24  C    3.975122   4.258661   5.587528   0.000000
    25  O    4.818060   4.592418   6.129209   1.230843   0.000000
    26  H    6.612182   7.016516   8.418504   2.883394   2.967108
    27  H    6.309222   6.825111   8.289656   3.317990   3.740639
    28  H    6.051995   6.035285   7.753787   2.587773   2.452669
    29  H    5.087678   6.895941   6.889194   4.561654   5.665271
    30  H    3.818438   5.866125   5.596157   4.704400   5.902910
    31  H    4.886593   6.732072   6.920667   4.717231   5.914949
                   26         27         28         29         30
    26  H    0.000000
    27  H    1.781768   0.000000
    28  H    1.782707   1.778676   0.000000
    29  H    5.252426   5.313111   6.112031   0.000000
    30  H    6.094938   5.819951   6.487852   1.781769   0.000000
    31  H    5.277970   4.734873   5.821406   1.781450   1.777800
                   31
    31  H    0.000000
 Symmetry turned off by external request.
 Stoichiometry    C9H6F9N3O4(1+,2)
 Framework group  C1[X(C9H6F9N3O4)]
 Deg. of freedom    87
 Full point group                 C1      NOp   1
 Rotational constants (GHZ):      0.3581870      0.1801460      0.1711715
 Leave Link  202 at Sun Mar  3 17:24:17 2024, MaxMem=  5368709120 cpu:         0.0
 (Enter /home/k0335/k033513/app/g09/l301.exe)
 Standard basis: 6-31G(d,p) (6D, 7F)
 Ernie: Thresh=  0.10000D-02 Tol=  0.10000D-05 Strict=F.
   405 basis functions,   742 primitive gaussians,   405 cartesian basis functions
    97 alpha electrons       96 beta electrons
       nuclear repulsion energy      2855.5797346067 Hartrees.
 IExCor=20419 DFT=T Ex+Corr=CAM-B3LYP ExCW=0 ScaHFX=  1.000000
 ScaDFX=  1.000000  1.000000  1.000000  0.810000 ScalE2=  1.000000  1.000000
 IRadAn=      0 IRanWt=     -1 IRanGd=            0 ICorTp=0 IEmpDi=  4
  HFx wShort=  0.000000 wLong=  0.330000 cFull=  0.190000 cShort=  0.000000 cLong=  0.460000
  DFx wShort=  0.000000 wLong=  0.330000 cFull=  0.190000 cShort=  0.000000 cLong=  0.460000
 NAtoms=   31 NActive=   31 NUniq=   31 SFac= 1.00D+00 NAtFMM=   60 NAOKFM=F Big=F
 Integral buffers will be    131072 words long.
 Raffenetti 2 integral format.
 Two-electron integral symmetry is turned off.
 Using the following non-standard input for PCM:
 eps=4.9
 --- end of non-standard input.
 ------------------------------------------------------------------------------
 Polarizable Continuum Model (PCM)
 =================================
 Model                : PCM (using non-symmetric T matrix).
 Atomic radii         : UFF (Universal Force Field).
 Polarization charges : Total charges.
 Charge compensation  : None.
 Solution method      : On-the-fly selection.
 Cavity type          : Scaled VdW (van der Waals Surface) (Alpha=1.100).
 Cavity algorithm     : GePol (No added spheres)
                        Default sphere list used, NSphG=   31.
                        Lebedev-Laikov grids with approx.  5.0 points / Ang**2.
                        Smoothing algorithm: Karplus/York (Gamma=1.0000).
                        Polarization charges: spherical gaussians, with
                                              point-specific exponents (IZeta= 3).
                        Self-potential: point-specific (ISelfS= 7).
                        Self-field    : sphere-specific E.n sum rule (ISelfD= 2).
 Solvent              : Generic,
                        Eps                           =   4.900000
                        Eps(infinity)                 =   0.000000
                        RSolv                         =   0.000000 Ang.
                        Molar volume                  =   0.000000 cm**3/mol
                        Thermal expansion coefficient =   0.000000 K**-1
                        Absolute temperature          = 298.150000 K
                        Numeral density               =   0.000000 Ang**-3
                        Hydrogen bond acidity         =   0.000000
                        Hydrogen bond basicity        =   0.000000
                        Surface tension at interface  =   0.000000 (cal/mol)*Ang**-2
                        Carbon aromaticity            =   0.000000
                        Electronegative halogenicity  =   0.000000
 ------------------------------------------------------------------------------
 GePol: Number of generator spheres                  =      31
 GePol: Total number of spheres                      =      31
 GePol: Number of exposed spheres                    =      31 (100.00%)
 GePol: Number of points                             =    2538
 GePol: Average weight of points                     =       0.13
 GePol: Minimum weight of points                     =   0.20D-11
 GePol: Maximum weight of points                     =    0.20577
 GePol: Number of points with low weight             =     123
 GePol: Fraction of low-weight points (<1% of avg)   =       4.85%
 GePol: Cavity surface area                          =    321.962 Ang**2
 GePol: Cavity volume                                =    360.286 Ang**3
 Leave Link  301 at Sun Mar  3 17:24:17 2024, MaxMem=  5368709120 cpu:         0.7
 (Enter /home/k0335/k033513/app/g09/l302.exe)
 NPDir=0 NMtPBC=     1 NCelOv=     1 NCel=       1 NClECP=     1 NCelD=      1
         NCelK=      1 NCelE2=     1 NClLst=     1 CellRange=     0.0.
 One-electron integrals computed using PRISM.
 NBasis=   405 RedAO= T EigKep=  1.21D-03  NBF=   405
 NBsUse=   405 1.00D-06 EigRej= -1.00D+00 NBFU=   405
 Precomputing XC quadrature grid using
 IXCGrd= 4 IRadAn=           0 IRanWt=          -1 IRanGd=           0 AccXCQ= 0.00D+00.
 Generated NRdTot=       0 NPtTot=           0 NUsed=           0 NTot=          32
 NSgBfM=   401   401   401   401   401 MxSgAt=    31 MxSgA2=    31.
 Leave Link  302 at Sun Mar  3 17:24:18 2024, MaxMem=  5368709120 cpu:         5.7
 (Enter /home/k0335/k033513/app/g09/l303.exe)
 DipDrv:  MaxL=1.
 Leave Link  303 at Sun Mar  3 17:24:18 2024, MaxMem=  5368709120 cpu:         0.5
 (Enter /home/k0335/k033513/app/g09/l401.exe)
 ExpMin= 1.61D-01 ExpMax= 7.00D+03 ExpMxC= 1.05D+03 IAcc=1 IRadAn=         1 AccDes= 0.00D+00
 Harris functional with IExCor=20419 and IRadAn=       1 diagonalized for initial guess.
 HarFok:  IExCor=20419 AccDes= 0.00D+00 IRadAn=         1 IDoV= 1 UseB2=F ITyADJ=14
 ICtDFT=  3500011 ScaDFX=  1.000000  1.000000  1.000000  1.000000
 FoFCou: FMM=F IPFlag=           0 FMFlag=      100000 FMFlg1=           0
         NFxFlg=           0 DoJE=T BraDBF=F KetDBF=T FulRan=T
         wScrn=  0.000000 ICntrl=     500 IOpCl=  0 I1Cent=   200000004 NGrid=           0
         NMat0=    1 NMatS0=      1 NMatT0=    0 NMatD0=    1 NMtDS0=    0 NMtDT0=    0
 Symmetry not used in FoFCou.
 Harris En= -1656.91943202043    
 JPrj=0 DoOrth=F DoCkMO=F.
 Initial guess <Sx>= 0.0000 <Sy>= 0.0000 <Sz>= 0.5000 <S**2>= 0.7500 S= 0.5000
 Leave Link  401 at Sun Mar  3 17:24:18 2024, MaxMem=  5368709120 cpu:         7.7
 (Enter /home/k0335/k033513/app/g09/l502.exe)
 UHF open shell SCF:
 Using DIIS extrapolation, IDIIS=  1040.
 Two-electron integral symmetry not used.
 IVT=      522837 IEndB=      522837 NGot=  5368709120 MDV=  5368367354
 LenX=  5368367354 LenY=  5368202888
 Requested convergence on RMS density matrix=1.00D-08 within 128 cycles.
 Requested convergence on MAX density matrix=1.00D-06.
 Requested convergence on             energy=1.00D-06.
 No special actions if energy rises.
 Fock matrices will be formed incrementally for  20 cycles.

 Cycle   1  Pass 1  IDiag  1:
 FoFJK:  IHMeth= 1 ICntrl=       0 DoSepK=T KAlg= 0 I1Cent=   0 FoldK=F
 IRaf=         1 NMat=   1 IRICut=       1 DoRegI=T DoRafI=F ISym2E= 0.
 FoFCou: FMM=F IPFlag=           0 FMFlag=      100000 FMFlg1=           0
         NFxFlg=           0 DoJE=T BraDBF=F KetDBF=F FulRan=T
         wScrn=  0.000000 ICntrl=     500 IOpCl=  0 I1Cent=           0 NGrid=           0
         NMat0=    1 NMatS0=      1 NMatT0=    0 NMatD0=    1 NMtDS0=    0 NMtDT0=    0
 Symmetry not used in FoFCou.
 Inv3:  Mode=1 IEnd=    19324332.
 Iteration    1 A*A^-1 deviation from unit magnitude is 6.00D-15 for   2528.
 Iteration    1 A*A^-1 deviation from orthogonality  is 2.41D-15 for   2246    201.
 Iteration    1 A^-1*A deviation from unit magnitude is 5.22D-15 for   2528.
 Iteration    1 A^-1*A deviation from orthogonality  is 2.65D-14 for   2380   2353.
 E= -1708.73667104578    
 DIIS: error= 5.80D-02 at cycle   1 NSaved=   1.
 NSaved= 1 IEnMin= 1 EnMin= -1708.73667104578     IErMin= 1 ErrMin= 5.80D-02
 ErrMax= 5.80D-02  0.00D+00 EMaxC= 1.00D-01 BMatC= 6.28D+00 BMatP= 6.28D+00
 IDIUse=3 WtCom= 4.20D-01 WtEn= 5.80D-01
 Coeff-Com:  0.100D+01
 Coeff-En:   0.100D+01
 Coeff:      0.100D+01
 Gap=     0.532 Goal=   None    Shift=    0.000
 Gap=     0.012 Goal=   None    Shift=    0.000
 GapD=    0.012 DampG=0.250 DampE=0.500 DampFc=0.2500 IDamp=-1.
 Damping current iteration by 2.50D-01
 RMSDP=4.33D-03 MaxDP=1.62D-01              OVMax= 6.43D-01

 Cycle   2  Pass 1  IDiag  1:
 RMSU=  1.08D-03    CP:  1.00D+00
 E= -1708.97452030443     Delta-E=       -0.237849258654 Rises=F Damp=T
 DIIS: error= 4.20D-02 at cycle   2 NSaved=   2.
 NSaved= 2 IEnMin= 2 EnMin= -1708.97452030443     IErMin= 2 ErrMin= 4.20D-02
 ErrMax= 4.20D-02  0.00D+00 EMaxC= 1.00D-01 BMatC= 2.59D+00 BMatP= 6.28D+00
 IDIUse=3 WtCom= 5.80D-01 WtEn= 4.20D-01
 Coeff-Com: -0.137D+01 0.237D+01
 Coeff-En:   0.000D+00 0.100D+01
 Coeff:     -0.792D+00 0.179D+01
 Gap=     0.507 Goal=   None    Shift=    0.000
 Gap=     0.040 Goal=   None    Shift=    0.000
 RMSDP=2.29D-03 MaxDP=8.84D-02 DE=-2.38D-01 OVMax= 3.39D-01

 Cycle   3  Pass 1  IDiag  1:
 RMSU=  1.57D-03    CP:  1.00D+00  2.54D+00
 E= -1709.38032179963     Delta-E=       -0.405801495198 Rises=F Damp=F
 DIIS: error= 1.80D-02 at cycle   3 NSaved=   3.
 NSaved= 3 IEnMin= 3 EnMin= -1709.38032179963     IErMin= 3 ErrMin= 1.80D-02
 ErrMax= 1.80D-02  0.00D+00 EMaxC= 1.00D-01 BMatC= 4.63D-01 BMatP= 2.59D+00
 IDIUse=3 WtCom= 8.20D-01 WtEn= 1.80D-01
 Coeff-Com: -0.559D+00 0.979D+00 0.579D+00
 Coeff-En:   0.000D+00 0.000D+00 0.100D+01
 Coeff:     -0.458D+00 0.803D+00 0.655D+00
 Gap=     0.374 Goal=   None    Shift=    0.000
 Gap=     0.090 Goal=   None    Shift=    0.000
 RMSDP=1.41D-03 MaxDP=1.75D-01 DE=-4.06D-01 OVMax= 5.08D-01

 Cycle   4  Pass 1  IDiag  1:
 RMSU=  1.01D-03    CP:  1.00D+00  2.78D+00  3.92D-01
 E= -1709.38756400678     Delta-E=       -0.007242207148 Rises=F Damp=F
 DIIS: error= 2.09D-02 at cycle   4 NSaved=   4.
 NSaved= 4 IEnMin= 4 EnMin= -1709.38756400678     IErMin= 3 ErrMin= 1.80D-02
 ErrMax= 2.09D-02  0.00D+00 EMaxC= 1.00D-01 BMatC= 4.18D-01 BMatP= 4.63D-01
 IDIUse=3 WtCom= 7.91D-01 WtEn= 2.09D-01
 Coeff-Com: -0.964D-01 0.197D+00 0.469D+00 0.430D+00
 Coeff-En:   0.000D+00 0.000D+00 0.483D+00 0.517D+00
 Coeff:     -0.763D-01 0.156D+00 0.472D+00 0.448D+00
 Gap=     0.425 Goal=   None    Shift=    0.000
 Gap=     0.081 Goal=   None    Shift=    0.000
 RMSDP=9.20D-04 MaxDP=1.09D-01 DE=-7.24D-03 OVMax= 2.81D-01

 Cycle   5  Pass 1  IDiag  1:
 RMSU=  4.98D-04    CP:  1.00D+00  2.65D+00  7.55D-01  5.00D-01
 E= -1709.46092810180     Delta-E=       -0.073364095019 Rises=F Damp=F
 DIIS: error= 3.69D-03 at cycle   5 NSaved=   5.
 NSaved= 5 IEnMin= 5 EnMin= -1709.46092810180     IErMin= 5 ErrMin= 3.69D-03
 ErrMax= 3.69D-03  0.00D+00 EMaxC= 1.00D-01 BMatC= 6.43D-02 BMatP= 4.18D-01
 IDIUse=3 WtCom= 9.63D-01 WtEn= 3.69D-02
 Coeff-Com:  0.512D-01-0.640D-01 0.236D+00 0.332D+00 0.445D+00
 Coeff-En:   0.000D+00 0.000D+00 0.000D+00 0.122D+00 0.878D+00
 Coeff:      0.494D-01-0.617D-01 0.227D+00 0.324D+00 0.461D+00
 Gap=     0.353 Goal=   None    Shift=    0.000
 Gap=     0.103 Goal=   None    Shift=    0.000
 RMSDP=3.08D-04 MaxDP=3.09D-02 DE=-7.34D-02 OVMax= 8.22D-02

 Cycle   6  Pass 1  IDiag  1:
 RMSU=  1.87D-04    CP:  1.00D+00  2.68D+00  7.37D-01  6.83D-01  6.90D-01
 E= -1709.47397572152     Delta-E=       -0.013047619722 Rises=F Damp=F
 DIIS: error= 1.22D-03 at cycle   6 NSaved=   6.
 NSaved= 6 IEnMin= 6 EnMin= -1709.47397572152     IErMin= 6 ErrMin= 1.22D-03
 ErrMax= 1.22D-03  0.00D+00 EMaxC= 1.00D-01 BMatC= 2.24D-03 BMatP= 6.43D-02
 IDIUse=3 WtCom= 9.88D-01 WtEn= 1.22D-02
 Coeff-Com:  0.244D-01-0.371D-01 0.101D-01 0.547D-01 0.168D+00 0.779D+00
 Coeff-En:   0.000D+00 0.000D+00 0.000D+00 0.000D+00 0.000D+00 0.100D+01
 Coeff:      0.241D-01-0.366D-01 0.994D-02 0.540D-01 0.166D+00 0.782D+00
 Gap=     0.353 Goal=   None    Shift=    0.000
 Gap=     0.113 Goal=   None    Shift=    0.000
 RMSDP=1.32D-04 MaxDP=1.02D-02 DE=-1.30D-02 OVMax= 3.25D-02

 Cycle   7  Pass 1  IDiag  1:
 RMSU=  8.45D-05    CP:  1.00D+00  2.70D+00  7.38D-01  7.04D-01  8.60D-01
                    CP:  1.25D+00
 E= -1709.47515871532     Delta-E=       -0.001182993802 Rises=F Damp=F
 DIIS: error= 4.10D-04 at cycle   7 NSaved=   7.
 NSaved= 7 IEnMin= 7 EnMin= -1709.47515871532     IErMin= 7 ErrMin= 4.10D-04
 ErrMax= 4.10D-04  0.00D+00 EMaxC= 1.00D-01 BMatC= 6.97D-04 BMatP= 2.24D-03
 IDIUse=3 WtCom= 9.96D-01 WtEn= 4.10D-03
 Coeff-Com: -0.238D-02 0.185D-02-0.388D-01-0.356D-01-0.201D-01 0.379D+00
 Coeff-Com:  0.716D+00
 Coeff-En:   0.000D+00 0.000D+00 0.000D+00 0.000D+00 0.000D+00 0.000D+00
 Coeff-En:   0.100D+01
 Coeff:     -0.237D-02 0.184D-02-0.386D-01-0.354D-01-0.200D-01 0.377D+00
 Coeff:      0.717D+00
 Gap=     0.352 Goal=   None    Shift=    0.000
 Gap=     0.117 Goal=   None    Shift=    0.000
 RMSDP=7.97D-05 MaxDP=3.51D-03 DE=-1.18D-03 OVMax= 2.20D-02

 Cycle   8  Pass 1  IDiag  1:
 RMSU=  4.32D-05    CP:  1.00D+00  2.70D+00  7.39D-01  7.25D-01  9.23D-01
                    CP:  1.52D+00  1.27D+00
 E= -1709.47565171082     Delta-E=       -0.000492995498 Rises=F Damp=F
 DIIS: error= 3.17D-04 at cycle   8 NSaved=   8.
 NSaved= 8 IEnMin= 8 EnMin= -1709.47565171082     IErMin= 8 ErrMin= 3.17D-04
 ErrMax= 3.17D-04  0.00D+00 EMaxC= 1.00D-01 BMatC= 1.75D-04 BMatP= 6.97D-04
 IDIUse=3 WtCom= 9.97D-01 WtEn= 3.17D-03
 Coeff-Com: -0.542D-02 0.794D-02-0.182D-01-0.201D-01-0.419D-01 0.299D-02
 Coeff-Com:  0.303D+00 0.772D+00
 Coeff-En:   0.000D+00 0.000D+00 0.000D+00 0.000D+00 0.000D+00 0.000D+00
 Coeff-En:   0.000D+00 0.100D+01
 Coeff:     -0.540D-02 0.792D-02-0.181D-01-0.201D-01-0.418D-01 0.298D-02
 Coeff:      0.302D+00 0.772D+00
 Gap=     0.353 Goal=   None    Shift=    0.000
 Gap=     0.117 Goal=   None    Shift=    0.000
 RMSDP=5.95D-05 MaxDP=3.55D-03 DE=-4.93D-04 OVMax= 1.75D-02

 Cycle   9  Pass 1  IDiag  1:
 RMSU=  2.95D-05    CP:  1.00D+00  2.70D+00  7.41D-01  7.27D-01  9.58D-01
                    CP:  1.69D+00  1.65D+00  1.38D+00
 E= -1709.47588753710     Delta-E=       -0.000235826283 Rises=F Damp=F
 DIIS: error= 2.86D-04 at cycle   9 NSaved=   9.
 NSaved= 9 IEnMin= 9 EnMin= -1709.47588753710     IErMin= 9 ErrMin= 2.86D-04
 ErrMax= 2.86D-04  0.00D+00 EMaxC= 1.00D-01 BMatC= 1.73D-04 BMatP= 1.75D-04
 IDIUse=3 WtCom= 9.97D-01 WtEn= 2.86D-03
 Coeff-Com: -0.323D-02 0.491D-02-0.207D-02 0.196D-02-0.232D-01-0.118D+00
 Coeff-Com: -0.568D-02 0.579D+00 0.566D+00
 Coeff-En:   0.000D+00 0.000D+00 0.000D+00 0.000D+00 0.000D+00 0.000D+00
 Coeff-En:   0.000D+00 0.000D+00 0.100D+01
 Coeff:     -0.322D-02 0.490D-02-0.206D-02 0.195D-02-0.231D-01-0.117D+00
 Coeff:     -0.566D-02 0.578D+00 0.567D+00
 Gap=     0.353 Goal=   None    Shift=    0.000
 Gap=     0.117 Goal=   None    Shift=    0.000
 RMSDP=4.28D-05 MaxDP=3.18D-03 DE=-2.36D-04 OVMax= 1.23D-02

 Cycle  10  Pass 1  IDiag  1:
 RMSU=  1.66D-05    CP:  1.00D+00  2.70D+00  7.44D-01  7.28D-01  9.79D-01
                    CP:  1.78D+00  1.89D+00  1.96D+00  1.39D+00
 E= -1709.47605999934     Delta-E=       -0.000172462241 Rises=F Damp=F
 DIIS: error= 2.96D-04 at cycle  10 NSaved=  10.
 NSaved=10 IEnMin=10 EnMin= -1709.47605999934     IErMin= 9 ErrMin= 2.86D-04
 ErrMax= 2.96D-04  0.00D+00 EMaxC= 1.00D-01 BMatC= 1.01D-04 BMatP= 1.73D-04
 IDIUse=3 WtCom= 9.97D-01 WtEn= 2.86D-03
 Coeff-Com: -0.284D-02 0.397D-02 0.465D-03 0.934D-02-0.786D-02-0.708D-01
 Coeff-Com: -0.606D-01 0.190D+00 0.210D+00 0.728D+00
 Coeff-En:   0.000D+00 0.000D+00 0.000D+00 0.000D+00 0.000D+00 0.000D+00
 Coeff-En:   0.000D+00 0.000D+00 0.000D+00 0.100D+01
 Coeff:     -0.283D-02 0.396D-02 0.464D-03 0.931D-02-0.783D-02-0.706D-01
 Coeff:     -0.605D-01 0.189D+00 0.210D+00 0.729D+00
 Gap=     0.353 Goal=   None    Shift=    0.000
 Gap=     0.118 Goal=   None    Shift=    0.000
 RMSDP=4.03D-05 MaxDP=3.19D-03 DE=-1.72D-04 OVMax= 1.01D-02

 Cycle  11  Pass 1  IDiag  1:
 RMSU=  8.37D-06    CP:  1.00D+00  2.69D+00  7.47D-01  7.26D-01  9.87D-01
                    CP:  1.83D+00  2.10D+00  2.45D+00  2.13D+00  1.76D+00
 E= -1709.47621476559     Delta-E=       -0.000154766242 Rises=F Damp=F
 DIIS: error= 3.00D-04 at cycle  11 NSaved=  11.
 NSaved=11 IEnMin=11 EnMin= -1709.47621476559     IErMin= 9 ErrMin= 2.86D-04
 ErrMax= 3.00D-04  0.00D+00 EMaxC= 1.00D-01 BMatC= 1.10D-04 BMatP= 1.01D-04
 IDIUse=3 WtCom= 9.97D-01 WtEn= 2.86D-03
 Coeff-Com: -0.348D-02 0.476D-02-0.258D-02 0.763D-02-0.463D-02-0.966D-02
 Coeff-Com:  0.101D-02 0.473D-01-0.122D+00 0.359D+00 0.723D+00
 Coeff-En:   0.000D+00 0.000D+00 0.000D+00 0.000D+00 0.000D+00 0.000D+00
 Coeff-En:   0.000D+00 0.000D+00 0.000D+00 0.000D+00 0.100D+01
 Coeff:     -0.347D-02 0.475D-02-0.257D-02 0.761D-02-0.462D-02-0.963D-02
 Coeff:      0.101D-02 0.472D-01-0.122D+00 0.358D+00 0.724D+00
 Gap=     0.353 Goal=   None    Shift=    0.000
 Gap=     0.118 Goal=   None    Shift=    0.000
 RMSDP=3.75D-05 MaxDP=2.87D-03 DE=-1.55D-04 OVMax= 1.01D-02

 Cycle  12  Pass 1  IDiag  1:
 RMSU=  3.35D-06    CP:  1.00D+00  2.69D+00  7.51D-01  7.21D-01  9.88D-01
                    CP:  1.85D+00  2.26D+00  2.90D+00  2.83D+00  2.72D+00
                    CP:  1.95D+00
 E= -1709.47636237036     Delta-E=       -0.000147604779 Rises=F Damp=F
 DIIS: error= 3.17D-04 at cycle  12 NSaved=  12.
 NSaved=12 IEnMin=12 EnMin= -1709.47636237036     IErMin= 9 ErrMin= 2.86D-04
 ErrMax= 3.17D-04  0.00D+00 EMaxC= 1.00D-01 BMatC= 1.19D-04 BMatP= 1.01D-04
 IDIUse=3 WtCom= 9.97D-01 WtEn= 2.86D-03
 Coeff-Com: -0.261D-02 0.352D-02-0.220D-03 0.959D-02-0.194D-02-0.188D-01
 Coeff-Com: -0.355D-01 0.716D-02-0.723D-01 0.646D+00 0.242D+01-0.196D+01
 Coeff-En:   0.000D+00 0.000D+00 0.000D+00 0.000D+00 0.000D+00 0.000D+00
 Coeff-En:   0.000D+00 0.000D+00 0.000D+00 0.000D+00 0.000D+00 0.100D+01
 Coeff:     -0.260D-02 0.351D-02-0.219D-03 0.956D-02-0.193D-02-0.187D-01
 Coeff:     -0.354D-01 0.714D-02-0.721D-01 0.644D+00 0.242D+01-0.195D+01
 Gap=     0.353 Goal=   None    Shift=    0.000
 Gap=     0.118 Goal=   None    Shift=    0.000
 RMSDP=8.11D-05 MaxDP=5.91D-03 DE=-1.48D-04 OVMax= 2.42D-02

 Cycle  13  Pass 1  IDiag  1:
 RMSU=  4.27D-06    CP:  1.00D+00  2.70D+00  7.42D-01  7.31D-01  9.85D-01
                    CP:  1.81D+00  1.94D+00  1.95D+00  1.33D+00  5.92D-01
                    CP: -3.84D-01 -1.53D+00
 E= -1709.47605151718     Delta-E=        0.000310853180 Rises=F Damp=F
 DIIS: error= 2.76D-04 at cycle  13 NSaved=  13.
 NSaved=13 IEnMin=12 EnMin= -1709.47636237036     IErMin=13 ErrMin= 2.76D-04
 ErrMax= 2.76D-04  0.00D+00 EMaxC= 1.00D-01 BMatC= 1.03D-04 BMatP= 1.01D-04
 IDIUse=3 WtCom= 9.97D-01 WtEn= 2.76D-03
 Rare condition: small coef for last iteration:  0.000D+00
 Coeff-Com: -0.180D-02 0.226D-02-0.186D-02 0.735D-02 0.111D-01 0.852D-01
 Coeff-Com:  0.331D-01-0.304D+00-0.677D+00 0.322D+00 0.590D+01-0.639D+01
 Coeff-Com:  0.202D+01
 Coeff-En:   0.000D+00 0.000D+00 0.000D+00 0.000D+00 0.000D+00 0.000D+00
 Coeff-En:   0.000D+00 0.000D+00 0.000D+00 0.000D+00 0.000D+00 0.000D+00
 Coeff-En:   0.100D+01
 Coeff:     -0.180D-02 0.226D-02-0.186D-02 0.735D-02 0.111D-01 0.852D-01
 Coeff:      0.331D-01-0.304D+00-0.677D+00 0.322D+00 0.590D+01-0.639D+01
 Coeff:      0.202D+01
 Gap=     0.353 Goal=   None    Shift=    0.000
 Gap=     0.118 Goal=   None    Shift=    0.000
 RMSDP=1.96D-04 MaxDP=1.42D-02 DE= 3.11D-04 OVMax= 6.06D-02

 Cycle  14  Pass 1  IDiag  1:
 RMSU=  4.94D-05    CP:  1.00D+00  2.72D+00  7.14D-01  7.52D-01  9.66D-01
                    CP:  1.72D+00  1.24D+00 -2.11D-01 -2.28D+00 -3.00D+00
                    CP: -3.00D+00 -3.00D+00  3.00D+00
 E= -1709.47539892160     Delta-E=        0.000652595582 Rises=F Damp=F
 DIIS: error= 2.12D-04 at cycle  14 NSaved=  14.
 NSaved=14 IEnMin=12 EnMin= -1709.47636237036     IErMin=14 ErrMin= 2.12D-04
 ErrMax= 2.12D-04  0.00D+00 EMaxC= 1.00D-01 BMatC= 1.08D-04 BMatP= 1.01D-04
 IDIUse=3 WtCom= 9.98D-01 WtEn= 2.12D-03
 Rare condition: small coef for last iteration:  0.000D+00
 Coeff-Com: -0.180D-02 0.226D-02-0.184D-02 0.733D-02 0.107D-01 0.867D-01
 Coeff-Com:  0.320D-01-0.311D+00-0.677D+00 0.318D+00 0.597D+01-0.652D+01
 Coeff-Com:  0.212D+01-0.473D-01
 Coeff-En:   0.000D+00 0.000D+00 0.000D+00 0.000D+00 0.000D+00 0.000D+00
 Coeff-En:   0.000D+00 0.000D+00 0.000D+00 0.000D+00 0.000D+00 0.000D+00
 Coeff-En:   0.000D+00 0.100D+01
 Coeff:     -0.180D-02 0.226D-02-0.184D-02 0.733D-02 0.107D-01 0.867D-01
 Coeff:      0.320D-01-0.311D+00-0.677D+00 0.318D+00 0.597D+01-0.652D+01
 Coeff:      0.212D+01-0.473D-01
 Gap=     0.352 Goal=   None    Shift=    0.000
 Gap=     0.120 Goal=   None    Shift=    0.000
 RMSDP=3.55D-06 MaxDP=2.70D-04 DE= 6.53D-04 OVMax= 1.18D-03

 Cycle  15  Pass 1  IDiag  1:
 RMSU=  4.93D-07    CP:  1.00D+00  2.72D+00  7.15D-01  7.52D-01  9.67D-01
                    CP:  1.73D+00  1.25D+00 -1.76D-01 -2.21D+00 -3.00D+00
                    CP: -3.00D+00 -3.00D+00  3.00D+00  9.60D-01
 E= -1709.47540805747     Delta-E=       -0.000009135864 Rises=F Damp=F
 DIIS: error= 2.13D-04 at cycle  15 NSaved=  15.
 NSaved=15 IEnMin=12 EnMin= -1709.47636237036     IErMin=14 ErrMin= 2.12D-04
 ErrMax= 2.13D-04  0.00D+00 EMaxC= 1.00D-01 BMatC= 1.11D-04 BMatP= 1.01D-04
 IDIUse=3 WtCom= 9.98D-01 WtEn= 2.12D-03
 Large coefficients: NSaved= 15 BigCof=   25.96 CofMax=   10.00 Det=-9.14D-09
 Inversion failed.  Reducing to 14 matrices.
 Large coefficients: NSaved= 14 BigCof=   26.31 CofMax=   10.00 Det=-9.18D-09
 Inversion failed.  Reducing to 13 matrices.
 Large coefficients: NSaved= 13 BigCof=   26.55 CofMax=   10.00 Det=-9.20D-09
 Inversion failed.  Reducing to 12 matrices.
 Large coefficients: NSaved= 12 BigCof=   26.47 CofMax=   10.00 Det=-9.35D-09
 Inversion failed.  Reducing to 11 matrices.
 Large coefficients: NSaved= 11 BigCof=   30.96 CofMax=   10.00 Det=-9.65D-09
 Inversion failed.  Reducing to 10 matrices.
 Large coefficients: NSaved= 10 BigCof=   30.71 CofMax=   10.00 Det=-1.06D-08
 Inversion failed.  Reducing to  9 matrices.
 Large coefficients: NSaved=  9 BigCof=   29.00 CofMax=   10.00 Det=-1.22D-08
 Inversion failed.  Reducing to  8 matrices.
 Large coefficients: NSaved=  8 BigCof=   28.43 CofMax=   10.00 Det=-1.26D-08
 Inversion failed.  Reducing to  7 matrices.
 Large coefficients: NSaved=  7 BigCof=   28.28 CofMax=   10.00 Det=-1.26D-08
 Inversion failed.  Reducing to  6 matrices.
 Large coefficients: NSaved=  6 BigCof=   29.36 CofMax=   10.00 Det=-1.28D-08
 Inversion failed.  Reducing to  5 matrices.
 Large coefficients: NSaved=  5 BigCof=   34.28 CofMax=   10.00 Det=-1.82D-08
 Inversion failed.  Reducing to  4 matrices.
 Large coefficients: NSaved=  4 BigCof=   40.52 CofMax=   10.00 Det=-2.26D-08
 Inversion failed.  Reducing to  3 matrices.
 Large coefficients: NSaved=  3 BigCof=   46.83 CofMax=   10.00 Det=-2.61D-08
 Inversion failed.  Reducing to  2 matrices.
 Large coefficients: NSaved=  2 BigCof=   47.37 CofMax=   10.00 Det=-2.78D-08
 Coeff-Com:  0.474D+02-0.464D+02
 Coeff-En:   0.000D+00 0.100D+01
 Coeff:      0.473D+02-0.463D+02
 Gap=     0.352 Goal=   None    Shift=    0.000
 Gap=     0.117 Goal=   None    Shift=    0.000
 RMSDP=1.47D-04 MaxDP=1.17D-02 DE=-9.14D-06 OVMax= 5.82D-02

 Cycle  16  Pass 1  IDiag  1:
 RMSU=  5.74D-05    CP:  1.00D+00  2.74D+00  6.83D-01  7.68D-01  9.35D-01
                    CP:  1.60D+00  8.37D-01 -1.43D+00 -3.00D+00 -3.00D+00
                    CP: -3.00D+00 -3.00D+00  3.00D+00  2.70D+00 -3.00D+00
 E= -1709.47511172044     Delta-E=        0.000296337029 Rises=F Damp=F
 DIIS: error= 1.85D-04 at cycle  16 NSaved=   3.
 NSaved= 3 IEnMin= 2 EnMin= -1709.47540805747     IErMin= 3 ErrMin= 1.85D-04
 ErrMax= 1.85D-04  0.00D+00 EMaxC= 1.00D-01 BMatC= 6.70D-05 BMatP= 1.08D-04
 IDIUse=3 WtCom= 9.98D-01 WtEn= 1.85D-03
 Large coefficients: NSaved=  3 BigCof=   32.86 CofMax=   10.00 Det=-2.23D-08
 Inversion failed.  Reducing to  2 matrices.
 Coeff-Com:  0.353D+00 0.647D+00
 Coeff-En:   0.000D+00 0.100D+01
 Coeff:      0.352D+00 0.648D+00
 Gap=     0.352 Goal=   None    Shift=    0.000
 Gap=     0.116 Goal=   None    Shift=    0.000
 RMSDP=7.94D-05 MaxDP=6.57D-03 DE= 2.96D-04 OVMax= 2.79D-02

 Cycle  17  Pass 1  IDiag  1:
 RMSU=  2.50D-05    CP:  1.00D+00  2.73D+00  6.98D-01  7.61D-01  9.53D-01
                    CP:  1.66D+00  1.07D+00 -6.48D-01 -3.00D+00 -3.00D+00
                    CP: -3.00D+00 -3.00D+00  3.00D+00  1.83D+00 -3.00D+00
                    CP:  3.37D-01
 E= -1709.47530110573     Delta-E=       -0.000189385289 Rises=F Damp=F
 DIIS: error= 2.25D-04 at cycle  17 NSaved=   3.
 NSaved= 3 IEnMin= 1 EnMin= -1709.47540805747     IErMin= 2 ErrMin= 1.85D-04
 ErrMax= 2.25D-04  0.00D+00 EMaxC= 1.00D-01 BMatC= 5.47D-05 BMatP= 6.70D-05
 IDIUse=3 WtCom= 9.98D-01 WtEn= 1.85D-03
 Coeff-Com:  0.722D-01 0.427D+00 0.501D+00
 Coeff-En:   0.000D+00 0.000D+00 0.100D+01
 Coeff:      0.721D-01 0.426D+00 0.502D+00
 Gap=     0.352 Goal=   None    Shift=    0.000
 Gap=     0.116 Goal=   None    Shift=    0.000
 RMSDP=1.32D-05 MaxDP=1.09D-03 DE=-1.89D-04 OVMax= 3.26D-03

 Cycle  18  Pass 1  IDiag  1:
 RMSU=  9.27D-06    CP:  1.00D+00  2.73D+00  6.97D-01  7.63D-01  9.44D-01
                    CP:  1.68D+00  1.08D+00 -6.41D-01 -3.00D+00 -3.00D+00
                    CP: -3.00D+00 -3.00D+00  3.00D+00  1.92D+00 -3.00D+00
                    CP:  3.28D-01  1.23D+00
 E= -1709.47532020554     Delta-E=       -0.000019099818 Rises=F Damp=F
 DIIS: error= 2.00D-04 at cycle  18 NSaved=   4.
 NSaved= 4 IEnMin= 1 EnMin= -1709.47540805747     IErMin= 2 ErrMin= 1.85D-04
 ErrMax= 2.00D-04  0.00D+00 EMaxC= 1.00D-01 BMatC= 3.19D-05 BMatP= 5.47D-05
 IDIUse=3 WtCom= 9.98D-01 WtEn= 1.85D-03
 Coeff-Com: -0.316D+00 0.160D+00 0.257D+00 0.899D+00
 Coeff-En:   0.000D+00 0.000D+00 0.000D+00 0.100D+01
 Coeff:     -0.315D+00 0.159D+00 0.257D+00 0.899D+00
 Gap=     0.352 Goal=   None    Shift=    0.000
 Gap=     0.116 Goal=   None    Shift=    0.000
 RMSDP=2.12D-05 MaxDP=1.35D-03 DE=-1.91D-05 OVMax= 6.15D-03

 Cycle  19  Pass 1  IDiag  1:
 RMSU=  4.35D-06    CP:  1.00D+00  2.73D+00  6.94D-01  7.64D-01  9.42D-01
                    CP:  1.68D+00  1.08D+00 -5.93D-01 -3.00D+00 -3.00D+00
                    CP: -3.00D+00 -3.00D+00  3.00D+00  2.09D+00 -3.00D+00
                    CP:  4.36D-01  1.85D+00  1.73D+00
 E= -1709.47533660481     Delta-E=       -0.000016399268 Rises=F Damp=F
 DIIS: error= 1.99D-04 at cycle  19 NSaved=   5.
 NSaved= 5 IEnMin= 1 EnMin= -1709.47540805747     IErMin= 2 ErrMin= 1.85D-04
 ErrMax= 1.99D-04  0.00D+00 EMaxC= 1.00D-01 BMatC= 3.47D-05 BMatP= 3.19D-05
 IDIUse=3 WtCom= 9.98D-01 WtEn= 1.85D-03
 Coeff-Com: -0.601D+00-0.549D-02 0.404D-01 0.933D+00 0.633D+00
 Coeff-En:   0.000D+00 0.000D+00 0.000D+00 0.000D+00 0.100D+01
 Coeff:     -0.600D+00-0.548D-02 0.403D-01 0.931D+00 0.634D+00
 Gap=     0.352 Goal=   None    Shift=    0.000
 Gap=     0.116 Goal=   None    Shift=    0.000
 RMSDP=3.05D-05 MaxDP=2.48D-03 DE=-1.64D-05 OVMax= 1.12D-02

 Cycle  20  Pass 1  IDiag  1:
 RMSU=  2.95D-06    CP:  1.00D+00  2.73D+00  6.89D-01  7.69D-01  9.30D-01
                    CP:  1.68D+00  1.08D+00 -5.84D-01 -3.00D+00 -3.00D+00
                    CP: -3.00D+00 -3.00D+00  3.00D+00  2.37D+00 -3.00D+00
                    CP:  5.88D-01  2.66D+00  2.65D+00  2.16D+00
 E= -1709.47534880171     Delta-E=       -0.000012196896 Rises=F Damp=F
 DIIS: error= 1.80D-04 at cycle  20 NSaved=   6.
 NSaved= 6 IEnMin= 1 EnMin= -1709.47540805747     IErMin= 6 ErrMin= 1.80D-04
 ErrMax= 1.80D-04  0.00D+00 EMaxC= 1.00D-01 BMatC= 2.51D-05 BMatP= 3.19D-05
 IDIUse=3 WtCom= 9.98D-01 WtEn= 1.80D-03
 Coeff-Com: -0.311D+00 0.118D+00 0.160D+00-0.449D+00-0.278D+00 0.176D+01
 Coeff-En:   0.000D+00 0.000D+00 0.000D+00 0.000D+00 0.000D+00 0.100D+01
 Coeff:     -0.311D+00 0.117D+00 0.160D+00-0.448D+00-0.277D+00 0.176D+01
 Gap=     0.352 Goal=   None    Shift=    0.000
 Gap=     0.116 Goal=   None    Shift=    0.000
 RMSDP=5.10D-05 MaxDP=4.17D-03 DE=-1.22D-05 OVMax= 1.73D-02

 Cycle  21  Pass 1  IDiag  1:
 Restarting incremental Fock formation.
 E= -1709.47536896133     Delta-E=       -0.000020159620 Rises=F Damp=F
 DIIS: error= 1.64D-04 at cycle  21 NSaved=   7.
 NSaved= 7 IEnMin= 1 EnMin= -1709.47540805747     IErMin= 7 ErrMin= 1.64D-04
 ErrMax= 1.64D-04  0.00D+00 EMaxC= 1.00D-01 BMatC= 2.32D-05 BMatP= 2.51D-05
 IDIUse=3 WtCom= 9.98D-01 WtEn= 1.64D-03
 Coeff-Com: -0.108D-01 0.271D+00 0.304D+00-0.973D+00-0.103D+01 0.132D+01
 Coeff-Com:  0.112D+01
 Coeff-En:   0.000D+00 0.000D+00 0.000D+00 0.000D+00 0.000D+00 0.000D+00
 Coeff-En:   0.100D+01
 Coeff:     -0.108D-01 0.271D+00 0.303D+00-0.972D+00-0.103D+01 0.132D+01
 Coeff:      0.112D+01
 Gap=     0.352 Goal=   None    Shift=    0.000
 Gap=     0.116 Goal=   None    Shift=    0.000
 RMSDP=5.72D-05 MaxDP=5.08D-03 DE=-2.02D-05 OVMax= 2.02D-02

 Cycle  22  Pass 1  IDiag  1:
 RMSU=  5.72D-05    CP:  1.00D+00
 E= -1709.47538360053     Delta-E=       -0.000014639206 Rises=F Damp=F
 DIIS: error= 1.43D-04 at cycle  22 NSaved=   8.
 NSaved= 8 IEnMin= 1 EnMin= -1709.47540805747     IErMin= 8 ErrMin= 1.43D-04
 ErrMax= 1.43D-04  0.00D+00 EMaxC= 1.00D-01 BMatC= 1.77D-05 BMatP= 2.32D-05
 IDIUse=3 WtCom= 9.99D-01 WtEn= 1.43D-03
 Coeff-Com:  0.927D-02 0.241D+00 0.282D+00-0.364D+00-0.767D+00-0.265D-01
 Coeff-Com:  0.756D+00 0.870D+00
 Coeff-En:   0.000D+00 0.000D+00 0.000D+00 0.000D+00 0.000D+00 0.000D+00
 Coeff-En:   0.000D+00 0.100D+01
 Coeff:      0.926D-02 0.240D+00 0.281D+00-0.364D+00-0.766D+00-0.265D-01
 Coeff:      0.755D+00 0.870D+00
 Gap=     0.351 Goal=   None    Shift=    0.000
 Gap=     0.116 Goal=   None    Shift=    0.000
 RMSDP=3.78D-05 MaxDP=3.92D-03 DE=-1.46D-05 OVMax= 1.25D-02

 Cycle  23  Pass 1  IDiag  1:
 RMSU=  8.05D-06    CP:  1.00D+00  1.65D+00
 E= -1709.47540009333     Delta-E=       -0.000016492796 Rises=F Damp=F
 DIIS: error= 1.37D-04 at cycle  23 NSaved=   9.
 NSaved= 9 IEnMin= 1 EnMin= -1709.47540805747     IErMin= 9 ErrMin= 1.37D-04
 ErrMax= 1.37D-04  0.00D+00 EMaxC= 1.00D-01 BMatC= 1.71D-05 BMatP= 1.77D-05
 IDIUse=3 WtCom= 9.99D-01 WtEn= 1.37D-03
 Coeff-Com: -0.238D+00 0.765D-01 0.128D+00 0.732D+00 0.267D+00-0.135D+01
 Coeff-Com: -0.618D+00 0.779D+00 0.123D+01
 Coeff-En:   0.000D+00 0.000D+00 0.000D+00 0.000D+00 0.000D+00 0.000D+00
 Coeff-En:   0.000D+00 0.000D+00 0.100D+01
 Coeff:     -0.238D+00 0.763D-01 0.128D+00 0.731D+00 0.267D+00-0.135D+01
 Coeff:     -0.617D+00 0.778D+00 0.123D+01
 Gap=     0.351 Goal=   None    Shift=    0.000
 Gap=     0.116 Goal=   None    Shift=    0.000
 RMSDP=5.82D-05 MaxDP=6.25D-03 DE=-1.65D-05 OVMax= 1.95D-02

 Cycle  24  Pass 1  IDiag  1:
 RMSU=  6.81D-06    CP:  1.00D+00  2.61D+00  3.00D+00
 E= -1709.47542700179     Delta-E=       -0.000026908462 Rises=F Damp=F
 DIIS: error= 1.26D-04 at cycle  24 NSaved=  10.
 NSaved=10 IEnMin=10 EnMin= -1709.47542700179     IErMin=10 ErrMin= 1.26D-04
 ErrMax= 1.26D-04  0.00D+00 EMaxC= 1.00D-01 BMatC= 1.59D-05 BMatP= 1.71D-05
 IDIUse=3 WtCom= 9.99D-01 WtEn= 1.26D-03
 Coeff-Com: -0.423D+00 0.946D-02 0.129D+00 0.452D+00 0.850D+00-0.503D+00
 Coeff-Com: -0.109D+01-0.454D+00-0.389D-01 0.207D+01
 Coeff-En:   0.000D+00 0.000D+00 0.000D+00 0.000D+00 0.000D+00 0.000D+00
 Coeff-En:   0.000D+00 0.000D+00 0.000D+00 0.100D+01
 Coeff:     -0.423D+00 0.945D-02 0.129D+00 0.451D+00 0.849D+00-0.503D+00
 Coeff:     -0.109D+01-0.453D+00-0.389D-01 0.207D+01
 Gap=     0.350 Goal=   None    Shift=    0.000
 Gap=     0.116 Goal=   None    Shift=    0.000
 RMSDP=1.03D-04 MaxDP=1.13D-02 DE=-2.69D-05 OVMax= 3.54D-02

 Cycle  25  Pass 1  IDiag  1:
 RMSU=  8.02D-05    CP:  1.00D+00  3.00D+00  3.00D+00  3.00D+00
 E= -1709.47547506855     Delta-E=       -0.000048066753 Rises=F Damp=F
 DIIS: error= 1.00D-04 at cycle  25 NSaved=  11.
 NSaved=11 IEnMin=11 EnMin= -1709.47547506855     IErMin=11 ErrMin= 1.00D-04
 ErrMax= 1.00D-04  0.00D+00 EMaxC= 1.00D-01 BMatC= 1.42D-05 BMatP= 1.59D-05
 IDIUse=3 WtCom= 9.99D-01 WtEn= 1.00D-03
 Coeff-Com: -0.268D+00 0.145D+00 0.216D+00-0.672D+00 0.225D+00 0.830D+00
 Coeff-Com:  0.231D+00-0.648D+00-0.163D+01 0.116D+01 0.142D+01
 Coeff-En:   0.000D+00 0.000D+00 0.000D+00 0.000D+00 0.000D+00 0.000D+00
 Coeff-En:   0.000D+00 0.000D+00 0.000D+00 0.000D+00 0.100D+01
 Coeff:     -0.268D+00 0.144D+00 0.216D+00-0.672D+00 0.225D+00 0.829D+00
 Coeff:      0.231D+00-0.648D+00-0.163D+01 0.116D+01 0.141D+01
 Gap=     0.349 Goal=   None    Shift=    0.000
 Gap=     0.117 Goal=   None    Shift=    0.000
 RMSDP=1.10D-04 MaxDP=1.18D-02 DE=-4.81D-05 OVMax= 3.98D-02

 Cycle  26  Pass 1  IDiag  1:
 RMSU=  2.41D-05    CP:  1.00D+00  3.00D+00  3.00D+00  3.00D+00  2.33D+00
 E= -1709.47552614722     Delta-E=       -0.000051078676 Rises=F Damp=F
 DIIS: error= 8.99D-05 at cycle  26 NSaved=  12.
 NSaved=12 IEnMin=12 EnMin= -1709.47552614722     IErMin=12 ErrMin= 8.99D-05
 ErrMax= 8.99D-05  0.00D+00 EMaxC= 1.00D-01 BMatC= 9.95D-06 BMatP= 1.42D-05
 IDIUse=1 WtCom= 1.00D+00 WtEn= 0.00D+00
 Coeff-Com: -0.112D+00 0.205D+00 0.958D-01-0.481D+00-0.206D+00 0.329D+00
 Coeff-Com:  0.901D+00 0.131D+00-0.112D+01-0.462D+00 0.470D+00 0.125D+01
 Coeff:     -0.112D+00 0.205D+00 0.958D-01-0.481D+00-0.206D+00 0.329D+00
 Coeff:      0.901D+00 0.131D+00-0.112D+01-0.462D+00 0.470D+00 0.125D+01
 Gap=     0.348 Goal=   None    Shift=    0.000
 Gap=     0.117 Goal=   None    Shift=    0.000
 RMSDP=8.62D-05 MaxDP=8.98D-03 DE=-5.11D-05 OVMax= 3.34D-02

 Cycle  27  Pass 1  IDiag  1:
 RMSU=  2.91D-05    CP:  1.00D+00  3.00D+00  3.00D+00  3.00D+00  3.00D+00
                    CP:  2.21D+00
 E= -1709.47557035077     Delta-E=       -0.000044203550 Rises=F Damp=F
 DIIS: error= 8.18D-05 at cycle  27 NSaved=  13.
 NSaved=13 IEnMin=13 EnMin= -1709.47557035077     IErMin=13 ErrMin= 8.18D-05
 ErrMax= 8.18D-05  0.00D+00 EMaxC= 1.00D-01 BMatC= 7.41D-06 BMatP= 9.95D-06
 IDIUse=1 WtCom= 1.00D+00 WtEn= 0.00D+00
 Coeff-Com: -0.143D+00 0.861D-01-0.114D-01 0.183D+00 0.241D+00-0.546D+00
 Coeff-Com:  0.499D-01 0.370D+00-0.234D+00 0.204D+00-0.558D+00 0.103D+00
 Coeff-Com:  0.125D+01
 Coeff:     -0.143D+00 0.861D-01-0.114D-01 0.183D+00 0.241D+00-0.546D+00
 Coeff:      0.499D-01 0.370D+00-0.234D+00 0.204D+00-0.558D+00 0.103D+00
 Coeff:      0.125D+01
 Gap=     0.348 Goal=   None    Shift=    0.000
 Gap=     0.117 Goal=   None    Shift=    0.000
 RMSDP=5.60D-05 MaxDP=5.53D-03 DE=-4.42D-05 OVMax= 2.28D-02

 Cycle  28  Pass 1  IDiag  1:
 RMSU=  9.81D-06    CP:  1.00D+00  3.00D+00  3.00D+00  3.00D+00  3.00D+00
                    CP:  3.00D+00  2.73D+00
 E= -1709.47560417128     Delta-E=       -0.000033820505 Rises=F Damp=F
 DIIS: error= 7.75D-05 at cycle  28 NSaved=  14.
 NSaved=14 IEnMin=14 EnMin= -1709.47560417128     IErMin=14 ErrMin= 7.75D-05
 ErrMax= 7.75D-05  0.00D+00 EMaxC= 1.00D-01 BMatC= 6.74D-06 BMatP= 7.41D-06
 IDIUse=1 WtCom= 1.00D+00 WtEn= 0.00D+00
 Coeff-Com: -0.199D+00-0.213D-01 0.419D-01 0.304D+00 0.744D+00-0.743D+00
 Coeff-Com: -0.727D+00 0.154D+00-0.683D-01 0.128D+01-0.481D+00-0.964D+00
 Coeff-Com:  0.311D+00 0.137D+01
 Coeff:     -0.199D+00-0.213D-01 0.419D-01 0.304D+00 0.744D+00-0.743D+00
 Coeff:     -0.727D+00 0.154D+00-0.683D-01 0.128D+01-0.481D+00-0.964D+00
 Coeff:      0.311D+00 0.137D+01
 Gap=     0.347 Goal=   None    Shift=    0.000
 Gap=     0.116 Goal=   None    Shift=    0.000
 RMSDP=4.13D-05 MaxDP=3.64D-03 DE=-3.38D-05 OVMax= 1.74D-02

 Cycle  29  Pass 1  IDiag  1:
 RMSU=  3.31D-05    CP:  9.99D-01  3.00D+00  3.00D+00  3.00D+00  3.00D+00
                    CP:  3.00D+00  3.00D+00  2.13D+00
 E= -1709.47563341721     Delta-E=       -0.000029245935 Rises=F Damp=F
 DIIS: error= 7.25D-05 at cycle  29 NSaved=  15.
 NSaved=15 IEnMin=15 EnMin= -1709.47563341721     IErMin=15 ErrMin= 7.25D-05
 ErrMax= 7.25D-05  0.00D+00 EMaxC= 1.00D-01 BMatC= 6.09D-06 BMatP= 6.74D-06
 IDIUse=1 WtCom= 1.00D+00 WtEn= 0.00D+00
 Coeff-Com: -0.125D+00-0.102D-01 0.115D+00-0.160D+00 0.614D+00-0.279D+00
 Coeff-Com: -0.297D+00 0.951D-05-0.411D+00 0.862D+00 0.135D-02-0.409D+00
 Coeff-Com: -0.559D+00 0.745D+00 0.913D+00
 Coeff:     -0.125D+00-0.102D-01 0.115D+00-0.160D+00 0.614D+00-0.279D+00
 Coeff:     -0.297D+00 0.951D-05-0.411D+00 0.862D+00 0.135D-02-0.409D+00
 Coeff:     -0.559D+00 0.745D+00 0.913D+00
 Gap=     0.347 Goal=   None    Shift=    0.000
 Gap=     0.116 Goal=   None    Shift=    0.000
 RMSDP=2.44D-05 MaxDP=2.18D-03 DE=-2.92D-05 OVMax= 9.43D-03

 Cycle  30  Pass 1  IDiag  1:
 RMSU=  4.87D-06    CP:  9.99D-01  3.00D+00  3.00D+00  3.00D+00  3.00D+00
                    CP:  3.00D+00  3.00D+00  2.70D+00  1.70D+00
 E= -1709.47565485686     Delta-E=       -0.000021439652 Rises=F Damp=F
 DIIS: error= 7.04D-05 at cycle  30 NSaved=  16.
 NSaved=16 IEnMin=16 EnMin= -1709.47565485686     IErMin=16 ErrMin= 7.04D-05
 ErrMax= 7.04D-05  0.00D+00 EMaxC= 1.00D-01 BMatC= 5.67D-06 BMatP= 6.09D-06
 IDIUse=1 WtCom= 1.00D+00 WtEn= 0.00D+00
 Coeff-Com: -0.839D-01-0.151D-01 0.587D-01-0.133D+00 0.580D+00-0.417D+00
 Coeff-Com:  0.666D-02 0.847D-02-0.180D+00 0.286D+00-0.853D-01 0.113D+00
 Coeff-Com: -0.333D+00-0.208D-01 0.143D+00 0.107D+01
 Coeff:     -0.839D-01-0.151D-01 0.587D-01-0.133D+00 0.580D+00-0.417D+00
 Coeff:      0.666D-02 0.847D-02-0.180D+00 0.286D+00-0.853D-01 0.113D+00
 Coeff:     -0.333D+00-0.208D-01 0.143D+00 0.107D+01
 Gap=     0.347 Goal=   None    Shift=    0.000
 Gap=     0.116 Goal=   None    Shift=    0.000
 RMSDP=1.73D-05 MaxDP=1.49D-03 DE=-2.14D-05 OVMax= 5.09D-03

 Cycle  31  Pass 1  IDiag  1:
 RMSU=  3.43D-06    CP:  9.99D-01  3.00D+00  3.00D+00  3.00D+00  3.00D+00
                    CP:  3.00D+00  3.00D+00  2.88D+00  2.16D+00  2.53D+00
 E= -1709.47567129942     Delta-E=       -0.000016442556 Rises=F Damp=F
 DIIS: error= 6.91D-05 at cycle  31 NSaved=  17.
 NSaved=17 IEnMin=17 EnMin= -1709.47567129942     IErMin=17 ErrMin= 6.91D-05
 ErrMax= 6.91D-05  0.00D+00 EMaxC= 1.00D-01 BMatC= 6.35D-06 BMatP= 5.67D-06
 IDIUse=1 WtCom= 1.00D+00 WtEn= 0.00D+00
 Coeff-Com: -0.812D-01-0.318D-01 0.253D-01-0.447D-01 0.661D+00-0.592D+00
 Coeff-Com: -0.272D-01 0.268D-01-0.316D-01 0.270D+00-0.222D+00 0.627D-01
 Coeff-Com: -0.244D-01 0.406D-01-0.327D+00 0.565D+00 0.730D+00
 Coeff:     -0.812D-01-0.318D-01 0.253D-01-0.447D-01 0.661D+00-0.592D+00
 Coeff:     -0.272D-01 0.268D-01-0.316D-01 0.270D+00-0.222D+00 0.627D-01
 Coeff:     -0.244D-01 0.406D-01-0.327D+00 0.565D+00 0.730D+00
 Gap=     0.347 Goal=   None    Shift=    0.000
 Gap=     0.116 Goal=   None    Shift=    0.000
 RMSDP=1.04D-05 MaxDP=1.13D-03 DE=-1.64D-05 OVMax= 3.22D-03

 Cycle  32  Pass 1  IDiag  1:
 RMSU=  4.67D-06    CP:  9.99D-01  3.00D+00  3.00D+00  3.00D+00  3.00D+00
                    CP:  3.00D+00  3.00D+00  3.00D+00  2.39D+00  3.00D+00
                    CP:  1.09D+00
 E= -1709.47568281068     Delta-E=       -0.000011511256 Rises=F Damp=F
 DIIS: error= 6.86D-05 at cycle  32 NSaved=  18.
 NSaved=18 IEnMin=18 EnMin= -1709.47568281068     IErMin=18 ErrMin= 6.86D-05
 ErrMax= 6.86D-05  0.00D+00 EMaxC= 1.00D-01 BMatC= 6.43D-06 BMatP= 5.67D-06
 IDIUse=1 WtCom= 1.00D+00 WtEn= 0.00D+00
 Coeff-Com: -0.999D-01-0.534D-01 0.355D-01-0.361D-01 0.791D+00-0.628D+00
 Coeff-Com: -0.180D+00-0.784D-01-0.396D-01 0.636D+00-0.241D+00-0.297D+00
 Coeff-Com: -0.107D+00 0.624D+00-0.954D-01-0.451D+00-0.103D+01 0.225D+01
 Coeff:     -0.999D-01-0.534D-01 0.355D-01-0.361D-01 0.791D+00-0.628D+00
 Coeff:     -0.180D+00-0.784D-01-0.396D-01 0.636D+00-0.241D+00-0.297D+00
 Coeff:     -0.107D+00 0.624D+00-0.954D-01-0.451D+00-0.103D+01 0.225D+01
 Gap=     0.347 Goal=   None    Shift=    0.000
 Gap=     0.116 Goal=   None    Shift=    0.000
 RMSDP=2.32D-05 MaxDP=2.71D-03 DE=-1.15D-05 OVMax= 7.71D-03

 Cycle  33  Pass 1  IDiag  1:
 RMSU=  7.58D-06    CP:  9.99D-01  3.00D+00  3.00D+00  3.00D+00  3.00D+00
                    CP:  3.00D+00  3.00D+00  3.00D+00  2.88D+00  3.00D+00
                    CP:  7.52D-01  3.00D+00
 E= -1709.47570902511     Delta-E=       -0.000026214429 Rises=F Damp=F
 DIIS: error= 6.79D-05 at cycle  33 NSaved=  19.
 NSaved=19 IEnMin=19 EnMin= -1709.47570902511     IErMin=19 ErrMin= 6.79D-05
 ErrMax= 6.79D-05  0.00D+00 EMaxC= 1.00D-01 BMatC= 6.47D-06 BMatP= 5.67D-06
 IDIUse=1 WtCom= 1.00D+00 WtEn= 0.00D+00
 Coeff-Com: -0.138D+00-0.362D-01 0.117D+00-0.362D+00 0.680D+00-0.123D-01
 Coeff-Com:  0.789D-01-0.566D+00-0.468D+00 0.818D+00 0.258D+00-0.214D+00
 Coeff-Com: -0.117D+01 0.856D+00 0.142D+01 0.500D-02-0.355D+01-0.181D+00
 Coeff-Com:  0.346D+01
 Coeff:     -0.138D+00-0.362D-01 0.117D+00-0.362D+00 0.680D+00-0.123D-01
 Coeff:      0.789D-01-0.566D+00-0.468D+00 0.818D+00 0.258D+00-0.214D+00
 Coeff:     -0.117D+01 0.856D+00 0.142D+01 0.500D-02-0.355D+01-0.181D+00
 Coeff:      0.346D+01
 Gap=     0.347 Goal=   None    Shift=    0.000
 Gap=     0.116 Goal=   None    Shift=    0.000
 RMSDP=6.67D-05 MaxDP=8.14D-03 DE=-2.62D-05 OVMax= 2.19D-02

 Cycle  34  Pass 1  IDiag  1:
 RMSU=  5.31D-05    CP:  9.99D-01  3.00D+00  3.00D+00  3.00D+00  3.00D+00
                    CP:  3.00D+00  3.00D+00  3.00D+00  3.00D+00  3.00D+00
                    CP: -1.87D+00  3.00D+00  3.00D+00
 E= -1709.47578301645     Delta-E=       -0.000073991342 Rises=F Damp=F
 DIIS: error= 6.50D-05 at cycle  34 NSaved=  20.
 NSaved=20 IEnMin=20 EnMin= -1709.47578301645     IErMin=20 ErrMin= 6.50D-05
 ErrMax= 6.50D-05  0.00D+00 EMaxC= 1.00D-01 BMatC= 6.93D-06 BMatP= 5.67D-06
 IDIUse=1 WtCom= 1.00D+00 WtEn= 0.00D+00
 Coeff-Com: -0.194D+00-0.232D-01 0.649D-01-0.371D+00 0.635D+00 0.108D+00
 Coeff-Com:  0.598D+00-0.112D+01-0.116D+00 0.127D+00 0.561D+00 0.583D+00
 Coeff-Com: -0.167D+01-0.640D+00 0.190D+01 0.274D+01 0.786D+00-0.809D+01
 Coeff-Com:  0.323D+01 0.189D+01
 Coeff:     -0.194D+00-0.232D-01 0.649D-01-0.371D+00 0.635D+00 0.108D+00
 Coeff:      0.598D+00-0.112D+01-0.116D+00 0.127D+00 0.561D+00 0.583D+00
 Coeff:     -0.167D+01-0.640D+00 0.190D+01 0.274D+01 0.786D+00-0.809D+01
 Coeff:      0.323D+01 0.189D+01
 Gap=     0.347 Goal=   None    Shift=    0.000
 Gap=     0.116 Goal=   None    Shift=    0.000
 RMSDP=9.59D-05 MaxDP=1.16D-02 DE=-7.40D-05 OVMax= 2.68D-02

 Cycle  35  Pass 1  IDiag  1:
 RMSU=  1.85D-05    CP:  9.99D-01  3.00D+00  3.00D+00  3.00D+00  3.00D+00
                    CP:  3.00D+00  3.00D+00  3.00D+00  3.00D+00  3.00D+00
                    CP: -3.00D+00  3.00D+00  3.00D+00  2.76D+00
 E= -1709.47588184686     Delta-E=       -0.000098830412 Rises=F Damp=F
 DIIS: error= 5.85D-05 at cycle  35 NSaved=  20.
 NSaved=20 IEnMin=20 EnMin= -1709.47588184686     IErMin=20 ErrMin= 5.85D-05
 ErrMax= 5.85D-05  0.00D+00 EMaxC= 1.00D-01 BMatC= 8.81D-06 BMatP= 5.67D-06
 IDIUse=1 WtCom= 1.00D+00 WtEn= 0.00D+00
 Coeff-Com: -0.180D+00-0.360D-01-0.303D+00 0.675D+00-0.179D+00 0.911D+00
 Coeff-Com: -0.128D+01 0.243D+00-0.257D+00 0.470D+00 0.673D+00-0.738D+00
 Coeff-Com: -0.926D+00 0.855D+00 0.135D+01 0.446D+01-0.589D+01-0.472D+00
 Coeff-Com:  0.603D-01 0.157D+01
 Coeff:     -0.180D+00-0.360D-01-0.303D+00 0.675D+00-0.179D+00 0.911D+00
 Coeff:     -0.128D+01 0.243D+00-0.257D+00 0.470D+00 0.673D+00-0.738D+00
 Coeff:     -0.926D+00 0.855D+00 0.135D+01 0.446D+01-0.589D+01-0.472D+00
 Coeff:      0.603D-01 0.157D+01
 Gap=     0.347 Goal=   None    Shift=    0.000
 Gap=     0.115 Goal=   None    Shift=    0.000
 RMSDP=3.97D-05 MaxDP=4.78D-03 DE=-9.88D-05 OVMax= 1.17D-02

 Cycle  36  Pass 1  IDiag  1:
 RMSU=  2.33D-05    CP:  9.99D-01  3.00D+00  3.00D+00  3.00D+00  3.00D+00
                    CP:  3.00D+00  3.00D+00  3.00D+00  3.00D+00  3.00D+00
                    CP: -3.00D+00  3.00D+00  3.00D+00  3.00D+00  1.96D+00
 E= -1709.47592019447     Delta-E=       -0.000038347608 Rises=F Damp=F
 DIIS: error= 5.76D-05 at cycle  36 NSaved=  20.
 NSaved=20 IEnMin=20 EnMin= -1709.47592019447     IErMin=20 ErrMin= 5.76D-05
 ErrMax= 5.76D-05  0.00D+00 EMaxC= 1.00D-01 BMatC= 3.33D-06 BMatP= 5.67D-06
 IDIUse=1 WtCom= 1.00D+00 WtEn= 0.00D+00
 Coeff-Com: -0.119D+00-0.204D+00 0.191D+00 0.262D+00 0.387D+00-0.625D+00
 Coeff-Com: -0.131D+00-0.107D+00 0.496D+00 0.229D+00-0.166D+00-0.408D+00
 Coeff-Com:  0.143D+00-0.327D+00 0.149D+01-0.153D+01-0.841D+00-0.366D+00
 Coeff-Com:  0.113D+01 0.149D+01
 Coeff:     -0.119D+00-0.204D+00 0.191D+00 0.262D+00 0.387D+00-0.625D+00
 Coeff:     -0.131D+00-0.107D+00 0.496D+00 0.229D+00-0.166D+00-0.408D+00
 Coeff:      0.143D+00-0.327D+00 0.149D+01-0.153D+01-0.841D+00-0.366D+00
 Coeff:      0.113D+01 0.149D+01
 Gap=     0.346 Goal=   None    Shift=    0.000
 Gap=     0.117 Goal=   None    Shift=    0.000
 RMSDP=2.44D-04 MaxDP=2.65D-02 DE=-3.83D-05 OVMax= 7.51D-02

 Cycle  37  Pass 1  IDiag  1:
 RMSU=  1.98D-04    CP:  9.99D-01  3.00D+00  3.00D+00  3.00D+00  3.00D+00
                    CP:  3.00D+00  3.00D+00  3.00D+00  3.00D+00  3.00D+00
                    CP: -3.00D+00  3.00D+00  3.00D+00  3.00D+00  3.00D+00
                    CP:  3.00D+00
 E= -1709.47608209703     Delta-E=       -0.000161902559 Rises=F Damp=F
 DIIS: error= 1.57D-04 at cycle  37 NSaved=  20.
 NSaved=20 IEnMin=20 EnMin= -1709.47608209703     IErMin=19 ErrMin= 5.76D-05
 ErrMax= 1.57D-04  0.00D+00 EMaxC= 1.00D-01 BMatC= 9.23D-05 BMatP= 3.33D-06
 IDIUse=1 WtCom= 1.00D+00 WtEn= 0.00D+00
 Coeff-Com: -0.459D-01-0.171D+00 0.451D+00-0.106D+00-0.469D-01-0.380D+00
 Coeff-Com:  0.365D+00 0.190D+00-0.479D+00 0.165D+00 0.798D+00-0.152D+00
 Coeff-Com: -0.246D+01-0.243D+01 0.611D+01-0.440D+00-0.247D+01-0.476D+00
 Coeff-Com:  0.220D+01 0.385D+00
 Coeff:     -0.459D-01-0.171D+00 0.451D+00-0.106D+00-0.469D-01-0.380D+00
 Coeff:      0.365D+00 0.190D+00-0.479D+00 0.165D+00 0.798D+00-0.152D+00
 Coeff:     -0.246D+01-0.243D+01 0.611D+01-0.440D+00-0.247D+01-0.476D+00
 Coeff:      0.220D+01 0.385D+00
 Gap=     0.347 Goal=   None    Shift=    0.000
 Gap=     0.114 Goal=   None    Shift=    0.000
 RMSDP=7.64D-05 MaxDP=7.78D-03 DE=-1.62D-04 OVMax= 2.47D-02

 Cycle  38  Pass 1  IDiag  1:
 RMSU=  1.85D-05    CP:  9.99D-01  3.00D+00  3.00D+00  3.00D+00  3.00D+00
                    CP:  3.00D+00  3.00D+00  3.00D+00  3.00D+00  3.00D+00
                    CP: -3.00D+00  3.00D+00  3.00D+00  3.00D+00  3.00D+00
                    CP:  3.00D+00  6.26D-01
 E= -1709.47606416987     Delta-E=        0.000017927157 Rises=F Damp=F
 DIIS: error= 5.93D-05 at cycle  38 NSaved=  20.
 NSaved=20 IEnMin=19 EnMin= -1709.47608209703     IErMin=18 ErrMin= 5.76D-05
 ErrMax= 5.93D-05  0.00D+00 EMaxC= 1.00D-01 BMatC= 5.79D-06 BMatP= 3.33D-06
 IDIUse=1 WtCom= 1.00D+00 WtEn= 0.00D+00
 Coeff-Com: -0.299D-01 0.754D-01-0.155D+00 0.352D+00-0.237D+00 0.895D-01
 Coeff-Com: -0.776D-01-0.339D+00 0.610D+00 0.744D+00-0.592D+00-0.202D+01
 Coeff-Com: -0.228D+01 0.480D+01-0.335D+00-0.140D+01-0.873D+00 0.149D+01
 Coeff-Com:  0.301D+00 0.879D+00
 Coeff:     -0.299D-01 0.754D-01-0.155D+00 0.352D+00-0.237D+00 0.895D-01
 Coeff:     -0.776D-01-0.339D+00 0.610D+00 0.744D+00-0.592D+00-0.202D+01
 Coeff:     -0.228D+01 0.480D+01-0.335D+00-0.140D+01-0.873D+00 0.149D+01
 Coeff:      0.301D+00 0.879D+00
 Gap=     0.346 Goal=   None    Shift=    0.000
 Gap=     0.116 Goal=   None    Shift=    0.000
 RMSDP=1.54D-04 MaxDP=1.50D-02 DE= 1.79D-05 OVMax= 4.91D-02

 Cycle  39  Pass 1  IDiag  1:
 RMSU=  3.13D-05    CP:  9.98D-01  3.00D+00  3.00D+00  3.00D+00  3.00D+00
                    CP:  3.00D+00  3.00D+00  3.00D+00  3.00D+00  3.00D+00
                    CP: -3.00D+00  3.00D+00  3.00D+00  3.00D+00  3.00D+00
                    CP:  3.00D+00  1.38D+00  1.96D+00
 E= -1709.47614770900     Delta-E=       -0.000083539128 Rises=F Damp=F
 DIIS: error= 8.79D-05 at cycle  39 NSaved=  20.
 NSaved=20 IEnMin=20 EnMin= -1709.47614770900     IErMin=17 ErrMin= 5.76D-05
 ErrMax= 8.79D-05  0.00D+00 EMaxC= 1.00D-01 BMatC= 2.41D-05 BMatP= 3.33D-06
 IDIUse=1 WtCom= 1.00D+00 WtEn= 0.00D+00
 Coeff-Com: -0.256D-01-0.679D-01 0.408D+00-0.162D+00-0.737D-01-0.132D+00
 Coeff-Com: -0.216D+00 0.599D+00 0.603D+00-0.629D+00-0.159D+01-0.196D+01
 Coeff-Com:  0.413D+01-0.333D+00-0.117D+01-0.887D+00 0.140D+01 0.184D+00
 Coeff-Com:  0.722D+00 0.211D+00
 Coeff:     -0.256D-01-0.679D-01 0.408D+00-0.162D+00-0.737D-01-0.132D+00
 Coeff:     -0.216D+00 0.599D+00 0.603D+00-0.629D+00-0.159D+01-0.196D+01
 Coeff:      0.413D+01-0.333D+00-0.117D+01-0.887D+00 0.140D+01 0.184D+00
 Coeff:      0.722D+00 0.211D+00
 Gap=     0.346 Goal=   None    Shift=    0.000
 Gap=     0.116 Goal=   None    Shift=    0.000
 RMSDP=1.27D-05 MaxDP=1.13D-03 DE=-8.35D-05 OVMax= 5.16D-03

 Cycle  40  Pass 1  IDiag  1:
 RMSU=  2.57D-06    CP:  9.99D-01  3.00D+00  3.00D+00  3.00D+00  3.00D+00
                    CP:  3.00D+00  3.00D+00  3.00D+00  3.00D+00  3.00D+00
                    CP: -3.00D+00  3.00D+00  3.00D+00  3.00D+00  3.00D+00
                    CP:  3.00D+00  1.33D+00  2.34D+00  1.01D+00
 E= -1709.47614791416     Delta-E=       -0.000000205160 Rises=F Damp=F
 DIIS: error= 6.90D-05 at cycle  40 NSaved=  20.
 NSaved=20 IEnMin=20 EnMin= -1709.47614791416     IErMin=16 ErrMin= 5.76D-05
 ErrMax= 6.90D-05  0.00D+00 EMaxC= 1.00D-01 BMatC= 1.32D-05 BMatP= 3.33D-06
 IDIUse=1 WtCom= 1.00D+00 WtEn= 0.00D+00
 Coeff-Com: -0.381D-01 0.365D+00-0.104D+00-0.289D+00-0.106D+00-0.200D-01
 Coeff-Com:  0.758D+00 0.284D+00-0.985D+00-0.111D+01-0.112D+01 0.355D+01
 Coeff-Com: -0.114D+01-0.106D+01-0.518D+00 0.161D+01 0.377D+00-0.296D-04
 Coeff-Com: -0.183D+01 0.239D+01
 Coeff:     -0.381D-01 0.365D+00-0.104D+00-0.289D+00-0.106D+00-0.200D-01
 Coeff:      0.758D+00 0.284D+00-0.985D+00-0.111D+01-0.112D+01 0.355D+01
 Coeff:     -0.114D+01-0.106D+01-0.518D+00 0.161D+01 0.377D+00-0.296D-04
 Coeff:     -0.183D+01 0.239D+01
 Gap=     0.346 Goal=   None    Shift=    0.000
 Gap=     0.119 Goal=   None    Shift=    0.000
 RMSDP=7.16D-05 MaxDP=6.47D-03 DE=-2.05D-07 OVMax= 2.20D-02

 Cycle  41  Pass 1  IDiag  1:
 Restarting incremental Fock formation.
 E= -1709.47616483321     Delta-E=       -0.000016919054 Rises=F Damp=F
 DIIS: error= 1.26D-04 at cycle  41 NSaved=  20.
 NSaved=20 IEnMin=20 EnMin= -1709.47616483321     IErMin=15 ErrMin= 5.76D-05
 ErrMax= 1.26D-04  0.00D+00 EMaxC= 1.00D-01 BMatC= 4.21D-05 BMatP= 3.33D-06
 IDIUse=1 WtCom= 1.00D+00 WtEn= 0.00D+00
 Coeff-Com: -0.218D-01 0.104D+00-0.226D+00 0.306D-01 0.491D-01 0.555D+00
 Coeff-Com: -0.268D+00-0.930D+00-0.445D-01 0.606D+00 0.731D+00-0.145D+01
 Coeff-Com:  0.510D-01 0.313D+00 0.935D+00 0.218D+00-0.390D+00-0.554D+01
 Coeff-Com:  0.489D+01 0.138D+01
 Coeff:     -0.218D-01 0.104D+00-0.226D+00 0.306D-01 0.491D-01 0.555D+00
 Coeff:     -0.268D+00-0.930D+00-0.445D-01 0.606D+00 0.731D+00-0.145D+01
 Coeff:      0.510D-01 0.313D+00 0.935D+00 0.218D+00-0.390D+00-0.554D+01
 Coeff:      0.489D+01 0.138D+01
 Gap=     0.346 Goal=   None    Shift=    0.000
 Gap=     0.119 Goal=   None    Shift=    0.000
 RMSDP=2.67D-05 MaxDP=3.20D-03 DE=-1.69D-05 OVMax= 1.01D-02

 Cycle  42  Pass 1  IDiag  1:
 RMSU=  2.67D-05    CP:  1.00D+00
 E= -1709.47616703609     Delta-E=       -0.000002202883 Rises=F Damp=F
 DIIS: error= 1.31D-04 at cycle  42 NSaved=  20.
 NSaved=20 IEnMin=20 EnMin= -1709.47616703609     IErMin=14 ErrMin= 5.76D-05
 ErrMax= 1.31D-04  0.00D+00 EMaxC= 1.00D-01 BMatC= 6.46D-05 BMatP= 3.33D-06
 IDIUse=1 WtCom= 1.00D+00 WtEn= 0.00D+00
 Coeff-Com: -0.125D-01-0.133D+00 0.624D-01 0.136D+00 0.621D-01-0.430D+00
 Coeff-Com: -0.112D+00 0.639D+00 0.252D+00-0.257D+01 0.639D+00 0.127D+01
 Coeff-Com:  0.145D+00-0.382D+00-0.376D+00 0.553D+00-0.255D+01 0.340D+01
 Coeff-Com: -0.762D+00 0.117D+01
 Coeff:     -0.125D-01-0.133D+00 0.624D-01 0.136D+00 0.621D-01-0.430D+00
 Coeff:     -0.112D+00 0.639D+00 0.252D+00-0.257D+01 0.639D+00 0.127D+01
 Coeff:      0.145D+00-0.382D+00-0.376D+00 0.553D+00-0.255D+01 0.340D+01
 Coeff:     -0.762D+00 0.117D+01
 Gap=     0.345 Goal=   None    Shift=    0.000
 Gap=     0.125 Goal=   None    Shift=    0.000
 RMSDP=1.56D-04 MaxDP=1.42D-02 DE=-2.20D-06 OVMax= 4.26D-02

 Cycle  43  Pass 1  IDiag  1:
 RMSU=  1.14D-04    CP:  1.00D+00  3.00D+00
 E= -1709.47609526113     Delta-E=        0.000071774964 Rises=F Damp=F
 DIIS: error= 3.03D-04 at cycle  43 NSaved=  20.
 NSaved=20 IEnMin=19 EnMin= -1709.47616703609     IErMin=13 ErrMin= 5.76D-05
 ErrMax= 3.03D-04  0.00D+00 EMaxC= 1.00D-01 BMatC= 3.41D-04 BMatP= 3.33D-06
 IDIUse=1 WtCom= 1.00D+00 WtEn= 0.00D+00
 Coeff-Com: -0.183D+00 0.607D-01 0.204D+00 0.103D+00-0.443D+00-0.152D+00
 Coeff-Com:  0.766D+00 0.341D+00-0.288D+01 0.537D+00 0.143D+01 0.204D+00
 Coeff-Com: -0.396D+00-0.372D+00 0.542D+00-0.246D+01 0.370D+01-0.121D+01
 Coeff-Com:  0.110D+01 0.115D+00
 Coeff:     -0.183D+00 0.607D-01 0.204D+00 0.103D+00-0.443D+00-0.152D+00
 Coeff:      0.766D+00 0.341D+00-0.288D+01 0.537D+00 0.143D+01 0.204D+00
 Coeff:     -0.396D+00-0.372D+00 0.542D+00-0.246D+01 0.370D+01-0.121D+01
 Coeff:      0.110D+01 0.115D+00
 Gap=     0.345 Goal=   None    Shift=    0.000
 Gap=     0.126 Goal=   None    Shift=    0.000
 RMSDP=7.44D-06 MaxDP=6.01D-04 DE= 7.18D-05 OVMax= 1.95D-03

 Cycle  44  Pass 1  IDiag  1:
 RMSU=  1.86D-06    CP:  1.00D+00  3.00D+00  9.37D-01
 E= -1709.47610061304     Delta-E=       -0.000005351906 Rises=F Damp=F
 DIIS: error= 3.00D-04 at cycle  44 NSaved=  20.
 NSaved=20 IEnMin=18 EnMin= -1709.47616703609     IErMin=12 ErrMin= 5.76D-05
 ErrMax= 3.00D-04  0.00D+00 EMaxC= 1.00D-01 BMatC= 3.23D-04 BMatP= 3.33D-06
 IDIUse=1 WtCom= 1.00D+00 WtEn= 0.00D+00
 Coeff-Com: -0.742D-01-0.423D-02 0.148D+00-0.160D+00-0.538D-01 0.426D+00
 Coeff-Com: -0.165D+00-0.206D+01 0.637D+00 0.115D+01 0.675D-01-0.402D+00
 Coeff-Com: -0.373D+00 0.712D+00-0.179D+01 0.305D+01-0.146D+01 0.123D+01
 Coeff-Com: -0.903D+00 0.104D+01
 Coeff:     -0.742D-01-0.423D-02 0.148D+00-0.160D+00-0.538D-01 0.426D+00
 Coeff:     -0.165D+00-0.206D+01 0.637D+00 0.115D+01 0.675D-01-0.402D+00
 Coeff:     -0.373D+00 0.712D+00-0.179D+01 0.305D+01-0.146D+01 0.123D+01
 Coeff:     -0.903D+00 0.104D+01
 Gap=     0.345 Goal=   None    Shift=    0.000
 Gap=     0.124 Goal=   None    Shift=    0.000
 RMSDP=2.56D-05 MaxDP=2.02D-03 DE=-5.35D-06 OVMax= 6.81D-03

 Cycle  45  Pass 1  IDiag  1:
 RMSU=  5.26D-06    CP:  1.00D+00  3.00D+00  7.22D-01  3.00D+00
 E= -1709.47613240064     Delta-E=       -0.000031787601 Rises=F Damp=F
 DIIS: error= 2.58D-04 at cycle  45 NSaved=  20.
 NSaved=20 IEnMin=17 EnMin= -1709.47616703609     IErMin=11 ErrMin= 5.76D-05
 ErrMax= 2.58D-04  0.00D+00 EMaxC= 1.00D-01 BMatC= 2.35D-04 BMatP= 3.33D-06
 IDIUse=1 WtCom= 1.00D+00 WtEn= 0.00D+00
 Coeff-Com: -0.287D-01-0.440D-01-0.985D-01 0.119D+00 0.231D+00-0.408D+00
 Coeff-Com: -0.116D+01 0.647D+00 0.507D+00-0.155D+00-0.513D-01-0.389D+00
 Coeff-Com:  0.726D+00-0.176D+01 0.242D+01-0.122D+01 0.142D+01-0.123D+01
 Coeff-Com:  0.509D+00 0.971D+00
 Coeff:     -0.287D-01-0.440D-01-0.985D-01 0.119D+00 0.231D+00-0.408D+00
 Coeff:     -0.116D+01 0.647D+00 0.507D+00-0.155D+00-0.513D-01-0.389D+00
 Coeff:      0.726D+00-0.176D+01 0.242D+01-0.122D+01 0.142D+01-0.123D+01
 Coeff:      0.509D+00 0.971D+00
 Gap=     0.345 Goal=   None    Shift=    0.000
 Gap=     0.122 Goal=   None    Shift=    0.000
 RMSDP=1.45D-05 MaxDP=1.67D-03 DE=-3.18D-05 OVMax= 5.12D-03

 Cycle  46  Pass 1  IDiag  1:
 RMSU=  1.21D-05    CP:  1.00D+00  3.00D+00  6.97D-01  1.13D+00  2.09D+00
 E= -1709.47615898866     Delta-E=       -0.000026588026 Rises=F Damp=F
 DIIS: error= 2.21D-04 at cycle  46 NSaved=  20.
 NSaved=20 IEnMin=16 EnMin= -1709.47616703609     IErMin=10 ErrMin= 5.76D-05
 ErrMax= 2.21D-04  0.00D+00 EMaxC= 1.00D-01 BMatC= 1.62D-04 BMatP= 3.33D-06
 IDIUse=1 WtCom= 1.00D+00 WtEn= 0.00D+00
 Coeff-Com: -0.111D+00-0.218D-01 0.181D+00 0.333D-01-0.708D+00-0.103D+01
 Coeff-Com:  0.104D+01 0.423D+00-0.214D+00 0.983D-01-0.342D+00 0.695D+00
 Coeff-Com: -0.998D+00 0.129D+01-0.997D+00 0.123D+01-0.488D+00-0.382D+00
 Coeff-Com:  0.323D-01 0.127D+01
 Coeff:     -0.111D+00-0.218D-01 0.181D+00 0.333D-01-0.708D+00-0.103D+01
 Coeff:      0.104D+01 0.423D+00-0.214D+00 0.983D-01-0.342D+00 0.695D+00
 Coeff:     -0.998D+00 0.129D+01-0.997D+00 0.123D+01-0.488D+00-0.382D+00
 Coeff:      0.323D-01 0.127D+01
 Gap=     0.346 Goal=   None    Shift=    0.000
 Gap=     0.121 Goal=   None    Shift=    0.000
 RMSDP=1.26D-05 MaxDP=1.81D-03 DE=-2.66D-05 OVMax= 4.03D-03

 Cycle  47  Pass 1  IDiag  1:
 RMSU=  2.91D-06    CP:  1.00D+00  3.00D+00  7.11D-01 -9.70D-01  3.00D+00
                    CP:  1.83D+00
 E= -1709.47617238400     Delta-E=       -0.000013395340 Rises=F Damp=F
 DIIS: error= 1.96D-04 at cycle  47 NSaved=  20.
 NSaved=20 IEnMin=20 EnMin= -1709.47617238400     IErMin= 9 ErrMin= 5.76D-05
 ErrMax= 1.96D-04  0.00D+00 EMaxC= 1.00D-01 BMatC= 1.32D-04 BMatP= 3.33D-06
 IDIUse=1 WtCom= 1.00D+00 WtEn= 0.00D+00
 Coeff-Com:  0.218D-01-0.161D-01-0.694D-01-0.655D+00-0.497D+00 0.765D+00
 Coeff-Com:  0.329D+00-0.316D+00 0.139D+00-0.271D+00 0.599D+00-0.307D+00
 Coeff-Com:  0.605D+00-0.625D+00 0.846D+00-0.331D+00-0.178D+00-0.500D+00
 Coeff-Com:  0.327D-01 0.143D+01
 Coeff:      0.218D-01-0.161D-01-0.694D-01-0.655D+00-0.497D+00 0.765D+00
 Coeff:      0.329D+00-0.316D+00 0.139D+00-0.271D+00 0.599D+00-0.307D+00
 Coeff:      0.605D+00-0.625D+00 0.846D+00-0.331D+00-0.178D+00-0.500D+00
 Coeff:      0.327D-01 0.143D+01
 Gap=     0.346 Goal=   None    Shift=    0.000
 Gap=     0.120 Goal=   None    Shift=    0.000
 RMSDP=1.64D-05 MaxDP=1.77D-03 DE=-1.34D-05 OVMax= 5.95D-03

 Cycle  48  Pass 1  IDiag  1:
 RMSU=  6.36D-06    CP:  1.00D+00  3.00D+00  6.72D-01 -3.00D+00  3.00D+00
                    CP:  2.92D+00  2.09D+00
 E= -1709.47619421406     Delta-E=       -0.000021830061 Rises=F Damp=F
 DIIS: error= 1.58D-04 at cycle  48 NSaved=  20.
 NSaved=20 IEnMin=20 EnMin= -1709.47619421406     IErMin= 8 ErrMin= 5.76D-05
 ErrMax= 1.58D-04  0.00D+00 EMaxC= 1.00D-01 BMatC= 7.58D-05 BMatP= 3.33D-06
 IDIUse=1 WtCom= 1.00D+00 WtEn= 0.00D+00
 Coeff-Com: -0.556D-01 0.808D-01-0.516D+00-0.358D+00 0.526D+00 0.348D+00
 Coeff-Com: -0.328D+00-0.148D-01-0.250D+00 0.644D+00 0.187D+00-0.371D-01
 Coeff-Com: -0.504D+00 0.782D+00-0.464D+00 0.196D+00-0.300D+00-0.845D+00
 Coeff-Com:  0.972D+00 0.936D+00
 Coeff:     -0.556D-01 0.808D-01-0.516D+00-0.358D+00 0.526D+00 0.348D+00
 Coeff:     -0.328D+00-0.148D-01-0.250D+00 0.644D+00 0.187D+00-0.371D-01
 Coeff:     -0.504D+00 0.782D+00-0.464D+00 0.196D+00-0.300D+00-0.845D+00
 Coeff:      0.972D+00 0.936D+00
 Gap=     0.346 Goal=   None    Shift=    0.000
 Gap=     0.118 Goal=   None    Shift=    0.000
 RMSDP=1.61D-05 MaxDP=1.34D-03 DE=-2.18D-05 OVMax= 6.80D-03

 Cycle  49  Pass 1  IDiag  1:
 RMSU=  8.55D-06    CP:  1.00D+00  3.00D+00  5.65D-01 -3.00D+00  3.00D+00
                    CP:  3.00D+00  2.44D+00  1.71D+00
 E= -1709.47621065498     Delta-E=       -0.000016440917 Rises=F Damp=F
 DIIS: error= 1.13D-04 at cycle  49 NSaved=  20.
 NSaved=20 IEnMin=20 EnMin= -1709.47621065498     IErMin= 7 ErrMin= 5.76D-05
 ErrMax= 1.13D-04  0.00D+00 EMaxC= 1.00D-01 BMatC= 3.55D-05 BMatP= 3.33D-06
 IDIUse=1 WtCom= 1.00D+00 WtEn= 0.00D+00
 Coeff-Com: -0.174D+00-0.217D+00-0.306D+00 0.396D+00 0.879D-01-0.135D+00
 Coeff-Com:  0.122D+00-0.174D+00 0.579D+00 0.657D+00-0.266D+00-0.108D+01
 Coeff-Com:  0.578D+00-0.206D+00-0.309D+00 0.934D-01 0.979D+00-0.306D+00
 Coeff-Com: -0.110D+01 0.179D+01
 Coeff:     -0.174D+00-0.217D+00-0.306D+00 0.396D+00 0.879D-01-0.135D+00
 Coeff:      0.122D+00-0.174D+00 0.579D+00 0.657D+00-0.266D+00-0.108D+01
 Coeff:      0.578D+00-0.206D+00-0.309D+00 0.934D-01 0.979D+00-0.306D+00
 Coeff:     -0.110D+01 0.179D+01
 Gap=     0.346 Goal=   None    Shift=    0.000
 Gap=     0.118 Goal=   None    Shift=    0.000
 RMSDP=7.01D-06 MaxDP=6.72D-04 DE=-1.64D-05 OVMax= 2.20D-03

 Cycle  50  Pass 1  IDiag  1:
 RMSU=  1.34D-06    CP:  1.00D+00  3.00D+00  6.22D-01 -3.00D+00  3.00D+00
                    CP:  3.00D+00  3.00D+00  1.89D+00  1.05D+00
 E= -1709.47620925290     Delta-E=        0.000001402082 Rises=F Damp=F
 DIIS: error= 1.16D-04 at cycle  50 NSaved=  20.
 NSaved=20 IEnMin=19 EnMin= -1709.47621065498     IErMin= 6 ErrMin= 5.76D-05
 ErrMax= 1.16D-04  0.00D+00 EMaxC= 1.00D-01 BMatC= 4.24D-05 BMatP= 3.33D-06
 IDIUse=1 WtCom= 1.00D+00 WtEn= 0.00D+00
 Coeff-Com:  0.354D-01-0.760D+00 0.348D+00 0.122D+00-0.206D-01 0.225D+00
 Coeff-Com: -0.142D+00 0.174D+00-0.252D+00 0.768D+00-0.790D+00 0.287D+00
 Coeff-Com:  0.330D+00-0.894D+00 0.283D+00 0.178D+01-0.900D+00-0.237D+01
 Coeff-Com:  0.155D+01 0.122D+01
 Coeff:      0.354D-01-0.760D+00 0.348D+00 0.122D+00-0.206D-01 0.225D+00
 Coeff:     -0.142D+00 0.174D+00-0.252D+00 0.768D+00-0.790D+00 0.287D+00
 Coeff:      0.330D+00-0.894D+00 0.283D+00 0.178D+01-0.900D+00-0.237D+01
 Coeff:      0.155D+01 0.122D+01
 Gap=     0.346 Goal=   None    Shift=    0.000
 Gap=     0.117 Goal=   None    Shift=    0.000
 RMSDP=4.04D-06 MaxDP=4.61D-04 DE= 1.40D-06 OVMax= 1.13D-03

 Cycle  51  Pass 1  IDiag  1:
 RMSU=  8.89D-07    CP:  1.00D+00  3.00D+00  6.14D-01 -3.00D+00  3.00D+00
                    CP:  3.00D+00  3.00D+00  2.22D+00  1.42D+00  1.37D+00
 E= -1709.47621387014     Delta-E=       -0.000004617243 Rises=F Damp=F
 DIIS: error= 1.04D-04 at cycle  51 NSaved=  20.
 NSaved=20 IEnMin=20 EnMin= -1709.47621387014     IErMin= 5 ErrMin= 5.76D-05
 ErrMax= 1.04D-04  0.00D+00 EMaxC= 1.00D-01 BMatC= 3.14D-05 BMatP= 3.33D-06
 IDIUse=1 WtCom= 1.00D+00 WtEn= 0.00D+00
 Coeff-Com: -0.779D+00 0.440D+00 0.124D+00-0.689D-01 0.202D+00-0.187D+00
[...]
    13  C    0.413622   0.000044
    14  F   -0.264501   0.000101
    15  O   -0.486711   0.002985
    16  C    1.003927  -0.000233
    17  F   -0.241799   0.000038
    18  F   -0.236694   0.000016
    19  F   -0.247379   0.000508
    20  C    0.811390  -0.000031
    21  F   -0.243417   0.000197
    22  F   -0.238722   0.000048
    23  F   -0.241960   0.000015
    24  C    0.886866  -0.044488
    25  O   -0.380667   0.186675
    26  H    0.207902   0.008917
    27  H    0.195278  -0.001037
    28  H    0.208994   0.005007
    29  H    0.206241   0.009395
    30  H    0.207574  -0.000431
    31  H    0.199738   0.005257
 Sum of Mulliken charges =   1.00000   1.00000
 Mulliken charges and spin densities with hydrogens summed into heavy atoms:
               1          2
     1  C    0.394312   0.014170
     2  N   -0.541678   0.124925
     3  C    0.918174  -0.125766
     4  O   -0.244035   0.638611
     5  N   -0.541468   0.125529
     6  C    0.396808   0.018056
     7  C    0.873645  -0.026414
     8  O   -0.444064   0.058381
     9  N   -0.613537   0.022407
    10  C    0.776176  -0.001884
    11  F   -0.248911   0.002095
    12  F   -0.259377   0.004015
    13  C    0.413622   0.000044
    14  F   -0.264501   0.000101
    15  O   -0.486711   0.002985
    16  C    1.003927  -0.000233
    17  F   -0.241799   0.000038
    18  F   -0.236694   0.000016
    19  F   -0.247379   0.000508
    20  C    0.811390  -0.000031
    21  F   -0.243417   0.000197
    22  F   -0.238722   0.000048
    23  F   -0.241960   0.000015
    24  C    0.886866  -0.044488
    25  O   -0.380667   0.186675
 Electronic spatial extent (au):  <R**2>=           7160.4482
 Charge=              1.0000 electrons
 Dipole moment (field-independent basis, Debye):
    X=             12.7187    Y=              0.7188    Z=              0.1410  Tot=             12.7398
 Quadrupole moment (field-independent basis, Debye-Ang):
   XX=            -98.8196   YY=           -124.3569   ZZ=           -124.2410
   XY=              4.5541   XZ=             -0.8431   YZ=             -5.2176
 Traceless Quadrupole moment (field-independent basis, Debye-Ang):
   XX=             16.9862   YY=             -8.5510   ZZ=             -8.4352
   XY=              4.5541   XZ=             -0.8431   YZ=             -5.2176
 Octapole moment (field-independent basis, Debye-Ang**2):
  XXX=            326.6546  YYY=             12.7929  ZZZ=             23.4055  XYY=            119.8517
  XXY=             27.6301  XXZ=             -3.9744  XZZ=            108.1478  YZZ=              5.5784
  YYZ=             11.6830  XYZ=            -27.2903
 Hexadecapole moment (field-independent basis, Debye-Ang**3):
 XXXX=          -4450.5634 YYYY=          -1372.2363 ZZZZ=          -1493.0051 XXXY=           -224.7576
 XXXZ=             46.7904 YYYX=           -274.4981 YYYZ=             72.1891 ZZZX=            118.7754
 ZZZY=             68.4772 XXYY=           -913.2424 XXZZ=           -965.2367 YYZZ=           -464.3820
 XXYZ=            -41.3283 YYXZ=             29.7974 ZZXY=            -97.7929
 N-N= 2.855579734607D+03 E-N=-9.715514763501D+03  KE= 1.696473820600D+03
                          Isotropic Fermi Contact Couplings
        Atom                 a.u.       MegaHertz       Gauss      10(-4) cm-1
     1  C(13)             -0.00391      -4.39462      -1.56811      -1.46589
     2  N(14)             -0.00873      -2.82057      -1.00645      -0.94084
     3  C(13)             -0.03701     -41.60546     -14.84586     -13.87809
     4  O(17)              0.07140     -43.28175     -15.44401     -14.43724
     5  N(14)              0.00746       2.40909       0.85962       0.80359
     6  C(13)             -0.00371      -4.16582      -1.48647      -1.38957
     7  C(13)             -0.00988     -11.10503      -3.96255      -3.70424
     8  O(17)              0.00612      -3.71250      -1.32471      -1.23836
     9  N(14)             -0.00866      -2.79863      -0.99862      -0.93352
    10  C(13)             -0.00049      -0.55080      -0.19654      -0.18373
    11  F(19)             -0.00086      -3.61368      -1.28945      -1.20539
    12  F(19)              0.00240      10.09289       3.60139       3.36663
    13  C(13)              0.00022       0.25176       0.08983       0.08398
    14  F(19)             -0.00007      -0.30453      -0.10866      -0.10158
    15  O(17)              0.00057      -0.34783      -0.12412      -0.11603
    16  C(13)             -0.00013      -0.14799      -0.05281      -0.04937
    17  F(19)             -0.00002      -0.09058      -0.03232      -0.03021
    18  F(19)              0.00002       0.08972       0.03201       0.02993
    19  F(19)              0.00007       0.29544       0.10542       0.09855
    20  C(13)             -0.00007      -0.08059      -0.02876      -0.02688
    21  F(19)              0.00016       0.68245       0.24352       0.22764
    22  F(19)              0.00005       0.21737       0.07756       0.07251
    23  F(19)              0.00002       0.06630       0.02366       0.02212
    24  C(13)             -0.01482     -16.65791      -5.94396      -5.55648
    25  O(17)              0.02169     -13.14647      -4.69099      -4.38519
    26  H(1)               0.00485      21.69856       7.74259       7.23786
    27  H(1)               0.00003       0.14219       0.05074       0.04743
    28  H(1)               0.00392      17.51434       6.24955       5.84215
    29  H(1)               0.00511      22.82633       8.14500       7.61404
    30  H(1)               0.00012       0.52328       0.18672       0.17455
    31  H(1)               0.00461      20.61484       7.35589       6.87637
 --------------------------------------------------------
       Center         ----  Spin Dipole Couplings  ----
                      3XX-RR        3YY-RR        3ZZ-RR
 --------------------------------------------------------
     1   Atom        0.004237     -0.008000      0.003763
     2   Atom       -0.073480      0.158236     -0.084756
     3   Atom        0.104588     -0.009452     -0.095137
     4   Atom       -1.051197     -1.120169      2.171365
     5   Atom       -0.071829      0.109848     -0.038019
     6   Atom        0.001963     -0.000695     -0.001268
     7   Atom        0.021593     -0.014043     -0.007550
     8   Atom        0.043901      0.113320     -0.157221
     9   Atom       -0.029048      0.080432     -0.051384
    10   Atom        0.001893     -0.000540     -0.001353
    11   Atom       -0.006865      0.015486     -0.008620
    12   Atom        0.027856     -0.009662     -0.018194
    13   Atom        0.001528     -0.000172     -0.001356
    14   Atom        0.000092     -0.001076      0.000984
    15   Atom        0.015962     -0.007582     -0.008380
    16   Atom        0.001160     -0.000598     -0.000562
    17   Atom        0.000870     -0.000416     -0.000454
    18   Atom        0.000488     -0.000534      0.000046
    19   Atom        0.004817     -0.001976     -0.002841
    20   Atom        0.000670     -0.000271     -0.000398
    21   Atom       -0.000330      0.000911     -0.000581
    22   Atom        0.000196      0.000102     -0.000297
    23   Atom        0.000631     -0.000210     -0.000421
    24   Atom        0.014849      0.013058     -0.027907
    25   Atom        0.571599     -0.242333     -0.329267
    26   Atom       -0.002412      0.006640     -0.004228
    27   Atom       -0.003561      0.000354      0.003207
    28   Atom       -0.001286     -0.000993      0.002279
    29   Atom       -0.001811     -0.003360      0.005172
    30   Atom        0.000516      0.002003     -0.002519
    31   Atom        0.000353      0.006341     -0.006695
 --------------------------------------------------------
                        XY            XZ            YZ
 --------------------------------------------------------
     1   Atom       -0.000403      0.016917     -0.005017
     2   Atom       -0.159546     -0.065950      0.140211
     3   Atom        0.005326      0.037788     -0.071261
     4   Atom        0.112656     -0.769425     -0.498704
     5   Atom        0.135289      0.085971      0.170427
     6   Atom       -0.005457     -0.014346      0.003536
     7   Atom        0.005072      0.001734     -0.017825
     8   Atom       -0.201975     -0.023281     -0.012596
     9   Atom        0.017205      0.010886      0.014711
    10   Atom        0.001049     -0.000069     -0.002146
    11   Atom       -0.005395      0.001946     -0.006961
    12   Atom        0.023780      0.004452      0.002584
    13   Atom        0.001517      0.000401     -0.000401
    14   Atom        0.000278      0.001111     -0.000058
    15   Atom        0.004318      0.001624      0.000289
    16   Atom       -0.000205     -0.000678      0.000038
    17   Atom       -0.000455     -0.000152     -0.000317
    18   Atom        0.000069     -0.000542     -0.000222
    19   Atom       -0.003346     -0.001913      0.000348
    20   Atom        0.000841      0.000706      0.000223
    21   Atom        0.001894      0.001424      0.001869
    22   Atom        0.000915      0.000921      0.000610
    23   Atom        0.000704      0.000319      0.000121
    24   Atom       -0.016601     -0.004311     -0.024733
    25   Atom        0.337948      0.210867      0.085988
    26   Atom       -0.000661      0.000853     -0.000136
    27   Atom        0.000077     -0.002725     -0.009003
    28   Atom       -0.001298     -0.000616     -0.006050
    29   Atom        0.002632     -0.001670     -0.002600
    30   Atom        0.002443     -0.001436     -0.002948
    31   Atom        0.001807     -0.001775     -0.006312
 --------------------------------------------------------


 ---------------------------------------------------------------------------------
              Anisotropic Spin Dipole Couplings in Principal Axis System
 ---------------------------------------------------------------------------------

       Atom             a.u.   MegaHertz   Gauss  10(-4) cm-1        Axes

              Baa    -0.0147    -1.966    -0.702    -0.656 -0.5849  0.4655  0.6642
     1 C(13)  Bbb    -0.0068    -0.908    -0.324    -0.303  0.4144  0.8755 -0.2487
              Bcc     0.0214     2.874     1.026     0.959  0.6972 -0.1298  0.7050
 
              Baa    -0.1569    -6.050    -2.159    -2.018  0.7430  0.5475 -0.3850
     2 N(14)  Bbb    -0.1448    -5.583    -1.992    -1.862  0.5228 -0.1156  0.8446
              Bcc     0.3016    11.633     4.151     3.880 -0.4179  0.8288  0.3721
 
              Baa    -0.1406   -18.868    -6.733    -6.294 -0.1440  0.4769  0.8671
     3 C(13)  Bbb     0.0285     3.828     1.366     1.277  0.1644  0.8755 -0.4543
              Bcc     0.1121    15.041     5.367     5.017  0.9758 -0.0771  0.2045
 
              Baa    -1.2255    88.675    31.641    29.579  0.9750  0.0093  0.2222
     4 O(17)  Bbb    -1.1940    86.398    30.829    28.819 -0.0407  0.9897  0.1373
              Bcc     2.4195  -175.073   -62.470   -58.398 -0.2186 -0.1430  0.9653
 
              Baa    -0.1504    -5.802    -2.070    -1.935  0.2371 -0.6154  0.7517
     5 N(14)  Bbb    -0.1418    -5.469    -1.952    -1.824  0.8840 -0.1843 -0.4297
              Bcc     0.2922    11.271     4.022     3.760  0.4029  0.7664  0.5003
 
              Baa    -0.0142    -1.902    -0.679    -0.634  0.6777  0.0827  0.7307
     6 C(13)  Bbb    -0.0029    -0.394    -0.141    -0.131  0.1973  0.9368 -0.2890
              Bcc     0.0171     2.296     0.819     0.766  0.7084 -0.3400 -0.6185
 
              Baa    -0.0294    -3.946    -1.408    -1.316 -0.0979  0.7674  0.6336
     7 C(13)  Bbb     0.0071     0.950     0.339     0.317  0.1251 -0.6221  0.7728
              Bcc     0.0223     2.996     1.069     0.999  0.9873  0.1549 -0.0351
 
              Baa    -0.1720    12.445     4.441     4.151  0.3840  0.3102  0.8697
     8 O(17)  Bbb    -0.1116     8.077     2.882     2.694  0.6607  0.5656 -0.4935
              Bcc     0.2836   -20.522    -7.323    -6.845 -0.6450  0.7641  0.0122
 
              Baa    -0.0562    -2.169    -0.774    -0.723 -0.3391 -0.0584  0.9389
     9 N(14)  Bbb    -0.0288    -1.110    -0.396    -0.370  0.9272 -0.1896  0.3231
              Bcc     0.0850     3.278     1.170     1.094  0.1592  0.9801  0.1184
 
              Baa    -0.0032    -0.430    -0.154    -0.144 -0.1237  0.6511  0.7489
    10 C(13)  Bbb     0.0007     0.092     0.033     0.031  0.5436 -0.5869  0.6001
              Bcc     0.0025     0.339     0.121     0.113  0.8302  0.4813 -0.2813
 
              Baa    -0.0106    -5.312    -1.896    -1.772 -0.1866  0.2173  0.9581
    11 F(19)  Bbb    -0.0081    -4.045    -1.443    -1.349  0.9578  0.2574  0.1281
              Bcc     0.0186     9.358     3.339     3.121 -0.2188  0.9416 -0.2561
 
              Baa    -0.0212   -10.671    -3.808    -3.559 -0.4206  0.8956 -0.1448
    12 F(19)  Bbb    -0.0186    -9.337    -3.332    -3.115 -0.1419  0.0927  0.9855
              Bcc     0.0398    20.008     7.140     6.674  0.8961  0.4351  0.0881
 
              Baa    -0.0018    -0.239    -0.085    -0.080 -0.3302  0.5097  0.7945
    13 C(13)  Bbb    -0.0006    -0.086    -0.031    -0.029 -0.3773  0.7002 -0.6061
              Bcc     0.0024     0.325     0.116     0.108  0.8652  0.4999  0.0389
 
              Baa    -0.0012    -0.606    -0.216    -0.202 -0.3769  0.9009  0.2151
    14 F(19)  Bbb    -0.0005    -0.268    -0.096    -0.089  0.7353  0.4323 -0.5219
              Bcc     0.0017     0.873     0.312     0.291  0.5632  0.0386  0.8254
 
              Baa    -0.0085     0.614     0.219     0.205 -0.0642 -0.0119  0.9979
    15 O(17)  Bbb    -0.0083     0.604     0.216     0.202 -0.1749  0.9846  0.0005
              Bcc     0.0168    -1.218    -0.435    -0.406  0.9825  0.1745  0.0653
 
              Baa    -0.0008    -0.108    -0.038    -0.036  0.3374  0.1657  0.9267
    16 C(13)  Bbb    -0.0006    -0.082    -0.029    -0.027  0.0406  0.9809 -0.1902
              Bcc     0.0014     0.190     0.068     0.063  0.9405 -0.1018 -0.3242
 
              Baa    -0.0009    -0.432    -0.154    -0.144  0.2459  0.7177  0.6515
    17 F(19)  Bbb    -0.0002    -0.079    -0.028    -0.026 -0.1676 -0.6305  0.7579
              Bcc     0.0010     0.511     0.182     0.170  0.9547 -0.2956 -0.0348
 
              Baa    -0.0006    -0.314    -0.112    -0.105  0.1472  0.8974  0.4158
    18 F(19)  Bbb    -0.0003    -0.126    -0.045    -0.042  0.5621 -0.4219  0.7114
              Bcc     0.0009     0.440     0.157     0.147  0.8139  0.1290 -0.5665
 
              Baa    -0.0037    -1.852    -0.661    -0.618  0.4019  0.6562  0.6387
    19 F(19)  Bbb    -0.0029    -1.449    -0.517    -0.483 -0.1024 -0.6609  0.7435
              Bcc     0.0066     3.301     1.178     1.101  0.9099 -0.3642 -0.1984
 
              Baa    -0.0009    -0.119    -0.042    -0.040 -0.5764  0.5846  0.5710
    20 C(13)  Bbb    -0.0006    -0.076    -0.027    -0.025  0.0411 -0.6771  0.7347
              Bcc     0.0014     0.194     0.069     0.065  0.8162  0.4469  0.3662
 
              Baa    -0.0019    -0.960    -0.342    -0.320 -0.4636 -0.2516  0.8496
    21 F(19)  Bbb    -0.0017    -0.849    -0.303    -0.283  0.7204 -0.6652  0.1961
              Bcc     0.0036     1.809     0.646     0.603  0.5158  0.7030  0.4897
 
              Baa    -0.0010    -0.510    -0.182    -0.170 -0.6668  0.1470  0.7306
    22 F(19)  Bbb    -0.0007    -0.329    -0.117    -0.110 -0.3475  0.8059 -0.4793
              Bcc     0.0017     0.839     0.299     0.280  0.6593  0.5735  0.4863
 
              Baa    -0.0006    -0.316    -0.113    -0.105 -0.5228  0.7776  0.3492
    23 F(19)  Bbb    -0.0005    -0.239    -0.085    -0.080 -0.0014 -0.4105  0.9119
              Bcc     0.0011     0.555     0.198     0.185  0.8524  0.4762  0.2157
 
              Baa    -0.0418    -5.604    -2.000    -1.869  0.1989  0.4524  0.8693
    24 C(13)  Bbb     0.0074     0.989     0.353     0.330  0.7822  0.4612 -0.4189
              Bcc     0.0344     4.615     1.647     1.540 -0.5905  0.7633 -0.2622
 
              Baa    -0.3822    27.656     9.868     9.225 -0.0197 -0.4886  0.8723
    25 O(17)  Bbb    -0.3598    26.032     9.289     8.683 -0.3927  0.8061  0.4427
              Bcc     0.7420   -53.688   -19.157   -17.908  0.9194  0.3338  0.2078
 
              Baa    -0.0046    -2.437    -0.869    -0.813 -0.3709 -0.0106  0.9286
    26 H(1)   Bbb    -0.0021    -1.134    -0.405    -0.378  0.9257  0.0756  0.3706
              Bcc     0.0067     3.571     1.274     1.191 -0.0741  0.9971 -0.0182
 
              Baa    -0.0080    -4.283    -1.528    -1.429  0.3748  0.6770  0.6334
    27 H(1)   Bbb    -0.0032    -1.695    -0.605    -0.565  0.9159 -0.3763 -0.1397
              Bcc     0.0112     5.978     2.133     1.994 -0.1438 -0.6325  0.7611
 
              Baa    -0.0060    -3.223    -1.150    -1.075  0.2838  0.7654  0.5776
    28 H(1)   Bbb    -0.0009    -0.470    -0.168    -0.157  0.9581 -0.2030 -0.2019
              Bcc     0.0069     3.693     1.318     1.232  0.0373 -0.6108  0.7909
 
              Baa    -0.0055    -2.912    -1.039    -0.971 -0.5454  0.8299  0.1174
    29 H(1)   Bbb    -0.0011    -0.597    -0.213    -0.199  0.7905  0.4627  0.4012
              Bcc     0.0066     3.509     1.252     1.170 -0.2786 -0.3116  0.9085
 
              Baa    -0.0040    -2.127    -0.759    -0.709  0.0601  0.4210  0.9051
    30 H(1)   Bbb    -0.0012    -0.634    -0.226    -0.211  0.8526 -0.4932  0.1728
              Bcc     0.0052     2.760     0.985     0.921  0.5191  0.7613 -0.3886
 
              Baa    -0.0093    -4.989    -1.780    -1.664  0.1023  0.3611  0.9269
    31 H(1)   Bbb    -0.0001    -0.080    -0.028    -0.027  0.9630 -0.2694 -0.0014
              Bcc     0.0095     5.068     1.809     1.691  0.2492  0.8928 -0.3753
 

 ---------------------------------------------------------------------------------

 No NMR shielding tensors so no spin-rotation constants.
 Leave Link  601 at Sun Mar  3 17:26:44 2024, MaxMem=  5368709120 cpu:         6.0
 (Enter /home/k0335/k033513/app/g09/l9999.exe)
 1\1\GINC-C24U17N2\SP\UCAM-B3LYP\6-31G(d,p)\C9H6F9N3O4(1+,2)\K033513\03
 -Mar-2024\0\\#p CAM-B3LYP/6-31G(d,p) SCRF=(PCM,Solvent=Generic,Read) N
 oSymm out=wfn\\Title A153226991_p1\\1,2\C,0,3.160082,2.025656,-1.34161
 1\N,0,2.227387,1.074898,-0.7597\C,0,2.731464,0.131002,0.106137\O,0,3.9
 32812,0.051732,0.365338\N,0,1.796963,-0.685412,0.704017\C,0,2.267479,-
 1.654194,1.680781\C,0,0.441386,-0.503966,0.561903\O,0,-0.356765,-1.094
 217,1.285241\N,0,0.022558,0.359048,-0.41011\C,0,-1.39779,0.626933,-0.6
 05233\F,0,-1.737164,1.69095,0.180663\F,0,-1.551904,1.084139,-1.892246\
 C,0,-2.499031,-0.470814,-0.445282\F,0,-3.685577,0.049601,-0.919469\O,0
 ,-2.829709,-0.978711,0.846102\C,0,-3.181292,0.019998,1.769425\F,0,-3.9
 96519,0.936992,1.222604\F,0,-3.823707,-0.560664,2.802016\F,0,-2.078431
 ,0.626504,2.242875\C,0,-2.129939,-1.61202,-1.394297\F,0,-0.945322,-2.1
 91744,-1.09109\F,0,-2.03163,-1.201087,-2.680237\F,0,-3.061328,-2.59787
 8,-1.372539\C,0,0.87734,1.33451,-0.878894\O,0,0.48266,2.402785,-1.3457
 89\H,0,3.327571,2.832412,-0.620784\H,0,4.116784,1.544096,-1.565285\H,0
 ,2.755854,2.450307,-2.265527\H,0,2.340519,-1.155128,2.652324\H,0,1.572
 171,-2.494901,1.76387\H,0,3.25308,-2.040827,1.404793\\Version=ES64L-G0
 9RevD.01\HF=-1709.4762317\S2=0.770596\S2-1=0.\S2A=0.75015\RMSD=4.681e-
 09\Dipole=6.4558872,0.3866018,0.148354\Quadrupole=12.6288419,-6.357493
 2,-6.2713487,3.3858351,-0.6268472,-3.8791683\PG=C01 [X(C9H6F9N3O4)]\\@

 Writing a WFN file to "A153226991/A153226991_p1.wfn"


 ERWIN WITH HIS PSI CAN DO
 CALCULATIONS QUITE A FEW.
 BUT ONE THING HAS NOT BEEN SEEN
 JUST WHAT DOES PSI REALLY MEAN.
 -- WALTER HUCKEL, TRANS. BY FELIX BLOCH
 Job cpu time:       0 days  0 hours 57 minutes 47.5 seconds.
 File lengths (MBytes):  RWF=    262 Int=      0 D2E=      0 Chk=      9 Scr=      1
 Normal termination of Gaussian 09 at Sun Mar  3 17:26:45 2024.
