 Entering Gaussian System, Link 0=g09
 Initial command:
 /home/k0335/k033513/app/g09/l1.exe "/home/k0335/k033513/app/g09/scratch/Gau-211716.inp" -scrdir="/home/k0335/k033513/app/g09/scratch/"
 Default is to use a total of  36 processors:
                               36 via shared-memory
                                1 via Linda
 Entering Link 1 = /home/k0335/k033513/app/g09/l1.exe PID=    211717.
  
 Copyright (c) 1988,1990,1992,1993,1995,1998,2003,2009,2013,
            Gaussian, Inc.  All Rights Reserved.
  
 This is part of the Gaussian(R) 09 program.  It is based on
 the Gaussian(R) 03 system (copyright 2003, Gaussian, Inc.),
 the Gaussian(R) 98 system (copyright 1998, Gaussian, Inc.),
 the Gaussian(R) 94 system (copyright 1995, Gaussian, Inc.),
 the Gaussian 92(TM) system (copyright 1992, Gaussian, Inc.),
 the Gaussian 90(TM) system (copyright 1990, Gaussian, Inc.),
 the Gaussian 88(TM) system (copyright 1988, Gaussian, Inc.),
 the Gaussian 86(TM) system (copyright 1986, Carnegie Mellon
 University), and the Gaussian 82(TM) system (copyright 1983,
 Carnegie Mellon University). Gaussian is a federally registered
 trademark of Gaussian, Inc.
  
 This software contains proprietary and confidential information,
 including trade secrets, belonging to Gaussian, Inc.
  
 This software is provided under written license and may be
 used, copied, transmitted, or stored only in accord with that
 written license.
  
 The following legend is applicable only to US Government
 contracts under FAR:
  
                    RESTRICTED RIGHTS LEGEND
  
 Use, reproduction and disclosure by the US Government is
 subject to restrictions as set forth in subparagraphs (a)
 and (c) of the Commercial Computer Software - Restricted
 Rights clause in FAR 52.227-19.
  
 Gaussian, Inc.
 340 Quinnipiac St., Bldg. 40, Wallingford CT 06492
  
  
 ---------------------------------------------------------------
 Warning -- This program may not be used in any manner that
 competes with the business of Gaussian, Inc. or will provide
 assistance to any competitor of Gaussian, Inc.  The licensee
 of this program is prohibited from giving any competitor of
 Gaussian, Inc. access to this program.  By using this program,
 the user acknowledges that Gaussian, Inc. is engaged in the
 business of creating and licensing software in the field of
 computational chemistry and represents and warrants to the
 licensee that it is not a competitor of Gaussian, Inc. and that
 it will not use this program in any manner prohibited above.
 ---------------------------------------------------------------
  

 Cite this work as:
 Gaussian 09, Revision D.01,
 M. J. Frisch, G. W. Trucks, H. B. Schlegel, G. E. Scuseria, 
 M. A. Robb, J. R. Cheeseman, G. Scalmani, V. Barone, B. Mennucci, 
 G. A. Petersson, H. Nakatsuji, M. Caricato, X. Li, H. P. Hratchian, 
 A. F. Izmaylov, J. Bloino, G. Zheng, J. L. Sonnenberg, M. Hada, 
 M. Ehara, K. Toyota, R. Fukuda, J. Hasegawa, M. Ishida, T. Nakajima, 
 Y. Honda, O. Kitao, H. Nakai, T. Vreven, J. A. Montgomery, Jr., 
 J. E. Peralta, F. Ogliaro, M. Bearpark, J. J. Heyd, E. Brothers, 
 K. N. Kudin, V. N. Staroverov, T. Keith, R. Kobayashi, J. Normand, 
 K. Raghavachari, A. Rendell, J. C. Burant, S. S. Iyengar, J. Tomasi, 
 M. Cossi, N. Rega, J. M. Millam, M. Klene, J. E. Knox, J. B. Cross, 
 V. Bakken, C. Adamo, J. Jaramillo, R. Gomperts, R. E. Stratmann, 
 O. Yazyev, A. J. Austin, R. Cammi, C. Pomelli, J. W. Ochterski, 
 R. L. Martin, K. Morokuma, V. G. Zakrzewski, G. A. Voth, 
 P. Salvador, J. J. Dannenberg, S. Dapprich, A. D. Daniels, 
 O. Farkas, J. B. Foresman, J. V. Ortiz, J. Cioslowski, 
 and D. J. Fox, Gaussian, Inc., Wallingford CT, 2013.
 
 ******************************************
 Gaussian 09:  ES64L-G09RevD.01 24-Apr-2013
                 5-Feb-2025 
 ******************************************
 %nprocshared=24
 Will use up to   24 processors via shared memory.
 %mem=40GB
 %rwf=cytopopt/EHOPA1/EHOPA1_neu.rwf
 %nosave
 %chk=cytopopt/EHOPA1/EHOPA1_neu.chk
 ----------------------------------------------------------------------
 #p CAM-B3LYP/6-31G(d,p) opt SCRF=(PCM,Solvent=Generic,Read) NoSymm out
 =wfn
 ----------------------------------------------------------------------
 1/14=-1,18=20,19=15,26=3,38=1,40=2/1,3;
 2/9=110,12=2,15=1,17=6,18=5,40=1/2;
 3/5=1,6=6,7=101,11=2,16=1,25=1,30=1,70=2203,71=1,72=-2,74=-40/1,2,3;
 4//1;
 5/5=2,38=5/2;
 6/7=2,8=2,9=2,10=2,28=1/1;
 7/30=1/1,2,3,16;
 1/14=-1,18=20,19=15,26=3/3(2);
 2/9=110,15=1/2;
 99/6=100/99;
 2/9=110,15=1/2;
 3/5=1,6=6,7=101,11=2,16=1,25=1,30=1,70=2205,71=1,72=-2,74=-40/1,2,3;
 4/5=5,16=3,69=1/1;
 5/5=2,38=5/2;
 7/30=1/1,2,3,16;
 1/14=-1,18=20,19=15,26=3/3(-5);
 2/9=110,15=1/2;
 6/7=2,8=2,9=2,10=2,19=2,28=1/1;
 99/6=100,9=1/99;
 Leave Link    1 at Wed Feb  5 01:20:36 2025, MaxMem=  5368709120 cpu:         0.9
 (Enter /home/k0335/k033513/app/g09/l101.exe)
 ----------------
 Title EHOPA1_neu
 ----------------
 Symbolic Z-matrix:
 Charge =  0 Multiplicity = 1
 C                    -6.00662   3.0286    1.89132 
 C                    -5.79561   1.54068   1.65189 
 C                    -4.3203    1.22054   1.41113 
 C                    -4.01654  -0.27842   1.28467 
 C                    -4.13006  -0.91913  -0.11966 
 C                    -5.55791  -1.03461  -0.68276 
 C                    -6.51341  -1.81404   0.20904 
 C                    -3.22616  -0.23616  -1.16807 
 O                    -1.89682  -0.03206  -0.69036 
 C                    -1.0469   -1.17142  -0.8032 
 C                    -0.40741  -1.26673  -2.18705 
 C                     0.28487   0.0228   -2.62646 
 N                     1.36023   0.42101  -1.7418 
 C                     2.61222  -0.17876  -1.77143 
 C                     3.58771   0.38884  -0.72477 
 F                     2.91238   0.67495   0.43181 
 F                     4.09264   1.58138  -1.15312 
 C                     4.73035  -0.5791   -0.40808 
 F                     4.18143  -1.80665  -0.13863 
 O                     5.61806  -0.8136   -1.51943 
 C                     6.88489  -1.1261   -0.94693 
 F                     7.72612  -0.13046  -1.30187 
 F                     7.36207  -2.26262  -1.48875 
 C                     6.71454  -1.19615   0.55995 
 F                     6.29635  -2.44278   0.92222 
 F                     7.82861  -0.96157   1.27122 
 C                     5.60205  -0.21073   0.79555 
 C                     6.05252   1.23999   0.8282 
 F                     4.96281   2.02943   1.06775 
 C                     7.1183    1.49285   1.89516 
 O                     6.65409   1.44334   3.16151 
 O                     8.30218   1.71785   1.69291 
 F                     6.49346   1.6171   -0.40106 
 F                     4.96043  -0.49665   1.96566 
 O                     2.90371  -1.03622  -2.60105 
 H                    -5.44585   3.36919   2.76756 
 H                    -5.68175   3.61444   1.02556 
 H                    -7.06664   3.23807   2.06493 
 H                    -6.40396   1.24028   0.79635 
 H                    -6.16035   0.98465   2.52295 
 H                    -3.94933   1.77624   0.54434 
 H                    -3.7538    1.59634   2.27398 
 H                    -4.62128  -0.84166   2.00496 
 H                    -2.98034  -0.42314   1.62039 
 H                    -3.75939  -1.94604   0.00446 
 H                    -5.97192  -0.04358  -0.8948 
 H                    -5.51081  -1.55204  -1.65016 
 H                    -6.71276  -1.29084   1.14791 
 H                    -7.4726   -1.95169  -0.30129 
 H                    -6.11108  -2.80483   0.4434 
 H                    -3.21341  -0.80914  -2.1023 
 H                    -3.6271    0.75131  -1.41984 
 H                    -1.58511  -2.0942   -0.5631 
 H                    -0.26323  -1.05875  -0.04634 
 H                     0.3045   -2.10021  -2.19043 
 H                    -1.17808  -1.50299  -2.92957 
 H                     0.69952  -0.11477  -3.63133 
 H                    -0.42461   0.85528  -2.6728 
 H                     1.13429   1.04244  -0.96922 
 H                     7.43083   1.64024   3.72965 
 
 NAtoms=     60 NQM=       60 NQMF=       0 NMMI=      0 NMMIF=      0
                NMic=       0 NMicF=      0.
                    Isotopes and Nuclear Properties:
 (Nuclear quadrupole moments (NQMom) in fm**2, nuclear magnetic moments (NMagM)
  in nuclear magnetons)

  Atom         1           2           3           4           5           6           7           8           9          10
 IAtWgt=          12          12          12          12          12          12          12          12          16          12
 AtmWgt=  12.0000000  12.0000000  12.0000000  12.0000000  12.0000000  12.0000000  12.0000000  12.0000000  15.9949146  12.0000000
 NucSpn=           0           0           0           0           0           0           0           0           0           0
 AtZEff=   0.0000000   0.0000000   0.0000000   0.0000000   0.0000000   0.0000000   0.0000000   0.0000000   0.0000000   0.0000000
 NQMom=    0.0000000   0.0000000   0.0000000   0.0000000   0.0000000   0.0000000   0.0000000   0.0000000   0.0000000   0.0000000
 NMagM=    0.0000000   0.0000000   0.0000000   0.0000000   0.0000000   0.0000000   0.0000000   0.0000000   0.0000000   0.0000000
 AtZNuc=   6.0000000   6.0000000   6.0000000   6.0000000   6.0000000   6.0000000   6.0000000   6.0000000   8.0000000   6.0000000

  Atom        11          12          13          14          15          16          17          18          19          20
 IAtWgt=          12          12          14          12          12          19          19          12          19          16
 AtmWgt=  12.0000000  12.0000000  14.0030740  12.0000000  12.0000000  18.9984033  18.9984033  12.0000000  18.9984033  15.9949146
 NucSpn=           0           0           2           0           0           1           1           0           1           0
 AtZEff=   0.0000000   0.0000000   0.0000000   0.0000000   0.0000000   0.0000000   0.0000000   0.0000000   0.0000000   0.0000000
 NQMom=    0.0000000   0.0000000   2.0440000   0.0000000   0.0000000   0.0000000   0.0000000   0.0000000   0.0000000   0.0000000
 NMagM=    0.0000000   0.0000000   0.4037610   0.0000000   0.0000000   2.6288670   2.6288670   0.0000000   2.6288670   0.0000000
 AtZNuc=   6.0000000   6.0000000   7.0000000   6.0000000   6.0000000   9.0000000   9.0000000   6.0000000   9.0000000   8.0000000

  Atom        21          22          23          24          25          26          27          28          29          30
 IAtWgt=          12          19          19          12          19          19          12          12          19          12
 AtmWgt=  12.0000000  18.9984033  18.9984033  12.0000000  18.9984033  18.9984033  12.0000000  12.0000000  18.9984033  12.0000000
 NucSpn=           0           1           1           0           1           1           0           0           1           0
 AtZEff=   0.0000000   0.0000000   0.0000000   0.0000000   0.0000000   0.0000000   0.0000000   0.0000000   0.0000000   0.0000000
 NQMom=    0.0000000   0.0000000   0.0000000   0.0000000   0.0000000   0.0000000   0.0000000   0.0000000   0.0000000   0.0000000
 NMagM=    0.0000000   2.6288670   2.6288670   0.0000000   2.6288670   2.6288670   0.0000000   0.0000000   2.6288670   0.0000000
 AtZNuc=   6.0000000   9.0000000   9.0000000   6.0000000   9.0000000   9.0000000   6.0000000   6.0000000   9.0000000   6.0000000

  Atom        31          32          33          34          35          36          37          38          39          40
 IAtWgt=          16          16          19          19          16           1           1           1           1           1
 AtmWgt=  15.9949146  15.9949146  18.9984033  18.9984033  15.9949146   1.0078250   1.0078250   1.0078250   1.0078250   1.0078250
 NucSpn=           0           0           1           1           0           1           1           1           1           1
 AtZEff=   0.0000000   0.0000000   0.0000000   0.0000000   0.0000000   0.0000000   0.0000000   0.0000000   0.0000000   0.0000000
 NQMom=    0.0000000   0.0000000   0.0000000   0.0000000   0.0000000   0.0000000   0.0000000   0.0000000   0.0000000   0.0000000
 NMagM=    0.0000000   0.0000000   2.6288670   2.6288670   0.0000000   2.7928460   2.7928460   2.7928460   2.7928460   2.7928460
 AtZNuc=   8.0000000   8.0000000   9.0000000   9.0000000   8.0000000   1.0000000   1.0000000   1.0000000   1.0000000   1.0000000

  Atom        41          42          43          44          45          46          47          48          49          50
 IAtWgt=           1           1           1           1           1           1           1           1           1           1
 AtmWgt=   1.0078250   1.0078250   1.0078250   1.0078250   1.0078250   1.0078250   1.0078250   1.0078250   1.0078250   1.0078250
 NucSpn=           1           1           1           1           1           1           1           1           1           1
 AtZEff=   0.0000000   0.0000000   0.0000000   0.0000000   0.0000000   0.0000000   0.0000000   0.0000000   0.0000000   0.0000000
 NQMom=    0.0000000   0.0000000   0.0000000   0.0000000   0.0000000   0.0000000   0.0000000   0.0000000   0.0000000   0.0000000
 NMagM=    2.7928460   2.7928460   2.7928460   2.7928460   2.7928460   2.7928460   2.7928460   2.7928460   2.7928460   2.7928460
 AtZNuc=   1.0000000   1.0000000   1.0000000   1.0000000   1.0000000   1.0000000   1.0000000   1.0000000   1.0000000   1.0000000

  Atom        51          52          53          54          55          56          57          58          59          60
 IAtWgt=           1           1           1           1           1           1           1           1           1           1
 AtmWgt=   1.0078250   1.0078250   1.0078250   1.0078250   1.0078250   1.0078250   1.0078250   1.0078250   1.0078250   1.0078250
 NucSpn=           1           1           1           1           1           1           1           1           1           1
 AtZEff=   0.0000000   0.0000000   0.0000000   0.0000000   0.0000000   0.0000000   0.0000000   0.0000000   0.0000000   0.0000000
 NQMom=    0.0000000   0.0000000   0.0000000   0.0000000   0.0000000   0.0000000   0.0000000   0.0000000   0.0000000   0.0000000
 NMagM=    2.7928460   2.7928460   2.7928460   2.7928460   2.7928460   2.7928460   2.7928460   2.7928460   2.7928460   2.7928460
 AtZNuc=   1.0000000   1.0000000   1.0000000   1.0000000   1.0000000   1.0000000   1.0000000   1.0000000   1.0000000   1.0000000
 Leave Link  101 at Wed Feb  5 01:20:37 2025, MaxMem=  5368709120 cpu:         3.1
 (Enter /home/k0335/k033513/app/g09/l103.exe)

 GradGradGradGradGradGradGradGradGradGradGradGradGradGradGradGradGradGrad
 Berny optimization.
 Initialization pass.
                           ----------------------------
                           !    Initial Parameters    !
                           ! (Angstroms and Degrees)  !
 --------------------------                            --------------------------
 ! Name  Definition              Value          Derivative Info.                !
 --------------------------------------------------------------------------------
 ! R1    R(1,2)                  1.5218         estimate D2E/DX2                !
 ! R2    R(1,36)                 1.0947         estimate D2E/DX2                !
 ! R3    R(1,37)                 1.0947         estimate D2E/DX2                !
 ! R4    R(1,38)                 1.0944         estimate D2E/DX2                !
 ! R5    R(2,3)                  1.5287         estimate D2E/DX2                !
 ! R6    R(2,39)                 1.0919         estimate D2E/DX2                !
 ! R7    R(2,40)                 1.0959         estimate D2E/DX2                !
 ! R8    R(3,4)                  1.5346         estimate D2E/DX2                !
 ! R9    R(3,41)                 1.0944         estimate D2E/DX2                !
 ! R10   R(3,42)                 1.0985         estimate D2E/DX2                !
 ! R11   R(4,5)                  1.5477         estimate D2E/DX2                !
 ! R12   R(4,43)                 1.0963         estimate D2E/DX2                !
 ! R13   R(4,44)                 1.0988         estimate D2E/DX2                !
 ! R14   R(5,6)                  1.5392         estimate D2E/DX2                !
 ! R15   R(5,8)                  1.5436         estimate D2E/DX2                !
 ! R16   R(5,45)                 1.0988         estimate D2E/DX2                !
 ! R17   R(6,7)                  1.5218         estimate D2E/DX2                !
 ! R18   R(6,46)                 1.0948         estimate D2E/DX2                !
 ! R19   R(6,47)                 1.0981         estimate D2E/DX2                !
 ! R20   R(7,48)                 1.0931         estimate D2E/DX2                !
 ! R21   R(7,49)                 1.0952         estimate D2E/DX2                !
 ! R22   R(7,50)                 1.0947         estimate D2E/DX2                !
 ! R23   R(8,9)                  1.4272         estimate D2E/DX2                !
 ! R24   R(8,51)                 1.096          estimate D2E/DX2                !
 ! R25   R(8,52)                 1.0951         estimate D2E/DX2                !
 ! R26   R(9,10)                 1.4259         estimate D2E/DX2                !
 ! R27   R(10,11)                1.5274         estimate D2E/DX2                !
 ! R28   R(10,53)                1.0949         estimate D2E/DX2                !
 ! R29   R(10,54)                1.0953         estimate D2E/DX2                !
 ! R30   R(11,12)                1.5281         estimate D2E/DX2                !
 ! R31   R(11,55)                1.0961         estimate D2E/DX2                !
 ! R32   R(11,56)                1.0959         estimate D2E/DX2                !
 ! R33   R(12,13)                1.4483         estimate D2E/DX2                !
 ! R34   R(12,57)                1.0957         estimate D2E/DX2                !
 ! R35   R(12,58)                1.0948         estimate D2E/DX2                !
 ! R36   R(13,14)                1.3886         estimate D2E/DX2                !
 ! R37   R(13,59)                1.0169         estimate D2E/DX2                !
 ! R38   R(14,15)                1.5392         estimate D2E/DX2                !
 ! R39   R(14,35)                1.2282         estimate D2E/DX2                !
 ! R40   R(15,16)                1.3695         estimate D2E/DX2                !
 ! R41   R(15,17)                1.364          estimate D2E/DX2                !
 ! R42   R(15,18)                1.5306         estimate D2E/DX2                !
 ! R43   R(18,19)                1.3714         estimate D2E/DX2                !
 ! R44   R(18,20)                1.4416         estimate D2E/DX2                !
 ! R45   R(18,27)                1.5311         estimate D2E/DX2                !
 ! R46   R(20,21)                1.4249         estimate D2E/DX2                !
 ! R47   R(21,22)                1.3509         estimate D2E/DX2                !
 ! R48   R(21,23)                1.3465         estimate D2E/DX2                !
 ! R49   R(21,24)                1.5181         estimate D2E/DX2                !
 ! R50   R(24,25)                1.3639         estimate D2E/DX2                !
 ! R51   R(24,26)                1.3424         estimate D2E/DX2                !
 ! R52   R(24,27)                1.5047         estimate D2E/DX2                !
 ! R53   R(27,28)                1.5194         estimate D2E/DX2                !
 ! R54   R(27,34)                1.3648         estimate D2E/DX2                !
 ! R55   R(28,29)                1.3668         estimate D2E/DX2                !
 ! R56   R(28,30)                1.5291         estimate D2E/DX2                !
 ! R57   R(28,33)                1.3593         estimate D2E/DX2                !
 ! R58   R(30,31)                1.3497         estimate D2E/DX2                !
 ! R59   R(30,32)                1.2219         estimate D2E/DX2                !
 ! R60   R(31,60)                0.9823         estimate D2E/DX2                !
 ! A1    A(2,1,36)             111.0462         estimate D2E/DX2                !
 ! A2    A(2,1,37)             110.9581         estimate D2E/DX2                !
 ! A3    A(2,1,38)             110.2686         estimate D2E/DX2                !
 ! A4    A(36,1,37)            108.333          estimate D2E/DX2                !
 ! A5    A(36,1,38)            108.0389         estimate D2E/DX2                !
 ! A6    A(37,1,38)            108.0891         estimate D2E/DX2                !
 ! A7    A(1,2,3)              111.307          estimate D2E/DX2                !
 ! A8    A(1,2,39)             108.3616         estimate D2E/DX2                !
 ! A9    A(1,2,40)             108.959          estimate D2E/DX2                !
 ! A10   A(3,2,39)             110.8948         estimate D2E/DX2                !
 ! A11   A(3,2,40)             109.885          estimate D2E/DX2                !
 ! A12   A(39,2,40)            107.323          estimate D2E/DX2                !
 ! A13   A(2,3,4)              114.1138         estimate D2E/DX2                !
 ! A14   A(2,3,41)             110.2138         estimate D2E/DX2                !
 ! A15   A(2,3,42)             107.5978         estimate D2E/DX2                !
 ! A16   A(4,3,41)             111.3211         estimate D2E/DX2                !
 ! A17   A(4,3,42)             107.2657         estimate D2E/DX2                !
 ! A18   A(41,3,42)            105.8789         estimate D2E/DX2                !
 ! A19   A(3,4,5)              117.6832         estimate D2E/DX2                !
 ! A20   A(3,4,43)             109.7855         estimate D2E/DX2                !
 ! A21   A(3,4,44)             106.8654         estimate D2E/DX2                !
 ! A22   A(5,4,43)             110.0608         estimate D2E/DX2                !
 ! A23   A(5,4,44)             106.9704         estimate D2E/DX2                !
 ! A24   A(43,4,44)            104.5836         estimate D2E/DX2                !
 ! A25   A(4,5,6)              115.5333         estimate D2E/DX2                !
 ! A26   A(4,5,8)              112.9639         estimate D2E/DX2                !
 ! A27   A(4,5,45)             105.049          estimate D2E/DX2                !
 ! A28   A(6,5,8)              109.1438         estimate D2E/DX2                !
 ! A29   A(6,5,45)             106.5078         estimate D2E/DX2                !
 ! A30   A(8,5,45)             107.0189         estimate D2E/DX2                !
 ! A31   A(5,6,7)              113.9851         estimate D2E/DX2                !
 ! A32   A(5,6,46)             110.7171         estimate D2E/DX2                !
 ! A33   A(5,6,47)             108.5334         estimate D2E/DX2                !
 ! A34   A(7,6,46)             109.8593         estimate D2E/DX2                !
 ! A35   A(7,6,47)             107.5693         estimate D2E/DX2                !
 ! A36   A(46,6,47)            105.7918         estimate D2E/DX2                !
 ! A37   A(6,7,48)             111.8807         estimate D2E/DX2                !
 ! A38   A(6,7,49)             109.9512         estimate D2E/DX2                !
 ! A39   A(6,7,50)             110.9927         estimate D2E/DX2                !
 ! A40   A(48,7,49)            107.4969         estimate D2E/DX2                !
 ! A41   A(48,7,50)            108.441          estimate D2E/DX2                !
 ! A42   A(49,7,50)            107.932          estimate D2E/DX2                !
 ! A43   A(5,8,9)              112.4182         estimate D2E/DX2                !
 ! A44   A(5,8,51)             110.7598         estimate D2E/DX2                !
 ! A45   A(5,8,52)             109.9213         estimate D2E/DX2                !
 ! A46   A(9,8,51)             110.4394         estimate D2E/DX2                !
 ! A47   A(9,8,52)             106.799          estimate D2E/DX2                !
 ! A48   A(51,8,52)            106.2417         estimate D2E/DX2                !
 ! A49   A(8,9,10)             114.4828         estimate D2E/DX2                !
 ! A50   A(9,10,11)            111.7834         estimate D2E/DX2                !
 ! A51   A(9,10,53)            111.2894         estimate D2E/DX2                !
 ! A52   A(9,10,54)            106.8339         estimate D2E/DX2                !
 ! A53   A(11,10,53)           110.6024         estimate D2E/DX2                !
 ! A54   A(11,10,54)           109.4456         estimate D2E/DX2                !
 ! A55   A(53,10,54)           106.6702         estimate D2E/DX2                !
 ! A56   A(10,11,12)           113.4237         estimate D2E/DX2                !
 ! A57   A(10,11,55)           108.7933         estimate D2E/DX2                !
 ! A58   A(10,11,56)           109.4429         estimate D2E/DX2                !
 ! A59   A(12,11,55)           110.2757         estimate D2E/DX2                !
 ! A60   A(12,11,56)           107.7977         estimate D2E/DX2                !
 ! A61   A(55,11,56)           106.9003         estimate D2E/DX2                !
 ! A62   A(11,12,13)           113.1251         estimate D2E/DX2                !
 ! A63   A(11,12,57)           109.2202         estimate D2E/DX2                !
 ! A64   A(11,12,58)           111.1164         estimate D2E/DX2                !
 ! A65   A(13,12,57)           108.2833         estimate D2E/DX2                !
 ! A66   A(13,12,58)           107.335          estimate D2E/DX2                !
 ! A67   A(57,12,58)           107.5711         estimate D2E/DX2                !
 ! A68   A(12,13,14)           122.5256         estimate D2E/DX2                !
 ! A69   A(12,13,59)           117.8474         estimate D2E/DX2                !
 ! A70   A(14,13,59)           118.7176         estimate D2E/DX2                !
 ! A71   A(13,14,15)           113.4306         estimate D2E/DX2                !
 ! A72   A(13,14,35)           122.0027         estimate D2E/DX2                !
 ! A73   A(15,14,35)           124.4957         estimate D2E/DX2                !
 ! A74   A(14,15,16)           109.8027         estimate D2E/DX2                !
 ! A75   A(14,15,17)           110.0872         estimate D2E/DX2                !
 ! A76   A(14,15,18)           112.3711         estimate D2E/DX2                !
 ! A77   A(16,15,17)           105.3723         estimate D2E/DX2                !
 ! A78   A(16,15,18)           108.9958         estimate D2E/DX2                !
 ! A79   A(17,15,18)           109.9689         estimate D2E/DX2                !
 ! A80   A(15,18,19)           107.9321         estimate D2E/DX2                !
 ! A81   A(15,18,20)           113.7699         estimate D2E/DX2                !
 ! A82   A(15,18,27)           115.8178         estimate D2E/DX2                !
 ! A83   A(19,18,20)           104.6162         estimate D2E/DX2                !
 ! A84   A(19,18,27)           106.7848         estimate D2E/DX2                !
 ! A85   A(20,18,27)           107.1331         estimate D2E/DX2                !
 ! A86   A(18,20,21)           105.868          estimate D2E/DX2                !
 ! A87   A(20,21,22)           106.6451         estimate D2E/DX2                !
 ! A88   A(20,21,23)           109.7877         estimate D2E/DX2                !
 ! A89   A(20,21,24)           108.0091         estimate D2E/DX2                !
 ! A90   A(22,21,23)           107.1985         estimate D2E/DX2                !
 ! A91   A(22,21,24)           111.3879         estimate D2E/DX2                !
 ! A92   A(23,21,24)           113.5939         estimate D2E/DX2                !
 ! A93   A(21,24,25)           109.8908         estimate D2E/DX2                !
 ! A94   A(21,24,26)           115.1341         estimate D2E/DX2                !
 ! A95   A(21,24,27)           102.0147         estimate D2E/DX2                !
 ! A96   A(25,24,26)           105.8693         estimate D2E/DX2                !
 ! A97   A(25,24,27)           109.2874         estimate D2E/DX2                !
 ! A98   A(26,24,27)           114.5933         estimate D2E/DX2                !
 ! A99   A(18,27,24)            98.0636         estimate D2E/DX2                !
 ! A100  A(18,27,28)           114.5449         estimate D2E/DX2                !
 ! A101  A(18,27,34)           110.8506         estimate D2E/DX2                !
 ! A102  A(24,27,28)           114.1702         estimate D2E/DX2                !
 ! A103  A(24,27,34)           110.1588         estimate D2E/DX2                !
 ! A104  A(28,27,34)           108.7232         estimate D2E/DX2                !
 ! A105  A(27,28,29)           108.5945         estimate D2E/DX2                !
 ! A106  A(27,28,30)           112.3043         estimate D2E/DX2                !
 ! A107  A(27,28,33)           109.9762         estimate D2E/DX2                !
 ! A108  A(29,28,30)           109.7485         estimate D2E/DX2                !
 ! A109  A(29,28,33)           104.885          estimate D2E/DX2                !
 ! A110  A(30,28,33)           111.0411         estimate D2E/DX2                !
 ! A111  A(28,30,31)           114.1356         estimate D2E/DX2                !
 ! A112  A(28,30,32)           126.1744         estimate D2E/DX2                !
 ! A113  A(31,30,32)           119.6887         estimate D2E/DX2                !
 ! A114  A(30,31,60)           105.2693         estimate D2E/DX2                !
 ! D1    D(36,1,2,3)           -60.0836         estimate D2E/DX2                !
 ! D2    D(36,1,2,39)          177.7208         estimate D2E/DX2                !
 ! D3    D(36,1,2,40)           61.2496         estimate D2E/DX2                !
 ! D4    D(37,1,2,3)            60.4658         estimate D2E/DX2                !
 ! D5    D(37,1,2,39)          -61.7298         estimate D2E/DX2                !
 ! D6    D(37,1,2,40)         -178.201          estimate D2E/DX2                !
 ! D7    D(38,1,2,3)          -179.8059         estimate D2E/DX2                !
 ! D8    D(38,1,2,39)           57.9985         estimate D2E/DX2                !
 ! D9    D(38,1,2,40)          -58.4726         estimate D2E/DX2                !
 ! D10   D(1,2,3,4)            174.9015         estimate D2E/DX2                !
 ! D11   D(1,2,3,41)           -58.9903         estimate D2E/DX2                !
 ! D12   D(1,2,3,42)            56.0124         estimate D2E/DX2                !
 ! D13   D(39,2,3,4)           -64.3798         estimate D2E/DX2                !
 ! D14   D(39,2,3,41)           61.7284         estimate D2E/DX2                !
 ! D15   D(39,2,3,42)          176.7311         estimate D2E/DX2                !
 ! D16   D(40,2,3,4)            54.1103         estimate D2E/DX2                !
 ! D17   D(40,2,3,41)         -179.7815         estimate D2E/DX2                !
 ! D18   D(40,2,3,42)          -64.7788         estimate D2E/DX2                !
 ! D19   D(2,3,4,5)             87.802          estimate D2E/DX2                !
 ! D20   D(2,3,4,43)           -39.0958         estimate D2E/DX2                !
 ! D21   D(2,3,4,44)          -151.9679         estimate D2E/DX2                !
 ! D22   D(41,3,4,5)           -37.7244         estimate D2E/DX2                !
 ! D23   D(41,3,4,43)         -164.6222         estimate D2E/DX2                !
 ! D24   D(41,3,4,44)           82.5057         estimate D2E/DX2                !
 ! D25   D(42,3,4,5)          -153.1207         estimate D2E/DX2                !
 ! D26   D(42,3,4,43)           79.9815         estimate D2E/DX2                !
 ! D27   D(42,3,4,44)          -32.8906         estimate D2E/DX2                !
 ! D28   D(3,4,5,6)            -69.4531         estimate D2E/DX2                !
 ! D29   D(3,4,5,8)             57.2115         estimate D2E/DX2                !
 ! D30   D(3,4,5,45)           173.5129         estimate D2E/DX2                !
 ! D31   D(43,4,5,6)            57.3115         estimate D2E/DX2                !
 ! D32   D(43,4,5,8)          -176.0239         estimate D2E/DX2                !
 ! D33   D(43,4,5,45)          -59.7225         estimate D2E/DX2                !
 ! D34   D(44,4,5,6)           170.3717         estimate D2E/DX2                !
 ! D35   D(44,4,5,8)           -62.9637         estimate D2E/DX2                !
 ! D36   D(44,4,5,45)           53.3377         estimate D2E/DX2                !
 ! D37   D(4,5,6,7)            -57.0132         estimate D2E/DX2                !
 ! D38   D(4,5,6,46)            67.4442         estimate D2E/DX2                !
 ! D39   D(4,5,6,47)          -176.8556         estimate D2E/DX2                !
 ! D40   D(8,5,6,7)            174.4135         estimate D2E/DX2                !
 ! D41   D(8,5,6,46)           -61.1291         estimate D2E/DX2                !
 ! D42   D(8,5,6,47)            54.5711         estimate D2E/DX2                !
 ! D43   D(45,5,6,7)            59.1984         estimate D2E/DX2                !
 ! D44   D(45,5,6,46)         -176.3442         estimate D2E/DX2                !
 ! D45   D(45,5,6,47)          -60.644          estimate D2E/DX2                !
 ! D46   D(4,5,8,9)             47.0459         estimate D2E/DX2                !
 ! D47   D(4,5,8,51)           171.1276         estimate D2E/DX2                !
 ! D48   D(4,5,8,52)           -71.7737         estimate D2E/DX2                !
 ! D49   D(6,5,8,9)            177.0344         estimate D2E/DX2                !
 ! D50   D(6,5,8,51)           -58.8839         estimate D2E/DX2                !
 ! D51   D(6,5,8,52)            58.2148         estimate D2E/DX2                !
 ! D52   D(45,5,8,9)           -68.0799         estimate D2E/DX2                !
 ! D53   D(45,5,8,51)           56.0018         estimate D2E/DX2                !
 ! D54   D(45,5,8,52)          173.1005         estimate D2E/DX2                !
 ! D55   D(5,6,7,48)            66.9144         estimate D2E/DX2                !
 ! D56   D(5,6,7,49)          -173.7144         estimate D2E/DX2                !
 ! D57   D(5,6,7,50)           -54.3657         estimate D2E/DX2                !
 ! D58   D(46,6,7,48)          -58.0012         estimate D2E/DX2                !
 ! D59   D(46,6,7,49)           61.3699         estimate D2E/DX2                !
 ! D60   D(46,6,7,50)         -179.2813         estimate D2E/DX2                !
 ! D61   D(47,6,7,48)         -172.7016         estimate D2E/DX2                !
 ! D62   D(47,6,7,49)          -53.3304         estimate D2E/DX2                !
 ! D63   D(47,6,7,50)           66.0183         estimate D2E/DX2                !
 ! D64   D(5,8,9,10)            82.5696         estimate D2E/DX2                !
 ! D65   D(51,8,9,10)          -41.6895         estimate D2E/DX2                !
 ! D66   D(52,8,9,10)         -156.7958         estimate D2E/DX2                !
 ! D67   D(8,9,10,11)           84.8405         estimate D2E/DX2                !
 ! D68   D(8,9,10,53)          -39.3827         estimate D2E/DX2                !
 ! D69   D(8,9,10,54)         -155.4583         estimate D2E/DX2                !
 ! D70   D(9,10,11,12)          51.621          estimate D2E/DX2                !
 ! D71   D(9,10,11,55)         174.7383         estimate D2E/DX2                !
 ! D72   D(9,10,11,56)         -68.7889         estimate D2E/DX2                !
 ! D73   D(53,10,11,12)        176.228          estimate D2E/DX2                !
 ! D74   D(53,10,11,55)        -60.6546         estimate D2E/DX2                !
 ! D75   D(53,10,11,56)         55.8181         estimate D2E/DX2                !
 ! D76   D(54,10,11,12)        -66.5319         estimate D2E/DX2                !
 ! D77   D(54,10,11,55)         56.5855         estimate D2E/DX2                !
 ! D78   D(54,10,11,56)        173.0583         estimate D2E/DX2                !
 ! D79   D(10,11,12,13)         60.4776         estimate D2E/DX2                !
 ! D80   D(10,11,12,57)       -178.8488         estimate D2E/DX2                !
 ! D81   D(10,11,12,58)        -60.3355         estimate D2E/DX2                !
 ! D82   D(55,11,12,13)        -61.8208         estimate D2E/DX2                !
 ! D83   D(55,11,12,57)         58.8529         estimate D2E/DX2                !
 ! D84   D(55,11,12,58)        177.3662         estimate D2E/DX2                !
 ! D85   D(56,11,12,13)       -178.1853         estimate D2E/DX2                !
 ! D86   D(56,11,12,57)        -57.5117         estimate D2E/DX2                !
 ! D87   D(56,11,12,58)         61.0016         estimate D2E/DX2                !
 ! D88   D(11,12,13,14)         78.0118         estimate D2E/DX2                !
 ! D89   D(11,12,13,59)        -90.9235         estimate D2E/DX2                !
 ! D90   D(57,12,13,14)        -43.1924         estimate D2E/DX2                !
 ! D91   D(57,12,13,59)        147.8723         estimate D2E/DX2                !
 ! D92   D(58,12,13,14)       -159.0538         estimate D2E/DX2                !
 ! D93   D(58,12,13,59)         32.0109         estimate D2E/DX2                !
 ! D94   D(12,13,14,15)       -178.9459         estimate D2E/DX2                !
 ! D95   D(12,13,14,35)          3.9901         estimate D2E/DX2                !
 ! D96   D(59,13,14,15)        -10.1026         estimate D2E/DX2                !
 ! D97   D(59,13,14,35)        172.8335         estimate D2E/DX2                !
 ! D98   D(13,14,15,16)         37.2056         estimate D2E/DX2                !
 ! D99   D(13,14,15,17)        -78.3685         estimate D2E/DX2                !
 ! D100  D(13,14,15,18)        158.6931         estimate D2E/DX2                !
 ! D101  D(35,14,15,16)       -145.8156         estimate D2E/DX2                !
 ! D102  D(35,14,15,17)         98.6104         estimate D2E/DX2                !
 ! D103  D(35,14,15,18)        -24.328          estimate D2E/DX2                !
 ! D104  D(14,15,18,19)        -49.8485         estimate D2E/DX2                !
 ! D105  D(14,15,18,20)         65.7675         estimate D2E/DX2                !
 ! D106  D(14,15,18,27)       -169.4354         estimate D2E/DX2                !
 ! D107  D(16,15,18,19)         72.0988         estimate D2E/DX2                !
 ! D108  D(16,15,18,20)       -172.2852         estimate D2E/DX2                !
 ! D109  D(16,15,18,27)        -47.4881         estimate D2E/DX2                !
 ! D110  D(17,15,18,19)       -172.8534         estimate D2E/DX2                !
 ! D111  D(17,15,18,20)        -57.2374         estimate D2E/DX2                !
 ! D112  D(17,15,18,27)         67.5598         estimate D2E/DX2                !
 ! D113  D(15,18,20,21)        151.7341         estimate D2E/DX2                !
 ! D114  D(19,18,20,21)        -90.7151         estimate D2E/DX2                !
 ! D115  D(27,18,20,21)         22.4067         estimate D2E/DX2                !
 ! D116  D(15,18,27,24)       -168.2398         estimate D2E/DX2                !
 ! D117  D(15,18,27,28)        -46.9534         estimate D2E/DX2                !
 ! D118  D(15,18,27,34)         76.52           estimate D2E/DX2                !
 ! D119  D(19,18,27,24)         71.5497         estimate D2E/DX2                !
 ! D120  D(19,18,27,28)       -167.1639         estimate D2E/DX2                !
 ! D121  D(19,18,27,34)        -43.6905         estimate D2E/DX2                !
 ! D122  D(20,18,27,24)        -40.0917         estimate D2E/DX2                !
 ! D123  D(20,18,27,28)         81.1946         estimate D2E/DX2                !
 ! D124  D(20,18,27,34)       -155.332          estimate D2E/DX2                !
 ! D125  D(18,20,21,22)       -114.8854         estimate D2E/DX2                !
 ! D126  D(18,20,21,23)        129.2947         estimate D2E/DX2                !
 ! D127  D(18,20,21,24)          4.9448         estimate D2E/DX2                !
 ! D128  D(20,21,24,25)         85.4713         estimate D2E/DX2                !
 ! D129  D(20,21,24,26)       -155.1254         estimate D2E/DX2                !
 ! D130  D(20,21,24,27)        -30.386          estimate D2E/DX2                !
 ! D131  D(22,21,24,25)       -157.7337         estimate D2E/DX2                !
 ! D132  D(22,21,24,26)        -38.3304         estimate D2E/DX2                !
 ! D133  D(22,21,24,27)         86.409          estimate D2E/DX2                !
 ! D134  D(23,21,24,25)        -36.5637         estimate D2E/DX2                !
 ! D135  D(23,21,24,26)         82.8395         estimate D2E/DX2                !
 ! D136  D(23,21,24,27)       -152.421          estimate D2E/DX2                !
 ! D137  D(21,24,27,18)         40.6702         estimate D2E/DX2                !
 ! D138  D(21,24,27,28)        -80.8938         estimate D2E/DX2                !
 ! D139  D(21,24,27,34)        156.4526         estimate D2E/DX2                !
 ! D140  D(25,24,27,18)        -75.626          estimate D2E/DX2                !
 ! D141  D(25,24,27,28)        162.81           estimate D2E/DX2                !
 ! D142  D(25,24,27,34)         40.1565         estimate D2E/DX2                !
 ! D143  D(26,24,27,18)        165.7686         estimate D2E/DX2                !
 ! D144  D(26,24,27,28)         44.2045         estimate D2E/DX2                !
 ! D145  D(26,24,27,34)        -78.449          estimate D2E/DX2                !
 ! D146  D(18,27,28,29)         68.9527         estimate D2E/DX2                !
 ! D147  D(18,27,28,30)       -169.4906         estimate D2E/DX2                !
 ! D148  D(18,27,28,33)        -45.2943         estimate D2E/DX2                !
 ! D149  D(24,27,28,29)       -179.0863         estimate D2E/DX2                !
 ! D150  D(24,27,28,30)        -57.5296         estimate D2E/DX2                !
 ! D151  D(24,27,28,33)         66.6667         estimate D2E/DX2                !
 ! D152  D(34,27,28,29)        -55.6537         estimate D2E/DX2                !
 ! D153  D(34,27,28,30)         65.903          estimate D2E/DX2                !
 ! D154  D(34,27,28,33)       -169.9007         estimate D2E/DX2                !
 ! D155  D(27,28,30,31)        -71.2046         estimate D2E/DX2                !
 ! D156  D(27,28,30,32)        108.3803         estimate D2E/DX2                !
 ! D157  D(29,28,30,31)         49.6903         estimate D2E/DX2                !
 ! D158  D(29,28,30,32)       -130.7248         estimate D2E/DX2                !
 ! D159  D(33,28,30,31)        165.1919         estimate D2E/DX2                !
 ! D160  D(33,28,30,32)        -15.2232         estimate D2E/DX2                !
 ! D161  D(28,30,31,60)       -178.8184         estimate D2E/DX2                !
 ! D162  D(32,30,31,60)          1.5673         estimate D2E/DX2                !
 --------------------------------------------------------------------------------
 Trust Radius=3.00D-01 FncErr=1.00D-07 GrdErr=1.00D-06
 Number of steps in this run=    346 maximum allowed number of steps=    360.
 GradGradGradGradGradGradGradGradGradGradGradGradGradGradGradGradGradGrad

 Leave Link  103 at Wed Feb  5 01:20:37 2025, MaxMem=  5368709120 cpu:         0.2
 (Enter /home/k0335/k033513/app/g09/l202.exe)
 Symmetry turned off by external request.
 Stoichiometry    C19H25F10NO5
 Framework group  C1[X(C19H25F10NO5)]
 Deg. of freedom   174
 Full point group                 C1      NOp   1
                          Input orientation:                          
 ---------------------------------------------------------------------
 Center     Atomic      Atomic             Coordinates (Angstroms)
 Number     Number       Type             X           Y           Z
 ---------------------------------------------------------------------
      1          6           0       -6.006625    3.028604    1.891316
      2          6           0       -5.795606    1.540682    1.651894
      3          6           0       -4.320300    1.220536    1.411125
      4          6           0       -4.016535   -0.278421    1.284665
      5          6           0       -4.130064   -0.919128   -0.119660
      6          6           0       -5.557908   -1.034606   -0.682755
      7          6           0       -6.513411   -1.814043    0.209039
      8          6           0       -3.226160   -0.236160   -1.168065
      9          8           0       -1.896817   -0.032064   -0.690364
     10          6           0       -1.046902   -1.171420   -0.803195
     11          6           0       -0.407408   -1.266732   -2.187046
     12          6           0        0.284871    0.022795   -2.626464
     13          7           0        1.360228    0.421008   -1.741803
     14          6           0        2.612217   -0.178761   -1.771425
     15          6           0        3.587709    0.388835   -0.724769
     16          9           0        2.912378    0.674949    0.431814
     17          9           0        4.092636    1.581382   -1.153121
     18          6           0        4.730348   -0.579104   -0.408081
     19          9           0        4.181426   -1.806645   -0.138630
     20          8           0        5.618055   -0.813603   -1.519425
     21          6           0        6.884886   -1.126104   -0.946934
     22          9           0        7.726121   -0.130461   -1.301870
     23          9           0        7.362073   -2.262625   -1.488754
     24          6           0        6.714536   -1.196150    0.559952
     25          9           0        6.296353   -2.442776    0.922217
     26          9           0        7.828608   -0.961572    1.271218
     27          6           0        5.602046   -0.210727    0.795552
     28          6           0        6.052522    1.239992    0.828200
     29          9           0        4.962809    2.029433    1.067746
     30          6           0        7.118296    1.492853    1.895158
     31          8           0        6.654086    1.443341    3.161508
     32          8           0        8.302184    1.717852    1.692913
     33          9           0        6.493457    1.617103   -0.401060
     34          9           0        4.960429   -0.496650    1.965658
     35          8           0        2.903713   -1.036225   -2.601047
     36          1           0       -5.445846    3.369192    2.767556
     37          1           0       -5.681754    3.614435    1.025559
     38          1           0       -7.066637    3.238072    2.064930
     39          1           0       -6.403960    1.240276    0.796345
     40          1           0       -6.160352    0.984651    2.522951
     41          1           0       -3.949333    1.776237    0.544335
     42          1           0       -3.753802    1.596337    2.273976
     43          1           0       -4.621277   -0.841657    2.004961
     44          1           0       -2.980342   -0.423136    1.620390
     45          1           0       -3.759392   -1.946037    0.004456
     46          1           0       -5.971916   -0.043579   -0.894795
     47          1           0       -5.510808   -1.552036   -1.650162
     48          1           0       -6.712756   -1.290840    1.147912
     49          1           0       -7.472603   -1.951688   -0.301291
     50          1           0       -6.111079   -2.804825    0.443398
     51          1           0       -3.213406   -0.809137   -2.102297
     52          1           0       -3.627099    0.751306   -1.419837
     53          1           0       -1.585105   -2.094197   -0.563095
     54          1           0       -0.263230   -1.058754   -0.046339
     55          1           0        0.304499   -2.100208   -2.190425
     56          1           0       -1.178082   -1.502988   -2.929568
     57          1           0        0.699517   -0.114766   -3.631326
     58          1           0       -0.424611    0.855280   -2.672803
     59          1           0        1.134291    1.042438   -0.969222
     60          1           0        7.430831    1.640241    3.729650
 ---------------------------------------------------------------------
 Rotational constants (GHZ):      0.2342649      0.0411179      0.0384383
 Leave Link  202 at Wed Feb  5 01:20:37 2025, MaxMem=  5368709120 cpu:         0.1
 (Enter /home/k0335/k033513/app/g09/l301.exe)
 Standard basis: 6-31G(d,p) (6D, 7F)
 Ernie: Thresh=  0.10000D-02 Tol=  0.10000D-05 Strict=F.
   650 basis functions,  1155 primitive gaussians,   650 cartesian basis functions
   138 alpha electrons      138 beta electrons
       nuclear repulsion energy      4429.9602818823 Hartrees.
 IExCor=20419 DFT=T Ex+Corr=CAM-B3LYP ExCW=0 ScaHFX=  1.000000
 ScaDFX=  1.000000  1.000000  1.000000  0.810000 ScalE2=  1.000000  1.000000
 IRadAn=      0 IRanWt=     -1 IRanGd=            0 ICorTp=0 IEmpDi=  4
  HFx wShort=  0.000000 wLong=  0.330000 cFull=  0.190000 cShort=  0.000000 cLong=  0.460000
  DFx wShort=  0.000000 wLong=  0.330000 cFull=  0.190000 cShort=  0.000000 cLong=  0.460000
 NAtoms=   60 NActive=   60 NUniq=   60 SFac= 1.00D+00 NAtFMM=   60 NAOKFM=T Big=T
 Integral buffers will be    131072 words long.
 Raffenetti 2 integral format.
 Two-electron integral symmetry is turned off.
 Using the following non-standard input for PCM:
 eps=2.05
 --- end of non-standard input.
 ------------------------------------------------------------------------------
 Polarizable Continuum Model (PCM)
 =================================
 Model                : PCM (using non-symmetric T matrix).
 Atomic radii         : UFF (Universal Force Field).
 Polarization charges : Total charges.
 Charge compensation  : None.
 Solution method      : On-the-fly selection.
 Cavity type          : Scaled VdW (van der Waals Surface) (Alpha=1.100).
 Cavity algorithm     : GePol (No added spheres)
                        Default sphere list used, NSphG=   60.
                        Lebedev-Laikov grids with approx.  5.0 points / Ang**2.
                        Smoothing algorithm: Karplus/York (Gamma=1.0000).
                        Polarization charges: spherical gaussians, with
                                              point-specific exponents (IZeta= 3).
                        Self-potential: point-specific (ISelfS= 7).
                        Self-field    : sphere-specific E.n sum rule (ISelfD= 2).
 1st derivatives      : Analytical E(r).r(x)/FMM algorithm (CHGder, D1EAlg=3).
                        Cavity 1st derivative terms included.
 Solvent              : Generic,
                        Eps                           =   2.050000
                        Eps(infinity)                 =   0.000000
                        RSolv                         =   0.000000 Ang.
                        Molar volume                  =   0.000000 cm**3/mol
                        Thermal expansion coefficient =   0.000000 K**-1
                        Absolute temperature          = 298.150000 K
                        Numeral density               =   0.000000 Ang**-3
                        Hydrogen bond acidity         =   0.000000
                        Hydrogen bond basicity        =   0.000000
                        Surface tension at interface  =   0.000000 (cal/mol)*Ang**-2
                        Carbon aromaticity            =   0.000000
                        Electronegative halogenicity  =   0.000000
 ------------------------------------------------------------------------------
 GePol: Number of generator spheres                  =      60
 GePol: Total number of spheres                      =      60
 GePol: Number of exposed spheres                    =      58 ( 96.67%)
 GePol: Number of points                             =    4186
 GePol: Average weight of points                     =       0.13
 GePol: Minimum weight of points                     =   0.76D-11
 GePol: Maximum weight of points                     =    0.20577
 GePol: Number of points with low weight             =     260
 GePol: Fraction of low-weight points (<1% of avg)   =       6.21%
 GePol: Cavity surface area                          =    534.434 Ang**2
 GePol: Cavity volume                                =    607.141 Ang**3
 Leave Link  301 at Wed Feb  5 01:20:37 2025, MaxMem=  5368709120 cpu:         0.8
 (Enter /home/k0335/k033513/app/g09/l302.exe)
 NPDir=0 NMtPBC=     1 NCelOv=     1 NCel=       1 NClECP=     1 NCelD=      1
         NCelK=      1 NCelE2=     1 NClLst=     1 CellRange=     0.0.
 One-electron integrals computed using PRISM.
 NBasis=   650 RedAO= T EigKep=  8.63D-04  NBF=   650
 NBsUse=   650 1.00D-06 EigRej= -1.00D+00 NBFU=   650
 Precomputing XC quadrature grid using
 IXCGrd= 4 IRadAn=           0 IRanWt=          -1 IRanGd=           0 AccXCQ= 0.00D+00.
 Generated NRdTot=       0 NPtTot=           0 NUsed=           0 NTot=          32
 NSgBfM=   605   605   606   608   610 MxSgAt=    60 MxSgA2=    60.
 Leave Link  302 at Wed Feb  5 01:20:38 2025, MaxMem=  5368709120 cpu:        14.7
 (Enter /home/k0335/k033513/app/g09/l303.exe)
 DipDrv:  MaxL=1.
 Leave Link  303 at Wed Feb  5 01:20:38 2025, MaxMem=  5368709120 cpu:         1.1
 (Enter /home/k0335/k033513/app/g09/l401.exe)
 ExpMin= 1.61D-01 ExpMax= 7.00D+03 ExpMxC= 1.05D+03 IAcc=1 IRadAn=         1 AccDes= 0.00D+00
 Harris functional with IExCor=20419 and IRadAn=       1 diagonalized for initial guess.
 HarFok:  IExCor=20419 AccDes= 0.00D+00 IRadAn=         1 IDoV= 1 UseB2=F ITyADJ=14
 ICtDFT=  3500011 ScaDFX=  1.000000  1.000000  1.000000  1.000000
 FoFCou: FMM=F IPFlag=           0 FMFlag=      100000 FMFlg1=        2001
         NFxFlg=           0 DoJE=T BraDBF=F KetDBF=T FulRan=T
         wScrn=  0.000000 ICntrl=     500 IOpCl=  0 I1Cent=   200000004 NGrid=           0
         NMat0=    1 NMatS0=      1 NMatT0=    0 NMatD0=    1 NMtDS0=    0 NMtDT0=    0
 Symmetry not used in FoFCou.
 Harris En= -2096.16236045514    
 JPrj=0 DoOrth=F DoCkMO=F.
 Leave Link  401 at Wed Feb  5 01:20:39 2025, MaxMem=  5368709120 cpu:        16.6
 (Enter /home/k0335/k033513/app/g09/l502.exe)
 Closed shell SCF:
 Using DIIS extrapolation, IDIIS=  1040.
 Two-electron integral symmetry not used.
 IVT=     1305670 IEndB=     1305670 NGot=  5368709120 MDV=  5367843241
 LenX=  5367843241 LenY=  5367420091
 Requested convergence on RMS density matrix=1.00D-08 within 128 cycles.
 Requested convergence on MAX density matrix=1.00D-06.
 Requested convergence on             energy=1.00D-06.
 No special actions if energy rises.
 Fock matrices will be formed incrementally for  20 cycles.

 Cycle   1  Pass 1  IDiag  1:
 FoFJK:  IHMeth= 1 ICntrl=       0 DoSepK=T KAlg= 0 I1Cent=   0 FoldK=F
 IRaf=         1 NMat=   1 IRICut=       1 DoRegI=T DoRafI=F ISym2E= 0.
 FoFCou: FMM=T IPFlag=           0 FMFlag=      100000 FMFlg1=        2001
         NFxFlg=           0 DoJE=T BraDBF=F KetDBF=F FulRan=T
         wScrn=  0.000000 ICntrl=     500 IOpCl=  0 I1Cent=           0 NGrid=           0
         NMat0=    1 NMatS0=      1 NMatT0=    0 NMatD0=    1 NMtDS0=    0 NMtDT0=    0
 Symmetry not used in FoFCou.
 FMM levels:  10  Number of levels for PrismC:   9
 Inv3:  Mode=1 IEnd=    52567788.
 Iteration    1 A*A^-1 deviation from unit magnitude is 9.33D-15 for    300.
 Iteration    1 A*A^-1 deviation from orthogonality  is 4.36D-15 for   4000    679.
 Iteration    1 A^-1*A deviation from unit magnitude is 9.10D-15 for    327.
 Iteration    1 A^-1*A deviation from orthogonality  is 5.50D-15 for   4001   4000.
 E= -2166.92832400087    
 DIIS: error= 5.14D-02 at cycle   1 NSaved=   1.
 NSaved= 1 IEnMin= 1 EnMin= -2166.92832400087     IErMin= 1 ErrMin= 5.14D-02
 ErrMax= 5.14D-02  0.00D+00 EMaxC= 1.00D-01 BMatC= 1.76D+00 BMatP= 1.76D+00
 IDIUse=3 WtCom= 4.86D-01 WtEn= 5.14D-01
 Coeff-Com:  0.100D+01
 Coeff-En:   0.100D+01
 Coeff:      0.100D+01
 Gap=     0.484 Goal=   None    Shift=    0.000
 GapD=    0.484 DampG=2.000 DampE=0.500 DampFc=1.0000 IDamp=-1.
 RMSDP=2.39D-03 MaxDP=1.05D-01              OVMax= 1.33D-01

 Cycle   2  Pass 1  IDiag  1:
 RMSU=  2.39D-03    CP:  9.95D-01
 E= -2167.16723807487     Delta-E=       -0.238914073999 Rises=F Damp=F
 DIIS: error= 1.94D-02 at cycle   2 NSaved=   2.
 NSaved= 2 IEnMin= 2 EnMin= -2167.16723807487     IErMin= 2 ErrMin= 1.94D-02
 ErrMax= 1.94D-02  0.00D+00 EMaxC= 1.00D-01 BMatC= 6.63D-01 BMatP= 1.76D+00
 IDIUse=3 WtCom= 8.06D-01 WtEn= 1.94D-01
 Coeff-Com:  0.356D+00 0.644D+00
 Coeff-En:   0.357D+00 0.643D+00
 Coeff:      0.356D+00 0.644D+00
 Gap=     0.383 Goal=   None    Shift=    0.000
 RMSDP=1.18D-03 MaxDP=7.16D-02 DE=-2.39D-01 OVMax= 9.34D-02

 Cycle   3  Pass 1  IDiag  1:
 RMSU=  7.25D-04    CP:  1.00D+00  6.11D-01
 E= -2167.49885178234     Delta-E=       -0.331613707477 Rises=F Damp=F
 DIIS: error= 7.25D-03 at cycle   3 NSaved=   3.
 NSaved= 3 IEnMin= 3 EnMin= -2167.49885178234     IErMin= 3 ErrMin= 7.25D-03
 ErrMax= 7.25D-03  0.00D+00 EMaxC= 1.00D-01 BMatC= 1.25D-01 BMatP= 6.63D-01
 IDIUse=3 WtCom= 9.28D-01 WtEn= 7.25D-02
 Coeff-Com:  0.673D-01 0.316D+00 0.616D+00
 Coeff-En:   0.000D+00 0.124D+00 0.876D+00
 Coeff:      0.624D-01 0.303D+00 0.635D+00
 Gap=     0.337 Goal=   None    Shift=    0.000
 RMSDP=5.28D-04 MaxDP=4.56D-02 DE=-3.32D-01 OVMax= 6.91D-02

 Cycle   4  Pass 1  IDiag  1:
 RMSU=  2.81D-04    CP:  9.97D-01  7.09D-01  4.82D-01
 E= -2167.57344507825     Delta-E=       -0.074593295903 Rises=F Damp=F
 DIIS: error= 2.66D-03 at cycle   4 NSaved=   4.
 NSaved= 4 IEnMin= 4 EnMin= -2167.57344507825     IErMin= 4 ErrMin= 2.66D-03
 ErrMax= 2.66D-03  0.00D+00 EMaxC= 1.00D-01 BMatC= 1.24D-02 BMatP= 1.25D-01
 IDIUse=3 WtCom= 9.73D-01 WtEn= 2.66D-02
 Coeff-Com:  0.679D-02 0.102D+00 0.328D+00 0.564D+00
 Coeff-En:   0.000D+00 0.000D+00 0.322D-01 0.968D+00
 Coeff:      0.661D-02 0.992D-01 0.320D+00 0.574D+00
 Gap=     0.317 Goal=   None    Shift=    0.000
 RMSDP=1.59D-04 MaxDP=1.63D-02 DE=-7.46D-02 OVMax= 2.44D-02

 Cycle   5  Pass 1  IDiag  1:
 RMSU=  7.51D-05    CP:  9.97D-01  7.08D-01  6.12D-01  6.30D-01
 E= -2167.58203863853     Delta-E=       -0.008593560286 Rises=F Damp=F
 DIIS: error= 8.25D-04 at cycle   5 NSaved=   5.
 NSaved= 5 IEnMin= 5 EnMin= -2167.58203863853     IErMin= 5 ErrMin= 8.25D-04
 ErrMax= 8.25D-04  0.00D+00 EMaxC= 1.00D-01 BMatC= 7.36D-04 BMatP= 1.24D-02
 IDIUse=3 WtCom= 9.92D-01 WtEn= 8.25D-03
 Coeff-Com:  0.583D-03 0.403D-01 0.150D+00 0.319D+00 0.489D+00
 Coeff-En:   0.000D+00 0.000D+00 0.000D+00 0.000D+00 0.100D+01
 Coeff:      0.578D-03 0.399D-01 0.149D+00 0.317D+00 0.494D+00
 Gap=     0.314 Goal=   None    Shift=    0.000
 RMSDP=3.58D-05 MaxDP=4.00D-03 DE=-8.59D-03 OVMax= 6.82D-03

 Cycle   6  Pass 1  IDiag  1:
 RMSU=  2.05D-05    CP:  9.97D-01  7.09D-01  6.12D-01  6.52D-01  6.23D-01
 E= -2167.58257253672     Delta-E=       -0.000533898187 Rises=F Damp=F
 DIIS: error= 1.22D-04 at cycle   6 NSaved=   6.
 NSaved= 6 IEnMin= 6 EnMin= -2167.58257253672     IErMin= 6 ErrMin= 1.22D-04
 ErrMax= 1.22D-04  0.00D+00 EMaxC= 1.00D-01 BMatC= 2.95D-05 BMatP= 7.36D-04
 IDIUse=3 WtCom= 9.99D-01 WtEn= 1.22D-03
 Coeff-Com: -0.559D-03 0.385D-02 0.209D-01 0.545D-01 0.192D+00 0.730D+00
 Coeff-En:   0.000D+00 0.000D+00 0.000D+00 0.000D+00 0.000D+00 0.100D+01
 Coeff:     -0.559D-03 0.385D-02 0.208D-01 0.544D-01 0.191D+00 0.730D+00
 Gap=     0.315 Goal=   None    Shift=    0.000
 RMSDP=1.07D-05 MaxDP=8.25D-04 DE=-5.34D-04 OVMax= 1.17D-03

 Cycle   7  Pass 1  IDiag  1:
 RMSU=  7.28D-06    CP:  9.97D-01  7.09D-01  6.15D-01  6.67D-01  7.01D-01
                    CP:  9.07D-01
 E= -2167.58259442901     Delta-E=       -0.000021892287 Rises=F Damp=F
 DIIS: error= 4.21D-05 at cycle   7 NSaved=   7.
 NSaved= 7 IEnMin= 7 EnMin= -2167.58259442901     IErMin= 7 ErrMin= 4.21D-05
 ErrMax= 4.21D-05  0.00D+00 EMaxC= 1.00D-01 BMatC= 4.59D-06 BMatP= 2.95D-05
 IDIUse=1 WtCom= 1.00D+00 WtEn= 0.00D+00
 Coeff-Com: -0.237D-03-0.380D-02-0.109D-01-0.188D-01 0.275D-01 0.334D+00
 Coeff-Com:  0.672D+00
 Coeff:     -0.237D-03-0.380D-02-0.109D-01-0.188D-01 0.275D-01 0.334D+00
 Coeff:      0.672D+00
 Gap=     0.315 Goal=   None    Shift=    0.000
 RMSDP=3.43D-06 MaxDP=3.21D-04 DE=-2.19D-05 OVMax= 5.05D-04

 Cycle   8  Pass 1  IDiag  1:
 RMSU=  2.13D-06    CP:  9.97D-01  7.10D-01  6.16D-01  6.66D-01  7.18D-01
                    CP:  1.00D+00  8.29D-01
 E= -2167.58259836510     Delta-E=       -0.000003936096 Rises=F Damp=F
 DIIS: error= 1.14D-05 at cycle   8 NSaved=   8.
 NSaved= 8 IEnMin= 8 EnMin= -2167.58259836510     IErMin= 8 ErrMin= 1.14D-05
 ErrMax= 1.14D-05  0.00D+00 EMaxC= 1.00D-01 BMatC= 2.81D-07 BMatP= 4.59D-06
 IDIUse=1 WtCom= 1.00D+00 WtEn= 0.00D+00
 Coeff-Com: -0.516D-04-0.175D-02-0.556D-02-0.114D-01-0.189D-03 0.771D-01
 Coeff-Com:  0.262D+00 0.680D+00
 Coeff:     -0.516D-04-0.175D-02-0.556D-02-0.114D-01-0.189D-03 0.771D-01
 Coeff:      0.262D+00 0.680D+00
 Gap=     0.315 Goal=   None    Shift=    0.000
 RMSDP=1.01D-06 MaxDP=8.09D-05 DE=-3.94D-06 OVMax= 1.40D-04

 Cycle   9  Pass 1  IDiag  1:
 RMSU=  7.55D-07    CP:  9.97D-01  7.10D-01  6.16D-01  6.66D-01  7.23D-01
                    CP:  1.01D+00  8.83D-01  1.00D+00
 E= -2167.58259861203     Delta-E=       -0.000000246926 Rises=F Damp=F
 DIIS: error= 3.44D-06 at cycle   9 NSaved=   9.
 NSaved= 9 IEnMin= 9 EnMin= -2167.58259861203     IErMin= 9 ErrMin= 3.44D-06
 ErrMax= 3.44D-06  0.00D+00 EMaxC= 1.00D-01 BMatC= 4.13D-08 BMatP= 2.81D-07
 IDIUse=1 WtCom= 1.00D+00 WtEn= 0.00D+00
 Coeff-Com:  0.102D-04-0.149D-03-0.589D-03-0.200D-02-0.356D-02-0.250D-01
 Coeff-Com:  0.213D-02 0.264D+00 0.765D+00
 Coeff:      0.102D-04-0.149D-03-0.589D-03-0.200D-02-0.356D-02-0.250D-01
 Coeff:      0.213D-02 0.264D+00 0.765D+00
 Gap=     0.315 Goal=   None    Shift=    0.000
 RMSDP=5.22D-07 MaxDP=4.84D-05 DE=-2.47D-07 OVMax= 8.32D-05

 Cycle  10  Pass 1  IDiag  1:
 RMSU=  2.82D-07    CP:  9.97D-01  7.10D-01  6.16D-01  6.66D-01  7.26D-01
                    CP:  1.02D+00  9.10D-01  1.12D+00  9.72D-01
 E= -2167.58259865917     Delta-E=       -0.000000047141 Rises=F Damp=F
 DIIS: error= 1.98D-06 at cycle  10 NSaved=  10.
 NSaved=10 IEnMin=10 EnMin= -2167.58259865917     IErMin=10 ErrMin= 1.98D-06
 ErrMax= 1.98D-06  0.00D+00 EMaxC= 1.00D-01 BMatC= 4.86D-09 BMatP= 4.13D-08
 IDIUse=1 WtCom= 1.00D+00 WtEn= 0.00D+00
 Coeff-Com:  0.110D-04 0.161D-03 0.459D-03 0.573D-03-0.938D-03-0.200D-01
 Coeff-Com: -0.307D-01 0.905D-02 0.283D+00 0.759D+00
 Coeff:      0.110D-04 0.161D-03 0.459D-03 0.573D-03-0.938D-03-0.200D-01
 Coeff:     -0.307D-01 0.905D-02 0.283D+00 0.759D+00
 Gap=     0.315 Goal=   None    Shift=    0.000
 RMSDP=1.83D-07 MaxDP=1.81D-05 DE=-4.71D-08 OVMax= 3.29D-05

 Cycle  11  Pass 1  IDiag  1:
 RMSU=  1.02D-07    CP:  9.97D-01  7.10D-01  6.16D-01  6.66D-01  7.27D-01
                    CP:  1.02D+00  9.20D-01  1.15D+00  1.09D+00  9.88D-01
 E= -2167.58259866410     Delta-E=       -0.000000004929 Rises=F Damp=F
 DIIS: error= 8.54D-07 at cycle  11 NSaved=  11.
 NSaved=11 IEnMin=11 EnMin= -2167.58259866410     IErMin=11 ErrMin= 8.54D-07
 ErrMax= 8.54D-07  0.00D+00 EMaxC= 1.00D-01 BMatC= 1.35D-09 BMatP= 4.86D-09
 IDIUse=1 WtCom= 1.00D+00 WtEn= 0.00D+00
 Coeff-Com:  0.503D-05 0.110D-03 0.335D-03 0.571D-03 0.125D-03-0.783D-02
 Coeff-Com: -0.165D-01-0.285D-01 0.610D-01 0.424D+00 0.566D+00
 Coeff:      0.503D-05 0.110D-03 0.335D-03 0.571D-03 0.125D-03-0.783D-02
 Coeff:     -0.165D-01-0.285D-01 0.610D-01 0.424D+00 0.566D+00
 Gap=     0.315 Goal=   None    Shift=    0.000
 RMSDP=6.50D-08 MaxDP=6.98D-06 DE=-4.93D-09 OVMax= 1.36D-05

 Cycle  12  Pass 1  IDiag  1:
 RMSU=  4.02D-08    CP:  9.97D-01  7.10D-01  6.16D-01  6.66D-01  7.27D-01
                    CP:  1.02D+00  9.21D-01  1.16D+00  1.12D+00  1.08D+00
                    CP:  7.93D-01
 E= -2167.58259866494     Delta-E=       -0.000000000838 Rises=F Damp=F
 DIIS: error= 2.32D-07 at cycle  12 NSaved=  12.
 NSaved=12 IEnMin=12 EnMin= -2167.58259866494     IErMin=12 ErrMin= 2.32D-07
 ErrMax= 2.32D-07  0.00D+00 EMaxC= 1.00D-01 BMatC= 9.28D-11 BMatP= 1.35D-09
 IDIUse=1 WtCom= 1.00D+00 WtEn= 0.00D+00
 Coeff-Com:  0.359D-06 0.214D-04 0.696D-04 0.142D-03 0.282D-03-0.207D-03
 Coeff-Com: -0.183D-02-0.123D-01-0.157D-01 0.541D-01 0.214D+00 0.762D+00
 Coeff:      0.359D-06 0.214D-04 0.696D-04 0.142D-03 0.282D-03-0.207D-03
 Coeff:     -0.183D-02-0.123D-01-0.157D-01 0.541D-01 0.214D+00 0.762D+00
 Gap=     0.315 Goal=   None    Shift=    0.000
 RMSDP=2.13D-08 MaxDP=1.64D-06 DE=-8.38D-10 OVMax= 4.20D-06

 Cycle  13  Pass 1  IDiag  1:
 RMSU=  1.24D-08    CP:  9.97D-01  7.10D-01  6.16D-01  6.66D-01  7.27D-01
                    CP:  1.02D+00  9.22D-01  1.16D+00  1.13D+00  1.12D+00
                    CP:  8.94D-01  9.13D-01
 E= -2167.58259866499     Delta-E=       -0.000000000058 Rises=F Damp=F
 DIIS: error= 8.35D-08 at cycle  13 NSaved=  13.
 NSaved=13 IEnMin=13 EnMin= -2167.58259866499     IErMin=13 ErrMin= 8.35D-08
 ErrMax= 8.35D-08  0.00D+00 EMaxC= 1.00D-01 BMatC= 1.85D-11 BMatP= 9.28D-11
 IDIUse=1 WtCom= 1.00D+00 WtEn= 0.00D+00
 Coeff-Com: -0.518D-06-0.390D-05-0.965D-05-0.742D-05 0.135D-03 0.891D-03
 Coeff-Com:  0.130D-02-0.242D-02-0.161D-01-0.318D-01 0.258D-01 0.377D+00
 Coeff-Com:  0.645D+00
 Coeff:     -0.518D-06-0.390D-05-0.965D-05-0.742D-05 0.135D-03 0.891D-03
 Coeff:      0.130D-02-0.242D-02-0.161D-01-0.318D-01 0.258D-01 0.377D+00
 Coeff:      0.645D+00
 Gap=     0.315 Goal=   None    Shift=    0.000
 RMSDP=8.21D-09 MaxDP=7.60D-07 DE=-5.82D-11 OVMax= 1.15D-06

 Error on total polarization charges =  0.00493
 SCF Done:  E(RCAM-B3LYP) =  -2167.58259866     A.U. after   13 cycles
            NFock= 13  Conv=0.82D-08     -V/T= 2.0078
 KE= 2.150890413253D+03 PE=-1.396168297242D+04 EE= 5.213249678622D+03
 Leave Link  502 at Wed Feb  5 01:21:36 2025, MaxMem=  5368709120 cpu:      1185.2
 (Enter /home/k0335/k033513/app/g09/l601.exe)
 Copying SCF densities to generalized density rwf, IOpCl= 0 IROHF=0.

 **********************************************************************

            Population analysis using the SCF density.

 **********************************************************************

 Alpha  occ. eigenvalues --  -24.83901 -24.82393 -24.82376 -24.82338 -24.82312
 Alpha  occ. eigenvalues --  -24.82288 -24.82041 -24.81674 -24.81551 -24.81160
 Alpha  occ. eigenvalues --  -19.31127 -19.30247 -19.25187 -19.22131 -19.21880
 Alpha  occ. eigenvalues --  -14.45124 -10.52184 -10.49226 -10.48654 -10.47674
 Alpha  occ. eigenvalues --  -10.46634 -10.44318 -10.42488 -10.39843 -10.30555
 Alpha  occ. eigenvalues --  -10.30154 -10.29988 -10.26005 -10.25752 -10.25280
 Alpha  occ. eigenvalues --  -10.24588 -10.24472 -10.24459 -10.24441 -10.24069
 Alpha  occ. eigenvalues --   -1.40229  -1.38441  -1.37768  -1.37072  -1.35083
 Alpha  occ. eigenvalues --   -1.33355  -1.32273  -1.31458  -1.30854  -1.30754
 Alpha  occ. eigenvalues --   -1.22122  -1.19317  -1.13898  -1.12199  -1.10915
 Alpha  occ. eigenvalues --   -1.01597  -0.97264  -0.90635  -0.89924  -0.87571
 Alpha  occ. eigenvalues --   -0.86767  -0.86000  -0.82947  -0.81221  -0.79210
 Alpha  occ. eigenvalues --   -0.77356  -0.77232  -0.75191  -0.73649  -0.72495
 Alpha  occ. eigenvalues --   -0.71027  -0.70665  -0.69965  -0.69036  -0.68662
 Alpha  occ. eigenvalues --   -0.67441  -0.66455  -0.66126  -0.65693  -0.65596
 Alpha  occ. eigenvalues --   -0.64996  -0.64788  -0.64046  -0.63778  -0.63457
 Alpha  occ. eigenvalues --   -0.61850  -0.61151  -0.58250  -0.57682  -0.57482
 Alpha  occ. eigenvalues --   -0.56685  -0.56212  -0.55766  -0.55447  -0.55130
 Alpha  occ. eigenvalues --   -0.55073  -0.54670  -0.54203  -0.53731  -0.53443
 Alpha  occ. eigenvalues --   -0.52927  -0.52456  -0.52235  -0.52180  -0.52043
 Alpha  occ. eigenvalues --   -0.51910  -0.51351  -0.51278  -0.51038  -0.50565
 Alpha  occ. eigenvalues --   -0.50279  -0.49871  -0.49572  -0.49526  -0.48779
 Alpha  occ. eigenvalues --   -0.48537  -0.48229  -0.47632  -0.47367  -0.46712
 Alpha  occ. eigenvalues --   -0.45785  -0.45588  -0.45008  -0.44840  -0.43872
 Alpha  occ. eigenvalues --   -0.43446  -0.42975  -0.42565  -0.42278  -0.42019
 Alpha  occ. eigenvalues --   -0.41359  -0.40993  -0.40579  -0.40152  -0.39275
 Alpha  occ. eigenvalues --   -0.38261  -0.37693  -0.36995  -0.35930  -0.35567
 Alpha  occ. eigenvalues --   -0.34539  -0.32763  -0.31339
 Alpha virt. eigenvalues --    0.00163   0.02331   0.04745   0.08232   0.10825
 Alpha virt. eigenvalues --    0.11538   0.12420   0.13390   0.13939   0.14111
 Alpha virt. eigenvalues --    0.15024   0.15369   0.16255   0.16562   0.17569
 Alpha virt. eigenvalues --    0.18133   0.18451   0.18682   0.19686   0.19747
 Alpha virt. eigenvalues --    0.20491   0.21430   0.21514   0.21644   0.21989
 Alpha virt. eigenvalues --    0.22417   0.22525   0.23104   0.23366   0.23689
 Alpha virt. eigenvalues --    0.23837   0.25479   0.25967   0.26078   0.26309
 Alpha virt. eigenvalues --    0.26727   0.27097   0.27784   0.27898   0.28302
 Alpha virt. eigenvalues --    0.28846   0.28926   0.29102   0.29323   0.29952
 Alpha virt. eigenvalues --    0.30524   0.31132   0.31851   0.32025   0.32395
 Alpha virt. eigenvalues --    0.32797   0.33485   0.34399   0.34823   0.35520
 Alpha virt. eigenvalues --    0.35978   0.36999   0.38032   0.38325   0.39678
 Alpha virt. eigenvalues --    0.42020   0.43026   0.48026   0.50919   0.51566
 Alpha virt. eigenvalues --    0.53758   0.54263   0.54546   0.55347   0.56082
 Alpha virt. eigenvalues --    0.56581   0.57076   0.57748   0.57878   0.58179
 Alpha virt. eigenvalues --    0.58612   0.59247   0.59913   0.60475   0.61234
 Alpha virt. eigenvalues --    0.61512   0.62596   0.62691   0.63515   0.64321
 Alpha virt. eigenvalues --    0.64831   0.65135   0.65707   0.66616   0.67397
 Alpha virt. eigenvalues --    0.67696   0.68541   0.69018   0.69553   0.70519
 Alpha virt. eigenvalues --    0.70714   0.71425   0.72003   0.72292   0.73159
 Alpha virt. eigenvalues --    0.73855   0.74428   0.74767   0.76185   0.76882
 Alpha virt. eigenvalues --    0.77542   0.78557   0.79159   0.79588   0.80814
 Alpha virt. eigenvalues --    0.81935   0.83523   0.83675   0.84426   0.85841
 Alpha virt. eigenvalues --    0.85974   0.86980   0.87456   0.87695   0.88500
 Alpha virt. eigenvalues --    0.89557   0.89922   0.90417   0.90866   0.91356
 Alpha virt. eigenvalues --    0.92011   0.92623   0.93386   0.93526   0.94122
 Alpha virt. eigenvalues --    0.94683   0.95008   0.95199   0.95840   0.96790
 Alpha virt. eigenvalues --    0.96987   0.97259   0.97597   0.98260   0.98956
 Alpha virt. eigenvalues --    0.99857   1.00283   1.01028   1.01576   1.02364
 Alpha virt. eigenvalues --    1.02777   1.03090   1.03809   1.04728   1.05124
 Alpha virt. eigenvalues --    1.05442   1.05821   1.06699   1.07043   1.07664
 Alpha virt. eigenvalues --    1.08791   1.09466   1.09769   1.10505   1.10734
 Alpha virt. eigenvalues --    1.11085   1.12000   1.12573   1.13583   1.13722
 Alpha virt. eigenvalues --    1.14765   1.15626   1.16991   1.17331   1.17706
 Alpha virt. eigenvalues --    1.18750   1.20533   1.21440   1.22260   1.23424
 Alpha virt. eigenvalues --    1.25225   1.26781   1.27124   1.28206   1.29221
 Alpha virt. eigenvalues --    1.30189   1.30999   1.31556   1.32515   1.33293
 Alpha virt. eigenvalues --    1.33852   1.34573   1.35130   1.35775   1.36246
 Alpha virt. eigenvalues --    1.36542   1.37360   1.38548   1.39330   1.39594
 Alpha virt. eigenvalues --    1.40351   1.40688   1.41870   1.42636   1.42866
 Alpha virt. eigenvalues --    1.43622   1.44164   1.44415   1.44685   1.45620
 Alpha virt. eigenvalues --    1.46326   1.47753   1.48444   1.49772   1.49887
 Alpha virt. eigenvalues --    1.50615   1.51352   1.51895   1.52712   1.53361
 Alpha virt. eigenvalues --    1.54345   1.55767   1.56449   1.57317   1.58692
 Alpha virt. eigenvalues --    1.59566   1.60328   1.60641   1.61931   1.62745
 Alpha virt. eigenvalues --    1.63319   1.63644   1.64699   1.65023   1.66085
 Alpha virt. eigenvalues --    1.67597   1.69036   1.69246   1.70050   1.70208
 Alpha virt. eigenvalues --    1.71041   1.71521   1.72589   1.73332   1.73758
 Alpha virt. eigenvalues --    1.74340   1.74874   1.75414   1.76405   1.76758
 Alpha virt. eigenvalues --    1.77182   1.78360   1.79046   1.79529   1.79620
 Alpha virt. eigenvalues --    1.80547   1.80841   1.81478   1.83061   1.83420
 Alpha virt. eigenvalues --    1.84339   1.85619   1.85941   1.86283   1.87123
 Alpha virt. eigenvalues --    1.87405   1.87432   1.87945   1.88528   1.89031
 Alpha virt. eigenvalues --    1.89351   1.90237   1.90282   1.90987   1.92073
 Alpha virt. eigenvalues --    1.92326   1.92688   1.92797   1.93533   1.94866
 Alpha virt. eigenvalues --    1.95807   1.96446   1.97463   1.98025   1.98719
 Alpha virt. eigenvalues --    1.98888   1.99697   2.00087   2.01233   2.01514
 Alpha virt. eigenvalues --    2.01884   2.02470   2.03093   2.03821   2.04386
 Alpha virt. eigenvalues --    2.04979   2.05143   2.05980   2.07006   2.07212
 Alpha virt. eigenvalues --    2.07356   2.07890   2.08210   2.08458   2.09231
 Alpha virt. eigenvalues --    2.09530   2.10298   2.10912   2.11229   2.11831
 Alpha virt. eigenvalues --    2.12205   2.12612   2.13084   2.13258   2.13713
 Alpha virt. eigenvalues --    2.14379   2.15067   2.15683   2.16384   2.17043
 Alpha virt. eigenvalues --    2.17990   2.18423   2.18769   2.19153   2.19582
 Alpha virt. eigenvalues --    2.19837   2.20197   2.21254   2.22206   2.22800
 Alpha virt. eigenvalues --    2.23801   2.24338   2.25122   2.25527   2.25808
 Alpha virt. eigenvalues --    2.26473   2.27670   2.28506   2.29378   2.30634
 Alpha virt. eigenvalues --    2.31378   2.31566   2.32067   2.33085   2.33409
 Alpha virt. eigenvalues --    2.33597   2.34489   2.35468   2.35823   2.36693
 Alpha virt. eigenvalues --    2.37304   2.37827   2.38544   2.38780   2.38955
 Alpha virt. eigenvalues --    2.39819   2.40237   2.40905   2.42105   2.43175
 Alpha virt. eigenvalues --    2.43744   2.43982   2.44294   2.44626   2.45785
 Alpha virt. eigenvalues --    2.47150   2.47879   2.49171   2.50278   2.51170
 Alpha virt. eigenvalues --    2.51868   2.53030   2.53460   2.53552   2.55505
 Alpha virt. eigenvalues --    2.56299   2.56575   2.57534   2.59473   2.60232
 Alpha virt. eigenvalues --    2.60513   2.61645   2.62074   2.62582   2.62719
 Alpha virt. eigenvalues --    2.63773   2.64626   2.65065   2.65889   2.67620
 Alpha virt. eigenvalues --    2.67853   2.70042   2.70506   2.71669   2.72308
 Alpha virt. eigenvalues --    2.73579   2.73887   2.74688   2.75126   2.76586
 Alpha virt. eigenvalues --    2.77593   2.78265   2.78879   2.79719   2.80677
 Alpha virt. eigenvalues --    2.81003   2.82378   2.83237   2.83357   2.83886
 Alpha virt. eigenvalues --    2.84669   2.85429   2.86283   2.86972   2.88087
 Alpha virt. eigenvalues --    2.88201   2.88978   2.90198   2.90380   2.91429
 Alpha virt. eigenvalues --    2.92317   2.92712   2.93865   2.94551   2.95427
 Alpha virt. eigenvalues --    2.96355   2.96535   2.97424   2.97683   2.98337
 Alpha virt. eigenvalues --    2.98547   2.99535   3.00377   3.00540   3.00978
 Alpha virt. eigenvalues --    3.01561   3.02143   3.02955   3.04039   3.04529
 Alpha virt. eigenvalues --    3.06667   3.07704   3.08849   3.10161   3.12083
 Alpha virt. eigenvalues --    3.12983   3.13951   3.15656   3.17028   3.20386
 Alpha virt. eigenvalues --    3.22665   3.23096   3.27020   3.28711   3.29070
 Alpha virt. eigenvalues --    3.29466   3.31664   3.34476   3.34740   3.35722
 Alpha virt. eigenvalues --    3.37264   3.38392   3.38920   3.39933   3.41082
 Alpha virt. eigenvalues --    3.42391   3.42951   3.44849   3.45945   3.48164
 Alpha virt. eigenvalues --    3.48831   3.52736   3.53941   3.56149   3.56423
 Alpha virt. eigenvalues --    3.56607   3.59151   3.61448   3.62762   3.63106
 Alpha virt. eigenvalues --    3.66036   3.67503   3.98002   4.11075   4.12368
 Alpha virt. eigenvalues --    4.18841   4.21744   4.28524   4.32428   4.36943
 Alpha virt. eigenvalues --    4.41104   4.43653   4.45540   4.49831   4.51352
 Alpha virt. eigenvalues --    4.54082   4.60017   4.64402   4.67610   4.68133
 Alpha virt. eigenvalues --    4.71063   4.72327   4.75734   4.77952   4.81358
 Alpha virt. eigenvalues --    4.86290   4.92976   5.00714   5.06699   5.28269
 Alpha virt. eigenvalues --    5.35688   5.44479   5.62563   5.80673   6.07831
 Alpha virt. eigenvalues --    6.71378   7.21199
          Condensed to atoms (all electrons):
 Mulliken charges:
               1
     1  C   -0.320075
     2  C   -0.175676
     3  C   -0.170991
     4  C   -0.180413
     5  C   -0.079093
     6  C   -0.179590
     7  C   -0.322005
     8  C    0.057544
     9  O   -0.511108
    10  C    0.045034
    11  C   -0.204879
    12  C   -0.047443
    13  N   -0.548108
    14  C    0.573280
    15  C    0.545883
    16  F   -0.287671
    17  F   -0.267950
    18  C    0.477524
    19  F   -0.279139
    20  O   -0.488859
    21  C    0.773043
    22  F   -0.244544
    23  F   -0.243161
    24  C    0.518119
    25  F   -0.267669
    26  F   -0.250607
    27  C    0.175471
    28  C    0.615663
    29  F   -0.273776
    30  C    0.529704
    31  O   -0.472309
    32  O   -0.444799
    33  F   -0.262936
    34  F   -0.284678
    35  O   -0.500234
    36  H    0.102354
    37  H    0.101318
    38  H    0.098536
    39  H    0.096355
    40  H    0.092823
    41  H    0.092941
    42  H    0.090590
    43  H    0.089168
    44  H    0.097457
    45  H    0.083982
    46  H    0.095336
    47  H    0.091238
    48  H    0.110173
    49  H    0.101647
    50  H    0.103236
    51  H    0.087614
    52  H    0.101930
    53  H    0.099617
    54  H    0.105425
    55  H    0.124799
    56  H    0.106709
    57  H    0.137804
    58  H    0.130263
    59  H    0.293137
    60  H    0.361997
 Sum of Mulliken charges =   0.00000
 Mulliken charges with hydrogens summed into heavy atoms:
               1
     1  C   -0.017866
     2  C    0.013503
     3  C    0.012540
     4  C    0.006213
     5  C    0.004889
     6  C    0.006984
     7  C   -0.006949
     8  C    0.247088
     9  O   -0.511108
    10  C    0.250076
    11  C    0.026629
    12  C    0.220624
    13  N   -0.254972
    14  C    0.573280
    15  C    0.545883
    16  F   -0.287671
    17  F   -0.267950
    18  C    0.477524
    19  F   -0.279139
    20  O   -0.488859
    21  C    0.773043
    22  F   -0.244544
    23  F   -0.243161
    24  C    0.518119
    25  F   -0.267669
    26  F   -0.250607
    27  C    0.175471
    28  C    0.615663
    29  F   -0.273776
    30  C    0.529704
    31  O   -0.110312
    32  O   -0.444799
    33  F   -0.262936
    34  F   -0.284678
    35  O   -0.500234
 Electronic spatial extent (au):  <R**2>=          32129.4244
 Charge=              0.0000 electrons
 Dipole moment (field-independent basis, Debye):
    X=             -4.2329    Y=              0.8301    Z=              2.4192  Tot=              4.9456
 Quadrupole moment (field-independent basis, Debye-Ang):
   XX=           -213.5660   YY=           -201.5959   ZZ=           -194.0333
   XY=              7.5288   XZ=             28.1390   YZ=              0.2869
 Traceless Quadrupole moment (field-independent basis, Debye-Ang):
   XX=            -10.5010   YY=              1.4692   ZZ=              9.0318
   XY=              7.5288   XZ=             28.1390   YZ=              0.2869
 Octapole moment (field-independent basis, Debye-Ang**2):
  XXX=          -1282.9705  YYY=             22.9422  ZZZ=             75.8272  XYY=           -384.0007
  XXY=              4.9554  XXZ=            161.3322  XZZ=           -327.7578  YZZ=             37.9339
  YYZ=             15.7370  XYZ=             15.9340
 Hexadecapole moment (field-independent basis, Debye-Ang**3):
 XXXX=         -34234.2603 YYYY=          -2376.4317 ZZZZ=          -2606.9228 XXXY=             44.5128
 XXXZ=           1104.9612 YYYX=            288.6188 YYYZ=           -530.9082 ZZZX=            430.1462
 ZZZY=           -474.2499 XXYY=          -5962.1421 XXZZ=          -5362.3118 YYZZ=           -843.7865
 XXYZ=             -2.4024 YYXZ=             85.9034 ZZXY=            277.9322
 N-N= 4.429960281882D+03 E-N=-1.396168297486D+04  KE= 2.150890413253D+03
[...]
     37          1           0       -5.427489    3.357466    1.466291
     38          1           0       -6.382719    2.886428    2.875777
     39          1           0       -5.818876    0.870589    1.519274
     40          1           0       -5.060758    0.775825    3.094685
     41          1           0       -3.648520    1.720916    0.555106
     42          1           0       -2.937241    1.663189    2.144412
     43          1           0       -3.644455   -0.924931    2.059061
     44          1           0       -2.128522   -0.343976    1.412213
     45          1           0       -3.161547   -1.960383   -0.044114
     46          1           0       -5.384361    0.068533   -0.525209
     47          1           0       -5.049837   -1.315251   -1.539299
     48          1           0       -5.868761   -1.492716    1.415289
     49          1           0       -6.884671   -1.857695    0.020964
     50          1           0       -5.482188   -2.869256    0.381161
     51          1           0       -2.898167   -0.721786   -2.169021
     52          1           0       -2.969985    0.810971   -1.301871
     53          1           0       -1.170382   -2.322508   -1.140900
     54          1           0        0.320153   -1.444778   -0.791388
     55          1           0        0.509173   -2.123564   -3.065191
     56          1           0       -1.123635   -1.625191   -3.484546
     57          1           0        0.727954   -0.037572   -4.270079
     58          1           0       -0.591509    0.713347   -3.363386
     59          1           0        0.837495    0.975570   -1.500738
     60          1           0        6.219097    1.620528    4.071507
 ---------------------------------------------------------------------
 Rotational constants (GHZ):      0.1870350      0.0525313      0.0484715
 Leave Link  202 at Wed Feb  5 02:04:28 2025, MaxMem=  5368709120 cpu:         0.5
 (Enter /home/k0335/k033513/app/g09/l601.exe)
 Copying SCF densities to generalized density rwf, IOpCl= 0 IROHF=0.

 **********************************************************************

            Population analysis using the SCF density.

 **********************************************************************

 Alpha  occ. eigenvalues --  -24.83611 -24.82918 -24.82228 -24.82183 -24.82114
 Alpha  occ. eigenvalues --  -24.81998 -24.81711 -24.81643 -24.81633 -24.81145
 Alpha  occ. eigenvalues --  -19.31231 -19.30458 -19.24908 -19.22694 -19.20626
 Alpha  occ. eigenvalues --  -14.44788 -10.51930 -10.48168 -10.47912 -10.46396
 Alpha  occ. eigenvalues --  -10.46129 -10.43556 -10.41881 -10.38570 -10.30763
 Alpha  occ. eigenvalues --  -10.30304 -10.30016 -10.26303 -10.25773 -10.25457
 Alpha  occ. eigenvalues --  -10.24847 -10.24717 -10.24631 -10.24512 -10.24274
 Alpha  occ. eigenvalues --   -1.40619  -1.38310  -1.38057  -1.37113  -1.35032
 Alpha  occ. eigenvalues --   -1.33291  -1.33052  -1.31715  -1.31553  -1.30876
 Alpha  occ. eigenvalues --   -1.22730  -1.21739  -1.13768  -1.13682  -1.11769
 Alpha  occ. eigenvalues --   -1.02379  -0.94723  -0.90522  -0.90277  -0.87100
 Alpha  occ. eigenvalues --   -0.86144  -0.85968  -0.82518  -0.81361  -0.79305
 Alpha  occ. eigenvalues --   -0.77520  -0.77044  -0.75137  -0.73761  -0.72661
 Alpha  occ. eigenvalues --   -0.71091  -0.70554  -0.70298  -0.68962  -0.68535
 Alpha  occ. eigenvalues --   -0.67917  -0.66723  -0.66581  -0.66111  -0.65784
 Alpha  occ. eigenvalues --   -0.65364  -0.65053  -0.64317  -0.63951  -0.63351
 Alpha  occ. eigenvalues --   -0.62195  -0.61337  -0.58359  -0.57932  -0.57311
 Alpha  occ. eigenvalues --   -0.56622  -0.56472  -0.55688  -0.55520  -0.55145
 Alpha  occ. eigenvalues --   -0.54867  -0.54519  -0.54184  -0.53962  -0.53608
 Alpha  occ. eigenvalues --   -0.53161  -0.52505  -0.52454  -0.52097  -0.51953
 Alpha  occ. eigenvalues --   -0.51485  -0.51185  -0.50981  -0.50867  -0.50591
 Alpha  occ. eigenvalues --   -0.50384  -0.50125  -0.49956  -0.49382  -0.48867
 Alpha  occ. eigenvalues --   -0.48832  -0.48307  -0.47910  -0.47463  -0.47103
 Alpha  occ. eigenvalues --   -0.46127  -0.45311  -0.45240  -0.44371  -0.44181
 Alpha  occ. eigenvalues --   -0.43668  -0.43124  -0.42756  -0.42294  -0.41685
 Alpha  occ. eigenvalues --   -0.41279  -0.41113  -0.40566  -0.40423  -0.39241
 Alpha  occ. eigenvalues --   -0.38214  -0.37511  -0.37333  -0.36513  -0.35992
 Alpha  occ. eigenvalues --   -0.33718  -0.32777  -0.31762
 Alpha virt. eigenvalues --    0.02270   0.04171   0.06377   0.10572   0.11188
 Alpha virt. eigenvalues --    0.11517   0.13365   0.13987   0.14112   0.15127
 Alpha virt. eigenvalues --    0.15304   0.16255   0.16614   0.17168   0.17798
 Alpha virt. eigenvalues --    0.17912   0.18667   0.19269   0.19317   0.19924
 Alpha virt. eigenvalues --    0.20922   0.21271   0.21448   0.21892   0.22083
 Alpha virt. eigenvalues --    0.22450   0.22950   0.23191   0.23620   0.24829
 Alpha virt. eigenvalues --    0.24904   0.25117   0.25870   0.25904   0.26546
 Alpha virt. eigenvalues --    0.26954   0.27202   0.27628   0.28666   0.28895
 Alpha virt. eigenvalues --    0.29184   0.29505   0.30020   0.30189   0.30532
 Alpha virt. eigenvalues --    0.31046   0.31190   0.31737   0.31993   0.32959
 Alpha virt. eigenvalues --    0.33306   0.33669   0.34343   0.35705   0.35874
 Alpha virt. eigenvalues --    0.36202   0.36820   0.38298   0.38630   0.39833
 Alpha virt. eigenvalues --    0.43114   0.46576   0.48683   0.50443   0.51273
 Alpha virt. eigenvalues --    0.52579   0.54283   0.54364   0.54909   0.56220
 Alpha virt. eigenvalues --    0.56550   0.56858   0.57330   0.57807   0.58554
 Alpha virt. eigenvalues --    0.59077   0.59319   0.60411   0.60779   0.60918
 Alpha virt. eigenvalues --    0.61188   0.61927   0.62482   0.62895   0.64100
 Alpha virt. eigenvalues --    0.65033   0.65364   0.66241   0.66464   0.67314
 Alpha virt. eigenvalues --    0.67660   0.68329   0.68660   0.68826   0.70125
 Alpha virt. eigenvalues --    0.71586   0.71979   0.72167   0.72673   0.73332
 Alpha virt. eigenvalues --    0.73699   0.75412   0.75602   0.76224   0.76761
 Alpha virt. eigenvalues --    0.78045   0.78110   0.79259   0.79548   0.80268
 Alpha virt. eigenvalues --    0.81686   0.82318   0.83779   0.84112   0.84553
 Alpha virt. eigenvalues --    0.84976   0.85673   0.86426   0.87749   0.88107
 Alpha virt. eigenvalues --    0.88699   0.89553   0.90169   0.90897   0.91569
 Alpha virt. eigenvalues --    0.91952   0.92726   0.93214   0.93335   0.93741
 Alpha virt. eigenvalues --    0.94405   0.94668   0.95627   0.96167   0.96212
 Alpha virt. eigenvalues --    0.96691   0.96977   0.97384   0.98392   0.99037
 Alpha virt. eigenvalues --    0.99535   1.00272   1.01079   1.01298   1.01476
 Alpha virt. eigenvalues --    1.01955   1.02703   1.03131   1.04313   1.04852
 Alpha virt. eigenvalues --    1.05253   1.05533   1.06401   1.06927   1.07855
 Alpha virt. eigenvalues --    1.09407   1.09527   1.10105   1.10679   1.10951
 Alpha virt. eigenvalues --    1.11744   1.12237   1.13317   1.13724   1.14538
 Alpha virt. eigenvalues --    1.15635   1.16012   1.16669   1.17010   1.18116
 Alpha virt. eigenvalues --    1.19371   1.21543   1.22016   1.23100   1.23919
 Alpha virt. eigenvalues --    1.24918   1.26879   1.27823   1.29080   1.30447
 Alpha virt. eigenvalues --    1.31085   1.32033   1.33498   1.33854   1.34690
 Alpha virt. eigenvalues --    1.35021   1.35536   1.36157   1.37065   1.37429
 Alpha virt. eigenvalues --    1.38841   1.39740   1.40333   1.40727   1.41162
 Alpha virt. eigenvalues --    1.41691   1.42113   1.43166   1.43472   1.44319
 Alpha virt. eigenvalues --    1.44505   1.44847   1.44930   1.45375   1.46297
 Alpha virt. eigenvalues --    1.46648   1.48181   1.48745   1.49844   1.50601
 Alpha virt. eigenvalues --    1.51120   1.51910   1.52140   1.53134   1.53561
 Alpha virt. eigenvalues --    1.54937   1.56336   1.56752   1.57406   1.57950
 Alpha virt. eigenvalues --    1.58586   1.59755   1.60482   1.60639   1.61573
 Alpha virt. eigenvalues --    1.62490   1.63156   1.63658   1.64805   1.65511
 Alpha virt. eigenvalues --    1.66461   1.68288   1.68808   1.69744   1.70320
 Alpha virt. eigenvalues --    1.70695   1.71851   1.72181   1.73424   1.74171
 Alpha virt. eigenvalues --    1.74359   1.74520   1.75122   1.76037   1.76393
 Alpha virt. eigenvalues --    1.76760   1.78007   1.78263   1.78942   1.80376
 Alpha virt. eigenvalues --    1.80501   1.81124   1.81746   1.83235   1.83916
 Alpha virt. eigenvalues --    1.83949   1.85262   1.85600   1.86018   1.86294
 Alpha virt. eigenvalues --    1.86444   1.86887   1.87989   1.88291   1.88597
 Alpha virt. eigenvalues --    1.88644   1.89153   1.90176   1.90683   1.91425
 Alpha virt. eigenvalues --    1.92412   1.92637   1.92983   1.93992   1.94677
 Alpha virt. eigenvalues --    1.96098   1.96407   1.97085   1.97353   1.98126
 Alpha virt. eigenvalues --    1.98776   1.99373   1.99649   1.99964   2.01138
 Alpha virt. eigenvalues --    2.01370   2.01924   2.02461   2.02799   2.03274
 Alpha virt. eigenvalues --    2.03492   2.04558   2.05409   2.05862   2.06420
 Alpha virt. eigenvalues --    2.07170   2.07470   2.07847   2.08177   2.08815
 Alpha virt. eigenvalues --    2.09891   2.10314   2.10781   2.11406   2.12851
 Alpha virt. eigenvalues --    2.13029   2.13350   2.14258   2.14659   2.14743
 Alpha virt. eigenvalues --    2.14879   2.16139   2.16670   2.16932   2.17569
 Alpha virt. eigenvalues --    2.17775   2.18825   2.19674   2.20032   2.20486
 Alpha virt. eigenvalues --    2.20724   2.21129   2.22491   2.22707   2.23630
 Alpha virt. eigenvalues --    2.24186   2.24860   2.25561   2.26013   2.26998
 Alpha virt. eigenvalues --    2.27755   2.28038   2.29074   2.30321   2.30764
 Alpha virt. eigenvalues --    2.31811   2.32209   2.32877   2.33365   2.33806
 Alpha virt. eigenvalues --    2.34254   2.35195   2.35932   2.36423   2.36859
 Alpha virt. eigenvalues --    2.37669   2.38198   2.38569   2.38974   2.39355
 Alpha virt. eigenvalues --    2.40249   2.40895   2.42236   2.43596   2.43838
 Alpha virt. eigenvalues --    2.44590   2.44839   2.45970   2.46694   2.47561
 Alpha virt. eigenvalues --    2.48032   2.48878   2.49910   2.50635   2.51539
 Alpha virt. eigenvalues --    2.51920   2.53293   2.53445   2.53999   2.55669
 Alpha virt. eigenvalues --    2.56195   2.57012   2.58636   2.59361   2.60545
 Alpha virt. eigenvalues --    2.60938   2.62182   2.62354   2.62480   2.63939
 Alpha virt. eigenvalues --    2.65035   2.65469   2.66235   2.66573   2.67136
 Alpha virt. eigenvalues --    2.69384   2.70044   2.70463   2.70735   2.72581
 Alpha virt. eigenvalues --    2.73384   2.73656   2.74411   2.76667   2.77098
 Alpha virt. eigenvalues --    2.77356   2.79924   2.80210   2.81025   2.81277
 Alpha virt. eigenvalues --    2.81731   2.82810   2.83685   2.84118   2.85085
 Alpha virt. eigenvalues --    2.85251   2.86010   2.87053   2.87747   2.88219
 Alpha virt. eigenvalues --    2.89303   2.89752   2.90878   2.91204   2.92052
 Alpha virt. eigenvalues --    2.92828   2.94217   2.94676   2.95329   2.96824
 Alpha virt. eigenvalues --    2.96980   2.97549   2.97878   2.99000   2.99214
 Alpha virt. eigenvalues --    2.99875   3.00427   3.00841   3.01257   3.02287
 Alpha virt. eigenvalues --    3.02596   3.03337   3.04542   3.04949   3.05813
 Alpha virt. eigenvalues --    3.06982   3.07699   3.09015   3.11293   3.12568
 Alpha virt. eigenvalues --    3.13452   3.14491   3.17668   3.19882   3.22510
 Alpha virt. eigenvalues --    3.23758   3.25306   3.26444   3.26577   3.28425
 Alpha virt. eigenvalues --    3.29902   3.31679   3.32499   3.34613   3.35544
 Alpha virt. eigenvalues --    3.36929   3.38325   3.38966   3.40906   3.41190
 Alpha virt. eigenvalues --    3.42748   3.43177   3.44737   3.45748   3.48391
 Alpha virt. eigenvalues --    3.51285   3.52866   3.54059   3.55835   3.56427
 Alpha virt. eigenvalues --    3.57715   3.60779   3.61735   3.62333   3.64432
 Alpha virt. eigenvalues --    3.65767   3.68123   4.03603   4.15897   4.16204
 Alpha virt. eigenvalues --    4.21409   4.26574   4.30503   4.32344   4.36263
 Alpha virt. eigenvalues --    4.40575   4.41585   4.46827   4.51701   4.52663
 Alpha virt. eigenvalues --    4.59491   4.60052   4.62278   4.64340   4.67912
 Alpha virt. eigenvalues --    4.69421   4.73406   4.76572   4.78519   4.81437
 Alpha virt. eigenvalues --    4.85480   4.87494   4.96591   5.01668   5.38969
 Alpha virt. eigenvalues --    5.46159   5.57234   5.84070   6.00247   6.28696
 Alpha virt. eigenvalues --    6.44345   6.86362
          Condensed to atoms (all electrons):
 Mulliken charges:
               1
     1  C   -0.321485
     2  C   -0.178271
     3  C   -0.174186
     4  C   -0.184477
     5  C   -0.077831
     6  C   -0.180662
     7  C   -0.322263
     8  C    0.059044
     9  O   -0.513987
    10  C    0.041793
    11  C   -0.215067
    12  C   -0.050489
    13  N   -0.527128
    14  C    0.536217
    15  C    0.565253
    16  F   -0.291456
    17  F   -0.263030
    18  C    0.467210
    19  F   -0.293467
    20  O   -0.470811
    21  C    0.784213
    22  F   -0.239435
    23  F   -0.245329
    24  C    0.495556
    25  F   -0.255990
    26  F   -0.259865
    27  C    0.185127
    28  C    0.599547
    29  F   -0.271762
    30  C    0.538078
    31  O   -0.468291
    32  O   -0.432312
    33  F   -0.261268
    34  F   -0.283469
    35  O   -0.514837
    36  H    0.103433
    37  H    0.101840
    38  H    0.101550
    39  H    0.097678
    40  H    0.092841
    41  H    0.086852
    42  H    0.093771
    43  H    0.089467
    44  H    0.105795
    45  H    0.084322
    46  H    0.096790
    47  H    0.090541
    48  H    0.110427
    49  H    0.103995
    50  H    0.103092
    51  H    0.085548
    52  H    0.101993
    53  H    0.101720
    54  H    0.111478
    55  H    0.125087
    56  H    0.110586
    57  H    0.145249
    58  H    0.126383
    59  H    0.297397
    60  H    0.357290
 Sum of Mulliken charges =   0.00000
 Mulliken charges with hydrogens summed into heavy atoms:
               1
     1  C   -0.014662
     2  C    0.012249
     3  C    0.006437
     4  C    0.010785
     5  C    0.006491
     6  C    0.006668
     7  C   -0.004748
     8  C    0.246585
     9  O   -0.513987
    10  C    0.254992
    11  C    0.020606
    12  C    0.221143
    13  N   -0.229731
    14  C    0.536217
    15  C    0.565253
    16  F   -0.291456
    17  F   -0.263030
    18  C    0.467210
    19  F   -0.293467
    20  O   -0.470811
    21  C    0.784213
    22  F   -0.239435
    23  F   -0.245329
    24  C    0.495556
    25  F   -0.255990
    26  F   -0.259865
    27  C    0.185127
    28  C    0.599547
    29  F   -0.271762
    30  C    0.538078
    31  O   -0.111000
    32  O   -0.432312
    33  F   -0.261268
    34  F   -0.283469
    35  O   -0.514837
 Electronic spatial extent (au):  <R**2>=          26194.7477
 Charge=              0.0000 electrons
 Dipole moment (field-independent basis, Debye):
    X=             -5.4150    Y=             -0.3528    Z=              2.8534  Tot=              6.1309
 Quadrupole moment (field-independent basis, Debye-Ang):
   XX=           -221.1492   YY=           -198.7039   ZZ=           -192.2683
   XY=              0.8022   XZ=             29.5741   YZ=              3.5816
 Traceless Quadrupole moment (field-independent basis, Debye-Ang):
   XX=            -17.1087   YY=              5.3366   ZZ=             11.7721
   XY=              0.8022   XZ=             29.5741   YZ=              3.5816
 Octapole moment (field-independent basis, Debye-Ang**2):
  XXX=          -1202.8700  YYY=             -9.9401  ZZZ=            106.1373  XYY=           -331.0437
  XXY=            -32.5974  XXZ=            125.6190  XZZ=           -293.1769  YZZ=             25.5633
  YYZ=              5.2505  XYZ=             14.5178
 Hexadecapole moment (field-independent basis, Debye-Ang**3):
 XXXX=         -26485.7177 YYYY=          -2549.9794 ZZZZ=          -3629.5108 XXXY=           -395.2437
 XXXZ=            396.2541 YYYX=            -22.0632 YYYZ=           -457.3863 ZZZX=            493.6018
 ZZZY=           -355.2360 XXYY=          -4599.2101 XXZZ=          -4373.7450 YYZZ=          -1021.1155
 XXYZ=            -75.9432 YYXZ=              4.8531 ZZXY=            160.3734
 N-N= 4.534679366377D+03 E-N=-1.417145516432D+04  KE= 2.151319777155D+03
 No NMR shielding tensors so no spin-rotation constants.
 Leave Link  601 at Wed Feb  5 02:04:28 2025, MaxMem=  5368709120 cpu:         4.3
 (Enter /home/k0335/k033513/app/g09/l9999.exe)
 1\1\GINC-C18U04N4\FOpt\RCAM-B3LYP\6-31G(d,p)\C19H25F10N1O5\K033513\05-
 Feb-2025\0\\#p CAM-B3LYP/6-31G(d,p) opt SCRF=(PCM,Solvent=Generic,Read
 ) NoSymm out=wfn\\Title EHOPA1_neu\\0,1\C,-5.4025029738,2.7885334047,2
 .4012833993\C,-5.0460862197,1.327093694,2.1462060681\C,-3.6690624094,1
 .1626914584,1.4994438505\C,-3.2122283047,-0.2903939519,1.2769252754\C,
 -3.5026514405,-0.9165027844,-0.0999688624\C,-4.9813601993,-0.951211223
 3,-0.506508768\C,-5.8518043601,-1.8389178092,0.3790523329\C,-2.6847325
 575,-0.2413962684,-1.2045549017\O,-1.2880103946,-0.2492655561,-0.94445
 10631\C,-0.6016913065,-1.4149023742,-1.3772927107\C,-0.2574325739,-1.3
 676917138,-2.8661635595\C,0.2434815062,0.0143814534,-3.2945468714\N,1.
 2000858471,0.5744556036,-2.3538739835\C,2.5189254789,0.3732555209,-2.4
 789436265\C,3.3614170598,0.9138665044,-1.3017786854\F,2.5996179896,1.6
 83027324,-0.4744015231\F,4.3653348059,1.6621118652,-1.7876812332\C,3.9
 266258372,-0.2205647938,-0.4354910248\F,2.845209446,-1.0091199362,-0.1
 166157476\O,4.8501420682,-0.9578478057,-1.1550460023\C,5.6619677815,-1
 .7079417812,-0.3227461411\F,6.9354102846,-1.5084787449,-0.6586646514\F
 ,5.392916505,-3.008597018,-0.4559947688\C,5.3782541809,-1.2225126707,1
 .1233416275\F,4.5978823283,-2.1029083465,1.7614422234\F,6.525642889,-1
 .0759810602,1.8131767659\C,4.6085250908,0.1014921694,0.927714105\C,5.5
 600447322,1.314258443,0.9328205836\F,4.8264691148,2.4393598146,0.76839
 07867\C,6.4006955502,1.5257583195,2.2106822241\O,5.6514636981,1.433388
 9569,3.3046355344\O,7.5654624089,1.8005779364,2.1709911736\F,6.4124734
 304,1.1830518218,-0.1002196188\F,3.6701285883,0.2754501296,1.888366738
 6\O,3.0851273968,-0.1775449398,-3.4047784719\H,-4.6659907467,3.2652727
 5,3.0560190877\H,-5.4274885751,3.3574663261,1.4662909945\H,-6.38271910
 58,2.8864277313,2.875776514\H,-5.8188757656,0.8705887453,1.5192744953\
 H,-5.0607584247,0.7758248971,3.094684933\H,-3.6485197982,1.7209159754,
 0.5551056426\H,-2.9372408345,1.6631888243,2.1444117885\H,-3.6444551119
 ,-0.9249307613,2.0590609943\H,-2.1285220159,-0.3439760039,1.4122128473
 \H,-3.1615466753,-1.9603828703,-0.0441142977\H,-5.384361414,0.06853327
 13,-0.5252093018\H,-5.0498366392,-1.3152507402,-1.5392989703\H,-5.8687
 607454,-1.4927164432,1.415288867\H,-6.8846714411,-1.8576951748,0.02096
 36115\H,-5.4821883964,-2.8692556179,0.3811609349\H,-2.8981668342,-0.72
 17855802,-2.1690209061\H,-2.9699847298,0.8109710231,-1.3018711105\H,-1
 .1703822936,-2.3225079554,-1.1409001146\H,0.32015296,-1.4447776301,-0.
 7913875153\H,0.5091727545,-2.123563945,-3.0651912173\H,-1.1236349381,-
 1.6251905637,-3.4845457796\H,0.7279538495,-0.0375719622,-4.2700788565\
 H,-0.5915092512,0.7133470774,-3.3633859089\H,0.837495122,0.9755704316,
 -1.5007381829\H,6.2190967719,1.6205275537,4.0715069772\\Version=ES64L-
 G09RevD.01\HF=-2167.6182421\RMSD=7.508e-09\RMSF=2.547e-06\Dipole=-2.13
 04294,-0.1388036,1.1226003\Quadrupole=-12.7199145,3.9676294,8.7522852,
 0.5964356,21.9875946,2.6628359\PG=C01 [X(C19H25F10N1O5)]\\@

 Writing a WFN file to "cytopopt/EHOPA1/EHOPA1_neu.wfn"


 THERE IS NO CURE FOR BIRTH AND DEATH SAVE TO ENJOY THE INTERVAL.

                               -- GEORGE SANTAYANA
 Job cpu time:       0 days 15 hours 27 minutes  5.7 seconds.
 File lengths (MBytes):  RWF=    819 Int=      0 D2E=      0 Chk=     35 Scr=      1
 Normal termination of Gaussian 09 at Wed Feb  5 02:04:29 2025.
