 Entering Gaussian System, Link 0=g09
 Initial command:
 /home/k0335/k033513/app/g09/l1.exe "/home/k0335/k033513/app/g09/scratch/Gau-562830.inp" -scrdir="/home/k0335/k033513/app/g09/scratch/"
 Default is to use a total of  36 processors:
                               36 via shared-memory
                                1 via Linda
 Entering Link 1 = /home/k0335/k033513/app/g09/l1.exe PID=    562831.
  
 Copyright (c) 1988,1990,1992,1993,1995,1998,2003,2009,2013,
            Gaussian, Inc.  All Rights Reserved.
  
 This is part of the Gaussian(R) 09 program.  It is based on
 the Gaussian(R) 03 system (copyright 2003, Gaussian, Inc.),
 the Gaussian(R) 98 system (copyright 1998, Gaussian, Inc.),
 the Gaussian(R) 94 system (copyright 1995, Gaussian, Inc.),
 the Gaussian 92(TM) system (copyright 1992, Gaussian, Inc.),
 the Gaussian 90(TM) system (copyright 1990, Gaussian, Inc.),
 the Gaussian 88(TM) system (copyright 1988, Gaussian, Inc.),
 the Gaussian 86(TM) system (copyright 1986, Carnegie Mellon
 University), and the Gaussian 82(TM) system (copyright 1983,
 Carnegie Mellon University). Gaussian is a federally registered
 trademark of Gaussian, Inc.
  
 This software contains proprietary and confidential information,
 including trade secrets, belonging to Gaussian, Inc.
  
 This software is provided under written license and may be
 used, copied, transmitted, or stored only in accord with that
 written license.
  
 The following legend is applicable only to US Government
 contracts under FAR:
  
                    RESTRICTED RIGHTS LEGEND
  
 Use, reproduction and disclosure by the US Government is
 subject to restrictions as set forth in subparagraphs (a)
 and (c) of the Commercial Computer Software - Restricted
 Rights clause in FAR 52.227-19.
  
 Gaussian, Inc.
 340 Quinnipiac St., Bldg. 40, Wallingford CT 06492
  
  
 ---------------------------------------------------------------
 Warning -- This program may not be used in any manner that
 competes with the business of Gaussian, Inc. or will provide
 assistance to any competitor of Gaussian, Inc.  The licensee
 of this program is prohibited from giving any competitor of
 Gaussian, Inc. access to this program.  By using this program,
 the user acknowledges that Gaussian, Inc. is engaged in the
 business of creating and licensing software in the field of
 computational chemistry and represents and warrants to the
 licensee that it is not a competitor of Gaussian, Inc. and that
 it will not use this program in any manner prohibited above.
 ---------------------------------------------------------------
  

 Cite this work as:
 Gaussian 09, Revision D.01,
 M. J. Frisch, G. W. Trucks, H. B. Schlegel, G. E. Scuseria, 
 M. A. Robb, J. R. Cheeseman, G. Scalmani, V. Barone, B. Mennucci, 
 G. A. Petersson, H. Nakatsuji, M. Caricato, X. Li, H. P. Hratchian, 
 A. F. Izmaylov, J. Bloino, G. Zheng, J. L. Sonnenberg, M. Hada, 
 M. Ehara, K. Toyota, R. Fukuda, J. Hasegawa, M. Ishida, T. Nakajima, 
 Y. Honda, O. Kitao, H. Nakai, T. Vreven, J. A. Montgomery, Jr., 
 J. E. Peralta, F. Ogliaro, M. Bearpark, J. J. Heyd, E. Brothers, 
 K. N. Kudin, V. N. Staroverov, T. Keith, R. Kobayashi, J. Normand, 
 K. Raghavachari, A. Rendell, J. C. Burant, S. S. Iyengar, J. Tomasi, 
 M. Cossi, N. Rega, J. M. Millam, M. Klene, J. E. Knox, J. B. Cross, 
 V. Bakken, C. Adamo, J. Jaramillo, R. Gomperts, R. E. Stratmann, 
 O. Yazyev, A. J. Austin, R. Cammi, C. Pomelli, J. W. Ochterski, 
 R. L. Martin, K. Morokuma, V. G. Zakrzewski, G. A. Voth, 
 P. Salvador, J. J. Dannenberg, S. Dapprich, A. D. Daniels, 
 O. Farkas, J. B. Foresman, J. V. Ortiz, J. Cioslowski, 
 and D. J. Fox, Gaussian, Inc., Wallingford CT, 2013.
 
 ******************************************
 Gaussian 09:  ES64L-G09RevD.01 24-Apr-2013
                 4-Mar-2024 
 ******************************************
 %nprocshared=24
 Will use up to   24 processors via shared memory.
 %mem=40GB
 %rwf=A22933600/A22933600_0.rwf
 %nosave
 %chk=A22933600/A22933600_0.chk
 ----------------------------------------------------------------------
 #p CAM-B3LYP/6-31G(d,p) SCRF=(PCM,Solvent=Generic,Read) NoSymm out=wfn
 ----------------------------------------------------------------------
 1/38=1,40=2/1;
 2/12=2,15=1,17=6,18=5,40=1/2;
 3/5=1,6=6,7=101,11=2,16=1,25=1,30=1,70=2203,72=-2,74=-40/1,2,3;
 4//1;
 5/5=2,38=5/2;
 6/7=2,8=2,9=2,10=2,28=1/1;
 99/5=1,6=100,9=1/99;
 Leave Link    1 at Mon Mar  4 23:09:17 2024, MaxMem=  5368709120 cpu:         0.8
 (Enter /home/k0335/k033513/app/g09/l101.exe)
 -----------------
 Title A22933600_0
 -----------------
 Symbolic Z-matrix:
 Charge =  0 Multiplicity = 1
 C                    -5.62268   1.57555  -0.07227 
 C                    -5.45592   0.26381   0.14313 
 C                    -4.79656  -0.68019  -0.82465 
 N                    -3.47865  -1.03245  -0.31604 
 C                    -2.39761  -0.27575  -0.74437 
 O                    -2.50303   0.6347   -1.56683 
 C                    -1.07074  -0.63049  -0.15496 
 C                    -0.02687   0.14393  -0.52278 
 C                     1.36285   0.05823  -0.11344 
 C                     2.30617   0.88609  -0.59328 
 C                     3.72355   0.84337  -0.20015 
 C                     4.44854   2.04207  -0.15707 
 C                     5.80389   2.04444   0.18313 
 C                     6.45215   0.84624   0.47325 
 C                     5.7474   -0.35412   0.41875 
 C                     4.39175  -0.35647   0.07871 
 C                    -0.97748  -1.78093   0.77083 
 O                     0.0538   -2.18168   1.29692 
 N                    -2.15675  -2.4154    1.02214 
 C                    -3.39483  -2.09777   0.5545 
 O                    -4.35939  -2.76474   0.92555 
 H                    -5.26002   2.05464  -0.97791 
 H                    -6.11861   2.20275   0.66232 
 H                    -5.83708  -0.17384   1.06407 
 H                    -5.4168   -1.57749  -0.93186 
 H                    -4.71504  -0.23012  -1.82064 
 H                    -0.21902   0.96208  -1.2207 
 H                     1.64177  -0.6921    0.62047 
 H                     2.04726   1.6642   -1.30824 
 H                     3.96159   2.98886  -0.37957 
 H                     6.352     2.98217   0.22056 
 H                     7.5063    0.84708   0.73753 
 H                     6.25208  -1.29175   0.63668 
 H                     3.86943  -1.30879   0.02658 
 H                    -2.11343  -3.19614   1.66173 
 
 NAtoms=     35 NQM=       35 NQMF=       0 NMMI=      0 NMMIF=      0
                NMic=       0 NMicF=      0.
                    Isotopes and Nuclear Properties:
 (Nuclear quadrupole moments (NQMom) in fm**2, nuclear magnetic moments (NMagM)
  in nuclear magnetons)

  Atom         1           2           3           4           5           6           7           8           9          10
 IAtWgt=          12          12          12          14          12          16          12          12          12          12
 AtmWgt=  12.0000000  12.0000000  12.0000000  14.0030740  12.0000000  15.9949146  12.0000000  12.0000000  12.0000000  12.0000000
 NucSpn=           0           0           0           2           0           0           0           0           0           0
 AtZEff=   0.0000000   0.0000000   0.0000000   0.0000000   0.0000000   0.0000000   0.0000000   0.0000000   0.0000000   0.0000000
 NQMom=    0.0000000   0.0000000   0.0000000   2.0440000   0.0000000   0.0000000   0.0000000   0.0000000   0.0000000   0.0000000
 NMagM=    0.0000000   0.0000000   0.0000000   0.4037610   0.0000000   0.0000000   0.0000000   0.0000000   0.0000000   0.0000000
 AtZNuc=   6.0000000   6.0000000   6.0000000   7.0000000   6.0000000   8.0000000   6.0000000   6.0000000   6.0000000   6.0000000

  Atom        11          12          13          14          15          16          17          18          19          20
 IAtWgt=          12          12          12          12          12          12          12          16          14          12
 AtmWgt=  12.0000000  12.0000000  12.0000000  12.0000000  12.0000000  12.0000000  12.0000000  15.9949146  14.0030740  12.0000000
 NucSpn=           0           0           0           0           0           0           0           0           2           0
 AtZEff=   0.0000000   0.0000000   0.0000000   0.0000000   0.0000000   0.0000000   0.0000000   0.0000000   0.0000000   0.0000000
 NQMom=    0.0000000   0.0000000   0.0000000   0.0000000   0.0000000   0.0000000   0.0000000   0.0000000   2.0440000   0.0000000
 NMagM=    0.0000000   0.0000000   0.0000000   0.0000000   0.0000000   0.0000000   0.0000000   0.0000000   0.4037610   0.0000000
 AtZNuc=   6.0000000   6.0000000   6.0000000   6.0000000   6.0000000   6.0000000   6.0000000   8.0000000   7.0000000   6.0000000

  Atom        21          22          23          24          25          26          27          28          29          30
 IAtWgt=          16           1           1           1           1           1           1           1           1           1
 AtmWgt=  15.9949146   1.0078250   1.0078250   1.0078250   1.0078250   1.0078250   1.0078250   1.0078250   1.0078250   1.0078250
 NucSpn=           0           1           1           1           1           1           1           1           1           1
 AtZEff=   0.0000000   0.0000000   0.0000000   0.0000000   0.0000000   0.0000000   0.0000000   0.0000000   0.0000000   0.0000000
 NQMom=    0.0000000   0.0000000   0.0000000   0.0000000   0.0000000   0.0000000   0.0000000   0.0000000   0.0000000   0.0000000
 NMagM=    0.0000000   2.7928460   2.7928460   2.7928460   2.7928460   2.7928460   2.7928460   2.7928460   2.7928460   2.7928460
 AtZNuc=   8.0000000   1.0000000   1.0000000   1.0000000   1.0000000   1.0000000   1.0000000   1.0000000   1.0000000   1.0000000

  Atom        31          32          33          34          35
 IAtWgt=           1           1           1           1           1
 AtmWgt=   1.0078250   1.0078250   1.0078250   1.0078250   1.0078250
 NucSpn=           1           1           1           1           1
 AtZEff=   0.0000000   0.0000000   0.0000000   0.0000000   0.0000000
 NQMom=    0.0000000   0.0000000   0.0000000   0.0000000   0.0000000
 NMagM=    2.7928460   2.7928460   2.7928460   2.7928460   2.7928460
 AtZNuc=   1.0000000   1.0000000   1.0000000   1.0000000   1.0000000
 Leave Link  101 at Mon Mar  4 23:09:17 2024, MaxMem=  5368709120 cpu:         1.0
 (Enter /home/k0335/k033513/app/g09/l202.exe)
                          Input orientation:                          
 ---------------------------------------------------------------------
 Center     Atomic      Atomic             Coordinates (Angstroms)
 Number     Number       Type             X           Y           Z
 ---------------------------------------------------------------------
      1          6           0       -5.622681    1.575552   -0.072266
      2          6           0       -5.455917    0.263809    0.143129
      3          6           0       -4.796562   -0.680192   -0.824645
      4          7           0       -3.478651   -1.032447   -0.316035
      5          6           0       -2.397610   -0.275748   -0.744370
      6          8           0       -2.503032    0.634704   -1.566827
      7          6           0       -1.070738   -0.630488   -0.154961
      8          6           0       -0.026874    0.143929   -0.522776
      9          6           0        1.362845    0.058231   -0.113439
     10          6           0        2.306169    0.886094   -0.593279
     11          6           0        3.723550    0.843365   -0.200148
     12          6           0        4.448542    2.042069   -0.157074
     13          6           0        5.803886    2.044440    0.183128
     14          6           0        6.452154    0.846244    0.473247
     15          6           0        5.747395   -0.354118    0.418747
     16          6           0        4.391745   -0.356473    0.078707
     17          6           0       -0.977484   -1.780926    0.770825
     18          8           0        0.053795   -2.181677    1.296923
     19          7           0       -2.156748   -2.415400    1.022143
     20          6           0       -3.394826   -2.097772    0.554501
     21          8           0       -4.359390   -2.764743    0.925549
     22          1           0       -5.260025    2.054643   -0.977909
     23          1           0       -6.118609    2.202751    0.662323
     24          1           0       -5.837081   -0.173843    1.064074
     25          1           0       -5.416800   -1.577487   -0.931863
     26          1           0       -4.715036   -0.230118   -1.820641
     27          1           0       -0.219015    0.962078   -1.220699
     28          1           0        1.641767   -0.692097    0.620466
     29          1           0        2.047260    1.664195   -1.308244
     30          1           0        3.961590    2.988860   -0.379566
     31          1           0        6.351995    2.982172    0.220555
     32          1           0        7.506302    0.847079    0.737533
     33          1           0        6.252075   -1.291753    0.636683
     34          1           0        3.869434   -1.308793    0.026581
     35          1           0       -2.113428   -3.196141    1.661733
 ---------------------------------------------------------------------
                    Distance matrix (angstroms):
                    1          2          3          4          5
     1  C    0.000000
     2  C    1.339729   0.000000
     3  C    2.517326   1.504152   0.000000
     4  N    3.384959   2.408463   1.455904   0.000000
     5  C    3.778904   3.229863   2.434130   1.387341   0.000000
     6  O    3.584846   3.432352   2.745918   2.301240   1.231451
     7  C    5.059015   4.485356   3.785857   2.446541   1.494601
     8  C    5.793579   5.471043   4.849765   3.652584   2.417772
     9  C    7.148534   6.826683   6.244147   4.966962   3.827615
    10  C    7.975805   7.821733   7.277058   6.100968   4.847499
    11  C    9.375739   9.204148   8.677761   7.443373   6.246374
    12  C   10.082379  10.067305   9.660658   8.504017   7.251689
    13  C   11.439035  11.399799  10.991302   9.791930   8.573684
    14  C   12.109134  11.926876  11.425767  10.137718   9.003321
    15  C   11.543108  11.223725  10.622023   9.280084   8.228006
    16  C   10.200208   9.867388   9.238280   7.909228   6.839540
    17  C    5.792633   4.962994   4.282814   2.827954   2.564787
    18  O    6.943618   6.137473   5.502860   4.049758   3.716023
    19  N    5.397974   4.339970   3.659261   2.334675   2.785084
    20  C    4.341599   3.161390   2.424137   1.378324   2.449750
    21  O    4.629222   3.314616   2.756747   2.306097   3.582221
    22  H    1.086847   2.121836   2.778059   3.625120   3.698470
    23  H    1.085792   2.113816   3.502891   4.288714   4.686958
    24  H    2.097050   1.088561   2.215023   2.864279   3.887263
    25  H    3.274591   2.132489   1.096052   2.105406   3.293203
    26  H    2.672280   2.156215   1.096002   2.106233   2.555563
    27  H    5.558314   5.456441   4.879328   3.927057   2.550564
    28  H    7.641617   7.177655   6.598528   5.216469   4.284004
    29  H    7.769395   7.769506   7.250374   6.228326   4.882438
    30  H    9.692787   9.817767   9.506065   8.457667   7.157526
    31  H   12.060563  12.117024  11.781158  10.632342   9.386198
    32  H   13.174090  12.988943  12.495336  11.194276  10.076917
    33  H   12.236579  11.821186  11.161625   9.780692   8.817972
    34  H    9.921162   9.457739   8.730361   7.361257   6.398233
    35  H    6.171763   5.044764   4.439739   3.233724   3.794573
                    6          7          8          9         10
     6  O    0.000000
     7  C    2.376035   0.000000
     8  C    2.731714   1.350800   0.000000
     9  C    4.170091   2.529503   1.451282   0.000000
    10  C    4.913187   3.727686   2.449259   1.343675   0.000000
    11  C    6.378219   5.015923   3.828705   2.489354   1.471512
    12  C    7.231353   6.132293   4.875041   3.668657   2.473118
    13  C    8.605497   7.384443   6.173168   4.873995   3.765448
    14  C    9.187057   7.692157   6.592656   5.183265   4.281151
    15  C    8.543408   6.847807   5.871686   4.435936   3.795307
    16  C    7.157385   5.474341   4.487358   3.063190   2.518961
    17  C    3.691501   1.479623   2.506418   3.105086   4.444789
    18  O    4.761348   2.403899   2.954024   2.952951   4.249385
    19  N    4.015696   2.398104   3.670600   4.449262   5.781616
    20  C    3.572360   2.838599   4.186747   5.265921   6.536222
    21  O    4.605892   4.066667   5.415599   6.464724   7.750169
    22  H    3.156590   5.043540   5.589619   6.971038   7.665555
    23  H    4.527723   5.846041   6.538535   7.821312   8.618991
    24  H    4.323340   4.940911   6.031383   7.299269   8.377518
    25  H    3.713087   4.515378   5.672912   7.022035   8.113453
    26  H    2.388577   4.026871   4.878855   6.319677   7.214545
    27  H    2.333176   2.097021   1.092420   2.131958   2.603072
    28  H    4.870730   2.821837   2.188676   1.086005   2.098879
    29  H    4.672459   4.039498   2.688903   2.115444   1.087957
    30  H    6.981617   6.202778   4.901223   3.925925   2.684719
    31  H    9.333640   8.263733   7.021263   5.792461   4.628669
    32  H   10.273361   8.749021   7.670172   6.252080   5.367864
    33  H    9.231392   7.395104   6.544519   5.127349   4.671830
    34  H    6.850143   4.989825   4.194450   2.858557   2.765059
    35  H    5.025014   3.312122   4.503538   5.081992   6.425151
                   11         12         13         14         15
    11  C    0.000000
    12  C    1.401556   0.000000
    13  C    2.432546   1.397391   0.000000
    14  C    2.810471   2.416974   1.392873   0.000000
    15  C    2.431655   2.785732   2.410765   1.393027   0.000000
    16  C    1.401376   2.410772   2.787370   2.418155   1.397648
    17  C    5.470778   6.702093   7.808059   7.886070   6.883585
    18  O    4.985900   6.266414   7.222475   7.126412   6.043860
    19  N    6.833114   8.055398   9.163286   9.222408   8.190754
    20  C    7.738931   8.897362  10.095154  10.277979   9.308005
    21  O    8.922979  10.092432  11.268168  11.407598  10.402647
    22  H    9.098172   9.743213  11.124668  11.863440  11.354121
    23  H    9.972957  10.600090  11.933171  12.645155  12.140797
    24  H    9.697352  10.592238  11.883138  12.345645  11.603837
    25  H    9.483772  10.536909  11.843368  12.195117  11.311942
    26  H    8.659567   9.586524  10.946982  11.451053  10.700126
    27  H    4.074241   4.907521   6.278342   6.883848   6.325994
    28  H    2.713830   3.994774   5.000313   5.052523   4.124452
    29  H    2.170619   2.689635   4.059682   4.821395   4.554897
    30  H    2.166103   1.087676   2.145369   3.394260   3.873229
    31  H    3.414705   2.156277   1.086814   2.153154   3.396418
    32  H    3.897239   3.402678   2.153894   1.086773   2.153660
    33  H    3.413569   3.872615   3.396582   2.153549   1.086903
    34  H    2.168980   3.405491   3.874375   3.393249   2.142880
    35  H    7.338564   8.591062   9.609049   9.545814   8.450719
                   16         17         18         19         20
    16  C    0.000000
    17  C    5.597920   0.000000
    18  O    4.861402   1.225119   0.000000
    19  N    6.929070   1.362491   2.239784   0.000000
    20  C    7.993071   2.447597   3.528628   1.361034   0.000000
    21  O    9.115880   3.525496   4.467000   2.232264   1.230004
    22  H   10.004328   6.009144   7.166446   5.797570   4.803103
    23  H   10.833179   6.504815   7.597664   6.095337   5.091671
    24  H   10.277801   5.126831   6.228004   4.309430   3.150520
    25  H    9.935778   4.758998   5.938008   3.892066   2.562880
    26  H    9.303599   4.805205   6.022420   4.404738   3.297330
    27  H    4.968515   3.473545   4.036836   4.493607   4.753924
    28  H    2.822858   2.840534   2.279934   4.190446   5.229488
    29  H    3.391658   5.033931   5.054852   6.304560   6.873028
    30  H    3.403866   6.961947   6.694470   8.282806   8.992395
    31  H    3.874178   8.758491   8.215304  10.108167  10.996266
    32  H    3.403389   8.881562   8.063879  10.202907  11.293371
    33  H    2.155670   7.247331   6.296551   8.492318   9.680864
    34  H    1.087400   4.926401   4.115191   6.207302   7.326026
    35  H    7.272342   2.021613   2.420553   1.010202   2.018504
                   21         22         23         24         25
    21  O    0.000000
    22  H    5.259351   0.000000
    23  H    5.276375   1.857273   0.000000
    24  H    2.985887   3.077148   2.426698   0.000000
    25  H    2.444928   3.635803   4.162231   2.476008   0.000000
    26  H    3.753980   2.495464   3.748864   3.095760   1.760057
    27  H    5.969781   5.163761   6.315873   6.170346   5.792218
    28  H    6.356321   7.598297   8.282834   7.509896   7.281278
    29  H    8.102499   7.325161   8.417517   8.436179   8.146309
    30  H   10.200293   9.288108  10.164345  10.397151  10.445609
    31  H   12.176117  11.710492  12.502745  12.619252  12.673717
    32  H   12.404647  12.937544  13.692396  13.386365  13.254130
    33  H   10.717105  12.096848  12.854806  12.148254  11.777293
    34  H    8.404848   9.781039  10.606418   9.827560   9.339430
    35  H    2.402585   6.666297   6.796200   4.832916   4.501005
                   26         27         28         29         30
    26  H    0.000000
    27  H    4.689932   0.000000
    28  H    6.825055   3.096562   0.000000
    29  H    7.041280   2.374160   3.071882   0.000000
    30  H    9.366021   4.721526   4.464425   2.506360   0.000000
    31  H   11.703182   7.023971   5.987189   4.754475   2.464594
    32  H   12.532586   7.970472   6.064284   5.886767   4.289536
    33  H   11.289067   7.099622   4.649171   5.495529   4.960114
    34  H    8.846971   4.840246   2.386528   3.733729   4.317785
    35  H    5.262374   5.402592   4.632058   7.053719   8.906570
                   31         32         33         34         35
    31  H    0.000000
    32  H    2.481595   0.000000
    33  H    4.295298   2.481503   0.000000
    34  H    4.961161   4.287196   2.459572   0.000000
    35  H   10.578844  10.475733   8.640548   6.483089   0.000000
 Symmetry turned off by external request.
 Stoichiometry    C16H14N2O3
 Framework group  C1[X(C16H14N2O3)]
 Deg. of freedom    99
 Full point group                 C1      NOp   1
 Rotational constants (GHZ):      0.8149854      0.1144963      0.1033186
 Leave Link  202 at Mon Mar  4 23:09:17 2024, MaxMem=  5368709120 cpu:         0.1
 (Enter /home/k0335/k033513/app/g09/l301.exe)
 Standard basis: 6-31G(d,p) (6D, 7F)
 Ernie: Thresh=  0.10000D-02 Tol=  0.10000D-05 Strict=F.
   385 basis functions,   686 primitive gaussians,   385 cartesian basis functions
    74 alpha electrons       74 beta electrons
       nuclear repulsion energy      1493.1178520786 Hartrees.
 IExCor=20419 DFT=T Ex+Corr=CAM-B3LYP ExCW=0 ScaHFX=  1.000000
 ScaDFX=  1.000000  1.000000  1.000000  0.810000 ScalE2=  1.000000  1.000000
 IRadAn=      0 IRanWt=     -1 IRanGd=            0 ICorTp=0 IEmpDi=  4
  HFx wShort=  0.000000 wLong=  0.330000 cFull=  0.190000 cShort=  0.000000 cLong=  0.460000
  DFx wShort=  0.000000 wLong=  0.330000 cFull=  0.190000 cShort=  0.000000 cLong=  0.460000
 NAtoms=   35 NActive=   35 NUniq=   35 SFac= 1.00D+00 NAtFMM=   60 NAOKFM=F Big=F
 Integral buffers will be    131072 words long.
 Raffenetti 2 integral format.
 Two-electron integral symmetry is turned off.
 Using the following non-standard input for PCM:
 eps=2.05
 --- end of non-standard input.
 ------------------------------------------------------------------------------
 Polarizable Continuum Model (PCM)
 =================================
 Model                : PCM (using non-symmetric T matrix).
 Atomic radii         : UFF (Universal Force Field).
 Polarization charges : Total charges.
 Charge compensation  : None.
 Solution method      : On-the-fly selection.
 Cavity type          : Scaled VdW (van der Waals Surface) (Alpha=1.100).
 Cavity algorithm     : GePol (No added spheres)
                        Default sphere list used, NSphG=   35.
                        Lebedev-Laikov grids with approx.  5.0 points / Ang**2.
                        Smoothing algorithm: Karplus/York (Gamma=1.0000).
                        Polarization charges: spherical gaussians, with
                                              point-specific exponents (IZeta= 3).
                        Self-potential: point-specific (ISelfS= 7).
                        Self-field    : sphere-specific E.n sum rule (ISelfD= 2).
 Solvent              : Generic,
                        Eps                           =   2.050000
                        Eps(infinity)                 =   0.000000
                        RSolv                         =   0.000000 Ang.
                        Molar volume                  =   0.000000 cm**3/mol
                        Thermal expansion coefficient =   0.000000 K**-1
                        Absolute temperature          = 298.150000 K
                        Numeral density               =   0.000000 Ang**-3
                        Hydrogen bond acidity         =   0.000000
                        Hydrogen bond basicity        =   0.000000
                        Surface tension at interface  =   0.000000 (cal/mol)*Ang**-2
                        Carbon aromaticity            =   0.000000
                        Electronegative halogenicity  =   0.000000
 ------------------------------------------------------------------------------
 GePol: Number of generator spheres                  =      35
 GePol: Total number of spheres                      =      35
 GePol: Number of exposed spheres                    =      35 (100.00%)
 GePol: Number of points                             =    2767
 GePol: Average weight of points                     =       0.13
 GePol: Minimum weight of points                     =   0.62D-09
 GePol: Maximum weight of points                     =    0.20577
 GePol: Number of points with low weight             =     164
 GePol: Fraction of low-weight points (<1% of avg)   =       5.93%
 GePol: Cavity surface area                          =    363.384 Ang**2
 GePol: Cavity volume                                =    388.661 Ang**3
 Leave Link  301 at Mon Mar  4 23:09:17 2024, MaxMem=  5368709120 cpu:         0.9
 (Enter /home/k0335/k033513/app/g09/l302.exe)
 NPDir=0 NMtPBC=     1 NCelOv=     1 NCel=       1 NClECP=     1 NCelD=      1
         NCelK=      1 NCelE2=     1 NClLst=     1 CellRange=     0.0.
 One-electron integrals computed using PRISM.
 NBasis=   385 RedAO= T EigKep=  4.58D-04  NBF=   385
 NBsUse=   385 1.00D-06 EigRej= -1.00D+00 NBFU=   385
 Precomputing XC quadrature grid using
 IXCGrd= 4 IRadAn=           0 IRanWt=          -1 IRanGd=           0 AccXCQ= 0.00D+00.
 Generated NRdTot=       0 NPtTot=           0 NUsed=           0 NTot=          32
 NSgBfM=   370   371   371   371   371 MxSgAt=    35 MxSgA2=    35.
 Leave Link  302 at Mon Mar  4 23:09:18 2024, MaxMem=  5368709120 cpu:         6.1
 (Enter /home/k0335/k033513/app/g09/l303.exe)
 DipDrv:  MaxL=1.
 Leave Link  303 at Mon Mar  4 23:09:19 2024, MaxMem=  5368709120 cpu:         0.6
 (Enter /home/k0335/k033513/app/g09/l401.exe)
 ExpMin= 1.61D-01 ExpMax= 5.48D+03 ExpMxC= 8.25D+02 IAcc=1 IRadAn=         1 AccDes= 0.00D+00
 Harris functional with IExCor=20419 and IRadAn=       1 diagonalized for initial guess.
 HarFok:  IExCor=20419 AccDes= 0.00D+00 IRadAn=         1 IDoV= 1 UseB2=F ITyADJ=14
 ICtDFT=  3500011 ScaDFX=  1.000000  1.000000  1.000000  1.000000
 FoFCou: FMM=F IPFlag=           0 FMFlag=      100000 FMFlg1=           0
         NFxFlg=           0 DoJE=T BraDBF=F KetDBF=T FulRan=T
         wScrn=  0.000000 ICntrl=     500 IOpCl=  0 I1Cent=   200000004 NGrid=           0
         NMat0=    1 NMatS0=      1 NMatT0=    0 NMatD0=    1 NMtDS0=    0 NMtDT0=    0
 Symmetry not used in FoFCou.
 Harris En= -916.929068773449    
 JPrj=0 DoOrth=F DoCkMO=F.
 Leave Link  401 at Mon Mar  4 23:09:20 2024, MaxMem=  5368709120 cpu:         6.4
 (Enter /home/k0335/k033513/app/g09/l502.exe)
 Closed shell SCF:
 Using DIIS extrapolation, IDIIS=  1040.
 Two-electron integral symmetry not used.
 IVT=      474845 IEndB=      474845 NGot=  5368709120 MDV=  5368399526
 LenX=  5368399526 LenY=  5368250860
 Requested convergence on RMS density matrix=1.00D-08 within 128 cycles.
 Requested convergence on MAX density matrix=1.00D-06.
 Requested convergence on             energy=1.00D-06.
 No special actions if energy rises.
 Fock matrices will be formed incrementally for  20 cycles.

 Cycle   1  Pass 1  IDiag  1:
 FoFJK:  IHMeth= 1 ICntrl=       0 DoSepK=T KAlg= 0 I1Cent=   0 FoldK=F
 IRaf=         1 NMat=   1 IRICut=       1 DoRegI=T DoRafI=F ISym2E= 0.
 FoFCou: FMM=F IPFlag=           0 FMFlag=      100000 FMFlg1=           0
         NFxFlg=           0 DoJE=T BraDBF=F KetDBF=F FulRan=T
         wScrn=  0.000000 ICntrl=     500 IOpCl=  0 I1Cent=           0 NGrid=           0
         NMat0=    1 NMatS0=      1 NMatT0=    0 NMatD0=    1 NMtDS0=    0 NMtDT0=    0
 Symmetry not used in FoFCou.
 Inv3:  Mode=1 IEnd=    22968867.
 Iteration    1 A*A^-1 deviation from unit magnitude is 5.22D-15 for   2762.
 Iteration    1 A*A^-1 deviation from orthogonality  is 2.72D-15 for   2767    801.
 Iteration    1 A^-1*A deviation from unit magnitude is 4.88D-15 for   2762.
 Iteration    1 A^-1*A deviation from orthogonality  is 1.33D-15 for   2759   2606.
 E= -952.638765231339    
 DIIS: error= 5.95D-02 at cycle   1 NSaved=   1.
 NSaved= 1 IEnMin= 1 EnMin= -952.638765231339     IErMin= 1 ErrMin= 5.95D-02
 ErrMax= 5.95D-02  0.00D+00 EMaxC= 1.00D-01 BMatC= 7.02D-01 BMatP= 7.02D-01
 IDIUse=3 WtCom= 4.05D-01 WtEn= 5.95D-01
 Coeff-Com:  0.100D+01
 Coeff-En:   0.100D+01
 Coeff:      0.100D+01
 Gap=     0.388 Goal=   None    Shift=    0.000
 GapD=    0.388 DampG=1.000 DampE=0.500 DampFc=0.5000 IDamp=-1.
 Damping current iteration by 5.00D-01
 RMSDP=2.75D-03 MaxDP=1.43D-01              OVMax= 1.30D-01

 Cycle   2  Pass 1  IDiag  1:
 RMSU=  1.38D-03    CP:  1.00D+00
 E= -952.740932168340     Delta-E=       -0.102166937002 Rises=F Damp=T
 DIIS: error= 3.05D-02 at cycle   2 NSaved=   2.
 NSaved= 2 IEnMin= 2 EnMin= -952.740932168340     IErMin= 2 ErrMin= 3.05D-02
 ErrMax= 3.05D-02  0.00D+00 EMaxC= 1.00D-01 BMatC= 1.51D-01 BMatP= 7.02D-01
 IDIUse=3 WtCom= 6.95D-01 WtEn= 3.05D-01
 Coeff-Com: -0.385D+00 0.139D+01
 Coeff-En:   0.000D+00 0.100D+01
 Coeff:     -0.268D+00 0.127D+01
 Gap=     0.261 Goal=   None    Shift=    0.000
 RMSDP=1.21D-03 MaxDP=6.47D-02 DE=-1.02D-01 OVMax= 1.32D-01

 Cycle   3  Pass 1  IDiag  1:
 RMSU=  1.21D-03    CP:  9.98D-01  1.01D+00
 E= -952.793853110544     Delta-E=       -0.052920942203 Rises=F Damp=F
 DIIS: error= 1.10D-02 at cycle   3 NSaved=   3.
 NSaved= 3 IEnMin= 3 EnMin= -952.793853110544     IErMin= 3 ErrMin= 1.10D-02
 ErrMax= 1.10D-02  0.00D+00 EMaxC= 1.00D-01 BMatC= 9.57D-02 BMatP= 1.51D-01
 IDIUse=3 WtCom= 8.90D-01 WtEn= 1.10D-01
 Coeff-Com: -0.345D+00 0.781D+00 0.564D+00
 Coeff-En:   0.000D+00 0.163D+00 0.837D+00
 Coeff:     -0.307D+00 0.713D+00 0.594D+00
 Gap=     0.231 Goal=   None    Shift=    0.000
 RMSDP=8.68D-04 MaxDP=6.44D-02 DE=-5.29D-02 OVMax= 5.88D-02

 Cycle   4  Pass 1  IDiag  1:
 RMSU=  4.25D-04    CP:  1.00D+00  1.36D+00  5.17D-01
 E= -952.862527318318     Delta-E=       -0.068674207775 Rises=F Damp=F
 DIIS: error= 3.98D-03 at cycle   4 NSaved=   4.
 NSaved= 4 IEnMin= 4 EnMin= -952.862527318318     IErMin= 4 ErrMin= 3.98D-03
 ErrMax= 3.98D-03  0.00D+00 EMaxC= 1.00D-01 BMatC= 9.86D-03 BMatP= 9.57D-02
 IDIUse=3 WtCom= 9.60D-01 WtEn= 3.98D-02
 Coeff-Com: -0.143D+00 0.295D+00 0.331D+00 0.517D+00
 Coeff-En:   0.000D+00 0.000D+00 0.380D-01 0.962D+00
 Coeff:     -0.137D+00 0.283D+00 0.320D+00 0.534D+00
 Gap=     0.225 Goal=   None    Shift=    0.000
 RMSDP=2.64D-04 MaxDP=1.46D-02 DE=-6.87D-02 OVMax= 1.49D-02

 Cycle   5  Pass 1  IDiag  1:
 RMSU=  9.28D-05    CP:  1.00D+00  1.34D+00  6.45D-01  5.54D-01
 E= -952.869563770511     Delta-E=       -0.007036452192 Rises=F Damp=F
 DIIS: error= 5.57D-04 at cycle   5 NSaved=   5.
 NSaved= 5 IEnMin= 5 EnMin= -952.869563770511     IErMin= 5 ErrMin= 5.57D-04
 ErrMax= 5.57D-04  0.00D+00 EMaxC= 1.00D-01 BMatC= 1.88D-04 BMatP= 9.86D-03
 IDIUse=3 WtCom= 9.94D-01 WtEn= 5.57D-03
 Coeff-Com: -0.494D-01 0.100D+00 0.118D+00 0.240D+00 0.590D+00
 Coeff-En:   0.000D+00 0.000D+00 0.000D+00 0.000D+00 0.100D+01
 Coeff:     -0.492D-01 0.998D-01 0.118D+00 0.239D+00 0.593D+00
 Gap=     0.225 Goal=   None    Shift=    0.000
 RMSDP=3.90D-05 MaxDP=2.27D-03 DE=-7.04D-03 OVMax= 2.89D-03

 Cycle   6  Pass 1  IDiag  1:
 RMSU=  3.05D-05    CP:  1.00D+00  1.34D+00  6.41D-01  6.02D-01  8.72D-01
 E= -952.869711920986     Delta-E=       -0.000148150476 Rises=F Damp=F
 DIIS: error= 1.37D-04 at cycle   6 NSaved=   6.
 NSaved= 6 IEnMin= 6 EnMin= -952.869711920986     IErMin= 6 ErrMin= 1.37D-04
 ErrMax= 1.37D-04  0.00D+00 EMaxC= 1.00D-01 BMatC= 1.46D-05 BMatP= 1.88D-04
 IDIUse=3 WtCom= 9.99D-01 WtEn= 1.37D-03
 Coeff-Com:  0.130D-01-0.277D-01-0.283D-01-0.244D-01 0.220D+00 0.847D+00
 Coeff-En:   0.000D+00 0.000D+00 0.000D+00 0.000D+00 0.000D+00 0.100D+01
 Coeff:      0.130D-01-0.277D-01-0.283D-01-0.244D-01 0.220D+00 0.847D+00
 Gap=     0.226 Goal=   None    Shift=    0.000
 RMSDP=1.76D-05 MaxDP=6.43D-04 DE=-1.48D-04 OVMax= 1.75D-03

 Cycle   7  Pass 1  IDiag  1:
 RMSU=  1.10D-05    CP:  1.00D+00  1.34D+00  6.46D-01  6.10D-01  9.97D-01
                    CP:  9.16D-01
 E= -952.869731275004     Delta-E=       -0.000019354018 Rises=F Damp=F
 DIIS: error= 6.24D-05 at cycle   7 NSaved=   7.
 NSaved= 7 IEnMin= 7 EnMin= -952.869731275004     IErMin= 7 ErrMin= 6.24D-05
 ErrMax= 6.24D-05  0.00D+00 EMaxC= 1.00D-01 BMatC= 2.56D-06 BMatP= 1.46D-05
 IDIUse=1 WtCom= 1.00D+00 WtEn= 0.00D+00
 Coeff-Com:  0.780D-02-0.163D-01-0.169D-01-0.228D-01 0.626D-01 0.390D+00
 Coeff-Com:  0.596D+00
 Coeff:      0.780D-02-0.163D-01-0.169D-01-0.228D-01 0.626D-01 0.390D+00
 Coeff:      0.596D+00
 Gap=     0.226 Goal=   None    Shift=    0.000
 RMSDP=4.78D-06 MaxDP=3.05D-04 DE=-1.94D-05 OVMax= 5.06D-04

 Cycle   8  Pass 1  IDiag  1:
 RMSU=  3.91D-06    CP:  1.00D+00  1.34D+00  6.47D-01  6.10D-01  1.00D+00
                    CP:  9.90D-01  8.89D-01
 E= -952.869733671172     Delta-E=       -0.000002396167 Rises=F Damp=F
 DIIS: error= 2.05D-05 at cycle   8 NSaved=   8.
 NSaved= 8 IEnMin= 8 EnMin= -952.869733671172     IErMin= 8 ErrMin= 2.05D-05
 ErrMax= 2.05D-05  0.00D+00 EMaxC= 1.00D-01 BMatC= 3.43D-07 BMatP= 2.56D-06
 IDIUse=1 WtCom= 1.00D+00 WtEn= 0.00D+00
 Coeff-Com:  0.131D-02-0.260D-02-0.256D-02-0.760D-02-0.190D-01 0.384D-02
 Coeff-Com:  0.248D+00 0.778D+00
 Coeff:      0.131D-02-0.260D-02-0.256D-02-0.760D-02-0.190D-01 0.384D-02
 Coeff:      0.248D+00 0.778D+00
 Gap=     0.226 Goal=   None    Shift=    0.000
 RMSDP=2.45D-06 MaxDP=1.14D-04 DE=-2.40D-06 OVMax= 3.08D-04

 Cycle   9  Pass 1  IDiag  1:
 RMSU=  1.26D-06    CP:  1.00D+00  1.34D+00  6.47D-01  6.10D-01  1.01D+00
                    CP:  1.01D+00  1.03D+00  9.73D-01
 E= -952.869734073448     Delta-E=       -0.000000402276 Rises=F Damp=F
 DIIS: error= 4.65D-06 at cycle   9 NSaved=   9.
 NSaved= 9 IEnMin= 9 EnMin= -952.869734073448     IErMin= 9 ErrMin= 4.65D-06
 ErrMax= 4.65D-06  0.00D+00 EMaxC= 1.00D-01 BMatC= 3.00D-08 BMatP= 3.43D-07
 IDIUse=1 WtCom= 1.00D+00 WtEn= 0.00D+00
 Coeff-Com: -0.567D-03 0.122D-02 0.138D-02 0.426D-05-0.159D-01-0.484D-01
 Coeff-Com:  0.315D-01 0.304D+00 0.727D+00
 Coeff:     -0.567D-03 0.122D-02 0.138D-02 0.426D-05-0.159D-01-0.484D-01
 Coeff:      0.315D-01 0.304D+00 0.727D+00
 Gap=     0.226 Goal=   None    Shift=    0.000
 RMSDP=6.88D-07 MaxDP=3.12D-05 DE=-4.02D-07 OVMax= 8.85D-05

 Cycle  10  Pass 1  IDiag  1:
 RMSU=  4.42D-07    CP:  1.00D+00  1.34D+00  6.47D-01  6.10D-01  1.02D+00
                    CP:  1.02D+00  1.06D+00  1.05D+00  9.03D-01
 E= -952.869734111358     Delta-E=       -0.000000037910 Rises=F Damp=F
 DIIS: error= 1.74D-06 at cycle  10 NSaved=  10.
 NSaved=10 IEnMin=10 EnMin= -952.869734111358     IErMin=10 ErrMin= 1.74D-06
 ErrMax= 1.74D-06  0.00D+00 EMaxC= 1.00D-01 BMatC= 3.91D-09 BMatP= 3.00D-08
 IDIUse=1 WtCom= 1.00D+00 WtEn= 0.00D+00
 Coeff-Com: -0.386D-03 0.804D-03 0.867D-03 0.797D-03-0.448D-02-0.196D-01
 Coeff-Com: -0.963D-02 0.421D-01 0.314D+00 0.675D+00
 Coeff:     -0.386D-03 0.804D-03 0.867D-03 0.797D-03-0.448D-02-0.196D-01
 Coeff:     -0.963D-02 0.421D-01 0.314D+00 0.675D+00
 Gap=     0.226 Goal=   None    Shift=    0.000
 RMSDP=2.24D-07 MaxDP=7.94D-06 DE=-3.79D-08 OVMax= 2.42D-05

 Cycle  11  Pass 1  IDiag  1:
 RMSU=  1.62D-07    CP:  1.00D+00  1.34D+00  6.47D-01  6.10D-01  1.02D+00
                    CP:  1.02D+00  1.07D+00  1.06D+00  9.80D-01  9.49D-01
 E= -952.869734115617     Delta-E=       -0.000000004259 Rises=F Damp=F
 DIIS: error= 6.05D-07 at cycle  11 NSaved=  11.
 NSaved=11 IEnMin=11 EnMin= -952.869734115617     IErMin=11 ErrMin= 6.05D-07
 ErrMax= 6.05D-07  0.00D+00 EMaxC= 1.00D-01 BMatC= 3.22D-10 BMatP= 3.91D-09
 IDIUse=1 WtCom= 1.00D+00 WtEn= 0.00D+00
 Coeff-Com: -0.895D-04 0.184D-03 0.180D-03 0.272D-03-0.460D-04-0.239D-02
 Coeff-Com: -0.685D-02-0.189D-01 0.434D-01 0.244D+00 0.740D+00
 Coeff:     -0.895D-04 0.184D-03 0.180D-03 0.272D-03-0.460D-04-0.239D-02
 Coeff:     -0.685D-02-0.189D-01 0.434D-01 0.244D+00 0.740D+00
 Gap=     0.226 Goal=   None    Shift=    0.000
 RMSDP=8.01D-08 MaxDP=2.35D-06 DE=-4.26D-09 OVMax= 1.63D-05

 Cycle  12  Pass 1  IDiag  1:
 RMSU=  5.41D-08    CP:  1.00D+00  1.34D+00  6.47D-01  6.10D-01  1.02D+00
                    CP:  1.02D+00  1.07D+00  1.06D+00  1.00D+00  1.04D+00
                    CP:  9.26D-01
 E= -952.869734116140     Delta-E=       -0.000000000523 Rises=F Damp=F
 DIIS: error= 3.78D-07 at cycle  12 NSaved=  12.
 NSaved=12 IEnMin=12 EnMin= -952.869734116140     IErMin=12 ErrMin= 3.78D-07
 ErrMax= 3.78D-07  0.00D+00 EMaxC= 1.00D-01 BMatC= 4.85D-11 BMatP= 3.22D-10
 IDIUse=1 WtCom= 1.00D+00 WtEn= 0.00D+00
 Coeff-Com:  0.361D-05-0.870D-05-0.204D-04 0.179D-04 0.453D-03 0.106D-02
 Coeff-Com: -0.177D-02-0.116D-01-0.190D-01 0.630D-02 0.283D+00 0.742D+00
 Coeff:      0.361D-05-0.870D-05-0.204D-04 0.179D-04 0.453D-03 0.106D-02
 Coeff:     -0.177D-02-0.116D-01-0.190D-01 0.630D-02 0.283D+00 0.742D+00
 Gap=     0.226 Goal=   None    Shift=    0.000
 RMSDP=3.68D-08 MaxDP=1.05D-06 DE=-5.23D-10 OVMax= 4.64D-06

 Cycle  13  Pass 1  IDiag  1:
 RMSU=  2.29D-08    CP:  1.00D+00  1.34D+00  6.47D-01  6.10D-01  1.02D+00
                    CP:  1.02D+00  1.07D+00  1.07D+00  1.01D+00  1.06D+00
                    CP:  1.06D+00  9.89D-01
 E= -952.869734116248     Delta-E=       -0.000000000108 Rises=F Damp=F
 DIIS: error= 1.52D-07 at cycle  13 NSaved=  13.
 NSaved=13 IEnMin=13 EnMin= -952.869734116248     IErMin=13 ErrMin= 1.52D-07
 ErrMax= 1.52D-07  0.00D+00 EMaxC= 1.00D-01 BMatC= 9.17D-12 BMatP= 4.85D-11
 IDIUse=1 WtCom= 1.00D+00 WtEn= 0.00D+00
 Coeff-Com:  0.135D-04-0.286D-04-0.346D-04-0.329D-04 0.220D-03 0.819D-03
 Coeff-Com:  0.167D-03-0.166D-02-0.146D-01-0.366D-01 0.170D-01 0.328D+00
 Coeff-Com:  0.707D+00
 Coeff:      0.135D-04-0.286D-04-0.346D-04-0.329D-04 0.220D-03 0.819D-03
 Coeff:      0.167D-03-0.166D-02-0.146D-01-0.366D-01 0.170D-01 0.328D+00
 Coeff:      0.707D+00
 Gap=     0.226 Goal=   None    Shift=    0.000
 RMSDP=1.38D-08 MaxDP=5.64D-07 DE=-1.08D-10 OVMax= 2.78D-06

 Cycle  14  Pass 1  IDiag  1:
 RMSU=  7.98D-09    CP:  1.00D+00  1.34D+00  6.47D-01  6.10D-01  1.02D+00
                    CP:  1.02D+00  1.07D+00  1.07D+00  1.01D+00  1.07D+00
                    CP:  1.09D+00  1.14D+00  9.83D-01
 E= -952.869734116204     Delta-E=        0.000000000044 Rises=F Damp=F
 DIIS: error= 4.74D-08 at cycle  14 NSaved=  14.
 NSaved=14 IEnMin=13 EnMin= -952.869734116248     IErMin=14 ErrMin= 4.74D-08
 ErrMax= 4.74D-08  0.00D+00 EMaxC= 1.00D-01 BMatC= 1.08D-12 BMatP= 9.17D-12
 IDIUse=1 WtCom= 1.00D+00 WtEn= 0.00D+00
 Coeff-Com:  0.200D-05-0.409D-05-0.491D-05-0.112D-04-0.616D-05 0.332D-04
 Coeff-Com:  0.199D-03 0.160D-02-0.103D-02-0.126D-01-0.297D-01-0.158D-01
 Coeff-Com:  0.209D+00 0.848D+00
 Coeff:      0.200D-05-0.409D-05-0.491D-05-0.112D-04-0.616D-05 0.332D-04
 Coeff:      0.199D-03 0.160D-02-0.103D-02-0.126D-01-0.297D-01-0.158D-01
 Coeff:      0.209D+00 0.848D+00
 Gap=     0.226 Goal=   None    Shift=    0.000
 RMSDP=5.98D-09 MaxDP=1.39D-07 DE= 4.37D-11 OVMax= 1.09D-06

 Error on total polarization charges =  0.00515
 SCF Done:  E(RCAM-B3LYP) =  -952.869734116     A.U. after   14 cycles
            NFock= 14  Conv=0.60D-08     -V/T= 2.0091
 KE= 9.442644896612D+02 PE=-5.203804147144D+03 EE= 1.813552071288D+03
 Leave Link  502 at Mon Mar  4 23:09:44 2024, MaxMem=  5368709120 cpu:       511.8
 (Enter /home/k0335/k033513/app/g09/l601.exe)
 Copying SCF densities to generalized density rwf, IOpCl= 0 IROHF=0.

 **********************************************************************

            Population analysis using the SCF density.

 **********************************************************************

 Alpha  occ. eigenvalues --  -19.21459 -19.21252 -19.21211 -14.47752 -14.46848
 Alpha  occ. eigenvalues --  -10.42488 -10.39653 -10.39580 -10.31050 -10.30417
 Alpha  occ. eigenvalues --  -10.29566 -10.29461 -10.28390 -10.27666 -10.27466
 Alpha  occ. eigenvalues --  -10.27418 -10.27243 -10.27172 -10.27141 -10.26637
 Alpha  occ. eigenvalues --  -10.25797  -1.17534  -1.13902  -1.13268  -1.05100
 Alpha  occ. eigenvalues --   -1.02514  -0.95334  -0.92280  -0.88486  -0.86940
 Alpha  occ. eigenvalues --   -0.83339  -0.82793  -0.78995  -0.77445  -0.74423
 Alpha  occ. eigenvalues --   -0.71833  -0.69498  -0.68379  -0.66109  -0.64347
 Alpha  occ. eigenvalues --   -0.62568  -0.61933  -0.59250  -0.57566  -0.55652
 Alpha  occ. eigenvalues --   -0.54960  -0.54034  -0.53351  -0.52951  -0.52119
 Alpha  occ. eigenvalues --   -0.51299  -0.50954  -0.50124  -0.49188  -0.48594
 Alpha  occ. eigenvalues --   -0.48259  -0.47858  -0.47564  -0.44684  -0.44309
 Alpha  occ. eigenvalues --   -0.44169  -0.42025  -0.41334  -0.41247  -0.40019
 Alpha  occ. eigenvalues --   -0.37148  -0.35852  -0.35287  -0.34326  -0.33893
 Alpha  occ. eigenvalues --   -0.32665  -0.32171  -0.31311  -0.28366
 Alpha virt. eigenvalues --   -0.05748   0.02819   0.03791   0.05214   0.06445
 Alpha virt. eigenvalues --    0.07246   0.11270   0.14284   0.14352   0.15606
 Alpha virt. eigenvalues --    0.16900   0.18273   0.18801   0.20022   0.20500
 Alpha virt. eigenvalues --    0.20901   0.21110   0.21701   0.22124   0.22457
 Alpha virt. eigenvalues --    0.24374   0.24547   0.24873   0.25594   0.27133
 Alpha virt. eigenvalues --    0.28965   0.29667   0.31403   0.32580   0.32687
 Alpha virt. eigenvalues --    0.34080   0.35125   0.36514   0.37284   0.37726
 Alpha virt. eigenvalues --    0.40424   0.40748   0.41458   0.42188   0.44448
 Alpha virt. eigenvalues --    0.45961   0.48840   0.51153   0.52221   0.52650
 Alpha virt. eigenvalues --    0.54800   0.55826   0.57184   0.58352   0.58590
 Alpha virt. eigenvalues --    0.59461   0.60164   0.60673   0.61235   0.61602
 Alpha virt. eigenvalues --    0.62931   0.63097   0.63478   0.64781   0.65182
 Alpha virt. eigenvalues --    0.65426   0.65960   0.66431   0.66924   0.67416
 Alpha virt. eigenvalues --    0.67590   0.68174   0.68565   0.69406   0.69676
 Alpha virt. eigenvalues --    0.70287   0.70974   0.71650   0.73437   0.75076
 Alpha virt. eigenvalues --    0.75567   0.76396   0.77770   0.80089   0.81291
 Alpha virt. eigenvalues --    0.82704   0.83165   0.85154   0.86034   0.86518
 Alpha virt. eigenvalues --    0.87226   0.87740   0.88011   0.88237   0.88384
 Alpha virt. eigenvalues --    0.89735   0.89813   0.90222   0.90365   0.92848
 Alpha virt. eigenvalues --    0.94294   0.94665   0.95172   0.95727   0.96401
 Alpha virt. eigenvalues --    0.97614   0.98837   0.99902   1.00294   1.01586
 Alpha virt. eigenvalues --    1.02293   1.03051   1.04821   1.05776   1.07842
 Alpha virt. eigenvalues --    1.09012   1.09496   1.09981   1.11328   1.12688
 Alpha virt. eigenvalues --    1.14580   1.14801   1.17022   1.18069   1.19711
 Alpha virt. eigenvalues --    1.21270   1.22180   1.23779   1.24394   1.25563
 Alpha virt. eigenvalues --    1.26733   1.28341   1.31525   1.34528   1.35225
 Alpha virt. eigenvalues --    1.36308   1.36848   1.39193   1.39806   1.40045
 Alpha virt. eigenvalues --    1.41707   1.43551   1.44789   1.45017   1.45331
 Alpha virt. eigenvalues --    1.45950   1.46919   1.47955   1.48529   1.48903
 Alpha virt. eigenvalues --    1.50212   1.51130   1.52570   1.53859   1.54292
 Alpha virt. eigenvalues --    1.56376   1.57021   1.60125   1.66162   1.67235
 Alpha virt. eigenvalues --    1.71320   1.72465   1.75927   1.77896   1.79002
 Alpha virt. eigenvalues --    1.80994   1.83459   1.83641   1.84158   1.85376
 Alpha virt. eigenvalues --    1.86075   1.86178   1.86676   1.87994   1.90033
 Alpha virt. eigenvalues --    1.90541   1.90940   1.92245   1.92822   1.94162
 Alpha virt. eigenvalues --    1.95110   1.95939   1.97288   1.97856   1.98611
 Alpha virt. eigenvalues --    1.99139   2.00211   2.01811   2.02429   2.03236
 Alpha virt. eigenvalues --    2.03358   2.03880   2.04370   2.05414   2.07151
 Alpha virt. eigenvalues --    2.07701   2.10234   2.11315   2.12750   2.14595
 Alpha virt. eigenvalues --    2.17708   2.18394   2.18461   2.18807   2.19069
 Alpha virt. eigenvalues --    2.21160   2.21760   2.25824   2.27011   2.30772
 Alpha virt. eigenvalues --    2.31537   2.32794   2.35343   2.35687   2.36260
 Alpha virt. eigenvalues --    2.36878   2.38538   2.39068   2.39961   2.43365
 Alpha virt. eigenvalues --    2.43551   2.44003   2.45218   2.46128   2.46626
 Alpha virt. eigenvalues --    2.48156   2.48926   2.49591   2.51440   2.51517
 Alpha virt. eigenvalues --    2.52094   2.53078   2.54078   2.55461   2.55657
 Alpha virt. eigenvalues --    2.56929   2.59340   2.59904   2.60526   2.61603
 Alpha virt. eigenvalues --    2.63213   2.63616   2.65249   2.65770   2.66379
 Alpha virt. eigenvalues --    2.67528   2.68986   2.70676   2.71659   2.72212
 Alpha virt. eigenvalues --    2.73069   2.73546   2.74094   2.74967   2.78148
 Alpha virt. eigenvalues --    2.79783   2.81930   2.83187   2.83643   2.85545
 Alpha virt. eigenvalues --    2.86604   2.89335   2.90148   2.92590   2.94220
 Alpha virt. eigenvalues --    2.94954   2.98186   3.00506   3.01890   3.03864
 Alpha virt. eigenvalues --    3.05724   3.07808   3.10712   3.11787   3.14489
 Alpha virt. eigenvalues --    3.18607   3.21468   3.26240   3.29084   3.30673
 Alpha virt. eigenvalues --    3.31704   3.32782   3.38718   3.39801   3.43605
 Alpha virt. eigenvalues --    3.48638   3.51313   3.52065   3.55844   3.57067
 Alpha virt. eigenvalues --    3.60862   3.68052   3.69845   3.73996   3.96891
 Alpha virt. eigenvalues --    4.04906   4.12658   4.17988   4.19014   4.20698
 Alpha virt. eigenvalues --    4.21711   4.22133   4.24268   4.27756   4.28272
 Alpha virt. eigenvalues --    4.34642   4.45582   4.49330   4.49845   4.55615
 Alpha virt. eigenvalues --    4.64796   4.70340   4.74268   4.76687   4.88505
 Alpha virt. eigenvalues --    4.92377
          Condensed to atoms (all electrons):
               1          2          3          4          5          6
     1  C    4.882346   0.665386  -0.038871  -0.003813   0.002582   0.000113
     2  C    0.665386   4.816771   0.386382  -0.071090   0.000286  -0.002056
     3  C   -0.038871   0.386382   4.844788   0.238454  -0.018171   0.000675
     4  N   -0.003813  -0.071090   0.238454   7.394778   0.186871  -0.093933
     5  C    0.002582   0.000286  -0.018171   0.186871   4.408456   0.599242
     6  O    0.000113  -0.002056   0.000675  -0.093933   0.599242   8.077566
     7  C   -0.000052  -0.000480   0.005543  -0.078759   0.281075  -0.100777
     8  C    0.000002   0.000023  -0.000163   0.008206  -0.031938  -0.000417
     9  C    0.000000   0.000000   0.000000  -0.000097   0.005612   0.001163
    10  C    0.000000   0.000000   0.000000   0.000000  -0.000235  -0.000044
    11  C    0.000000   0.000000   0.000000   0.000000   0.000001   0.000000
    12  C    0.000000   0.000000   0.000000   0.000000   0.000000   0.000000
    13  C    0.000000   0.000000   0.000000   0.000000   0.000000   0.000000
    14  C    0.000000   0.000000   0.000000   0.000000   0.000000   0.000000
    15  C    0.000000   0.000000   0.000000   0.000000   0.000000   0.000000
    16  C    0.000000   0.000000   0.000000   0.000000   0.000000   0.000000
    17  C    0.000001   0.000040  -0.000043  -0.007840  -0.017944   0.002150
    18  O    0.000000   0.000000   0.000003  -0.000066   0.002485  -0.000009
    19  N   -0.000004  -0.000343   0.003263  -0.102357  -0.007784  -0.000035
    20  C    0.000186  -0.002216  -0.029458   0.240871  -0.026823   0.000172
    21  O    0.000123  -0.000301  -0.001151  -0.093528  -0.000361  -0.000021
    22  H    0.387251  -0.033479  -0.010573  -0.000071   0.000344   0.001709
    23  H    0.381018  -0.028269   0.004654  -0.000138  -0.000019   0.000030
    24  H   -0.040108   0.389365  -0.048004  -0.001818  -0.000237  -0.000027
    25  H    0.002654  -0.034547   0.386821  -0.037492   0.003940   0.000450
    26  H   -0.005023  -0.036566   0.385026  -0.032740  -0.004435   0.010488
    27  H    0.000000   0.000002  -0.000015   0.000909  -0.008054   0.019729
    28  H    0.000000   0.000000   0.000000   0.000003  -0.000049  -0.000001
    29  H    0.000000   0.000000   0.000000   0.000000  -0.000006  -0.000012
    30  H    0.000000   0.000000   0.000000   0.000000   0.000000   0.000000
    31  H    0.000000   0.000000   0.000000   0.000000   0.000000   0.000000
    32  H    0.000000   0.000000   0.000000   0.000000   0.000000   0.000000
    33  H    0.000000   0.000000   0.000000   0.000000   0.000000   0.000000
    34  H    0.000000   0.000000   0.000000   0.000000   0.000000   0.000000
    35  H    0.000000   0.000006  -0.000094   0.004565  -0.000267   0.000004
               7          8          9         10         11         12
     1  C   -0.000052   0.000002   0.000000   0.000000   0.000000   0.000000
     2  C   -0.000480   0.000023   0.000000   0.000000   0.000000   0.000000
     3  C    0.005543  -0.000163   0.000000   0.000000   0.000000   0.000000
     4  N   -0.078759   0.008206  -0.000097   0.000000   0.000000   0.000000
     5  C    0.281075  -0.031938   0.005612  -0.000235   0.000001   0.000000
     6  O   -0.100777  -0.000417   0.001163  -0.000044   0.000000   0.000000
     7  C    5.411390   0.540764  -0.044202   0.005151  -0.000169   0.000002
     8  C    0.540764   4.941411   0.378780  -0.010873   0.003267  -0.000204
     9  C   -0.044202   0.378780   4.971684   0.527948  -0.033208   0.003847
    10  C    0.005151  -0.010873   0.527948   5.003627   0.363911  -0.044880
    11  C   -0.000169   0.003267  -0.033208   0.363911   4.711052   0.526383
    12  C    0.000002  -0.000204   0.003847  -0.044880   0.526383   4.900278
    13  C    0.000000   0.000002  -0.000215   0.005553  -0.022439   0.524649
    14  C    0.000000   0.000000   0.000006   0.000438  -0.032252  -0.040721
    15  C    0.000000  -0.000002   0.000259   0.006465  -0.026377  -0.043904
    16  C   -0.000008   0.000424  -0.006707  -0.056211   0.546804  -0.044611
    17  C    0.275447  -0.062324  -0.005224   0.000587  -0.000005   0.000000
    18  O   -0.081795  -0.017120  -0.004173   0.001044  -0.000016   0.000000
    19  N   -0.092785   0.005261   0.000154   0.000002   0.000000   0.000000
    20  C   -0.001906   0.000402  -0.000018   0.000000   0.000000   0.000000
    21  O   -0.000061   0.000001   0.000000   0.000000   0.000000   0.000000
    22  H    0.000020  -0.000001   0.000000   0.000000   0.000000   0.000000
    23  H    0.000001   0.000000   0.000000   0.000000   0.000000   0.000000
    24  H    0.000015   0.000000   0.000000   0.000000   0.000000   0.000000
    25  H   -0.000108   0.000001   0.000000   0.000000   0.000000   0.000000
    26  H    0.000786  -0.000008   0.000000   0.000000   0.000000   0.000000
    27  H   -0.041562   0.375963  -0.050961  -0.005712   0.000335  -0.000002
    28  H   -0.012320  -0.027254   0.378897  -0.047447  -0.005918   0.000248
    29  H    0.000210  -0.004760  -0.046984   0.373185  -0.035169  -0.005836
    30  H    0.000000  -0.000003   0.000273  -0.007448  -0.045436   0.375802
    31  H    0.000000   0.000000   0.000002  -0.000167   0.003290  -0.034789
    32  H    0.000000   0.000000   0.000000   0.000004   0.000544   0.004475
    33  H    0.000000   0.000000   0.000003  -0.000181   0.003382   0.000809
    34  H   -0.000003  -0.000043   0.003911  -0.008446  -0.040594   0.005104
    35  H    0.007269  -0.000078  -0.000007   0.000000   0.000000   0.000000
              13         14         15         16         17         18
     1  C    0.000000   0.000000   0.000000   0.000000   0.000001   0.000000
     2  C    0.000000   0.000000   0.000000   0.000000   0.000040   0.000000
     3  C    0.000000   0.000000   0.000000   0.000000  -0.000043   0.000003
     4  N    0.000000   0.000000   0.000000   0.000000  -0.007840  -0.000066
     5  C    0.000000   0.000000   0.000000   0.000000  -0.017944   0.002485
     6  O    0.000000   0.000000   0.000000   0.000000   0.002150  -0.000009
     7  C    0.000000   0.000000   0.000000  -0.000008   0.275447  -0.081795
     8  C    0.000002   0.000000  -0.000002   0.000424  -0.062324  -0.017120
     9  C   -0.000215   0.000006   0.000259  -0.006707  -0.005224  -0.004173
    10  C    0.005553   0.000438   0.006465  -0.056211   0.000587   0.001044
    11  C   -0.022439  -0.032252  -0.026377   0.546804  -0.000005  -0.000016
    12  C    0.524649  -0.040721  -0.043904  -0.044611   0.000000   0.000000
    13  C    4.812972   0.550379  -0.031583  -0.042747   0.000000   0.000000
    14  C    0.550379   4.794906   0.550017  -0.041235   0.000000   0.000000
    15  C   -0.031583   0.550017   4.819240   0.523945   0.000000   0.000000
    16  C   -0.042747  -0.041235   0.523945   4.880336   0.000003  -0.000029
    17  C    0.000000   0.000000   0.000000   0.000003   4.406260   0.612966
    18  O    0.000000   0.000000   0.000000  -0.000029   0.612966   8.067567
    19  N    0.000000   0.000000   0.000000   0.000000   0.218250  -0.095841
    20  C    0.000000   0.000000   0.000000   0.000000  -0.019978   0.001517
    21  O    0.000000   0.000000   0.000000   0.000000   0.001478  -0.000025
    22  H    0.000000   0.000000   0.000000   0.000000   0.000000   0.000000
    23  H    0.000000   0.000000   0.000000   0.000000   0.000000   0.000000
    24  H    0.000000   0.000000   0.000000   0.000000  -0.000005   0.000000
    25  H    0.000000   0.000000   0.000000   0.000000  -0.000011   0.000000
    26  H    0.000000   0.000000   0.000000   0.000000  -0.000039   0.000000
    27  H    0.000000   0.000000   0.000000   0.000003   0.003829  -0.000078
    28  H   -0.000005  -0.000003  -0.000032   0.002804   0.003070   0.018862
    29  H    0.000093   0.000011  -0.000154   0.004220   0.000001  -0.000003
    30  H   -0.038169   0.004507   0.000286   0.004917   0.000000   0.000000
    31  H    0.374184  -0.038905   0.004135   0.000775   0.000000   0.000000
    32  H   -0.039159   0.375860  -0.039226   0.004517   0.000000   0.000000
    33  H    0.004095  -0.039044   0.373887  -0.034054   0.000000   0.000000
    34  H    0.000249   0.004460  -0.037623   0.373807   0.000003   0.000019
    35  H    0.000000   0.000000   0.000000   0.000000  -0.010493   0.005577
              19         20         21         22         23         24
     1  C   -0.000004   0.000186   0.000123   0.387251   0.381018  -0.040108
     2  C   -0.000343  -0.002216  -0.000301  -0.033479  -0.028269   0.389365
     3  C    0.003263  -0.029458  -0.001151  -0.010573   0.004654  -0.048004
     4  N   -0.102357   0.240871  -0.093528  -0.000071  -0.000138  -0.001818
     5  C   -0.007784  -0.026823  -0.000361   0.000344  -0.000019  -0.000237
     6  O   -0.000035   0.000172  -0.000021   0.001709   0.000030  -0.000027
     7  C   -0.092785  -0.001906  -0.000061   0.000020   0.000001   0.000015
     8  C    0.005261   0.000402   0.000001  -0.000001   0.000000   0.000000
     9  C    0.000154  -0.000018   0.000000   0.000000   0.000000   0.000000
    10  C    0.000002   0.000000   0.000000   0.000000   0.000000   0.000000
    11  C    0.000000   0.000000   0.000000   0.000000   0.000000   0.000000
    12  C    0.000000   0.000000   0.000000   0.000000   0.000000   0.000000
    13  C    0.000000   0.000000   0.000000   0.000000   0.000000   0.000000
    14  C    0.000000   0.000000   0.000000   0.000000   0.000000   0.000000
    15  C    0.000000   0.000000   0.000000   0.000000   0.000000   0.000000
    16  C    0.000000   0.000000   0.000000   0.000000   0.000000   0.000000
    17  C    0.218250  -0.019978   0.001478   0.000000   0.000000  -0.000005
    18  O   -0.095841   0.001517  -0.000025   0.000000   0.000000   0.000000
    19  N    7.180021   0.263995  -0.097036   0.000000   0.000000  -0.000004
    20  C    0.263995   4.177709   0.631576   0.000004  -0.000002   0.003176
    21  O   -0.097036   0.631576   8.062102  -0.000001   0.000001   0.002822
    22  H    0.000000   0.000004  -0.000001   0.568040  -0.039168   0.004931
    23  H    0.000000  -0.000002   0.000001  -0.039168   0.580202  -0.007585
    24  H   -0.000004   0.003176   0.002822   0.004931  -0.007585   0.583792
    25  H    0.000415  -0.003274   0.008600   0.000107  -0.000188  -0.004352
    26  H   -0.000084   0.004352   0.000472   0.004602   0.000045   0.004187
    27  H   -0.000120  -0.000005   0.000000  -0.000001   0.000000   0.000000
    28  H    0.000278  -0.000006   0.000000   0.000000   0.000000   0.000000
    29  H    0.000000   0.000000   0.000000   0.000000   0.000000   0.000000
    30  H    0.000000   0.000000   0.000000   0.000000   0.000000   0.000000
    31  H    0.000000   0.000000   0.000000   0.000000   0.000000   0.000000
    32  H    0.000000   0.000000   0.000000   0.000000   0.000000   0.000000
    33  H    0.000000   0.000000   0.000000   0.000000   0.000000   0.000000
    34  H    0.000000   0.000000   0.000000   0.000000   0.000000   0.000000
    35  H    0.322401  -0.015695   0.003904   0.000000   0.000000   0.000000
              25         26         27         28         29         30
     1  C    0.002654  -0.005023   0.000000   0.000000   0.000000   0.000000
     2  C   -0.034547  -0.036566   0.000002   0.000000   0.000000   0.000000
     3  C    0.386821   0.385026  -0.000015   0.000000   0.000000   0.000000
     4  N   -0.037492  -0.032740   0.000909   0.000003   0.000000   0.000000
     5  C    0.003940  -0.004435  -0.008054  -0.000049  -0.000006   0.000000
     6  O    0.000450   0.010488   0.019729  -0.000001  -0.000012   0.000000
     7  C   -0.000108   0.000786  -0.041562  -0.012320   0.000210   0.000000
     8  C    0.000001  -0.000008   0.375963  -0.027254  -0.004760  -0.000003
     9  C    0.000000   0.000000  -0.050961   0.378897  -0.046984   0.000273
    10  C    0.000000   0.000000  -0.005712  -0.047447   0.373185  -0.007448
    11  C    0.000000   0.000000   0.000335  -0.005918  -0.035169  -0.045436
    12  C    0.000000   0.000000  -0.000002   0.000248  -0.005836   0.375802
    13  C    0.000000   0.000000   0.000000  -0.000005   0.000093  -0.038169
    14  C    0.000000   0.000000   0.000000  -0.000003   0.000011   0.004507
    15  C    0.000000   0.000000   0.000000  -0.000032  -0.000154   0.000286
    16  C    0.000000   0.000000   0.000003   0.002804   0.004220   0.004917
    17  C   -0.000011  -0.000039   0.003829   0.003070   0.000001   0.000000
    18  O    0.000000   0.000000  -0.000078   0.018862  -0.000003   0.000000
    19  N    0.000415  -0.000084  -0.000120   0.000278   0.000000   0.000000
    20  C   -0.003274   0.004352  -0.000005  -0.000006   0.000000   0.000000
    21  O    0.008600   0.000472   0.000000   0.000000   0.000000   0.000000
    22  H    0.000107   0.004602  -0.000001   0.000000   0.000000   0.000000
    23  H   -0.000188   0.000045   0.000000   0.000000   0.000000   0.000000
    24  H   -0.004352   0.004187   0.000000   0.000000   0.000000   0.000000
    25  H    0.553466  -0.028713   0.000000   0.000000   0.000000   0.000000
    26  H   -0.028713   0.548020  -0.000005   0.000000   0.000000   0.000000
    27  H    0.000000  -0.000005   0.549331   0.003892   0.004956   0.000004
    28  H    0.000000   0.000000   0.003892   0.536871   0.004523   0.000010
    29  H    0.000000   0.000000   0.004956   0.004523   0.580898   0.003985
    30  H    0.000000   0.000000   0.000004   0.000010   0.003985   0.603751
    31  H    0.000000   0.000000   0.000000   0.000000  -0.000004  -0.005463
    32  H    0.000000   0.000000   0.000000   0.000000   0.000000  -0.000162
    33  H    0.000000   0.000000   0.000000   0.000004   0.000002   0.000014
    34  H    0.000000   0.000000   0.000003   0.002278   0.000068  -0.000142
    35  H   -0.000007   0.000002   0.000002   0.000003   0.000000   0.000000
              31         32         33         34         35
     1  C    0.000000   0.000000   0.000000   0.000000   0.000000
     2  C    0.000000   0.000000   0.000000   0.000000   0.000006
     3  C    0.000000   0.000000   0.000000   0.000000  -0.000094
     4  N    0.000000   0.000000   0.000000   0.000000   0.004565
     5  C    0.000000   0.000000   0.000000   0.000000  -0.000267
     6  O    0.000000   0.000000   0.000000   0.000000   0.000004
     7  C    0.000000   0.000000   0.000000  -0.000003   0.007269
     8  C    0.000000   0.000000   0.000000  -0.000043  -0.000078
     9  C    0.000002   0.000000   0.000003   0.003911  -0.000007
    10  C   -0.000167   0.000004  -0.000181  -0.008446   0.000000
    11  C    0.003290   0.000544   0.003382  -0.040594   0.000000
    12  C   -0.034789   0.004475   0.000809   0.005104   0.000000
    13  C    0.374184  -0.039159   0.004095   0.000249   0.000000
    14  C   -0.038905   0.375860  -0.039044   0.004460   0.000000
    15  C    0.004135  -0.039226   0.373887  -0.037623   0.000000
    16  C    0.000775   0.004517  -0.034054   0.373807   0.000000
    17  C    0.000000   0.000000   0.000000   0.000003  -0.010493
    18  O    0.000000   0.000000   0.000000   0.000019   0.005577
    19  N    0.000000   0.000000   0.000000   0.000000   0.322401
    20  C    0.000000   0.000000   0.000000   0.000000  -0.015695
    21  O    0.000000   0.000000   0.000000   0.000000   0.003904
    22  H    0.000000   0.000000   0.000000   0.000000   0.000000
    23  H    0.000000   0.000000   0.000000   0.000000   0.000000
    24  H    0.000000   0.000000   0.000000   0.000000   0.000000
    25  H    0.000000   0.000000   0.000000   0.000000  -0.000007
    26  H    0.000000   0.000000   0.000000   0.000000   0.000002
    27  H    0.000000   0.000000   0.000000   0.000003   0.000002
    28  H    0.000000   0.000000   0.000004   0.002278   0.000003
    29  H   -0.000004   0.000000   0.000002   0.000068   0.000000
    30  H   -0.005463  -0.000162   0.000014  -0.000142   0.000000
    31  H    0.597478  -0.005469  -0.000169   0.000014   0.000000
    32  H   -0.005469   0.599330  -0.005461  -0.000159   0.000000
    33  H   -0.000169  -0.005461   0.595174  -0.005434   0.000000
    34  H    0.000014  -0.000159  -0.005434   0.590459   0.000000
    35  H    0.000000   0.000000   0.000000   0.000000   0.375340
 Mulliken charges:
               1
     1  C   -0.233792
     2  C   -0.048911
     3  C   -0.109065
     4  N   -0.550915
     5  C    0.625428
     6  O   -0.516160
     7  C   -0.072685
     8  C   -0.099318
     9  C   -0.080744
    10  C   -0.106271
    11  C    0.082613
    12  C   -0.126650
    13  C   -0.097860
    14  C   -0.088424
    15  C   -0.099333
    16  C   -0.116953
    17  C    0.599820
    18  O   -0.510887
    19  N   -0.597647
    20  C    0.775423
    21  O   -0.518596
    22  H    0.116285
    23  H    0.109420
    24  H    0.113850
    25  H    0.152237
    26  H    0.149634
    27  H    0.147557
    28  H    0.141290
    29  H    0.120777
    30  H    0.103274
    31  H    0.105088
    32  H    0.104907
    33  H    0.106972
    34  H    0.112069
    35  H    0.307566
 Sum of Mulliken charges =   0.00000
 Mulliken charges with hydrogens summed into heavy atoms:
               1
     1  C   -0.008086
     2  C    0.064940
     3  C    0.192807
     4  N   -0.550915
     5  C    0.625428
     6  O   -0.516160
     7  C   -0.072685
     8  C    0.048239
     9  C    0.060547
    10  C    0.014506
    11  C    0.082613
    12  C   -0.023376
    13  C    0.007228
    14  C    0.016483
    15  C    0.007639
    16  C   -0.004884
    17  C    0.599820
    18  O   -0.510887
    19  N   -0.290082
    20  C    0.775423
    21  O   -0.518596
 Electronic spatial extent (au):  <R**2>=           9880.0843
 Charge=              0.0000 electrons
 Dipole moment (field-independent basis, Debye):
    X=              3.1798    Y=              1.7917    Z=             -0.5022  Tot=              3.6842
 Quadrupole moment (field-independent basis, Debye-Ang):
   XX=           -109.5064   YY=           -117.8392   ZZ=           -123.4975
   XY=             -0.5206   XZ=              0.9263   YZ=              2.8242
 Traceless Quadrupole moment (field-independent basis, Debye-Ang):
   XX=              7.4413   YY=             -0.8915   ZZ=             -6.5498
   XY=             -0.5206   XZ=              0.9263   YZ=              2.8242
 Octapole moment (field-independent basis, Debye-Ang**2):
  XXX=            197.2178  YYY=            100.8715  ZZZ=             -4.1719  XYY=             55.1484
  XXY=             86.4427  XXZ=              3.9951  XZZ=             -2.2944  YZZ=             20.2904
  YYZ=             -9.1385  XYZ=            -18.9564
 Hexadecapole moment (field-independent basis, Debye-Ang**3):
 XXXX=         -10471.8179 YYYY=          -1569.4566 ZZZZ=           -478.8232 XXXY=           -989.5062
 XXXZ=            143.0056 YYYX=           -845.0212 YYYZ=            177.7498 ZZZX=           -139.6052
 ZZZY=            184.3196 XXYY=          -2123.6594 XXZZ=          -2005.5209 YYZZ=           -342.0023
 XXYZ=            154.4893 YYXZ=            -25.0075 ZZXY=           -272.0975
 N-N= 1.493117852079D+03 E-N=-5.203804145897D+03  KE= 9.442644896612D+02
 No NMR shielding tensors so no spin-rotation constants.
 Leave Link  601 at Mon Mar  4 23:09:44 2024, MaxMem=  5368709120 cpu:         2.0
 (Enter /home/k0335/k033513/app/g09/l9999.exe)
 1\1\GINC-C18U02N2\SP\RCAM-B3LYP\6-31G(d,p)\C16H14N2O3\K033513\04-Mar-2
 024\0\\#p CAM-B3LYP/6-31G(d,p) SCRF=(PCM,Solvent=Generic,Read) NoSymm 
 out=wfn\\Title A22933600_0\\0,1\C,0,-5.622681,1.575552,-0.072266\C,0,-
 5.455917,0.263809,0.143129\C,0,-4.796562,-0.680192,-0.824645\N,0,-3.47
 8651,-1.032447,-0.316035\C,0,-2.39761,-0.275748,-0.74437\O,0,-2.503032
 ,0.634704,-1.566827\C,0,-1.070738,-0.630488,-0.154961\C,0,-0.026874,0.
 143929,-0.522776\C,0,1.362845,0.058231,-0.113439\C,0,2.306169,0.886094
 ,-0.593279\C,0,3.72355,0.843365,-0.200148\C,0,4.448542,2.042069,-0.157
 074\C,0,5.803886,2.04444,0.183128\C,0,6.452154,0.846244,0.473247\C,0,5
 .747395,-0.354118,0.418747\C,0,4.391745,-0.356473,0.078707\C,0,-0.9774
 84,-1.780926,0.770825\O,0,0.053795,-2.181677,1.296923\N,0,-2.156748,-2
 .4154,1.022143\C,0,-3.394826,-2.097772,0.554501\O,0,-4.35939,-2.764743
 ,0.925549\H,0,-5.260025,2.054643,-0.977909\H,0,-6.118609,2.202751,0.66
 2323\H,0,-5.837081,-0.173843,1.064074\H,0,-5.4168,-1.577487,-0.931863\
 H,0,-4.715036,-0.230118,-1.820641\H,0,-0.219015,0.962078,-1.220699\H,0
 ,1.641767,-0.692097,0.620466\H,0,2.04726,1.664195,-1.308244\H,0,3.9615
 9,2.98886,-0.379566\H,0,6.351995,2.982172,0.220555\H,0,7.506302,0.8470
 79,0.737533\H,0,6.252075,-1.291753,0.636683\H,0,3.869434,-1.308793,0.0
 26581\H,0,-2.113428,-3.196141,1.661733\\Version=ES64L-G09RevD.01\HF=-9
 52.8697341\RMSD=5.984e-09\Dipole=1.2510342,0.7048925,-0.1975814\Quadru
 pole=5.5323935,-0.6627962,-4.8695973,-0.3870475,0.6887033,2.0997074\PG
 =C01 [X(C16H14N2O3)]\\@

 Writing a WFN file to "A22933600/A22933600_0.wfn"


 HERE WE GO......
 SLIDING DOWN THE RAZOR BLADE OF LIFE......
                                 TOM LEHRER
 Job cpu time:       0 days  0 hours  8 minutes 51.7 seconds.
 File lengths (MBytes):  RWF=    208 Int=      0 D2E=      0 Chk=      7 Scr=      1
 Normal termination of Gaussian 09 at Mon Mar  4 23:09:45 2024.
