 Entering Gaussian System, Link 0=g09
 Initial command:
 /home/k0335/k033513/app/g09/l1.exe "/home/k0335/k033513/app/g09/scratch/Gau-197220.inp" -scrdir="/home/k0335/k033513/app/g09/scratch/"
 Default is to use a total of  36 processors:
                               36 via shared-memory
                                1 via Linda
 Entering Link 1 = /home/k0335/k033513/app/g09/l1.exe PID=    197221.
  
 Copyright (c) 1988,1990,1992,1993,1995,1998,2003,2009,2013,
            Gaussian, Inc.  All Rights Reserved.
  
 This is part of the Gaussian(R) 09 program.  It is based on
 the Gaussian(R) 03 system (copyright 2003, Gaussian, Inc.),
 the Gaussian(R) 98 system (copyright 1998, Gaussian, Inc.),
 the Gaussian(R) 94 system (copyright 1995, Gaussian, Inc.),
 the Gaussian 92(TM) system (copyright 1992, Gaussian, Inc.),
 the Gaussian 90(TM) system (copyright 1990, Gaussian, Inc.),
 the Gaussian 88(TM) system (copyright 1988, Gaussian, Inc.),
 the Gaussian 86(TM) system (copyright 1986, Carnegie Mellon
 University), and the Gaussian 82(TM) system (copyright 1983,
 Carnegie Mellon University). Gaussian is a federally registered
 trademark of Gaussian, Inc.
  
 This software contains proprietary and confidential information,
 including trade secrets, belonging to Gaussian, Inc.
  
 This software is provided under written license and may be
 used, copied, transmitted, or stored only in accord with that
 written license.
  
 The following legend is applicable only to US Government
 contracts under FAR:
  
                    RESTRICTED RIGHTS LEGEND
  
 Use, reproduction and disclosure by the US Government is
 subject to restrictions as set forth in subparagraphs (a)
 and (c) of the Commercial Computer Software - Restricted
 Rights clause in FAR 52.227-19.
  
 Gaussian, Inc.
 340 Quinnipiac St., Bldg. 40, Wallingford CT 06492
  
  
 ---------------------------------------------------------------
 Warning -- This program may not be used in any manner that
 competes with the business of Gaussian, Inc. or will provide
 assistance to any competitor of Gaussian, Inc.  The licensee
 of this program is prohibited from giving any competitor of
 Gaussian, Inc. access to this program.  By using this program,
 the user acknowledges that Gaussian, Inc. is engaged in the
 business of creating and licensing software in the field of
 computational chemistry and represents and warrants to the
 licensee that it is not a competitor of Gaussian, Inc. and that
 it will not use this program in any manner prohibited above.
 ---------------------------------------------------------------
  

 Cite this work as:
 Gaussian 09, Revision D.01,
 M. J. Frisch, G. W. Trucks, H. B. Schlegel, G. E. Scuseria, 
 M. A. Robb, J. R. Cheeseman, G. Scalmani, V. Barone, B. Mennucci, 
 G. A. Petersson, H. Nakatsuji, M. Caricato, X. Li, H. P. Hratchian, 
 A. F. Izmaylov, J. Bloino, G. Zheng, J. L. Sonnenberg, M. Hada, 
 M. Ehara, K. Toyota, R. Fukuda, J. Hasegawa, M. Ishida, T. Nakajima, 
 Y. Honda, O. Kitao, H. Nakai, T. Vreven, J. A. Montgomery, Jr., 
 J. E. Peralta, F. Ogliaro, M. Bearpark, J. J. Heyd, E. Brothers, 
 K. N. Kudin, V. N. Staroverov, T. Keith, R. Kobayashi, J. Normand, 
 K. Raghavachari, A. Rendell, J. C. Burant, S. S. Iyengar, J. Tomasi, 
 M. Cossi, N. Rega, J. M. Millam, M. Klene, J. E. Knox, J. B. Cross, 
 V. Bakken, C. Adamo, J. Jaramillo, R. Gomperts, R. E. Stratmann, 
 O. Yazyev, A. J. Austin, R. Cammi, C. Pomelli, J. W. Ochterski, 
 R. L. Martin, K. Morokuma, V. G. Zakrzewski, G. A. Voth, 
 P. Salvador, J. J. Dannenberg, S. Dapprich, A. D. Daniels, 
 O. Farkas, J. B. Foresman, J. V. Ortiz, J. Cioslowski, 
 and D. J. Fox, Gaussian, Inc., Wallingford CT, 2013.
 
 ******************************************
 Gaussian 09:  ES64L-G09RevD.01 24-Apr-2013
                 3-Mar-2024 
 ******************************************
 %nprocshared=24
 Will use up to   24 processors via shared memory.
 %mem=40GB
 %rwf=A1013755060/A1013755060_p1.rwf
 %nosave
 %chk=A1013755060/A1013755060_p1.chk
 ----------------------------------------------------------------------
 #p CAM-B3LYP/6-31G(d,p) SCRF=(PCM,Solvent=Generic,Read) NoSymm out=wfn
 ----------------------------------------------------------------------
 1/38=1,40=2/1;
 2/12=2,15=1,17=6,18=5,40=1/2;
 3/5=1,6=6,7=101,11=2,16=1,25=1,30=1,70=2203,72=-2,74=-40/1,2,3;
 4//1;
 5/5=2,38=5/2;
 6/7=2,8=2,9=2,10=2,28=1/1;
 99/5=1,6=100,9=1/99;
 Leave Link    1 at Sun Mar  3 18:23:03 2024, MaxMem=  5368709120 cpu:         0.9
 (Enter /home/k0335/k033513/app/g09/l101.exe)
 --------------------
 Title A1013755060_p1
 --------------------
 Symbolic Z-matrix:
 Charge =  1 Multiplicity = 2
 C                    -3.13989  -1.95805  -0.69788 
 N                    -2.31461  -0.7729   -0.55474 
 C                    -0.89062  -0.95674  -0.63027 
 N                    -0.28768   0.31726  -0.91928 
 C                     1.13783   0.20301  -1.22503 
 F                     1.2021   -0.42728  -2.43183 
 F                     1.5941    1.466    -1.46214 
 C                     2.11741  -0.50198  -0.23993 
 F                     1.70285  -1.79522  -0.0698 
 O                     2.01678   0.12366   1.04662 
 C                     2.99328  -0.32296   1.95269 
 F                     3.14772  -1.65314   1.8853 
 F                     2.59457   0.00722   3.19465 
 F                     4.1534    0.29883   1.69275 
 C                     3.49897  -0.47372  -0.91742 
 F                     3.49659  -1.01647  -2.15334 
 F                     4.40948  -1.17977  -0.20224 
 F                     3.98182   0.78463  -1.02155 
 C                    -0.57188   1.22147   0.16149 
 N                    -1.99691   1.40956   0.21685 
 C                    -2.4799    2.58966   0.90973 
 C                    -2.86633   0.35034   0.03274 
 O                    -4.0529    0.4103    0.35211 
 H                    -2.85115  -2.49353  -1.60697 
 H                    -2.98569  -2.60076   0.17406 
 H                    -4.20085  -1.70216  -0.7669 
 H                    -0.68742  -1.67143  -1.4362 
 H                    -0.56037  -1.39524   0.3194 
 H                    -0.11391   2.20056  -0.01845 
 H                    -0.25282   0.86161   1.14566 
 H                    -1.97224   3.47504   0.51616 
 H                    -2.26406   2.48356   1.97711 
 H                    -3.55769   2.71864   0.77663 
 
 NAtoms=     33 NQM=       33 NQMF=       0 NMMI=      0 NMMIF=      0
                NMic=       0 NMicF=      0.
                    Isotopes and Nuclear Properties:
 (Nuclear quadrupole moments (NQMom) in fm**2, nuclear magnetic moments (NMagM)
  in nuclear magnetons)

  Atom         1           2           3           4           5           6           7           8           9          10
 IAtWgt=          12          14          12          14          12          19          19          12          19          16
 AtmWgt=  12.0000000  14.0030740  12.0000000  14.0030740  12.0000000  18.9984033  18.9984033  12.0000000  18.9984033  15.9949146
 NucSpn=           0           2           0           2           0           1           1           0           1           0
 AtZEff=   0.0000000   0.0000000   0.0000000   0.0000000   0.0000000   0.0000000   0.0000000   0.0000000   0.0000000   0.0000000
 NQMom=    0.0000000   2.0440000   0.0000000   2.0440000   0.0000000   0.0000000   0.0000000   0.0000000   0.0000000   0.0000000
 NMagM=    0.0000000   0.4037610   0.0000000   0.4037610   0.0000000   2.6288670   2.6288670   0.0000000   2.6288670   0.0000000
 AtZNuc=   6.0000000   7.0000000   6.0000000   7.0000000   6.0000000   9.0000000   9.0000000   6.0000000   9.0000000   8.0000000

  Atom        11          12          13          14          15          16          17          18          19          20
 IAtWgt=          12          19          19          19          12          19          19          19          12          14
 AtmWgt=  12.0000000  18.9984033  18.9984033  18.9984033  12.0000000  18.9984033  18.9984033  18.9984033  12.0000000  14.0030740
 NucSpn=           0           1           1           1           0           1           1           1           0           2
 AtZEff=   0.0000000   0.0000000   0.0000000   0.0000000   0.0000000   0.0000000   0.0000000   0.0000000   0.0000000   0.0000000
 NQMom=    0.0000000   0.0000000   0.0000000   0.0000000   0.0000000   0.0000000   0.0000000   0.0000000   0.0000000   2.0440000
 NMagM=    0.0000000   2.6288670   2.6288670   2.6288670   0.0000000   2.6288670   2.6288670   2.6288670   0.0000000   0.4037610
 AtZNuc=   6.0000000   9.0000000   9.0000000   9.0000000   6.0000000   9.0000000   9.0000000   9.0000000   6.0000000   7.0000000

  Atom        21          22          23          24          25          26          27          28          29          30
 IAtWgt=          12          12          16           1           1           1           1           1           1           1
 AtmWgt=  12.0000000  12.0000000  15.9949146   1.0078250   1.0078250   1.0078250   1.0078250   1.0078250   1.0078250   1.0078250
 NucSpn=           0           0           0           1           1           1           1           1           1           1
 AtZEff=   0.0000000   0.0000000   0.0000000   0.0000000   0.0000000   0.0000000   0.0000000   0.0000000   0.0000000   0.0000000
 NQMom=    0.0000000   0.0000000   0.0000000   0.0000000   0.0000000   0.0000000   0.0000000   0.0000000   0.0000000   0.0000000
 NMagM=    0.0000000   0.0000000   0.0000000   2.7928460   2.7928460   2.7928460   2.7928460   2.7928460   2.7928460   2.7928460
 AtZNuc=   6.0000000   6.0000000   8.0000000   1.0000000   1.0000000   1.0000000   1.0000000   1.0000000   1.0000000   1.0000000

  Atom        31          32          33
 IAtWgt=           1           1           1
 AtmWgt=   1.0078250   1.0078250   1.0078250
 NucSpn=           1           1           1
 AtZEff=   0.0000000   0.0000000   0.0000000
 NQMom=    0.0000000   0.0000000   0.0000000
 NMagM=    2.7928460   2.7928460   2.7928460
 AtZNuc=   1.0000000   1.0000000   1.0000000
 Leave Link  101 at Sun Mar  3 18:23:03 2024, MaxMem=  5368709120 cpu:         0.9
 (Enter /home/k0335/k033513/app/g09/l202.exe)
                          Input orientation:                          
 ---------------------------------------------------------------------
 Center     Atomic      Atomic             Coordinates (Angstroms)
 Number     Number       Type             X           Y           Z
 ---------------------------------------------------------------------
      1          6           0       -3.139886   -1.958051   -0.697884
      2          7           0       -2.314608   -0.772903   -0.554739
      3          6           0       -0.890622   -0.956741   -0.630267
      4          7           0       -0.287676    0.317256   -0.919277
      5          6           0        1.137835    0.203014   -1.225025
      6          9           0        1.202099   -0.427275   -2.431831
      7          9           0        1.594101    1.466002   -1.462139
      8          6           0        2.117412   -0.501975   -0.239932
      9          9           0        1.702852   -1.795223   -0.069798
     10          8           0        2.016778    0.123664    1.046623
     11          6           0        2.993275   -0.322963    1.952690
     12          9           0        3.147722   -1.653136    1.885303
     13          9           0        2.594569    0.007216    3.194647
     14          9           0        4.153403    0.298829    1.692746
     15          6           0        3.498968   -0.473721   -0.917423
     16          9           0        3.496585   -1.016467   -2.153335
     17          9           0        4.409478   -1.179768   -0.202239
     18          9           0        3.981823    0.784626   -1.021554
     19          6           0       -0.571876    1.221466    0.161488
     20          7           0       -1.996912    1.409559    0.216848
     21          6           0       -2.479900    2.589663    0.909730
     22          6           0       -2.866334    0.350344    0.032736
     23          8           0       -4.052896    0.410297    0.352110
     24          1           0       -2.851153   -2.493532   -1.606971
     25          1           0       -2.985686   -2.600756    0.174064
     26          1           0       -4.200845   -1.702159   -0.766897
     27          1           0       -0.687421   -1.671430   -1.436195
     28          1           0       -0.560369   -1.395239    0.319398
     29          1           0       -0.113910    2.200563   -0.018449
     30          1           0       -0.252817    0.861606    1.145664
     31          1           0       -1.972237    3.475036    0.516163
     32          1           0       -2.264060    2.483562    1.977113
     33          1           0       -3.557694    2.718635    0.776631
 ---------------------------------------------------------------------
                    Distance matrix (angstroms):
                    1          2          3          4          5
     1  C    0.000000
     2  N    1.451258   0.000000
     3  C    2.463003   1.437789   0.000000
     4  N    3.655289   2.330191   1.438798   0.000000
     5  C    4.821512   3.649803   2.411101   1.462400   0.000000
     6  F    4.919622   4.001270   2.811663   2.249795   1.363002
     7  F    5.892271   4.595006   3.568689   2.270551   1.363650
     8  C    5.474400   4.451439   3.067155   2.630038   1.557880
     9  F    4.886012   4.173762   2.782676   3.024299   2.376288
    10  O    5.828209   4.704157   3.525934   3.035251   2.437052
    11  C    6.878570   5.887552   4.707228   4.407121   3.717147
    12  F    6.804399   6.046955   4.808459   4.852842   4.142352
    13  F    7.204030   6.226275   5.263624   5.032676   4.657672
    14  F    8.000043   6.930726   5.693420   5.152299   4.197168
    15  C    6.806307   5.832557   4.425412   3.868374   2.475386
    16  F    6.859130   6.031981   4.644447   4.197898   2.812934
    17  F    7.605543   6.745601   5.322031   4.981815   3.696191
    18  F    7.638441   6.502988   5.189045   4.296221   2.909973
    19  C    4.176425   2.743648   2.339457   1.437504   2.425443
    20  N    3.672046   2.336540   2.746062   2.324950   3.655323
    21  C    4.868440   3.671354   4.180236   3.648965   4.831281
    22  C    2.436662   1.382466   2.459976   2.748982   4.199647
    23  O    2.746843   2.289974   3.582434   3.975168   5.428997
    24  H    1.093867   2.087016   2.675698   3.865859   4.830038
    25  H    1.094139   2.079073   2.781911   4.121826   5.178996
    26  H    1.093562   2.113390   3.395864   4.406149   5.686921
    27  H    2.577177   2.057195   1.096171   2.093292   2.624822
    28  H    2.829404   2.056398   1.096910   2.131036   2.797061
    29  H    5.187700   3.737938   3.308500   2.094882   2.648187
    30  H    4.436699   3.132726   2.620517   2.135770   2.826274
    31  H    5.688211   4.394205   4.703705   3.856139   4.838431
    32  H    5.258384   4.125214   4.529950   4.121656   5.198796
    33  H    4.921397   3.938102   4.754053   4.397243   5.690604
                    6          7          8          9         10
     6  F    0.000000
     7  F    2.162976   0.000000
     8  C    2.376510   2.374990   0.000000
     9  F    2.775110   3.547679   1.368684   0.000000
    10  O    3.614814   2.876528   1.434146   2.242113   0.000000
    11  C    4.737427   4.101115   2.367862   2.814818   1.404984
    12  F    4.891404   4.831990   2.627420   2.435212   2.267033
    13  F    5.812487   4.981430   3.504752   3.834129   2.227422
    14  F    5.123432   4.226774   2.919211   3.673801   2.239045
    15  C    2.751581   2.772681   1.538990   2.385554   2.532041
    16  F    2.385241   3.203100   2.414111   2.857458   3.705328
    17  F    3.978015   4.063717   2.390479   2.778876   2.997266
    18  F    3.344316   2.521826   2.396310   3.571438   2.928417
    19  C    3.548329   2.717981   3.219263   3.785273   2.947840
    20  N    4.541270   3.964537   4.559635   4.903167   4.295551
    21  C    5.815932   4.846221   5.658200   6.138576   5.130303
    22  C    4.819847   4.834752   5.063449   5.048904   4.992408
    23  O    6.005566   6.024499   6.265417   6.178265   6.115999
    24  H    4.623707   5.954760   5.524648   4.856902   6.130908
    25  H    5.390014   6.339569   5.533343   4.763480   5.762679
    26  H    5.795614   6.640934   6.452791   5.945439   6.729140
    27  H    2.471740   3.879368   3.265847   2.756043   4.086495
    28  H    3.407713   4.000289   2.877722   2.331015   3.078573
    29  H    3.802871   2.353959   3.511633   4.389711   3.160335
    30  H    4.071421   3.252236   3.065488   3.515783   2.388604
    31  H    5.830532   4.546280   5.754435   6.451764   5.236919
    32  H    6.318704   5.267759   5.746827   6.183384   4.975993
    33  H    6.545732   5.755187   6.603980   6.983173   6.154796
                   11         12         13         14         15
    11  C    0.000000
    12  F    1.340804   0.000000
    13  F    1.345527   2.185664   0.000000
    14  F    1.341676   2.204232   2.184195   0.000000
    15  C    2.918219   3.060991   4.237730   2.799661   0.000000
    16  F    4.194486   4.103371   5.519282   4.117493   1.349836
    17  F    2.717253   2.484741   4.030094   2.417187   1.356104
    18  F    3.324170   3.884357   4.506128   2.762764   1.351824
    19  C    4.278314   5.007023   4.549817   5.052155   4.539766
    20  N    5.560283   6.215392   5.649385   6.421711   5.919291
    21  C    6.287034   7.114999   6.135154   7.061285   6.962016
    22  C    6.202788   6.604151   6.319563   7.213529   6.488371
    23  O    7.262785   7.645740   7.240945   8.315833   7.708687
    24  H    7.179129   6.992049   7.678878   8.230991   6.699190
    25  H    6.640770   6.437780   6.860371   7.853698   6.911321
    26  H    7.813687   7.812682   8.049438   8.935729   7.798643
    27  H    5.181740   5.073559   5.918953   6.091451   4.385144
    28  H    4.055343   4.033424   4.493058   5.193804   4.342481
    29  H    4.461857   5.395694   4.740318   4.975414   4.583976
    30  H    3.548466   4.293560   3.610529   4.475577   4.485010
    31  H    6.414415   7.374732   6.328963   6.999722   6.897966
    32  H    5.959593   6.812348   5.587571   6.785113   7.094812
    33  H    7.317761   8.081098   7.144854   8.133618   7.928268
                   16         17         18         19         20
    16  F    0.000000
    17  F    2.160282   0.000000
    18  F    2.181816   2.170947   0.000000
    19  C    5.188364   5.541851   4.725102   0.000000
    20  N    6.456150   6.922578   6.137545   1.438461   0.000000
    21  C    7.622658   7.931495   6.981539   2.464221   1.451209
    22  C    6.865407   7.438676   6.942433   2.457635   1.382653
    23  O    8.081310   8.628290   8.159889   3.579362   2.289954
    24  H    6.540184   7.511059   7.601223   4.703590   4.392057
    25  H    7.067291   7.539845   7.838144   4.520621   4.130633
    26  H    7.851294   8.644616   8.555992   4.751726   3.938003
    27  H    4.295250   5.267139   5.292067   3.306779   3.733606
    28  H    4.766209   5.001791   5.213585   2.621491   3.152945
    29  H    5.286085   5.649908   4.448160   1.095783   2.055906
    30  H    5.335594   5.265078   4.757619   1.095400   2.050566
    31  H    7.563586   7.931556   6.712206   2.676823   2.087198
    32  H    7.905431   7.918691   7.133684   2.784397   2.079275
    33  H    8.502855   8.923652   7.988628   3.396325   2.112600
                   21         22         23         24         25
    21  C    0.000000
    22  C    2.435775   0.000000
    23  O    2.744976   1.230253   0.000000
    24  H    5.684231   3.282758   3.703297   0.000000
    25  H    5.266638   2.956892   3.199543   1.789324   0.000000
    26  H    4.918584   2.575481   2.395107   1.775856   1.780308
    27  H    5.183942   3.315568   4.342585   2.320938   2.956113
    28  H    4.462346   2.906322   3.931765   3.188234   2.712297
    29  H    2.571152   3.316891   4.342577   5.661310   5.597930
    30  H    2.828736   2.886255   3.908198   5.058191   4.516695
    31  H    1.093847   3.285850   3.707921   6.395623   6.169227
    32  H    1.094144   2.948551   3.184179   6.161315   5.442611
    33  H    1.093613   2.576851   2.398722   5.774725   5.383883
                   26         27         28         29         30
    26  H    0.000000
    27  H    3.576738   0.000000
    28  H    3.811470   1.781721   0.000000
    29  H    5.700390   4.163082   3.639129   0.000000
    30  H    5.081113   3.642959   2.422943   1.779680   0.000000
    31  H    5.780682   5.652306   5.074610   2.315917   3.191033
    32  H    5.366655   5.603608   4.549250   2.947117   2.714249
    33  H    4.726472   5.692779   5.110477   3.572142   3.808800
                   31         32         33
    31  H    0.000000
    32  H    1.789569   0.000000
    33  H    1.775855   1.780423   0.000000
 Symmetry turned off by external request.
 Stoichiometry    C9H10F9N3O2(1+,2)
 Framework group  C1[X(C9H10F9N3O2)]
 Deg. of freedom    93
 Full point group                 C1      NOp   1
 Rotational constants (GHZ):      0.4393540      0.1748264      0.1585479
 Leave Link  202 at Sun Mar  3 18:23:03 2024, MaxMem=  5368709120 cpu:         0.1
 (Enter /home/k0335/k033513/app/g09/l301.exe)
 Standard basis: 6-31G(d,p) (6D, 7F)
 Ernie: Thresh=  0.10000D-02 Tol=  0.10000D-05 Strict=F.
   395 basis functions,   714 primitive gaussians,   395 cartesian basis functions
    91 alpha electrons       90 beta electrons
       nuclear repulsion energy      2492.7806143712 Hartrees.
 IExCor=20419 DFT=T Ex+Corr=CAM-B3LYP ExCW=0 ScaHFX=  1.000000
 ScaDFX=  1.000000  1.000000  1.000000  0.810000 ScalE2=  1.000000  1.000000
 IRadAn=      0 IRanWt=     -1 IRanGd=            0 ICorTp=0 IEmpDi=  4
  HFx wShort=  0.000000 wLong=  0.330000 cFull=  0.190000 cShort=  0.000000 cLong=  0.460000
  DFx wShort=  0.000000 wLong=  0.330000 cFull=  0.190000 cShort=  0.000000 cLong=  0.460000
 NAtoms=   33 NActive=   33 NUniq=   33 SFac= 1.00D+00 NAtFMM=   60 NAOKFM=F Big=F
 Integral buffers will be    131072 words long.
 Raffenetti 2 integral format.
 Two-electron integral symmetry is turned off.
 Using the following non-standard input for PCM:
 eps=4.9
 --- end of non-standard input.
 ------------------------------------------------------------------------------
 Polarizable Continuum Model (PCM)
 =================================
 Model                : PCM (using non-symmetric T matrix).
 Atomic radii         : UFF (Universal Force Field).
 Polarization charges : Total charges.
 Charge compensation  : None.
 Solution method      : On-the-fly selection.
 Cavity type          : Scaled VdW (van der Waals Surface) (Alpha=1.100).
 Cavity algorithm     : GePol (No added spheres)
                        Default sphere list used, NSphG=   33.
                        Lebedev-Laikov grids with approx.  5.0 points / Ang**2.
                        Smoothing algorithm: Karplus/York (Gamma=1.0000).
                        Polarization charges: spherical gaussians, with
                                              point-specific exponents (IZeta= 3).
                        Self-potential: point-specific (ISelfS= 7).
                        Self-field    : sphere-specific E.n sum rule (ISelfD= 2).
 Solvent              : Generic,
                        Eps                           =   4.900000
                        Eps(infinity)                 =   0.000000
                        RSolv                         =   0.000000 Ang.
                        Molar volume                  =   0.000000 cm**3/mol
                        Thermal expansion coefficient =   0.000000 K**-1
                        Absolute temperature          = 298.150000 K
                        Numeral density               =   0.000000 Ang**-3
                        Hydrogen bond acidity         =   0.000000
                        Hydrogen bond basicity        =   0.000000
                        Surface tension at interface  =   0.000000 (cal/mol)*Ang**-2
                        Carbon aromaticity            =   0.000000
                        Electronegative halogenicity  =   0.000000
 ------------------------------------------------------------------------------
 GePol: Number of generator spheres                  =      33
 GePol: Total number of spheres                      =      33
 GePol: Number of exposed spheres                    =      32 ( 96.97%)
 GePol: Number of points                             =    2529
 GePol: Average weight of points                     =       0.13
 GePol: Minimum weight of points                     =   0.92D-09
 GePol: Maximum weight of points                     =    0.20577
 GePol: Number of points with low weight             =     127
 GePol: Fraction of low-weight points (<1% of avg)   =       5.02%
 GePol: Cavity surface area                          =    322.421 Ang**2
 GePol: Cavity volume                                =    356.561 Ang**3
 Leave Link  301 at Sun Mar  3 18:23:03 2024, MaxMem=  5368709120 cpu:         0.9
 (Enter /home/k0335/k033513/app/g09/l302.exe)
 NPDir=0 NMtPBC=     1 NCelOv=     1 NCel=       1 NClECP=     1 NCelD=      1
         NCelK=      1 NCelE2=     1 NClLst=     1 CellRange=     0.0.
 One-electron integrals computed using PRISM.
 NBasis=   395 RedAO= T EigKep=  1.38D-03  NBF=   395
 NBsUse=   395 1.00D-06 EigRej= -1.00D+00 NBFU=   395
 Precomputing XC quadrature grid using
 IXCGrd= 4 IRadAn=           0 IRanWt=          -1 IRanGd=           0 AccXCQ= 0.00D+00.
 Generated NRdTot=       0 NPtTot=           0 NUsed=           0 NTot=          32
 NSgBfM=   389   389   389   389   390 MxSgAt=    33 MxSgA2=    33.
 Leave Link  302 at Sun Mar  3 18:23:03 2024, MaxMem=  5368709120 cpu:         6.4
 (Enter /home/k0335/k033513/app/g09/l303.exe)
 DipDrv:  MaxL=1.
 Leave Link  303 at Sun Mar  3 18:23:03 2024, MaxMem=  5368709120 cpu:         0.6
 (Enter /home/k0335/k033513/app/g09/l401.exe)
 ExpMin= 1.61D-01 ExpMax= 7.00D+03 ExpMxC= 1.05D+03 IAcc=1 IRadAn=         1 AccDes= 0.00D+00
 Harris functional with IExCor=20419 and IRadAn=       1 diagonalized for initial guess.
 HarFok:  IExCor=20419 AccDes= 0.00D+00 IRadAn=         1 IDoV= 1 UseB2=F ITyADJ=14
 ICtDFT=  3500011 ScaDFX=  1.000000  1.000000  1.000000  1.000000
 FoFCou: FMM=F IPFlag=           0 FMFlag=      100000 FMFlg1=           0
         NFxFlg=           0 DoJE=T BraDBF=F KetDBF=T FulRan=T
         wScrn=  0.000000 ICntrl=     500 IOpCl=  0 I1Cent=   200000004 NGrid=           0
         NMat0=    1 NMatS0=      1 NMatT0=    0 NMatD0=    1 NMtDS0=    0 NMtDT0=    0
 Symmetry not used in FoFCou.
 Harris En= -1512.78416341880    
 JPrj=0 DoOrth=F DoCkMO=F.
 Initial guess <Sx>= 0.0000 <Sy>= 0.0000 <Sz>= 0.5000 <S**2>= 0.7500 S= 0.5000
 Leave Link  401 at Sun Mar  3 18:23:04 2024, MaxMem=  5368709120 cpu:         8.2
 (Enter /home/k0335/k033513/app/g09/l502.exe)
 UHF open shell SCF:
 Using DIIS extrapolation, IDIIS=  1040.
 Two-electron integral symmetry not used.
 IVT=      498541 IEndB=      498541 NGot=  5368709120 MDV=  5368383640
 LenX=  5368383640 LenY=  5368227174
 Requested convergence on RMS density matrix=1.00D-08 within 128 cycles.
 Requested convergence on MAX density matrix=1.00D-06.
 Requested convergence on             energy=1.00D-06.
 No special actions if energy rises.
 Fock matrices will be formed incrementally for  20 cycles.

 Cycle   1  Pass 1  IDiag  1:
 FoFJK:  IHMeth= 1 ICntrl=       0 DoSepK=T KAlg= 0 I1Cent=   0 FoldK=F
 IRaf=         1 NMat=   1 IRICut=       1 DoRegI=T DoRafI=F ISym2E= 0.
 FoFCou: FMM=F IPFlag=           0 FMFlag=      100000 FMFlg1=           0
         NFxFlg=           0 DoJE=T BraDBF=F KetDBF=F FulRan=T
         wScrn=  0.000000 ICntrl=     500 IOpCl=  0 I1Cent=           0 NGrid=           0
         NMat0=    1 NMatS0=      1 NMatT0=    0 NMatD0=    1 NMtDS0=    0 NMtDT0=    0
 Symmetry not used in FoFCou.
 Inv3:  Mode=1 IEnd=    19187523.
 Iteration    1 A*A^-1 deviation from unit magnitude is 5.55D-15 for    247.
 Iteration    1 A*A^-1 deviation from orthogonality  is 2.58D-15 for   2404    619.
 Iteration    1 A^-1*A deviation from unit magnitude is 4.88D-15 for   2525.
 Iteration    1 A^-1*A deviation from orthogonality  is 1.95D-09 for   2421   2417.
 Iteration    2 A*A^-1 deviation from unit magnitude is 7.77D-15 for    121.
 Iteration    2 A*A^-1 deviation from orthogonality  is 3.95D-15 for   2522    577.
 Iteration    2 A^-1*A deviation from unit magnitude is 9.99D-16 for    201.
 Iteration    2 A^-1*A deviation from orthogonality  is 5.44D-16 for   2409    624.
 E= -1560.94391034385    
 DIIS: error= 3.65D-02 at cycle   1 NSaved=   1.
 NSaved= 1 IEnMin= 1 EnMin= -1560.94391034385     IErMin= 1 ErrMin= 3.65D-02
 ErrMax= 3.65D-02  0.00D+00 EMaxC= 1.00D-01 BMatC= 5.47D+00 BMatP= 5.47D+00
 IDIUse=3 WtCom= 6.35D-01 WtEn= 3.65D-01
 Coeff-Com:  0.100D+01
 Coeff-En:   0.100D+01
 Coeff:      0.100D+01
 Gap=     0.489 Goal=   None    Shift=    0.000
 Gap=     0.180 Goal=   None    Shift=    0.000
 GapD=    0.180 DampG=1.000 DampE=0.500 DampFc=0.5000 IDamp=-1.
 Damping current iteration by 5.00D-01
 RMSDP=3.61D-03 MaxDP=1.45D-01              OVMax= 2.24D-01

 Cycle   2  Pass 1  IDiag  1:
 RMSU=  1.80D-03    CP:  1.00D+00
 E= -1561.21919891709     Delta-E=       -0.275288573239 Rises=F Damp=T
 DIIS: error= 1.92D-02 at cycle   2 NSaved=   2.
 NSaved= 2 IEnMin= 2 EnMin= -1561.21919891709     IErMin= 2 ErrMin= 1.92D-02
 ErrMax= 1.92D-02  0.00D+00 EMaxC= 1.00D-01 BMatC= 7.19D-01 BMatP= 5.47D+00
 IDIUse=3 WtCom= 8.08D-01 WtEn= 1.92D-01
 Coeff-Com: -0.241D+00 0.124D+01
 Coeff-En:   0.000D+00 0.100D+01
 Coeff:     -0.195D+00 0.119D+01
 Gap=     0.473 Goal=   None    Shift=    0.000
 Gap=     0.238 Goal=   None    Shift=    0.000
 RMSDP=1.25D-03 MaxDP=7.88D-02 DE=-2.75D-01 OVMax= 2.25D-01

 Cycle   3  Pass 1  IDiag  1:
 RMSU=  1.19D-03    CP:  1.00D+00  1.21D+00
 E= -1561.42172454317     Delta-E=       -0.202525626085 Rises=F Damp=F
 DIIS: error= 1.31D-02 at cycle   3 NSaved=   3.
 NSaved= 3 IEnMin= 3 EnMin= -1561.42172454317     IErMin= 3 ErrMin= 1.31D-02
 ErrMax= 1.31D-02  0.00D+00 EMaxC= 1.00D-01 BMatC= 4.70D-01 BMatP= 7.19D-01
 IDIUse=3 WtCom= 8.69D-01 WtEn= 1.31D-01
 Coeff-Com: -0.209D+00 0.653D+00 0.556D+00
 Coeff-En:   0.000D+00 0.000D+00 0.100D+01
 Coeff:     -0.182D+00 0.568D+00 0.614D+00
 Gap=     0.438 Goal=   None    Shift=    0.000
 Gap=     0.141 Goal=   None    Shift=    0.000
 RMSDP=9.54D-04 MaxDP=8.52D-02 DE=-2.03D-01 OVMax= 1.40D-01

 Cycle   4  Pass 1  IDiag  1:
 RMSU=  4.72D-04    CP:  1.00D+00  1.41D+00  3.75D-01
 E= -1561.49205533027     Delta-E=       -0.070330787097 Rises=F Damp=F
 DIIS: error= 6.79D-03 at cycle   4 NSaved=   4.
 NSaved= 4 IEnMin= 4 EnMin= -1561.49205533027     IErMin= 4 ErrMin= 6.79D-03
 ErrMax= 6.79D-03  0.00D+00 EMaxC= 1.00D-01 BMatC= 8.93D-02 BMatP= 4.70D-01
 IDIUse=3 WtCom= 9.32D-01 WtEn= 6.79D-02
 Coeff-Com: -0.648D-01 0.149D+00 0.343D+00 0.573D+00
 Coeff-En:   0.000D+00 0.000D+00 0.168D+00 0.832D+00
 Coeff:     -0.604D-01 0.139D+00 0.331D+00 0.591D+00
 Gap=     0.424 Goal=   None    Shift=    0.000
 Gap=     0.155 Goal=   None    Shift=    0.000
 RMSDP=3.63D-04 MaxDP=3.82D-02 DE=-7.03D-02 OVMax= 6.85D-02

 Cycle   5  Pass 1  IDiag  1:
 RMSU=  1.48D-04    CP:  9.99D-01  1.38D+00  6.07D-01  6.26D-01
 E= -1561.50804756821     Delta-E=       -0.015992237947 Rises=F Damp=F
 DIIS: error= 1.46D-03 at cycle   5 NSaved=   5.
 NSaved= 5 IEnMin= 5 EnMin= -1561.50804756821     IErMin= 5 ErrMin= 1.46D-03
 ErrMax= 1.46D-03  0.00D+00 EMaxC= 1.00D-01 BMatC= 4.99D-03 BMatP= 8.93D-02
 IDIUse=3 WtCom= 9.85D-01 WtEn= 1.46D-02
 Coeff-Com: -0.190D-01 0.348D-01 0.134D+00 0.323D+00 0.527D+00
 Coeff-En:   0.000D+00 0.000D+00 0.000D+00 0.000D+00 0.100D+01
 Coeff:     -0.187D-01 0.343D-01 0.132D+00 0.318D+00 0.534D+00
 Gap=     0.402 Goal=   None    Shift=    0.000
 Gap=     0.152 Goal=   None    Shift=    0.000
 RMSDP=7.51D-05 MaxDP=7.47D-03 DE=-1.60D-02 OVMax= 1.05D-02

 Cycle   6  Pass 1  IDiag  1:
 RMSU=  5.06D-05    CP:  9.99D-01  1.39D+00  5.94D-01  6.92D-01  7.31D-01
 E= -1561.50901727707     Delta-E=       -0.000969708850 Rises=F Damp=F
 DIIS: error= 2.61D-04 at cycle   6 NSaved=   6.
 NSaved= 6 IEnMin= 6 EnMin= -1561.50901727707     IErMin= 6 ErrMin= 2.61D-04
 ErrMax= 2.61D-04  0.00D+00 EMaxC= 1.00D-01 BMatC= 1.96D-04 BMatP= 4.99D-03
 IDIUse=3 WtCom= 9.97D-01 WtEn= 2.61D-03
 Coeff-Com:  0.332D-02-0.859D-02-0.217D-01-0.645D-02 0.874D-01 0.946D+00
 Coeff-En:   0.000D+00 0.000D+00 0.000D+00 0.000D+00 0.000D+00 0.100D+01
 Coeff:      0.331D-02-0.857D-02-0.216D-01-0.644D-02 0.872D-01 0.946D+00
 Gap=     0.404 Goal=   None    Shift=    0.000
 Gap=     0.153 Goal=   None    Shift=    0.000
 RMSDP=3.88D-05 MaxDP=3.12D-03 DE=-9.70D-04 OVMax= 1.08D-02

 Cycle   7  Pass 1  IDiag  1:
 RMSU=  2.46D-05    CP:  9.99D-01  1.39D+00  5.96D-01  7.18D-01  8.58D-01
                    CP:  1.38D+00
 E= -1561.50916896371     Delta-E=       -0.000151686649 Rises=F Damp=F
 DIIS: error= 1.97D-04 at cycle   7 NSaved=   7.
 NSaved= 7 IEnMin= 7 EnMin= -1561.50916896371     IErMin= 7 ErrMin= 1.97D-04
 ErrMax= 1.97D-04  0.00D+00 EMaxC= 1.00D-01 BMatC= 8.02D-05 BMatP= 1.96D-04
 IDIUse=3 WtCom= 9.98D-01 WtEn= 1.97D-03
 Coeff-Com:  0.500D-02-0.102D-01-0.365D-01-0.612D-01-0.635D-01 0.400D+00
 Coeff-Com:  0.766D+00
 Coeff-En:   0.000D+00 0.000D+00 0.000D+00 0.000D+00 0.000D+00 0.000D+00
 Coeff-En:   0.100D+01
 Coeff:      0.499D-02-0.101D-01-0.364D-01-0.611D-01-0.634D-01 0.399D+00
 Coeff:      0.767D+00
 Gap=     0.404 Goal=   None    Shift=    0.000
 Gap=     0.154 Goal=   None    Shift=    0.000
 RMSDP=2.67D-05 MaxDP=1.93D-03 DE=-1.52D-04 OVMax= 8.66D-03

 Cycle   8  Pass 1  IDiag  1:
 RMSU=  1.13D-05    CP:  9.99D-01  1.40D+00  5.97D-01  7.25D-01  9.30D-01
                    CP:  1.76D+00  1.37D+00
 E= -1561.50923949810     Delta-E=       -0.000070534382 Rises=F Damp=F
 DIIS: error= 1.37D-04 at cycle   8 NSaved=   8.
 NSaved= 8 IEnMin= 8 EnMin= -1561.50923949810     IErMin= 8 ErrMin= 1.37D-04
 ErrMax= 1.37D-04  0.00D+00 EMaxC= 1.00D-01 BMatC= 1.84D-05 BMatP= 8.02D-05
 IDIUse=3 WtCom= 9.99D-01 WtEn= 1.37D-03
 Coeff-Com: -0.848D-03 0.225D-02 0.168D-02-0.443D-02-0.418D-01-0.299D+00
 Coeff-Com:  0.508D-01 0.129D+01
 Coeff-En:   0.000D+00 0.000D+00 0.000D+00 0.000D+00 0.000D+00 0.000D+00
 Coeff-En:   0.000D+00 0.100D+01
 Coeff:     -0.846D-03 0.225D-02 0.168D-02-0.442D-02-0.418D-01-0.299D+00
 Coeff:      0.508D-01 0.129D+01
 Gap=     0.405 Goal=   None    Shift=    0.000
 Gap=     0.155 Goal=   None    Shift=    0.000
 RMSDP=3.25D-05 MaxDP=2.68D-03 DE=-7.05D-05 OVMax= 1.22D-02

 Cycle   9  Pass 1  IDiag  1:
 RMSU=  6.81D-06    CP:  9.99D-01  1.40D+00  5.99D-01  7.30D-01  1.01D+00
                    CP:  2.17D+00  2.14D+00  1.87D+00
 E= -1561.50928706766     Delta-E=       -0.000047569560 Rises=F Damp=F
 DIIS: error= 8.77D-05 at cycle   9 NSaved=   9.
 NSaved= 9 IEnMin= 9 EnMin= -1561.50928706766     IErMin= 9 ErrMin= 8.77D-05
 ErrMax= 8.77D-05  0.00D+00 EMaxC= 1.00D-01 BMatC= 6.59D-06 BMatP= 1.84D-05
 IDIUse=1 WtCom= 1.00D+00 WtEn= 0.00D+00
 Coeff-Com: -0.127D-02 0.275D-02 0.674D-02 0.105D-01-0.602D-02-0.179D+00
 Coeff-Com: -0.117D+00 0.443D+00 0.841D+00
 Coeff:     -0.127D-02 0.275D-02 0.674D-02 0.105D-01-0.602D-02-0.179D+00
 Coeff:     -0.117D+00 0.443D+00 0.841D+00
 Gap=     0.405 Goal=   None    Shift=    0.000
 Gap=     0.155 Goal=   None    Shift=    0.000
 RMSDP=1.46D-05 MaxDP=1.29D-03 DE=-4.76D-05 OVMax= 5.78D-03

 Cycle  10  Pass 1  IDiag  1:
 RMSU=  3.44D-06    CP:  9.99D-01  1.40D+00  5.99D-01  7.32D-01  1.03D+00
                    CP:  2.33D+00  2.49D+00  2.41D+00  1.51D+00
 E= -1561.50929920476     Delta-E=       -0.000012137108 Rises=F Damp=F
 DIIS: error= 6.26D-05 at cycle  10 NSaved=  10.
 NSaved=10 IEnMin=10 EnMin= -1561.50929920476     IErMin=10 ErrMin= 6.26D-05
 ErrMax= 6.26D-05  0.00D+00 EMaxC= 1.00D-01 BMatC= 2.46D-06 BMatP= 6.59D-06
 IDIUse=1 WtCom= 1.00D+00 WtEn= 0.00D+00
 Coeff-Com:  0.321D-03-0.828D-03-0.118D-02 0.279D-02 0.127D-01 0.120D+00
 Coeff-Com: -0.217D-01-0.558D+00 0.173D+00 0.127D+01
 Coeff:      0.321D-03-0.828D-03-0.118D-02 0.279D-02 0.127D-01 0.120D+00
 Coeff:     -0.217D-01-0.558D+00 0.173D+00 0.127D+01
 Gap=     0.405 Goal=   None    Shift=    0.000
 Gap=     0.155 Goal=   None    Shift=    0.000
 RMSDP=1.53D-05 MaxDP=1.42D-03 DE=-1.21D-05 OVMax= 6.36D-03

 Cycle  11  Pass 1  IDiag  1:
 RMSU=  2.29D-06    CP:  9.99D-01  1.40D+00  5.99D-01  7.31D-01  1.06D+00
                    CP:  2.47D+00  2.83D+00  2.99D+00  2.42D+00  1.83D+00
 E= -1561.50930668349     Delta-E=       -0.000007478728 Rises=F Damp=F
 DIIS: error= 3.13D-05 at cycle  11 NSaved=  11.
 NSaved=11 IEnMin=11 EnMin= -1561.50930668349     IErMin=11 ErrMin= 3.13D-05
 ErrMax= 3.13D-05  0.00D+00 EMaxC= 1.00D-01 BMatC= 6.09D-07 BMatP= 2.46D-06
 IDIUse=1 WtCom= 1.00D+00 WtEn= 0.00D+00
 Coeff-Com:  0.562D-03-0.124D-02-0.308D-02-0.313D-02 0.368D-02 0.999D-01
 Coeff-Com:  0.393D-01-0.328D+00-0.182D+00 0.409D+00 0.964D+00
 Coeff:      0.562D-03-0.124D-02-0.308D-02-0.313D-02 0.368D-02 0.999D-01
 Coeff:      0.393D-01-0.328D+00-0.182D+00 0.409D+00 0.964D+00
 Gap=     0.405 Goal=   None    Shift=    0.000
 Gap=     0.155 Goal=   None    Shift=    0.000
 RMSDP=7.46D-06 MaxDP=7.40D-04 DE=-7.48D-06 OVMax= 3.09D-03

 Cycle  12  Pass 1  IDiag  1:
 RMSU=  3.38D-06    CP:  9.99D-01  1.39D+00  6.00D-01  7.31D-01  1.07D+00
                    CP:  2.53D+00  2.98D+00  3.00D+00  2.91D+00  2.52D+00
                    CP:  1.40D+00
 E= -1561.50930846347     Delta-E=       -0.000001779980 Rises=F Damp=F
 DIIS: error= 1.55D-05 at cycle  12 NSaved=  12.
 NSaved=12 IEnMin=12 EnMin= -1561.50930846347     IErMin=12 ErrMin= 1.55D-05
 ErrMax= 1.55D-05  0.00D+00 EMaxC= 1.00D-01 BMatC= 4.61D-07 BMatP= 6.09D-07
 IDIUse=1 WtCom= 1.00D+00 WtEn= 0.00D+00
 Coeff-Com:  0.292D-03-0.607D-03-0.180D-02-0.314D-02-0.211D-02 0.293D-01
 Coeff-Com:  0.331D-01-0.464D-01-0.161D+00-0.164D+00 0.679D+00 0.637D+00
 Coeff:      0.292D-03-0.607D-03-0.180D-02-0.314D-02-0.211D-02 0.293D-01
 Coeff:      0.331D-01-0.464D-01-0.161D+00-0.164D+00 0.679D+00 0.637D+00
 Gap=     0.405 Goal=   None    Shift=    0.000
 Gap=     0.155 Goal=   None    Shift=    0.000
 RMSDP=3.69D-06 MaxDP=3.58D-04 DE=-1.78D-06 OVMax= 1.53D-03

 Cycle  13  Pass 1  IDiag  1:
 RMSU=  1.76D-06    CP:  9.99D-01  1.39D+00  6.00D-01  7.31D-01  1.07D+00
                    CP:  2.56D+00  3.00D+00  3.00D+00  3.00D+00  2.86D+00
                    CP:  1.83D+00  1.41D+00
 E= -1561.50930897660     Delta-E=       -0.000000513129 Rises=F Damp=F
 DIIS: error= 7.68D-06 at cycle  13 NSaved=  13.
 NSaved=13 IEnMin=13 EnMin= -1561.50930897660     IErMin=13 ErrMin= 7.68D-06
 ErrMax= 7.68D-06  0.00D+00 EMaxC= 1.00D-01 BMatC= 6.39D-08 BMatP= 4.61D-07
 IDIUse=1 WtCom= 1.00D+00 WtEn= 0.00D+00
 Coeff-Com: -0.289D-05 0.242D-04-0.132D-03-0.708D-03-0.219D-02-0.114D-01
 Coeff-Com:  0.421D-02 0.573D-01-0.478D-02-0.183D+00 0.103D+00-0.289D-01
 Coeff-Com:  0.107D+01
 Coeff:     -0.289D-05 0.242D-04-0.132D-03-0.708D-03-0.219D-02-0.114D-01
 Coeff:      0.421D-02 0.573D-01-0.478D-02-0.183D+00 0.103D+00-0.289D-01
 Coeff:      0.107D+01
 Gap=     0.405 Goal=   None    Shift=    0.000
 Gap=     0.155 Goal=   None    Shift=    0.000
 RMSDP=2.13D-06 MaxDP=2.15D-04 DE=-5.13D-07 OVMax= 7.66D-04

 Cycle  14  Pass 1  IDiag  1:
 RMSU=  8.69D-07    CP:  9.99D-01  1.39D+00  6.00D-01  7.31D-01  1.07D+00
                    CP:  2.58D+00  3.00D+00  3.00D+00  3.00D+00  3.00D+00
                    CP:  2.10D+00  1.70D+00  1.65D+00
 E= -1561.50930914799     Delta-E=       -0.000000171394 Rises=F Damp=F
 DIIS: error= 4.95D-06 at cycle  14 NSaved=  14.
 NSaved=14 IEnMin=14 EnMin= -1561.50930914799     IErMin=14 ErrMin= 4.95D-06
 ErrMax= 4.95D-06  0.00D+00 EMaxC= 1.00D-01 BMatC= 8.99D-08 BMatP= 6.39D-08
 IDIUse=1 WtCom= 1.00D+00 WtEn= 0.00D+00
 Coeff-Com: -0.696D-04 0.155D-03 0.304D-03 0.342D-03-0.767D-03-0.121D-01
 Coeff-Com: -0.535D-02 0.374D-01 0.450D-01-0.666D-01-0.557D-01-0.384D+00
 Coeff-Com:  0.791D+00 0.650D+00
 Coeff:     -0.696D-04 0.155D-03 0.304D-03 0.342D-03-0.767D-03-0.121D-01
 Coeff:     -0.535D-02 0.374D-01 0.450D-01-0.666D-01-0.557D-01-0.384D+00
 Coeff:      0.791D+00 0.650D+00
 Gap=     0.405 Goal=   None    Shift=    0.000
 Gap=     0.155 Goal=   None    Shift=    0.000
 RMSDP=1.15D-06 MaxDP=1.05D-04 DE=-1.71D-07 OVMax= 3.87D-04

 Cycle  15  Pass 1  IDiag  1:
 RMSU=  3.98D-07    CP:  9.99D-01  1.39D+00  6.00D-01  7.31D-01  1.08D+00
                    CP:  2.58D+00  3.00D+00  3.00D+00  3.00D+00  3.00D+00
                    CP:  2.26D+00  1.84D+00  1.98D+00  1.69D+00
 E= -1561.50930922948     Delta-E=       -0.000000081486 Rises=F Damp=F
 DIIS: error= 4.31D-06 at cycle  15 NSaved=  15.
 NSaved=15 IEnMin=15 EnMin= -1561.50930922948     IErMin=15 ErrMin= 4.31D-06
 ErrMax= 4.31D-06  0.00D+00 EMaxC= 1.00D-01 BMatC= 5.13D-08 BMatP= 6.39D-08
 IDIUse=1 WtCom= 1.00D+00 WtEn= 0.00D+00
 Coeff-Com: -0.109D-04 0.143D-04 0.100D-03 0.481D-03 0.111D-02 0.465D-02
 Coeff-Com: -0.247D-02-0.297D-01 0.210D-01 0.628D-01 0.497D-01-0.355D+00
 Coeff-Com:  0.182D-02-0.521D+00 0.177D+01
 Coeff:     -0.109D-04 0.143D-04 0.100D-03 0.481D-03 0.111D-02 0.465D-02
 Coeff:     -0.247D-02-0.297D-01 0.210D-01 0.628D-01 0.497D-01-0.355D+00
 Coeff:      0.182D-02-0.521D+00 0.177D+01
 Gap=     0.405 Goal=   None    Shift=    0.000
 Gap=     0.155 Goal=   None    Shift=    0.000
 RMSDP=1.79D-06 MaxDP=1.85D-04 DE=-8.15D-08 OVMax= 7.41D-04

 Cycle  16  Pass 1  IDiag  1:
 RMSU=  3.94D-07    CP:  9.99D-01  1.39D+00  6.00D-01  7.31D-01  1.08D+00
                    CP:  2.59D+00  3.00D+00  3.00D+00  3.00D+00  3.00D+00
                    CP:  2.46D+00  2.03D+00  2.37D+00  3.00D+00  2.77D+00
 E= -1561.50930933150     Delta-E=       -0.000000102015 Rises=F Damp=F
 DIIS: error= 3.69D-06 at cycle  16 NSaved=  16.
 NSaved=16 IEnMin=16 EnMin= -1561.50930933150     IErMin=16 ErrMin= 3.69D-06
 ErrMax= 3.69D-06  0.00D+00 EMaxC= 1.00D-01 BMatC= 3.70D-08 BMatP= 5.13D-08
 IDIUse=1 WtCom= 1.00D+00 WtEn= 0.00D+00
 Coeff-Com:  0.209D-04-0.499D-04-0.591D-04 0.408D-04 0.738D-03 0.571D-02
 Coeff-Com:  0.198D-02-0.242D-01-0.120D-02 0.237D-01 0.112D+00-0.136D+00
 Coeff-Com: -0.282D-01-0.913D+00 0.905D+00 0.105D+01
 Coeff:      0.209D-04-0.499D-04-0.591D-04 0.408D-04 0.738D-03 0.571D-02
 Coeff:      0.198D-02-0.242D-01-0.120D-02 0.237D-01 0.112D+00-0.136D+00
 Coeff:     -0.282D-01-0.913D+00 0.905D+00 0.105D+01
 Gap=     0.405 Goal=   None    Shift=    0.000
 Gap=     0.155 Goal=   None    Shift=    0.000
 RMSDP=1.37D-06 MaxDP=1.45D-04 DE=-1.02D-07 OVMax= 6.01D-04

 Cycle  17  Pass 1  IDiag  1:
 RMSU=  1.07D-06    CP:  9.99D-01  1.39D+00  6.00D-01  7.31D-01  1.08D+00
                    CP:  2.59D+00  3.00D+00  3.00D+00  3.00D+00  3.00D+00
                    CP:  2.58D+00  2.15D+00  2.56D+00  3.00D+00  3.00D+00
                    CP:  2.30D+00
 E= -1561.50930939624     Delta-E=       -0.000000064746 Rises=F Damp=F
 DIIS: error= 2.84D-06 at cycle  17 NSaved=  17.
 NSaved=17 IEnMin=17 EnMin= -1561.50930939624     IErMin=17 ErrMin= 2.84D-06
 ErrMax= 2.84D-06  0.00D+00 EMaxC= 1.00D-01 BMatC= 2.26D-08 BMatP= 3.70D-08
 IDIUse=1 WtCom= 1.00D+00 WtEn= 0.00D+00
 Coeff-Com:  0.546D-05-0.776D-05-0.864D-05-0.244D-03-0.465D-03-0.284D-02
 Coeff-Com:  0.193D-02 0.151D-01-0.131D-02-0.630D-01 0.585D-01 0.966D-02
 Coeff-Com:  0.324D+00-0.253D+00-0.686D+00-0.108D+00 0.171D+01
 Coeff:      0.546D-05-0.776D-05-0.864D-05-0.244D-03-0.465D-03-0.284D-02
 Coeff:      0.193D-02 0.151D-01-0.131D-02-0.630D-01 0.585D-01 0.966D-02
 Coeff:      0.324D+00-0.253D+00-0.686D+00-0.108D+00 0.171D+01
 Gap=     0.405 Goal=   None    Shift=    0.000
 Gap=     0.155 Goal=   None    Shift=    0.000
 RMSDP=1.84D-06 MaxDP=1.93D-04 DE=-6.47D-08 OVMax= 8.19D-04

 Cycle  18  Pass 1  IDiag  1:
 RMSU=  5.95D-07    CP:  9.99D-01  1.39D+00  6.00D-01  7.31D-01  1.08D+00
                    CP:  2.59D+00  3.00D+00  3.00D+00  3.00D+00  3.00D+00
                    CP:  2.72D+00  2.28D+00  2.75D+00  3.00D+00  3.00D+00
                    CP:  3.00D+00  2.39D+00
 E= -1561.50930946188     Delta-E=       -0.000000065638 Rises=F Damp=F
 DIIS: error= 1.85D-06 at cycle  18 NSaved=  18.
 NSaved=18 IEnMin=18 EnMin= -1561.50930946188     IErMin=18 ErrMin= 1.85D-06
 ErrMax= 1.85D-06  0.00D+00 EMaxC= 1.00D-01 BMatC= 1.09D-08 BMatP= 2.26D-08
 IDIUse=1 WtCom= 1.00D+00 WtEn= 0.00D+00
 Coeff-Com: -0.146D-04 0.337D-04 0.846D-04-0.126D-04-0.420D-03-0.457D-02
 Coeff-Com: -0.121D-02 0.172D-01 0.974D-02-0.445D-01-0.169D-01-0.369D-01
 Coeff-Com:  0.305D+00 0.250D+00-0.553D+00-0.946D+00 0.658D+00 0.136D+01
 Coeff:     -0.146D-04 0.337D-04 0.846D-04-0.126D-04-0.420D-03-0.457D-02
 Coeff:     -0.121D-02 0.172D-01 0.974D-02-0.445D-01-0.169D-01-0.369D-01
 Coeff:      0.305D+00 0.250D+00-0.553D+00-0.946D+00 0.658D+00 0.136D+01
 Gap=     0.405 Goal=   None    Shift=    0.000
 Gap=     0.155 Goal=   None    Shift=    0.000
 RMSDP=1.83D-06 MaxDP=1.90D-04 DE=-6.56D-08 OVMax= 8.18D-04

 Cycle  19  Pass 1  IDiag  1:
 RMSU=  8.31D-07    CP:  9.99D-01  1.39D+00  6.00D-01  7.31D-01  1.08D+00
                    CP:  2.59D+00  3.00D+00  3.00D+00  3.00D+00  3.00D+00
                    CP:  2.84D+00  2.41D+00  2.93D+00  3.00D+00  3.00D+00
                    CP:  3.00D+00  3.00D+00  2.50D+00
 E= -1561.50930950225     Delta-E=       -0.000000040365 Rises=F Damp=F
 DIIS: error= 9.08D-07 at cycle  19 NSaved=  19.
 NSaved=19 IEnMin=19 EnMin= -1561.50930950225     IErMin=19 ErrMin= 9.08D-07
 ErrMax= 9.08D-07  0.00D+00 EMaxC= 1.00D-01 BMatC= 3.26D-09 BMatP= 1.09D-08
 IDIUse=1 WtCom= 1.00D+00 WtEn= 0.00D+00
 Coeff-Com: -0.145D-04 0.296D-04 0.691D-04 0.203D-03 0.214D-03-0.472D-03
 Coeff-Com: -0.209D-02-0.285D-02 0.115D-01 0.209D-01-0.358D-01-0.955D-01
 Coeff-Com: -0.767D-02 0.178D+00 0.432D+00-0.486D+00-0.941D+00 0.663D+00
 Coeff-Com:  0.127D+01
 Coeff:     -0.145D-04 0.296D-04 0.691D-04 0.203D-03 0.214D-03-0.472D-03
 Coeff:     -0.209D-02-0.285D-02 0.115D-01 0.209D-01-0.358D-01-0.955D-01
 Coeff:     -0.767D-02 0.178D+00 0.432D+00-0.486D+00-0.941D+00 0.663D+00
 Coeff:      0.127D+01
 Gap=     0.405 Goal=   None    Shift=    0.000
 Gap=     0.155 Goal=   None    Shift=    0.000
 RMSDP=1.55D-06 MaxDP=1.58D-04 DE=-4.04D-08 OVMax= 6.90D-04

 Cycle  20  Pass 1  IDiag  1:
 RMSU=  5.29D-07    CP:  9.99D-01  1.39D+00  6.00D-01  7.31D-01  1.08D+00
                    CP:  2.59D+00  3.00D+00  3.00D+00  3.00D+00  3.00D+00
                    CP:  2.93D+00  2.50D+00  3.00D+00  3.00D+00  3.00D+00
                    CP:  3.00D+00  3.00D+00  3.00D+00  2.50D+00
 E= -1561.50930951662     Delta-E=       -0.000000014372 Rises=F Damp=F
 DIIS: error= 3.44D-07 at cycle  20 NSaved=  20.
 NSaved=20 IEnMin=20 EnMin= -1561.50930951662     IErMin=20 ErrMin= 3.44D-07
 ErrMax= 3.44D-07  0.00D+00 EMaxC= 1.00D-01 BMatC= 1.82D-10 BMatP= 3.26D-09
 IDIUse=1 WtCom= 1.00D+00 WtEn= 0.00D+00
 Coeff-Com: -0.670D-06 0.857D-06 0.244D-05 0.395D-04 0.167D-03 0.722D-03
 Coeff-Com: -0.247D-03-0.358D-02 0.447D-03 0.974D-02 0.177D-02-0.145D-01
 Coeff-Com: -0.402D-01-0.363D-01 0.169D+00 0.797D-01-0.225D+00-0.151D+00
 Coeff-Com:  0.173D+00 0.104D+01
 Coeff:     -0.670D-06 0.857D-06 0.244D-05 0.395D-04 0.167D-03 0.722D-03
 Coeff:     -0.247D-03-0.358D-02 0.447D-03 0.974D-02 0.177D-02-0.145D-01
 Coeff:     -0.402D-01-0.363D-01 0.169D+00 0.797D-01-0.225D+00-0.151D+00
 Coeff:      0.173D+00 0.104D+01
 Gap=     0.405 Goal=   None    Shift=    0.000
 Gap=     0.155 Goal=   None    Shift=    0.000
 RMSDP=3.01D-07 MaxDP=2.94D-05 DE=-1.44D-08 OVMax= 1.33D-04

 Cycle  21  Pass 1  IDiag  1:
 Restarting incremental Fock formation.
 E= -1561.50930951714     Delta-E=       -0.000000000521 Rises=F Damp=F
 DIIS: error= 1.13D-07 at cycle  21 NSaved=  20.
 NSaved=20 IEnMin=20 EnMin= -1561.50930951714     IErMin=20 ErrMin= 1.13D-07
 ErrMax= 1.13D-07  0.00D+00 EMaxC= 1.00D-01 BMatC= 2.55D-11 BMatP= 1.82D-10
 IDIUse=1 WtCom= 1.00D+00 WtEn= 0.00D+00
 Coeff-Com: -0.120D-06 0.736D-06-0.129D-05 0.383D-04 0.118D-03 0.182D-04
 Coeff-Com: -0.300D-03-0.829D-03 0.185D-03 0.427D-02 0.503D-02-0.888D-02
 Coeff-Com: -0.299D-01-0.144D-02 0.843D-01 0.479D-01-0.140D+00-0.104D+00
 Coeff-Com:  0.359D+00 0.785D+00
 Coeff:     -0.120D-06 0.736D-06-0.129D-05 0.383D-04 0.118D-03 0.182D-04
 Coeff:     -0.300D-03-0.829D-03 0.185D-03 0.427D-02 0.503D-02-0.888D-02
 Coeff:     -0.299D-01-0.144D-02 0.843D-01 0.479D-01-0.140D+00-0.104D+00
 Coeff:      0.359D+00 0.785D+00
 Gap=     0.405 Goal=   None    Shift=    0.000
 Gap=     0.155 Goal=   None    Shift=    0.000
 RMSDP=4.73D-08 MaxDP=4.11D-06 DE=-5.21D-10 OVMax= 2.02D-05

 Cycle  22  Pass 1  IDiag  1:
 RMSU=  4.73D-08    CP:  1.00D+00
 E= -1561.50930951721     Delta-E=       -0.000000000069 Rises=F Damp=F
 DIIS: error= 6.10D-08 at cycle  22 NSaved=  20.
 NSaved=20 IEnMin=20 EnMin= -1561.50930951721     IErMin=20 ErrMin= 6.10D-08
 ErrMax= 6.10D-08  0.00D+00 EMaxC= 1.00D-01 BMatC= 4.10D-12 BMatP= 2.55D-11
 IDIUse=1 WtCom= 1.00D+00 WtEn= 0.00D+00
 Coeff-Com:  0.230D-06-0.708D-05-0.141D-04-0.827D-04 0.359D-04 0.530D-03
 Coeff-Com: -0.395D-03-0.160D-02 0.121D-02 0.399D-02 0.388D-02-0.350D-02
 Coeff-Com: -0.305D-01 0.156D-01 0.564D-01-0.241D-01-0.639D-01-0.606D-01
 Coeff-Com:  0.264D+00 0.840D+00
 Coeff:      0.230D-06-0.708D-05-0.141D-04-0.827D-04 0.359D-04 0.530D-03
 Coeff:     -0.395D-03-0.160D-02 0.121D-02 0.399D-02 0.388D-02-0.350D-02
 Coeff:     -0.305D-01 0.156D-01 0.564D-01-0.241D-01-0.639D-01-0.606D-01
 Coeff:      0.264D+00 0.840D+00
 Gap=     0.405 Goal=   None    Shift=    0.000
 Gap=     0.155 Goal=   None    Shift=    0.000
 RMSDP=1.34D-08 MaxDP=9.47D-07 DE=-6.87D-11 OVMax= 5.48D-06

 Cycle  23  Pass 1  IDiag  1:
 RMSU=  5.21D-09    CP:  1.00D+00  1.26D+00
 E= -1561.50930951714     Delta-E=        0.000000000068 Rises=F Damp=F
 DIIS: error= 3.69D-08 at cycle  23 NSaved=  20.
 NSaved=20 IEnMin=19 EnMin= -1561.50930951721     IErMin=20 ErrMin= 3.69D-08
 ErrMax= 3.69D-08  0.00D+00 EMaxC= 1.00D-01 BMatC= 8.59D-13 BMatP= 4.10D-12
 IDIUse=1 WtCom= 1.00D+00 WtEn= 0.00D+00
 Coeff-Com: -0.180D-05-0.112D-04-0.412D-04 0.682D-05 0.195D-03-0.825D-05
 Coeff-Com: -0.540D-03-0.362D-03 0.444D-03 0.289D-02 0.428D-02-0.104D-01
 Coeff-Com: -0.969D-02 0.100D-01 0.173D-01-0.873D-03-0.841D-01-0.535D-01
 Coeff-Com:  0.279D+00 0.846D+00
 Coeff:     -0.180D-05-0.112D-04-0.412D-04 0.682D-05 0.195D-03-0.825D-05
 Coeff:     -0.540D-03-0.362D-03 0.444D-03 0.289D-02 0.428D-02-0.104D-01
 Coeff:     -0.969D-02 0.100D-01 0.173D-01-0.873D-03-0.841D-01-0.535D-01
 Coeff:      0.279D+00 0.846D+00
 Gap=     0.405 Goal=   None    Shift=    0.000
 Gap=     0.155 Goal=   None    Shift=    0.000
 RMSDP=5.20D-09 MaxDP=3.63D-07 DE= 6.82D-11 OVMax= 1.75D-06

 Error on total polarization charges =  0.00298
 SCF Done:  E(UCAM-B3LYP) =  -1561.50930952     A.U. after   23 cycles
            NFock= 23  Conv=0.52D-08     -V/T= 2.0076
 <Sx>= 0.0000 <Sy>= 0.0000 <Sz>= 0.5000 <S**2>= 0.7822 S= 0.5160
 <L.S>= 0.000000000000E+00
 KE= 1.549731841839D+03 PE=-8.643303883173D+03 EE= 3.039282117445D+03
 Annihilation of the first spin contaminant:
 S**2 before annihilation     0.7822,   after     0.7502
 Leave Link  502 at Sun Mar  3 18:23:54 2024, MaxMem=  5368709120 cpu:      1177.5
 (Enter /home/k0335/k033513/app/g09/l601.exe)
 Copying SCF densities to generalized density rwf, IOpCl= 1 IROHF=0.

 **********************************************************************

            Population analysis using the SCF density.

 **********************************************************************

 Alpha  occ. eigenvalues --  -24.86725 -24.86256 -24.85963 -24.85769 -24.85760
 Alpha  occ. eigenvalues --  -24.85445 -24.85355 -24.85314 -24.84799 -19.36504
 Alpha  occ. eigenvalues --  -19.26688 -14.59231 -14.58826 -14.52085 -10.62266
 Alpha  occ. eigenvalues --  -10.57783 -10.54800 -10.51939 -10.48368 -10.41691
 Alpha  occ. eigenvalues --  -10.41644 -10.36160 -10.36004  -1.45750  -1.43959
 Alpha  occ. eigenvalues --   -1.41505  -1.39171  -1.36082  -1.35722  -1.35196
 Alpha  occ. eigenvalues --   -1.34285  -1.34179  -1.24283  -1.23868  -1.16364
 Alpha  occ. eigenvalues --   -1.13975  -1.09438  -0.95932  -0.90920  -0.90747
 Alpha  occ. eigenvalues --   -0.87907  -0.84956  -0.82717  -0.81443  -0.78230
 Alpha  occ. eigenvalues --   -0.75636  -0.74676  -0.73586  -0.72539  -0.72287
 Alpha  occ. eigenvalues --   -0.71160  -0.70766  -0.70241  -0.69455  -0.68501
 Alpha  occ. eigenvalues --   -0.67506  -0.65696  -0.65101  -0.64037  -0.63016
 Alpha  occ. eigenvalues --   -0.61632  -0.60128  -0.59619  -0.59227  -0.58723
 Alpha  occ. eigenvalues --   -0.58547  -0.57688  -0.57488  -0.57162  -0.56393
 Alpha  occ. eigenvalues --   -0.56163  -0.55438  -0.55019  -0.54737  -0.54418
 Alpha  occ. eigenvalues --   -0.53958  -0.53160  -0.52978  -0.52891  -0.52597
 Alpha  occ. eigenvalues --   -0.52448  -0.52406  -0.52236  -0.51477  -0.50927
 Alpha  occ. eigenvalues --   -0.48998  -0.47485  -0.43493  -0.42278  -0.41125
 Alpha  occ. eigenvalues --   -0.40168
 Alpha virt. eigenvalues --    0.00324   0.03324   0.05554   0.07591   0.09538
 Alpha virt. eigenvalues --    0.10727   0.11641   0.11846   0.13055   0.13514
 Alpha virt. eigenvalues --    0.14837   0.16110   0.16633   0.16986   0.17279
 Alpha virt. eigenvalues --    0.17450   0.17997   0.18682   0.19005   0.19989
 Alpha virt. eigenvalues --    0.20057   0.20318   0.20973   0.22644   0.22870
 Alpha virt. eigenvalues --    0.23885   0.24481   0.25312   0.26152   0.29582
 Alpha virt. eigenvalues --    0.30161   0.31309   0.33128   0.37947   0.45088
 Alpha virt. eigenvalues --    0.46888   0.47336   0.47626   0.48593   0.49434
 Alpha virt. eigenvalues --    0.49816   0.51648   0.51877   0.52788   0.53333
 Alpha virt. eigenvalues --    0.53619   0.54982   0.55145   0.56040   0.56813
 Alpha virt. eigenvalues --    0.58875   0.59817   0.60694   0.63784   0.63876
 Alpha virt. eigenvalues --    0.68033   0.68684   0.69033   0.71076   0.71364
 Alpha virt. eigenvalues --    0.72959   0.75117   0.75412   0.77703   0.78031
 Alpha virt. eigenvalues --    0.81555   0.84094   0.84283   0.84855   0.85640
 Alpha virt. eigenvalues --    0.86117   0.87349   0.88391   0.88884   0.90353
 Alpha virt. eigenvalues --    0.90698   0.91826   0.93706   0.94293   0.95189
 Alpha virt. eigenvalues --    0.96391   0.97770   0.98832   1.00563   1.02742
 Alpha virt. eigenvalues --    1.03773   1.06093   1.07066   1.07584   1.07951
 Alpha virt. eigenvalues --    1.08761   1.10902   1.11978   1.13726   1.14503
 Alpha virt. eigenvalues --    1.15731   1.18224   1.19643   1.20660   1.21789
 Alpha virt. eigenvalues --    1.22066   1.23726   1.25106   1.25383   1.27891
 Alpha virt. eigenvalues --    1.29412   1.30351   1.31329   1.32419   1.32712
 Alpha virt. eigenvalues --    1.33356   1.33918   1.34516   1.35750   1.36139
 Alpha virt. eigenvalues --    1.37805   1.38839   1.39886   1.40348   1.40905
 Alpha virt. eigenvalues --    1.41987   1.42952   1.43562   1.43883   1.46335
 Alpha virt. eigenvalues --    1.48157   1.48955   1.49334   1.50625   1.53207
 Alpha virt. eigenvalues --    1.54294   1.55158   1.56556   1.58408   1.59849
 Alpha virt. eigenvalues --    1.61461   1.63411   1.65694   1.67442   1.68516
 Alpha virt. eigenvalues --    1.69025   1.69123   1.70650   1.72023   1.73081
 Alpha virt. eigenvalues --    1.73942   1.76538   1.78376   1.79071   1.79345
 Alpha virt. eigenvalues --    1.80786   1.81486   1.81875   1.82253   1.82496
 Alpha virt. eigenvalues --    1.83011   1.84136   1.84723   1.85578   1.85830
 Alpha virt. eigenvalues --    1.86667   1.87824   1.88221   1.89190   1.90338
 Alpha virt. eigenvalues --    1.91177   1.91595   1.92413   1.93281   1.94053
 Alpha virt. eigenvalues --    1.95693   1.96080   1.96930   1.97635   1.98088
 Alpha virt. eigenvalues --    1.98798   1.98956   1.99798   2.00735   2.01210
 Alpha virt. eigenvalues --    2.01537   2.02425   2.02750   2.03754   2.04651
 Alpha virt. eigenvalues --    2.04931   2.05806   2.06288   2.06719   2.07087
 Alpha virt. eigenvalues --    2.07301   2.07640   2.09567   2.09883   2.10408
 Alpha virt. eigenvalues --    2.11011   2.11615   2.13280   2.14029   2.15797
 Alpha virt. eigenvalues --    2.17076   2.18249   2.19872   2.22246   2.23746
 Alpha virt. eigenvalues --    2.24733   2.25618   2.26451   2.29064   2.30073
 Alpha virt. eigenvalues --    2.31848   2.34623   2.35137   2.36408   2.36610
 Alpha virt. eigenvalues --    2.37514   2.40068   2.41135   2.43713   2.45064
 Alpha virt. eigenvalues --    2.47235   2.47496   2.48833   2.50423   2.51524
 Alpha virt. eigenvalues --    2.54330   2.56580   2.59742   2.60931   2.61479
 Alpha virt. eigenvalues --    2.63131   2.63288   2.65121   2.66882   2.68048
 Alpha virt. eigenvalues --    2.68842   2.70512   2.72539   2.73227   2.73671
 Alpha virt. eigenvalues --    2.76646   2.79923   2.80624   2.82229   2.83350
 Alpha virt. eigenvalues --    2.85225   2.86485   2.87544   2.88416   2.89536
 Alpha virt. eigenvalues --    2.89883   2.90482   2.92138   2.94525   2.95687
 Alpha virt. eigenvalues --    2.97256   2.99169   3.02358   3.02761   3.03913
 Alpha virt. eigenvalues --    3.04723   3.06687   3.09493   3.14432   3.16102
 Alpha virt. eigenvalues --    3.18038   3.20630   3.21217   3.21443   3.23813
 Alpha virt. eigenvalues --    3.25493   3.27603   3.29194   3.30048   3.36313
 Alpha virt. eigenvalues --    3.41162   3.41674   3.44987   3.46852   3.48783
 Alpha virt. eigenvalues --    3.50935   3.99403   4.02854   4.06396   4.15307
 Alpha virt. eigenvalues --    4.18654   4.32064   4.40918   4.44187   4.47113
 Alpha virt. eigenvalues --    4.48389   4.56106   4.57390   4.61752   4.63853
 Alpha virt. eigenvalues --    4.71373   4.80747   5.03293   5.21296   5.26880
 Alpha virt. eigenvalues --    5.39452   5.60412   6.16618   6.63291
  Beta  occ. eigenvalues --  -24.86723 -24.86256 -24.85963 -24.85769 -24.85756
  Beta  occ. eigenvalues --  -24.85445 -24.85352 -24.85314 -24.84799 -19.36502
  Beta  occ. eigenvalues --  -19.26837 -14.58082 -14.57736 -14.52070 -10.62266
  Beta  occ. eigenvalues --  -10.57783 -10.54804 -10.51939 -10.48512 -10.41721
  Beta  occ. eigenvalues --  -10.41673 -10.36185 -10.36028  -1.45750  -1.43959
  Beta  occ. eigenvalues --   -1.41501  -1.39167  -1.36081  -1.35722  -1.35193
  Beta  occ. eigenvalues --   -1.34283  -1.34176  -1.23892  -1.23326  -1.16241
  Beta  occ. eigenvalues --   -1.11740  -1.08726  -0.95915  -0.90587  -0.90439
  Beta  occ. eigenvalues --   -0.87761  -0.84936  -0.81892  -0.81327  -0.78171
  Beta  occ. eigenvalues --   -0.75619  -0.74534  -0.73501  -0.72346  -0.72165
  Beta  occ. eigenvalues --   -0.70731  -0.70449  -0.69837  -0.69409  -0.67894
  Beta  occ. eigenvalues --   -0.67268  -0.64534  -0.63433  -0.63140  -0.62848
  Beta  occ. eigenvalues --   -0.60971  -0.60003  -0.59481  -0.58931  -0.58549
  Beta  occ. eigenvalues --   -0.58200  -0.57681  -0.57414  -0.56300  -0.56279
  Beta  occ. eigenvalues --   -0.56112  -0.55260  -0.55001  -0.54722  -0.54375
  Beta  occ. eigenvalues --   -0.53768  -0.53068  -0.52772  -0.52500  -0.52439
  Beta  occ. eigenvalues --   -0.52400  -0.52205  -0.51929  -0.51447  -0.50917
  Beta  occ. eigenvalues --   -0.48984  -0.47466  -0.41187  -0.40833  -0.37280
  Beta virt. eigenvalues --   -0.21784   0.01005   0.03364   0.05722   0.07775
  Beta virt. eigenvalues --    0.09742   0.10789   0.11797   0.12534   0.13255
  Beta virt. eigenvalues --    0.13954   0.14915   0.16458   0.16799   0.17070
  Beta virt. eigenvalues --    0.17666   0.17725   0.18362   0.19118   0.19314
  Beta virt. eigenvalues --    0.20056   0.20172   0.20425   0.21054   0.22875
  Beta virt. eigenvalues --    0.22926   0.23971   0.24553   0.25465   0.26246
  Beta virt. eigenvalues --    0.29630   0.30314   0.31467   0.33180   0.38492
  Beta virt. eigenvalues --    0.45351   0.46984   0.47559   0.48013   0.48705
  Beta virt. eigenvalues --    0.49534   0.49846   0.51891   0.52085   0.52991
  Beta virt. eigenvalues --    0.53440   0.53693   0.55069   0.55579   0.56247
  Beta virt. eigenvalues --    0.56907   0.58959   0.60388   0.60780   0.63749
  Beta virt. eigenvalues --    0.64164   0.68153   0.68818   0.69442   0.71426
  Beta virt. eigenvalues --    0.72356   0.73759   0.75546   0.75727   0.78408
  Beta virt. eigenvalues --    0.78687   0.82190   0.84324   0.84468   0.85213
  Beta virt. eigenvalues --    0.85909   0.86325   0.87684   0.88635   0.89254
  Beta virt. eigenvalues --    0.90634   0.91358   0.92148   0.94077   0.94552
  Beta virt. eigenvalues --    0.95350   0.96517   0.97873   0.99242   1.00832
  Beta virt. eigenvalues --    1.02470   1.03952   1.06241   1.07191   1.07727
  Beta virt. eigenvalues --    1.08298   1.09177   1.10964   1.12054   1.13830
  Beta virt. eigenvalues --    1.14519   1.15762   1.18256   1.19721   1.20771
  Beta virt. eigenvalues --    1.22055   1.22354   1.23823   1.25242   1.26167
  Beta virt. eigenvalues --    1.28006   1.29465   1.30504   1.31379   1.32470
  Beta virt. eigenvalues --    1.32934   1.33491   1.34346   1.34747   1.35863
  Beta virt. eigenvalues --    1.36165   1.37807   1.39050   1.39982   1.40509
  Beta virt. eigenvalues --    1.41209   1.42285   1.43064   1.43601   1.43961
  Beta virt. eigenvalues --    1.46375   1.48190   1.48999   1.49511   1.50940
  Beta virt. eigenvalues --    1.53503   1.54621   1.55306   1.56676   1.58546
  Beta virt. eigenvalues --    1.59963   1.61535   1.63570   1.65803   1.67560
  Beta virt. eigenvalues --    1.68937   1.69184   1.69216   1.70758   1.72103
  Beta virt. eigenvalues --    1.73116   1.74048   1.76851   1.78603   1.79471
  Beta virt. eigenvalues --    1.79632   1.80970   1.81523   1.82103   1.82653
  Beta virt. eigenvalues --    1.83139   1.83890   1.84548   1.84763   1.85760
  Beta virt. eigenvalues --    1.85963   1.86751   1.87873   1.88369   1.89448
  Beta virt. eigenvalues --    1.90392   1.91515   1.91716   1.92699   1.93617
  Beta virt. eigenvalues --    1.94455   1.96128   1.96631   1.97028   1.97819
  Beta virt. eigenvalues --    1.98284   1.98973   1.99201   2.00090   2.00977
  Beta virt. eigenvalues --    2.01295   2.01614   2.02489   2.02917   2.04369
  Beta virt. eigenvalues --    2.05085   2.05545   2.05875   2.06347   2.06774
  Beta virt. eigenvalues --    2.07411   2.07597   2.07858   2.09713   2.09897
  Beta virt. eigenvalues --    2.10579   2.11130   2.11773   2.13355   2.14296
  Beta virt. eigenvalues --    2.15836   2.17170   2.18446   2.19931   2.22456
  Beta virt. eigenvalues --    2.23780   2.24768   2.25666   2.26583   2.29218
  Beta virt. eigenvalues --    2.30427   2.31958   2.34804   2.35501   2.36533
  Beta virt. eigenvalues --    2.37040   2.37532   2.40173   2.41385   2.43843
  Beta virt. eigenvalues --    2.45193   2.47394   2.47636   2.49123   2.51030
  Beta virt. eigenvalues --    2.52294   2.54860   2.56711   2.59820   2.61166
  Beta virt. eigenvalues --    2.62061   2.63598   2.63753   2.65352   2.67111
  Beta virt. eigenvalues --    2.68418   2.69028   2.70866   2.73139   2.73842
  Beta virt. eigenvalues --    2.73941   2.76793   2.80302   2.80934   2.82303
  Beta virt. eigenvalues --    2.83554   2.85596   2.86683   2.87595   2.88569
  Beta virt. eigenvalues --    2.89886   2.90176   2.90621   2.92254   2.94668
  Beta virt. eigenvalues --    2.95786   2.97540   2.99281   3.02392   3.03076
  Beta virt. eigenvalues --    3.03918   3.04883   3.06796   3.09523   3.14491
  Beta virt. eigenvalues --    3.16367   3.18150   3.20809   3.21583   3.21703
  Beta virt. eigenvalues --    3.24032   3.25702   3.27740   3.29530   3.30110
  Beta virt. eigenvalues --    3.36485   3.41578   3.42120   3.45364   3.47010
  Beta virt. eigenvalues --    3.48976   3.51202   3.99906   4.04315   4.07154
  Beta virt. eigenvalues --    4.15258   4.18655   4.32087   4.40869   4.44258
  Beta virt. eigenvalues --    4.47127   4.48416   4.56142   4.57560   4.61865
  Beta virt. eigenvalues --    4.64229   4.71377   4.80783   5.03301   5.21310
  Beta virt. eigenvalues --    5.26886   5.39456   5.60413   6.16619   6.63293
          Condensed to atoms (all electrons):
               1          2          3          4          5          6
     1  C    4.859684   0.259227  -0.040101   0.002825  -0.000056   0.000003
     2  N    0.259227   7.095993   0.188730  -0.038741   0.001820   0.000010
     3  C   -0.040101   0.188730   4.840065   0.246407  -0.023227   0.000004
     4  N    0.002825  -0.038741   0.246407   7.138537   0.281455  -0.053968
     5  C   -0.000056   0.001820  -0.023227   0.281455   4.352847   0.270508
     6  F    0.000003   0.000010   0.000004  -0.053968   0.270508   9.106900
     7  F    0.000000  -0.000014   0.002210  -0.049330   0.266149  -0.036162
     8  C    0.000005  -0.000265  -0.004607  -0.065816   0.214042  -0.031473
     9  F    0.000003   0.000274   0.007862  -0.002465  -0.019386  -0.000110
    10  O    0.000000   0.000024  -0.000228   0.000373  -0.027875   0.000607
    11  C    0.000000   0.000000  -0.000031  -0.000203   0.000738   0.000006
    12  F    0.000000   0.000000   0.000005  -0.000002   0.000227   0.000000
    13  F    0.000000   0.000000   0.000001   0.000001  -0.000032   0.000000
    14  F    0.000000   0.000000   0.000000   0.000000  -0.000149   0.000000
    15  C    0.000000   0.000002   0.000266   0.003085  -0.020166   0.000330
    16  F    0.000000   0.000000  -0.000016   0.000036   0.004095  -0.003314
    17  F    0.000000   0.000000  -0.000001  -0.000008   0.001190  -0.000001
    18  F    0.000000   0.000000   0.000000  -0.000003   0.001877  -0.000253
    19  C   -0.000229  -0.005996  -0.038823   0.247106  -0.021808   0.002248
    20  N    0.003039  -0.089597  -0.006141  -0.040557   0.001809  -0.000014
    21  C   -0.000048   0.003017  -0.000188   0.002827  -0.000042   0.000000
    22  C   -0.027739   0.240051  -0.019054  -0.007487   0.000108  -0.000009
    23  O   -0.002171  -0.092388   0.001943  -0.000153  -0.000001   0.000000
    24  H    0.387288  -0.033060  -0.003352   0.000084  -0.000019  -0.000006
    25  H    0.388045  -0.032982  -0.001405   0.000066   0.000010   0.000000
    26  H    0.387353  -0.026335   0.003263  -0.000144   0.000001   0.000000
    27  H   -0.002083  -0.027137   0.392470  -0.035920   0.000331   0.008785
    28  H    0.001267  -0.050701   0.379390  -0.044457  -0.006534   0.000034
    29  H    0.000009  -0.000192   0.004688  -0.034081  -0.002370   0.000146
    30  H    0.000043  -0.003031  -0.004162  -0.043998  -0.003291  -0.000079
    31  H    0.000001  -0.000068  -0.000003   0.000074  -0.000015   0.000000
    32  H    0.000006  -0.000227  -0.000043   0.000070   0.000009   0.000000
    33  H   -0.000007   0.000505  -0.000009  -0.000147   0.000000   0.000000
               7          8          9         10         11         12
     1  C    0.000000   0.000005   0.000003   0.000000   0.000000   0.000000
     2  N   -0.000014  -0.000265   0.000274   0.000024   0.000000   0.000000
     3  C    0.002210  -0.004607   0.007862  -0.000228  -0.000031   0.000005
     4  N   -0.049330  -0.065816  -0.002465   0.000373  -0.000203  -0.000002
     5  C    0.266149   0.214042  -0.019386  -0.027875   0.000738   0.000227
     6  F   -0.036162  -0.031473  -0.000110   0.000607   0.000006   0.000000
     7  F    9.107764  -0.041137   0.000310   0.001125  -0.000063   0.000000
     8  C   -0.041137   5.059220   0.198639   0.141669  -0.000796   0.014427
     9  F    0.000310   0.198639   9.135579  -0.049255  -0.000668  -0.002126
    10  O    0.001125   0.141669  -0.049255   8.385351   0.225760  -0.045388
    11  C   -0.000063  -0.000796  -0.000668   0.225760   3.817143   0.297743
    12  F    0.000000   0.014427  -0.002126  -0.045388   0.297743   9.049249
    13  F    0.000000   0.000560  -0.000020  -0.039504   0.340375  -0.036514
    14  F    0.000001  -0.009151  -0.000014  -0.046773   0.306385  -0.033618
    15  C    0.005296   0.200790  -0.012699  -0.027501  -0.003214  -0.004715
    16  F   -0.000534  -0.029592  -0.000249   0.000533   0.000061   0.000001
    17  F    0.000000  -0.030912  -0.000112  -0.001628   0.012973  -0.001993
    18  F   -0.000331  -0.035512   0.000292   0.000425  -0.000387   0.000014
    19  C    0.000093  -0.005001  -0.000004  -0.001821  -0.000039   0.000003
    20  N    0.000087  -0.000200   0.000003   0.000202  -0.000001   0.000000
    21  C    0.000003   0.000001   0.000000   0.000002   0.000000   0.000000
    22  C   -0.000007   0.000023  -0.000002  -0.000006   0.000000   0.000000
    23  O    0.000000   0.000000   0.000000   0.000000   0.000000   0.000000
    24  H    0.000000   0.000001   0.000000   0.000000   0.000000   0.000000
    25  H    0.000000   0.000000  -0.000001   0.000000   0.000000   0.000000
    26  H    0.000000   0.000000   0.000000   0.000000   0.000000   0.000000
    27  H    0.000114  -0.001672   0.000644   0.000101  -0.000001   0.000000
    28  H   -0.000054   0.005739   0.006101   0.000704   0.000176  -0.000008
    29  H    0.010539  -0.000202   0.000000   0.000162  -0.000007   0.000000
    30  H   -0.000155   0.002661  -0.000098   0.006280   0.000635  -0.000004
    31  H   -0.000008   0.000000   0.000000   0.000000   0.000000   0.000000
    32  H    0.000000   0.000000   0.000000  -0.000002   0.000000   0.000000
    33  H    0.000000   0.000000   0.000000   0.000000   0.000000   0.000000
              13         14         15         16         17         18
     1  C    0.000000   0.000000   0.000000   0.000000   0.000000   0.000000
     2  N    0.000000   0.000000   0.000002   0.000000   0.000000   0.000000
     3  C    0.000001   0.000000   0.000266  -0.000016  -0.000001   0.000000
     4  N    0.000001   0.000000   0.003085   0.000036  -0.000008  -0.000003
     5  C   -0.000032  -0.000149  -0.020166   0.004095   0.001190   0.001877
     6  F    0.000000   0.000000   0.000330  -0.003314  -0.000001  -0.000253
     7  F    0.000000   0.000001   0.005296  -0.000534   0.000000  -0.000331
     8  C    0.000560  -0.009151   0.200790  -0.029592  -0.030912  -0.035512
     9  F   -0.000020  -0.000014  -0.012699  -0.000249  -0.000112   0.000292
    10  O   -0.039504  -0.046773  -0.027501   0.000533  -0.001628   0.000425
    11  C    0.340375   0.306385  -0.003214   0.000061   0.012973  -0.000387
    12  F   -0.036514  -0.033618  -0.004715   0.000001  -0.001993   0.000014
    13  F    9.008857  -0.037652  -0.000028   0.000000  -0.000004   0.000000
    14  F   -0.037652   9.047477   0.017739   0.000000  -0.007363  -0.000452
    15  C   -0.000028   0.017739   4.172489   0.292671   0.281092   0.273887
    16  F    0.000000   0.000000   0.292671   9.052669  -0.040399  -0.037596
    17  F   -0.000004  -0.007363   0.281092  -0.040399   9.081402  -0.038979
    18  F    0.000000  -0.000452   0.273887  -0.037596  -0.038979   9.078451
    19  C   -0.000035   0.000000   0.000083   0.000001  -0.000001  -0.000004
    20  N    0.000000   0.000000   0.000002   0.000000   0.000000   0.000000
    21  C    0.000000   0.000000   0.000000   0.000000   0.000000   0.000000
    22  C    0.000000   0.000000   0.000000   0.000000   0.000000   0.000000
    23  O    0.000000   0.000000   0.000000   0.000000   0.000000   0.000000
    24  H    0.000000   0.000000   0.000000   0.000000   0.000000   0.000000
    25  H    0.000000   0.000000   0.000000   0.000000   0.000000   0.000000
    26  H    0.000000   0.000000   0.000000   0.000000   0.000000   0.000000
    27  H    0.000000   0.000000  -0.000048   0.000008   0.000000   0.000000
    28  H   -0.000005   0.000001   0.000035  -0.000001   0.000000  -0.000001
    29  H    0.000000   0.000000  -0.000008   0.000000   0.000000   0.000003
    30  H    0.000158   0.000008  -0.000036   0.000000   0.000000   0.000000
    31  H    0.000000   0.000000   0.000000   0.000000   0.000000   0.000000
    32  H    0.000000   0.000000   0.000000   0.000000   0.000000   0.000000
    33  H    0.000000   0.000000   0.000000   0.000000   0.000000   0.000000
              19         20         21         22         23         24
     1  C   -0.000229   0.003039  -0.000048  -0.027739  -0.002171   0.387288
     2  N   -0.005996  -0.089597   0.003017   0.240051  -0.092388  -0.033060
     3  C   -0.038823  -0.006141  -0.000188  -0.019054   0.001943  -0.003352
     4  N    0.247106  -0.040557   0.002827  -0.007487  -0.000153   0.000084
     5  C   -0.021808   0.001809  -0.000042   0.000108  -0.000001  -0.000019
     6  F    0.002248  -0.000014   0.000000  -0.000009   0.000000  -0.000006
     7  F    0.000093   0.000087   0.000003  -0.000007   0.000000   0.000000
     8  C   -0.005001  -0.000200   0.000001   0.000023   0.000000   0.000001
     9  F   -0.000004   0.000003   0.000000  -0.000002   0.000000   0.000000
    10  O   -0.001821   0.000202   0.000002  -0.000006   0.000000   0.000000
    11  C   -0.000039  -0.000001   0.000000   0.000000   0.000000   0.000000
    12  F    0.000003   0.000000   0.000000   0.000000   0.000000   0.000000
    13  F   -0.000035   0.000000   0.000000   0.000000   0.000000   0.000000
    14  F    0.000000   0.000000   0.000000   0.000000   0.000000   0.000000
    15  C    0.000083   0.000002   0.000000   0.000000   0.000000   0.000000
    16  F    0.000001   0.000000   0.000000   0.000000   0.000000   0.000000
    17  F   -0.000001   0.000000   0.000000   0.000000   0.000000   0.000000
    18  F   -0.000004   0.000000   0.000000   0.000000   0.000000   0.000000
    19  C    4.833985   0.197844  -0.039477  -0.018997   0.001843  -0.000001
    20  N    0.197844   7.083507   0.258474   0.233330  -0.092087  -0.000070
    21  C   -0.039477   0.258474   4.861930  -0.027711  -0.001817   0.000001
    22  C   -0.018997   0.233330  -0.027711   4.205310   0.610822   0.004211
    23  O    0.001843  -0.092087  -0.001817   0.610822   8.045759   0.000543
    24  H   -0.000001  -0.000070   0.000001   0.004211   0.000543   0.495457
    25  H   -0.000048  -0.000224   0.000006  -0.003067   0.000164  -0.024904
    26  H   -0.000007   0.000514  -0.000008  -0.002354   0.011152  -0.020082
    27  H    0.005061  -0.000249   0.000009   0.001804  -0.000059   0.002955
    28  H   -0.004923  -0.002580   0.000047  -0.000340   0.000076  -0.000213
    29  H    0.393258  -0.027093  -0.001945   0.001825  -0.000059   0.000000
    30  H    0.380273  -0.050999   0.001051  -0.000201   0.000085   0.000000
    31  H   -0.003430  -0.032742   0.386900   0.004284   0.000546   0.000000
    32  H   -0.001520  -0.032173   0.387283  -0.003201   0.000113   0.000000
    33  H    0.003301  -0.026292   0.387113  -0.002385   0.011048   0.000000
              25         26         27         28         29         30
     1  C    0.388045   0.387353  -0.002083   0.001267   0.000009   0.000043
     2  N   -0.032982  -0.026335  -0.027137  -0.050701  -0.000192  -0.003031
     3  C   -0.001405   0.003263   0.392470   0.379390   0.004688  -0.004162
     4  N    0.000066  -0.000144  -0.035920  -0.044457  -0.034081  -0.043998
     5  C    0.000010   0.000001   0.000331  -0.006534  -0.002370  -0.003291
     6  F    0.000000   0.000000   0.008785   0.000034   0.000146  -0.000079
     7  F    0.000000   0.000000   0.000114  -0.000054   0.010539  -0.000155
     8  C    0.000000   0.000000  -0.001672   0.005739  -0.000202   0.002661
     9  F   -0.000001   0.000000   0.000644   0.006101   0.000000  -0.000098
    10  O    0.000000   0.000000   0.000101   0.000704   0.000162   0.006280
    11  C    0.000000   0.000000  -0.000001   0.000176  -0.000007   0.000635
    12  F    0.000000   0.000000   0.000000  -0.000008   0.000000  -0.000004
    13  F    0.000000   0.000000   0.000000  -0.000005   0.000000   0.000158
    14  F    0.000000   0.000000   0.000000   0.000001   0.000000   0.000008
    15  C    0.000000   0.000000  -0.000048   0.000035  -0.000008  -0.000036
    16  F    0.000000   0.000000   0.000008  -0.000001   0.000000   0.000000
    17  F    0.000000   0.000000   0.000000   0.000000   0.000000   0.000000
    18  F    0.000000   0.000000   0.000000  -0.000001   0.000003   0.000000
    19  C   -0.000048  -0.000007   0.005061  -0.004923   0.393258   0.380273
    20  N   -0.000224   0.000514  -0.000249  -0.002580  -0.027093  -0.050999
    21  C    0.000006  -0.000008   0.000009   0.000047  -0.001945   0.001051
    22  C   -0.003067  -0.002354   0.001804  -0.000340   0.001825  -0.000201
    23  O    0.000164   0.011152  -0.000059   0.000076  -0.000059   0.000085
    24  H   -0.024904  -0.020082   0.002955  -0.000213   0.000000   0.000000
    25  H    0.491302  -0.021546  -0.000677   0.002034  -0.000001   0.000016
    26  H   -0.021546   0.460563   0.000120  -0.000199   0.000000  -0.000003
    27  H   -0.000677   0.000120   0.476139  -0.030040  -0.000107  -0.000347
    28  H    0.002034  -0.000199  -0.030040   0.537683  -0.000324   0.011468
    29  H   -0.000001   0.000000  -0.000107  -0.000324   0.470198  -0.028670
    30  H    0.000016  -0.000003  -0.000347   0.011468  -0.028670   0.527801
    31  H    0.000000   0.000000   0.000000   0.000001   0.002966  -0.000178
    32  H    0.000000   0.000000  -0.000001   0.000014  -0.000657   0.001939
    33  H    0.000000   0.000000   0.000000  -0.000003   0.000116  -0.000201
              31         32         33
     1  C    0.000001   0.000006  -0.000007
     2  N   -0.000068  -0.000227   0.000505
     3  C   -0.000003  -0.000043  -0.000009
     4  N    0.000074   0.000070  -0.000147
     5  C   -0.000015   0.000009   0.000000
     6  F    0.000000   0.000000   0.000000
     7  F   -0.000008   0.000000   0.000000
     8  C    0.000000   0.000000   0.000000
     9  F    0.000000   0.000000   0.000000
    10  O    0.000000  -0.000002   0.000000
    11  C    0.000000   0.000000   0.000000
    12  F    0.000000   0.000000   0.000000
    13  F    0.000000   0.000000   0.000000
    14  F    0.000000   0.000000   0.000000
    15  C    0.000000   0.000000   0.000000
    16  F    0.000000   0.000000   0.000000
    17  F    0.000000   0.000000   0.000000
    18  F    0.000000   0.000000   0.000000
    19  C   -0.003430  -0.001520   0.003301
    20  N   -0.032742  -0.032173  -0.026292
    21  C    0.386900   0.387283   0.387113
    22  C    0.004284  -0.003201  -0.002385
    23  O    0.000546   0.000113   0.011048
    24  H    0.000000   0.000000   0.000000
    25  H    0.000000   0.000000   0.000000
    26  H    0.000000   0.000000   0.000000
    27  H    0.000000  -0.000001   0.000000
    28  H    0.000001   0.000014  -0.000003
    29  H    0.002966  -0.000657   0.000116
    30  H   -0.000178   0.001939  -0.000201
    31  H    0.493759  -0.024583  -0.020122
    32  H   -0.024583   0.488500  -0.021316
    33  H   -0.020122  -0.021316   0.459265
          Atomic-Atomic Spin Densities.
               1          2          3          4          5          6
     1  C   -0.017566  -0.032647   0.002354  -0.000061   0.000001   0.000000
     2  N   -0.032647   0.628243  -0.029233  -0.002589  -0.000263   0.000017
     3  C    0.002354  -0.029233  -0.017581   0.003111   0.000494  -0.000021
     4  N   -0.000061  -0.002589   0.003111   0.006011   0.001528  -0.000158
     5  C    0.000001  -0.000263   0.000494   0.001528  -0.003909  -0.000389
     6  F    0.000000   0.000017  -0.000021  -0.000158  -0.000389   0.001402
     7  F    0.000000  -0.000001  -0.000023  -0.000282  -0.000049  -0.000008
     8  C    0.000001  -0.000012   0.000175  -0.000092  -0.000131   0.000105
     9  F    0.000000   0.000006  -0.000060   0.000018   0.000131  -0.000009
    10  O    0.000000  -0.000001   0.000033   0.000041   0.000027   0.000001
    11  C    0.000000   0.000000  -0.000003   0.000000   0.000003   0.000000
    12  F    0.000000   0.000000   0.000000   0.000000   0.000000   0.000000
    13  F    0.000000   0.000000   0.000000   0.000000   0.000000   0.000000
    14  F    0.000000   0.000000   0.000000   0.000000   0.000000   0.000000
[...]
     3  C    0.479501   0.020454
     4  N   -0.505467   0.006250
     5  C    0.727752  -0.001490
     6  F   -0.264189   0.000683
     7  F   -0.265896   0.000651
     8  C    0.418560  -0.000039
     9  F   -0.262495   0.000374
    10  O   -0.523338   0.000349
    11  C    1.003416   0.000038
    12  F   -0.237301   0.000013
    13  F   -0.236155   0.000004
    14  F   -0.236439   0.000026
    15  C    0.820649  -0.000067
    16  F   -0.238376   0.000005
    17  F   -0.255258  -0.000021
    18  F   -0.241431   0.000004
    19  C    0.491902   0.022821
    20  N   -0.377790   0.515952
    21  C    0.390110   0.042276
    22  C    0.810795  -0.086743
    23  O   -0.495359  -0.051667
 Electronic spatial extent (au):  <R**2>=           7403.4938
 Charge=              1.0000 electrons
 Dipole moment (field-independent basis, Debye):
    X=             -6.4507    Y=              0.4226    Z=              1.0514  Tot=              6.5495
 Quadrupole moment (field-independent basis, Debye-Ang):
   XX=           -114.7264   YY=            -98.2837   ZZ=           -120.2919
   XY=              1.8804   XZ=              3.6819   YZ=              8.6860
 Traceless Quadrupole moment (field-independent basis, Debye-Ang):
   XX=             -3.6257   YY=             12.8169   ZZ=             -9.1912
   XY=              1.8804   XZ=              3.6819   YZ=              8.6860
 Octapole moment (field-independent basis, Debye-Ang**2):
  XXX=           -252.0407  YYY=             47.8831  ZZZ=             22.8384  XYY=           -144.0712
  XXY=             -8.0210  XXZ=             -4.4127  XZZ=            -93.9480  YZZ=              5.7161
  YYZ=              9.9000  XYZ=            -18.9518
 Hexadecapole moment (field-independent basis, Debye-Ang**3):
 XXXX=          -5591.8792 YYYY=           -932.7139 ZZZZ=          -1328.8598 XXXY=            338.2785
 XXXZ=             -7.2314 YYYX=            234.7498 YYYZ=            -30.3174 ZZZX=            -83.3656
 ZZZY=            -59.7393 XXYY=           -942.8576 XXZZ=          -1099.7171 YYZZ=           -379.1709
 XXYZ=             21.1391 YYXZ=            -39.5684 ZZXY=             87.1503
 N-N= 2.492780614371D+03 E-N=-8.643303880380D+03  KE= 1.549731841839D+03
                          Isotropic Fermi Contact Couplings
        Atom                 a.u.       MegaHertz       Gauss      10(-4) cm-1
     1  C(13)             -0.01336     -15.01494      -5.35770      -5.00844
     2  N(14)              0.09149      29.56171      10.54835       9.86073
     3  C(13)             -0.01194     -13.42343      -4.78981      -4.47757
     4  N(14)             -0.00106      -0.34389      -0.12271      -0.11471
     5  C(13)             -0.00146      -1.64342      -0.58641      -0.54819
     6  F(19)              0.00055       2.33346       0.83264       0.77836
     7  F(19)              0.00061       2.57216       0.91781       0.85798
     8  C(13)             -0.00009      -0.10429      -0.03721      -0.03479
     9  F(19)              0.00052       2.17629       0.77656       0.72593
    10  O(17)              0.00131      -0.79492      -0.28365      -0.26516
    11  C(13)              0.00003       0.03161       0.01128       0.01054
    12  F(19)              0.00000      -0.01035      -0.00369      -0.00345
    13  F(19)              0.00000      -0.01027      -0.00366      -0.00343
    14  F(19)              0.00001       0.05773       0.02060       0.01926
    15  C(13)             -0.00010      -0.11567      -0.04127      -0.03858
    16  F(19)              0.00000       0.00271       0.00097       0.00090
    17  F(19)             -0.00003      -0.10782      -0.03847      -0.03597
    18  F(19)              0.00000      -0.00367      -0.00131      -0.00122
    19  C(13)             -0.01247     -14.01655      -5.00145      -4.67542
    20  N(14)              0.09694      31.32176      11.17638      10.44782
    21  C(13)             -0.01404     -15.77999      -5.63069      -5.26364
    22  C(13)             -0.02666     -29.97623     -10.69626      -9.99899
    23  O(17)             -0.01040       6.30717       2.25056       2.10385
    24  H(1)               0.00814      36.40074      12.98869      12.14198
    25  H(1)               0.02278     101.80461      36.32641      33.95836
    26  H(1)               0.00316      14.12146       5.03889       4.71041
    27  H(1)               0.00667      29.81802      10.63981       9.94622
    28  H(1)               0.01780      79.57388      28.39394      26.54299
    29  H(1)               0.00688      30.77281      10.98050      10.26470
    30  H(1)               0.01914      85.57571      30.53554      28.54498
    31  H(1)               0.00830      37.10289      13.23923      12.37619
    32  H(1)               0.02404     107.47134      38.34844      35.84858
    33  H(1)               0.00350      15.65692       5.58678       5.22259
 --------------------------------------------------------
       Center         ----  Spin Dipole Couplings  ----
                      3XX-RR        3YY-RR        3ZZ-RR
 --------------------------------------------------------
     1   Atom       -0.011496     -0.001703      0.013198
     2   Atom       -0.560010     -0.446026      1.006036
     3   Atom        0.006641     -0.015167      0.008527
     4   Atom       -0.000723      0.012449     -0.011727
     5   Atom        0.002091     -0.000834     -0.001257
     6   Atom        0.005141     -0.003650     -0.001491
     7   Atom        0.006383     -0.004394     -0.001989
     8   Atom        0.002829     -0.001165     -0.001665
     9   Atom        0.005588     -0.002458     -0.003130
    10   Atom        0.004593     -0.002059     -0.002534
    11   Atom        0.001255     -0.000749     -0.000506
    12   Atom        0.000825     -0.000354     -0.000471
    13   Atom        0.000730     -0.000676     -0.000053
    14   Atom        0.001050     -0.000604     -0.000446
    15   Atom        0.001297     -0.000592     -0.000705
    16   Atom        0.000888     -0.000549     -0.000339
    17   Atom        0.000679     -0.000296     -0.000383
    18   Atom        0.001072     -0.000520     -0.000552
    19   Atom        0.004437     -0.001468     -0.002969
    20   Atom       -0.600139     -0.291412      0.891551
    21   Atom       -0.018065     -0.002929      0.020993
    22   Atom        0.007265      0.045428     -0.052693
    23   Atom        0.090315      0.180530     -0.270845
    24   Atom       -0.004349      0.006963     -0.002613
    25   Atom       -0.005959      0.007021     -0.001062
    26   Atom        0.010022     -0.003721     -0.006300
    27   Atom        0.003680      0.000012     -0.003692
    28   Atom        0.002964     -0.001201     -0.001763
    29   Atom        0.008779     -0.001167     -0.007612
    30   Atom        0.003888     -0.007326      0.003438
    31   Atom       -0.004417      0.011967     -0.007550
    32   Atom       -0.008051     -0.003036      0.011087
    33   Atom        0.006673     -0.000965     -0.005708
 --------------------------------------------------------
                        XY            XZ            YZ
 --------------------------------------------------------
     1   Atom        0.006725      0.013631     -0.013860
     2   Atom       -0.042981      0.170714     -0.447626
     3   Atom       -0.003225      0.010119      0.001123
     4   Atom        0.004620     -0.006141      0.013016
     5   Atom        0.000002     -0.001168      0.000353
     6   Atom        0.002397     -0.005956     -0.001056
     7   Atom       -0.000217     -0.005905      0.000403
     8   Atom       -0.000513     -0.000434      0.000380
     9   Atom       -0.002557     -0.002021      0.000438
    10   Atom       -0.001517      0.000418      0.000271
    11   Atom       -0.000366      0.000926     -0.000119
    12   Atom       -0.000592      0.000651     -0.000268
    13   Atom       -0.000229      0.001065     -0.000099
    14   Atom       -0.000016      0.000562      0.000031
    15   Atom       -0.000268     -0.000261      0.000085
    16   Atom       -0.000288     -0.000529      0.000099
    17   Atom       -0.000201     -0.000016      0.000020
    18   Atom        0.000073     -0.000281     -0.000037
    19   Atom       -0.008591      0.006459     -0.015423
    20   Atom       -0.058703      0.121180     -0.679881
    21   Atom       -0.012466      0.008291     -0.005426
    22   Atom        0.019354     -0.028018      0.044749
    23   Atom        0.069068     -0.105158      0.218691
    24   Atom        0.002125      0.000260      0.008794
    25   Atom        0.004619     -0.000139     -0.008235
    26   Atom        0.005913     -0.000309      0.000888
    27   Atom       -0.007078     -0.006258      0.005298
    28   Atom       -0.005533      0.005542     -0.005838
    29   Atom        0.008716     -0.001236      0.000277
    30   Atom       -0.002347      0.008121     -0.001089
    31   Atom        0.002839     -0.000535      0.003306
    32   Atom       -0.002216     -0.000116      0.006361
    33   Atom       -0.007359     -0.004828      0.002786
 --------------------------------------------------------


 ---------------------------------------------------------------------------------
              Anisotropic Spin Dipole Couplings in Principal Axis System
 ---------------------------------------------------------------------------------

       Atom             a.u.   MegaHertz   Gauss  10(-4) cm-1        Axes

              Baa    -0.0243    -3.266    -1.165    -1.089  0.7405 -0.4970 -0.4524
     1 C(13)  Bbb     0.0006     0.082     0.029     0.028  0.6194  0.7658  0.1725
              Bcc     0.0237     3.183     1.136     1.062  0.2607 -0.4080  0.8750
 
              Baa    -0.5813   -22.420    -8.000    -7.478  0.8462 -0.4822 -0.2270
     2 N(14)  Bbb    -0.5697   -21.973    -7.840    -7.329  0.5230  0.8331  0.1800
              Bcc     1.1510    44.393    15.840    14.808  0.1023 -0.2710  0.9571
 
              Baa    -0.0160    -2.141    -0.764    -0.714  0.1949  0.9728 -0.1251
     3 C(13)  Bbb    -0.0018    -0.247    -0.088    -0.083  0.7091 -0.2279 -0.6672
              Bcc     0.0178     2.389     0.852     0.797  0.6776 -0.0413  0.7343
 
              Baa    -0.0203    -0.782    -0.279    -0.261  0.3584 -0.3883  0.8490
     4 N(14)  Bbb     0.0020     0.076     0.027     0.025  0.9280  0.0494 -0.3692
              Bcc     0.0183     0.706     0.252     0.236  0.1014  0.9202  0.3781
 
              Baa    -0.0017    -0.235    -0.084    -0.078  0.2731 -0.3467  0.8973
     5 C(13)  Bbb    -0.0007    -0.096    -0.034    -0.032  0.1334  0.9374  0.3216
              Bcc     0.0025     0.330     0.118     0.110  0.9527 -0.0319 -0.3023
 
              Baa    -0.0051    -2.556    -0.912    -0.853  0.5315 -0.3055  0.7900
     6 F(19)  Bbb    -0.0041    -2.049    -0.731    -0.684 -0.0066  0.9312  0.3645
              Bcc     0.0092     4.606     1.643     1.536  0.8470  0.1990 -0.4929
 
              Baa    -0.0051    -2.578    -0.920    -0.860  0.4251 -0.3342  0.8412
     7 F(19)  Bbb    -0.0043    -2.166    -0.773    -0.723  0.1765  0.9421  0.2851
              Bcc     0.0094     4.744     1.693     1.582  0.8878 -0.0273 -0.4594
 
              Baa    -0.0019    -0.251    -0.090    -0.084  0.0327 -0.4534  0.8907
     8 C(13)  Bbb    -0.0011    -0.144    -0.051    -0.048  0.1653  0.8814  0.4426
              Bcc     0.0029     0.395     0.141     0.132  0.9857 -0.1327 -0.1037
 
              Baa    -0.0036    -1.813    -0.647    -0.605  0.2757  0.2601  0.9254
     9 F(19)  Bbb    -0.0032    -1.584    -0.565    -0.528  0.1973  0.9269 -0.3193
              Bcc     0.0068     3.396     1.212     1.133  0.9408 -0.2706 -0.2042
 
              Baa    -0.0028     0.205     0.073     0.068 -0.1669 -0.6019  0.7809
    10 O(17)  Bbb    -0.0021     0.153     0.054     0.051  0.1356  0.7705  0.6229
              Bcc     0.0049    -0.357    -0.128    -0.119  0.9766 -0.2099  0.0470
 
              Baa    -0.0009    -0.123    -0.044    -0.041 -0.4171 -0.3074  0.8553
    11 C(13)  Bbb    -0.0008    -0.107    -0.038    -0.036  0.0125  0.9390  0.3436
              Bcc     0.0017     0.230     0.082     0.077  0.9088 -0.1540  0.3878
 
              Baa    -0.0007    -0.374    -0.133    -0.125 -0.3388  0.1271  0.9322
    12 F(19)  Bbb    -0.0006    -0.301    -0.107    -0.100  0.3789  0.9254  0.0116
              Bcc     0.0013     0.675     0.241     0.225  0.8612 -0.3571  0.3617
 
              Baa    -0.0008    -0.411    -0.147    -0.137 -0.5602 -0.3928  0.7293
    13 F(19)  Bbb    -0.0007    -0.343    -0.122    -0.114 -0.1412  0.9128  0.3832
              Bcc     0.0015     0.754     0.269     0.251  0.8163 -0.1117  0.5668
 
              Baa    -0.0007    -0.329    -0.118    -0.110 -0.2654 -0.5516  0.7908
    14 F(19)  Bbb    -0.0006    -0.292    -0.104    -0.097 -0.1725  0.8341  0.5240
              Bcc     0.0012     0.622     0.222     0.207  0.9486 -0.0027  0.3165
 
              Baa    -0.0008    -0.102    -0.036    -0.034  0.0710 -0.3613  0.9298
    15 C(13)  Bbb    -0.0006    -0.082    -0.029    -0.027  0.1768  0.9219  0.3447
              Bcc     0.0014     0.184     0.066     0.061  0.9817 -0.1399 -0.1293
 
              Baa    -0.0006    -0.304    -0.108    -0.101  0.2034  0.9782  0.0412
    16 F(19)  Bbb    -0.0005    -0.269    -0.096    -0.090  0.3273 -0.1076  0.9388
              Bcc     0.0011     0.572     0.204     0.191  0.9228 -0.1775 -0.3420
 
              Baa    -0.0004    -0.195    -0.070    -0.065 -0.0404 -0.2924  0.9554
    17 F(19)  Bbb    -0.0003    -0.166    -0.059    -0.055  0.1915  0.9362  0.2947
              Bcc     0.0007     0.361     0.129     0.121  0.9807 -0.1949 -0.0181
 
              Baa    -0.0006    -0.305    -0.109    -0.102  0.1459  0.2867  0.9468
    18 F(19)  Bbb    -0.0005    -0.259    -0.093    -0.087 -0.0924  0.9568 -0.2755
              Bcc     0.0011     0.564     0.201     0.188  0.9850  0.0473 -0.1661
 
              Baa    -0.0177    -2.381    -0.850    -0.794  0.0673  0.7048  0.7062
    19 C(13)  Bbb    -0.0026    -0.355    -0.127    -0.118  0.8277  0.3558 -0.4340
              Bcc     0.0204     2.736     0.976     0.913 -0.5571  0.6138 -0.5594
 
              Baa    -0.6111   -23.571    -8.411    -7.862  0.9508  0.3038  0.0608
    20 N(14)  Bbb    -0.6001   -23.144    -8.258    -7.720 -0.3008  0.8583  0.4157
              Bcc     1.2112    46.715    16.669    15.582  0.0741 -0.4135  0.9075
 
              Baa    -0.0256    -3.429    -1.224    -1.144  0.8814  0.4609 -0.1033
    21 C(13)  Bbb     0.0005     0.062     0.022     0.021 -0.3932  0.8372  0.3801
              Bcc     0.0251     3.367     1.201     1.123  0.2616 -0.2944  0.9192
 
              Baa    -0.0823   -11.049    -3.942    -3.685  0.3481 -0.3564  0.8671
    22 C(13)  Bbb     0.0183     2.452     0.875     0.818  0.9236 -0.0281 -0.3824
              Bcc     0.0641     8.596     3.067     2.867  0.1607  0.9339  0.3194
 
              Baa    -0.3911    28.300    10.098     9.440  0.2487 -0.3722  0.8942
    23 O(17)  Bbb     0.1182    -8.553    -3.052    -2.853  0.9564 -0.0514 -0.2874
              Bcc     0.2729   -19.747    -7.046    -6.587  0.1529  0.9267  0.3432
 
              Baa    -0.0080    -4.295    -1.533    -1.433  0.2384 -0.5158  0.8229
    24 H(1)   Bbb    -0.0044    -2.330    -0.831    -0.777  0.9642  0.0242 -0.2642
              Bcc     0.0124     6.625     2.364     2.210  0.1163  0.8564  0.5030
 
              Baa    -0.0088    -4.694    -1.675    -1.566  0.7384 -0.4683 -0.4853
    25 H(1)   Bbb    -0.0042    -2.246    -0.801    -0.749  0.6412  0.2645  0.7204
              Bcc     0.0130     6.940     2.476     2.315  0.2090  0.8431 -0.4956
 
              Baa    -0.0071    -3.771    -1.345    -1.258  0.2192 -0.5930  0.7748
    26 H(1)   Bbb    -0.0051    -2.747    -0.980    -0.916 -0.2702  0.7261  0.6322
              Bcc     0.0122     6.518     2.326     2.174  0.9375  0.3479  0.0010
 
              Baa    -0.0077    -4.121    -1.471    -1.375  0.2549 -0.3767  0.8906
    27 H(1)   Bbb    -0.0054    -2.892    -1.032    -0.965  0.6609  0.7402  0.1240
              Bcc     0.0131     7.014     2.503     2.339  0.7059 -0.5570 -0.4376
 
              Baa    -0.0073    -3.913    -1.396    -1.305 -0.0384  0.6706  0.7409
    28 H(1)   Bbb    -0.0042    -2.235    -0.798    -0.746  0.7369  0.5198 -0.4322
              Bcc     0.0115     6.149     2.194     2.051  0.6749 -0.5293  0.5141
 
              Baa    -0.0081    -4.298    -1.534    -1.434  0.2469 -0.3487  0.9041
    29 H(1)   Bbb    -0.0058    -3.108    -1.109    -1.037 -0.4371  0.7926  0.4251
              Bcc     0.0139     7.406     2.643     2.470  0.8649  0.5001 -0.0433
 
              Baa    -0.0078    -4.186    -1.494    -1.396  0.2556  0.9625 -0.0910
    30 H(1)   Bbb    -0.0042    -2.267    -0.809    -0.756 -0.6500  0.2407  0.7208
              Bcc     0.0121     6.453     2.303     2.153  0.7157 -0.1250  0.6871
 
              Baa    -0.0084    -4.465    -1.593    -1.489  0.2651 -0.1907  0.9452
    31 H(1)   Bbb    -0.0046    -2.439    -0.870    -0.813  0.9517 -0.1058 -0.2883
              Bcc     0.0129     6.903     2.463     2.303  0.1549  0.9759  0.1534
 
              Baa    -0.0092    -4.905    -1.750    -1.636  0.8773  0.4594 -0.1390
    32 H(1)   Bbb    -0.0044    -2.334    -0.833    -0.779 -0.4781  0.8110 -0.3372
              Bcc     0.0136     7.239     2.583     2.415 -0.0422  0.3623  0.9311
 
              Baa    -0.0074    -3.944    -1.407    -1.315  0.2777 -0.0963  0.9558
    33 H(1)   Bbb    -0.0054    -2.897    -1.034    -0.966  0.5014  0.8632 -0.0587
              Bcc     0.0128     6.841     2.441     2.282  0.8194 -0.4956 -0.2880
 

 ---------------------------------------------------------------------------------

 No NMR shielding tensors so no spin-rotation constants.
 Leave Link  601 at Sun Mar  3 18:23:55 2024, MaxMem=  5368709120 cpu:         5.5
 (Enter /home/k0335/k033513/app/g09/l9999.exe)
 1\1\GINC-C18U01N4\SP\UCAM-B3LYP\6-31G(d,p)\C9H10F9N3O2(1+,2)\K033513\0
 3-Mar-2024\0\\#p CAM-B3LYP/6-31G(d,p) SCRF=(PCM,Solvent=Generic,Read) 
 NoSymm out=wfn\\Title A1013755060_p1\\1,2\C,0,-3.139886,-1.958051,-0.6
 97884\N,0,-2.314608,-0.772903,-0.554739\C,0,-0.890622,-0.956741,-0.630
 267\N,0,-0.287676,0.317256,-0.919277\C,0,1.137835,0.203014,-1.225025\F
 ,0,1.202099,-0.427275,-2.431831\F,0,1.594101,1.466002,-1.462139\C,0,2.
 117412,-0.501975,-0.239932\F,0,1.702852,-1.795223,-0.069798\O,0,2.0167
 78,0.123664,1.046623\C,0,2.993275,-0.322963,1.95269\F,0,3.147722,-1.65
 3136,1.885303\F,0,2.594569,0.007216,3.194647\F,0,4.153403,0.298829,1.6
 92746\C,0,3.498968,-0.473721,-0.917423\F,0,3.496585,-1.016467,-2.15333
 5\F,0,4.409478,-1.179768,-0.202239\F,0,3.981823,0.784626,-1.021554\C,0
 ,-0.571876,1.221466,0.161488\N,0,-1.996912,1.409559,0.216848\C,0,-2.47
 99,2.589663,0.90973\C,0,-2.866334,0.350344,0.032736\O,0,-4.052896,0.41
 0297,0.35211\H,0,-2.851153,-2.493532,-1.606971\H,0,-2.985686,-2.600756
 ,0.174064\H,0,-4.200845,-1.702159,-0.766897\H,0,-0.687421,-1.67143,-1.
 436195\H,0,-0.560369,-1.395239,0.319398\H,0,-0.11391,2.200563,-0.01844
 9\H,0,-0.252817,0.861606,1.145664\H,0,-1.972237,3.475036,0.516163\H,0,
 -2.26406,2.483562,1.977113\H,0,-3.557694,2.718635,0.776631\\Version=ES
 64L-G09RevD.01\HF=-1561.5093095\S2=0.782235\S2-1=0.\S2A=0.750198\RMSD=
 5.200e-09\Dipole=-4.2761049,0.3521902,0.471459\Quadrupole=-2.6956276,9
 .5290693,-6.8334417,1.3980455,2.7374136,6.4578314\PG=C01 [X(C9H10F9N3O
 2)]\\@

 Writing a WFN file to "A1013755060/A1013755060_p1.wfn"


 I KNOW YOU BELIEVE YOU UNDERSTAND WHAT YOU THINK I SAID,
 BUT I AM NOT SURE YOU REALIZE THAT WHAT YOU HEARD IS NOT WHAT I MEANT.
 Job cpu time:       0 days  0 hours 20 minutes  5.0 seconds.
 File lengths (MBytes):  RWF=    254 Int=      0 D2E=      0 Chk=      9 Scr=      1
 Normal termination of Gaussian 09 at Sun Mar  3 18:23:55 2024.
