 Entering Gaussian System, Link 0=g09
 Initial command:
 /home/k0335/k033513/app/g09/l1.exe "/home/k0335/k033513/app/g09/scratch/Gau-2963694.inp" -scrdir="/home/k0335/k033513/app/g09/scratch/"
 Default is to use a total of  36 processors:
                               36 via shared-memory
                                1 via Linda
 Entering Link 1 = /home/k0335/k033513/app/g09/l1.exe PID=   2963695.
  
 Copyright (c) 1988,1990,1992,1993,1995,1998,2003,2009,2013,
            Gaussian, Inc.  All Rights Reserved.
  
 This is part of the Gaussian(R) 09 program.  It is based on
 the Gaussian(R) 03 system (copyright 2003, Gaussian, Inc.),
 the Gaussian(R) 98 system (copyright 1998, Gaussian, Inc.),
 the Gaussian(R) 94 system (copyright 1995, Gaussian, Inc.),
 the Gaussian 92(TM) system (copyright 1992, Gaussian, Inc.),
 the Gaussian 90(TM) system (copyright 1990, Gaussian, Inc.),
 the Gaussian 88(TM) system (copyright 1988, Gaussian, Inc.),
 the Gaussian 86(TM) system (copyright 1986, Carnegie Mellon
 University), and the Gaussian 82(TM) system (copyright 1983,
 Carnegie Mellon University). Gaussian is a federally registered
 trademark of Gaussian, Inc.
  
 This software contains proprietary and confidential information,
 including trade secrets, belonging to Gaussian, Inc.
  
 This software is provided under written license and may be
 used, copied, transmitted, or stored only in accord with that
 written license.
  
 The following legend is applicable only to US Government
 contracts under FAR:
  
                    RESTRICTED RIGHTS LEGEND
  
 Use, reproduction and disclosure by the US Government is
 subject to restrictions as set forth in subparagraphs (a)
 and (c) of the Commercial Computer Software - Restricted
 Rights clause in FAR 52.227-19.
  
 Gaussian, Inc.
 340 Quinnipiac St., Bldg. 40, Wallingford CT 06492
  
  
 ---------------------------------------------------------------
 Warning -- This program may not be used in any manner that
 competes with the business of Gaussian, Inc. or will provide
 assistance to any competitor of Gaussian, Inc.  The licensee
 of this program is prohibited from giving any competitor of
 Gaussian, Inc. access to this program.  By using this program,
 the user acknowledges that Gaussian, Inc. is engaged in the
 business of creating and licensing software in the field of
 computational chemistry and represents and warrants to the
 licensee that it is not a competitor of Gaussian, Inc. and that
 it will not use this program in any manner prohibited above.
 ---------------------------------------------------------------
  

 Cite this work as:
 Gaussian 09, Revision D.01,
 M. J. Frisch, G. W. Trucks, H. B. Schlegel, G. E. Scuseria, 
 M. A. Robb, J. R. Cheeseman, G. Scalmani, V. Barone, B. Mennucci, 
 G. A. Petersson, H. Nakatsuji, M. Caricato, X. Li, H. P. Hratchian, 
 A. F. Izmaylov, J. Bloino, G. Zheng, J. L. Sonnenberg, M. Hada, 
 M. Ehara, K. Toyota, R. Fukuda, J. Hasegawa, M. Ishida, T. Nakajima, 
 Y. Honda, O. Kitao, H. Nakai, T. Vreven, J. A. Montgomery, Jr., 
 J. E. Peralta, F. Ogliaro, M. Bearpark, J. J. Heyd, E. Brothers, 
 K. N. Kudin, V. N. Staroverov, T. Keith, R. Kobayashi, J. Normand, 
 K. Raghavachari, A. Rendell, J. C. Burant, S. S. Iyengar, J. Tomasi, 
 M. Cossi, N. Rega, J. M. Millam, M. Klene, J. E. Knox, J. B. Cross, 
 V. Bakken, C. Adamo, J. Jaramillo, R. Gomperts, R. E. Stratmann, 
 O. Yazyev, A. J. Austin, R. Cammi, C. Pomelli, J. W. Ochterski, 
 R. L. Martin, K. Morokuma, V. G. Zakrzewski, G. A. Voth, 
 P. Salvador, J. J. Dannenberg, S. Dapprich, A. D. Daniels, 
 O. Farkas, J. B. Foresman, J. V. Ortiz, J. Cioslowski, 
 and D. J. Fox, Gaussian, Inc., Wallingford CT, 2013.
 
 ******************************************
 Gaussian 09:  ES64L-G09RevD.01 24-Apr-2013
                 3-Feb-2025 
 ******************************************
 %nprocshared=24
 Will use up to   24 processors via shared memory.
 %mem=40GB
 %rwf=cytop/A2/A2_neu.rwf
 %nosave
 %chk=cytop/A2/A2_neu.chk
 ----------------------------------------------------------------------
 #p CAM-B3LYP/6-31G(d,p) SCRF=(PCM,Solvent=Generic,Read) NoSymm out=wfn
 ----------------------------------------------------------------------
 1/38=1,40=2/1;
 2/12=2,15=1,17=6,18=5,40=1/2;
 3/5=1,6=6,7=101,11=2,16=1,25=1,30=1,70=2203,72=-2,74=-40/1,2,3;
 4//1;
 5/5=2,38=5/2;
 6/7=2,8=2,9=2,10=2,28=1/1;
 99/5=1,6=100,9=1/99;
 Leave Link    1 at Mon Feb  3 21:53:09 2025, MaxMem=  5368709120 cpu:         1.0
 (Enter /home/k0335/k033513/app/g09/l101.exe)
 ------------
 Title A2_neu
 ------------
 Symbolic Z-matrix:
 Charge =  0 Multiplicity = 1
 F                     0.94184   1.40137   0.98715 
 C                     0.75621   0.12929   0.54479 
 C                     2.01922  -0.3101   -0.17817 
 F                     1.80587  -1.4702   -0.84827 
 C                     2.57006   0.76836  -1.11856 
 F                     1.67927   1.16361  -2.05142 
 F                     2.94024   1.87954  -0.43839 
 F                     3.66987   0.32945  -1.77727 
 F                     2.98808  -0.59615   0.74186 
 C                    -0.50799  -0.03353  -0.31243 
 O                    -1.12256  -1.30139  -0.0002 
 C                    -0.36027  -1.87637   1.05672 
 F                    -1.19081  -2.52215   1.89659 
 F                     0.45057  -2.79787   0.50106 
 C                     0.40371  -0.75132   1.71272 
 F                    -0.43846  -0.06804   2.53915 
 F                     1.4389   -1.13582   2.47405 
 C                    -1.49579   1.13304  -0.15239 
 F                    -0.85761   2.29848  -0.46944 
 C                    -2.69987   0.90283  -1.05575 
 O                    -3.74366   0.30304  -0.43724 
 O                    -2.79163   1.19153  -2.24002 
 F                    -1.85521   1.25592   1.15612 
 F                    -0.15994  -0.12418  -1.62201 
 H                    -4.44005   0.23066  -1.12584 
 
 NAtoms=     25 NQM=       25 NQMF=       0 NMMI=      0 NMMIF=      0
                NMic=       0 NMicF=      0.
                    Isotopes and Nuclear Properties:
 (Nuclear quadrupole moments (NQMom) in fm**2, nuclear magnetic moments (NMagM)
  in nuclear magnetons)

  Atom         1           2           3           4           5           6           7           8           9          10
 IAtWgt=          19          12          12          19          12          19          19          19          19          12
 AtmWgt=  18.9984033  12.0000000  12.0000000  18.9984033  12.0000000  18.9984033  18.9984033  18.9984033  18.9984033  12.0000000
 NucSpn=           1           0           0           1           0           1           1           1           1           0
 AtZEff=   0.0000000   0.0000000   0.0000000   0.0000000   0.0000000   0.0000000   0.0000000   0.0000000   0.0000000   0.0000000
 NQMom=    0.0000000   0.0000000   0.0000000   0.0000000   0.0000000   0.0000000   0.0000000   0.0000000   0.0000000   0.0000000
 NMagM=    2.6288670   0.0000000   0.0000000   2.6288670   0.0000000   2.6288670   2.6288670   2.6288670   2.6288670   0.0000000
 AtZNuc=   9.0000000   6.0000000   6.0000000   9.0000000   6.0000000   9.0000000   9.0000000   9.0000000   9.0000000   6.0000000

  Atom        11          12          13          14          15          16          17          18          19          20
 IAtWgt=          16          12          19          19          12          19          19          12          19          12
 AtmWgt=  15.9949146  12.0000000  18.9984033  18.9984033  12.0000000  18.9984033  18.9984033  12.0000000  18.9984033  12.0000000
 NucSpn=           0           0           1           1           0           1           1           0           1           0
 AtZEff=   0.0000000   0.0000000   0.0000000   0.0000000   0.0000000   0.0000000   0.0000000   0.0000000   0.0000000   0.0000000
 NQMom=    0.0000000   0.0000000   0.0000000   0.0000000   0.0000000   0.0000000   0.0000000   0.0000000   0.0000000   0.0000000
 NMagM=    0.0000000   0.0000000   2.6288670   2.6288670   0.0000000   2.6288670   2.6288670   0.0000000   2.6288670   0.0000000
 AtZNuc=   8.0000000   6.0000000   9.0000000   9.0000000   6.0000000   9.0000000   9.0000000   6.0000000   9.0000000   6.0000000

  Atom        21          22          23          24          25
 IAtWgt=          16          16          19          19           1
 AtmWgt=  15.9949146  15.9949146  18.9984033  18.9984033   1.0078250
 NucSpn=           0           0           1           1           1
 AtZEff=   0.0000000   0.0000000   0.0000000   0.0000000   0.0000000
 NQMom=    0.0000000   0.0000000   0.0000000   0.0000000   0.0000000
 NMagM=    0.0000000   0.0000000   2.6288670   2.6288670   2.7928460
 AtZNuc=   8.0000000   8.0000000   9.0000000   9.0000000   1.0000000
 Leave Link  101 at Mon Feb  3 21:53:09 2025, MaxMem=  5368709120 cpu:         0.6
 (Enter /home/k0335/k033513/app/g09/l202.exe)
                          Input orientation:                          
 ---------------------------------------------------------------------
 Center     Atomic      Atomic             Coordinates (Angstroms)
 Number     Number       Type             X           Y           Z
 ---------------------------------------------------------------------
      1          9           0        0.941843    1.401371    0.987152
      2          6           0        0.756210    0.129293    0.544786
      3          6           0        2.019219   -0.310101   -0.178170
      4          9           0        1.805874   -1.470200   -0.848265
      5          6           0        2.570060    0.768363   -1.118556
      6          9           0        1.679266    1.163610   -2.051421
      7          9           0        2.940237    1.879536   -0.438385
      8          9           0        3.669865    0.329445   -1.777272
      9          9           0        2.988084   -0.596148    0.741855
     10          6           0       -0.507993   -0.033534   -0.312431
     11          8           0       -1.122560   -1.301387   -0.000199
     12          6           0       -0.360271   -1.876366    1.056724
     13          9           0       -1.190811   -2.522148    1.896590
     14          9           0        0.450573   -2.797874    0.501057
     15          6           0        0.403713   -0.751320    1.712719
     16          9           0       -0.438455   -0.068041    2.539146
     17          9           0        1.438900   -1.135816    2.474045
     18          6           0       -1.495794    1.133040   -0.152391
     19          9           0       -0.857610    2.298477   -0.469435
     20          6           0       -2.699870    0.902827   -1.055747
     21          8           0       -3.743661    0.303043   -0.437240
     22          8           0       -2.791627    1.191530   -2.240024
     23          9           0       -1.855205    1.255924    1.156118
     24          9           0       -0.159942   -0.124181   -1.622008
     25          1           0       -4.440046    0.230655   -1.125837
 ---------------------------------------------------------------------
                    Distance matrix (angstroms):
                    1          2          3          4          5
     1  F    0.000000
     2  C    1.359533   0.000000
     3  C    2.334063   1.520172   0.000000
     4  F    3.515853   2.366593   1.356604   0.000000
     5  C    2.736018   2.542670   1.533244   2.380799   0.000000
     6  F    3.135801   2.943150   2.407584   2.898374   1.349063
     7  F    2.500875   2.966471   2.389664   3.560269   1.354389
     8  F    4.029041   3.731139   2.385535   2.752497   1.355038
     9  F    2.870079   2.355072   1.366370   2.165657   2.344731
    10  C    2.418655   1.536080   2.545843   2.775808   3.281354
    11  O    3.541401   2.423557   3.299257   3.053431   4.378359
    12  C    3.527591   2.351867   3.104855   2.913098   4.507025
    13  F    4.557334   3.556460   4.416115   4.197731   5.836328
    14  F    4.255736   2.943405   3.018446   2.328139   4.453473
    15  C    2.334547   1.504593   2.525865   3.006906   3.875386
    16  F    2.544225   2.333160   3.671861   4.298560   4.809316
    17  F    2.982488   2.405952   2.837749   3.359200   4.220451
    18  C    2.704188   2.562242   3.799821   4.261703   4.194953
    19  F    2.482836   2.887632   3.894311   4.630398   3.809400
    20  C    4.205241   3.886457   4.950872   5.096669   5.272019
    21  O    5.018881   4.609057   5.801194   5.840434   6.367400
    22  O    4.939382   4.633645   5.445216   5.491704   5.494038
    23  F    2.805919   2.909040   4.386789   4.985259   4.999483
    24  F    3.216979   2.366132   2.620683   2.504971   2.915992
    25  H    5.899155   5.459151   6.550770   6.479311   7.030702
                    6          7          8          9         10
     6  F    0.000000
     7  F    2.168982   0.000000
     8  F    2.175655   2.174341   0.000000
     9  F    3.551358   2.743040   2.769034   0.000000
    10  C    3.039958   3.945376   4.442073   3.694673   0.000000
    11  O    4.258398   5.178474   5.365160   4.236201   1.443133
    12  C    4.802263   5.218765   5.398067   3.598553   2.300530
    13  F    6.116285   6.472441   6.727185   4.744054   3.396942
    14  F    4.870132   5.381370   5.033364   3.368166   3.036805
    15  C    4.411660   4.240590   4.900596   2.765073   2.334022
    16  F    5.203365   4.906558   5.972249   3.905166   2.852633
    17  F    5.081828   4.452933   5.019750   2.385727   3.573495
    18  C    3.699764   4.507485   5.474490   4.888244   1.536964
    19  F    3.197865   3.821010   5.107402   4.963410   2.363294
    20  C    4.498467   5.757248   6.436062   6.150701   2.496721
    21  O    5.723137   6.867301   7.533708   6.893127   3.255520
    22  O    4.474956   6.047605   6.535152   6.744809   3.229765
    23  F    4.773815   5.091915   6.323728   5.201849   2.373672
    24  F    2.285932   3.876462   3.859703   3.964930   1.358068
    25  H    6.258841   7.593417   8.136632   7.703830   4.023986
                   11         12         13         14         15
    11  O    0.000000
    12  C    1.424350   0.000000
    13  F    2.256706   1.346182   0.000000
    14  F    2.228335   1.347372   2.172022   0.000000
    15  C    2.359273   1.509877   2.390010   2.378803   0.000000
    16  F    2.904723   2.339600   2.646046   3.520819   1.363488
    17  F    3.565161   2.407121   3.028325   2.762591   1.341293
    18  C    2.467570   3.436262   4.201397   4.434797   3.261530
    19  F    3.639973   4.472787   5.380290   5.350326   3.956513
    20  C    2.908719   4.202401   4.766970   5.103344   4.475805
    21  O    3.104089   4.292910   4.466040   5.299782   4.789020
    22  O    3.743960   5.117814   5.784945   5.825867   5.441419
    23  F    2.900634   3.472168   3.906859   4.709458   3.072710
    24  F    2.223221   3.207162   4.381035   3.468251   3.439682
    25  H    3.823601   5.084061   5.222118   5.978037   5.699445
                   16         17         18         19         20
    16  F    0.000000
    17  F    2.160751   0.000000
    18  C    3.131283   4.545141   0.000000
    19  F    3.850670   5.072711   1.366030   0.000000
    20  C    4.356586   5.809037   1.522777   2.384433   0.000000
    21  O    4.463291   6.115949   2.413077   3.508858   1.353437
    22  O    5.473975   6.748062   2.457807   2.846180   1.222408
    23  F    2.381770   4.278841   1.362524   2.173600   2.393843
    24  F    4.170842   4.511912   2.350506   2.772082   2.797612
    25  H    5.434524   7.027688   3.229631   4.188150   1.866799
                   21         22         23         24         25
    21  O    0.000000
    22  O    2.223917   0.000000
    23  F    2.648214   3.523466   0.000000
    24  F    3.798584   3.006461   3.535052   0.000000
    25  H    0.982017   2.209520   3.597207   4.323353   0.000000
 Symmetry turned off by external request.
 Stoichiometry    C8HF13O3
 Framework group  C1[X(C8HF13O3)]
 Deg. of freedom    69
 Full point group                 C1      NOp   1
 Rotational constants (GHZ):      0.3425298      0.2608290      0.1986755
 Leave Link  202 at Mon Feb  3 21:53:09 2025, MaxMem=  5368709120 cpu:         0.0
 (Enter /home/k0335/k033513/app/g09/l301.exe)
 Standard basis: 6-31G(d,p) (6D, 7F)
 Ernie: Thresh=  0.10000D-02 Tol=  0.10000D-05 Strict=F.
   365 basis functions,   679 primitive gaussians,   365 cartesian basis functions
    95 alpha electrons       95 beta electrons
       nuclear repulsion energy      2870.0287907916 Hartrees.
 IExCor=20419 DFT=T Ex+Corr=CAM-B3LYP ExCW=0 ScaHFX=  1.000000
 ScaDFX=  1.000000  1.000000  1.000000  0.810000 ScalE2=  1.000000  1.000000
 IRadAn=      0 IRanWt=     -1 IRanGd=            0 ICorTp=0 IEmpDi=  4
  HFx wShort=  0.000000 wLong=  0.330000 cFull=  0.190000 cShort=  0.000000 cLong=  0.460000
  DFx wShort=  0.000000 wLong=  0.330000 cFull=  0.190000 cShort=  0.000000 cLong=  0.460000
 NAtoms=   25 NActive=   25 NUniq=   25 SFac= 1.00D+00 NAtFMM=   60 NAOKFM=F Big=F
 Integral buffers will be    131072 words long.
 Raffenetti 2 integral format.
 Two-electron integral symmetry is turned off.
 Using the following non-standard input for PCM:
 eps=2.05
 --- end of non-standard input.
 ------------------------------------------------------------------------------
 Polarizable Continuum Model (PCM)
 =================================
 Model                : PCM (using non-symmetric T matrix).
 Atomic radii         : UFF (Universal Force Field).
 Polarization charges : Total charges.
 Charge compensation  : None.
 Solution method      : On-the-fly selection.
 Cavity type          : Scaled VdW (van der Waals Surface) (Alpha=1.100).
 Cavity algorithm     : GePol (No added spheres)
                        Default sphere list used, NSphG=   25.
                        Lebedev-Laikov grids with approx.  5.0 points / Ang**2.
                        Smoothing algorithm: Karplus/York (Gamma=1.0000).
                        Polarization charges: spherical gaussians, with
                                              point-specific exponents (IZeta= 3).
                        Self-potential: point-specific (ISelfS= 7).
                        Self-field    : sphere-specific E.n sum rule (ISelfD= 2).
 Solvent              : Generic,
                        Eps                           =   2.050000
                        Eps(infinity)                 =   0.000000
                        RSolv                         =   0.000000 Ang.
                        Molar volume                  =   0.000000 cm**3/mol
                        Thermal expansion coefficient =   0.000000 K**-1
                        Absolute temperature          = 298.150000 K
                        Numeral density               =   0.000000 Ang**-3
                        Hydrogen bond acidity         =   0.000000
                        Hydrogen bond basicity        =   0.000000
                        Surface tension at interface  =   0.000000 (cal/mol)*Ang**-2
                        Carbon aromaticity            =   0.000000
                        Electronegative halogenicity  =   0.000000
 ------------------------------------------------------------------------------
 GePol: Number of generator spheres                  =      25
 GePol: Total number of spheres                      =      25
 GePol: Number of exposed spheres                    =      25 (100.00%)
 GePol: Number of points                             =    2231
 GePol: Average weight of points                     =       0.13
 GePol: Minimum weight of points                     =   0.52D-11
 GePol: Maximum weight of points                     =    0.20577
 GePol: Number of points with low weight             =      84
 GePol: Fraction of low-weight points (<1% of avg)   =       3.77%
 GePol: Cavity surface area                          =    281.386 Ang**2
 GePol: Cavity volume                                =    314.722 Ang**3
 Leave Link  301 at Mon Feb  3 21:53:09 2025, MaxMem=  5368709120 cpu:         0.6
 (Enter /home/k0335/k033513/app/g09/l302.exe)
 NPDir=0 NMtPBC=     1 NCelOv=     1 NCel=       1 NClECP=     1 NCelD=      1
         NCelK=      1 NCelE2=     1 NClLst=     1 CellRange=     0.0.
 One-electron integrals computed using PRISM.
 NBasis=   365 RedAO= T EigKep=  8.57D-04  NBF=   365
 NBsUse=   365 1.00D-06 EigRej= -1.00D+00 NBFU=   365
 Precomputing XC quadrature grid using
 IXCGrd= 4 IRadAn=           0 IRanWt=          -1 IRanGd=           0 AccXCQ= 0.00D+00.
 Generated NRdTot=       0 NPtTot=           0 NUsed=           0 NTot=          32
 NSgBfM=   362   362   362   362   362 MxSgAt=    25 MxSgA2=    25.
 Leave Link  302 at Mon Feb  3 21:53:10 2025, MaxMem=  5368709120 cpu:         4.7
 (Enter /home/k0335/k033513/app/g09/l303.exe)
 DipDrv:  MaxL=1.
 Leave Link  303 at Mon Feb  3 21:53:10 2025, MaxMem=  5368709120 cpu:         0.4
 (Enter /home/k0335/k033513/app/g09/l401.exe)
 ExpMin= 1.61D-01 ExpMax= 7.00D+03 ExpMxC= 1.05D+03 IAcc=1 IRadAn=         1 AccDes= 0.00D+00
 Harris functional with IExCor=20419 and IRadAn=       1 diagonalized for initial guess.
 HarFok:  IExCor=20419 AccDes= 0.00D+00 IRadAn=         1 IDoV= 1 UseB2=F ITyADJ=14
 ICtDFT=  3500011 ScaDFX=  1.000000  1.000000  1.000000  1.000000
 FoFCou: FMM=F IPFlag=           0 FMFlag=      100000 FMFlg1=           0
         NFxFlg=           0 DoJE=T BraDBF=F KetDBF=T FulRan=T
         wScrn=  0.000000 ICntrl=     500 IOpCl=  0 I1Cent=   200000004 NGrid=           0
         NMat0=    1 NMatS0=      1 NMatT0=    0 NMatD0=    1 NMtDS0=    0 NMtDT0=    0
 Symmetry not used in FoFCou.
 Harris En= -1774.89574202860    
 JPrj=0 DoOrth=F DoCkMO=F.
 Leave Link  401 at Mon Feb  3 21:53:10 2025, MaxMem=  5368709120 cpu:         5.7
 (Enter /home/k0335/k033513/app/g09/l502.exe)
 Closed shell SCF:
 Using DIIS extrapolation, IDIIS=  1040.
 Two-electron integral symmetry not used.
 Keep R1 ints in memory in canonical form, NReq=4486581810.
 IVT=      429225 IEndB=      429225 NGot=  5368709120 MDV=   906641076
 LenX=   906641076 LenY=   906507410
 Requested convergence on RMS density matrix=1.00D-08 within 128 cycles.
 Requested convergence on MAX density matrix=1.00D-06.
 Requested convergence on             energy=1.00D-06.
 No special actions if energy rises.
 FoFCou: FMM=F IPFlag=           0 FMFlag=           0 FMFlg1=           0
         NFxFlg=           0 DoJE=F BraDBF=F KetDBF=F FulRan=T
         wScrn=  0.000000 ICntrl=     600 IOpCl=  0 I1Cent=           0 NGrid=           0
         NMat0=    1 NMatS0=  66795 NMatT0=    0 NMatD0=    1 NMtDS0=    0 NMtDT0=    0
 Symmetry not used in FoFCou.

 Cycle   1  Pass 1  IDiag  1:
 Inv3:  Mode=1 IEnd=    14932083.
 Iteration    1 A*A^-1 deviation from unit magnitude is 6.00D-15 for   2225.
 Iteration    1 A*A^-1 deviation from orthogonality  is 3.09D-15 for   2203   2158.
 Iteration    1 A^-1*A deviation from unit magnitude is 6.44D-15 for   2225.
 Iteration    1 A^-1*A deviation from orthogonality  is 3.23D-15 for   2186   1952.
 E= -1827.95773731977    
 DIIS: error= 4.76D-02 at cycle   1 NSaved=   1.
 NSaved= 1 IEnMin= 1 EnMin= -1827.95773731977     IErMin= 1 ErrMin= 4.76D-02
 ErrMax= 4.76D-02  0.00D+00 EMaxC= 1.00D-01 BMatC= 1.49D+00 BMatP= 1.49D+00
 IDIUse=3 WtCom= 5.24D-01 WtEn= 4.76D-01
 Coeff-Com:  0.100D+01
 Coeff-En:   0.100D+01
 Coeff:      0.100D+01
 Gap=     0.458 Goal=   None    Shift=    0.000
 GapD=    0.458 DampG=2.000 DampE=0.500 DampFc=1.0000 IDamp=-1.
 RMSDP=3.89D-03 MaxDP=1.65D-01              OVMax= 1.22D-01

 Cycle   2  Pass 1  IDiag  1:
 E= -1828.19066058746     Delta-E=       -0.232923267681 Rises=F Damp=F
 DIIS: error= 2.24D-02 at cycle   2 NSaved=   2.
 NSaved= 2 IEnMin= 2 EnMin= -1828.19066058746     IErMin= 2 ErrMin= 2.24D-02
 ErrMax= 2.24D-02  0.00D+00 EMaxC= 1.00D-01 BMatC= 5.71D-01 BMatP= 1.49D+00
 IDIUse=3 WtCom= 7.76D-01 WtEn= 2.24D-01
 Coeff-Com:  0.365D+00 0.635D+00
 Coeff-En:   0.327D+00 0.673D+00
 Coeff:      0.356D+00 0.644D+00
 Gap=     0.403 Goal=   None    Shift=    0.000
 RMSDP=1.74D-03 MaxDP=8.85D-02 DE=-2.33D-01 OVMax= 8.56D-02

 Cycle   3  Pass 1  IDiag  1:
 E= -1828.44706740887     Delta-E=       -0.256406821410 Rises=F Damp=F
 DIIS: error= 7.26D-03 at cycle   3 NSaved=   3.
 NSaved= 3 IEnMin= 3 EnMin= -1828.44706740887     IErMin= 3 ErrMin= 7.26D-03
 ErrMax= 7.26D-03  0.00D+00 EMaxC= 1.00D-01 BMatC= 9.83D-02 BMatP= 5.71D-01
 IDIUse=3 WtCom= 9.27D-01 WtEn= 7.26D-02
 Coeff-Com:  0.884D-01 0.321D+00 0.591D+00
 Coeff-En:   0.000D+00 0.109D+00 0.891D+00
 Coeff:      0.820D-01 0.306D+00 0.612D+00
 Gap=     0.372 Goal=   None    Shift=    0.000
 RMSDP=7.99D-04 MaxDP=4.32D-02 DE=-2.56D-01 OVMax= 5.76D-02

 Cycle   4  Pass 1  IDiag  1:
 E= -1828.50478398040     Delta-E=       -0.057716571534 Rises=F Damp=F
 DIIS: error= 2.30D-03 at cycle   4 NSaved=   4.
 NSaved= 4 IEnMin= 4 EnMin= -1828.50478398040     IErMin= 4 ErrMin= 2.30D-03
 ErrMax= 2.30D-03  0.00D+00 EMaxC= 1.00D-01 BMatC= 7.38D-03 BMatP= 9.83D-02
 IDIUse=3 WtCom= 9.77D-01 WtEn= 2.30D-02
 Coeff-Com:  0.410D-02 0.734D-01 0.287D+00 0.636D+00
 Coeff-En:   0.000D+00 0.000D+00 0.669D-02 0.993D+00
 Coeff:      0.401D-02 0.718D-01 0.280D+00 0.644D+00
 Gap=     0.373 Goal=   None    Shift=    0.000
 RMSDP=2.07D-04 MaxDP=1.39D-02 DE=-5.77D-02 OVMax= 2.13D-02

 Cycle   5  Pass 1  IDiag  1:
 E= -1828.50983659380     Delta-E=       -0.005052613401 Rises=F Damp=F
 DIIS: error= 9.39D-04 at cycle   5 NSaved=   5.
 NSaved= 5 IEnMin= 5 EnMin= -1828.50983659380     IErMin= 5 ErrMin= 9.39D-04
 ErrMax= 9.39D-04  0.00D+00 EMaxC= 1.00D-01 BMatC= 4.71D-04 BMatP= 7.38D-03
 IDIUse=3 WtCom= 9.91D-01 WtEn= 9.39D-03
 Coeff-Com: -0.284D-03 0.318D-01 0.146D+00 0.374D+00 0.448D+00
 Coeff-En:   0.000D+00 0.000D+00 0.000D+00 0.000D+00 0.100D+01
 Coeff:     -0.281D-03 0.315D-01 0.145D+00 0.370D+00 0.453D+00
 Gap=     0.369 Goal=   None    Shift=    0.000
 RMSDP=4.46D-05 MaxDP=4.22D-03 DE=-5.05D-03 OVMax= 7.34D-03

 Cycle   6  Pass 1  IDiag  1:
 E= -1828.51016262353     Delta-E=       -0.000326029728 Rises=F Damp=F
 DIIS: error= 1.35D-04 at cycle   6 NSaved=   6.
 NSaved= 6 IEnMin= 6 EnMin= -1828.51016262353     IErMin= 6 ErrMin= 1.35D-04
 ErrMax= 1.35D-04  0.00D+00 EMaxC= 1.00D-01 BMatC= 1.26D-05 BMatP= 4.71D-04
 IDIUse=3 WtCom= 9.99D-01 WtEn= 1.35D-03
 Coeff-Com: -0.498D-03 0.854D-04 0.737D-02 0.260D-01 0.143D+00 0.824D+00
 Coeff-En:   0.000D+00 0.000D+00 0.000D+00 0.000D+00 0.000D+00 0.100D+01
 Coeff:     -0.497D-03 0.853D-04 0.736D-02 0.259D-01 0.143D+00 0.824D+00
 Gap=     0.370 Goal=   None    Shift=    0.000
 RMSDP=1.28D-05 MaxDP=8.17D-04 DE=-3.26D-04 OVMax= 1.16D-03

 Cycle   7  Pass 1  IDiag  1:
 E= -1828.51017230662     Delta-E=       -0.000009683094 Rises=F Damp=F
 DIIS: error= 3.73D-05 at cycle   7 NSaved=   7.
 NSaved= 7 IEnMin= 7 EnMin= -1828.51017230662     IErMin= 7 ErrMin= 3.73D-05
 ErrMax= 3.73D-05  0.00D+00 EMaxC= 1.00D-01 BMatC= 2.48D-06 BMatP= 1.26D-05
 IDIUse=1 WtCom= 1.00D+00 WtEn= 0.00D+00
 Coeff-Com: -0.196D-03-0.308D-02-0.103D-01-0.232D-01 0.323D-01 0.410D+00
 Coeff-Com:  0.595D+00
 Coeff:     -0.196D-03-0.308D-02-0.103D-01-0.232D-01 0.323D-01 0.410D+00
 Coeff:      0.595D+00
 Gap=     0.370 Goal=   None    Shift=    0.000
 RMSDP=3.91D-06 MaxDP=2.44D-04 DE=-9.68D-06 OVMax= 4.01D-04

 Cycle   8  Pass 1  IDiag  1:
 E= -1828.51017411763     Delta-E=       -0.000001811006 Rises=F Damp=F
 DIIS: error= 1.14D-05 at cycle   8 NSaved=   8.
 NSaved= 8 IEnMin= 8 EnMin= -1828.51017411763     IErMin= 8 ErrMin= 1.14D-05
 ErrMax= 1.14D-05  0.00D+00 EMaxC= 1.00D-01 BMatC= 1.30D-07 BMatP= 2.48D-06
 IDIUse=1 WtCom= 1.00D+00 WtEn= 0.00D+00
 Coeff-Com: -0.129D-04-0.113D-02-0.447D-02-0.116D-01-0.209D-02 0.475D-01
 Coeff-Com:  0.200D+00 0.772D+00
 Coeff:     -0.129D-04-0.113D-02-0.447D-02-0.116D-01-0.209D-02 0.475D-01
 Coeff:      0.200D+00 0.772D+00
 Gap=     0.370 Goal=   None    Shift=    0.000
 RMSDP=1.35D-06 MaxDP=7.90D-05 DE=-1.81D-06 OVMax= 1.40D-04

 Cycle   9  Pass 1  IDiag  1:
 E= -1828.51017425319     Delta-E=       -0.000000135563 Rises=F Damp=F
 DIIS: error= 3.37D-06 at cycle   9 NSaved=   9.
 NSaved= 9 IEnMin= 9 EnMin= -1828.51017425319     IErMin= 9 ErrMin= 3.37D-06
 ErrMax= 3.37D-06  0.00D+00 EMaxC= 1.00D-01 BMatC= 1.19D-08 BMatP= 1.30D-07
 IDIUse=1 WtCom= 1.00D+00 WtEn= 0.00D+00
 Coeff-Com:  0.165D-04-0.186D-04-0.269D-03-0.118D-02-0.297D-02-0.325D-01
 Coeff-Com: -0.285D-02 0.203D+00 0.837D+00
 Coeff:      0.165D-04-0.186D-04-0.269D-03-0.118D-02-0.297D-02-0.325D-01
 Coeff:     -0.285D-02 0.203D+00 0.837D+00
 Gap=     0.370 Goal=   None    Shift=    0.000
 RMSDP=5.46D-07 MaxDP=3.33D-05 DE=-1.36D-07 OVMax= 5.86D-05

 Cycle  10  Pass 1  IDiag  1:
 E= -1828.51017426900     Delta-E=       -0.000000015810 Rises=F Damp=F
 DIIS: error= 1.23D-06 at cycle  10 NSaved=  10.
 NSaved=10 IEnMin=10 EnMin= -1828.51017426900     IErMin=10 ErrMin= 1.23D-06
 ErrMax= 1.23D-06  0.00D+00 EMaxC= 1.00D-01 BMatC= 1.79D-09 BMatP= 1.19D-08
 IDIUse=1 WtCom= 1.00D+00 WtEn= 0.00D+00
 Coeff-Com:  0.731D-05 0.131D-03 0.449D-03 0.964D-03-0.358D-03-0.181D-01
 Coeff-Com: -0.239D-01-0.228D-01 0.310D+00 0.754D+00
 Coeff:      0.731D-05 0.131D-03 0.449D-03 0.964D-03-0.358D-03-0.181D-01
 Coeff:     -0.239D-01-0.228D-01 0.310D+00 0.754D+00
 Gap=     0.370 Goal=   None    Shift=    0.000
 RMSDP=1.80D-07 MaxDP=1.00D-05 DE=-1.58D-08 OVMax= 1.89D-05

 Cycle  11  Pass 1  IDiag  1:
 E= -1828.51017427077     Delta-E=       -0.000000001774 Rises=F Damp=F
 DIIS: error= 3.43D-07 at cycle  11 NSaved=  11.
 NSaved=11 IEnMin=11 EnMin= -1828.51017427077     IErMin=11 ErrMin= 3.43D-07
 ErrMax= 3.43D-07  0.00D+00 EMaxC= 1.00D-01 BMatC= 1.94D-10 BMatP= 1.79D-09
 IDIUse=1 WtCom= 1.00D+00 WtEn= 0.00D+00
 Coeff-Com:  0.148D-05 0.561D-04 0.210D-03 0.503D-03 0.264D-03-0.455D-02
 Coeff-Com: -0.868D-02-0.260D-01 0.527D-01 0.298D+00 0.687D+00
 Coeff:      0.148D-05 0.561D-04 0.210D-03 0.503D-03 0.264D-03-0.455D-02
 Coeff:     -0.868D-02-0.260D-01 0.527D-01 0.298D+00 0.687D+00
 Gap=     0.370 Goal=   None    Shift=    0.000
 RMSDP=4.72D-08 MaxDP=2.06D-06 DE=-1.77D-09 OVMax= 4.77D-06

 Cycle  12  Pass 1  IDiag  1:
 E= -1828.51017427101     Delta-E=       -0.000000000239 Rises=F Damp=F
 DIIS: error= 1.49D-07 at cycle  12 NSaved=  12.
 NSaved=12 IEnMin=12 EnMin= -1828.51017427101     IErMin=12 ErrMin= 1.49D-07
 ErrMax= 1.49D-07  0.00D+00 EMaxC= 1.00D-01 BMatC= 2.33D-11 BMatP= 1.94D-10
 IDIUse=1 WtCom= 1.00D+00 WtEn= 0.00D+00
 Coeff-Com: -0.683D-06-0.106D-05 0.319D-05 0.262D-04 0.220D-03 0.132D-02
 Coeff-Com:  0.106D-02-0.571D-02-0.329D-01-0.247D-01 0.240D+00 0.821D+00
 Coeff:     -0.683D-06-0.106D-05 0.319D-05 0.262D-04 0.220D-03 0.132D-02
 Coeff:      0.106D-02-0.571D-02-0.329D-01-0.247D-01 0.240D+00 0.821D+00
 Gap=     0.370 Goal=   None    Shift=    0.000
 RMSDP=2.00D-08 MaxDP=8.27D-07 DE=-2.39D-10 OVMax= 1.96D-06

 Cycle  13  Pass 1  IDiag  1:
 E= -1828.51017427107     Delta-E=       -0.000000000056 Rises=F Damp=F
 DIIS: error= 2.83D-08 at cycle  13 NSaved=  13.
 NSaved=13 IEnMin=13 EnMin= -1828.51017427107     IErMin=13 ErrMin= 2.83D-08
 ErrMax= 2.83D-08  0.00D+00 EMaxC= 1.00D-01 BMatC= 1.46D-12 BMatP= 2.33D-11
 IDIUse=1 WtCom= 1.00D+00 WtEn= 0.00D+00
 Coeff-Com: -0.301D-06-0.410D-05-0.128D-04-0.267D-04 0.581D-04 0.670D-03
 Coeff-Com:  0.927D-03-0.128D-03-0.133D-01-0.270D-01 0.309D-01 0.260D+00
 Coeff-Com:  0.748D+00
 Coeff:     -0.301D-06-0.410D-05-0.128D-04-0.267D-04 0.581D-04 0.670D-03
 Coeff:      0.927D-03-0.128D-03-0.133D-01-0.270D-01 0.309D-01 0.260D+00
 Coeff:      0.748D+00
 Gap=     0.370 Goal=   None    Shift=    0.000
 RMSDP=4.72D-09 MaxDP=2.09D-07 DE=-5.64D-11 OVMax= 5.30D-07

 Error on total polarization charges =  0.00065
 SCF Done:  E(RCAM-B3LYP) =  -1828.51017427     A.U. after   13 cycles
            NFock= 13  Conv=0.47D-08     -V/T= 2.0069
 KE= 1.815895199467D+03 PE=-1.007013960519D+04 EE= 3.555705440662D+03
 Leave Link  502 at Mon Feb  3 21:53:44 2025, MaxMem=  5368709120 cpu:       339.9
 (Enter /home/k0335/k033513/app/g09/l601.exe)
 Copying SCF densities to generalized density rwf, IOpCl= 0 IROHF=0.

 **********************************************************************

            Population analysis using the SCF density.

 **********************************************************************

 Alpha  occ. eigenvalues --  -24.83769 -24.83662 -24.83638 -24.83339 -24.83237
 Alpha  occ. eigenvalues --  -24.83171 -24.83107 -24.83046 -24.82949 -24.82853
 Alpha  occ. eigenvalues --  -24.82832 -24.82631 -24.82516 -19.32643 -19.30197
 Alpha  occ. eigenvalues --  -19.25555 -10.55142 -10.53295 -10.50319 -10.49359
 Alpha  occ. eigenvalues --  -10.49305 -10.48088 -10.44503 -10.43684  -1.42097
 Alpha  occ. eigenvalues --   -1.40921  -1.38899  -1.38631  -1.38281  -1.36116
 Alpha  occ. eigenvalues --   -1.35718  -1.33078  -1.32956  -1.32384  -1.32119
 Alpha  occ. eigenvalues --   -1.31767  -1.31307  -1.22132  -1.20833  -1.12298
 Alpha  occ. eigenvalues --   -0.98252  -0.91982  -0.90305  -0.85123  -0.80361
 Alpha  occ. eigenvalues --   -0.78062  -0.76031  -0.74124  -0.72075  -0.71395
 Alpha  occ. eigenvalues --   -0.70988  -0.69979  -0.69181  -0.68412  -0.67876
 Alpha  occ. eigenvalues --   -0.67485  -0.66772  -0.65636  -0.65441  -0.64665
 Alpha  occ. eigenvalues --   -0.63331  -0.62551  -0.58675  -0.58245  -0.57864
 Alpha  occ. eigenvalues --   -0.57607  -0.57090  -0.56210  -0.55817  -0.55632
 Alpha  occ. eigenvalues --   -0.55301  -0.54543  -0.54279  -0.54199  -0.53823
 Alpha  occ. eigenvalues --   -0.53154  -0.52882  -0.52728  -0.52286  -0.51603
 Alpha  occ. eigenvalues --   -0.51312  -0.51078  -0.50810  -0.50291  -0.49985
 Alpha  occ. eigenvalues --   -0.49930  -0.49514  -0.49272  -0.48215  -0.47208
 Alpha  occ. eigenvalues --   -0.44945  -0.43533  -0.42930  -0.41125  -0.37767
 Alpha virt. eigenvalues --   -0.00746   0.04017   0.06680   0.07838   0.10932
 Alpha virt. eigenvalues --    0.12080   0.12932   0.16061   0.16662   0.20091
 Alpha virt. eigenvalues --    0.21551   0.23495   0.24383   0.25089   0.25568
 Alpha virt. eigenvalues --    0.26618   0.27705   0.28829   0.29598   0.30510
 Alpha virt. eigenvalues --    0.31823   0.34589   0.35133   0.35487   0.38695
 Alpha virt. eigenvalues --    0.41158   0.45909   0.48795   0.50259   0.51449
 Alpha virt. eigenvalues --    0.52298   0.52906   0.54264   0.55358   0.56812
 Alpha virt. eigenvalues --    0.58522   0.59454   0.60722   0.61271   0.62728
 Alpha virt. eigenvalues --    0.65685   0.66779   0.67956   0.69725   0.70630
 Alpha virt. eigenvalues --    0.71582   0.74291   0.76392   0.79124   0.79809
 Alpha virt. eigenvalues --    0.81202   0.85546   0.89267   0.90988   0.91938
 Alpha virt. eigenvalues --    0.93127   0.94946   0.97000   0.98336   0.99596
 Alpha virt. eigenvalues --    1.00105   1.03696   1.04698   1.06143   1.07768
 Alpha virt. eigenvalues --    1.08102   1.10373   1.11343   1.12339   1.13127
 Alpha virt. eigenvalues --    1.14171   1.16032   1.17175   1.18889   1.19602
 Alpha virt. eigenvalues --    1.21186   1.22882   1.23799   1.25132   1.26084
 Alpha virt. eigenvalues --    1.27944   1.28221   1.29617   1.30109   1.30523
 Alpha virt. eigenvalues --    1.31976   1.33275   1.33902   1.34936   1.36113
 Alpha virt. eigenvalues --    1.36849   1.37158   1.37238   1.38700   1.39556
 Alpha virt. eigenvalues --    1.40321   1.41214   1.41545   1.42029   1.42172
 Alpha virt. eigenvalues --    1.42847   1.43599   1.44753   1.45491   1.46644
 Alpha virt. eigenvalues --    1.48148   1.48809   1.50443   1.51083   1.52343
 Alpha virt. eigenvalues --    1.54423   1.55596   1.55765   1.57241   1.59017
 Alpha virt. eigenvalues --    1.59789   1.60929   1.62828   1.63698   1.64167
 Alpha virt. eigenvalues --    1.67043   1.67519   1.68798   1.71073   1.71705
 Alpha virt. eigenvalues --    1.72054   1.73915   1.74560   1.75458   1.76555
 Alpha virt. eigenvalues --    1.78125   1.78237   1.79623   1.80469   1.80721
 Alpha virt. eigenvalues --    1.82563   1.83562   1.84270   1.84677   1.85626
 Alpha virt. eigenvalues --    1.85835   1.87169   1.88168   1.89050   1.89669
 Alpha virt. eigenvalues --    1.90327   1.92050   1.92377   1.93807   1.94027
 Alpha virt. eigenvalues --    1.95585   1.96189   1.97539   1.98494   2.00324
 Alpha virt. eigenvalues --    2.01125   2.02232   2.02497   2.03913   2.04326
 Alpha virt. eigenvalues --    2.04543   2.05274   2.05922   2.06279   2.06657
 Alpha virt. eigenvalues --    2.06810   2.07658   2.09158   2.10192   2.10575
 Alpha virt. eigenvalues --    2.11320   2.11465   2.12312   2.13723   2.15888
 Alpha virt. eigenvalues --    2.16927   2.18409   2.19181   2.19712   2.21205
 Alpha virt. eigenvalues --    2.24319   2.24660   2.27458   2.27868   2.30108
 Alpha virt. eigenvalues --    2.31685   2.32765   2.33026   2.35432   2.36874
 Alpha virt. eigenvalues --    2.37294   2.39152   2.39611   2.40384   2.40850
 Alpha virt. eigenvalues --    2.43177   2.44571   2.46078   2.48196   2.50021
 Alpha virt. eigenvalues --    2.52488   2.53440   2.57352   2.58462   2.59194
 Alpha virt. eigenvalues --    2.60606   2.66232   2.66927   2.67193   2.69097
 Alpha virt. eigenvalues --    2.70786   2.74213   2.75455   2.76385   2.77062
 Alpha virt. eigenvalues --    2.81165   2.82010   2.83464   2.85998   2.87888
 Alpha virt. eigenvalues --    2.88926   2.90346   2.91593   2.92292   2.94340
 Alpha virt. eigenvalues --    2.95928   2.97771   3.00227   3.01979   3.06666
 Alpha virt. eigenvalues --    3.08134   3.10211   3.10758   3.11597   3.13133
 Alpha virt. eigenvalues --    3.13372   3.17711   3.19331   3.22040   3.23318
 Alpha virt. eigenvalues --    3.25767   3.29686   3.31389   3.32409   3.35683
 Alpha virt. eigenvalues --    3.47321   3.94731   4.19798   4.24135   4.32603
 Alpha virt. eigenvalues --    4.35859   4.40397   4.47304   4.61637   4.71059
 Alpha virt. eigenvalues --    4.74502   4.77246   4.80044   4.87457   5.09327
 Alpha virt. eigenvalues --    5.18830   5.23756   5.30368   5.39630   5.63310
 Alpha virt. eigenvalues --    5.77693   5.93637   6.19760   6.84325   7.28000
          Condensed to atoms (all electrons):
               1          2          3          4          5          6
     1  F    9.125958   0.204719  -0.025186   0.000351   0.010366  -0.000801
     2  C    0.204719   5.659273   0.083795  -0.042763  -0.052350   0.007838
     3  C   -0.025186   0.083795   4.846741   0.229797   0.225679  -0.042514
     4  F    0.000351  -0.042763   0.229797   9.112873  -0.014398  -0.000144
     5  C    0.010366  -0.052350   0.225679  -0.014398   4.187787   0.287384
     6  F   -0.000801   0.007838  -0.042514  -0.000144   0.287384   9.066383
     7  F   -0.001361   0.000770  -0.031151   0.000282   0.280249  -0.039821
     8  F    0.000002   0.002457  -0.024436  -0.000551   0.300902  -0.039835
     9  F   -0.000637  -0.023862   0.236865  -0.038673  -0.014162   0.000299
    10  C   -0.034937   0.116246  -0.030395   0.015533  -0.005608   0.006016
    11  O    0.000792  -0.022689  -0.002301  -0.001577   0.000137   0.000001
    12  C    0.001811  -0.087210  -0.001923   0.009227  -0.000231  -0.000007
    13  F   -0.000001   0.002545   0.000041   0.000000   0.000000   0.000000
    14  F   -0.000001  -0.003397   0.012468  -0.008661   0.000091   0.000000
    15  C   -0.008732   0.154780  -0.024679  -0.001323   0.002310   0.000093
    16  F   -0.001622  -0.037076   0.001997  -0.000001  -0.000025   0.000000
    17  F   -0.000325  -0.036987   0.005890  -0.000224   0.000069   0.000000
    18  C    0.016738  -0.031434   0.002557   0.000134   0.000457  -0.000690
    19  F   -0.002634  -0.000783  -0.000839   0.000000   0.000803   0.000077
    20  C    0.000241   0.003740  -0.000094   0.000000  -0.000022   0.000006
    21  O    0.000000  -0.000088   0.000000   0.000000   0.000000   0.000000
    22  O    0.000000  -0.000089   0.000001   0.000000   0.000000   0.000000
    23  F   -0.001394   0.004110   0.000079   0.000000   0.000001   0.000000
    24  F    0.000353  -0.032169   0.010693  -0.004290   0.000615  -0.007245
    25  H    0.000000   0.000009   0.000000   0.000000   0.000000   0.000000
               7          8          9         10         11         12
     1  F   -0.001361   0.000002  -0.000637  -0.034937   0.000792   0.001811
     2  C    0.000770   0.002457  -0.023862   0.116246  -0.022689  -0.087210
     3  C   -0.031151  -0.024436   0.236865  -0.030395  -0.002301  -0.001923
     4  F    0.000282  -0.000551  -0.038673   0.015533  -0.001577   0.009227
     5  C    0.280249   0.300902  -0.014162  -0.005608   0.000137  -0.000231
     6  F   -0.039821  -0.039835   0.000299   0.006016   0.000001  -0.000007
     7  F    9.077396  -0.039893  -0.000559  -0.000337   0.000000   0.000002
     8  F   -0.039893   9.050515  -0.000631   0.000030   0.000000   0.000000
     9  F   -0.000559  -0.000631   9.110575   0.002477  -0.000006  -0.001010
    10  C   -0.000337   0.000030   0.002477   5.027032   0.143713  -0.003848
    11  O    0.000000   0.000000  -0.000006   0.143713   8.402956   0.177027
    12  C    0.000002   0.000000  -0.001010  -0.003848   0.177027   4.425646
    13  F    0.000000   0.000000   0.000000   0.000658  -0.040791   0.307275
    14  F    0.000000   0.000000  -0.000181   0.001660  -0.051161   0.273576
    15  C   -0.000057  -0.000024   0.001286  -0.060190  -0.031315   0.191073
    16  F    0.000000   0.000000   0.000002   0.005911  -0.001297  -0.022033
    17  F    0.000000   0.000000  -0.004250   0.002301   0.000763  -0.023048
    18  C    0.000058   0.000000  -0.000019   0.215910  -0.035010   0.002751
    19  F   -0.000015   0.000000   0.000000  -0.022645   0.000636   0.000041
    20  C    0.000000   0.000000   0.000000  -0.062103  -0.000527  -0.000230
    21  O    0.000000   0.000000   0.000000   0.000361   0.001288   0.000167
    22  O    0.000000   0.000000   0.000000   0.002509  -0.000260  -0.000007
    23  F    0.000000   0.000000   0.000000  -0.034334   0.001015   0.000427
    24  F   -0.000003  -0.000010   0.000004   0.236575  -0.046790   0.000314
    25  H    0.000000   0.000000   0.000000  -0.000207   0.000061  -0.000002
              13         14         15         16         17         18
     1  F   -0.000001  -0.000001  -0.008732  -0.001622  -0.000325   0.016738
     2  C    0.002545  -0.003397   0.154780  -0.037076  -0.036987  -0.031434
     3  C    0.000041   0.012468  -0.024679   0.001997   0.005890   0.002557
     4  F    0.000000  -0.008661  -0.001323  -0.000001  -0.000224   0.000134
     5  C    0.000000   0.000091   0.002310  -0.000025   0.000069   0.000457
     6  F    0.000000   0.000000   0.000093   0.000000   0.000000  -0.000690
     7  F    0.000000   0.000000  -0.000057   0.000000   0.000000   0.000058
     8  F    0.000000   0.000000  -0.000024   0.000000   0.000000   0.000000
     9  F    0.000000  -0.000181   0.001286   0.000002  -0.004250  -0.000019
    10  C    0.000658   0.001660  -0.060190   0.005911   0.002301   0.215910
    11  O   -0.040791  -0.051161  -0.031315  -0.001297   0.000763  -0.035010
    12  C    0.307275   0.273576   0.191073  -0.022033  -0.023048   0.002751
    13  F    9.036495  -0.041362  -0.021495  -0.000518  -0.000170   0.000048
    14  F   -0.041362   9.085225  -0.030485   0.000340  -0.000020  -0.000004
    15  C   -0.021495  -0.030485   4.739806   0.257662   0.281304  -0.006439
    16  F   -0.000518   0.000340   0.257662   9.102260  -0.041784   0.002004
    17  F   -0.000170  -0.000020   0.281304  -0.041784   9.063281   0.000014
    18  C    0.000048  -0.000004  -0.006439   0.002004   0.000014   4.593265
    19  F    0.000000   0.000000   0.000148  -0.000008   0.000000   0.259731
    20  C   -0.000012  -0.000002   0.000291  -0.000074   0.000000   0.241812
    21  O    0.000000   0.000000  -0.000022   0.000001   0.000000  -0.072608
    22  O    0.000000   0.000000   0.000002   0.000000   0.000000  -0.050667
    23  F   -0.000009   0.000000   0.002308  -0.002686   0.000000   0.263898
    24  F   -0.000003  -0.000022   0.001560   0.000000  -0.000001  -0.032880
    25  H    0.000000   0.000000   0.000001   0.000000   0.000000   0.007565
              19         20         21         22         23         24
     1  F   -0.002634   0.000241   0.000000   0.000000  -0.001394   0.000353
     2  C   -0.000783   0.003740  -0.000088  -0.000089   0.004110  -0.032169
     3  C   -0.000839  -0.000094   0.000000   0.000001   0.000079   0.010693
     4  F    0.000000   0.000000   0.000000   0.000000   0.000000  -0.004290
     5  C    0.000803  -0.000022   0.000000   0.000000   0.000001   0.000615
     6  F    0.000077   0.000006   0.000000   0.000000   0.000000  -0.007245
     7  F   -0.000015   0.000000   0.000000   0.000000   0.000000  -0.000003
     8  F    0.000000   0.000000   0.000000   0.000000   0.000000  -0.000010
     9  F    0.000000   0.000000   0.000000   0.000000   0.000000   0.000004
    10  C   -0.022645  -0.062103   0.000361   0.002509  -0.034334   0.236575
    11  O    0.000636  -0.000527   0.001288  -0.000260   0.001015  -0.046790
    12  C    0.000041  -0.000230   0.000167  -0.000007   0.000427   0.000314
    13  F    0.000000  -0.000012   0.000000   0.000000  -0.000009  -0.000003
    14  F    0.000000  -0.000002   0.000000   0.000000   0.000000  -0.000022
    15  C    0.000148   0.000291  -0.000022   0.000002   0.002308   0.001560
    16  F   -0.000008  -0.000074   0.000001   0.000000  -0.002686   0.000000
    17  F    0.000000   0.000000   0.000000   0.000000   0.000000  -0.000001
    18  C    0.259731   0.241812  -0.072608  -0.050667   0.263898  -0.032880
    19  F    9.101941  -0.026762   0.000632  -0.001600  -0.039366  -0.000203
    20  C   -0.026762   4.535360   0.259180   0.560061  -0.030106   0.006971
    21  O    0.000632   0.259180   8.092881  -0.096731   0.002605   0.000040
    22  O   -0.001600   0.560061  -0.096731   8.019347   0.000643  -0.001081
    23  F   -0.039366  -0.030106   0.002605   0.000643   9.098476   0.000325
    24  F   -0.000203   0.006971   0.000040  -0.001081   0.000325   9.134954
    25  H   -0.000044  -0.012648   0.281498   0.009122  -0.000104   0.000003
              25
     1  F    0.000000
     2  C    0.000009
     3  C    0.000000
     4  F    0.000000
     5  C    0.000000
     6  F    0.000000
     7  F    0.000000
     8  F    0.000000
     9  F    0.000000
    10  C   -0.000207
    11  O    0.000061
    12  C   -0.000002
    13  F    0.000000
    14  F    0.000000
    15  C    0.000001
    16  F    0.000000
    17  F    0.000000
    18  C    0.007565
    19  F   -0.000044
    20  C   -0.012648
    21  O    0.281498
    22  O    0.009122
    23  F   -0.000104
    24  F    0.000003
    25  H    0.353584
 Mulliken charges:
               1
     1  F   -0.283700
     2  C    0.130617
     3  C    0.526914
     4  F   -0.255591
     5  C    0.789947
     6  F   -0.237037
     7  F   -0.245558
     8  F   -0.248526
     9  F   -0.267518
    10  C    0.477671
    11  O   -0.494665
    12  C    0.750212
    13  F   -0.242701
    14  F   -0.238067
    15  C    0.552140
    16  F   -0.263055
    17  F   -0.246813
    18  C    0.622809
    19  F   -0.269107
    20  C    0.524917
    21  O   -0.469204
    22  O   -0.441251
    23  F   -0.265888
    24  F   -0.267710
    25  H    0.361163
 Sum of Mulliken charges =   0.00000
 Mulliken charges with hydrogens summed into heavy atoms:
               1
     1  F   -0.283700
     2  C    0.130617
     3  C    0.526914
     4  F   -0.255591
     5  C    0.789947
     6  F   -0.237037
     7  F   -0.245558
     8  F   -0.248526
     9  F   -0.267518
    10  C    0.477671
    11  O   -0.494665
    12  C    0.750212
    13  F   -0.242701
    14  F   -0.238067
    15  C    0.552140
    16  F   -0.263055
    17  F   -0.246813
    18  C    0.622809
    19  F   -0.269107
    20  C    0.524917
    21  O   -0.108041
    22  O   -0.441251
    23  F   -0.265888
    24  F   -0.267710
 Electronic spatial extent (au):  <R**2>=           5486.5287
 Charge=              0.0000 electrons
 Dipole moment (field-independent basis, Debye):
    X=             -1.6274    Y=             -0.6974    Z=              0.6103  Tot=              1.8728
 Quadrupole moment (field-independent basis, Debye-Ang):
   XX=           -114.7684   YY=           -128.2444   ZZ=           -131.2509
   XY=              0.2470   XZ=              2.4287   YZ=              2.2179
 Traceless Quadrupole moment (field-independent basis, Debye-Ang):
   XX=              9.9862   YY=             -3.4899   ZZ=             -6.4963
   XY=              0.2470   XZ=              2.4287   YZ=              2.2179
 Octapole moment (field-independent basis, Debye-Ang**2):
  XXX=           -130.5669  YYY=              3.9132  ZZZ=              5.1861  XYY=            -16.9473
  XXY=              1.4800  XXZ=            -21.6512  XZZ=             -7.3869  YZZ=             -8.4919
  YYZ=              0.7818  XYZ=             -6.3089
 Hexadecapole moment (field-independent basis, Debye-Ang**3):
 XXXX=          -2531.8266 YYYY=          -1329.0919 ZZZZ=          -1392.7498 XXXY=             55.1593
 XXXZ=            134.0073 YYYX=             61.2888 YYYZ=            282.8359 ZZZX=            -25.8173
 ZZZY=            300.8604 XXYY=           -710.1785 XXZZ=           -725.7920 YYZZ=           -454.0793
 XXYZ=            111.5782 YYXZ=             -4.4430 ZZXY=             46.1493
 N-N= 2.870028790792D+03 E-N=-1.007013960611D+04  KE= 1.815895199467D+03
 No NMR shielding tensors so no spin-rotation constants.
 Leave Link  601 at Mon Feb  3 21:53:45 2025, MaxMem=  5368709120 cpu:         3.0
 (Enter /home/k0335/k033513/app/g09/l9999.exe)
 1\1\GINC-C15U05N1\SP\RCAM-B3LYP\6-31G(d,p)\C8H1F13O3\K033513\03-Feb-20
 25\0\\#p CAM-B3LYP/6-31G(d,p) SCRF=(PCM,Solvent=Generic,Read) NoSymm o
 ut=wfn\\Title A2_neu\\0,1\F,0,0.941843,1.401371,0.987152\C,0,0.75621,0
 .129293,0.544786\C,0,2.019219,-0.310101,-0.17817\F,0,1.805874,-1.4702,
 -0.848265\C,0,2.57006,0.768363,-1.118556\F,0,1.679266,1.16361,-2.05142
 1\F,0,2.940237,1.879536,-0.438385\F,0,3.669865,0.329445,-1.777272\F,0,
 2.988084,-0.596148,0.741855\C,0,-0.507993,-0.033534,-0.312431\O,0,-1.1
 2256,-1.301387,-0.000199\C,0,-0.360271,-1.876366,1.056724\F,0,-1.19081
 1,-2.522148,1.89659\F,0,0.450573,-2.797874,0.501057\C,0,0.403713,-0.75
 132,1.712719\F,0,-0.438455,-0.068041,2.539146\F,0,1.4389,-1.135816,2.4
 74045\C,0,-1.495794,1.13304,-0.152391\F,0,-0.85761,2.298477,-0.469435\
 C,0,-2.69987,0.902827,-1.055747\O,0,-3.743661,0.303043,-0.43724\O,0,-2
 .791627,1.19153,-2.240024\F,0,-1.855205,1.255924,1.156118\F,0,-0.15994
 2,-0.124181,-1.622008\H,0,-4.440046,0.230655,-1.125837\\Version=ES64L-
 G09RevD.01\HF=-1828.5101743\RMSD=4.717e-09\Dipole=-0.6402861,-0.274362
 2,0.2401239\Quadrupole=7.4244974,-2.5946476,-4.8298498,0.1836115,1.805
 7124,1.6489728\PG=C01 [X(C8H1F13O3)]\\@

 Writing a WFN file to "cytop/A2/A2_neu.wfn"


 FRICTION IS A DRAG,
 AND ENTROPY AIN'T WHAT IT USED TO BE.
 Job cpu time:       0 days  0 hours  5 minutes 59.1 seconds.
 File lengths (MBytes):  RWF=    135 Int=      0 D2E=      0 Chk=      6 Scr=      1
 Normal termination of Gaussian 09 at Mon Feb  3 21:53:45 2025.
