 Entering Gaussian System, Link 0=g09
 Initial command:
 /home/k0335/k033513/app/g09/l1.exe "/home/k0335/k033513/app/g09/scratch/Gau-671870.inp" -scrdir="/home/k0335/k033513/app/g09/scratch/"
 Default is to use a total of  36 processors:
                               36 via shared-memory
                                1 via Linda
 Entering Link 1 = /home/k0335/k033513/app/g09/l1.exe PID=    671871.
  
 Copyright (c) 1988,1990,1992,1993,1995,1998,2003,2009,2013,
            Gaussian, Inc.  All Rights Reserved.
  
 This is part of the Gaussian(R) 09 program.  It is based on
 the Gaussian(R) 03 system (copyright 2003, Gaussian, Inc.),
 the Gaussian(R) 98 system (copyright 1998, Gaussian, Inc.),
 the Gaussian(R) 94 system (copyright 1995, Gaussian, Inc.),
 the Gaussian 92(TM) system (copyright 1992, Gaussian, Inc.),
 the Gaussian 90(TM) system (copyright 1990, Gaussian, Inc.),
 the Gaussian 88(TM) system (copyright 1988, Gaussian, Inc.),
 the Gaussian 86(TM) system (copyright 1986, Carnegie Mellon
 University), and the Gaussian 82(TM) system (copyright 1983,
 Carnegie Mellon University). Gaussian is a federally registered
 trademark of Gaussian, Inc.
  
 This software contains proprietary and confidential information,
 including trade secrets, belonging to Gaussian, Inc.
  
 This software is provided under written license and may be
 used, copied, transmitted, or stored only in accord with that
 written license.
  
 The following legend is applicable only to US Government
 contracts under FAR:
  
                    RESTRICTED RIGHTS LEGEND
  
 Use, reproduction and disclosure by the US Government is
 subject to restrictions as set forth in subparagraphs (a)
 and (c) of the Commercial Computer Software - Restricted
 Rights clause in FAR 52.227-19.
  
 Gaussian, Inc.
 340 Quinnipiac St., Bldg. 40, Wallingford CT 06492
  
  
 ---------------------------------------------------------------
 Warning -- This program may not be used in any manner that
 competes with the business of Gaussian, Inc. or will provide
 assistance to any competitor of Gaussian, Inc.  The licensee
 of this program is prohibited from giving any competitor of
 Gaussian, Inc. access to this program.  By using this program,
 the user acknowledges that Gaussian, Inc. is engaged in the
 business of creating and licensing software in the field of
 computational chemistry and represents and warrants to the
 licensee that it is not a competitor of Gaussian, Inc. and that
 it will not use this program in any manner prohibited above.
 ---------------------------------------------------------------
  

 Cite this work as:
 Gaussian 09, Revision D.01,
 M. J. Frisch, G. W. Trucks, H. B. Schlegel, G. E. Scuseria, 
 M. A. Robb, J. R. Cheeseman, G. Scalmani, V. Barone, B. Mennucci, 
 G. A. Petersson, H. Nakatsuji, M. Caricato, X. Li, H. P. Hratchian, 
 A. F. Izmaylov, J. Bloino, G. Zheng, J. L. Sonnenberg, M. Hada, 
 M. Ehara, K. Toyota, R. Fukuda, J. Hasegawa, M. Ishida, T. Nakajima, 
 Y. Honda, O. Kitao, H. Nakai, T. Vreven, J. A. Montgomery, Jr., 
 J. E. Peralta, F. Ogliaro, M. Bearpark, J. J. Heyd, E. Brothers, 
 K. N. Kudin, V. N. Staroverov, T. Keith, R. Kobayashi, J. Normand, 
 K. Raghavachari, A. Rendell, J. C. Burant, S. S. Iyengar, J. Tomasi, 
 M. Cossi, N. Rega, J. M. Millam, M. Klene, J. E. Knox, J. B. Cross, 
 V. Bakken, C. Adamo, J. Jaramillo, R. Gomperts, R. E. Stratmann, 
 O. Yazyev, A. J. Austin, R. Cammi, C. Pomelli, J. W. Ochterski, 
 R. L. Martin, K. Morokuma, V. G. Zakrzewski, G. A. Voth, 
 P. Salvador, J. J. Dannenberg, S. Dapprich, A. D. Daniels, 
 O. Farkas, J. B. Foresman, J. V. Ortiz, J. Cioslowski, 
 and D. J. Fox, Gaussian, Inc., Wallingford CT, 2013.
 
 ******************************************
 Gaussian 09:  ES64L-G09RevD.01 24-Apr-2013
                 3-Mar-2024 
 ******************************************
 %nprocshared=24
 Will use up to   24 processors via shared memory.
 %mem=40GB
 %rwf=A126125651/A126125651_p1.rwf
 %nosave
 %chk=A126125651/A126125651_p1.chk
 ----------------------------------------------------------------------
 #p CAM-B3LYP/6-31G(d,p) SCRF=(PCM,Solvent=Generic,Read) NoSymm out=wfn
 ----------------------------------------------------------------------
 1/38=1,40=2/1;
 2/12=2,15=1,17=6,18=5,40=1/2;
 3/5=1,6=6,7=101,11=2,16=1,25=1,30=1,70=2203,72=-2,74=-40/1,2,3;
 4//1;
 5/5=2,38=5/2;
 6/7=2,8=2,9=2,10=2,28=1/1;
 99/5=1,6=100,9=1/99;
 Leave Link    1 at Sun Mar  3 17:27:54 2024, MaxMem=  5368709120 cpu:         1.4
 (Enter /home/k0335/k033513/app/g09/l101.exe)
 -------------------
 Title A126125651_p1
 -------------------
 Symbolic Z-matrix:
 Charge =  1 Multiplicity = 2
 C                    -4.94796  -3.16019  -0.09602 
 C                    -4.89003  -1.65936   0.14269 
 C                    -3.47827  -1.14095   0.42054 
 C                    -2.5338   -1.28439  -0.77748 
 N                    -1.22975  -0.67465  -0.50748 
 C                    -0.28646  -1.41403   0.1761 
 O                    -0.43951  -2.61365   0.39395 
 N                     0.82487  -0.72497   0.59243 
 C                     1.82642  -1.46865   1.34848 
 F                     2.5527   -0.58966   2.0981 
 F                     1.18666  -2.22242   2.28787 
 C                     2.77632  -2.35057   0.49776 
 F                     2.05023  -3.32974  -0.11687 
 O                     3.32683  -1.56772  -0.56825 
 C                     4.3801   -2.20777  -1.23928 
 F                     5.49456  -2.12966  -0.4958 
 F                     4.59032  -1.57135  -2.40604 
 F                     4.0803   -3.49013  -1.49542 
 C                     3.75793  -2.97582   1.4991 
 F                     4.56197  -3.88873   0.90176 
 F                     3.13835  -3.62578   2.50798 
 F                     4.57088  -2.04918   2.05382 
 C                     1.19681   0.46479   0.01599 
 O                     2.324     0.93017   0.15987 
 N                     0.24543   1.11162  -0.73483 
 C                     0.5589    2.43968  -1.2412 
 F                     1.77366   2.34727  -1.87797 
 F                    -0.281     2.77069  -2.26737 
 C                     0.62869   3.62656  -0.242 
 F                     1.51417   3.32953   0.75426 
 O                     1.18422   4.74933  -0.94827 
 C                     1.17105   5.93913  -0.20687 
 F                     2.0462    6.79949  -0.75879 
 F                     1.51658   5.72701   1.072 
 F                    -0.05785   6.47865  -0.26967 
 C                    -0.76112   3.82313   0.36656 
 F                    -1.68534   4.15817  -0.55419 
 F                    -1.18167   2.7049    1.0057 
 F                    -0.76581   4.80038   1.30406 
 C                    -1.04124   0.64981  -0.8394 
 O                    -1.97335   1.37278  -1.1831 
 H                    -4.42837  -3.44051  -1.01688 
 H                    -4.49726  -3.7085    0.73721 
 H                    -5.98903  -3.4851   -0.19169 
 H                    -5.52401  -1.41919   1.00456 
 H                    -5.3171   -1.13548  -0.72031 
 H                    -3.54906  -0.08252   0.70109 
 H                    -3.05895  -1.66021   1.29114 
 H                    -2.97684  -0.81037  -1.66134 
 H                    -2.38434  -2.34183  -1.02065 
 
 NAtoms=     50 NQM=       50 NQMF=       0 NMMI=      0 NMMIF=      0
                NMic=       0 NMicF=      0.
                    Isotopes and Nuclear Properties:
 (Nuclear quadrupole moments (NQMom) in fm**2, nuclear magnetic moments (NMagM)
  in nuclear magnetons)

  Atom         1           2           3           4           5           6           7           8           9          10
 IAtWgt=          12          12          12          12          14          12          16          14          12          19
 AtmWgt=  12.0000000  12.0000000  12.0000000  12.0000000  14.0030740  12.0000000  15.9949146  14.0030740  12.0000000  18.9984033
 NucSpn=           0           0           0           0           2           0           0           2           0           1
 AtZEff=   0.0000000   0.0000000   0.0000000   0.0000000   0.0000000   0.0000000   0.0000000   0.0000000   0.0000000   0.0000000
 NQMom=    0.0000000   0.0000000   0.0000000   0.0000000   2.0440000   0.0000000   0.0000000   2.0440000   0.0000000   0.0000000
 NMagM=    0.0000000   0.0000000   0.0000000   0.0000000   0.4037610   0.0000000   0.0000000   0.4037610   0.0000000   2.6288670
 AtZNuc=   6.0000000   6.0000000   6.0000000   6.0000000   7.0000000   6.0000000   8.0000000   7.0000000   6.0000000   9.0000000

  Atom        11          12          13          14          15          16          17          18          19          20
 IAtWgt=          19          12          19          16          12          19          19          19          12          19
 AtmWgt=  18.9984033  12.0000000  18.9984033  15.9949146  12.0000000  18.9984033  18.9984033  18.9984033  12.0000000  18.9984033
 NucSpn=           1           0           1           0           0           1           1           1           0           1
 AtZEff=   0.0000000   0.0000000   0.0000000   0.0000000   0.0000000   0.0000000   0.0000000   0.0000000   0.0000000   0.0000000
 NQMom=    0.0000000   0.0000000   0.0000000   0.0000000   0.0000000   0.0000000   0.0000000   0.0000000   0.0000000   0.0000000
 NMagM=    2.6288670   0.0000000   2.6288670   0.0000000   0.0000000   2.6288670   2.6288670   2.6288670   0.0000000   2.6288670
 AtZNuc=   9.0000000   6.0000000   9.0000000   8.0000000   6.0000000   9.0000000   9.0000000   9.0000000   6.0000000   9.0000000

  Atom        21          22          23          24          25          26          27          28          29          30
 IAtWgt=          19          19          12          16          14          12          19          19          12          19
 AtmWgt=  18.9984033  18.9984033  12.0000000  15.9949146  14.0030740  12.0000000  18.9984033  18.9984033  12.0000000  18.9984033
 NucSpn=           1           1           0           0           2           0           1           1           0           1
 AtZEff=   0.0000000   0.0000000   0.0000000   0.0000000   0.0000000   0.0000000   0.0000000   0.0000000   0.0000000   0.0000000
 NQMom=    0.0000000   0.0000000   0.0000000   0.0000000   2.0440000   0.0000000   0.0000000   0.0000000   0.0000000   0.0000000
 NMagM=    2.6288670   2.6288670   0.0000000   0.0000000   0.4037610   0.0000000   2.6288670   2.6288670   0.0000000   2.6288670
 AtZNuc=   9.0000000   9.0000000   6.0000000   8.0000000   7.0000000   6.0000000   9.0000000   9.0000000   6.0000000   9.0000000

  Atom        31          32          33          34          35          36          37          38          39          40
 IAtWgt=          16          12          19          19          19          12          19          19          19          12
 AtmWgt=  15.9949146  12.0000000  18.9984033  18.9984033  18.9984033  12.0000000  18.9984033  18.9984033  18.9984033  12.0000000
 NucSpn=           0           0           1           1           1           0           1           1           1           0
 AtZEff=   0.0000000   0.0000000   0.0000000   0.0000000   0.0000000   0.0000000   0.0000000   0.0000000   0.0000000   0.0000000
 NQMom=    0.0000000   0.0000000   0.0000000   0.0000000   0.0000000   0.0000000   0.0000000   0.0000000   0.0000000   0.0000000
 NMagM=    0.0000000   0.0000000   2.6288670   2.6288670   2.6288670   0.0000000   2.6288670   2.6288670   2.6288670   0.0000000
 AtZNuc=   8.0000000   6.0000000   9.0000000   9.0000000   9.0000000   6.0000000   9.0000000   9.0000000   9.0000000   6.0000000

  Atom        41          42          43          44          45          46          47          48          49          50
 IAtWgt=          16           1           1           1           1           1           1           1           1           1
 AtmWgt=  15.9949146   1.0078250   1.0078250   1.0078250   1.0078250   1.0078250   1.0078250   1.0078250   1.0078250   1.0078250
 NucSpn=           0           1           1           1           1           1           1           1           1           1
 AtZEff=   0.0000000   0.0000000   0.0000000   0.0000000   0.0000000   0.0000000   0.0000000   0.0000000   0.0000000   0.0000000
 NQMom=    0.0000000   0.0000000   0.0000000   0.0000000   0.0000000   0.0000000   0.0000000   0.0000000   0.0000000   0.0000000
 NMagM=    0.0000000   2.7928460   2.7928460   2.7928460   2.7928460   2.7928460   2.7928460   2.7928460   2.7928460   2.7928460
 AtZNuc=   8.0000000   1.0000000   1.0000000   1.0000000   1.0000000   1.0000000   1.0000000   1.0000000   1.0000000   1.0000000
 Leave Link  101 at Sun Mar  3 17:27:54 2024, MaxMem=  5368709120 cpu:         0.8
 (Enter /home/k0335/k033513/app/g09/l202.exe)
                          Input orientation:                          
 ---------------------------------------------------------------------
 Center     Atomic      Atomic             Coordinates (Angstroms)
 Number     Number       Type             X           Y           Z
 ---------------------------------------------------------------------
      1          6           0       -4.947961   -3.160195   -0.096023
      2          6           0       -4.890032   -1.659356    0.142685
      3          6           0       -3.478270   -1.140946    0.420541
      4          6           0       -2.533800   -1.284389   -0.777483
      5          7           0       -1.229753   -0.674648   -0.507480
      6          6           0       -0.286458   -1.414033    0.176097
      7          8           0       -0.439511   -2.613651    0.393948
      8          7           0        0.824868   -0.724974    0.592433
      9          6           0        1.826415   -1.468647    1.348481
     10          9           0        2.552698   -0.589662    2.098100
     11          9           0        1.186662   -2.222419    2.287873
     12          6           0        2.776322   -2.350570    0.497760
     13          9           0        2.050229   -3.329738   -0.116867
     14          8           0        3.326827   -1.567718   -0.568248
     15          6           0        4.380096   -2.207769   -1.239281
     16          9           0        5.494559   -2.129662   -0.495799
     17          9           0        4.590322   -1.571352   -2.406041
     18          9           0        4.080297   -3.490131   -1.495419
     19          6           0        3.757925   -2.975821    1.499096
     20          9           0        4.561968   -3.888726    0.901758
     21          9           0        3.138347   -3.625777    2.507983
     22          9           0        4.570879   -2.049184    2.053815
     23          6           0        1.196810    0.464786    0.015985
     24          8           0        2.323996    0.930171    0.159871
     25          7           0        0.245425    1.111618   -0.734825
     26          6           0        0.558898    2.439684   -1.241201
     27          9           0        1.773661    2.347273   -1.877974
     28          9           0       -0.281000    2.770689   -2.267370
     29          6           0        0.628692    3.626557   -0.242000
     30          9           0        1.514165    3.329530    0.754264
     31          8           0        1.184215    4.749329   -0.948267
     32          6           0        1.171048    5.939128   -0.206868
     33          9           0        2.046200    6.799485   -0.758791
     34          9           0        1.516576    5.727012    1.071996
     35          9           0       -0.057849    6.478645   -0.269666
     36          6           0       -0.761115    3.823126    0.366560
     37          9           0       -1.685339    4.158168   -0.554194
     38          9           0       -1.181672    2.704902    1.005700
     39          9           0       -0.765806    4.800377    1.304064
     40          6           0       -1.041239    0.649812   -0.839399
     41          8           0       -1.973348    1.372784   -1.183095
     42          1           0       -4.428368   -3.440509   -1.016877
     43          1           0       -4.497258   -3.708504    0.737214
     44          1           0       -5.989027   -3.485095   -0.191689
     45          1           0       -5.524007   -1.419193    1.004558
     46          1           0       -5.317102   -1.135476   -0.720308
     47          1           0       -3.549058   -0.082515    0.701094
     48          1           0       -3.058946   -1.660212    1.291135
     49          1           0       -2.976844   -0.810371   -1.661339
     50          1           0       -2.384342   -2.341830   -1.020651
 ---------------------------------------------------------------------
                    Distance matrix (angstroms):
                    1          2          3          4          5
     1  C    0.000000
     2  C    1.520807   0.000000
     3  C    2.550333   1.529387   0.000000
     4  C    3.132285   2.557174   1.532273   0.000000
     5  N    4.491360   3.845778   2.476789   1.464658   0.000000
     6  C    4.985252   4.610227   3.212786   2.444723   1.379773
     7  O    4.567812   4.558613   3.376925   2.743216   2.279646
     8  N    6.303160   5.808220   4.326613   3.670186   2.331053
     9  C    7.130224   6.826491   5.395196   4.854395   3.662675
    10  F    8.226889   7.769306   6.284162   5.884223   4.593823
    11  F    6.648006   6.468777   5.139854   4.911023   4.006077
    12  C    7.789263   7.705637   6.370956   5.564205   4.457338
    13  F    7.000274   7.143162   5.970253   5.062923   4.237967
    14  O    8.439852   8.248066   6.889788   5.871201   4.643672
    15  C    9.445994   9.388603   8.102286   6.990554   5.861433
    16  F   10.500859  10.414825   9.073527   8.077647   6.879940
    17  F    9.941803   9.817375   8.560198   7.313526   6.187236
    18  F    9.142024   9.300641   8.143802   7.009066   6.090944
    19  C    8.852731   8.852124   7.542716   6.901417   5.847963
    20  F    9.589842   9.740975   8.510423   7.742890   6.772022
    21  F    8.507996   8.597460   7.369628   6.960577   6.073095
    22  F    9.821632   9.659877   8.263249   7.686197   6.488213
    23  C    7.135212   6.448076   4.959679   4.196029   2.731398
    24  O    8.347331   7.664734   6.166341   5.420433   3.956000
    25  N    6.754829   5.900952   4.502757   3.669709   2.327785
    26  C    7.936975   6.957594   5.646328   4.862976   3.665608
    27  F    8.870612   8.033738   6.710710   5.740581   4.475573
    28  F    7.853067   6.832045   5.722612   4.872220   3.983427
    29  C    8.785236   7.651482   6.327336   5.865619   4.693044
    30  F    9.197749   8.141053   6.709764   6.326177   5.015429
    31  O   10.044425   8.897072   7.635951   7.089327   5.953240
    32  C   10.965958   9.726039   8.493365   8.138225   7.042460
    33  F   12.188223  10.976154   9.744795   9.291166   8.164416
    34  F   11.051559   9.821745   8.517143   8.305773   7.142711
    35  F   10.809745   9.473494   8.380563   8.164123   7.252552
    36  C    8.155393   6.867000   5.659316   5.526116   4.605816
    37  F    8.025775   6.678269   5.678496   5.512819   4.854467
    38  F    7.056776   5.791673   4.517446   4.574105   3.703159
    39  F    9.100625   7.751528   6.590705   6.669559   5.785571
    40  C    5.507380   4.594557   3.276184   2.443912   1.378369
    41  O    5.529733   4.411192   3.339952   2.745760   2.280651
    42  H    1.093858   2.174908   2.873473   2.880200   4.259180
    43  H    1.094559   2.169503   2.780463   3.467825   4.629269
    44  H    1.094774   2.157063   3.489092   4.138219   5.536156
    45  H    2.138737   1.096553   2.145585   3.483559   4.613158
    46  H    2.150694   1.096173   2.163994   2.787869   4.118747
    47  H    3.473390   2.143935   1.097268   2.159037   2.681501
    48  H    2.782541   2.161438   1.096998   2.167072   2.748145
    49  H    3.443427   2.763253   2.166779   1.096441   2.098127
    50  H    2.845488   2.845629   2.171597   1.095285   2.091869
                    6          7          8          9         10
     6  C    0.000000
     7  O    1.228807   0.000000
     8  N    1.372291   2.281480   0.000000
     9  C    2.416961   2.712303   1.458682   0.000000
    10  F    3.526257   3.994243   2.295809   1.364562   0.000000
    11  F    2.698735   2.526748   2.290798   1.363786   2.137279
    12  C    3.218880   3.228246   2.541594   1.550431   2.389957
    13  F    3.035763   2.640553   2.964694   2.379285   3.559013
    14  O    3.692357   4.025556   2.883955   2.436165   2.943685
    15  C    4.940652   5.104977   4.265384   3.710000   4.134703
    16  F    5.863764   6.019891   4.996340   4.158556   4.213604
    17  F    5.520432   5.850260   4.887315   4.663278   5.040130
    18  F    5.115926   4.976604   4.754265   4.153811   4.864119
    19  C    4.532829   4.355570   3.806727   2.454585   2.739550
    20  F    5.491623   5.186374   4.906213   3.679619   4.043788
    21  F    4.696679   4.277220   4.175665   2.778276   3.119132
    22  F    5.246233   5.308276   4.233411   2.892508   2.491028
    23  C    2.399100   3.506733   1.373376   2.431072   2.699166
    24  O    3.508565   4.500049   2.274643   2.722996   2.473647
    25  N    2.737077   3.952328   2.338897   3.673889   4.030301
    26  C    4.192195   5.404325   3.667153   4.856759   4.929818
    27  F    4.755073   5.888168   4.054851   4.997403   5.004163
    28  F    4.845870   6.008232   4.649847   5.957142   6.195089
    29  C    5.140025   6.362836   4.435153   5.470400   5.191760
    30  F    5.106654   6.266425   4.115862   4.844904   4.271359
    31  O    6.435379   7.658427   5.698323   6.659632   6.297454
    32  C    7.505995   8.723813   6.720787   7.597615   7.060236
    33  F    8.589365   9.803810   7.741766   8.535274   7.938379
    34  F    7.419440   8.593758   6.506655   7.207632   6.482809
    35  F    7.908561   9.124467   7.308525   8.326362   7.898243
    36  C    5.262073   6.444864   4.821989   5.971796   5.783795
    37  F    5.791340   6.950438   5.609008   6.900263   6.894745
    38  F    4.295960   5.404817   3.995127   5.156025   5.098334
    39  F    6.334112   7.476804   5.793632   6.783970   6.379301
    40  C    2.420823   3.540256   2.724433   4.183076   4.804329
    41  O    3.529780   4.553173   3.922130   5.377807   5.924739
    42  H    4.762899   4.311044   6.128662   6.971762   8.158780
    43  H    4.828073   4.216853   6.103068   6.736427   7.828222
    44  H    6.078146   5.647965   7.393394   8.217014   9.305253
    45  H    5.302669   5.258486   6.400000   7.358630   8.192504
    46  H    5.117472   5.217036   6.294092   7.444510   8.377057
    47  H    3.562741   4.021228   4.422193   5.588934   6.280147
    48  H    2.998434   2.928384   4.055474   4.889452   5.769560
    49  H    3.313421   3.730158   4.420384   5.706456   6.690137
    50  H    2.587302   2.420195   3.938946   4.909757   6.096808
                   11         12         13         14         15
    11  F    0.000000
    12  C    2.397487   0.000000
    13  F    2.784722   1.365191   0.000000
    14  O    3.628549   1.432580   2.222198   0.000000
    15  C    4.758051   2.368500   2.819026   1.403327   0.000000
    16  F    5.129855   2.902546   3.667040   2.240556   1.341974
    17  F    5.834520   3.511387   3.845037   2.230228   1.345567
    18  F    4.928845   2.640400   2.459127   2.263412   1.341618
    19  C    2.793059   1.535304   2.377566   2.538210   2.911307
    20  F    4.011307   2.391165   2.767471   3.012237   2.728139
    21  F    2.413905   2.407948   2.856830   3.705986   4.194601
    22  F    3.396722   2.394280   3.564457   2.941885   3.302428
    23  C    3.518899   3.263923   3.891579   3.001562   4.341837
    24  O    3.969980   3.328968   4.277658   2.788418   4.003978
    25  N    4.597655   4.462225   4.833718   4.086762   5.326191
    26  C    5.880787   5.557651   6.064192   4.916662   6.016675
    27  F    6.211355   5.359027   5.950331   4.410767   5.286761
    28  F    6.916314   6.574227   6.875646   5.892810   6.896943
    29  C    6.397039   6.394185   7.101159   5.862326   7.007636
    30  F    5.769173   5.824291   6.737365   5.386819   6.545950
    31  O    7.686214   7.418515   8.167774   6.681338   7.661564
    32  C    8.534332   8.473045   9.310904   7.818613   8.816791
    33  F    9.561157   9.264745  10.149544   8.466782   9.317111
    34  F    8.048643   8.195367   9.150022   7.692886   8.746571
    35  F    9.154143   9.304650  10.033530   8.734365   9.802515
    36  C    6.635804   7.116544   7.700703   6.829812   8.085943
    37  F    7.552326   7.960948   8.379407   7.609716   8.819524
    38  F    5.615289   6.440615   6.937018   6.407742   7.752905
    39  F    7.355248   8.020776   8.720543   7.797938   9.058864
    40  C    4.795110   5.036274   5.090780   4.906217   6.141380
    41  O    5.912594   6.264823   6.280106   6.092327   7.293132
    42  H    6.628248   7.442422   6.541751   7.990724   8.897087
    43  H    6.076178   7.403127   6.613812   8.216051   9.217709
    44  H    7.696304   8.865316   8.041105   9.518575  10.499892
    45  H    6.879328   8.367782   7.891567   8.990720  10.185672
    46  H    7.247727   8.274277   7.710804   8.656065   9.770097
    47  H    5.433608   6.722786   6.524227   7.148066   8.435238
    48  H    4.397130   5.929282   5.556389   6.651613   7.876685
    49  H    5.909732   6.335049   5.831301   6.442413   7.500361
    50  H    4.869565   5.379415   4.632300   5.781122   6.769298
                   16         17         18         19         20
    16  F    0.000000
    17  F    2.185950   0.000000
    18  F    2.202329   2.184278   0.000000
    19  C    2.776957   4.232672   3.055415   0.000000
    20  F    2.432529   4.038881   2.477366   1.355247   0.000000
    21  F    4.100342   5.520555   4.114960   1.350619   2.162359
    22  F    2.712968   4.485423   3.861873   1.351763   2.170537
    23  C    5.046160   4.639827   5.122520   4.538359   5.573325
    24  O    4.454767   4.240018   5.036234   4.371092   5.364763
    25  N    6.173851   5.373027   6.038281   5.833971   6.805467
    26  C    6.767222   5.804967   6.901274   6.860809   7.788814
    27  F    5.983179   4.854694   6.288259   6.608875   7.374907
    28  F    7.778752   6.527046   7.669073   7.970041   8.823011
    29  C    7.541560   6.884464   8.008239   7.510986   8.559107
    30  F    6.870878   6.593096   7.625869   6.733995   7.836713
    31  O    8.130456   7.326505   8.750735   8.502441   9.457685
    32  C    9.158690   8.540205   9.951634   9.438144  10.455339
    33  F    9.575490   8.902635  10.514579  10.177655  11.105150
    34  F    8.944812   8.649322   9.905555   8.996964  10.087904
    35  F   10.246137   9.537927  10.862929  10.347733  11.410404
    36  C    8.678295   8.088608   8.966045   8.241968   9.385857
    37  F    9.544168   8.697164   9.624185   9.205375  10.290828
    38  F    8.378518   7.952499   8.504255   7.544115   8.745063
    39  F    9.510895   9.113282  10.002717   8.998413  10.200369
    40  C    7.110569   6.253192   6.618128   6.453352   7.417943
    41  O    8.277025   7.296938   7.771236   7.678021   8.645256
    42  H   10.022690   9.314521   8.522256   8.576797   9.203706
    43  H   10.190656   9.850461   8.866047   8.322580   9.062512
    44  H   11.567300  10.976720  10.153375   9.905614  10.615180
    45  H   11.142919  10.674970  10.138112   9.424538  10.384414
    46  H   10.859596  10.059261   9.718863   9.522013  10.383039
    47  H    9.349351   8.838576   8.639651   7.899369   8.961933
    48  H    8.750769   8.496370   7.879231   6.945776   7.949605
    49  H    8.652380   7.641706   7.550621   7.748202   8.536945
    50  H    7.899213   7.152544   6.582975   6.669221   7.371551
                   21         22         23         24         25
    21  F    0.000000
    22  F    2.178087   0.000000
    23  C    5.168397   4.675162   0.000000
    24  O    5.189746   4.184742   1.227939   0.000000
    25  N    6.428663   6.039597   1.373769   2.270212   0.000000
    26  C    7.582859   6.863167   2.426452   2.712416   1.455487
    27  F    7.535006   6.527804   2.731958   2.542412   2.273574
    28  F    8.683934   8.089780   3.565785   4.008118   2.319124
    29  C    8.152124   7.281871   3.222749   3.210304   2.591272
    30  F    7.354576   6.321621   2.975320   2.601164   2.957401
    31  O    9.268587   8.167115   4.391725   4.136791   3.762954
    32  C   10.135487   8.971213   5.478937   5.153003   4.943720
    33  F   10.979558   9.622042   6.438179   5.947265   5.966171
    34  F    9.600357   8.412013   5.376656   4.949099   5.116863
    35  F   10.955836   9.977352   6.149981   6.053367   5.395677
    36  C    8.676269   8.109317   3.903181   4.234362   3.094907
    37  F    9.655810   9.190930   4.719423   5.196597   3.611363
    38  F    7.810052   7.536028   3.413917   4.019304   2.757642
    39  F    9.364395   8.715436   4.930351   5.082770   4.334351
    40  C    6.852340   6.866668   2.403077   3.521640   1.371023
    41  O    8.046061   8.063148   3.508868   4.524006   2.278620
    42  H    8.349499   9.609963   6.925371   8.129084   6.530372
    43  H    7.838682   9.312244   7.096403   8.269228   6.920514
    44  H    9.519295  10.891085   8.202496   9.419369   7.764867
    45  H    9.064528  10.168803   7.049541   8.235542   6.535809
    46  H    9.387123  10.310324   6.747890   7.964169   5.999279
    47  H    7.780806   8.463511   4.826197   5.984248   4.229175
    48  H    6.614424   7.677709   4.924742   6.079959   4.765126
    49  H    7.918669   8.503243   4.675343   5.869003   3.864646
    50  H    6.678314   7.610065   4.666514   5.853894   4.350135
                   26         27         28         29         30
    26  C    0.000000
    27  F    1.374652   0.000000
    28  F    1.366754   2.133669   0.000000
    29  C    1.553043   2.371483   2.379532   0.000000
    30  F    2.384584   2.821497   3.558819   1.365588   0.000000
    31  O    2.410662   2.642286   2.793189   1.438067   2.241274
    32  C    3.700092   4.007139   4.048842   2.375578   2.802054
    33  F    4.631701   4.598809   4.891101   3.513385   3.822693
    34  F    4.132137   4.493445   4.808585   2.631888   2.418446
    35  F    4.199698   4.796803   4.217767   2.933685   3.665595
    36  C    2.498248   3.693395   2.876755   1.529885   2.360265
    37  F    2.908911   4.122671   2.613855   2.394747   3.554649
    38  F    2.854556   4.144571   3.395368   2.384035   2.778654
    39  F    3.715654   4.753102   4.136401   2.390145   2.768382
    40  C    2.434240   3.447270   2.667430   3.465049   4.031221
    41  O    2.748440   3.933518   2.448230   3.568720   4.443530
    42  H    7.713612   8.526727   7.572541   8.724547   9.180635
    43  H    8.202381   9.101432   8.293630   9.002074   9.255886
    44  H    8.892683   9.854917   8.719223   9.714542  10.179972
    45  H    7.545601   8.703517   7.466575   8.054142   8.494050
    46  H    6.897860   7.984275   6.558494   7.632706   8.293181
    47  H    5.197047   6.394279   5.256687   5.665707   6.105826
    48  H    6.025833   7.032587   6.325569   6.625640   6.789632
    49  H    4.820876   5.708322   4.523145   5.890734   6.568339
    50  H    5.619091   6.325479   5.667116   6.730997   7.107250
                   31         32         33         34         35
    31  O    0.000000
    32  C    1.401951   0.000000
    33  F    2.232053   1.345632   0.000000
    34  F    2.268874   1.341595   2.186888   0.000000
    35  F    2.234671   1.343581   2.183851   2.200869   0.000000
    36  C    2.524070   2.922249   4.243365   3.051278   2.819778
    37  F    2.956198   3.383992   4.576330   3.918932   2.848560
    38  F    3.687152   4.179214   5.504380   4.051924   4.138922
    39  F    2.979628   2.707595   4.019848   2.474222   2.407159
    40  C    4.665891   5.768117   6.881661   5.997817   5.938598
    41  O    4.628866   5.629542   6.766527   6.018663   5.529313
    42  H    9.928708  10.953865  12.117925  11.124261  10.865053
    43  H   10.327387  11.229327  12.468869  11.194072  11.157964
    44  H   10.946851  11.835662  13.063654  11.949640  11.595735
    45  H    9.320109  10.021786  11.312122  10.032079   9.689085
    46  H    8.772116   9.612998  10.825124   9.849124   9.264862
    47  H    6.962110   7.704802   8.988888   7.716788   7.495314
    48  H    8.006345   8.825352  10.091144   8.692209   8.813834
    49  H    6.980913   8.054578   9.162722   8.390430   7.974148
    50  H    7.938789   9.048608  10.161787   9.203398   9.152996
                   36         37         38         39         40
    36  C    0.000000
    37  F    1.346934   0.000000
    38  F    1.354914   2.190646   0.000000
    39  F    1.354236   2.170506   2.157077   0.000000
    40  C    3.406278   3.578375   2.765413   4.679475   0.000000
    41  O    3.142470   2.869988   2.681811   4.403693   1.228675
    42  H    8.253668   8.091859   7.238641   9.311999   5.313649
    43  H    8.415557   8.453351   7.224747   9.308389   5.781409
    44  H    9.002933   8.779101   7.928459   9.907995   6.480555
    45  H    7.111546   6.947808   5.988659   7.836659   5.270310
    46  H    6.820999   6.421835   5.901643   7.748982   4.635131
    47  H    4.810257   4.799228   3.669740   5.652672   3.032916
    48  H    6.016798   6.256643   4.760236   6.855499   3.734505
    49  H    5.521877   5.251679   4.763705   6.720327   2.560134
    50  H    6.524255   6.554095   5.569741   7.683429   3.284311
                   41         42         43         44         45
    41  O    0.000000
    42  H    5.405788   0.000000
    43  H    5.989758   1.775782   0.000000
    44  H    6.380247   1.765950   1.771482   0.000000
    45  H    5.018779   3.061428   2.523218   2.432119   0.000000
    46  H    4.205500   2.488168   3.068711   2.500326   1.760246
    47  H    2.854983   3.873078   3.748091   4.281128   2.404001
    48  H    4.061946   3.220511   2.563410   3.756906   2.493340
    49  H    2.449875   3.072439   4.057572   4.288038   3.737072
    50  H    3.740810   2.320593   3.069577   3.871432   3.848406
                   46         47         48         49         50
    46  H    0.000000
    47  H    2.501018   0.000000
    48  H    3.069286   1.754276   0.000000
    49  H    2.543234   2.537379   3.073446   0.000000
    50  H    3.185369   3.070093   2.502808   1.762642   0.000000
 Symmetry turned off by external request.
 Stoichiometry    C15H9F18N3O5(1+,2)
 Framework group  C1[X(C15H9F18N3O5)]
 Deg. of freedom   144
 Full point group                 C1      NOp   1
 Rotational constants (GHZ):      0.1136924      0.0607416      0.0465679
 Leave Link  202 at Sun Mar  3 17:27:54 2024, MaxMem=  5368709120 cpu:         0.1
 (Enter /home/k0335/k033513/app/g09/l301.exe)
 Standard basis: 6-31G(d,p) (6D, 7F)
 Ernie: Thresh=  0.10000D-02 Tol=  0.10000D-05 Strict=F.
   660 basis functions,  1211 primitive gaussians,   660 cartesian basis functions
   161 alpha electrons      160 beta electrons
       nuclear repulsion energy      6261.9440670856 Hartrees.
 IExCor=20419 DFT=T Ex+Corr=CAM-B3LYP ExCW=0 ScaHFX=  1.000000
 ScaDFX=  1.000000  1.000000  1.000000  0.810000 ScalE2=  1.000000  1.000000
 IRadAn=      0 IRanWt=     -1 IRanGd=            0 ICorTp=0 IEmpDi=  4
  HFx wShort=  0.000000 wLong=  0.330000 cFull=  0.190000 cShort=  0.000000 cLong=  0.460000
  DFx wShort=  0.000000 wLong=  0.330000 cFull=  0.190000 cShort=  0.000000 cLong=  0.460000
 NAtoms=   50 NActive=   50 NUniq=   50 SFac= 1.00D+00 NAtFMM=   60 NAOKFM=F Big=F
 Integral buffers will be    131072 words long.
 Raffenetti 2 integral format.
 Two-electron integral symmetry is turned off.
 Using the following non-standard input for PCM:
 eps=4.9
 --- end of non-standard input.
 ------------------------------------------------------------------------------
 Polarizable Continuum Model (PCM)
 =================================
 Model                : PCM (using non-symmetric T matrix).
 Atomic radii         : UFF (Universal Force Field).
 Polarization charges : Total charges.
 Charge compensation  : None.
 Solution method      : On-the-fly selection.
 Cavity type          : Scaled VdW (van der Waals Surface) (Alpha=1.100).
 Cavity algorithm     : GePol (No added spheres)
                        Default sphere list used, NSphG=   50.
                        Lebedev-Laikov grids with approx.  5.0 points / Ang**2.
                        Smoothing algorithm: Karplus/York (Gamma=1.0000).
                        Polarization charges: spherical gaussians, with
                                              point-specific exponents (IZeta= 3).
                        Self-potential: point-specific (ISelfS= 7).
                        Self-field    : sphere-specific E.n sum rule (ISelfD= 2).
 Solvent              : Generic,
                        Eps                           =   4.900000
                        Eps(infinity)                 =   0.000000
                        RSolv                         =   0.000000 Ang.
                        Molar volume                  =   0.000000 cm**3/mol
                        Thermal expansion coefficient =   0.000000 K**-1
                        Absolute temperature          = 298.150000 K
                        Numeral density               =   0.000000 Ang**-3
                        Hydrogen bond acidity         =   0.000000
                        Hydrogen bond basicity        =   0.000000
                        Surface tension at interface  =   0.000000 (cal/mol)*Ang**-2
                        Carbon aromaticity            =   0.000000
                        Electronegative halogenicity  =   0.000000
 ------------------------------------------------------------------------------
 GePol: Number of generator spheres                  =      50
 GePol: Total number of spheres                      =      50
 GePol: Number of exposed spheres                    =      50 (100.00%)
 GePol: Number of points                             =    3962
 GePol: Average weight of points                     =       0.12
 GePol: Minimum weight of points                     =   0.88D-10
 GePol: Maximum weight of points                     =    0.20577
 GePol: Number of points with low weight             =     201
 GePol: Fraction of low-weight points (<1% of avg)   =       5.07%
 GePol: Cavity surface area                          =    494.398 Ang**2
 GePol: Cavity volume                                =    574.647 Ang**3
 Leave Link  301 at Sun Mar  3 17:27:54 2024, MaxMem=  5368709120 cpu:         0.8
 (Enter /home/k0335/k033513/app/g09/l302.exe)
 NPDir=0 NMtPBC=     1 NCelOv=     1 NCel=       1 NClECP=     1 NCelD=      1
         NCelK=      1 NCelE2=     1 NClLst=     1 CellRange=     0.0.
 One-electron integrals computed using PRISM.
 NBasis=   660 RedAO= T EigKep=  1.24D-03  NBF=   660
 NBsUse=   660 1.00D-06 EigRej= -1.00D+00 NBFU=   660
 Precomputing XC quadrature grid using
 IXCGrd= 4 IRadAn=           0 IRanWt=          -1 IRanGd=           0 AccXCQ= 0.00D+00.
 Generated NRdTot=       0 NPtTot=           0 NUsed=           0 NTot=          32
 NSgBfM=   633   633   633   633   637 MxSgAt=    50 MxSgA2=    50.
 Leave Link  302 at Sun Mar  3 17:27:55 2024, MaxMem=  5368709120 cpu:        14.6
 (Enter /home/k0335/k033513/app/g09/l303.exe)
 DipDrv:  MaxL=1.
 Leave Link  303 at Sun Mar  3 17:27:55 2024, MaxMem=  5368709120 cpu:         0.9
 (Enter /home/k0335/k033513/app/g09/l401.exe)
 ExpMin= 1.61D-01 ExpMax= 7.00D+03 ExpMxC= 1.05D+03 IAcc=1 IRadAn=         1 AccDes= 0.00D+00
 Harris functional with IExCor=20419 and IRadAn=       1 diagonalized for initial guess.
 HarFok:  IExCor=20419 AccDes= 0.00D+00 IRadAn=         1 IDoV= 1 UseB2=F ITyADJ=14
 ICtDFT=  3500011 ScaDFX=  1.000000  1.000000  1.000000  1.000000
 FoFCou: FMM=F IPFlag=           0 FMFlag=      100000 FMFlg1=           0
         NFxFlg=           0 DoJE=T BraDBF=F KetDBF=T FulRan=T
         wScrn=  0.000000 ICntrl=     500 IOpCl=  0 I1Cent=   200000004 NGrid=           0
         NMat0=    1 NMatS0=      1 NMatT0=    0 NMatD0=    1 NMtDS0=    0 NMtDT0=    0
 Symmetry not used in FoFCou.
 Harris En= -2825.15884228253    
 JPrj=0 DoOrth=F DoCkMO=F.
 Initial guess <Sx>= 0.0000 <Sy>= 0.0000 <Sz>= 0.5000 <S**2>= 0.7500 S= 0.5000
 Leave Link  401 at Sun Mar  3 17:27:56 2024, MaxMem=  5368709120 cpu:        18.2
 (Enter /home/k0335/k033513/app/g09/l502.exe)
 UHF open shell SCF:
 Using DIIS extrapolation, IDIIS=  1040.
 Two-electron integral symmetry not used.
 IVT=     1345250 IEndB=     1345250 NGot=  5368709120 MDV=  5367816771
 LenX=  5367816771 LenY=  5367380511
 Requested convergence on RMS density matrix=1.00D-08 within 128 cycles.
 Requested convergence on MAX density matrix=1.00D-06.
 Requested convergence on             energy=1.00D-06.
 No special actions if energy rises.
 Fock matrices will be formed incrementally for  20 cycles.

 Cycle   1  Pass 1  IDiag  1:
 FoFJK:  IHMeth= 1 ICntrl=       0 DoSepK=T KAlg= 0 I1Cent=   0 FoldK=F
 IRaf=         1 NMat=   1 IRICut=       1 DoRegI=T DoRafI=F ISym2E= 0.
 FoFCou: FMM=F IPFlag=           0 FMFlag=      100000 FMFlg1=           0
         NFxFlg=           0 DoJE=T BraDBF=F KetDBF=F FulRan=T
         wScrn=  0.000000 ICntrl=     500 IOpCl=  0 I1Cent=           0 NGrid=           0
         NMat0=    1 NMatS0=      1 NMatT0=    0 NMatD0=    1 NMtDS0=    0 NMtDT0=    0
 Symmetry not used in FoFCou.
 Inv3:  Mode=1 IEnd=    47092332.
 Iteration    1 A*A^-1 deviation from unit magnitude is 6.44D-15 for   3941.
 Iteration    1 A*A^-1 deviation from orthogonality  is 3.09D-15 for   3525   3415.
 Iteration    1 A^-1*A deviation from unit magnitude is 6.22D-15 for   3941.
 Iteration    1 A^-1*A deviation from orthogonality  is 1.24D-11 for   3697   3692.
 E= -2912.20867103378    
 DIIS: error= 4.98D-02 at cycle   1 NSaved=   1.
 NSaved= 1 IEnMin= 1 EnMin= -2912.20867103378     IErMin= 1 ErrMin= 4.98D-02
 ErrMax= 4.98D-02  0.00D+00 EMaxC= 1.00D-01 BMatC= 1.04D+01 BMatP= 1.04D+01
 IDIUse=3 WtCom= 5.02D-01 WtEn= 4.98D-01
 Coeff-Com:  0.100D+01
 Coeff-En:   0.100D+01
 Coeff:      0.100D+01
 Gap=     0.515 Goal=   None    Shift=    0.000
 Gap=     0.044 Goal=   None    Shift=    0.000
 GapD=    0.044 DampG=0.250 DampE=0.500 DampFc=0.2500 IDamp=-1.
 Damping current iteration by 2.50D-01
 RMSDP=3.23D-03 MaxDP=1.67D-01              OVMax= 5.43D-01

 Cycle   2  Pass 1  IDiag  1:
 RMSU=  8.06D-04    CP:  1.00D+00
 E= -2912.58847758009     Delta-E=       -0.379806546309 Rises=F Damp=T
 DIIS: error= 3.72D-02 at cycle   2 NSaved=   2.
 NSaved= 2 IEnMin= 2 EnMin= -2912.58847758009     IErMin= 2 ErrMin= 3.72D-02
 ErrMax= 3.72D-02  0.00D+00 EMaxC= 1.00D-01 BMatC= 4.26D+00 BMatP= 1.04D+01
 IDIUse=3 WtCom= 6.28D-01 WtEn= 3.72D-01
 Coeff-Com: -0.144D+01 0.244D+01
 Coeff-En:   0.000D+00 0.100D+01
 Coeff:     -0.901D+00 0.190D+01
 Gap=     0.503 Goal=   None    Shift=    0.000
 Gap=     0.061 Goal=   None    Shift=    0.000
 RMSDP=1.62D-03 MaxDP=7.39D-02 DE=-3.80D-01 OVMax= 8.60D-01

 Cycle   3  Pass 1  IDiag  1:
 RMSU=  1.17D-03    CP:  1.00D+00  2.39D+00
 E= -2913.22181051385     Delta-E=       -0.633332933756 Rises=F Damp=F
 DIIS: error= 7.18D-03 at cycle   3 NSaved=   3.
 NSaved= 3 IEnMin= 3 EnMin= -2913.22181051385     IErMin= 3 ErrMin= 7.18D-03
 ErrMax= 7.18D-03  0.00D+00 EMaxC= 1.00D-01 BMatC= 5.55D-01 BMatP= 4.26D+00
 IDIUse=3 WtCom= 9.28D-01 WtEn= 7.18D-02
 Coeff-Com: -0.605D+00 0.101D+01 0.597D+00
 Coeff-En:   0.000D+00 0.000D+00 0.100D+01
 Coeff:     -0.561D+00 0.935D+00 0.626D+00
 Gap=     0.381 Goal=   None    Shift=    0.000
 Gap=     0.028 Goal=   None    Shift=    0.000
 RMSDP=6.88D-04 MaxDP=6.61D-02 DE=-6.33D-01 OVMax= 1.10D-01

 Cycle   4  Pass 1  IDiag  1:
 RMSU=  5.93D-04    CP:  1.00D+00  2.52D+00  7.17D-01
 E= -2913.32160543208     Delta-E=       -0.099794918235 Rises=F Damp=F
 DIIS: error= 3.72D-03 at cycle   4 NSaved=   4.
 NSaved= 4 IEnMin= 4 EnMin= -2913.32160543208     IErMin= 4 ErrMin= 3.72D-03
 ErrMax= 3.72D-03  0.00D+00 EMaxC= 1.00D-01 BMatC= 1.24D-01 BMatP= 5.55D-01
 IDIUse=3 WtCom= 9.63D-01 WtEn= 3.72D-02
 Coeff-Com: -0.135D+00 0.208D+00 0.318D+00 0.609D+00
 Coeff-En:   0.000D+00 0.000D+00 0.103D+00 0.897D+00
 Coeff:     -0.130D+00 0.200D+00 0.310D+00 0.620D+00
 Gap=     0.363 Goal=   None    Shift=    0.000
 Gap=     0.083 Goal=   None    Shift=    0.000
 RMSDP=3.45D-04 MaxDP=4.10D-02 DE=-9.98D-02 OVMax= 9.19D-02

 Cycle   5  Pass 1  IDiag  1:
 RMSU=  2.94D-04    CP:  1.00D+00  2.54D+00  8.17D-01  7.76D-01
 E= -2913.34693830534     Delta-E=       -0.025332873256 Rises=F Damp=F
 DIIS: error= 1.96D-03 at cycle   5 NSaved=   5.
 NSaved= 5 IEnMin= 5 EnMin= -2913.34693830534     IErMin= 5 ErrMin= 1.96D-03
 ErrMax= 1.96D-03  0.00D+00 EMaxC= 1.00D-01 BMatC= 2.41D-02 BMatP= 1.24D-01
 IDIUse=3 WtCom= 9.80D-01 WtEn= 1.96D-02
 Coeff-Com: -0.330D-01 0.463D-01 0.124D+00 0.371D+00 0.491D+00
 Coeff-En:   0.000D+00 0.000D+00 0.000D+00 0.000D+00 0.100D+01
 Coeff:     -0.323D-01 0.454D-01 0.122D+00 0.364D+00 0.501D+00
 Gap=     0.357 Goal=   None    Shift=    0.000
 Gap=     0.104 Goal=   None    Shift=    0.000
 RMSDP=1.24D-04 MaxDP=1.19D-02 DE=-2.53D-02 OVMax= 3.73D-02

 Cycle   6  Pass 1  IDiag  1:
 RMSU=  1.12D-04    CP:  1.00D+00  2.58D+00  8.05D-01  8.45D-01  1.05D+00
 E= -2913.35396818157     Delta-E=       -0.007029876228 Rises=F Damp=F
 DIIS: error= 6.96D-04 at cycle   6 NSaved=   6.
 NSaved= 6 IEnMin= 6 EnMin= -2913.35396818157     IErMin= 6 ErrMin= 6.96D-04
 ErrMax= 6.96D-04  0.00D+00 EMaxC= 1.00D-01 BMatC= 1.73D-03 BMatP= 2.41D-02
 IDIUse=3 WtCom= 9.93D-01 WtEn= 6.96D-03
 Coeff-Com:  0.292D-01-0.404D-01-0.176D-01-0.236D-01-0.489D-01 0.110D+01
 Coeff-En:   0.000D+00 0.000D+00 0.000D+00 0.000D+00 0.000D+00 0.100D+01
 Coeff:      0.290D-01-0.401D-01-0.175D-01-0.234D-01-0.486D-01 0.110D+01
 Gap=     0.361 Goal=   None    Shift=    0.000
 Gap=     0.107 Goal=   None    Shift=    0.000
 RMSDP=1.75D-04 MaxDP=1.59D-02 DE=-7.03D-03 OVMax= 1.11D-01

 Cycle   7  Pass 1  IDiag  1:
 RMSU=  7.86D-05    CP:  1.00D+00  2.60D+00  7.84D-01  8.66D-01  1.46D+00
                    CP:  1.86D+00
 E= -2913.35844775305     Delta-E=       -0.004479571482 Rises=F Damp=F
 DIIS: error= 5.28D-04 at cycle   7 NSaved=   7.
 NSaved= 7 IEnMin= 7 EnMin= -2913.35844775305     IErMin= 7 ErrMin= 5.28D-04
 ErrMax= 5.28D-04  0.00D+00 EMaxC= 1.00D-01 BMatC= 2.64D-03 BMatP= 1.73D-03
 IDIUse=3 WtCom= 9.93D-01 WtEn= 6.96D-03
 Coeff-Com:  0.301D-01-0.398D-01-0.309D-01-0.978D-01-0.190D+00 0.875D+00
 Coeff-Com:  0.453D+00
 Coeff-En:   0.000D+00 0.000D+00 0.000D+00 0.000D+00 0.000D+00 0.000D+00
 Coeff-En:   0.100D+01
 Coeff:      0.299D-01-0.395D-01-0.307D-01-0.971D-01-0.189D+00 0.869D+00
 Coeff:      0.457D+00
 Gap=     0.363 Goal=   None    Shift=    0.000
 Gap=     0.114 Goal=   None    Shift=    0.000
 RMSDP=8.30D-05 MaxDP=7.49D-03 DE=-4.48D-03 OVMax= 4.52D-02

 Cycle   8  Pass 1  IDiag  1:
 RMSU=  2.96D-05    CP:  1.00D+00  2.60D+00  7.71D-01  8.58D-01  1.61D+00
                    CP:  2.33D+00  1.40D+00
 E= -2913.36051528397     Delta-E=       -0.002067530922 Rises=F Damp=F
 DIIS: error= 4.93D-04 at cycle   8 NSaved=   8.
 NSaved= 8 IEnMin= 8 EnMin= -2913.36051528397     IErMin= 8 ErrMin= 4.93D-04
 ErrMax= 4.93D-04  0.00D+00 EMaxC= 1.00D-01 BMatC= 9.16D-04 BMatP= 1.73D-03
 IDIUse=3 WtCom= 9.95D-01 WtEn= 4.93D-03
 Coeff-Com: -0.156D-02 0.318D-02 0.258D-01 0.313D-01-0.339D-02-0.712D-01
 Coeff-Com: -0.637D+00 0.165D+01
 Coeff-En:   0.000D+00 0.000D+00 0.000D+00 0.000D+00 0.000D+00 0.000D+00
 Coeff-En:   0.000D+00 0.100D+01
 Coeff:     -0.155D-02 0.317D-02 0.256D-01 0.311D-01-0.338D-02-0.709D-01
 Coeff:     -0.634D+00 0.165D+01
 Gap=     0.360 Goal=   None    Shift=    0.000
 Gap=     0.118 Goal=   None    Shift=    0.000
 RMSDP=1.41D-04 MaxDP=1.46D-02 DE=-2.07D-03 OVMax= 9.65D-02

 Cycle   9  Pass 1  IDiag  1:
 RMSU=  3.66D-05    CP:  1.00D+00  2.61D+00  7.42D-01  8.14D-01  1.81D+00
                    CP:  2.92D+00  2.48D+00  2.32D+00
 E= -2913.36316227085     Delta-E=       -0.002646986875 Rises=F Damp=F
 DIIS: error= 4.53D-04 at cycle   9 NSaved=   9.
 NSaved= 9 IEnMin= 9 EnMin= -2913.36316227085     IErMin= 9 ErrMin= 4.53D-04
 ErrMax= 4.53D-04  0.00D+00 EMaxC= 1.00D-01 BMatC= 1.27D-03 BMatP= 9.16D-04
 IDIUse=3 WtCom= 9.95D-01 WtEn= 4.93D-03
 Coeff-Com: -0.909D-02 0.126D-01 0.340D-01 0.656D-01 0.783D-01-0.254D+00
 Coeff-Com: -0.103D+01 0.151D+01 0.591D+00
 Coeff-En:   0.000D+00 0.000D+00 0.000D+00 0.000D+00 0.000D+00 0.000D+00
 Coeff-En:   0.000D+00 0.000D+00 0.100D+01
 Coeff:     -0.904D-02 0.125D-01 0.338D-01 0.652D-01 0.779D-01-0.253D+00
 Coeff:     -0.102D+01 0.150D+01 0.593D+00
 Gap=     0.356 Goal=   None    Shift=    0.000
 Gap=     0.124 Goal=   None    Shift=    0.000
 RMSDP=9.07D-05 MaxDP=8.64D-03 DE=-2.65D-03 OVMax= 5.80D-02

 Cycle  10  Pass 1  IDiag  1:
 RMSU=  4.06D-05    CP:  1.00D+00  2.61D+00  7.22D-01  7.83D-01  1.90D+00
                    CP:  3.00D+00  3.00D+00  3.00D+00  1.55D+00
 E= -2913.36469250282     Delta-E=       -0.001530231970 Rises=F Damp=F
 DIIS: error= 3.23D-04 at cycle  10 NSaved=  10.
 NSaved=10 IEnMin=10 EnMin= -2913.36469250282     IErMin=10 ErrMin= 3.23D-04
 ErrMax= 3.23D-04  0.00D+00 EMaxC= 1.00D-01 BMatC= 5.15D-04 BMatP= 9.16D-04
 IDIUse=3 WtCom= 9.97D-01 WtEn= 3.23D-03
 Coeff-Com:  0.504D-02-0.721D-02-0.553D-03 0.688D-02 0.438D-01 0.130D+00
 Coeff-Com: -0.218D+00-0.631D-01-0.708D+00 0.181D+01
 Coeff-En:   0.000D+00 0.000D+00 0.000D+00 0.000D+00 0.000D+00 0.000D+00
 Coeff-En:   0.000D+00 0.000D+00 0.000D+00 0.100D+01
 Coeff:      0.502D-02-0.719D-02-0.551D-03 0.685D-02 0.437D-01 0.129D+00
 Coeff:     -0.218D+00-0.629D-01-0.706D+00 0.181D+01
 Gap=     0.350 Goal=   None    Shift=    0.000
 Gap=     0.129 Goal=   None    Shift=    0.000
 RMSDP=1.16D-04 MaxDP=1.37D-02 DE=-1.53D-03 OVMax= 7.70D-02

 Cycle  11  Pass 1  IDiag  1:
 RMSU=  5.44D-05    CP:  1.00D+00  2.62D+00  6.94D-01  7.37D-01  1.99D+00
                    CP:  3.00D+00  3.00D+00  3.00D+00  2.72D+00  2.97D+00
 E= -2913.36617990842     Delta-E=       -0.001487405601 Rises=F Damp=F
 DIIS: error= 2.31D-04 at cycle  11 NSaved=  11.
 NSaved=11 IEnMin=11 EnMin= -2913.36617990842     IErMin=11 ErrMin= 2.31D-04
 ErrMax= 2.31D-04  0.00D+00 EMaxC= 1.00D-01 BMatC= 2.89D-04 BMatP= 5.15D-04
 IDIUse=3 WtCom= 9.98D-01 WtEn= 2.31D-03
 Coeff-Com:  0.972D-02-0.131D-01-0.107D-01-0.230D-01 0.332D-02 0.235D+00
 Coeff-Com:  0.362D+00-0.622D+00-0.110D+01 0.104D+01 0.112D+01
 Coeff-En:   0.000D+00 0.000D+00 0.000D+00 0.000D+00 0.000D+00 0.000D+00
 Coeff-En:   0.000D+00 0.000D+00 0.000D+00 0.000D+00 0.100D+01
 Coeff:      0.970D-02-0.130D-01-0.107D-01-0.229D-01 0.331D-02 0.234D+00
 Coeff:      0.361D+00-0.621D+00-0.110D+01 0.104D+01 0.112D+01
 Gap=     0.345 Goal=   None    Shift=    0.000
 Gap=     0.132 Goal=   None    Shift=    0.000
 RMSDP=9.88D-05 MaxDP=1.36D-02 DE=-1.49D-03 OVMax= 5.98D-02

 Cycle  12  Pass 1  IDiag  1:
 RMSU=  7.14D-05    CP:  9.99D-01  2.62D+00  6.72D-01  6.90D-01  2.03D+00
                    CP:  3.00D+00  3.00D+00  3.00D+00  3.00D+00  3.00D+00
                    CP:  1.85D+00
 E= -2913.36705681045     Delta-E=       -0.000876902037 Rises=F Damp=F
 DIIS: error= 1.79D-04 at cycle  12 NSaved=  12.
 NSaved=12 IEnMin=12 EnMin= -2913.36705681045     IErMin=12 ErrMin= 1.79D-04
 ErrMax= 1.79D-04  0.00D+00 EMaxC= 1.00D-01 BMatC= 1.15D-04 BMatP= 2.89D-04
 IDIUse=3 WtCom= 9.98D-01 WtEn= 1.79D-03
 Coeff-Com:  0.367D-02-0.461D-02 0.149D-02-0.999D-02-0.565D-02 0.266D-01
 Coeff-Com:  0.177D+00-0.724D-02-0.232D+00-0.470D+00 0.444D+00 0.108D+01
 Coeff-En:   0.000D+00 0.000D+00 0.000D+00 0.000D+00 0.000D+00 0.000D+00
 Coeff-En:   0.000D+00 0.000D+00 0.000D+00 0.000D+00 0.000D+00 0.100D+01
 Coeff:      0.366D-02-0.460D-02 0.149D-02-0.997D-02-0.564D-02 0.265D-01
 Coeff:      0.177D+00-0.722D-02-0.232D+00-0.469D+00 0.444D+00 0.108D+01
 Gap=     0.343 Goal=   None    Shift=    0.000
 Gap=     0.133 Goal=   None    Shift=    0.000
 RMSDP=5.98D-05 MaxDP=8.69D-03 DE=-8.77D-04 OVMax= 3.46D-02

 Cycle  13  Pass 1  IDiag  1:
 RMSU=  1.82D-05    CP:  9.99D-01  2.62D+00  6.60D-01  6.60D-01  2.04D+00
                    CP:  3.00D+00  3.00D+00  3.00D+00  3.00D+00  3.00D+00
                    CP:  2.38D+00  1.61D+00
 E= -2913.36741571545     Delta-E=       -0.000358904994 Rises=F Damp=F
 DIIS: error= 1.02D-04 at cycle  13 NSaved=  13.
 NSaved=13 IEnMin=13 EnMin= -2913.36741571545     IErMin=13 ErrMin= 1.02D-04
 ErrMax= 1.02D-04  0.00D+00 EMaxC= 1.00D-01 BMatC= 6.16D-05 BMatP= 1.15D-04
 IDIUse=3 WtCom= 9.99D-01 WtEn= 1.02D-03
 Coeff-Com: -0.109D-02 0.153D-02 0.725D-02 0.371D-02 0.974D-03-0.954D-01
 Coeff-Com: -0.131D+00 0.430D+00 0.339D+00-0.785D+00-0.372D+00 0.593D+00
 Coeff-Com:  0.101D+01
 Coeff-En:   0.000D+00 0.000D+00 0.000D+00 0.000D+00 0.000D+00 0.000D+00
 Coeff-En:   0.000D+00 0.000D+00 0.000D+00 0.000D+00 0.000D+00 0.000D+00
 Coeff-En:   0.100D+01
 Coeff:     -0.109D-02 0.153D-02 0.724D-02 0.370D-02 0.973D-03-0.953D-01
 Coeff:     -0.131D+00 0.430D+00 0.339D+00-0.784D+00-0.372D+00 0.592D+00
 Coeff:      0.101D+01
 Gap=     0.342 Goal=   None    Shift=    0.000
 Gap=     0.133 Goal=   None    Shift=    0.000
 RMSDP=4.79D-05 MaxDP=7.54D-03 DE=-3.59D-04 OVMax= 2.59D-02

 Cycle  14  Pass 1  IDiag  1:
 RMSU=  1.06D-05    CP:  9.99D-01  2.62D+00  6.51D-01  6.36D-01  2.05D+00
                    CP:  3.00D+00  3.00D+00  3.00D+00  3.00D+00  3.00D+00
                    CP:  2.75D+00  2.08D+00  2.02D+00
 E= -2913.36760988330     Delta-E=       -0.000194167857 Rises=F Damp=F
 DIIS: error= 8.35D-05 at cycle  14 NSaved=  14.
 NSaved=14 IEnMin=14 EnMin= -2913.36760988330     IErMin=14 ErrMin= 8.35D-05
 ErrMax= 8.35D-05  0.00D+00 EMaxC= 1.00D-01 BMatC= 3.19D-05 BMatP= 6.16D-05
 IDIUse=1 WtCom= 1.00D+00 WtEn= 0.00D+00
 Coeff-Com: -0.173D-02 0.226D-02 0.202D-02 0.431D-02 0.131D-01-0.284D-01
 Coeff-Com: -0.125D+00 0.167D+00 0.561D-01-0.950D-02-0.299D+00-0.206D+00
 Coeff-Com:  0.487D+00 0.937D+00
 Coeff:     -0.173D-02 0.226D-02 0.202D-02 0.431D-02 0.131D-01-0.284D-01
 Coeff:     -0.125D+00 0.167D+00 0.561D-01-0.950D-02-0.299D+00-0.206D+00
 Coeff:      0.487D+00 0.937D+00
 Gap=     0.341 Goal=   None    Shift=    0.000
 Gap=     0.134 Goal=   None    Shift=    0.000
 RMSDP=3.63D-05 MaxDP=4.67D-03 DE=-1.94D-04 OVMax= 1.90D-02

 Cycle  15  Pass 1  IDiag  1:
 RMSU=  6.82D-06    CP:  9.99D-01  2.62D+00  6.44D-01  6.18D-01  2.05D+00
                    CP:  3.00D+00  3.00D+00  3.00D+00  3.00D+00  3.00D+00
                    CP:  3.00D+00  2.44D+00  2.77D+00  1.71D+00
 E= -2913.36769778624     Delta-E=       -0.000087902939 Rises=F Damp=F
 DIIS: error= 5.53D-05 at cycle  15 NSaved=  15.
 NSaved=15 IEnMin=15 EnMin= -2913.36769778624     IErMin=15 ErrMin= 5.53D-05
 ErrMax= 5.53D-05  0.00D+00 EMaxC= 1.00D-01 BMatC= 1.11D-05 BMatP= 3.19D-05
 IDIUse=1 WtCom= 1.00D+00 WtEn= 0.00D+00
 Coeff-Com: -0.105D-03 0.102D-03-0.232D-02-0.149D-02 0.932D-02 0.228D-01
 Coeff-Com:  0.124D-01-0.769D-01-0.147D+00 0.337D+00 0.653D-01-0.383D+00
 Coeff-Com: -0.178D+00 0.362D+00 0.980D+00
 Coeff:     -0.105D-03 0.102D-03-0.232D-02-0.149D-02 0.932D-02 0.228D-01
 Coeff:      0.124D-01-0.769D-01-0.147D+00 0.337D+00 0.653D-01-0.383D+00
 Coeff:     -0.178D+00 0.362D+00 0.980D+00
 Gap=     0.341 Goal=   None    Shift=    0.000
 Gap=     0.134 Goal=   None    Shift=    0.000
 RMSDP=1.49D-05 MaxDP=1.48D-03 DE=-8.79D-05 OVMax= 6.65D-03

 Cycle  16  Pass 1  IDiag  1:
 RMSU=  8.01D-06    CP:  9.99D-01  2.62D+00  6.44D-01  6.15D-01  2.05D+00
                    CP:  3.00D+00  3.00D+00  3.00D+00  3.00D+00  3.00D+00
                    CP:  3.00D+00  2.47D+00  3.00D+00  2.48D+00  1.63D+00
 E= -2913.36772943904     Delta-E=       -0.000031652791 Rises=F Damp=F
 DIIS: error= 4.84D-05 at cycle  16 NSaved=  16.
 NSaved=16 IEnMin=16 EnMin= -2913.36772943904     IErMin=16 ErrMin= 4.84D-05
 ErrMax= 4.84D-05  0.00D+00 EMaxC= 1.00D-01 BMatC= 6.94D-06 BMatP= 1.11D-05
 IDIUse=1 WtCom= 1.00D+00 WtEn= 0.00D+00
 Coeff-Com:  0.873D-03-0.118D-02-0.266D-02-0.443D-02-0.188D-02 0.249D-01
 Coeff-Com:  0.671D-01-0.115D+00-0.138D+00 0.167D+00 0.169D+00-0.100D+00
 Coeff-Com: -0.208D+00-0.278D+00 0.484D+00 0.937D+00
 Coeff:      0.873D-03-0.118D-02-0.266D-02-0.443D-02-0.188D-02 0.249D-01
 Coeff:      0.671D-01-0.115D+00-0.138D+00 0.167D+00 0.169D+00-0.100D+00
 Coeff:     -0.208D+00-0.278D+00 0.484D+00 0.937D+00
 Gap=     0.341 Goal=   None    Shift=    0.000
 Gap=     0.135 Goal=   None    Shift=    0.000
 RMSDP=1.75D-05 MaxDP=1.91D-03 DE=-3.17D-05 OVMax= 9.02D-03

 Cycle  17  Pass 1  IDiag  1:
 RMSU=  5.34D-06    CP:  9.99D-01  2.62D+00  6.41D-01  6.08D-01  2.05D+00
                    CP:  3.00D+00  3.00D+00  3.00D+00  3.00D+00  3.00D+00
                    CP:  3.00D+00  2.62D+00  3.00D+00  3.00D+00  2.56D+00
                    CP:  1.96D+00
 E= -2913.36775575497     Delta-E=       -0.000026315938 Rises=F Damp=F
 DIIS: error= 4.29D-05 at cycle  17 NSaved=  17.
 NSaved=17 IEnMin=17 EnMin= -2913.36775575497     IErMin=17 ErrMin= 4.29D-05
 ErrMax= 4.29D-05  0.00D+00 EMaxC= 1.00D-01 BMatC= 5.47D-06 BMatP= 6.94D-06
 IDIUse=1 WtCom= 1.00D+00 WtEn= 0.00D+00
 Coeff-Com:  0.624D-03-0.814D-03-0.580D-04-0.966D-03-0.302D-02 0.512D-02
 Coeff-Com:  0.571D-01-0.423D-01-0.989D-02-0.746D-01 0.119D+00 0.108D+00
 Coeff-Com: -0.606D-01-0.452D+00-0.138D+00 0.653D+00 0.839D+00
 Coeff:      0.624D-03-0.814D-03-0.580D-04-0.966D-03-0.302D-02 0.512D-02
 Coeff:      0.571D-01-0.423D-01-0.989D-02-0.746D-01 0.119D+00 0.108D+00
 Coeff:     -0.606D-01-0.452D+00-0.138D+00 0.653D+00 0.839D+00
 Gap=     0.342 Goal=   None    Shift=    0.000
 Gap=     0.134 Goal=   None    Shift=    0.000
 RMSDP=1.23D-05 MaxDP=1.29D-03 DE=-2.63D-05 OVMax= 6.22D-03

 Cycle  18  Pass 1  IDiag  1:
 RMSU=  6.97D-06    CP:  9.99D-01  2.62D+00  6.41D-01  6.08D-01  2.05D+00
                    CP:  3.00D+00  3.00D+00  3.00D+00  3.00D+00  3.00D+00
                    CP:  3.00D+00  2.61D+00  3.00D+00  3.00D+00  3.00D+00
                    CP:  3.00D+00  1.20D+00
 E= -2913.36777163084     Delta-E=       -0.000015875863 Rises=F Damp=F
 DIIS: error= 3.77D-05 at cycle  18 NSaved=  18.
 NSaved=18 IEnMin=18 EnMin= -2913.36777163084     IErMin=18 ErrMin= 3.77D-05
 ErrMax= 3.77D-05  0.00D+00 EMaxC= 1.00D-01 BMatC= 4.15D-06 BMatP= 5.47D-06
 IDIUse=1 WtCom= 1.00D+00 WtEn= 0.00D+00
 Coeff-Com:  0.635D-04-0.823D-04 0.133D-02 0.108D-02-0.132D-02-0.869D-02
 Coeff-Com: -0.831D-02 0.395D-01 0.505D-01-0.145D+00-0.235D-01 0.143D+00
 Coeff-Com:  0.126D+00-0.170D+00-0.375D+00-0.270D+00 0.641D+00 0.100D+01
 Coeff:      0.635D-04-0.823D-04 0.133D-02 0.108D-02-0.132D-02-0.869D-02
 Coeff:     -0.831D-02 0.395D-01 0.505D-01-0.145D+00-0.235D-01 0.143D+00
 Coeff:      0.126D+00-0.170D+00-0.375D+00-0.270D+00 0.641D+00 0.100D+01
 Gap=     0.341 Goal=   None    Shift=    0.000
 Gap=     0.135 Goal=   None    Shift=    0.000
 RMSDP=1.71D-05 MaxDP=1.86D-03 DE=-1.59D-05 OVMax= 9.37D-03

 Cycle  19  Pass 1  IDiag  1:
 RMSU=  9.93D-06    CP:  9.99D-01  2.62D+00  6.39D-01  6.02D-01  2.05D+00
                    CP:  3.00D+00  3.00D+00  3.00D+00  3.00D+00  3.00D+00
                    CP:  3.00D+00  2.73D+00  3.00D+00  3.00D+00  3.00D+00
                    CP:  3.00D+00  2.28D+00  2.15D+00
 E= -2913.36779024172     Delta-E=       -0.000018610879 Rises=F Damp=F
 DIIS: error= 2.56D-05 at cycle  19 NSaved=  19.
 NSaved=19 IEnMin=19 EnMin= -2913.36779024172     IErMin=19 ErrMin= 2.56D-05
 ErrMax= 2.56D-05  0.00D+00 EMaxC= 1.00D-01 BMatC= 1.51D-06 BMatP= 4.15D-06
 IDIUse=1 WtCom= 1.00D+00 WtEn= 0.00D+00
 Coeff-Com: -0.187D-03 0.260D-03 0.107D-02 0.142D-02 0.400D-02-0.653D-02
 Coeff-Com: -0.331D-01 0.467D-01 0.162D-01-0.251D-01-0.575D-01-0.478D-02
 Coeff-Com:  0.768D-01 0.196D+00-0.688D-01-0.605D+00-0.258D+00 0.541D+00
 Coeff-Com:  0.118D+01
 Coeff:     -0.187D-03 0.260D-03 0.107D-02 0.142D-02 0.400D-02-0.653D-02
 Coeff:     -0.331D-01 0.467D-01 0.162D-01-0.251D-01-0.575D-01-0.478D-02
 Coeff:      0.768D-01 0.196D+00-0.688D-01-0.605D+00-0.258D+00 0.541D+00
 Coeff:      0.118D+01
 Gap=     0.341 Goal=   None    Shift=    0.000
 Gap=     0.135 Goal=   None    Shift=    0.000
 RMSDP=1.55D-05 MaxDP=1.72D-03 DE=-1.86D-05 OVMax= 8.31D-03

 Cycle  20  Pass 1  IDiag  1:
 RMSU=  4.23D-06    CP:  9.99D-01  2.62D+00  6.38D-01  5.97D-01  2.05D+00
                    CP:  3.00D+00  3.00D+00  3.00D+00  3.00D+00  3.00D+00
                    CP:  3.00D+00  2.79D+00  3.00D+00  3.00D+00  3.00D+00
                    CP:  3.00D+00  3.00D+00  3.00D+00  2.00D+00
 E= -2913.36780263743     Delta-E=       -0.000012395716 Rises=F Damp=F
 DIIS: error= 1.63D-05 at cycle  20 NSaved=  20.
 NSaved=20 IEnMin=20 EnMin= -2913.36780263743     IErMin=20 ErrMin= 1.63D-05
 ErrMax= 1.63D-05  0.00D+00 EMaxC= 1.00D-01 BMatC= 6.44D-07 BMatP= 1.51D-06
 IDIUse=1 WtCom= 1.00D+00 WtEn= 0.00D+00
 Coeff-Com:  0.279D-03-0.381D-03-0.390D-03-0.544D-03 0.266D-02 0.438D-02
 Coeff-Com: -0.167D-02-0.954D-02-0.345D-01 0.757D-01 0.148D-01-0.844D-01
 Coeff-Com: -0.682D-01 0.150D+00 0.226D+00-0.278D-01-0.482D+00-0.437D+00
 Coeff-Com:  0.216D+00 0.146D+01
 Coeff:      0.279D-03-0.381D-03-0.390D-03-0.544D-03 0.266D-02 0.438D-02
 Coeff:     -0.167D-02-0.954D-02-0.345D-01 0.757D-01 0.148D-01-0.844D-01
 Coeff:     -0.682D-01 0.150D+00 0.226D+00-0.278D-01-0.482D+00-0.437D+00
 Coeff:      0.216D+00 0.146D+01
 Gap=     0.341 Goal=   None    Shift=    0.000
 Gap=     0.134 Goal=   None    Shift=    0.000
 RMSDP=1.53D-05 MaxDP=1.71D-03 DE=-1.24D-05 OVMax= 7.99D-03

 Cycle  21  Pass 1  IDiag  1:
 Restarting incremental Fock formation.
 E= -2913.36781006681     Delta-E=       -0.000007429382 Rises=F Damp=F
 DIIS: error= 9.04D-06 at cycle  21 NSaved=  20.
 NSaved=20 IEnMin=20 EnMin= -2913.36781006681     IErMin=20 ErrMin= 9.04D-06
 ErrMax= 9.04D-06  0.00D+00 EMaxC= 1.00D-01 BMatC= 2.80D-07 BMatP= 6.44D-07
 IDIUse=1 WtCom= 1.00D+00 WtEn= 0.00D+00
 Coeff-Com:  0.207D-04 0.111D-03 0.272D-03-0.373D-03 0.435D-03 0.380D-02
 Coeff-Com: -0.900D-02-0.165D-02 0.119D-01 0.225D-01-0.172D-01-0.415D-01
 Coeff-Com: -0.419D-01 0.109D+00 0.209D+00 0.110D-01-0.364D+00-0.569D+00
 Coeff-Com:  0.558D+00 0.112D+01
 Coeff:      0.207D-04 0.111D-03 0.272D-03-0.373D-03 0.435D-03 0.380D-02
 Coeff:     -0.900D-02-0.165D-02 0.119D-01 0.225D-01-0.172D-01-0.415D-01
 Coeff:     -0.419D-01 0.109D+00 0.209D+00 0.110D-01-0.364D+00-0.569D+00
 Coeff:      0.558D+00 0.112D+01
 Gap=     0.341 Goal=   None    Shift=    0.000
 Gap=     0.134 Goal=   None    Shift=    0.000
 RMSDP=9.11D-06 MaxDP=1.03D-03 DE=-7.43D-06 OVMax= 4.70D-03

 Cycle  22  Pass 1  IDiag  1:
 RMSU=  9.11D-06    CP:  1.00D+00
 E= -2913.36781218337     Delta-E=       -0.000002116552 Rises=F Damp=F
 DIIS: error= 4.72D-06 at cycle  22 NSaved=  20.
 NSaved=20 IEnMin=20 EnMin= -2913.36781218337     IErMin=20 ErrMin= 4.72D-06
 ErrMax= 4.72D-06  0.00D+00 EMaxC= 1.00D-01 BMatC= 6.98D-08 BMatP= 2.80D-07
 IDIUse=1 WtCom= 1.00D+00 WtEn= 0.00D+00
 Coeff-Com:  0.201D-03 0.328D-03-0.997D-03-0.460D-04 0.357D-03 0.100D-03
 Coeff-Com:  0.118D-01-0.236D-01 0.271D-02 0.193D-01 0.134D-01-0.546D-01
 Coeff-Com: -0.330D-01 0.293D-01 0.168D+00 0.625D-01-0.239D+00-0.282D+00
 Coeff-Com:  0.258D+00 0.107D+01
 Coeff:      0.201D-03 0.328D-03-0.997D-03-0.460D-04 0.357D-03 0.100D-03
 Coeff:      0.118D-01-0.236D-01 0.271D-02 0.193D-01 0.134D-01-0.546D-01
 Coeff:     -0.330D-01 0.293D-01 0.168D+00 0.625D-01-0.239D+00-0.282D+00
 Coeff:      0.258D+00 0.107D+01
 Gap=     0.341 Goal=   None    Shift=    0.000
 Gap=     0.134 Goal=   None    Shift=    0.000
 RMSDP=3.55D-06 MaxDP=4.07D-04 DE=-2.12D-06 OVMax= 1.91D-03

 Cycle  23  Pass 1  IDiag  1:
 RMSU=  5.47D-07    CP:  1.00D+00  1.38D+00
 E= -2913.36781252862     Delta-E=       -0.000000345255 Rises=F Damp=F
 DIIS: error= 2.47D-06 at cycle  23 NSaved=  20.
 NSaved=20 IEnMin=20 EnMin= -2913.36781252862     IErMin=20 ErrMin= 2.47D-06
 ErrMax= 2.47D-06  0.00D+00 EMaxC= 1.00D-01 BMatC= 2.42D-08 BMatP= 6.98D-08
 IDIUse=1 WtCom= 1.00D+00 WtEn= 0.00D+00
 Coeff-Com: -0.288D-04 0.129D-03 0.164D-03-0.124D-02 0.484D-04 0.184D-02
 Coeff-Com: -0.974D-03-0.207D-02-0.341D-02 0.533D-02 0.131D-01-0.169D-01
 Coeff-Com: -0.487D-01 0.128D-01 0.103D+00 0.721D-01-0.179D+00-0.237D+00
 Coeff-Com:  0.274D+00 0.101D+01
 Coeff:     -0.288D-04 0.129D-03 0.164D-03-0.124D-02 0.484D-04 0.184D-02
 Coeff:     -0.974D-03-0.207D-02-0.341D-02 0.533D-02 0.131D-01-0.169D-01
 Coeff:     -0.487D-01 0.128D-01 0.103D+00 0.721D-01-0.179D+00-0.237D+00
 Coeff:      0.274D+00 0.101D+01
 Gap=     0.341 Goal=   None    Shift=    0.000
 Gap=     0.134 Goal=   None    Shift=    0.000
 RMSDP=1.44D-06 MaxDP=1.71D-04 DE=-3.45D-07 OVMax= 7.64D-04

 Cycle  24  Pass 1  IDiag  1:
 RMSU=  2.52D-07    CP:  1.00D+00  1.54D+00  1.38D+00
 E= -2913.36781259081     Delta-E=       -0.000000062193 Rises=F Damp=F
 DIIS: error= 1.39D-06 at cycle  24 NSaved=  20.
 NSaved=20 IEnMin=20 EnMin= -2913.36781259081     IErMin=20 ErrMin= 1.39D-06
 ErrMax= 1.39D-06  0.00D+00 EMaxC= 1.00D-01 BMatC= 1.01D-08 BMatP= 2.42D-08
 IDIUse=1 WtCom= 1.00D+00 WtEn= 0.00D+00
 Coeff-Com:  0.434D-03-0.194D-03-0.117D-02 0.857D-03-0.218D-03 0.259D-02
 Coeff-Com: -0.192D-02-0.359D-02 0.841D-03 0.205D-01-0.690D-02-0.357D-01
 Coeff-Com: -0.411D-01 0.482D-01 0.904D-01 0.638D-02-0.177D+00-0.188D+00
 Coeff-Com:  0.423D+00 0.863D+00
 Coeff:      0.434D-03-0.194D-03-0.117D-02 0.857D-03-0.218D-03 0.259D-02
 Coeff:     -0.192D-02-0.359D-02 0.841D-03 0.205D-01-0.690D-02-0.357D-01
 Coeff:     -0.411D-01 0.482D-01 0.904D-01 0.638D-02-0.177D+00-0.188D+00
 Coeff:      0.423D+00 0.863D+00
 Gap=     0.341 Goal=   None    Shift=    0.000
 Gap=     0.134 Goal=   None    Shift=    0.000
 RMSDP=4.48D-07 MaxDP=7.06D-05 DE=-6.22D-08 OVMax= 2.06D-04

 Cycle  25  Pass 1  IDiag  1:
 RMSU=  2.26D-07    CP:  1.00D+00  1.56D+00  1.29D+00  2.19D+00
 E= -2913.36781260311     Delta-E=       -0.000000012295 Rises=F Damp=F
 DIIS: error= 8.66D-07 at cycle  25 NSaved=  20.
 NSaved=20 IEnMin=20 EnMin= -2913.36781260311     IErMin=20 ErrMin= 8.66D-07
 ErrMax= 8.66D-07  0.00D+00 EMaxC= 1.00D-01 BMatC= 2.77D-09 BMatP= 1.01D-08
 IDIUse=1 WtCom= 1.00D+00 WtEn= 0.00D+00
 Coeff-Com:  0.113D-04-0.632D-03 0.707D-03-0.438D-03 0.908D-03-0.109D-02
 Coeff-Com: -0.117D-03-0.696D-03 0.286D-02 0.539D-02-0.250D-02-0.111D-01
 Coeff-Com: -0.139D-01-0.714D-03 0.510D-01 0.210D-01-0.123D+00-0.189D+00
 Coeff-Com:  0.202D+00 0.106D+01
 Coeff:      0.113D-04-0.632D-03 0.707D-03-0.438D-03 0.908D-03-0.109D-02
 Coeff:     -0.117D-03-0.696D-03 0.286D-02 0.539D-02-0.250D-02-0.111D-01
 Coeff:     -0.139D-01-0.714D-03 0.510D-01 0.210D-01-0.123D+00-0.189D+00
 Coeff:      0.202D+00 0.106D+01
 Gap=     0.341 Goal=   None    Shift=    0.000
 Gap=     0.134 Goal=   None    Shift=    0.000
 RMSDP=3.68D-07 MaxDP=4.54D-05 DE=-1.23D-08 OVMax= 1.84D-04

 Cycle  26  Pass 1  IDiag  1:
 RMSU=  1.14D-07    CP:  1.00D+00  1.60D+00  1.54D+00  2.30D+00  7.25D-01
 E= -2913.36781260734     Delta-E=       -0.000000004227 Rises=F Damp=F
 DIIS: error= 3.74D-07 at cycle  26 NSaved=  20.
 NSaved=20 IEnMin=20 EnMin= -2913.36781260734     IErMin=20 ErrMin= 3.74D-07
 ErrMax= 3.74D-07  0.00D+00 EMaxC= 1.00D-01 BMatC= 7.90D-10 BMatP= 2.77D-09
 IDIUse=1 WtCom= 1.00D+00 WtEn= 0.00D+00
 Coeff-Com: -0.204D-03 0.153D-03-0.381D-03 0.844D-03-0.222D-03 0.181D-03
 Coeff-Com: -0.171D-02 0.636D-04 0.456D-02 0.591D-02-0.388D-02-0.142D-01
 Coeff-Com: -0.123D-01 0.272D-01 0.363D-01-0.296D-01-0.156D+00-0.947D-01
 Coeff-Com:  0.377D+00 0.860D+00
 Coeff:     -0.204D-03 0.153D-03-0.381D-03 0.844D-03-0.222D-03 0.181D-03
 Coeff:     -0.171D-02 0.636D-04 0.456D-02 0.591D-02-0.388D-02-0.142D-01
 Coeff:     -0.123D-01 0.272D-01 0.363D-01-0.296D-01-0.156D+00-0.947D-01
 Coeff:      0.377D+00 0.860D+00
 Gap=     0.341 Goal=   None    Shift=    0.000
 Gap=     0.134 Goal=   None    Shift=    0.000
 RMSDP=9.22D-08 MaxDP=1.11D-05 DE=-4.23D-09 OVMax= 4.39D-05

 Cycle  27  Pass 1  IDiag  1:
 RMSU=  2.99D-08    CP:  1.00D+00  1.60D+00  1.57D+00  2.58D+00  8.74D-01
                    CP:  1.18D+00
 E= -2913.36781260842     Delta-E=       -0.000000001082 Rises=F Damp=F
 DIIS: error= 2.30D-07 at cycle  27 NSaved=  20.
 NSaved=20 IEnMin=20 EnMin= -2913.36781260842     IErMin=20 ErrMin= 2.30D-07
 ErrMax= 2.30D-07  0.00D+00 EMaxC= 1.00D-01 BMatC= 1.92D-10 BMatP= 7.90D-10
 IDIUse=1 WtCom= 1.00D+00 WtEn= 0.00D+00
 Coeff-Com: -0.810D-04 0.201D-03 0.139D-03-0.158D-03 0.771D-04-0.860D-03
 Coeff-Com: -0.282D-03 0.650D-04 0.383D-02 0.173D-02-0.190D-02-0.712D-02
 Coeff-Com: -0.425D-02 0.131D-01 0.265D-01-0.155D-01-0.990D-01-0.122D+00
 Coeff-Com:  0.256D+00 0.949D+00
 Coeff:     -0.810D-04 0.201D-03 0.139D-03-0.158D-03 0.771D-04-0.860D-03
 Coeff:     -0.282D-03 0.650D-04 0.383D-02 0.173D-02-0.190D-02-0.712D-02
 Coeff:     -0.425D-02 0.131D-01 0.265D-01-0.155D-01-0.990D-01-0.122D+00
 Coeff:      0.256D+00 0.949D+00
 Gap=     0.341 Goal=   None    Shift=    0.000
 Gap=     0.134 Goal=   None    Shift=    0.000
 RMSDP=4.91D-08 MaxDP=6.17D-06 DE=-1.08D-09 OVMax= 2.35D-05

 Cycle  28  Pass 1  IDiag  1:
 RMSU=  2.27D-08    CP:  1.00D+00  1.60D+00  1.57D+00  2.70D+00  9.12D-01
                    CP:  1.36D+00  1.52D+00
 E= -2913.36781260850     Delta-E=       -0.000000000080 Rises=F Damp=F
 DIIS: error= 1.19D-07 at cycle  28 NSaved=  20.
 NSaved=20 IEnMin=20 EnMin= -2913.36781260850     IErMin=20 ErrMin= 1.19D-07
 ErrMax= 1.19D-07  0.00D+00 EMaxC= 1.00D-01 BMatC= 7.09D-11 BMatP= 1.92D-10
 IDIUse=1 WtCom= 1.00D+00 WtEn= 0.00D+00
 Coeff-Com:  0.154D-03-0.321D-03-0.124D-03 0.433D-03 0.264D-04 0.134D-03
 Coeff-Com: -0.184D-02-0.471D-03 0.169D-02 0.302D-02 0.307D-02-0.876D-02
 Coeff-Com: -0.773D-02 0.128D-01 0.416D-01-0.894D-03-0.140D+00-0.168D+00
 Coeff-Com:  0.297D+00 0.967D+00
 Coeff:      0.154D-03-0.321D-03-0.124D-03 0.433D-03 0.264D-04 0.134D-03
 Coeff:     -0.184D-02-0.471D-03 0.169D-02 0.302D-02 0.307D-02-0.876D-02
 Coeff:     -0.773D-02 0.128D-01 0.416D-01-0.894D-03-0.140D+00-0.168D+00
 Coeff:      0.297D+00 0.967D+00
 Gap=     0.341 Goal=   None    Shift=    0.000
 Gap=     0.134 Goal=   None    Shift=    0.000
 RMSDP=3.31D-08 MaxDP=5.27D-06 DE=-8.00D-11 OVMax= 1.51D-05

 Cycle  29  Pass 1  IDiag  1:
 RMSU=  8.44D-09    CP:  1.00D+00  1.60D+00  1.60D+00  2.68D+00  8.65D-01
                    CP:  1.50D+00  1.98D+00  1.40D+00
 E= -2913.36781260857     Delta-E=       -0.000000000075 Rises=F Damp=F
 DIIS: error= 6.85D-08 at cycle  29 NSaved=  20.
 NSaved=20 IEnMin=20 EnMin= -2913.36781260857     IErMin=20 ErrMin= 6.85D-08
 ErrMax= 6.85D-08  0.00D+00 EMaxC= 1.00D-01 BMatC= 2.11D-11 BMatP= 7.09D-11
 IDIUse=1 WtCom= 1.00D+00 WtEn= 0.00D+00
 Coeff-Com: -0.549D-04-0.559D-04 0.165D-03-0.121D-04 0.458D-03-0.860D-03
 Coeff-Com: -0.673D-03-0.169D-03 0.880D-03 0.293D-02-0.154D-02-0.430D-02
 Coeff-Com: -0.275D-02 0.138D-01 0.225D-01-0.610D-02-0.116D+00-0.123D+00
 Coeff-Com:  0.266D+00 0.948D+00
 Coeff:     -0.549D-04-0.559D-04 0.165D-03-0.121D-04 0.458D-03-0.860D-03
 Coeff:     -0.673D-03-0.169D-03 0.880D-03 0.293D-02-0.154D-02-0.430D-02
 Coeff:     -0.275D-02 0.138D-01 0.225D-01-0.610D-02-0.116D+00-0.123D+00
 Coeff:      0.266D+00 0.948D+00
 Gap=     0.341 Goal=   None    Shift=    0.000
 Gap=     0.134 Goal=   None    Shift=    0.000
 RMSDP=1.43D-08 MaxDP=2.30D-06 DE=-7.46D-11 OVMax= 8.17D-06

 Cycle  30  Pass 1  IDiag  1:
 RMSU=  4.06D-09    CP:  1.00D+00  1.60D+00  1.61D+00  2.69D+00  8.63D-01
                    CP:  1.54D+00  2.26D+00  1.71D+00  1.69D+00
 E= -2913.36781260852     Delta-E=        0.000000000051 Rises=F Damp=F
 DIIS: error= 5.00D-08 at cycle  30 NSaved=  20.
 NSaved=20 IEnMin=19 EnMin= -2913.36781260857     IErMin=20 ErrMin= 5.00D-08
 ErrMax= 5.00D-08  0.00D+00 EMaxC= 1.00D-01 BMatC= 1.03D-11 BMatP= 2.11D-11
 IDIUse=1 WtCom= 1.00D+00 WtEn= 0.00D+00
 Coeff-Com: -0.434D-04 0.513D-04-0.243D-05 0.296D-03-0.212D-03-0.141D-03
 Coeff-Com: -0.526D-03-0.195D-03 0.765D-03 0.114D-02 0.678D-03-0.500D-02
 Coeff-Com: -0.104D-01 0.849D-02 0.505D-01 0.293D-02-0.150D+00-0.238D+00
 Coeff-Com:  0.241D+00 0.110D+01
 Coeff:     -0.434D-04 0.513D-04-0.243D-05 0.296D-03-0.212D-03-0.141D-03
 Coeff:     -0.526D-03-0.195D-03 0.765D-03 0.114D-02 0.678D-03-0.500D-02
 Coeff:     -0.104D-01 0.849D-02 0.505D-01 0.293D-02-0.150D+00-0.238D+00
 Coeff:      0.241D+00 0.110D+01
 Gap=     0.341 Goal=   None    Shift=    0.000
 Gap=     0.134 Goal=   None    Shift=    0.000
 RMSDP=1.35D-08 MaxDP=2.35D-06 DE= 5.09D-11 OVMax= 7.59D-06

 Cycle  31  Pass 1  IDiag  1:
 RMSU=  2.85D-09    CP:  1.00D+00  1.60D+00  1.61D+00  2.70D+00  8.67D-01
                    CP:  1.57D+00  2.50D+00  2.02D+00  2.45D+00  1.88D+00
 E= -2913.36781260851     Delta-E=        0.000000000016 Rises=F Damp=F
 DIIS: error= 3.07D-08 at cycle  31 NSaved=  20.
 NSaved=20 IEnMin=18 EnMin= -2913.36781260857     IErMin=20 ErrMin= 3.07D-08
 ErrMax= 3.07D-08  0.00D+00 EMaxC= 1.00D-01 BMatC= 3.38D-12 BMatP= 1.03D-11
 IDIUse=1 WtCom= 1.00D+00 WtEn= 0.00D+00
 Coeff-Com:  0.469D-04-0.664D-04-0.509D-04 0.482D-04 0.387D-03-0.565D-04
 Coeff-Com: -0.548D-03-0.573D-03 0.598D-03 0.194D-02 0.540D-03-0.790D-02
 Coeff-Com: -0.100D-01 0.118D-01 0.502D-01 0.503D-01-0.143D+00-0.487D+00
 Coeff-Com:  0.249D+00 0.128D+01
 Coeff:      0.469D-04-0.664D-04-0.509D-04 0.482D-04 0.387D-03-0.565D-04
 Coeff:     -0.548D-03-0.573D-03 0.598D-03 0.194D-02 0.540D-03-0.790D-02
 Coeff:     -0.100D-01 0.118D-01 0.502D-01 0.503D-01-0.143D+00-0.487D+00
 Coeff:      0.249D+00 0.128D+01
 Gap=     0.341 Goal=   None    Shift=    0.000
 Gap=     0.134 Goal=   None    Shift=    0.000
 RMSDP=1.11D-08 MaxDP=2.12D-06 DE= 1.64D-11 OVMax= 6.22D-06

 Cycle  32  Pass 1  IDiag  1:
 RMSU=  2.05D-09    CP:  1.00D+00  1.60D+00  1.61D+00  2.70D+00  8.70D-01
                    CP:  1.58D+00  2.69D+00  2.24D+00  3.00D+00  2.99D+00
                    CP:  1.89D+00
 E= -2913.36781260860     Delta-E=       -0.000000000098 Rises=F Damp=F
 DIIS: error= 1.99D-08 at cycle  32 NSaved=  20.
 NSaved=20 IEnMin=20 EnMin= -2913.36781260860     IErMin=20 ErrMin= 1.99D-08
 ErrMax= 1.99D-08  0.00D+00 EMaxC= 1.00D-01 BMatC= 1.26D-12 BMatP= 3.38D-12
 IDIUse=1 WtCom= 1.00D+00 WtEn= 0.00D+00
 Coeff-Com: -0.461D-04-0.598D-04-0.486D-04 0.195D-03 0.314D-03 0.107D-03
 Coeff-Com: -0.152D-03-0.124D-02-0.390D-03 0.358D-02 0.565D-02-0.727D-02
 Coeff-Com: -0.262D-01 0.255D-02 0.965D-01 0.790D-01-0.325D+00-0.353D+00
 Coeff-Com:  0.389D+00 0.114D+01
 Coeff:     -0.461D-04-0.598D-04-0.486D-04 0.195D-03 0.314D-03 0.107D-03
 Coeff:     -0.152D-03-0.124D-02-0.390D-03 0.358D-02 0.565D-02-0.727D-02
 Coeff:     -0.262D-01 0.255D-02 0.965D-01 0.790D-01-0.325D+00-0.353D+00
 Coeff:      0.389D+00 0.114D+01
 Gap=     0.341 Goal=   None    Shift=    0.000
 Gap=     0.134 Goal=   None    Shift=    0.000
 RMSDP=8.40D-09 MaxDP=1.71D-06 DE=-9.82D-11 OVMax= 4.39D-06

 Cycle  33  Pass 1  IDiag  1:
 RMSU=  3.87D-09    CP:  1.00D+00  1.60D+00  1.61D+00  2.70D+00  8.67D-01
                    CP:  1.59D+00  2.83D+00  2.41D+00  3.00D+00  3.00D+00
                    CP:  2.73D+00  2.63D+00
 E= -2913.36781260841     Delta-E=        0.000000000189 Rises=F Damp=F
 DIIS: error= 1.22D-08 at cycle  33 NSaved=  20.
 NSaved=20 IEnMin=19 EnMin= -2913.36781260860     IErMin=20 ErrMin= 1.22D-08
 ErrMax= 1.22D-08  0.00D+00 EMaxC= 1.00D-01 BMatC= 2.85D-13 BMatP= 1.26D-12
 IDIUse=1 WtCom= 1.00D+00 WtEn= 0.00D+00
 Coeff-Com:  0.251D-04-0.125D-03-0.349D-04 0.121D-03 0.182D-03 0.250D-03
 Coeff-Com: -0.630D-03-0.812D-03 0.742D-03 0.361D-02 0.375D-03-0.120D-01
 Coeff-Com: -0.149D-01 0.240D-01 0.763D-01 0.366D-01-0.156D+00-0.260D+00
 Coeff-Com:  0.288D+00 0.101D+01
 Coeff:      0.251D-04-0.125D-03-0.349D-04 0.121D-03 0.182D-03 0.250D-03
 Coeff:     -0.630D-03-0.812D-03 0.742D-03 0.361D-02 0.375D-03-0.120D-01
 Coeff:     -0.149D-01 0.240D-01 0.763D-01 0.366D-01-0.156D+00-0.260D+00
 Coeff:      0.288D+00 0.101D+01
 Gap=     0.341 Goal=   None    Shift=    0.000
 Gap=     0.134 Goal=   None    Shift=    0.000
 RMSDP=4.82D-09 MaxDP=6.00D-07 DE= 1.89D-10 OVMax= 2.31D-06

 Error on total polarization charges =  0.00318
 SCF Done:  E(UCAM-B3LYP) =  -2913.36781261     A.U. after   33 cycles
            NFock= 33  Conv=0.48D-08     -V/T= 2.0075
 <Sx>= 0.0000 <Sy>= 0.0000 <Sz>= 0.5000 <S**2>= 0.7791 S= 0.5145
 <L.S>= 0.000000000000E+00
 KE= 2.891823412987D+03 PE=-1.936573227288D+04 EE= 7.298596980202D+03
 Annihilation of the first spin contaminant:
 S**2 before annihilation     0.7791,   after     0.7505
 Leave Link  502 at Sun Mar  3 17:30:58 2024, MaxMem=  5368709120 cpu:      4278.8
 (Enter /home/k0335/k033513/app/g09/l601.exe)
 Copying SCF densities to generalized density rwf, IOpCl= 1 IROHF=0.

 **********************************************************************

            Population analysis using the SCF density.

 **********************************************************************

 Alpha  occ. eigenvalues --  -24.87685 -24.87336 -24.87115 -24.86681 -24.86459
 Alpha  occ. eigenvalues --  -24.86137 -24.85930 -24.85750 -24.85719 -24.85620
 Alpha  occ. eigenvalues --  -24.85564 -24.85533 -24.85441 -24.85392 -24.85168
 Alpha  occ. eigenvalues --  -24.85110 -24.84994 -24.84843 -19.36039 -19.35901
 Alpha  occ. eigenvalues --  -19.35385 -19.35360 -19.30029 -14.66998 -14.60016
 Alpha  occ. eigenvalues --  -14.59653 -10.61828 -10.61433 -10.58727 -10.57851
 Alpha  occ. eigenvalues --  -10.57814 -10.57799 -10.55261 -10.54976 -10.52610
 Alpha  occ. eigenvalues --  -10.52378 -10.52292 -10.41312 -10.34578 -10.31162
 Alpha  occ. eigenvalues --  -10.28396  -1.45678  -1.45399  -1.44468  -1.44134
 Alpha  occ. eigenvalues --   -1.42839  -1.42720  -1.38890  -1.38676  -1.36601
 Alpha  occ. eigenvalues --   -1.35966  -1.35622  -1.35507  -1.35309  -1.35274
 Alpha  occ. eigenvalues --   -1.35004  -1.34566  -1.34556  -1.34239  -1.32771
 Alpha  occ. eigenvalues --   -1.28034  -1.25541  -1.23376  -1.22830  -1.20310
 Alpha  occ. eigenvalues --   -1.16036  -1.15781  -0.98772  -0.96945  -0.96812
 Alpha  occ. eigenvalues --   -0.91869  -0.91149  -0.90292  -0.85977  -0.85340
 Alpha  occ. eigenvalues --   -0.84442  -0.83789  -0.82885  -0.80949  -0.79313
 Alpha  occ. eigenvalues --   -0.79052  -0.76787  -0.75841  -0.75471  -0.74931
 Alpha  occ. eigenvalues --   -0.73857  -0.73420  -0.73101  -0.72765  -0.72074
 Alpha  occ. eigenvalues --   -0.71648  -0.71341  -0.70995  -0.70786  -0.70618
 Alpha  occ. eigenvalues --   -0.70214  -0.69644  -0.69215  -0.68917  -0.68324
 Alpha  occ. eigenvalues --   -0.67893  -0.67715  -0.65191  -0.64027  -0.63086
 Alpha  occ. eigenvalues --   -0.62921  -0.62581  -0.62236  -0.61097  -0.60359
 Alpha  occ. eigenvalues --   -0.60026  -0.59788  -0.59609  -0.59542  -0.59076
 Alpha  occ. eigenvalues --   -0.58885  -0.58730  -0.58617  -0.58124  -0.57930
 Alpha  occ. eigenvalues --   -0.57757  -0.57645  -0.57505  -0.56846  -0.56755
 Alpha  occ. eigenvalues --   -0.56476  -0.56121  -0.55450  -0.55215  -0.55044
 Alpha  occ. eigenvalues --   -0.54789  -0.54653  -0.54379  -0.54279  -0.54098
 Alpha  occ. eigenvalues --   -0.53772  -0.53608  -0.53369  -0.53056  -0.52968
 Alpha  occ. eigenvalues --   -0.52720  -0.52584  -0.52139  -0.51781  -0.51661
 Alpha  occ. eigenvalues --   -0.51377  -0.51106  -0.50605  -0.50095  -0.49720
 Alpha  occ. eigenvalues --   -0.49188  -0.48953  -0.47984  -0.47736  -0.47255
 Alpha  occ. eigenvalues --   -0.46467  -0.45289  -0.44961  -0.44410  -0.44144
 Alpha  occ. eigenvalues --   -0.42986
 Alpha virt. eigenvalues --   -0.08837  -0.06661   0.00993   0.01604   0.02392
 Alpha virt. eigenvalues --    0.03840   0.06149   0.07446   0.09020   0.10052
 Alpha virt. eigenvalues --    0.10845   0.11607   0.12465   0.12988   0.13655
 Alpha virt. eigenvalues --    0.14434   0.15475   0.16303   0.17027   0.17243
 Alpha virt. eigenvalues --    0.17424   0.17575   0.17994   0.18188   0.19363
 Alpha virt. eigenvalues --    0.19495   0.19922   0.20250   0.20552   0.20710
 Alpha virt. eigenvalues --    0.20967   0.21162   0.21714   0.21886   0.22335
 Alpha virt. eigenvalues --    0.22372   0.22804   0.23850   0.24140   0.24718
[...]
    29   Atom        0.000413      0.000776     -0.001190
    30   Atom        0.000160      0.000624     -0.000785
    31   Atom        0.000038      0.000715     -0.000753
    32   Atom       -0.000143      0.000532     -0.000389
    33   Atom       -0.000109      0.000397     -0.000288
    34   Atom       -0.000136      0.000401     -0.000266
    35   Atom       -0.000303      0.000666     -0.000363
    36   Atom       -0.001113      0.002005     -0.000892
    37   Atom       -0.001583      0.003118     -0.001535
    38   Atom       -0.005553      0.001586      0.003967
    39   Atom       -0.000879      0.001481     -0.000602
    40   Atom        0.043385      0.072580     -0.115965
    41   Atom       -0.282304     -0.458786      0.741090
    42   Atom       -0.000258     -0.000041      0.000300
    43   Atom        0.000086      0.001236     -0.001322
    44   Atom        0.001858      0.000025     -0.001883
    45   Atom       -0.000074     -0.004667      0.004741
    46   Atom        0.004780     -0.004176     -0.000605
    47   Atom       -0.001759      0.008352     -0.006593
    48   Atom        0.000241     -0.006430      0.006189
    49   Atom        0.001222     -0.000771     -0.000451
    50   Atom       -0.006253      0.016240     -0.009988
 --------------------------------------------------------
                        XY            XZ            YZ
 --------------------------------------------------------
     1   Atom       -0.001707     -0.008945      0.003644
     2   Atom        0.004046     -0.032509     -0.001882
     3   Atom       -0.009782     -0.130758      0.008351
     4   Atom       -0.017958     -0.073740      0.047376
     5   Atom       -0.266506     -0.619003      0.549161
     6   Atom        0.003691      0.073313     -0.049510
     7   Atom       -0.063334     -0.354977      0.197631
     8   Atom        0.008023      0.023691     -0.010699
     9   Atom        0.001286      0.001958      0.000595
    10   Atom        0.002822     -0.000346     -0.000331
    11   Atom       -0.003794      0.015365     -0.000692
    12   Atom       -0.000167      0.000813     -0.000259
    13   Atom       -0.003517      0.000442     -0.000380
    14   Atom        0.000257     -0.000022      0.000066
    15   Atom       -0.000225     -0.000269     -0.000004
    16   Atom       -0.000116     -0.000016     -0.000016
    17   Atom       -0.000094     -0.000400     -0.000004
    18   Atom       -0.000482     -0.000342      0.000046
    19   Atom       -0.000371      0.000467     -0.000080
    20   Atom       -0.000397      0.000391     -0.000172
    21   Atom       -0.000772      0.000720     -0.000242
    22   Atom       -0.000083      0.000436     -0.000063
    23   Atom        0.006011      0.003541     -0.001367
    24   Atom        0.013562      0.003548     -0.007628
    25   Atom       -0.000211     -0.009090     -0.015259
    26   Atom        0.002909     -0.000096     -0.000535
    27   Atom       -0.003338      0.001768      0.001241
    28   Atom        0.023619     -0.012793     -0.013072
    29   Atom        0.001673      0.000460      0.000021
    30   Atom        0.000596      0.000431      0.000752
    31   Atom        0.001159      0.000137      0.000205
    32   Atom        0.000475      0.000059      0.000106
    33   Atom        0.000321      0.000005      0.000030
    34   Atom        0.000394      0.000121      0.000290
    35   Atom        0.000319      0.000018      0.000108
    36   Atom        0.001358      0.000655      0.001385
    37   Atom        0.000400     -0.000075      0.000643
    38   Atom        0.001932      0.002574      0.008014
    39   Atom        0.000326      0.000269      0.000892
    40   Atom       -0.004301      0.040446     -0.047887
    41   Atom        0.075724     -0.515091     -0.225081
    42   Atom        0.002339     -0.000631      0.001809
    43   Atom        0.001401     -0.000546     -0.001449
    44   Atom        0.002723      0.000834      0.000716
    45   Atom       -0.000853     -0.005694      0.003349
    46   Atom       -0.000978      0.002971     -0.001953
    47   Atom       -0.000355     -0.008038      0.003697
    48   Atom       -0.003432     -0.000739     -0.009287
    49   Atom       -0.004545      0.010698     -0.005142
    50   Atom        0.002560      0.003556     -0.000161
 --------------------------------------------------------


 ---------------------------------------------------------------------------------
              Anisotropic Spin Dipole Couplings in Principal Axis System
 ---------------------------------------------------------------------------------

       Atom             a.u.   MegaHertz   Gauss  10(-4) cm-1        Axes

              Baa    -0.0089    -1.192    -0.425    -0.397  0.4446 -0.4058  0.7985
     1 C(13)  Bbb    -0.0034    -0.456    -0.163    -0.152  0.3967  0.8885  0.2306
              Bcc     0.0123     1.647     0.588     0.549  0.8031 -0.2142 -0.5560
 
              Baa    -0.0271    -3.642    -1.299    -1.215  0.4538 -0.2165  0.8644
     2 C(13)  Bbb    -0.0264    -3.540    -1.263    -1.181  0.0498  0.9747  0.2180
              Bcc     0.0535     7.182     2.563     2.396  0.8897  0.0559 -0.4531
 
              Baa    -0.0883   -11.852    -4.229    -3.954  0.6598  0.2774  0.6983
     3 C(13)  Bbb    -0.0866   -11.618    -4.146    -3.875 -0.1530  0.9595 -0.2365
              Bcc     0.1749    23.471     8.375     7.829  0.7357 -0.0492 -0.6756
 
              Baa    -0.0727    -9.757    -3.482    -3.255 -0.3014  0.8558 -0.4203
     4 C(13)  Bbb    -0.0572    -7.674    -2.738    -2.560  0.8411  0.4463  0.3055
              Bcc     0.1299    17.430     6.220     5.814 -0.4490  0.2615  0.8544
 
              Baa    -0.6068   -23.404    -8.351    -7.807  0.6636  0.7481  0.0000
     5 N(14)  Bbb    -0.6044   -23.311    -8.318    -7.776  0.6284 -0.5574  0.5425
              Bcc     1.2113    46.716    16.669    15.583 -0.4058  0.3600  0.8400
 
              Baa    -0.1344   -18.034    -6.435    -6.016 -0.4201  0.2253  0.8791
     6 C(13)  Bbb     0.0466     6.247     2.229     2.084  0.8180  0.5135  0.2593
              Bcc     0.0878    11.788     4.206     3.932 -0.3929  0.8280 -0.4000
 
              Baa    -0.4354    31.508    11.243    10.510  0.9480  0.1815  0.2614
     7 O(17)  Bbb    -0.4234    30.634    10.931    10.219 -0.1282  0.9696 -0.2084
              Bcc     0.8588   -62.142   -22.174   -20.728 -0.2913  0.1640  0.9425
 
              Baa    -0.0348    -1.342    -0.479    -0.448 -0.5134  0.2923  0.8069
     8 N(14)  Bbb     0.0128     0.493     0.176     0.164  0.0570  0.9498 -0.3077
              Bcc     0.0220     0.849     0.303     0.283  0.8563  0.1120  0.5042
 
              Baa    -0.0021    -0.278    -0.099    -0.093 -0.1856 -0.5403  0.8208
     9 C(13)  Bbb    -0.0019    -0.258    -0.092    -0.086 -0.3980  0.8050  0.4400
              Bcc     0.0040     0.536     0.191     0.179  0.8984  0.2450  0.3644
 
              Baa    -0.0027    -1.342    -0.479    -0.448  0.8844 -0.4344  0.1707
    10 F(19)  Bbb    -0.0017    -0.869    -0.310    -0.290 -0.1198  0.1421  0.9826
              Bcc     0.0044     2.211     0.789     0.737  0.4510  0.8895 -0.0736
 
              Baa    -0.0125    -6.254    -2.232    -2.086  0.5444  0.6927 -0.4730
    11 F(19)  Bbb    -0.0082    -4.140    -1.477    -1.381 -0.4217  0.7135  0.5595
              Bcc     0.0207    10.394     3.709     3.467  0.7251 -0.1052  0.6806
 
              Baa    -0.0016    -0.215    -0.077    -0.072 -0.1645  0.4071  0.8985
    12 C(13)  Bbb    -0.0010    -0.135    -0.048    -0.045  0.1359  0.9115 -0.3881
              Bcc     0.0026     0.350     0.125     0.117  0.9770 -0.0583  0.2053
 
              Baa    -0.0042    -2.129    -0.760    -0.710  0.2392  0.8177  0.5236
    13 F(19)  Bbb    -0.0037    -1.875    -0.669    -0.625 -0.1980 -0.4869  0.8507
              Bcc     0.0080     4.004     1.429     1.336  0.9506 -0.3072  0.0454
 
              Baa    -0.0012     0.090     0.032     0.030  0.0151 -0.0812  0.9966
    14 O(17)  Bbb    -0.0004     0.030     0.011     0.010 -0.1235  0.9889  0.0824
              Bcc     0.0017    -0.120    -0.043    -0.040  0.9922  0.1243 -0.0049
 
              Baa    -0.0006    -0.081    -0.029    -0.027  0.2067  0.4893  0.8473
    15 C(13)  Bbb    -0.0005    -0.068    -0.024    -0.023  0.0374  0.8614 -0.5066
              Bcc     0.0011     0.149     0.053     0.050  0.9777 -0.1364 -0.1597
 
              Baa    -0.0004    -0.185    -0.066    -0.062  0.0626  0.4378  0.8969
    16 F(19)  Bbb    -0.0003    -0.162    -0.058    -0.054  0.0963  0.8918 -0.4420
              Bcc     0.0007     0.347     0.124     0.116  0.9934 -0.1141 -0.0136
 
              Baa    -0.0005    -0.246    -0.088    -0.082  0.2955  0.5015  0.8131
    17 F(19)  Bbb    -0.0004    -0.209    -0.074    -0.070 -0.0993  0.8626 -0.4960
              Bcc     0.0009     0.455     0.162     0.152  0.9502 -0.0659 -0.3047
 
              Baa    -0.0006    -0.308    -0.110    -0.103  0.3457  0.4323  0.8328
    18 F(19)  Bbb    -0.0004    -0.226    -0.081    -0.075  0.1817  0.8399 -0.5114
              Bcc     0.0011     0.534     0.191     0.178  0.9206 -0.3281 -0.2118
 
              Baa    -0.0007    -0.096    -0.034    -0.032 -0.2692 -0.1226  0.9553
    19 C(13)  Bbb    -0.0006    -0.080    -0.029    -0.027  0.1639  0.9716  0.1708
              Bcc     0.0013     0.176     0.063     0.059  0.9491 -0.2025  0.2414
 
              Baa    -0.0006    -0.287    -0.103    -0.096  0.1868  0.9292  0.3190
    20 F(19)  Bbb    -0.0004    -0.212    -0.076    -0.071 -0.3825 -0.2303  0.8948
              Bcc     0.0010     0.499     0.178     0.167  0.9049 -0.2892  0.3124
 
              Baa    -0.0008    -0.419    -0.150    -0.140  0.5751  0.6339 -0.5171
    21 F(19)  Bbb    -0.0006    -0.287    -0.103    -0.096 -0.0352  0.6507  0.7585
              Bcc     0.0014     0.707     0.252     0.236  0.8173 -0.4180  0.3965
 
              Baa    -0.0005    -0.254    -0.090    -0.085 -0.2945  0.3123  0.9032
    22 F(19)  Bbb    -0.0004    -0.200    -0.071    -0.067  0.1724  0.9470 -0.2712
              Bcc     0.0009     0.454     0.162     0.151  0.9400 -0.0759  0.3327
 
              Baa    -0.0079    -1.061    -0.379    -0.354 -0.4469  0.7465  0.4930
    23 C(13)  Bbb    -0.0016    -0.218    -0.078    -0.073  0.0322 -0.5374  0.8427
              Bcc     0.0095     1.279     0.456     0.427  0.8940  0.3925  0.2161
 
              Baa    -0.0386     2.790     0.996     0.931 -0.4666  0.8785  0.1028
    24 O(17)  Bbb    -0.0050     0.364     0.130     0.121  0.8836  0.4682  0.0092
              Bcc     0.0436    -3.154    -1.125    -1.052  0.0401 -0.0951  0.9947
 
              Baa    -0.0334    -1.289    -0.460    -0.430  0.1501  0.3810  0.9123
    25 N(14)  Bbb     0.0090     0.347     0.124     0.116 -0.2202  0.9125 -0.3449
              Bcc     0.0244     0.942     0.336     0.314  0.9638  0.1491 -0.2208
 
              Baa    -0.0026    -0.345    -0.123    -0.115 -0.2829  0.5061  0.8148
    26 C(13)  Bbb    -0.0017    -0.234    -0.083    -0.078 -0.4818  0.6595 -0.5770
              Bcc     0.0043     0.579     0.206     0.193  0.8293  0.5558 -0.0573
 
              Baa    -0.0055    -2.769    -0.988    -0.924  0.3018  0.7481 -0.5910
    27 F(19)  Bbb    -0.0019    -0.976    -0.348    -0.325  0.0727  0.6000  0.7967
              Bcc     0.0075     3.744     1.336     1.249  0.9506 -0.2834  0.1267
 
              Baa    -0.0192    -9.629    -3.436    -3.212  0.7471 -0.3784  0.5464
    28 F(19)  Bbb    -0.0171    -8.600    -3.069    -2.869 -0.2442  0.6083  0.7552
              Bcc     0.0363    18.229     6.505     6.081  0.6182  0.6977 -0.3621
 
              Baa    -0.0015    -0.200    -0.071    -0.067 -0.5158  0.3741  0.7707
    29 C(13)  Bbb    -0.0008    -0.110    -0.039    -0.037  0.5318 -0.5655  0.6304
              Bcc     0.0023     0.310     0.111     0.103  0.6717  0.7350  0.0927
 
              Baa    -0.0011    -0.570    -0.203    -0.190 -0.1491 -0.3456  0.9265
    30 F(19)  Bbb    -0.0002    -0.122    -0.044    -0.041  0.8465 -0.5288 -0.0610
              Bcc     0.0014     0.692     0.247     0.231  0.5110  0.7752  0.3714
 
              Baa    -0.0008     0.060     0.022     0.020  0.7643 -0.6023  0.2304
    31 O(17)  Bbb    -0.0008     0.056     0.020     0.019 -0.2458  0.0583  0.9676
              Bcc     0.0016    -0.116    -0.042    -0.039  0.5962  0.7961  0.1035
 
              Baa    -0.0004    -0.054    -0.019    -0.018 -0.2653  0.0255  0.9638
    32 C(13)  Bbb    -0.0004    -0.052    -0.019    -0.017  0.8493 -0.4670  0.2461
              Bcc     0.0008     0.106     0.038     0.035  0.4564  0.8839  0.1023
 
              Baa    -0.0003    -0.146    -0.052    -0.049  0.2461 -0.1557  0.9567
    33 F(19)  Bbb    -0.0003    -0.132    -0.047    -0.044  0.8659 -0.4081 -0.2892
              Bcc     0.0006     0.278     0.099     0.093  0.4355  0.8996  0.0344
 
              Baa    -0.0004    -0.193    -0.069    -0.064  0.3741 -0.4802  0.7934
    34 F(19)  Bbb    -0.0003    -0.164    -0.058    -0.055  0.8175 -0.2332 -0.5266
              Bcc     0.0007     0.357     0.127     0.119  0.4379  0.8456  0.3054
 
              Baa    -0.0004    -0.203    -0.072    -0.068  0.8654 -0.2987  0.4023
    35 F(19)  Bbb    -0.0004    -0.185    -0.066    -0.062 -0.4122  0.0320  0.9105
              Bcc     0.0008     0.388     0.138     0.129  0.2849  0.9538  0.0954
 
              Baa    -0.0017    -0.227    -0.081    -0.076  0.8761 -0.1504 -0.4581
    36 C(13)  Bbb    -0.0014    -0.189    -0.067    -0.063  0.3453 -0.4675  0.8138
              Bcc     0.0031     0.416     0.148     0.139  0.3366  0.8711  0.3576
 
              Baa    -0.0017    -0.877    -0.313    -0.293  0.6929 -0.1503  0.7052
    37 F(19)  Bbb    -0.0015    -0.748    -0.267    -0.250  0.7166  0.0350 -0.6966
              Bcc     0.0032     1.625     0.580     0.542  0.0800  0.9880  0.1319
 
              Baa    -0.0062    -3.119    -1.113    -1.040  0.9553  0.0608 -0.2894
    38 F(19)  Bbb    -0.0053    -2.649    -0.945    -0.883 -0.2306  0.7660 -0.6001
              Bcc     0.0115     5.767     2.058     1.924  0.1852  0.6400  0.7458
 
              Baa    -0.0011    -0.539    -0.192    -0.180  0.7063  0.1514 -0.6915
    39 F(19)  Bbb    -0.0008    -0.400    -0.143    -0.133  0.6931 -0.3466  0.6321
              Bcc     0.0019     0.939     0.335     0.313  0.1440  0.9257  0.3497
 
              Baa    -0.1357   -18.206    -6.496    -6.073 -0.2103  0.2150  0.9537
    40 C(13)  Bbb     0.0468     6.286     2.243     2.097  0.9198  0.3741  0.1185
              Bcc     0.0888    11.920     4.253     3.976 -0.3314  0.9021 -0.2764
 
              Baa    -0.5134    37.149    13.256    12.392  0.6016  0.7060  0.3737
    41 O(17)  Bbb    -0.4807    34.782    12.411    11.602  0.7040 -0.6896  0.1697
              Bcc     0.9941   -71.931   -25.667   -23.994 -0.3775 -0.1610  0.9119
 
              Baa    -0.0033    -1.774    -0.633    -0.592 -0.6002  0.6690 -0.4384
    42 H(1)   Bbb     0.0007     0.374     0.133     0.125 -0.6197 -0.0425  0.7837
              Bcc     0.0026     1.401     0.500     0.467  0.5056  0.7421  0.4401
 
              Baa    -0.0020    -1.056    -0.377    -0.352 -0.0529  0.4292  0.9016
    43 H(1)   Bbb    -0.0008    -0.406    -0.145    -0.135  0.8686 -0.4257  0.2537
              Bcc     0.0027     1.462     0.522     0.488  0.4928  0.7966 -0.3503
 
              Baa    -0.0021    -1.136    -0.405    -0.379  0.1138 -0.4397  0.8909
    44 H(1)   Bbb    -0.0019    -1.007    -0.359    -0.336 -0.5935  0.6890  0.4159
              Bcc     0.0040     2.144     0.765     0.715  0.7967  0.5761  0.1826
 
              Baa    -0.0060    -3.203    -1.143    -1.068 -0.2747  0.8669 -0.4159
    45 H(1)   Bbb    -0.0033    -1.751    -0.625    -0.584  0.8081  0.4426  0.3888
              Bcc     0.0093     4.954     1.768     1.652 -0.5211  0.2292  0.8221
 
              Baa    -0.0050    -2.693    -0.961    -0.898 -0.0378  0.9052  0.4232
    46 H(1)   Bbb    -0.0013    -0.707    -0.252    -0.236 -0.4525 -0.3931  0.8004
              Bcc     0.0064     3.400     1.213     1.134  0.8910 -0.1612  0.4245
 
              Baa    -0.0129    -6.900    -2.462    -2.302  0.5763 -0.1305  0.8068
    47 H(1)   Bbb     0.0031     1.670     0.596     0.557  0.7754  0.3991 -0.4893
              Bcc     0.0098     5.230     1.866     1.744 -0.2582  0.9075  0.3312
 
              Baa    -0.0123    -6.543    -2.335    -2.183  0.2616  0.8579  0.4423
    48 H(1)   Bbb     0.0011     0.571     0.204     0.190  0.9609 -0.1883 -0.2030
              Bcc     0.0112     5.973     2.131     1.992  0.0908 -0.4781  0.8736
 
              Baa    -0.0104    -5.554    -1.982    -1.853 -0.6545  0.0918  0.7505
    49 H(1)   Bbb    -0.0038    -2.038    -0.727    -0.680  0.3688  0.9053  0.2108
              Bcc     0.0142     7.592     2.709     2.532  0.6601 -0.4147  0.6263
 
              Baa    -0.0122    -6.517    -2.325    -2.174 -0.5281  0.0523  0.8476
    50 H(1)   Bbb    -0.0043    -2.303    -0.822    -0.768  0.8416 -0.1006  0.5306
              Bcc     0.0165     8.820     3.147     2.942  0.1131  0.9935  0.0091
 

 ---------------------------------------------------------------------------------

 No NMR shielding tensors so no spin-rotation constants.
 Leave Link  601 at Sun Mar  3 17:30:59 2024, MaxMem=  5368709120 cpu:         7.0
 (Enter /home/k0335/k033513/app/g09/l9999.exe)
 1\1\GINC-C24U18N3\SP\UCAM-B3LYP\6-31G(d,p)\C15H9F18N3O5(1+,2)\K033513\
 03-Mar-2024\0\\#p CAM-B3LYP/6-31G(d,p) SCRF=(PCM,Solvent=Generic,Read)
  NoSymm out=wfn\\Title A126125651_p1\\1,2\C,0,-4.947961,-3.160195,-0.0
 96023\C,0,-4.890032,-1.659356,0.142685\C,0,-3.47827,-1.140946,0.420541
 \C,0,-2.5338,-1.284389,-0.777483\N,0,-1.229753,-0.674648,-0.50748\C,0,
 -0.286458,-1.414033,0.176097\O,0,-0.439511,-2.613651,0.393948\N,0,0.82
 4868,-0.724974,0.592433\C,0,1.826415,-1.468647,1.348481\F,0,2.552698,-
 0.589662,2.0981\F,0,1.186662,-2.222419,2.287873\C,0,2.776322,-2.35057,
 0.49776\F,0,2.050229,-3.329738,-0.116867\O,0,3.326827,-1.567718,-0.568
 248\C,0,4.380096,-2.207769,-1.239281\F,0,5.494559,-2.129662,-0.495799\
 F,0,4.590322,-1.571352,-2.406041\F,0,4.080297,-3.490131,-1.495419\C,0,
 3.757925,-2.975821,1.499096\F,0,4.561968,-3.888726,0.901758\F,0,3.1383
 47,-3.625777,2.507983\F,0,4.570879,-2.049184,2.053815\C,0,1.19681,0.46
 4786,0.015985\O,0,2.323996,0.930171,0.159871\N,0,0.245425,1.111618,-0.
 734825\C,0,0.558898,2.439684,-1.241201\F,0,1.773661,2.347273,-1.877974
 \F,0,-0.281,2.770689,-2.26737\C,0,0.628692,3.626557,-0.242\F,0,1.51416
 5,3.32953,0.754264\O,0,1.184215,4.749329,-0.948267\C,0,1.171048,5.9391
 28,-0.206868\F,0,2.0462,6.799485,-0.758791\F,0,1.516576,5.727012,1.071
 996\F,0,-0.057849,6.478645,-0.269666\C,0,-0.761115,3.823126,0.36656\F,
 0,-1.685339,4.158168,-0.554194\F,0,-1.181672,2.704902,1.0057\F,0,-0.76
 5806,4.800377,1.304064\C,0,-1.041239,0.649812,-0.839399\O,0,-1.973348,
 1.372784,-1.183095\H,0,-4.428368,-3.440509,-1.016877\H,0,-4.497258,-3.
 708504,0.737214\H,0,-5.989027,-3.485095,-0.191689\H,0,-5.524007,-1.419
 193,1.004558\H,0,-5.317102,-1.135476,-0.720308\H,0,-3.549058,-0.082515
 ,0.701094\H,0,-3.058946,-1.660212,1.291135\H,0,-2.976844,-0.810371,-1.
 661339\H,0,-2.384342,-2.34183,-1.020651\\Version=ES64L-G09RevD.01\HF=-
 2913.3678126\S2=0.779134\S2-1=0.\S2A=0.750534\RMSD=4.825e-09\Dipole=-5
 .6097218,-2.4895568,-0.699701\Quadrupole=12.9903898,-4.802804,-8.18758
 58,9.2245765,0.1797771,3.2470398\PG=C01 [X(C15H9F18N3O5)]\\@

 Writing a WFN file to "A126125651/A126125651_p1.wfn"


 THE NUMBERS ARE MEANINGLESS, BUT THE TRENDS ARE IMPORTANT.
     -- LARRY BURGGRAF
 Job cpu time:       0 days  1 hours 12 minutes 12.0 seconds.
 File lengths (MBytes):  RWF=    667 Int=      0 D2E=      0 Chk=     22 Scr=      1
 Normal termination of Gaussian 09 at Sun Mar  3 17:30:59 2024.
