 Entering Gaussian System, Link 0=g09
 Initial command:
 /home/k0335/k033513/app/g09/l1.exe "/home/k0335/k033513/app/g09/scratch/Gau-573693.inp" -scrdir="/home/k0335/k033513/app/g09/scratch/"
 Default is to use a total of  36 processors:
                               36 via shared-memory
                                1 via Linda
 Entering Link 1 = /home/k0335/k033513/app/g09/l1.exe PID=    573694.
  
 Copyright (c) 1988,1990,1992,1993,1995,1998,2003,2009,2013,
            Gaussian, Inc.  All Rights Reserved.
  
 This is part of the Gaussian(R) 09 program.  It is based on
 the Gaussian(R) 03 system (copyright 2003, Gaussian, Inc.),
 the Gaussian(R) 98 system (copyright 1998, Gaussian, Inc.),
 the Gaussian(R) 94 system (copyright 1995, Gaussian, Inc.),
 the Gaussian 92(TM) system (copyright 1992, Gaussian, Inc.),
 the Gaussian 90(TM) system (copyright 1990, Gaussian, Inc.),
 the Gaussian 88(TM) system (copyright 1988, Gaussian, Inc.),
 the Gaussian 86(TM) system (copyright 1986, Carnegie Mellon
 University), and the Gaussian 82(TM) system (copyright 1983,
 Carnegie Mellon University). Gaussian is a federally registered
 trademark of Gaussian, Inc.
  
 This software contains proprietary and confidential information,
 including trade secrets, belonging to Gaussian, Inc.
  
 This software is provided under written license and may be
 used, copied, transmitted, or stored only in accord with that
 written license.
  
 The following legend is applicable only to US Government
 contracts under FAR:
  
                    RESTRICTED RIGHTS LEGEND
  
 Use, reproduction and disclosure by the US Government is
 subject to restrictions as set forth in subparagraphs (a)
 and (c) of the Commercial Computer Software - Restricted
 Rights clause in FAR 52.227-19.
  
 Gaussian, Inc.
 340 Quinnipiac St., Bldg. 40, Wallingford CT 06492
  
  
 ---------------------------------------------------------------
 Warning -- This program may not be used in any manner that
 competes with the business of Gaussian, Inc. or will provide
 assistance to any competitor of Gaussian, Inc.  The licensee
 of this program is prohibited from giving any competitor of
 Gaussian, Inc. access to this program.  By using this program,
 the user acknowledges that Gaussian, Inc. is engaged in the
 business of creating and licensing software in the field of
 computational chemistry and represents and warrants to the
 licensee that it is not a competitor of Gaussian, Inc. and that
 it will not use this program in any manner prohibited above.
 ---------------------------------------------------------------
  

 Cite this work as:
 Gaussian 09, Revision D.01,
 M. J. Frisch, G. W. Trucks, H. B. Schlegel, G. E. Scuseria, 
 M. A. Robb, J. R. Cheeseman, G. Scalmani, V. Barone, B. Mennucci, 
 G. A. Petersson, H. Nakatsuji, M. Caricato, X. Li, H. P. Hratchian, 
 A. F. Izmaylov, J. Bloino, G. Zheng, J. L. Sonnenberg, M. Hada, 
 M. Ehara, K. Toyota, R. Fukuda, J. Hasegawa, M. Ishida, T. Nakajima, 
 Y. Honda, O. Kitao, H. Nakai, T. Vreven, J. A. Montgomery, Jr., 
 J. E. Peralta, F. Ogliaro, M. Bearpark, J. J. Heyd, E. Brothers, 
 K. N. Kudin, V. N. Staroverov, T. Keith, R. Kobayashi, J. Normand, 
 K. Raghavachari, A. Rendell, J. C. Burant, S. S. Iyengar, J. Tomasi, 
 M. Cossi, N. Rega, J. M. Millam, M. Klene, J. E. Knox, J. B. Cross, 
 V. Bakken, C. Adamo, J. Jaramillo, R. Gomperts, R. E. Stratmann, 
 O. Yazyev, A. J. Austin, R. Cammi, C. Pomelli, J. W. Ochterski, 
 R. L. Martin, K. Morokuma, V. G. Zakrzewski, G. A. Voth, 
 P. Salvador, J. J. Dannenberg, S. Dapprich, A. D. Daniels, 
 O. Farkas, J. B. Foresman, J. V. Ortiz, J. Cioslowski, 
 and D. J. Fox, Gaussian, Inc., Wallingford CT, 2013.
 
 ******************************************
 Gaussian 09:  ES64L-G09RevD.01 24-Apr-2013
                 3-Mar-2024 
 ******************************************
 %nprocshared=24
 Will use up to   24 processors via shared memory.
 %mem=40GB
 %rwf=A1462740672/A1462740672_p1.rwf
 %nosave
 %chk=A1462740672/A1462740672_p1.chk
 ----------------------------------------------------------------------
 #p CAM-B3LYP/6-31G(d,p) SCRF=(PCM,Solvent=Generic,Read) NoSymm out=wfn
 ----------------------------------------------------------------------
 1/38=1,40=2/1;
 2/12=2,15=1,17=6,18=5,40=1/2;
 3/5=1,6=6,7=101,11=2,16=1,25=1,30=1,70=2203,72=-2,74=-40/1,2,3;
 4//1;
 5/5=2,38=5/2;
 6/7=2,8=2,9=2,10=2,28=1/1;
 99/5=1,6=100,9=1/99;
 Leave Link    1 at Sun Mar  3 17:37:12 2024, MaxMem=  5368709120 cpu:         1.9
 (Enter /home/k0335/k033513/app/g09/l101.exe)
 --------------------
 Title A1462740672_p1
 --------------------
 Symbolic Z-matrix:
 Charge =  1 Multiplicity = 2
 C                    -2.60707   2.14457   0.77889 
 C                    -1.46949   1.43968   0.92967 
 N                    -0.31491   2.07465   1.378 
 C                    -0.29967   3.5155    1.65229 
 C                     0.88291   1.39585   1.56739 
 O                     1.92284   1.98725   1.85606 
 N                     0.84376   0.03566   1.39918 
 C                     2.09272  -0.69543   1.54847 
 F                     2.77578  -0.20115   2.62326 
 F                     1.80304  -1.97355   1.93326 
 C                     3.01314  -0.70928   0.2987 
 F                     2.39402  -1.38504  -0.71312 
 O                     3.18849   0.62604  -0.1914 
 C                     4.19424   0.7352   -1.16221 
 F                     4.09312  -0.24018  -2.07775 
 F                     4.06348   1.92412  -1.77944 
 F                     5.39637   0.69129  -0.566 
 C                     4.27399  -1.46916   0.7344 
 F                     5.09971  -1.69965  -0.31683 
 F                     4.0078   -2.67912   1.27067 
 F                     4.99437  -0.77365   1.64287 
 C                    -0.16824  -0.58554   0.71865 
 O                    -0.01082  -1.69215   0.20928 
 N                    -1.37156   0.08783   0.6125 
 C                    -2.48312  -0.69158   0.02973 
 F                    -2.37529  -2.00368   0.37215 
 F                    -3.64428  -0.32056   0.66615 
 C                    -2.72364  -0.54116  -1.49907 
 F                    -2.60942   0.80243  -1.8068 
 O                    -4.07343  -0.81149  -1.91713 
 C                    -4.46397  -2.15889  -1.84351 
 F                    -4.36896  -2.60987  -0.58704 
 F                    -3.71545  -2.90616  -2.66532 
 F                    -5.74859  -2.24565  -2.23504 
 C                    -1.63201  -1.25915  -2.28878 
 F                    -1.90714  -1.21501  -3.61754 
 F                    -1.49815  -2.55594  -1.95652 
 F                    -0.4299   -0.65572  -2.13454 
 H                    -2.6889    3.19978   1.01528 
 H                    -3.54145   1.7461    0.40417 
 H                    -0.56243   4.06258   0.7417 
 H                     0.67956   3.87369   1.98093 
 H                    -1.01147   3.7365    2.45329 
 
 NAtoms=     43 NQM=       43 NQMF=       0 NMMI=      0 NMMIF=      0
                NMic=       0 NMicF=      0.
                    Isotopes and Nuclear Properties:
 (Nuclear quadrupole moments (NQMom) in fm**2, nuclear magnetic moments (NMagM)
  in nuclear magnetons)

  Atom         1           2           3           4           5           6           7           8           9          10
 IAtWgt=          12          12          14          12          12          16          14          12          19          19
 AtmWgt=  12.0000000  12.0000000  14.0030740  12.0000000  12.0000000  15.9949146  14.0030740  12.0000000  18.9984033  18.9984033
 NucSpn=           0           0           2           0           0           0           2           0           1           1
 AtZEff=   0.0000000   0.0000000   0.0000000   0.0000000   0.0000000   0.0000000   0.0000000   0.0000000   0.0000000   0.0000000
 NQMom=    0.0000000   0.0000000   2.0440000   0.0000000   0.0000000   0.0000000   2.0440000   0.0000000   0.0000000   0.0000000
 NMagM=    0.0000000   0.0000000   0.4037610   0.0000000   0.0000000   0.0000000   0.4037610   0.0000000   2.6288670   2.6288670
 AtZNuc=   6.0000000   6.0000000   7.0000000   6.0000000   6.0000000   8.0000000   7.0000000   6.0000000   9.0000000   9.0000000

  Atom        11          12          13          14          15          16          17          18          19          20
 IAtWgt=          12          19          16          12          19          19          19          12          19          19
 AtmWgt=  12.0000000  18.9984033  15.9949146  12.0000000  18.9984033  18.9984033  18.9984033  12.0000000  18.9984033  18.9984033
 NucSpn=           0           1           0           0           1           1           1           0           1           1
 AtZEff=   0.0000000   0.0000000   0.0000000   0.0000000   0.0000000   0.0000000   0.0000000   0.0000000   0.0000000   0.0000000
 NQMom=    0.0000000   0.0000000   0.0000000   0.0000000   0.0000000   0.0000000   0.0000000   0.0000000   0.0000000   0.0000000
 NMagM=    0.0000000   2.6288670   0.0000000   0.0000000   2.6288670   2.6288670   2.6288670   0.0000000   2.6288670   2.6288670
 AtZNuc=   6.0000000   9.0000000   8.0000000   6.0000000   9.0000000   9.0000000   9.0000000   6.0000000   9.0000000   9.0000000

  Atom        21          22          23          24          25          26          27          28          29          30
 IAtWgt=          19          12          16          14          12          19          19          12          19          16
 AtmWgt=  18.9984033  12.0000000  15.9949146  14.0030740  12.0000000  18.9984033  18.9984033  12.0000000  18.9984033  15.9949146
 NucSpn=           1           0           0           2           0           1           1           0           1           0
 AtZEff=   0.0000000   0.0000000   0.0000000   0.0000000   0.0000000   0.0000000   0.0000000   0.0000000   0.0000000   0.0000000
 NQMom=    0.0000000   0.0000000   0.0000000   2.0440000   0.0000000   0.0000000   0.0000000   0.0000000   0.0000000   0.0000000
 NMagM=    2.6288670   0.0000000   0.0000000   0.4037610   0.0000000   2.6288670   2.6288670   0.0000000   2.6288670   0.0000000
 AtZNuc=   9.0000000   6.0000000   8.0000000   7.0000000   6.0000000   9.0000000   9.0000000   6.0000000   9.0000000   8.0000000

  Atom        31          32          33          34          35          36          37          38          39          40
 IAtWgt=          12          19          19          19          12          19          19          19           1           1
 AtmWgt=  12.0000000  18.9984033  18.9984033  18.9984033  12.0000000  18.9984033  18.9984033  18.9984033   1.0078250   1.0078250
 NucSpn=           0           1           1           1           0           1           1           1           1           1
 AtZEff=   0.0000000   0.0000000   0.0000000   0.0000000   0.0000000   0.0000000   0.0000000   0.0000000   0.0000000   0.0000000
 NQMom=    0.0000000   0.0000000   0.0000000   0.0000000   0.0000000   0.0000000   0.0000000   0.0000000   0.0000000   0.0000000
 NMagM=    0.0000000   2.6288670   2.6288670   2.6288670   0.0000000   2.6288670   2.6288670   2.6288670   2.7928460   2.7928460
 AtZNuc=   6.0000000   9.0000000   9.0000000   9.0000000   6.0000000   9.0000000   9.0000000   9.0000000   1.0000000   1.0000000

  Atom        41          42          43
 IAtWgt=           1           1           1
 AtmWgt=   1.0078250   1.0078250   1.0078250
 NucSpn=           1           1           1
 AtZEff=   0.0000000   0.0000000   0.0000000
 NQMom=    0.0000000   0.0000000   0.0000000
 NMagM=    2.7928460   2.7928460   2.7928460
 AtZNuc=   1.0000000   1.0000000   1.0000000
 Leave Link  101 at Sun Mar  3 17:37:12 2024, MaxMem=  5368709120 cpu:         0.8
 (Enter /home/k0335/k033513/app/g09/l202.exe)
                          Input orientation:                          
 ---------------------------------------------------------------------
 Center     Atomic      Atomic             Coordinates (Angstroms)
 Number     Number       Type             X           Y           Z
 ---------------------------------------------------------------------
      1          6           0       -2.607070    2.144566    0.778893
      2          6           0       -1.469489    1.439680    0.929672
      3          7           0       -0.314914    2.074654    1.378002
      4          6           0       -0.299671    3.515495    1.652292
      5          6           0        0.882911    1.395849    1.567388
      6          8           0        1.922835    1.987249    1.856063
      7          7           0        0.843756    0.035663    1.399183
      8          6           0        2.092724   -0.695429    1.548465
      9          9           0        2.775784   -0.201148    2.623260
     10          9           0        1.803043   -1.973548    1.933263
     11          6           0        3.013144   -0.709281    0.298699
     12          9           0        2.394021   -1.385036   -0.713116
     13          8           0        3.188486    0.626044   -0.191403
     14          6           0        4.194243    0.735202   -1.162213
     15          9           0        4.093124   -0.240179   -2.077747
     16          9           0        4.063479    1.924123   -1.779440
     17          9           0        5.396369    0.691292   -0.566002
     18          6           0        4.273990   -1.469162    0.734401
     19          9           0        5.099709   -1.699654   -0.316829
     20          9           0        4.007800   -2.679116    1.270672
     21          9           0        4.994372   -0.773646    1.642874
     22          6           0       -0.168239   -0.585535    0.718648
     23          8           0       -0.010823   -1.692149    0.209279
     24          7           0       -1.371557    0.087831    0.612500
     25          6           0       -2.483118   -0.691579    0.029725
     26          9           0       -2.375290   -2.003678    0.372154
     27          9           0       -3.644282   -0.320556    0.666154
     28          6           0       -2.723641   -0.541164   -1.499065
     29          9           0       -2.609419    0.802431   -1.806801
     30          8           0       -4.073425   -0.811494   -1.917129
     31          6           0       -4.463967   -2.158894   -1.843508
     32          9           0       -4.368957   -2.609865   -0.587038
     33          9           0       -3.715454   -2.906156   -2.665323
     34          9           0       -5.748590   -2.245651   -2.235036
     35          6           0       -1.632009   -1.259151   -2.288782
     36          9           0       -1.907140   -1.215007   -3.617542
     37          9           0       -1.498154   -2.555935   -1.956522
     38          9           0       -0.429898   -0.655717   -2.134544
     39          1           0       -2.688895    3.199785    1.015280
     40          1           0       -3.541453    1.746097    0.404167
     41          1           0       -0.562430    4.062579    0.741702
     42          1           0        0.679562    3.873690    1.980929
     43          1           0       -1.011466    3.736499    2.453288
 ---------------------------------------------------------------------
                    Distance matrix (angstroms):
                    1          2          3          4          5
     1  C    0.000000
     2  C    1.346733   0.000000
     3  N    2.370190   1.391846   0.000000
     4  C    2.822474   2.489912   1.466796   0.000000
     5  C    3.655444   2.437702   1.389758   2.428705   0.000000
     6  O    4.658871   3.558918   2.289913   2.704920   1.230662
     7  N    4.091507   2.746417   2.345304   3.671610   1.371106
     8  C    5.544896   4.198923   3.674117   4.844194   2.416081
     9  F    6.154606   4.856223   4.035140   4.920837   2.692254
    10  F    6.143332   4.833920   4.602390   5.884721   3.511886
    11  C    6.321537   5.011004   4.471147   5.536758   3.252543
    12  F    6.300404   5.060087   4.866267   6.071765   3.900958
    13  O    6.069255   4.859583   4.103086   4.890335   3.000270
    14  C    7.211939   6.078662   5.345963   5.987214   4.341900
    15  F    7.664203   6.542871   6.060648   6.878585   5.125336
    16  F    7.147719   6.179620   5.400225   5.774628   4.647187
    17  F    8.244743   7.066621   6.189636   6.733634   5.041732
    18  C    7.772387   6.441044   5.833600   6.826984   4.516810
    19  F    8.681767   7.386714   6.814396   7.760704   5.560018
    20  F    8.201601   6.861593   6.426173   7.554677   5.143764
    21  F    8.188061   6.869423   6.030878   6.813495   4.649357
    22  C    3.661281   2.416460   2.744607   4.208018   2.398157
    23  O    4.667477   3.529168   3.955653   5.411587   3.489836
    24  N    2.405065   1.392007   2.376963   3.738848   2.775851
    25  C    2.936041   2.525790   3.764439   5.009954   4.248754
    26  F    4.174576   3.603889   4.678640   6.033922   4.858111
    27  F    2.676816   2.810266   4.162745   5.184031   4.924809
    28  C    3.523610   3.375708   4.574056   5.680067   5.114916
    29  F    2.913271   3.032130   4.126291   4.965982   4.892205
    30  O    4.261106   4.466827   5.771841   6.760534   6.448216
    31  C    5.370738   5.441246   6.746532   7.858796   7.270455
    32  F    5.251155   5.206356   6.499336   7.687244   6.947619
    33  F    6.212965   6.070802   7.260896   8.458544   7.587361
    34  F    6.182792   6.473619   7.825849   8.831356   8.467335
    35  C    4.684727   4.203397   5.127797   6.332806   5.314499
    36  F    5.577210   5.283565   6.189710   7.261732   6.440843
    37  F    5.550396   4.929085   5.827646   7.163949   5.805515
    38  F    4.590183   3.854978   4.450407   5.635255   4.431331
    39  H    1.084464   2.142953   2.652032   2.492759   4.039407
    40  H    1.082714   2.159417   3.386275   3.898427   4.588110
    41  H    2.803696   2.781670   2.101901   1.094311   3.143599
    42  H    3.903423   3.412912   2.142203   1.093253   2.520330
    43  H    2.807811   2.794024   2.098369   1.094116   3.138810
                    6          7          8          9         10
     6  O    0.000000
     7  N    2.276365   0.000000
     8  C    2.705594   1.454889   0.000000
     9  F    2.470869   2.299386   1.366041   0.000000
    10  F    3.963360   2.289629   1.365860   2.136287   0.000000
    11  C    3.299308   2.544062   1.552186   2.391260   2.394685
    12  F    4.265560   2.980522   2.383503   3.560722   2.774693
    13  O    2.765297   2.894179   2.444203   2.962583   3.632015
    14  C    3.979561   4.275028   3.716297   4.149528   4.757850
    15  F    5.014624   4.766920   4.166325   4.882251   4.933279
    16  F    4.219387   4.902708   4.671282   5.055562   5.838285
    17  F    4.428469   5.001808   4.160293   4.223187   5.124421
    18  C    4.328144   3.804332   2.453423   2.724017   2.792356
    19  F    5.329844   4.906033   3.678281   4.036121   4.000742
    20  F    5.144388   4.171057   2.771227   3.080208   2.407863
    21  F    4.135496   4.235797   2.904237   2.492196   3.421794
    22  C    3.505071   1.368630   2.410939   3.527403   2.699597
    23  O    4.470895   2.265284   2.685476   3.976879   2.518217
    24  N    4.000907   2.351426   3.672978   4.618128   4.008963
    25  C    5.470288   3.670475   4.821298   5.884131   4.861901
    26  F    6.050071   3.946639   4.801913   5.903402   4.460542
    27  F    6.142853   4.561437   5.816549   6.712806   5.831921
    28  C    6.264144   4.632374   5.701632   6.881341   5.858623
    29  F    5.946570   4.773959   5.967541   7.045071   6.415915
    30  O    7.617419   5.991183   7.074264   8.240104   7.121009
    31  C    8.465729   6.595684   7.525783   8.729191   7.319410
    32  F    8.166324   6.173837   7.069566   8.194831   6.697044
    33  F    8.728038   6.779447   7.508545   8.798997   7.243657
    34  F    9.669814   7.865810   8.843318  10.022374   8.629943
    35  C    6.352619   4.626774   5.377349   6.684023   5.489591
    36  F    7.408340   5.856546   6.554121   7.867992   6.719545
    37  F    6.846860   4.843726   5.351712   6.692232   5.134930
    38  F    5.333438   3.819349   4.464275   5.754974   4.823874
    39  H    4.842026   4.758011   6.190384   6.634355   6.912566
    40  H    5.659028   4.810998   6.246152   6.973064   6.688612
    41  H    3.424228   4.315749   5.508117   5.732652   6.591670
    42  H    2.262737   3.885336   4.802177   4.627207   5.954383
    43  H    3.467950   4.271905   5.486045   5.466006   6.387216
                   11         12         13         14         15
    11  C    0.000000
    12  F    1.365184   0.000000
    13  O    1.433191   2.224365   0.000000
    14  C    2.369766   2.817427   1.402118   0.000000
    15  F    2.652152   2.461680   2.264289   1.341565   0.000000
    16  F    3.515207   3.856769   2.229907   1.345957   2.184964
    17  F    2.896390   3.653337   2.240386   1.342573   2.202603
    18  C    1.535249   2.374166   2.534822   2.909076   3.074295
    19  F    2.390286   2.752594   3.012868   2.731861   2.498822
    20  F    2.411291   2.866067   3.705809   4.196577   4.143381
    21  F    2.395039   3.561785   2.930005   3.284104   3.865211
    22  C    3.211365   3.042092   3.682895   4.930845   5.108651
    23  O    3.180944   2.593917   3.971164   5.045355   4.917427
    24  N    4.467601   4.255135   4.661537   5.877655   6.099816
    25  C    5.502868   4.981885   5.826845   6.931347   6.920416
    26  F    5.542209   4.930198   6.179696   7.281106   7.138090
    27  F    6.678881   6.284633   6.951128   8.117883   8.209927
    28  C    6.014227   5.245979   6.166490   7.042705   6.847901
    29  F    6.191253   5.569162   6.021323   6.834459   6.788559
    30  O    7.425618   6.603518   7.601315   8.444910   8.188084
    31  C    7.911866   6.993471   8.309354   9.154483   8.772693
    32  F    7.674123   6.874153   8.230588   9.211335   8.913161
    33  F    7.673703   6.591707   8.140092   8.836410   8.272035
    34  F    9.249229   8.328206   9.606997  10.435342  10.045197
    35  C    5.345546   4.325215   5.584813   6.260337   5.818934
    36  F    6.308874   5.192744   6.410406   6.859944   6.270919
    37  F    5.371030   4.250422   5.933400   6.623133   6.053083
    38  F    4.216406   3.244516   4.302489   4.925725   4.542425
    39  H    6.950362   7.060026   6.528693   7.628449   8.209504
    40  H    7.000196   6.803100   6.848452   7.957163   8.269943
    41  H    5.979267   6.366601   5.172024   6.109195   6.938098
    42  H    5.411019   6.152353   4.643375   5.664136   6.711868
    43  H    6.372182   6.917628   5.857381   7.012777   7.899436
                   16         17         18         19         20
    16  F    0.000000
    17  F    2.183781   0.000000
    18  C    4.228250   2.760135   0.000000
    19  F    4.042866   2.422131   1.356474   0.000000
    20  F    5.522327   4.081807   1.349975   2.161428   0.000000
    21  F    4.456092   2.680817   1.352041   2.170028   2.177768
    22  C    5.517813   5.851963   4.529287   5.483133   4.703947
    23  O    5.799342   5.959830   4.322626   5.137546   4.272001
    24  N    6.215542   6.896220   5.857584   6.777613   6.084954
    25  C    7.278249   8.022066   6.838107   7.657387   6.900889
    26  F    7.843132   8.278990   6.680558   7.512838   6.481311
    27  F    8.392204   9.180164   8.001436   8.906489   8.030106
    28  C    7.226427   8.265840   7.403809   7.996536   7.586473
    29  F    6.766573   8.102134   7.681091   8.240819   8.085765
    30  O    8.585556   9.683022   8.783079   9.353939   8.885735
    31  C    9.454759  10.343201   9.136369   9.695646   9.040995
    32  F    9.648049  10.308233   8.817479   9.516151   8.580556
    33  F    9.199358  10.018687   8.800812   9.202074   8.671347
    34  F   10.671049  11.645661  10.482013  11.030105  10.376176
    35  C    6.544559   7.494685   6.638115   7.028419   6.818611
    36  F    6.991498   8.141690   7.563754   7.760510   7.811835
    37  F    7.143811   7.746772   6.460634   6.852270   6.383219
    38  F    5.193468   6.182244   5.569479   5.913581   5.948345
    39  H    7.418378   8.611880   8.388070   9.297385   8.914731
    40  H    7.914217   9.051989   8.457428   9.330740   8.793439
    41  H    5.685788   6.970147   7.347868   8.147615   8.161940
    42  H    5.421446   6.234002   6.558949   7.475263   7.383827
    43  H    6.852427   7.710366   7.615085   8.635495   8.231144
                   21         22         23         24         25
    21  F    0.000000
    22  C    5.248060   0.000000
    23  O    5.286853   1.228345   0.000000
    24  N    6.506064   1.382991   2.276513   0.000000
    25  C    7.649957   2.417545   2.673130   1.477388   0.000000
    26  F    7.578893   2.646179   2.390457   2.332307   1.360327
    27  F    8.705493   3.486523   3.910502   2.309748   1.375137
    28  C    8.336279   3.383829   3.406257   2.585048   1.554887
    29  F    8.497171   3.776732   4.127979   2.809977   2.370832
    30  O    9.741663   4.716869   4.669250   3.808924   2.516684
    31  C   10.175163   5.243413   4.925675   4.543429   3.096091
    32  F    9.798782   4.842392   4.524340   4.207239   2.759820
    33  F    9.948328   5.423954   4.843701   5.020153   3.699498
    34  F   11.515911   6.528442   6.261231   5.719442   4.267035
    35  C    7.720269   3.411893   3.009326   3.209304   2.534166
    36  F    8.688938   4.714081   4.297469   4.458418   3.729381
    37  F    7.634468   3.578783   2.765678   3.688550   2.896749
    38  F    6.611013   2.866024   2.596791   2.997638   2.983464
    39  H    8.672636   4.557449   5.634956   3.403214   4.019500
    40  H    8.985756   4.112661   4.932024   2.738923   2.683756
    41  H    7.421538   4.664856   5.805570   4.058325   5.176676
    42  H    6.350559   4.711349   5.881661   4.518010   5.886546
    43  H    7.554354   4.732862   5.958782   4.102553   5.258069
                   26         27         28         29         30
    26  F    0.000000
    27  F    2.128304   0.000000
    28  C    2.400366   2.363138   0.000000
    29  F    3.560465   2.906467   1.383111   0.000000
    30  O    3.089625   2.664308   1.438670   2.181797   0.000000
    31  C    3.048905   3.217106   2.400922   3.494301   1.404788
    32  F    2.293953   2.708612   2.796137   4.028345   2.256240
    33  F    3.440461   4.217716   2.817275   3.964088   2.252897
    34  F    4.270263   4.068293   3.549260   4.396429   2.228015
    35  C    2.861358   3.696194   1.526702   2.331900   2.509788
    36  F    4.093756   4.708265   2.368266   2.800363   2.783347
    37  F    2.548938   4.059706   2.402163   3.540614   3.110731
    38  F    3.447475   4.276506   2.382900   2.642711   3.653331
    39  H    5.252427   3.664349   4.507531   3.703750   5.158130
    40  H    3.927057   2.085729   3.085883   2.578289   3.494665
    41  H    6.342121   5.358674   5.557546   4.616665   6.569099
    42  H    6.816431   6.165708   6.571384   5.881915   7.728951
    43  H    6.256258   5.156090   6.070506   5.413923   7.011446
                   31         32         33         34         35
    31  C    0.000000
    32  F    1.338327   0.000000
    33  F    1.339422   2.198664   0.000000
    34  F    1.345763   2.179894   2.180609   0.000000
    35  C    3.004629   3.494459   2.682378   4.233475   0.000000
    36  F    3.251997   4.146098   2.652679   4.210735   1.357663
    37  F    2.994405   3.181180   2.354033   4.270837   1.345349
    38  F    4.314853   4.661508   4.017596   5.552159   1.353881
    39  H    6.327637   6.256362   7.202998   7.041240   5.649420
    40  H    4.599134   4.543309   5.576334   5.269810   4.464243
    41  H    7.785373   7.795942   8.373330   8.692007   6.216803
    42  H    8.801947   8.609209   9.320415   9.825570   7.065398
    43  H    8.070804   7.796965   8.811163   8.955827   6.915838
                   36         37         38         39         40
    36  F    0.000000
    37  F    2.173556   0.000000
    38  F    2.166641   2.187165   0.000000
    39  H    6.447059   6.586181   5.467116   0.000000
    40  H    5.254832   5.315581   4.679267   1.792630   0.000000
    41  H    6.975971   7.208378   5.527447   2.311085   3.788746
    42  H    7.995545   7.847678   6.219610   3.568351   4.982951
    43  H    7.885088   7.699222   6.377930   2.273697   3.815944
                   41         42         43
    41  H    0.000000
    42  H    1.764627   0.000000
    43  H    1.799302   1.761113   0.000000
 Symmetry turned off by external request.
 Stoichiometry    C13H5F18N3O4(1+,2)
 Framework group  C1[X(C13H5F18N3O4)]
 Deg. of freedom   123
 Full point group                 C1      NOp   1
 Rotational constants (GHZ):      0.1874021      0.0655326      0.0607768
 Leave Link  202 at Sun Mar  3 17:37:12 2024, MaxMem=  5368709120 cpu:         0.1
 (Enter /home/k0335/k033513/app/g09/l301.exe)
 Standard basis: 6-31G(d,p) (6D, 7F)
 Ernie: Thresh=  0.10000D-02 Tol=  0.10000D-05 Strict=F.
   595 basis functions,  1099 primitive gaussians,   595 cartesian basis functions
   149 alpha electrons      148 beta electrons
       nuclear repulsion energy      5693.3026526755 Hartrees.
 IExCor=20419 DFT=T Ex+Corr=CAM-B3LYP ExCW=0 ScaHFX=  1.000000
 ScaDFX=  1.000000  1.000000  1.000000  0.810000 ScalE2=  1.000000  1.000000
 IRadAn=      0 IRanWt=     -1 IRanGd=            0 ICorTp=0 IEmpDi=  4
  HFx wShort=  0.000000 wLong=  0.330000 cFull=  0.190000 cShort=  0.000000 cLong=  0.460000
  DFx wShort=  0.000000 wLong=  0.330000 cFull=  0.190000 cShort=  0.000000 cLong=  0.460000
 NAtoms=   43 NActive=   43 NUniq=   43 SFac= 1.00D+00 NAtFMM=   60 NAOKFM=F Big=F
 Integral buffers will be    131072 words long.
 Raffenetti 2 integral format.
 Two-electron integral symmetry is turned off.
 Using the following non-standard input for PCM:
 eps=4.9
 --- end of non-standard input.
 ------------------------------------------------------------------------------
 Polarizable Continuum Model (PCM)
 =================================
 Model                : PCM (using non-symmetric T matrix).
 Atomic radii         : UFF (Universal Force Field).
 Polarization charges : Total charges.
 Charge compensation  : None.
 Solution method      : On-the-fly selection.
 Cavity type          : Scaled VdW (van der Waals Surface) (Alpha=1.100).
 Cavity algorithm     : GePol (No added spheres)
                        Default sphere list used, NSphG=   43.
                        Lebedev-Laikov grids with approx.  5.0 points / Ang**2.
                        Smoothing algorithm: Karplus/York (Gamma=1.0000).
                        Polarization charges: spherical gaussians, with
                                              point-specific exponents (IZeta= 3).
                        Self-potential: point-specific (ISelfS= 7).
                        Self-field    : sphere-specific E.n sum rule (ISelfD= 2).
 Solvent              : Generic,
                        Eps                           =   4.900000
                        Eps(infinity)                 =   0.000000
                        RSolv                         =   0.000000 Ang.
                        Molar volume                  =   0.000000 cm**3/mol
                        Thermal expansion coefficient =   0.000000 K**-1
                        Absolute temperature          = 298.150000 K
                        Numeral density               =   0.000000 Ang**-3
                        Hydrogen bond acidity         =   0.000000
                        Hydrogen bond basicity        =   0.000000
                        Surface tension at interface  =   0.000000 (cal/mol)*Ang**-2
                        Carbon aromaticity            =   0.000000
                        Electronegative halogenicity  =   0.000000
 ------------------------------------------------------------------------------
 GePol: Number of generator spheres                  =      43
 GePol: Total number of spheres                      =      43
 GePol: Number of exposed spheres                    =      43 (100.00%)
 GePol: Number of points                             =    3427
 GePol: Average weight of points                     =       0.12
 GePol: Minimum weight of points                     =   0.63D-11
 GePol: Maximum weight of points                     =    0.20577
 GePol: Number of points with low weight             =     131
 GePol: Fraction of low-weight points (<1% of avg)   =       3.82%
 GePol: Cavity surface area                          =    427.443 Ang**2
 GePol: Cavity volume                                =    508.160 Ang**3
 Leave Link  301 at Sun Mar  3 17:37:12 2024, MaxMem=  5368709120 cpu:         0.7
 (Enter /home/k0335/k033513/app/g09/l302.exe)
 NPDir=0 NMtPBC=     1 NCelOv=     1 NCel=       1 NClECP=     1 NCelD=      1
         NCelK=      1 NCelE2=     1 NClLst=     1 CellRange=     0.0.
 One-electron integrals computed using PRISM.
 NBasis=   595 RedAO= T EigKep=  1.08D-03  NBF=   595
 NBsUse=   595 1.00D-06 EigRej= -1.00D+00 NBFU=   595
 Precomputing XC quadrature grid using
 IXCGrd= 4 IRadAn=           0 IRanWt=          -1 IRanGd=           0 AccXCQ= 0.00D+00.
 Generated NRdTot=       0 NPtTot=           0 NUsed=           0 NTot=          32
 NSgBfM=   582   582   582   582   582 MxSgAt=    43 MxSgA2=    43.
 Leave Link  302 at Sun Mar  3 17:37:12 2024, MaxMem=  5368709120 cpu:        11.6
 (Enter /home/k0335/k033513/app/g09/l303.exe)
 DipDrv:  MaxL=1.
 Leave Link  303 at Sun Mar  3 17:37:12 2024, MaxMem=  5368709120 cpu:         0.9
 (Enter /home/k0335/k033513/app/g09/l401.exe)
 ExpMin= 1.61D-01 ExpMax= 7.00D+03 ExpMxC= 1.05D+03 IAcc=1 IRadAn=         1 AccDes= 0.00D+00
 Harris functional with IExCor=20419 and IRadAn=       1 diagonalized for initial guess.
 HarFok:  IExCor=20419 AccDes= 0.00D+00 IRadAn=         1 IDoV= 1 UseB2=F ITyADJ=14
 ICtDFT=  3500011 ScaDFX=  1.000000  1.000000  1.000000  1.000000
 FoFCou: FMM=F IPFlag=           0 FMFlag=      100000 FMFlg1=           0
         NFxFlg=           0 DoJE=T BraDBF=F KetDBF=T FulRan=T
         wScrn=  0.000000 ICntrl=     500 IOpCl=  0 I1Cent=   200000004 NGrid=           0
         NMat0=    1 NMatS0=      1 NMatT0=    0 NMatD0=    1 NMtDS0=    0 NMtDT0=    0
 Symmetry not used in FoFCou.
 Harris En= -2677.09491893042    
 JPrj=0 DoOrth=F DoCkMO=F.
 Initial guess <Sx>= 0.0000 <Sy>= 0.0000 <Sz>= 0.5000 <S**2>= 0.7500 S= 0.5000
 Leave Link  401 at Sun Mar  3 17:37:13 2024, MaxMem=  5368709120 cpu:        15.9
 (Enter /home/k0335/k033513/app/g09/l502.exe)
 UHF open shell SCF:
 Using DIIS extrapolation, IDIIS=  1040.
 Two-electron integral symmetry not used.
 IVT=     1098561 IEndB=     1098561 NGot=  5368709120 MDV=  5367981820
 LenX=  5367981820 LenY=  5367627200
 Requested convergence on RMS density matrix=1.00D-08 within 128 cycles.
 Requested convergence on MAX density matrix=1.00D-06.
 Requested convergence on             energy=1.00D-06.
 No special actions if energy rises.
 Fock matrices will be formed incrementally for  20 cycles.

 Cycle   1  Pass 1  IDiag  1:
 FoFJK:  IHMeth= 1 ICntrl=       0 DoSepK=T KAlg= 0 I1Cent=   0 FoldK=F
 IRaf=         1 NMat=   1 IRICut=       1 DoRegI=T DoRafI=F ISym2E= 0.
 FoFCou: FMM=F IPFlag=           0 FMFlag=      100000 FMFlg1=           0
         NFxFlg=           0 DoJE=T BraDBF=F KetDBF=F FulRan=T
         wScrn=  0.000000 ICntrl=     500 IOpCl=  0 I1Cent=           0 NGrid=           0
         NMat0=    1 NMatS0=      1 NMatT0=    0 NMatD0=    1 NMtDS0=    0 NMtDT0=    0
 Symmetry not used in FoFCou.
 Inv3:  Mode=1 IEnd=    35232987.
 Iteration    1 A*A^-1 deviation from unit magnitude is 7.55D-15 for    264.
 Iteration    1 A*A^-1 deviation from orthogonality  is 2.76D-15 for   2738   1564.
 Iteration    1 A^-1*A deviation from unit magnitude is 6.66D-15 for    712.
 Iteration    1 A^-1*A deviation from orthogonality  is 1.46D-12 for   3019   3016.
 E= -2758.46216785250    
 DIIS: error= 4.06D-02 at cycle   1 NSaved=   1.
 NSaved= 1 IEnMin= 1 EnMin= -2758.46216785250     IErMin= 1 ErrMin= 4.06D-02
 ErrMax= 4.06D-02  0.00D+00 EMaxC= 1.00D-01 BMatC= 9.91D+00 BMatP= 9.91D+00
 IDIUse=3 WtCom= 5.94D-01 WtEn= 4.06D-01
 Coeff-Com:  0.100D+01
 Coeff-En:   0.100D+01
 Coeff:      0.100D+01
 Gap=     0.406 Goal=   None    Shift=    0.000
 Gap=     0.163 Goal=   None    Shift=    0.000
 GapD=    0.163 DampG=1.000 DampE=0.500 DampFc=0.5000 IDamp=-1.
 Damping current iteration by 5.00D-01
 RMSDP=3.42D-03 MaxDP=1.53D-01              OVMax= 3.95D-01

 Cycle   2  Pass 1  IDiag  1:
 RMSU=  1.71D-03    CP:  1.00D+00
 E= -2759.02441315033     Delta-E=       -0.562245297830 Rises=F Damp=T
 DIIS: error= 1.97D-02 at cycle   2 NSaved=   2.
 NSaved= 2 IEnMin= 2 EnMin= -2759.02441315033     IErMin= 2 ErrMin= 1.97D-02
 ErrMax= 1.97D-02  0.00D+00 EMaxC= 1.00D-01 BMatC= 1.23D+00 BMatP= 9.91D+00
 IDIUse=3 WtCom= 8.03D-01 WtEn= 1.97D-01
 Coeff-Com: -0.239D+00 0.124D+01
 Coeff-En:   0.000D+00 0.100D+01
 Coeff:     -0.192D+00 0.119D+01
 Gap=     0.406 Goal=   None    Shift=    0.000
 Gap=     0.236 Goal=   None    Shift=    0.000
 RMSDP=1.17D-03 MaxDP=7.50D-02 DE=-5.62D-01 OVMax= 2.28D-01

 Cycle   3  Pass 1  IDiag  1:
 RMSU=  1.12D-03    CP:  1.00D+00  1.20D+00
 E= -2759.44537749559     Delta-E=       -0.420964345260 Rises=F Damp=F
 DIIS: error= 9.77D-03 at cycle   3 NSaved=   3.
 NSaved= 3 IEnMin= 3 EnMin= -2759.44537749559     IErMin= 3 ErrMin= 9.77D-03
 ErrMax= 9.77D-03  0.00D+00 EMaxC= 1.00D-01 BMatC= 7.92D-01 BMatP= 1.23D+00
 IDIUse=3 WtCom= 9.02D-01 WtEn= 9.77D-02
 Coeff-Com: -0.189D+00 0.645D+00 0.544D+00
 Coeff-En:   0.000D+00 0.000D+00 0.100D+01
 Coeff:     -0.171D+00 0.582D+00 0.588D+00
 Gap=     0.347 Goal=   None    Shift=    0.000
 Gap=     0.188 Goal=   None    Shift=    0.000
 RMSDP=8.34D-04 MaxDP=8.61D-02 DE=-4.21D-01 OVMax= 1.38D-01

 Cycle   4  Pass 1  IDiag  1:
 RMSU=  5.00D-04    CP:  1.00D+00  1.40D+00  4.86D-01
 E= -2759.56722387221     Delta-E=       -0.121846376616 Rises=F Damp=F
 DIIS: error= 4.67D-03 at cycle   4 NSaved=   4.
 NSaved= 4 IEnMin= 4 EnMin= -2759.56722387221     IErMin= 4 ErrMin= 4.67D-03
 ErrMax= 4.67D-03  0.00D+00 EMaxC= 1.00D-01 BMatC= 1.58D-01 BMatP= 7.92D-01
 IDIUse=3 WtCom= 9.53D-01 WtEn= 4.67D-02
 Coeff-Com: -0.511D-01 0.125D+00 0.334D+00 0.592D+00
 Coeff-En:   0.000D+00 0.000D+00 0.167D+00 0.833D+00
 Coeff:     -0.487D-01 0.119D+00 0.326D+00 0.604D+00
 Gap=     0.352 Goal=   None    Shift=    0.000
 Gap=     0.198 Goal=   None    Shift=    0.000
 RMSDP=3.10D-04 MaxDP=3.53D-02 DE=-1.22D-01 OVMax= 3.94D-02

 Cycle   5  Pass 1  IDiag  1:
 RMSU=  1.43D-04    CP:  9.99D-01  1.36D+00  6.87D-01  7.14D-01
 E= -2759.59546130993     Delta-E=       -0.028237437729 Rises=F Damp=F
 DIIS: error= 8.18D-04 at cycle   5 NSaved=   5.
 NSaved= 5 IEnMin= 5 EnMin= -2759.59546130993     IErMin= 5 ErrMin= 8.18D-04
 ErrMax= 8.18D-04  0.00D+00 EMaxC= 1.00D-01 BMatC= 7.55D-03 BMatP= 1.58D-01
 IDIUse=3 WtCom= 9.92D-01 WtEn= 8.18D-03
 Coeff-Com: -0.115D-01 0.193D-01 0.129D+00 0.309D+00 0.554D+00
 Coeff-En:   0.000D+00 0.000D+00 0.000D+00 0.000D+00 0.100D+01
 Coeff:     -0.114D-01 0.191D-01 0.127D+00 0.307D+00 0.558D+00
 Gap=     0.345 Goal=   None    Shift=    0.000
 Gap=     0.195 Goal=   None    Shift=    0.000
 RMSDP=6.95D-05 MaxDP=7.19D-03 DE=-2.82D-02 OVMax= 1.46D-02

 Cycle   6  Pass 1  IDiag  1:
 RMSU=  5.71D-05    CP:  9.99D-01  1.36D+00  6.82D-01  7.68D-01  8.32D-01
 E= -2759.59719808303     Delta-E=       -0.001736773100 Rises=F Damp=F
 DIIS: error= 4.01D-04 at cycle   6 NSaved=   6.
 NSaved= 6 IEnMin= 6 EnMin= -2759.59719808303     IErMin= 6 ErrMin= 4.01D-04
 ErrMax= 4.01D-04  0.00D+00 EMaxC= 1.00D-01 BMatC= 4.70D-04 BMatP= 7.55D-03
 IDIUse=3 WtCom= 9.96D-01 WtEn= 4.01D-03
 Coeff-Com:  0.568D-02-0.145D-01-0.289D-01-0.423D-01 0.122D+00 0.958D+00
 Coeff-En:   0.000D+00 0.000D+00 0.000D+00 0.000D+00 0.000D+00 0.100D+01
 Coeff:      0.566D-02-0.145D-01-0.288D-01-0.421D-01 0.121D+00 0.959D+00
 Gap=     0.347 Goal=   None    Shift=    0.000
 Gap=     0.198 Goal=   None    Shift=    0.000
 RMSDP=4.33D-05 MaxDP=6.26D-03 DE=-1.74D-03 OVMax= 1.34D-02

 Cycle   7  Pass 1  IDiag  1:
 RMSU=  2.30D-05    CP:  9.99D-01  1.36D+00  6.91D-01  8.01D-01  1.01D+00
                    CP:  1.31D+00
 E= -2759.59757551440     Delta-E=       -0.000377431365 Rises=F Damp=F
 DIIS: error= 2.10D-04 at cycle   7 NSaved=   7.
 NSaved= 7 IEnMin= 7 EnMin= -2759.59757551440     IErMin= 7 ErrMin= 2.10D-04
 ErrMax= 2.10D-04  0.00D+00 EMaxC= 1.00D-01 BMatC= 1.31D-04 BMatP= 4.70D-04
 IDIUse=3 WtCom= 9.98D-01 WtEn= 2.10D-03
 Coeff-Com:  0.388D-02-0.740D-02-0.311D-01-0.694D-01-0.356D-01 0.364D+00
 Coeff-Com:  0.776D+00
 Coeff-En:   0.000D+00 0.000D+00 0.000D+00 0.000D+00 0.000D+00 0.000D+00
 Coeff-En:   0.100D+01
 Coeff:      0.388D-02-0.739D-02-0.311D-01-0.693D-01-0.355D-01 0.363D+00
 Coeff:      0.776D+00
 Gap=     0.347 Goal=   None    Shift=    0.000
 Gap=     0.201 Goal=   None    Shift=    0.000
 RMSDP=2.08D-05 MaxDP=2.06D-03 DE=-3.77D-04 OVMax= 7.46D-03

 Cycle   8  Pass 1  IDiag  1:
 RMSU=  1.08D-05    CP:  9.99D-01  1.36D+00  6.93D-01  8.05D-01  1.08D+00
                    CP:  1.54D+00  1.20D+00
 E= -2759.59767659341     Delta-E=       -0.000101079009 Rises=F Damp=F
 DIIS: error= 9.69D-05 at cycle   8 NSaved=   8.
 NSaved= 8 IEnMin= 8 EnMin= -2759.59767659341     IErMin= 8 ErrMin= 9.69D-05
 ErrMax= 9.69D-05  0.00D+00 EMaxC= 1.00D-01 BMatC= 2.55D-05 BMatP= 1.31D-04
 IDIUse=1 WtCom= 1.00D+00 WtEn= 0.00D+00
 Coeff-Com: -0.648D-03 0.199D-02 0.411D-03-0.588D-02-0.279D-01-0.160D+00
 Coeff-Com:  0.109D+00 0.108D+01
 Coeff:     -0.648D-03 0.199D-02 0.411D-03-0.588D-02-0.279D-01-0.160D+00
 Coeff:      0.109D+00 0.108D+01
 Gap=     0.347 Goal=   None    Shift=    0.000
 Gap=     0.201 Goal=   None    Shift=    0.000
 RMSDP=1.60D-05 MaxDP=1.88D-03 DE=-1.01D-04 OVMax= 6.00D-03

 Cycle   9  Pass 1  IDiag  1:
 RMSU=  5.49D-06    CP:  9.99D-01  1.36D+00  6.95D-01  8.08D-01  1.13D+00
                    CP:  1.68D+00  1.60D+00  1.53D+00
 E= -2759.59771365914     Delta-E=       -0.000037065733 Rises=F Damp=F
 DIIS: error= 3.91D-05 at cycle   9 NSaved=   9.
 NSaved= 9 IEnMin= 9 EnMin= -2759.59771365914     IErMin= 9 ErrMin= 3.91D-05
 ErrMax= 3.91D-05  0.00D+00 EMaxC= 1.00D-01 BMatC= 8.82D-06 BMatP= 2.55D-05
 IDIUse=1 WtCom= 1.00D+00 WtEn= 0.00D+00
 Coeff-Com: -0.120D-02 0.249D-02 0.763D-02 0.148D-01 0.184D-02-0.140D+00
 Coeff-Com: -0.141D+00 0.434D+00 0.821D+00
 Coeff:     -0.120D-02 0.249D-02 0.763D-02 0.148D-01 0.184D-02-0.140D+00
 Coeff:     -0.141D+00 0.434D+00 0.821D+00
 Gap=     0.347 Goal=   None    Shift=    0.000
 Gap=     0.201 Goal=   None    Shift=    0.000
 RMSDP=7.54D-06 MaxDP=1.02D-03 DE=-3.71D-05 OVMax= 2.91D-03

 Cycle  10  Pass 1  IDiag  1:
 RMSU=  2.86D-06    CP:  9.99D-01  1.36D+00  6.95D-01  8.10D-01  1.14D+00
                    CP:  1.73D+00  1.77D+00  1.94D+00  1.32D+00
 E= -2759.59772369486     Delta-E=       -0.000010035719 Rises=F Damp=F
 DIIS: error= 2.34D-05 at cycle  10 NSaved=  10.
 NSaved=10 IEnMin=10 EnMin= -2759.59772369486     IErMin=10 ErrMin= 2.34D-05
 ErrMax= 2.34D-05  0.00D+00 EMaxC= 1.00D-01 BMatC= 2.40D-06 BMatP= 8.82D-06
 IDIUse=1 WtCom= 1.00D+00 WtEn= 0.00D+00
 Coeff-Com:  0.422D-04-0.238D-03 0.914D-03 0.414D-02 0.958D-02 0.266D-01
 Coeff-Com: -0.588D-01-0.276D+00 0.139D+00 0.116D+01
 Coeff:      0.422D-04-0.238D-03 0.914D-03 0.414D-02 0.958D-02 0.266D-01
 Coeff:     -0.588D-01-0.276D+00 0.139D+00 0.116D+01
 Gap=     0.347 Goal=   None    Shift=    0.000
 Gap=     0.201 Goal=   None    Shift=    0.000
 RMSDP=6.22D-06 MaxDP=9.36D-04 DE=-1.00D-05 OVMax= 2.33D-03

 Cycle  11  Pass 1  IDiag  1:
 RMSU=  1.61D-06    CP:  9.99D-01  1.36D+00  6.95D-01  8.10D-01  1.14D+00
                    CP:  1.76D+00  1.89D+00  2.25D+00  1.87D+00  1.72D+00
 E= -2759.59772859377     Delta-E=       -0.000004898911 Rises=F Damp=F
 DIIS: error= 1.83D-05 at cycle  11 NSaved=  11.
 NSaved=11 IEnMin=11 EnMin= -2759.59772859377     IErMin=11 ErrMin= 1.83D-05
 ErrMax= 1.83D-05  0.00D+00 EMaxC= 1.00D-01 BMatC= 7.28D-07 BMatP= 2.40D-06
 IDIUse=1 WtCom= 1.00D+00 WtEn= 0.00D+00
 Coeff-Com:  0.385D-03-0.833D-03-0.209D-02-0.358D-02 0.229D-02 0.502D-01
 Coeff-Com:  0.311D-01-0.210D+00-0.192D+00 0.317D+00 0.101D+01
 Coeff:      0.385D-03-0.833D-03-0.209D-02-0.358D-02 0.229D-02 0.502D-01
 Coeff:      0.311D-01-0.210D+00-0.192D+00 0.317D+00 0.101D+01
 Gap=     0.347 Goal=   None    Shift=    0.000
 Gap=     0.201 Goal=   None    Shift=    0.000
 RMSDP=3.40D-06 MaxDP=5.57D-04 DE=-4.90D-06 OVMax= 1.27D-03

 Cycle  12  Pass 1  IDiag  1:
 RMSU=  9.63D-07    CP:  9.99D-01  1.36D+00  6.95D-01  8.10D-01  1.15D+00
                    CP:  1.77D+00  1.94D+00  2.40D+00  2.19D+00  2.28D+00
                    CP:  1.51D+00
 E= -2759.59773009959     Delta-E=       -0.000001505821 Rises=F Damp=F
 DIIS: error= 1.07D-05 at cycle  12 NSaved=  12.
 NSaved=12 IEnMin=12 EnMin= -2759.59773009959     IErMin=12 ErrMin= 1.07D-05
 ErrMax= 1.07D-05  0.00D+00 EMaxC= 1.00D-01 BMatC= 2.88D-07 BMatP= 7.28D-07
 IDIUse=1 WtCom= 1.00D+00 WtEn= 0.00D+00
 Coeff-Com:  0.155D-03-0.295D-03-0.109D-02-0.277D-02-0.232D-02 0.106D-01
 Coeff-Com:  0.359D-01 0.460D-02-0.129D+00-0.279D+00 0.411D+00 0.952D+00
 Coeff:      0.155D-03-0.295D-03-0.109D-02-0.277D-02-0.232D-02 0.106D-01
 Coeff:      0.359D-01 0.460D-02-0.129D+00-0.279D+00 0.411D+00 0.952D+00
 Gap=     0.347 Goal=   None    Shift=    0.000
 Gap=     0.201 Goal=   None    Shift=    0.000
 RMSDP=2.17D-06 MaxDP=3.35D-04 DE=-1.51D-06 OVMax= 7.92D-04

 Cycle  13  Pass 1  IDiag  1:
 RMSU=  5.03D-07    CP:  9.99D-01  1.36D+00  6.95D-01  8.10D-01  1.15D+00
                    CP:  1.78D+00  1.96D+00  2.48D+00  2.37D+00  2.65D+00
                    CP:  2.08D+00  1.42D+00
 E= -2759.59773059375     Delta-E=       -0.000000494154 Rises=F Damp=F
 DIIS: error= 5.04D-06 at cycle  13 NSaved=  13.
 NSaved=13 IEnMin=13 EnMin= -2759.59773059375     IErMin=13 ErrMin= 5.04D-06
 ErrMax= 5.04D-06  0.00D+00 EMaxC= 1.00D-01 BMatC= 7.56D-08 BMatP= 2.88D-07
 IDIUse=1 WtCom= 1.00D+00 WtEn= 0.00D+00
 Coeff-Com: -0.535D-04 0.128D-03 0.226D-03-0.205D-04-0.198D-02-0.128D-01
 Coeff-Com:  0.659D-02 0.694D-01 0.803D-02-0.218D+00-0.162D+00 0.389D+00
 Coeff-Com:  0.921D+00
 Coeff:     -0.535D-04 0.128D-03 0.226D-03-0.205D-04-0.198D-02-0.128D-01
 Coeff:      0.659D-02 0.694D-01 0.803D-02-0.218D+00-0.162D+00 0.389D+00
 Coeff:      0.921D+00
 Gap=     0.348 Goal=   None    Shift=    0.000
 Gap=     0.201 Goal=   None    Shift=    0.000
 RMSDP=1.12D-06 MaxDP=1.84D-04 DE=-4.94D-07 OVMax= 4.19D-04

 Cycle  14  Pass 1  IDiag  1:
 RMSU=  2.74D-07    CP:  9.99D-01  1.36D+00  6.95D-01  8.10D-01  1.15D+00
                    CP:  1.78D+00  1.97D+00  2.52D+00  2.45D+00  2.83D+00
                    CP:  2.38D+00  1.84D+00  1.21D+00
 E= -2759.59773069804     Delta-E=       -0.000000104295 Rises=F Damp=F
 DIIS: error= 2.34D-06 at cycle  14 NSaved=  14.
 NSaved=14 IEnMin=14 EnMin= -2759.59773069804     IErMin=14 ErrMin= 2.34D-06
 ErrMax= 2.34D-06  0.00D+00 EMaxC= 1.00D-01 BMatC= 2.06D-08 BMatP= 7.56D-08
 IDIUse=1 WtCom= 1.00D+00 WtEn= 0.00D+00
 Coeff-Com: -0.503D-04 0.108D-03 0.314D-03 0.502D-03-0.496D-03-0.809D-02
 Coeff-Com: -0.279D-02 0.311D-01 0.296D-01-0.432D-01-0.160D+00-0.123D-01
 Coeff-Com:  0.452D+00 0.713D+00
 Coeff:     -0.503D-04 0.108D-03 0.314D-03 0.502D-03-0.496D-03-0.809D-02
 Coeff:     -0.279D-02 0.311D-01 0.296D-01-0.432D-01-0.160D+00-0.123D-01
 Coeff:      0.452D+00 0.713D+00
 Gap=     0.348 Goal=   None    Shift=    0.000
 Gap=     0.201 Goal=   None    Shift=    0.000
 RMSDP=2.94D-07 MaxDP=4.45D-05 DE=-1.04D-07 OVMax= 9.38D-05

 Cycle  15  Pass 1  IDiag  1:
 RMSU=  1.21D-07    CP:  9.99D-01  1.36D+00  6.95D-01  8.10D-01  1.15D+00
                    CP:  1.78D+00  1.97D+00  2.52D+00  2.47D+00  2.87D+00
                    CP:  2.47D+00  1.96D+00  1.44D+00  1.02D+00
 E= -2759.59773070980     Delta-E=       -0.000000011758 Rises=F Damp=F
 DIIS: error= 9.08D-07 at cycle  15 NSaved=  15.
 NSaved=15 IEnMin=15 EnMin= -2759.59773070980     IErMin=15 ErrMin= 9.08D-07
 ErrMax= 9.08D-07  0.00D+00 EMaxC= 1.00D-01 BMatC= 3.75D-09 BMatP= 2.06D-08
 IDIUse=1 WtCom= 1.00D+00 WtEn= 0.00D+00
 Coeff-Com: -0.716D-05 0.127D-04 0.856D-04 0.215D-03 0.258D-03-0.668D-03
 Coeff-Com: -0.231D-02-0.264D-02 0.976D-02 0.282D-01-0.342D-01-0.914D-01
 Coeff-Com: -0.116D-01 0.298D+00 0.807D+00
 Coeff:     -0.716D-05 0.127D-04 0.856D-04 0.215D-03 0.258D-03-0.668D-03
 Coeff:     -0.231D-02-0.264D-02 0.976D-02 0.282D-01-0.342D-01-0.914D-01
 Coeff:     -0.116D-01 0.298D+00 0.807D+00
 Gap=     0.348 Goal=   None    Shift=    0.000
 Gap=     0.201 Goal=   None    Shift=    0.000
 RMSDP=1.48D-07 MaxDP=2.63D-05 DE=-1.18D-08 OVMax= 4.74D-05

 Cycle  16  Pass 1  IDiag  1:
 RMSU=  5.67D-08    CP:  9.99D-01  1.36D+00  6.95D-01  8.10D-01  1.15D+00
                    CP:  1.78D+00  1.98D+00  2.53D+00  2.48D+00  2.89D+00
                    CP:  2.50D+00  2.02D+00  1.53D+00  1.23D+00  1.11D+00
 E= -2759.59773071244     Delta-E=       -0.000000002638 Rises=F Damp=F
 DIIS: error= 3.69D-07 at cycle  16 NSaved=  16.
 NSaved=16 IEnMin=16 EnMin= -2759.59773071244     IErMin=16 ErrMin= 3.69D-07
 ErrMax= 3.69D-07  0.00D+00 EMaxC= 1.00D-01 BMatC= 7.94D-10 BMatP= 3.75D-09
 IDIUse=1 WtCom= 1.00D+00 WtEn= 0.00D+00
 Coeff-Com:  0.631D-05-0.145D-04-0.206D-04-0.714D-05 0.205D-03 0.111D-02
 Coeff-Com: -0.476D-03-0.655D-02-0.140D-02 0.189D-01 0.175D-01-0.297D-01
 Coeff-Com: -0.863D-01-0.270D-01 0.310D+00 0.804D+00
 Coeff:      0.631D-05-0.145D-04-0.206D-04-0.714D-05 0.205D-03 0.111D-02
 Coeff:     -0.476D-03-0.655D-02-0.140D-02 0.189D-01 0.175D-01-0.297D-01
 Coeff:     -0.863D-01-0.270D-01 0.310D+00 0.804D+00
 Gap=     0.348 Goal=   None    Shift=    0.000
 Gap=     0.201 Goal=   None    Shift=    0.000
 RMSDP=4.78D-08 MaxDP=5.44D-06 DE=-2.64D-09 OVMax= 1.34D-05

 Cycle  17  Pass 1  IDiag  1:
 RMSU=  2.61D-08    CP:  9.99D-01  1.36D+00  6.95D-01  8.10D-01  1.15D+00
                    CP:  1.78D+00  1.98D+00  2.53D+00  2.48D+00  2.89D+00
                    CP:  2.50D+00  2.03D+00  1.56D+00  1.30D+00  1.33D+00
                    CP:  1.26D+00
 E= -2759.59773071286     Delta-E=       -0.000000000422 Rises=F Damp=F
 DIIS: error= 2.17D-07 at cycle  17 NSaved=  17.
 NSaved=17 IEnMin=17 EnMin= -2759.59773071286     IErMin=17 ErrMin= 2.17D-07
 ErrMax= 2.17D-07  0.00D+00 EMaxC= 1.00D-01 BMatC= 1.89D-10 BMatP= 7.94D-10
 IDIUse=1 WtCom= 1.00D+00 WtEn= 0.00D+00
 Coeff-Com:  0.381D-05-0.786D-05-0.301D-04-0.639D-04 0.276D-05 0.542D-03
 Coeff-Com:  0.361D-03-0.130D-02-0.300D-02-0.165D-02 0.142D-01 0.132D-01
 Coeff-Com: -0.241D-01-0.875D-01-0.105D+00 0.218D+00 0.976D+00
 Coeff:      0.381D-05-0.786D-05-0.301D-04-0.639D-04 0.276D-05 0.542D-03
 Coeff:      0.361D-03-0.130D-02-0.300D-02-0.165D-02 0.142D-01 0.132D-01
 Coeff:     -0.241D-01-0.875D-01-0.105D+00 0.218D+00 0.976D+00
 Gap=     0.348 Goal=   None    Shift=    0.000
 Gap=     0.201 Goal=   None    Shift=    0.000
 RMSDP=3.54D-08 MaxDP=4.55D-06 DE=-4.22D-10 OVMax= 1.09D-05

 Cycle  18  Pass 1  IDiag  1:
 RMSU=  1.35D-08    CP:  9.99D-01  1.36D+00  6.95D-01  8.10D-01  1.15D+00
                    CP:  1.78D+00  1.98D+00  2.53D+00  2.48D+00  2.89D+00
                    CP:  2.50D+00  2.03D+00  1.57D+00  1.34D+00  1.46D+00
                    CP:  1.64D+00  1.43D+00
 E= -2759.59773071330     Delta-E=       -0.000000000444 Rises=F Damp=F
 DIIS: error= 1.39D-07 at cycle  18 NSaved=  18.
 NSaved=18 IEnMin=18 EnMin= -2759.59773071330     IErMin=18 ErrMin= 1.39D-07
 ErrMax= 1.39D-07  0.00D+00 EMaxC= 1.00D-01 BMatC= 6.08D-11 BMatP= 1.89D-10
 IDIUse=1 WtCom= 1.00D+00 WtEn= 0.00D+00
 Coeff-Com: -0.132D-05 0.323D-05-0.792D-06-0.121D-04-0.543D-04-0.144D-03
 Coeff-Com:  0.181D-03 0.164D-02-0.311D-03-0.597D-02-0.107D-02 0.121D-01
 Coeff-Com:  0.200D-01-0.171D-01-0.120D+00-0.201D+00 0.302D+00 0.101D+01
 Coeff:     -0.132D-05 0.323D-05-0.792D-06-0.121D-04-0.543D-04-0.144D-03
 Coeff:      0.181D-03 0.164D-02-0.311D-03-0.597D-02-0.107D-02 0.121D-01
 Coeff:      0.200D-01-0.171D-01-0.120D+00-0.201D+00 0.302D+00 0.101D+01
 Gap=     0.348 Goal=   None    Shift=    0.000
 Gap=     0.201 Goal=   None    Shift=    0.000
 RMSDP=2.34D-08 MaxDP=2.60D-06 DE=-4.44D-10 OVMax= 7.73D-06

 Cycle  19  Pass 1  IDiag  1:
 RMSU=  7.07D-09    CP:  9.99D-01  1.36D+00  6.95D-01  8.10D-01  1.15D+00
                    CP:  1.78D+00  1.98D+00  2.53D+00  2.48D+00  2.89D+00
                    CP:  2.50D+00  2.03D+00  1.58D+00  1.35D+00  1.54D+00
                    CP:  1.87D+00  1.90D+00  1.42D+00
 E= -2759.59773071326     Delta-E=        0.000000000040 Rises=F Damp=F
 DIIS: error= 6.97D-08 at cycle  19 NSaved=  19.
 NSaved=19 IEnMin=18 EnMin= -2759.59773071330     IErMin=19 ErrMin= 6.97D-08
 ErrMax= 6.97D-08  0.00D+00 EMaxC= 1.00D-01 BMatC= 1.31D-11 BMatP= 6.08D-11
 IDIUse=1 WtCom= 1.00D+00 WtEn= 0.00D+00
 Coeff-Com: -0.130D-05 0.281D-05 0.595D-05 0.116D-04-0.227D-04-0.177D-03
 Coeff-Com: -0.459D-04 0.783D-03 0.632D-03-0.127D-02-0.394D-02 0.156D-03
 Coeff-Com:  0.115D-01 0.160D-01-0.615D-02-0.113D+00-0.156D+00 0.277D+00
 Coeff-Com:  0.974D+00
 Coeff:     -0.130D-05 0.281D-05 0.595D-05 0.116D-04-0.227D-04-0.177D-03
 Coeff:     -0.459D-04 0.783D-03 0.632D-03-0.127D-02-0.394D-02 0.156D-03
 Coeff:      0.115D-01 0.160D-01-0.615D-02-0.113D+00-0.156D+00 0.277D+00
 Coeff:      0.974D+00
 Gap=     0.348 Goal=   None    Shift=    0.000
 Gap=     0.201 Goal=   None    Shift=    0.000
 RMSDP=1.06D-08 MaxDP=1.48D-06 DE= 4.00D-11 OVMax= 3.07D-06

 Cycle  20  Pass 1  IDiag  1:
 RMSU=  3.36D-09    CP:  9.99D-01  1.36D+00  6.95D-01  8.10D-01  1.15D+00
                    CP:  1.78D+00  1.98D+00  2.53D+00  2.48D+00  2.89D+00
                    CP:  2.50D+00  2.03D+00  1.58D+00  1.36D+00  1.56D+00
                    CP:  1.96D+00  2.12D+00  1.80D+00  1.28D+00
 E= -2759.59773071328     Delta-E=       -0.000000000015 Rises=F Damp=F
 DIIS: error= 2.33D-08 at cycle  20 NSaved=  20.
 NSaved=20 IEnMin=18 EnMin= -2759.59773071330     IErMin=20 ErrMin= 2.33D-08
 ErrMax= 2.33D-08  0.00D+00 EMaxC= 1.00D-01 BMatC= 2.75D-12 BMatP= 1.31D-11
 IDIUse=1 WtCom= 1.00D+00 WtEn= 0.00D+00
 Coeff-Com: -0.598D-07 0.507D-07 0.166D-05 0.618D-05 0.539D-05-0.168D-04
 Coeff-Com: -0.412D-04-0.129D-03 0.257D-03 0.102D-02-0.907D-03-0.248D-02
 Coeff-Com: -0.122D-02 0.802D-02 0.252D-01 0.132D-01-0.109D+00-0.152D+00
 Coeff-Com:  0.272D+00 0.946D+00
 Coeff:     -0.598D-07 0.507D-07 0.166D-05 0.618D-05 0.539D-05-0.168D-04
 Coeff:     -0.412D-04-0.129D-03 0.257D-03 0.102D-02-0.907D-03-0.248D-02
 Coeff:     -0.122D-02 0.802D-02 0.252D-01 0.132D-01-0.109D+00-0.152D+00
 Coeff:      0.272D+00 0.946D+00
 Gap=     0.348 Goal=   None    Shift=    0.000
 Gap=     0.201 Goal=   None    Shift=    0.000
 RMSDP=4.71D-09 MaxDP=6.26D-07 DE=-1.46D-11 OVMax= 1.24D-06

 Error on total polarization charges =  0.00172
 SCF Done:  E(UCAM-B3LYP) =  -2759.59773071     A.U. after   20 cycles
            NFock= 20  Conv=0.47D-08     -V/T= 2.0074
 <Sx>= 0.0000 <Sy>= 0.0000 <Sz>= 0.5000 <S**2>= 0.7612 S= 0.5056
 <L.S>= 0.000000000000E+00
 KE= 2.739298476849D+03 PE=-1.787276691755D+04 EE= 6.680568057308D+03
 Annihilation of the first spin contaminant:
 S**2 before annihilation     0.7612,   after     0.7501
 Leave Link  502 at Sun Mar  3 17:38:49 2024, MaxMem=  5368709120 cpu:      2226.7
 (Enter /home/k0335/k033513/app/g09/l601.exe)
 Copying SCF densities to generalized density rwf, IOpCl= 1 IROHF=0.

 **********************************************************************

            Population analysis using the SCF density.

 **********************************************************************

 Alpha  occ. eigenvalues --  -24.88287 -24.87899 -24.87536 -24.86703 -24.86392
 Alpha  occ. eigenvalues --  -24.86159 -24.85991 -24.85890 -24.85852 -24.85679
 Alpha  occ. eigenvalues --  -24.85477 -24.85389 -24.85268 -24.85237 -24.85153
 Alpha  occ. eigenvalues --  -24.85115 -24.84752 -24.84385 -19.36574 -19.35493
 Alpha  occ. eigenvalues --  -19.30230 -19.29529 -14.61255 -14.61110 -14.58233
 Alpha  occ. eigenvalues --  -10.62282 -10.61571 -10.58997 -10.58437 -10.57310
 Alpha  occ. eigenvalues --  -10.56810 -10.53318 -10.52028 -10.51799 -10.51627
 Alpha  occ. eigenvalues --  -10.51613 -10.41416 -10.37317  -1.46074  -1.45100
 Alpha  occ. eigenvalues --   -1.44645  -1.43953  -1.43615  -1.41945  -1.39845
 Alpha  occ. eigenvalues --   -1.38052  -1.36867  -1.36535  -1.35799  -1.35358
 Alpha  occ. eigenvalues --   -1.35351  -1.35205  -1.34947  -1.34792  -1.34019
 Alpha  occ. eigenvalues --   -1.33797  -1.28657  -1.23842  -1.23763  -1.22953
 Alpha  occ. eigenvalues --   -1.19969  -1.14545  -1.14046  -1.00650  -0.97674
 Alpha  occ. eigenvalues --   -0.95945  -0.91711  -0.89658  -0.87324  -0.85428
 Alpha  occ. eigenvalues --   -0.84332  -0.83923  -0.82063  -0.81045  -0.79791
 Alpha  occ. eigenvalues --   -0.78578  -0.76920  -0.76226  -0.75161  -0.74727
 Alpha  occ. eigenvalues --   -0.74426  -0.73250  -0.72815  -0.72483  -0.71801
 Alpha  occ. eigenvalues --   -0.71623  -0.71166  -0.70613  -0.70474  -0.69553
 Alpha  occ. eigenvalues --   -0.69403  -0.69042  -0.68273  -0.68208  -0.67685
 Alpha  occ. eigenvalues --   -0.67234  -0.64180  -0.62792  -0.62367  -0.62129
 Alpha  occ. eigenvalues --   -0.61533  -0.61174  -0.60884  -0.60357  -0.59888
 Alpha  occ. eigenvalues --   -0.59593  -0.59313  -0.59132  -0.58965  -0.58712
 Alpha  occ. eigenvalues --   -0.58442  -0.58307  -0.57891  -0.57685  -0.57438
 Alpha  occ. eigenvalues --   -0.57309  -0.57067  -0.56814  -0.56185  -0.55949
 Alpha  occ. eigenvalues --   -0.55683  -0.55281  -0.54960  -0.54940  -0.54482
 Alpha  occ. eigenvalues --   -0.54226  -0.54000  -0.53732  -0.53644  -0.53481
 Alpha  occ. eigenvalues --   -0.53360  -0.52924  -0.52578  -0.52473  -0.52175
 Alpha  occ. eigenvalues --   -0.51953  -0.51797  -0.51624  -0.51425  -0.51095
 Alpha  occ. eigenvalues --   -0.50657  -0.48509  -0.47660  -0.47123  -0.45370
 Alpha  occ. eigenvalues --   -0.44849  -0.43254  -0.42530  -0.42246
 Alpha virt. eigenvalues --   -0.07496  -0.04771   0.00511   0.01032   0.02910
 Alpha virt. eigenvalues --    0.03506   0.06417   0.07691   0.08445   0.09987
 Alpha virt. eigenvalues --    0.10490   0.11912   0.13624   0.14016   0.14681
 Alpha virt. eigenvalues --    0.15432   0.16059   0.16455   0.16847   0.17796
 Alpha virt. eigenvalues --    0.18113   0.18219   0.18873   0.20163   0.20535
 Alpha virt. eigenvalues --    0.20628   0.20868   0.21328   0.21884   0.22167
 Alpha virt. eigenvalues --    0.23170   0.23227   0.23329   0.24835   0.25527
 Alpha virt. eigenvalues --    0.26458   0.26989   0.27612   0.28906   0.29753
 Alpha virt. eigenvalues --    0.30647   0.31446   0.31702   0.33844   0.35402
 Alpha virt. eigenvalues --    0.40661   0.41927   0.42937   0.45456   0.46043
 Alpha virt. eigenvalues --    0.46238   0.46980   0.47062   0.47705   0.48873
 Alpha virt. eigenvalues --    0.49391   0.49658   0.50061   0.50581   0.51197
 Alpha virt. eigenvalues --    0.52005   0.52242   0.53485   0.54199   0.54581
 Alpha virt. eigenvalues --    0.55233   0.55452   0.55691   0.56723   0.58487
 Alpha virt. eigenvalues --    0.58865   0.59574   0.60297   0.61172   0.62590
 Alpha virt. eigenvalues --    0.63671   0.64761   0.65941   0.67304   0.68038
 Alpha virt. eigenvalues --    0.68843   0.69646   0.71531   0.74256   0.74552
 Alpha virt. eigenvalues --    0.76445   0.77528   0.78513   0.79427   0.79740
 Alpha virt. eigenvalues --    0.82125   0.82280   0.83956   0.84255   0.86216
 Alpha virt. eigenvalues --    0.86977   0.87355   0.89591   0.90956   0.91225
 Alpha virt. eigenvalues --    0.92870   0.93312   0.93849   0.94942   0.96035
 Alpha virt. eigenvalues --    0.96475   0.97719   0.98856   0.99119   1.00400
 Alpha virt. eigenvalues --    1.01964   1.02734   1.03473   1.04924   1.05249
 Alpha virt. eigenvalues --    1.05934   1.06477   1.06884   1.08207   1.08423
 Alpha virt. eigenvalues --    1.09557   1.10447   1.11260   1.11569   1.12177
 Alpha virt. eigenvalues --    1.13344   1.14215   1.14448   1.15158   1.15489
 Alpha virt. eigenvalues --    1.15955   1.16678   1.18075   1.18443   1.18657
 Alpha virt. eigenvalues --    1.19770   1.20524   1.20885   1.21915   1.23018
 Alpha virt. eigenvalues --    1.23492   1.24582   1.25340   1.25856   1.26298
 Alpha virt. eigenvalues --    1.26624   1.27386   1.29035   1.29289   1.29736
 Alpha virt. eigenvalues --    1.29966   1.30235   1.31123   1.32236   1.32507
 Alpha virt. eigenvalues --    1.32926   1.33063   1.33592   1.34232   1.35230
 Alpha virt. eigenvalues --    1.36024   1.36155   1.36945   1.37410   1.38011
 Alpha virt. eigenvalues --    1.38352   1.38760   1.39110   1.39710   1.40585
 Alpha virt. eigenvalues --    1.41235   1.41593   1.41923   1.42628   1.43759
 Alpha virt. eigenvalues --    1.44588   1.44782   1.45302   1.46211   1.46624
 Alpha virt. eigenvalues --    1.46903   1.47701   1.48802   1.49581   1.50186
 Alpha virt. eigenvalues --    1.50351   1.51022   1.51771   1.52802   1.52983
 Alpha virt. eigenvalues --    1.53174   1.54673   1.55550   1.56902   1.57196
 Alpha virt. eigenvalues --    1.57465   1.58545   1.59874   1.60675   1.61708
 Alpha virt. eigenvalues --    1.62437   1.63317   1.64507   1.65591   1.66596
 Alpha virt. eigenvalues --    1.67697   1.68115   1.68394   1.69781   1.70278
 Alpha virt. eigenvalues --    1.71045   1.71529   1.71819   1.72233   1.73347
 Alpha virt. eigenvalues --    1.73679   1.75451   1.75976   1.76589   1.76711
 Alpha virt. eigenvalues --    1.77291   1.78278   1.78444   1.79992   1.80406
 Alpha virt. eigenvalues --    1.80691   1.81659   1.82271   1.82707   1.82827
 Alpha virt. eigenvalues --    1.83265   1.83729   1.83971   1.84474   1.84974
 Alpha virt. eigenvalues --    1.85226   1.85804   1.86088   1.86360   1.86861
 Alpha virt. eigenvalues --    1.87771   1.87849   1.88531   1.88735   1.89428
 Alpha virt. eigenvalues --    1.89872   1.90111   1.90782   1.91369   1.91697
 Alpha virt. eigenvalues --    1.92156   1.92325   1.92708   1.93247   1.93501
 Alpha virt. eigenvalues --    1.94215   1.94977   1.95916   1.96218   1.96970
 Alpha virt. eigenvalues --    1.97507   1.98445   1.98553   1.99138   1.99636
 Alpha virt. eigenvalues --    1.99751   2.00417   2.01033   2.01197   2.01476
 Alpha virt. eigenvalues --    2.01785   2.02049   2.02670   2.02973   2.03067
 Alpha virt. eigenvalues --    2.03214   2.03515   2.04735   2.05069   2.05535
 Alpha virt. eigenvalues --    2.05791   2.06487   2.07378   2.07529   2.07984
 Alpha virt. eigenvalues --    2.08601   2.09362   2.10222   2.10504   2.11019
 Alpha virt. eigenvalues --    2.12021   2.12279   2.14061   2.14258   2.14528
 Alpha virt. eigenvalues --    2.14917   2.15833   2.16429   2.16981   2.18105
 Alpha virt. eigenvalues --    2.18217   2.18513   2.20365   2.20627   2.21265
 Alpha virt. eigenvalues --    2.22525   2.24310   2.24711   2.25851   2.26178
 Alpha virt. eigenvalues --    2.26431   2.28508   2.29524   2.30838   2.32400
 Alpha virt. eigenvalues --    2.32807   2.34007   2.34505   2.36078   2.37075
 Alpha virt. eigenvalues --    2.37913   2.39439   2.39529   2.40007   2.40624
 Alpha virt. eigenvalues --    2.42411   2.43714   2.43947   2.44618   2.45691
 Alpha virt. eigenvalues --    2.46300   2.47388   2.48207   2.50277   2.50740
 Alpha virt. eigenvalues --    2.51709   2.53441   2.55009   2.56059   2.57146
 Alpha virt. eigenvalues --    2.58696   2.58973   2.60255   2.60986   2.62076
 Alpha virt. eigenvalues --    2.63837   2.64683   2.65848   2.67277   2.68153
 Alpha virt. eigenvalues --    2.68859   2.70327   2.71438   2.72981   2.74448
 Alpha virt. eigenvalues --    2.75977   2.77028   2.79068   2.80137   2.80859
 Alpha virt. eigenvalues --    2.81727   2.83375   2.84160   2.84778   2.85341
 Alpha virt. eigenvalues --    2.86624   2.86916   2.87695   2.88846   2.89551
 Alpha virt. eigenvalues --    2.90611   2.91917   2.92501   2.93783   2.94327
 Alpha virt. eigenvalues --    2.97032   2.97460   3.00485   3.01195   3.02816
 Alpha virt. eigenvalues --    3.03141   3.04086   3.04669   3.04822   3.05958
 Alpha virt. eigenvalues --    3.07228   3.09021   3.10188   3.11411   3.14482
 Alpha virt. eigenvalues --    3.15263   3.16474   3.17452   3.19357   3.19740
 Alpha virt. eigenvalues --    3.20172   3.22553   3.24710   3.26640   3.28360
 Alpha virt. eigenvalues --    3.28616   3.30377   3.33662   3.36935   3.41050
 Alpha virt. eigenvalues --    3.45216   3.49274   3.63016   3.92722   4.02077
 Alpha virt. eigenvalues --    4.09252   4.11383   4.16960   4.17330   4.22911
 Alpha virt. eigenvalues --    4.29283   4.31309   4.34051   4.35642   4.42171
 Alpha virt. eigenvalues --    4.44144   4.46286   4.48143   4.52798   4.55747
 Alpha virt. eigenvalues --    4.57797   4.66427   4.68907   4.73120   4.77841
 Alpha virt. eigenvalues --    4.83957   4.85126   4.93117   5.05893   5.09573
 Alpha virt. eigenvalues --    5.22730   5.30747   5.31873   5.41521   5.55797
 Alpha virt. eigenvalues --    5.63944   5.65506   6.21576   6.26808   6.60707
 Alpha virt. eigenvalues --    6.86599
  Beta  occ. eigenvalues --  -24.88278 -24.87878 -24.87536 -24.86702 -24.86392
  Beta  occ. eigenvalues --  -24.86159 -24.85989 -24.85890 -24.85851 -24.85679
  Beta  occ. eigenvalues --  -24.85477 -24.85389 -24.85268 -24.85237 -24.85153
  Beta  occ. eigenvalues --  -24.85115 -24.84752 -24.84384 -19.36572 -19.35493
  Beta  occ. eigenvalues --  -19.30080 -19.29508 -14.60935 -14.60719 -14.58196
  Beta  occ. eigenvalues --  -10.62282 -10.61571 -10.59007 -10.58436 -10.57310
  Beta  occ. eigenvalues --  -10.56812 -10.53313 -10.52049 -10.51869 -10.51640
  Beta  occ. eigenvalues --  -10.51625 -10.40415 -10.37342  -1.46071  -1.45099
  Beta  occ. eigenvalues --   -1.44642  -1.43942  -1.43614  -1.41941  -1.39812
  Beta  occ. eigenvalues --   -1.38052  -1.36859  -1.36532  -1.35798  -1.35357
  Beta  occ. eigenvalues --   -1.35351  -1.35203  -1.34945  -1.34792  -1.34018
  Beta  occ. eigenvalues --   -1.33796  -1.28406  -1.23801  -1.23581  -1.22922
  Beta  occ. eigenvalues --   -1.19561  -1.14378  -1.13441  -0.98916  -0.97599
  Beta  occ. eigenvalues --   -0.95719  -0.91626  -0.89579  -0.86698  -0.85412
  Beta  occ. eigenvalues --   -0.84214  -0.83847  -0.81627  -0.80824  -0.79743
  Beta  occ. eigenvalues --   -0.78517  -0.76872  -0.76191  -0.75127  -0.74704
  Beta  occ. eigenvalues --   -0.74381  -0.73212  -0.72807  -0.72470  -0.71777
  Beta  occ. eigenvalues --   -0.71607  -0.71145  -0.70540  -0.70433  -0.69428
  Beta  occ. eigenvalues --   -0.69310  -0.68868  -0.68147  -0.67713  -0.67117
  Beta  occ. eigenvalues --   -0.66933  -0.63833  -0.62318  -0.62131  -0.62006
  Beta  occ. eigenvalues --   -0.61211  -0.61040  -0.60690  -0.60239  -0.59796
  Beta  occ. eigenvalues --   -0.59521  -0.59232  -0.59105  -0.58921  -0.58618
  Beta  occ. eigenvalues --   -0.58349  -0.58263  -0.57667  -0.57643  -0.57227
  Beta  occ. eigenvalues --   -0.57140  -0.57054  -0.56637  -0.56060  -0.55905
  Beta  occ. eigenvalues --   -0.55674  -0.55258  -0.54830  -0.54781  -0.54436
  Beta  occ. eigenvalues --   -0.54188  -0.53803  -0.53615  -0.53576  -0.53412
  Beta  occ. eigenvalues --   -0.53324  -0.52730  -0.52562  -0.52233  -0.52157
  Beta  occ. eigenvalues --   -0.51909  -0.51773  -0.51614  -0.51388  -0.51072
  Beta  occ. eigenvalues --   -0.50650  -0.48385  -0.47347  -0.47046  -0.44909
  Beta  occ. eigenvalues --   -0.43120  -0.42729  -0.42009
  Beta virt. eigenvalues --   -0.21916  -0.04593  -0.03587   0.00687   0.01129
  Beta virt. eigenvalues --    0.02949   0.04557   0.06585   0.07968   0.08559
  Beta virt. eigenvalues --    0.10239   0.10642   0.12037   0.13717   0.14220
  Beta virt. eigenvalues --    0.14936   0.15683   0.16289   0.16530   0.16925
  Beta virt. eigenvalues --    0.17841   0.18188   0.18378   0.18957   0.20224
  Beta virt. eigenvalues --    0.20544   0.20647   0.20874   0.21420   0.21937
  Beta virt. eigenvalues --    0.22309   0.23219   0.23295   0.23390   0.24903
  Beta virt. eigenvalues --    0.25551   0.26490   0.27033   0.27656   0.29073
  Beta virt. eigenvalues --    0.29842   0.30691   0.31568   0.31799   0.33957
  Beta virt. eigenvalues --    0.35464   0.40778   0.42181   0.42999   0.45560
  Beta virt. eigenvalues --    0.46295   0.46393   0.47052   0.47150   0.48449
  Beta virt. eigenvalues --    0.48983   0.49703   0.50088   0.50262   0.50624
  Beta virt. eigenvalues --    0.51218   0.52123   0.52290   0.53686   0.54297
  Beta virt. eigenvalues --    0.54837   0.55346   0.55688   0.56404   0.56878
  Beta virt. eigenvalues --    0.58593   0.59676   0.60103   0.60402   0.61423
  Beta virt. eigenvalues --    0.62812   0.63893   0.65008   0.66095   0.67370
  Beta virt. eigenvalues --    0.68128   0.69000   0.69784   0.71589   0.74382
  Beta virt. eigenvalues --    0.74653   0.76759   0.77666   0.78707   0.79540
  Beta virt. eigenvalues --    0.80285   0.82240   0.82379   0.84079   0.84353
  Beta virt. eigenvalues --    0.86474   0.87088   0.87535   0.89846   0.91216
  Beta virt. eigenvalues --    0.91439   0.92941   0.93442   0.93932   0.95101
  Beta virt. eigenvalues --    0.96204   0.96750   0.97981   0.99075   0.99489
  Beta virt. eigenvalues --    1.00563   1.02013   1.02863   1.03596   1.04975
  Beta virt. eigenvalues --    1.05276   1.06064   1.06553   1.06912   1.08271
  Beta virt. eigenvalues --    1.08504   1.09649   1.10543   1.11300   1.11642
  Beta virt. eigenvalues --    1.12258   1.13403   1.14255   1.14497   1.15245
  Beta virt. eigenvalues --    1.15605   1.16006   1.16749   1.18121   1.18583
  Beta virt. eigenvalues --    1.18862   1.20004   1.20567   1.20959   1.22319
  Beta virt. eigenvalues --    1.23100   1.23926   1.24624   1.25510   1.25936
  Beta virt. eigenvalues --    1.26355   1.26656   1.27625   1.29135   1.29361
  Beta virt. eigenvalues --    1.29769   1.30082   1.30565   1.31403   1.32255
  Beta virt. eigenvalues --    1.32525   1.32969   1.33117   1.33755   1.34313
  Beta virt. eigenvalues --    1.35273   1.36059   1.36178   1.37181   1.37427
  Beta virt. eigenvalues --    1.38045   1.38356   1.38821   1.39141   1.40093
  Beta virt. eigenvalues --    1.40696   1.41476   1.41810   1.42223   1.42793
  Beta virt. eigenvalues --    1.43820   1.44741   1.44958   1.45525   1.46237
  Beta virt. eigenvalues --    1.46691   1.47250   1.47842   1.48957   1.49611
  Beta virt. eigenvalues --    1.50287   1.50452   1.51128   1.51798   1.52951
  Beta virt. eigenvalues --    1.53003   1.53253   1.55004   1.55653   1.56977
  Beta virt. eigenvalues --    1.57296   1.57527   1.58615   1.59980   1.60759
  Beta virt. eigenvalues --    1.61782   1.62554   1.63400   1.64614   1.65678
  Beta virt. eigenvalues --    1.66727   1.67831   1.68267   1.68481   1.69937
  Beta virt. eigenvalues --    1.70373   1.71069   1.71605   1.71836   1.72265
  Beta virt. eigenvalues --    1.73365   1.73742   1.75543   1.76017   1.76626
  Beta virt. eigenvalues --    1.76780   1.77377   1.78366   1.78505   1.80067
  Beta virt. eigenvalues --    1.80687   1.80946   1.81767   1.82506   1.82766
  Beta virt. eigenvalues --    1.83221   1.83521   1.83908   1.84126   1.84532
  Beta virt. eigenvalues --    1.85169   1.85273   1.85890   1.86233   1.86570
  Beta virt. eigenvalues --    1.86973   1.87899   1.88005   1.88568   1.88949
  Beta virt. eigenvalues --    1.89459   1.89991   1.90252   1.91094   1.91487
  Beta virt. eigenvalues --    1.91745   1.92231   1.92390   1.92857   1.93411
  Beta virt. eigenvalues --    1.93611   1.94343   1.95006   1.96090   1.96317
  Beta virt. eigenvalues --    1.97018   1.97542   1.98472   1.98579   1.99162
  Beta virt. eigenvalues --    1.99665   1.99775   2.00460   2.01066   2.01217
  Beta virt. eigenvalues --    2.01493   2.01809   2.02081   2.02716   2.03023
  Beta virt. eigenvalues --    2.03208   2.03247   2.03526   2.04829   2.05220
  Beta virt. eigenvalues --    2.05753   2.05828   2.06534   2.07382   2.07588
  Beta virt. eigenvalues --    2.08018   2.08695   2.09435   2.10284   2.10550
  Beta virt. eigenvalues --    2.11137   2.12111   2.12373   2.14193   2.14404
  Beta virt. eigenvalues --    2.14631   2.14989   2.15851   2.16579   2.17109
  Beta virt. eigenvalues --    2.18242   2.18332   2.18654   2.20446   2.20786
  Beta virt. eigenvalues --    2.21727   2.22584   2.24557   2.24728   2.25896
  Beta virt. eigenvalues --    2.26207   2.26496   2.28625   2.29578   2.30920
  Beta virt. eigenvalues --    2.32499   2.32926   2.34135   2.34554   2.36251
  Beta virt. eigenvalues --    2.37420   2.37961   2.39528   2.39620   2.40088
  Beta virt. eigenvalues --    2.40695   2.42516   2.43797   2.44071   2.44745
  Beta virt. eigenvalues --    2.45899   2.46954   2.47507   2.48346   2.50466
  Beta virt. eigenvalues --    2.50791   2.51787   2.54455   2.55781   2.56125
  Beta virt. eigenvalues --    2.57215   2.58789   2.59113   2.60476   2.61151
  Beta virt. eigenvalues --    2.62103   2.64011   2.64843   2.66202   2.67337
  Beta virt. eigenvalues --    2.68224   2.68956   2.70495   2.71551   2.73056
  Beta virt. eigenvalues --    2.74474   2.76153   2.77112   2.79125   2.80182
  Beta virt. eigenvalues --    2.80963   2.81759   2.83464   2.84216   2.84843
  Beta virt. eigenvalues --    2.85426   2.86688   2.86970   2.87803   2.88881
  Beta virt. eigenvalues --    2.89588   2.90651   2.91935   2.92540   2.93798
  Beta virt. eigenvalues --    2.94373   2.97041   2.97556   3.00537   3.01371
  Beta virt. eigenvalues --    3.02844   3.03143   3.04114   3.04671   3.04830
  Beta virt. eigenvalues --    3.05987   3.07282   3.09036   3.10230   3.11446
  Beta virt. eigenvalues --    3.14491   3.15268   3.16487   3.17472   3.19374
  Beta virt. eigenvalues --    3.19845   3.20180   3.22575   3.24779   3.26861
  Beta virt. eigenvalues --    3.28439   3.28693   3.30410   3.33694   3.36977
  Beta virt. eigenvalues --    3.41176   3.45330   3.49376   3.63536   3.92786
  Beta virt. eigenvalues --    4.02282   4.09396   4.11771   4.17246   4.18174
  Beta virt. eigenvalues --    4.23214   4.29717   4.31401   4.34055   4.35732
  Beta virt. eigenvalues --    4.42200   4.44166   4.46310   4.48152   4.52852
  Beta virt. eigenvalues --    4.56178   4.57821   4.66618   4.68995   4.73166
  Beta virt. eigenvalues --    4.77856   4.83968   4.85142   4.93137   5.05899
  Beta virt. eigenvalues --    5.09578   5.22732   5.30751   5.31877   5.41525
  Beta virt. eigenvalues --    5.55808   5.63962   5.65511   6.21578   6.26817
  Beta virt. eigenvalues --    6.60710   6.86607
          Condensed to atoms (all electrons):
               1          2          3          4          5          6
     1  C    5.094891   0.484134  -0.059965  -0.002251   0.003381  -0.000121
     2  C    0.484134   4.301180   0.343723  -0.035127  -0.020533   0.001086
     3  N   -0.059965   0.343723   7.139538   0.233448   0.213050  -0.079328
     4  C   -0.002251  -0.035127   0.233448   4.897970  -0.025350  -0.008757
     5  C    0.003381  -0.020533   0.213050  -0.025350   4.185976   0.577868
     6  O   -0.000121   0.001086  -0.079328  -0.008757   0.577868   8.028035
     7  N   -0.000158   0.001421  -0.093743   0.002587   0.211363  -0.088239
     8  C    0.000006   0.000202   0.001489   0.000007  -0.007003   0.014247
     9  F    0.000000   0.000003   0.000034   0.000003   0.005760  -0.011411
    10  F    0.000000   0.000004  -0.000027   0.000000   0.000635   0.000019
    11  C    0.000000   0.000057  -0.000137  -0.000001  -0.003286  -0.003227
    12  F    0.000000   0.000003   0.000001   0.000000  -0.000418   0.000007
    13  O    0.000000   0.000031  -0.000342  -0.000001   0.005841  -0.003198
    14  C    0.000000   0.000000  -0.000004   0.000000   0.000085   0.000365
    15  F    0.000000   0.000000   0.000000   0.000000   0.000000   0.000000
    16  F    0.000000   0.000000   0.000000   0.000000  -0.000012  -0.000004
    17  F    0.000000   0.000000   0.000000   0.000000   0.000003  -0.000002
    18  C    0.000000   0.000000  -0.000001   0.000000   0.000004  -0.000033
    19  F    0.000000   0.000000   0.000000   0.000000   0.000000   0.000000
    20  F    0.000000   0.000000   0.000000   0.000000   0.000002   0.000000
    21  F    0.000000   0.000000   0.000000   0.000000   0.000002  -0.000001
    22  C    0.002151  -0.018308  -0.004215   0.000126  -0.011411   0.000010
    23  O   -0.000119   0.000729   0.000289   0.000002  -0.000021  -0.000025
    24  N   -0.068863   0.291823  -0.046134   0.002392  -0.005207   0.000235
    25  C    0.003943  -0.021826   0.001684  -0.000018   0.000185   0.000002
    26  F    0.000048   0.001069  -0.000015   0.000000   0.000007   0.000000
    27  F   -0.007037  -0.002435   0.000076   0.000000   0.000002   0.000000
    28  C   -0.001876   0.000567  -0.000088   0.000001   0.000015   0.000000
    29  F    0.002695   0.003702  -0.000074   0.000000   0.000004   0.000000
    30  O   -0.000119   0.000112   0.000000   0.000000   0.000000   0.000000
    31  C    0.000002  -0.000002   0.000000   0.000000   0.000000   0.000000
    32  F    0.000001   0.000001   0.000000   0.000000   0.000000   0.000000
    33  F    0.000000   0.000000   0.000000   0.000000   0.000000   0.000000
    34  F    0.000000   0.000000   0.000000   0.000000   0.000000   0.000000
    35  C    0.000081   0.000040   0.000006   0.000000  -0.000002   0.000000
    36  F    0.000000   0.000000   0.000000   0.000000   0.000000   0.000000
    37  F    0.000000  -0.000004   0.000000   0.000000   0.000000   0.000000
    38  F    0.000024   0.000300  -0.000023   0.000000   0.000061   0.000000
    39  H    0.374521  -0.023330  -0.008238   0.006077   0.000133  -0.000001
    40  H    0.365016  -0.022377   0.002872   0.000137  -0.000034   0.000000
    41  H   -0.000336  -0.004215  -0.033168   0.392154   0.000853   0.000327
    42  H    0.000329   0.002620  -0.022050   0.386285  -0.002541   0.012357
    43  H   -0.000340  -0.004982  -0.033652   0.391190   0.001667   0.000400
               7          8          9         10         11         12
     1  C   -0.000158   0.000006   0.000000   0.000000   0.000000   0.000000
     2  C    0.001421   0.000202   0.000003   0.000004   0.000057   0.000003
     3  N   -0.093743   0.001489   0.000034  -0.000027  -0.000137   0.000001
     4  C    0.002587   0.000007   0.000003   0.000000  -0.000001   0.000000
     5  C    0.211363  -0.007003   0.005760   0.000635  -0.003286  -0.000418
     6  O   -0.088239   0.014247  -0.011411   0.000019  -0.003227   0.000007
     7  N    7.566984   0.160075  -0.035725  -0.038949  -0.068917  -0.001004
     8  C    0.160075   4.378623   0.270129   0.272602   0.213640  -0.022284
     9  F   -0.035725   0.270129   9.086442  -0.042363  -0.034768   0.000302
    10  F   -0.038949   0.272602  -0.042363   9.087145  -0.023455  -0.000129
    11  C   -0.068917   0.213640  -0.034768  -0.023455   4.980837   0.221209
    12  F   -0.001004  -0.022284   0.000302  -0.000129   0.221209   9.120316
    13  O    0.000632  -0.026972   0.000761   0.000547   0.154690  -0.053216
    14  C   -0.000174   0.000952  -0.000053   0.000004   0.001610  -0.001044
    15  F   -0.000002   0.000190   0.000000   0.000000   0.012916  -0.001474
    16  F    0.000001  -0.000032   0.000000   0.000000   0.000562  -0.000020
    17  F    0.000001  -0.000167   0.000001   0.000000  -0.008920  -0.000017
    18  C    0.002975  -0.030385   0.007332  -0.001703   0.210859  -0.015493
    19  F   -0.000013   0.001346   0.000001  -0.000002  -0.031014  -0.000073
    20  F    0.000048   0.006910  -0.000935  -0.002785  -0.029178  -0.000264
    21  F   -0.000032  -0.000356  -0.000698  -0.000140  -0.031795   0.000312
    22  C    0.204439  -0.012807   0.000907   0.007134  -0.000373   0.008418
    23  O   -0.087298   0.014135   0.000012  -0.009397  -0.001749  -0.004809
    24  N   -0.094604   0.001510  -0.000024  -0.000005  -0.000288   0.000012
    25  C    0.000909  -0.000012   0.000000   0.000011   0.000003   0.000004
    26  F   -0.000058   0.000012   0.000000  -0.000001   0.000000   0.000000
[...]
    32  F(19)             -0.00001      -0.05651      -0.02017      -0.01885
    33  F(19)              0.00001       0.02939       0.01049       0.00980
    34  F(19)              0.00000       0.01559       0.00556       0.00520
    35  C(13)              0.00023       0.25309       0.09031       0.08442
    36  F(19)             -0.00002      -0.07883      -0.02813      -0.02629
    37  F(19)             -0.00003      -0.13531      -0.04828      -0.04514
    38  F(19)             -0.00002      -0.08228      -0.02936      -0.02745
    39  H(1)              -0.01104     -49.33983     -17.60568     -16.45799
    40  H(1)              -0.01107     -49.49653     -17.66159     -16.51027
    41  H(1)               0.00434      19.38134       6.91575       6.46492
    42  H(1)               0.00010       0.45472       0.16225       0.15168
    43  H(1)               0.00487      21.75202       7.76166       7.25569
 --------------------------------------------------------
       Center         ----  Spin Dipole Couplings  ----
                      3XX-RR        3YY-RR        3ZZ-RR
 --------------------------------------------------------
     1   Atom       -0.292061     -0.314542      0.606603
     2   Atom        0.003765     -0.022144      0.018379
     3   Atom       -0.214418     -0.257655      0.472073
     4   Atom       -0.000663      0.004398     -0.003734
     5   Atom        0.027449      0.012195     -0.039643
     6   Atom       -0.100104     -0.101276      0.201380
     7   Atom       -0.011897     -0.016673      0.028570
     8   Atom        0.001242      0.000643     -0.001885
     9   Atom        0.003413     -0.001780     -0.001634
    10   Atom       -0.000678      0.002430     -0.001751
    11   Atom        0.001263     -0.000816     -0.000447
    12   Atom        0.000312      0.000188     -0.000500
    13   Atom        0.001263     -0.000813     -0.000450
    14   Atom        0.000744     -0.000514     -0.000229
    15   Atom        0.000362     -0.000384      0.000021
    16   Atom        0.000665     -0.000583     -0.000082
    17   Atom        0.000680     -0.000366     -0.000313
    18   Atom        0.000590     -0.000048     -0.000542
    19   Atom        0.000961     -0.000189     -0.000772
    20   Atom        0.000261      0.000083     -0.000344
    21   Atom        0.000565     -0.000209     -0.000356
    22   Atom        0.005230      0.004521     -0.009751
    23   Atom       -0.025922     -0.004453      0.030375
    24   Atom       -0.077853     -0.072465      0.150318
    25   Atom       -0.002712      0.006221     -0.003509
    26   Atom       -0.003243      0.006402     -0.003159
    27   Atom       -0.007402      0.007072      0.000330
    28   Atom       -0.003950      0.000048      0.003901
    29   Atom       -0.022115     -0.009090      0.031205
    30   Atom       -0.001295     -0.001005      0.002300
    31   Atom       -0.000335      0.000596     -0.000261
    32   Atom       -0.000279      0.001004     -0.000725
    33   Atom       -0.000446      0.000514     -0.000068
    34   Atom        0.000100      0.000219     -0.000319
    35   Atom       -0.001151      0.000462      0.000690
    36   Atom       -0.000872     -0.000158      0.001030
    37   Atom       -0.000746      0.000842     -0.000096
    38   Atom       -0.001043      0.000100      0.000943
    39   Atom       -0.042045      0.049694     -0.007649
    40   Atom        0.034942     -0.035552      0.000610
    41   Atom       -0.000148      0.006250     -0.006102
    42   Atom        0.000331      0.002775     -0.003106
    43   Atom       -0.001497      0.002867     -0.001370
 --------------------------------------------------------
                        XY            XZ            YZ
 --------------------------------------------------------
     1   Atom        0.075915     -0.291344     -0.253991
     2   Atom       -0.013336     -0.012096     -0.015871
     3   Atom        0.042121     -0.207738     -0.153986
     4   Atom        0.005298      0.001586      0.002630
     5   Atom       -0.006754      0.014010      0.005737
     6   Atom        0.013193     -0.046874     -0.062684
     7   Atom        0.000035     -0.016598     -0.011999
     8   Atom       -0.002035      0.000441     -0.000007
     9   Atom       -0.002555      0.002615     -0.001549
    10   Atom       -0.002887      0.000937     -0.002066
    11   Atom       -0.001254     -0.001592      0.000529
    12   Atom       -0.000935     -0.000680      0.000336
    13   Atom       -0.001023     -0.001213      0.000804
    14   Atom       -0.000305     -0.000641      0.000167
    15   Atom       -0.000327     -0.000570      0.000216
    16   Atom       -0.000014     -0.000708      0.000008
    17   Atom       -0.000177     -0.000343      0.000059
    18   Atom       -0.000747      0.000020      0.000014
    19   Atom       -0.000980     -0.000133      0.000102
    20   Atom       -0.000589     -0.000050      0.000075
    21   Atom       -0.000487      0.000004     -0.000073
    22   Atom       -0.006543      0.003505      0.006339
    23   Atom       -0.011254      0.016791     -0.019796
    24   Atom        0.009679     -0.067051     -0.057096
    25   Atom        0.001413      0.001997      0.003312
    26   Atom        0.002131      0.000453      0.000711
    27   Atom       -0.004324     -0.009975      0.018369
    28   Atom        0.000926      0.001155      0.004707
    29   Atom       -0.000552     -0.001427      0.025476
    30   Atom        0.001818      0.003375      0.002480
    31   Atom        0.000820      0.000532      0.000841
    32   Atom        0.000916      0.000374      0.000579
    33   Atom        0.000327      0.000289      0.000718
    34   Atom        0.000822      0.000396      0.000453
    35   Atom       -0.000446     -0.000281      0.002144
    36   Atom       -0.000022     -0.000099      0.001042
    37   Atom       -0.000272      0.000251      0.001022
    38   Atom       -0.001988     -0.002035      0.002930
    39   Atom       -0.010308     -0.013137      0.011291
    40   Atom        0.031758      0.021455      0.002626
    41   Atom        0.005326      0.001166     -0.001175
    42   Atom        0.003901      0.001922      0.002385
    43   Atom        0.002318      0.002321      0.006989
 --------------------------------------------------------


 ---------------------------------------------------------------------------------
              Anisotropic Spin Dipole Couplings in Principal Axis System
 ---------------------------------------------------------------------------------

       Atom             a.u.   MegaHertz   Gauss  10(-4) cm-1        Axes

              Baa    -0.3803   -51.033   -18.210   -17.023 -0.3833  0.9155  0.1224
     1 C(13)  Bbb    -0.3780   -50.723   -18.099   -16.919  0.8816  0.3231  0.3442
              Bcc     0.7583   101.756    36.309    33.942 -0.2755 -0.2399  0.9309
 
              Baa    -0.0349    -4.679    -1.670    -1.561  0.4008  0.8491  0.3441
     2 C(13)  Bbb     0.0082     1.101     0.393     0.367  0.8396 -0.4907  0.2328
              Bcc     0.0267     3.578     1.277     1.194 -0.3665 -0.1956  0.9096
 
              Baa    -0.2888   -11.139    -3.975    -3.716 -0.0044  0.9804  0.1972
     3 N(14)  Bbb    -0.2723   -10.504    -3.748    -3.504  0.9646 -0.0478  0.2593
              Bcc     0.5612    21.643     7.723     7.219 -0.2636 -0.1914  0.9455
 
              Baa    -0.0045    -0.605    -0.216    -0.202 -0.0303 -0.2664  0.9634
     4 C(13)  Bbb    -0.0040    -0.536    -0.191    -0.179  0.8558 -0.5048 -0.1127
              Bcc     0.0085     1.142     0.407     0.381  0.5164  0.8211  0.2433
 
              Baa    -0.0433    -5.814    -2.075    -1.939 -0.2041 -0.1251  0.9709
     5 C(13)  Bbb     0.0115     1.541     0.550     0.514  0.2492  0.9525  0.1752
              Bcc     0.0318     4.273     1.525     1.425  0.9467 -0.2777  0.1632
 
              Baa    -0.1155     8.357     2.982     2.788 -0.4178  0.9011  0.1165
     6 O(17)  Bbb    -0.1057     7.648     2.729     2.551  0.8962  0.3876  0.2159
              Bcc     0.2212   -16.005    -5.711    -5.339 -0.1494 -0.1946  0.9694
 
              Baa    -0.0224    -0.865    -0.309    -0.288  0.5629  0.7448  0.3585
     7 N(14)  Bbb    -0.0145    -0.559    -0.199    -0.186  0.7641 -0.6342  0.1178
              Bcc     0.0369     1.423     0.508     0.475 -0.3151 -0.2076  0.9261
 
              Baa    -0.0020    -0.268    -0.096    -0.089 -0.2476 -0.1882  0.9504
     8 C(13)  Bbb    -0.0010    -0.138    -0.049    -0.046  0.6033  0.7376  0.3032
              Bcc     0.0030     0.406     0.145     0.135  0.7581 -0.6485  0.0691
 
              Baa    -0.0033    -1.636    -0.584    -0.546  0.0185  0.7383  0.6743
     9 F(19)  Bbb    -0.0024    -1.225    -0.437    -0.409 -0.5294 -0.5648  0.6330
              Bcc     0.0057     2.861     1.021     0.954  0.8482 -0.3687  0.3804
 
              Baa    -0.0027    -1.360    -0.485    -0.453  0.4109  0.5295  0.7421
    10 F(19)  Bbb    -0.0022    -1.110    -0.396    -0.370  0.7774  0.2216 -0.5886
              Bcc     0.0049     2.470     0.881     0.824 -0.4762  0.8188 -0.3206
 
              Baa    -0.0015    -0.207    -0.074    -0.069  0.5806  0.5960  0.5547
    11 C(13)  Bbb    -0.0012    -0.159    -0.057    -0.053 -0.0798  0.7197 -0.6897
              Bcc     0.0027     0.366     0.131     0.122  0.8103 -0.3561 -0.4654
 
              Baa    -0.0009    -0.471    -0.168    -0.157  0.6169  0.2943  0.7300
    12 F(19)  Bbb    -0.0005    -0.262    -0.093    -0.087  0.3445  0.7329 -0.5866
              Bcc     0.0015     0.733     0.262     0.245  0.7076 -0.6134 -0.3507
 
              Baa    -0.0015     0.105     0.038     0.035  0.0342  0.8006 -0.5982
    13 O(17)  Bbb    -0.0009     0.068     0.024     0.023  0.5823  0.4705  0.6630
              Bcc     0.0024    -0.174    -0.062    -0.058  0.8122 -0.3710 -0.4501
 
              Baa    -0.0006    -0.079    -0.028    -0.026  0.0435  0.9345 -0.3532
    14 C(13)  Bbb    -0.0005    -0.073    -0.026    -0.024  0.4808  0.2903  0.8274
              Bcc     0.0011     0.152     0.054     0.051  0.8757 -0.2059 -0.4367
 
              Baa    -0.0005    -0.254    -0.091    -0.085  0.3454  0.9384 -0.0111
    15 F(19)  Bbb    -0.0004    -0.200    -0.071    -0.067  0.5357 -0.1875  0.8233
              Bcc     0.0009     0.455     0.162     0.152  0.7705 -0.2903 -0.5675
 
              Baa    -0.0006    -0.293    -0.104    -0.098  0.0093  1.0000 -0.0033
    16 F(19)  Bbb    -0.0005    -0.256    -0.091    -0.085  0.5164 -0.0020  0.8564
              Bcc     0.0011     0.549     0.196     0.183  0.8563 -0.0096 -0.5164
 
              Baa    -0.0004    -0.212    -0.075    -0.071  0.2732 -0.1455  0.9509
    17 F(19)  Bbb    -0.0004    -0.198    -0.071    -0.066  0.1912  0.9770  0.0946
              Bcc     0.0008     0.410     0.146     0.137  0.9428 -0.1559 -0.2947
 
              Baa    -0.0006    -0.076    -0.027    -0.025 -0.3922 -0.5874  0.7079
    18 C(13)  Bbb    -0.0005    -0.070    -0.025    -0.023  0.3869  0.5929  0.7062
              Bcc     0.0011     0.145     0.052     0.048  0.8346 -0.5509  0.0052
 
              Baa    -0.0008    -0.400    -0.143    -0.133 -0.1669 -0.4203  0.8919
    19 F(19)  Bbb    -0.0007    -0.371    -0.132    -0.124  0.4727  0.7598  0.4464
              Bcc     0.0015     0.770     0.275     0.257  0.8653 -0.4961 -0.0719
 
              Baa    -0.0004    -0.217    -0.077    -0.072  0.6082  0.7395 -0.2885
    20 F(19)  Bbb    -0.0003    -0.172    -0.062    -0.058  0.2453  0.1705  0.9543
              Bcc     0.0008     0.389     0.139     0.130  0.7549 -0.6512 -0.0777
 
              Baa    -0.0005    -0.240    -0.086    -0.080  0.3723  0.8014  0.4682
    21 F(19)  Bbb    -0.0003    -0.162    -0.058    -0.054 -0.2290 -0.4096  0.8831
              Bcc     0.0008     0.402     0.144     0.134  0.8994 -0.4360  0.0310
 
              Baa    -0.0139    -1.866    -0.666    -0.622 -0.2965 -0.4032  0.8658
    22 C(13)  Bbb     0.0023     0.307     0.110     0.102  0.6664  0.5620  0.4899
              Bcc     0.0116     1.559     0.556     0.520 -0.6841  0.7222  0.1021
 
              Baa    -0.0321     2.322     0.828     0.774  0.9492  0.2637 -0.1716
    23 O(17)  Bbb    -0.0129     0.931     0.332     0.311 -0.1590  0.8728  0.4614
              Bcc     0.0449    -3.253    -1.161    -1.085  0.2714 -0.4106  0.8705
 
              Baa    -0.0985    -3.797    -1.355    -1.267  0.8657  0.3836  0.3214
    24 N(14)  Bbb    -0.0832    -3.208    -1.145    -1.070 -0.4326  0.8966  0.0950
              Bcc     0.1816     7.005     2.500     2.337 -0.2517 -0.2213  0.9422
 
              Baa    -0.0054    -0.731    -0.261    -0.244 -0.5208 -0.1742  0.8357
    25 C(13)  Bbb    -0.0022    -0.291    -0.104    -0.097  0.8328 -0.3189  0.4525
              Bcc     0.0076     1.021     0.364     0.341  0.1877  0.9316  0.3112
 
              Baa    -0.0038    -1.926    -0.687    -0.642  0.8884 -0.1549 -0.4322
    26 F(19)  Bbb    -0.0031    -1.546    -0.552    -0.516  0.4093 -0.1594  0.8984
              Bcc     0.0069     3.472     1.239     1.158  0.2080  0.9750  0.0782
 
              Baa    -0.0179    -8.994    -3.209    -3.000  0.5102 -0.4504  0.7327
    27 F(19)  Bbb    -0.0074    -3.717    -1.326    -1.240  0.8100  0.5380 -0.2333
              Bcc     0.0253    12.712     4.536     4.240 -0.2891  0.7125  0.6394
 
              Baa    -0.0042    -0.558    -0.199    -0.186  0.9846 -0.1697 -0.0420
    28 C(13)  Bbb    -0.0031    -0.416    -0.148    -0.139  0.1163  0.8151 -0.5675
              Bcc     0.0073     0.974     0.347     0.325  0.1305  0.5539  0.8223
 
              Baa    -0.0222   -11.135    -3.973    -3.714  0.9860 -0.1386  0.0925
    29 F(19)  Bbb    -0.0214   -10.748    -3.835    -3.585  0.1651  0.8894 -0.4262
              Bcc     0.0436    21.883     7.809     7.300 -0.0232  0.4356  0.8999
 
              Baa    -0.0034     0.245     0.088     0.082  0.8775 -0.2332 -0.4190
    30 O(17)  Bbb    -0.0023     0.169     0.060     0.056  0.0066  0.8796 -0.4757
              Bcc     0.0057    -0.414    -0.148    -0.138  0.4795  0.4147  0.7734
 
              Baa    -0.0008    -0.112    -0.040    -0.037  0.8369 -0.1744 -0.5189
    31 C(13)  Bbb    -0.0008    -0.103    -0.037    -0.034  0.3117 -0.6274  0.7136
              Bcc     0.0016     0.215     0.077     0.072  0.4500  0.7590  0.4707
 
              Baa    -0.0009    -0.473    -0.169    -0.158 -0.4001 -0.0832  0.9127
    32 F(19)  Bbb    -0.0007    -0.370    -0.132    -0.123  0.7982 -0.5210  0.3024
              Bcc     0.0017     0.842     0.301     0.281  0.4503  0.8495  0.2748
 
              Baa    -0.0006    -0.308    -0.110    -0.103  0.7270  0.2059 -0.6550
    33 F(19)  Bbb    -0.0005    -0.253    -0.090    -0.084  0.6325 -0.5719  0.5223
              Bcc     0.0011     0.561     0.200     0.187  0.2670  0.7941  0.5460
 
              Baa    -0.0007    -0.335    -0.120    -0.112 -0.6877  0.7116 -0.1439
    34 F(19)  Bbb    -0.0006    -0.277    -0.099    -0.092 -0.3576 -0.1595  0.9202
              Bcc     0.0012     0.612     0.218     0.204  0.6318  0.6842  0.3641
 
              Baa    -0.0016    -0.217    -0.077    -0.072  0.3079  0.7148 -0.6279
    35 C(13)  Bbb    -0.0012    -0.158    -0.056    -0.053  0.9427 -0.1399  0.3029
              Bcc     0.0028     0.374     0.134     0.125 -0.1287  0.6851  0.7170
 
              Baa    -0.0009    -0.444    -0.158    -0.148  0.9679 -0.1963  0.1572
    36 F(19)  Bbb    -0.0008    -0.379    -0.135    -0.126  0.2485  0.8425 -0.4779
              Bcc     0.0016     0.823     0.294     0.274 -0.0386  0.5016  0.8642
 
              Baa    -0.0011    -0.556    -0.199    -0.186  0.7056  0.4036 -0.5824
    37 F(19)  Bbb    -0.0004    -0.197    -0.070    -0.066  0.7073 -0.3518  0.6132
              Bcc     0.0015     0.754     0.269     0.251 -0.0426  0.8446  0.5337
 
              Baa    -0.0026    -1.295    -0.462    -0.432  0.6111  0.7452 -0.2667
    38 F(19)  Bbb    -0.0023    -1.141    -0.407    -0.381  0.6617 -0.2961  0.6888
              Bcc     0.0049     2.436     0.869     0.813 -0.4343  0.5975  0.6741
 
              Baa    -0.0469   -25.023    -8.929    -8.347  0.9518  0.0666  0.2994
    39 H(1)   Bbb    -0.0066    -3.536    -1.262    -1.179 -0.2764 -0.2373  0.9313
              Bcc     0.0535    28.559    10.190     9.526 -0.1330  0.9692  0.2074
 
              Baa    -0.0484   -25.807    -9.208    -8.608 -0.3800  0.9175  0.1172
    40 H(1)   Bbb    -0.0069    -3.661    -1.306    -1.221 -0.2930 -0.2396  0.9256
              Bcc     0.0552    29.468    10.515     9.829  0.8774  0.3173  0.3599
 
              Baa    -0.0068    -3.634    -1.297    -1.212 -0.3357  0.2193  0.9161
    41 H(1)   Bbb    -0.0025    -1.316    -0.470    -0.439  0.8051 -0.4381  0.3998
              Bcc     0.0093     4.950     1.766     1.651  0.4890  0.8718 -0.0295
 
              Baa    -0.0041    -2.177    -0.777    -0.726 -0.2450 -0.1912  0.9505
    42 H(1)   Bbb    -0.0025    -1.347    -0.481    -0.449  0.7855 -0.6138  0.0790
              Bcc     0.0066     3.524     1.257     1.176  0.5683  0.7660  0.3005
 
              Baa    -0.0066    -3.526    -1.258    -1.176 -0.1093 -0.5726  0.8125
    43 H(1)   Bbb    -0.0024    -1.303    -0.465    -0.435  0.9494 -0.3022 -0.0852
              Bcc     0.0091     4.829     1.723     1.611  0.2944  0.7621  0.5767
 

 ---------------------------------------------------------------------------------

 No NMR shielding tensors so no spin-rotation constants.
 Leave Link  601 at Sun Mar  3 17:38:50 2024, MaxMem=  5368709120 cpu:         9.0
 (Enter /home/k0335/k033513/app/g09/l9999.exe)
 1\1\GINC-C24U18N1\SP\UCAM-B3LYP\6-31G(d,p)\C13H5F18N3O4(1+,2)\K033513\
 03-Mar-2024\0\\#p CAM-B3LYP/6-31G(d,p) SCRF=(PCM,Solvent=Generic,Read)
  NoSymm out=wfn\\Title A1462740672_p1\\1,2\C,0,-2.60707,2.144566,0.778
 893\C,0,-1.469489,1.43968,0.929672\N,0,-0.314914,2.074654,1.378002\C,0
 ,-0.299671,3.515495,1.652292\C,0,0.882911,1.395849,1.567388\O,0,1.9228
 35,1.987249,1.856063\N,0,0.843756,0.035663,1.399183\C,0,2.092724,-0.69
 5429,1.548465\F,0,2.775784,-0.201148,2.62326\F,0,1.803043,-1.973548,1.
 933263\C,0,3.013144,-0.709281,0.298699\F,0,2.394021,-1.385036,-0.71311
 6\O,0,3.188486,0.626044,-0.191403\C,0,4.194243,0.735202,-1.162213\F,0,
 4.093124,-0.240179,-2.077747\F,0,4.063479,1.924123,-1.77944\F,0,5.3963
 69,0.691292,-0.566002\C,0,4.27399,-1.469162,0.734401\F,0,5.099709,-1.6
 99654,-0.316829\F,0,4.0078,-2.679116,1.270672\F,0,4.994372,-0.773646,1
 .642874\C,0,-0.168239,-0.585535,0.718648\O,0,-0.010823,-1.692149,0.209
 279\N,0,-1.371557,0.087831,0.6125\C,0,-2.483118,-0.691579,0.029725\F,0
 ,-2.37529,-2.003678,0.372154\F,0,-3.644282,-0.320556,0.666154\C,0,-2.7
 23641,-0.541164,-1.499065\F,0,-2.609419,0.802431,-1.806801\O,0,-4.0734
 25,-0.811494,-1.917129\C,0,-4.463967,-2.158894,-1.843508\F,0,-4.368957
 ,-2.609865,-0.587038\F,0,-3.715454,-2.906156,-2.665323\F,0,-5.74859,-2
 .245651,-2.235036\C,0,-1.632009,-1.259151,-2.288782\F,0,-1.90714,-1.21
 5007,-3.617542\F,0,-1.498154,-2.555935,-1.956522\F,0,-0.429898,-0.6557
 17,-2.134544\H,0,-2.688895,3.199785,1.01528\H,0,-3.541453,1.746097,0.4
 04167\H,0,-0.56243,4.062579,0.741702\H,0,0.679562,3.87369,1.980929\H,0
 ,-1.011466,3.736499,2.453288\\Version=ES64L-G09RevD.01\HF=-2759.597730
 7\S2=0.761163\S2-1=0.\S2A=0.75006\RMSD=4.714e-09\Dipole=-3.8907108,5.0
 572171,2.3221404\Quadrupole=0.1389272,7.9462192,-8.0851463,-11.0860496
 ,-6.2165066,9.7637477\PG=C01 [X(C13H5F18N3O4)]\\@

 Writing a WFN file to "A1462740672/A1462740672_p1.wfn"


 We find comfort among those who agree with us -- growth among those who don't.
 -- Frank A. Clark
 Job cpu time:       0 days  0 hours 37 minutes 55.7 seconds.
 File lengths (MBytes):  RWF=    526 Int=      0 D2E=      0 Chk=     19 Scr=      1
 Normal termination of Gaussian 09 at Sun Mar  3 17:38:50 2024.
