 Entering Gaussian System, Link 0=g09
 Initial command:
 /home/k0335/k033513/app/g09/l1.exe "/home/k0335/k033513/app/g09/scratch/Gau-582666.inp" -scrdir="/home/k0335/k033513/app/g09/scratch/"
 Default is to use a total of  36 processors:
                               36 via shared-memory
                                1 via Linda
 Entering Link 1 = /home/k0335/k033513/app/g09/l1.exe PID=    582667.
  
 Copyright (c) 1988,1990,1992,1993,1995,1998,2003,2009,2013,
            Gaussian, Inc.  All Rights Reserved.
  
 This is part of the Gaussian(R) 09 program.  It is based on
 the Gaussian(R) 03 system (copyright 2003, Gaussian, Inc.),
 the Gaussian(R) 98 system (copyright 1998, Gaussian, Inc.),
 the Gaussian(R) 94 system (copyright 1995, Gaussian, Inc.),
 the Gaussian 92(TM) system (copyright 1992, Gaussian, Inc.),
 the Gaussian 90(TM) system (copyright 1990, Gaussian, Inc.),
 the Gaussian 88(TM) system (copyright 1988, Gaussian, Inc.),
 the Gaussian 86(TM) system (copyright 1986, Carnegie Mellon
 University), and the Gaussian 82(TM) system (copyright 1983,
 Carnegie Mellon University). Gaussian is a federally registered
 trademark of Gaussian, Inc.
  
 This software contains proprietary and confidential information,
 including trade secrets, belonging to Gaussian, Inc.
  
 This software is provided under written license and may be
 used, copied, transmitted, or stored only in accord with that
 written license.
  
 The following legend is applicable only to US Government
 contracts under FAR:
  
                    RESTRICTED RIGHTS LEGEND
  
 Use, reproduction and disclosure by the US Government is
 subject to restrictions as set forth in subparagraphs (a)
 and (c) of the Commercial Computer Software - Restricted
 Rights clause in FAR 52.227-19.
  
 Gaussian, Inc.
 340 Quinnipiac St., Bldg. 40, Wallingford CT 06492
  
  
 ---------------------------------------------------------------
 Warning -- This program may not be used in any manner that
 competes with the business of Gaussian, Inc. or will provide
 assistance to any competitor of Gaussian, Inc.  The licensee
 of this program is prohibited from giving any competitor of
 Gaussian, Inc. access to this program.  By using this program,
 the user acknowledges that Gaussian, Inc. is engaged in the
 business of creating and licensing software in the field of
 computational chemistry and represents and warrants to the
 licensee that it is not a competitor of Gaussian, Inc. and that
 it will not use this program in any manner prohibited above.
 ---------------------------------------------------------------
  

 Cite this work as:
 Gaussian 09, Revision D.01,
 M. J. Frisch, G. W. Trucks, H. B. Schlegel, G. E. Scuseria, 
 M. A. Robb, J. R. Cheeseman, G. Scalmani, V. Barone, B. Mennucci, 
 G. A. Petersson, H. Nakatsuji, M. Caricato, X. Li, H. P. Hratchian, 
 A. F. Izmaylov, J. Bloino, G. Zheng, J. L. Sonnenberg, M. Hada, 
 M. Ehara, K. Toyota, R. Fukuda, J. Hasegawa, M. Ishida, T. Nakajima, 
 Y. Honda, O. Kitao, H. Nakai, T. Vreven, J. A. Montgomery, Jr., 
 J. E. Peralta, F. Ogliaro, M. Bearpark, J. J. Heyd, E. Brothers, 
 K. N. Kudin, V. N. Staroverov, T. Keith, R. Kobayashi, J. Normand, 
 K. Raghavachari, A. Rendell, J. C. Burant, S. S. Iyengar, J. Tomasi, 
 M. Cossi, N. Rega, J. M. Millam, M. Klene, J. E. Knox, J. B. Cross, 
 V. Bakken, C. Adamo, J. Jaramillo, R. Gomperts, R. E. Stratmann, 
 O. Yazyev, A. J. Austin, R. Cammi, C. Pomelli, J. W. Ochterski, 
 R. L. Martin, K. Morokuma, V. G. Zakrzewski, G. A. Voth, 
 P. Salvador, J. J. Dannenberg, S. Dapprich, A. D. Daniels, 
 O. Farkas, J. B. Foresman, J. V. Ortiz, J. Cioslowski, 
 and D. J. Fox, Gaussian, Inc., Wallingford CT, 2013.
 
 ******************************************
 Gaussian 09:  ES64L-G09RevD.01 24-Apr-2013
                 3-Mar-2024 
 ******************************************
 %nprocshared=24
 Will use up to   24 processors via shared memory.
 %mem=40GB
 %rwf=A1462740672/A1462740672_0.rwf
 %nosave
 %chk=A1462740672/A1462740672_0.chk
 ----------------------------------------------------------------------
 #p CAM-B3LYP/6-31G(d,p) SCRF=(PCM,Solvent=Generic,Read) NoSymm out=wfn
 ----------------------------------------------------------------------
 1/38=1,40=2/1;
 2/12=2,15=1,17=6,18=5,40=1/2;
 3/5=1,6=6,7=101,11=2,16=1,25=1,30=1,70=2203,72=-2,74=-40/1,2,3;
 4//1;
 5/5=2,38=5/2;
 6/7=2,8=2,9=2,10=2,28=1/1;
 99/5=1,6=100,9=1/99;
 Leave Link    1 at Sun Mar  3 17:37:12 2024, MaxMem=  5368709120 cpu:         2.2
 (Enter /home/k0335/k033513/app/g09/l101.exe)
 -------------------
 Title A1462740672_0
 -------------------
 Symbolic Z-matrix:
 Charge =  0 Multiplicity = 1
 C                    -2.60707   2.14457   0.77889 
 C                    -1.46949   1.43968   0.92967 
 N                    -0.31491   2.07465   1.378 
 C                    -0.29967   3.5155    1.65229 
 C                     0.88291   1.39585   1.56739 
 O                     1.92284   1.98725   1.85606 
 N                     0.84376   0.03566   1.39918 
 C                     2.09272  -0.69543   1.54847 
 F                     2.77578  -0.20115   2.62326 
 F                     1.80304  -1.97355   1.93326 
 C                     3.01314  -0.70928   0.2987 
 F                     2.39402  -1.38504  -0.71312 
 O                     3.18849   0.62604  -0.1914 
 C                     4.19424   0.7352   -1.16221 
 F                     4.09312  -0.24018  -2.07775 
 F                     4.06348   1.92412  -1.77944 
 F                     5.39637   0.69129  -0.566 
 C                     4.27399  -1.46916   0.7344 
 F                     5.09971  -1.69965  -0.31683 
 F                     4.0078   -2.67912   1.27067 
 F                     4.99437  -0.77365   1.64287 
 C                    -0.16824  -0.58554   0.71865 
 O                    -0.01082  -1.69215   0.20928 
 N                    -1.37156   0.08783   0.6125 
 C                    -2.48312  -0.69158   0.02973 
 F                    -2.37529  -2.00368   0.37215 
 F                    -3.64428  -0.32056   0.66615 
 C                    -2.72364  -0.54116  -1.49907 
 F                    -2.60942   0.80243  -1.8068 
 O                    -4.07343  -0.81149  -1.91713 
 C                    -4.46397  -2.15889  -1.84351 
 F                    -4.36896  -2.60987  -0.58704 
 F                    -3.71545  -2.90616  -2.66532 
 F                    -5.74859  -2.24565  -2.23504 
 C                    -1.63201  -1.25915  -2.28878 
 F                    -1.90714  -1.21501  -3.61754 
 F                    -1.49815  -2.55594  -1.95652 
 F                    -0.4299   -0.65572  -2.13454 
 H                    -2.6889    3.19978   1.01528 
 H                    -3.54145   1.7461    0.40417 
 H                    -0.56243   4.06258   0.7417 
 H                     0.67956   3.87369   1.98093 
 H                    -1.01147   3.7365    2.45329 
 
 NAtoms=     43 NQM=       43 NQMF=       0 NMMI=      0 NMMIF=      0
                NMic=       0 NMicF=      0.
                    Isotopes and Nuclear Properties:
 (Nuclear quadrupole moments (NQMom) in fm**2, nuclear magnetic moments (NMagM)
  in nuclear magnetons)

  Atom         1           2           3           4           5           6           7           8           9          10
 IAtWgt=          12          12          14          12          12          16          14          12          19          19
 AtmWgt=  12.0000000  12.0000000  14.0030740  12.0000000  12.0000000  15.9949146  14.0030740  12.0000000  18.9984033  18.9984033
 NucSpn=           0           0           2           0           0           0           2           0           1           1
 AtZEff=   0.0000000   0.0000000   0.0000000   0.0000000   0.0000000   0.0000000   0.0000000   0.0000000   0.0000000   0.0000000
 NQMom=    0.0000000   0.0000000   2.0440000   0.0000000   0.0000000   0.0000000   2.0440000   0.0000000   0.0000000   0.0000000
 NMagM=    0.0000000   0.0000000   0.4037610   0.0000000   0.0000000   0.0000000   0.4037610   0.0000000   2.6288670   2.6288670
 AtZNuc=   6.0000000   6.0000000   7.0000000   6.0000000   6.0000000   8.0000000   7.0000000   6.0000000   9.0000000   9.0000000

  Atom        11          12          13          14          15          16          17          18          19          20
 IAtWgt=          12          19          16          12          19          19          19          12          19          19
 AtmWgt=  12.0000000  18.9984033  15.9949146  12.0000000  18.9984033  18.9984033  18.9984033  12.0000000  18.9984033  18.9984033
 NucSpn=           0           1           0           0           1           1           1           0           1           1
 AtZEff=   0.0000000   0.0000000   0.0000000   0.0000000   0.0000000   0.0000000   0.0000000   0.0000000   0.0000000   0.0000000
 NQMom=    0.0000000   0.0000000   0.0000000   0.0000000   0.0000000   0.0000000   0.0000000   0.0000000   0.0000000   0.0000000
 NMagM=    0.0000000   2.6288670   0.0000000   0.0000000   2.6288670   2.6288670   2.6288670   0.0000000   2.6288670   2.6288670
 AtZNuc=   6.0000000   9.0000000   8.0000000   6.0000000   9.0000000   9.0000000   9.0000000   6.0000000   9.0000000   9.0000000

  Atom        21          22          23          24          25          26          27          28          29          30
 IAtWgt=          19          12          16          14          12          19          19          12          19          16
 AtmWgt=  18.9984033  12.0000000  15.9949146  14.0030740  12.0000000  18.9984033  18.9984033  12.0000000  18.9984033  15.9949146
 NucSpn=           1           0           0           2           0           1           1           0           1           0
 AtZEff=   0.0000000   0.0000000   0.0000000   0.0000000   0.0000000   0.0000000   0.0000000   0.0000000   0.0000000   0.0000000
 NQMom=    0.0000000   0.0000000   0.0000000   2.0440000   0.0000000   0.0000000   0.0000000   0.0000000   0.0000000   0.0000000
 NMagM=    2.6288670   0.0000000   0.0000000   0.4037610   0.0000000   2.6288670   2.6288670   0.0000000   2.6288670   0.0000000
 AtZNuc=   9.0000000   6.0000000   8.0000000   7.0000000   6.0000000   9.0000000   9.0000000   6.0000000   9.0000000   8.0000000

  Atom        31          32          33          34          35          36          37          38          39          40
 IAtWgt=          12          19          19          19          12          19          19          19           1           1
 AtmWgt=  12.0000000  18.9984033  18.9984033  18.9984033  12.0000000  18.9984033  18.9984033  18.9984033   1.0078250   1.0078250
 NucSpn=           0           1           1           1           0           1           1           1           1           1
 AtZEff=   0.0000000   0.0000000   0.0000000   0.0000000   0.0000000   0.0000000   0.0000000   0.0000000   0.0000000   0.0000000
 NQMom=    0.0000000   0.0000000   0.0000000   0.0000000   0.0000000   0.0000000   0.0000000   0.0000000   0.0000000   0.0000000
 NMagM=    0.0000000   2.6288670   2.6288670   2.6288670   0.0000000   2.6288670   2.6288670   2.6288670   2.7928460   2.7928460
 AtZNuc=   6.0000000   9.0000000   9.0000000   9.0000000   6.0000000   9.0000000   9.0000000   9.0000000   1.0000000   1.0000000

  Atom        41          42          43
 IAtWgt=           1           1           1
 AtmWgt=   1.0078250   1.0078250   1.0078250
 NucSpn=           1           1           1
 AtZEff=   0.0000000   0.0000000   0.0000000
 NQMom=    0.0000000   0.0000000   0.0000000
 NMagM=    2.7928460   2.7928460   2.7928460
 AtZNuc=   1.0000000   1.0000000   1.0000000
 Leave Link  101 at Sun Mar  3 17:37:12 2024, MaxMem=  5368709120 cpu:         0.9
 (Enter /home/k0335/k033513/app/g09/l202.exe)
                          Input orientation:                          
 ---------------------------------------------------------------------
 Center     Atomic      Atomic             Coordinates (Angstroms)
 Number     Number       Type             X           Y           Z
 ---------------------------------------------------------------------
      1          6           0       -2.607070    2.144566    0.778893
      2          6           0       -1.469489    1.439680    0.929672
      3          7           0       -0.314914    2.074654    1.378002
      4          6           0       -0.299671    3.515495    1.652292
      5          6           0        0.882911    1.395849    1.567388
      6          8           0        1.922835    1.987249    1.856063
      7          7           0        0.843756    0.035663    1.399183
      8          6           0        2.092724   -0.695429    1.548465
      9          9           0        2.775784   -0.201148    2.623260
     10          9           0        1.803043   -1.973548    1.933263
     11          6           0        3.013144   -0.709281    0.298699
     12          9           0        2.394021   -1.385036   -0.713116
     13          8           0        3.188486    0.626044   -0.191403
     14          6           0        4.194243    0.735202   -1.162213
     15          9           0        4.093124   -0.240179   -2.077747
     16          9           0        4.063479    1.924123   -1.779440
     17          9           0        5.396369    0.691292   -0.566002
     18          6           0        4.273990   -1.469162    0.734401
     19          9           0        5.099709   -1.699654   -0.316829
     20          9           0        4.007800   -2.679116    1.270672
     21          9           0        4.994372   -0.773646    1.642874
     22          6           0       -0.168239   -0.585535    0.718648
     23          8           0       -0.010823   -1.692149    0.209279
     24          7           0       -1.371557    0.087831    0.612500
     25          6           0       -2.483118   -0.691579    0.029725
     26          9           0       -2.375290   -2.003678    0.372154
     27          9           0       -3.644282   -0.320556    0.666154
     28          6           0       -2.723641   -0.541164   -1.499065
     29          9           0       -2.609419    0.802431   -1.806801
     30          8           0       -4.073425   -0.811494   -1.917129
     31          6           0       -4.463967   -2.158894   -1.843508
     32          9           0       -4.368957   -2.609865   -0.587038
     33          9           0       -3.715454   -2.906156   -2.665323
     34          9           0       -5.748590   -2.245651   -2.235036
     35          6           0       -1.632009   -1.259151   -2.288782
     36          9           0       -1.907140   -1.215007   -3.617542
     37          9           0       -1.498154   -2.555935   -1.956522
     38          9           0       -0.429898   -0.655717   -2.134544
     39          1           0       -2.688895    3.199785    1.015280
     40          1           0       -3.541453    1.746097    0.404167
     41          1           0       -0.562430    4.062579    0.741702
     42          1           0        0.679562    3.873690    1.980929
     43          1           0       -1.011466    3.736499    2.453288
 ---------------------------------------------------------------------
                    Distance matrix (angstroms):
                    1          2          3          4          5
     1  C    0.000000
     2  C    1.346733   0.000000
     3  N    2.370190   1.391846   0.000000
     4  C    2.822474   2.489912   1.466796   0.000000
     5  C    3.655444   2.437702   1.389758   2.428705   0.000000
     6  O    4.658871   3.558918   2.289913   2.704920   1.230662
     7  N    4.091507   2.746417   2.345304   3.671610   1.371106
     8  C    5.544896   4.198923   3.674117   4.844194   2.416081
     9  F    6.154606   4.856223   4.035140   4.920837   2.692254
    10  F    6.143332   4.833920   4.602390   5.884721   3.511886
    11  C    6.321537   5.011004   4.471147   5.536758   3.252543
    12  F    6.300404   5.060087   4.866267   6.071765   3.900958
    13  O    6.069255   4.859583   4.103086   4.890335   3.000270
    14  C    7.211939   6.078662   5.345963   5.987214   4.341900
    15  F    7.664203   6.542871   6.060648   6.878585   5.125336
    16  F    7.147719   6.179620   5.400225   5.774628   4.647187
    17  F    8.244743   7.066621   6.189636   6.733634   5.041732
    18  C    7.772387   6.441044   5.833600   6.826984   4.516810
    19  F    8.681767   7.386714   6.814396   7.760704   5.560018
    20  F    8.201601   6.861593   6.426173   7.554677   5.143764
    21  F    8.188061   6.869423   6.030878   6.813495   4.649357
    22  C    3.661281   2.416460   2.744607   4.208018   2.398157
    23  O    4.667477   3.529168   3.955653   5.411587   3.489836
    24  N    2.405065   1.392007   2.376963   3.738848   2.775851
    25  C    2.936041   2.525790   3.764439   5.009954   4.248754
    26  F    4.174576   3.603889   4.678640   6.033922   4.858111
    27  F    2.676816   2.810266   4.162745   5.184031   4.924809
    28  C    3.523610   3.375708   4.574056   5.680067   5.114916
    29  F    2.913271   3.032130   4.126291   4.965982   4.892205
    30  O    4.261106   4.466827   5.771841   6.760534   6.448216
    31  C    5.370738   5.441246   6.746532   7.858796   7.270455
    32  F    5.251155   5.206356   6.499336   7.687244   6.947619
    33  F    6.212965   6.070802   7.260896   8.458544   7.587361
    34  F    6.182792   6.473619   7.825849   8.831356   8.467335
    35  C    4.684727   4.203397   5.127797   6.332806   5.314499
    36  F    5.577210   5.283565   6.189710   7.261732   6.440843
    37  F    5.550396   4.929085   5.827646   7.163949   5.805515
    38  F    4.590183   3.854978   4.450407   5.635255   4.431331
    39  H    1.084464   2.142953   2.652032   2.492759   4.039407
    40  H    1.082714   2.159417   3.386275   3.898427   4.588110
    41  H    2.803696   2.781670   2.101901   1.094311   3.143599
    42  H    3.903423   3.412912   2.142203   1.093253   2.520330
    43  H    2.807811   2.794024   2.098369   1.094116   3.138810
                    6          7          8          9         10
     6  O    0.000000
     7  N    2.276365   0.000000
     8  C    2.705594   1.454889   0.000000
     9  F    2.470869   2.299386   1.366041   0.000000
    10  F    3.963360   2.289629   1.365860   2.136287   0.000000
    11  C    3.299308   2.544062   1.552186   2.391260   2.394685
    12  F    4.265560   2.980522   2.383503   3.560722   2.774693
    13  O    2.765297   2.894179   2.444203   2.962583   3.632015
    14  C    3.979561   4.275028   3.716297   4.149528   4.757850
    15  F    5.014624   4.766920   4.166325   4.882251   4.933279
    16  F    4.219387   4.902708   4.671282   5.055562   5.838285
    17  F    4.428469   5.001808   4.160293   4.223187   5.124421
    18  C    4.328144   3.804332   2.453423   2.724017   2.792356
    19  F    5.329844   4.906033   3.678281   4.036121   4.000742
    20  F    5.144388   4.171057   2.771227   3.080208   2.407863
    21  F    4.135496   4.235797   2.904237   2.492196   3.421794
    22  C    3.505071   1.368630   2.410939   3.527403   2.699597
    23  O    4.470895   2.265284   2.685476   3.976879   2.518217
    24  N    4.000907   2.351426   3.672978   4.618128   4.008963
    25  C    5.470288   3.670475   4.821298   5.884131   4.861901
    26  F    6.050071   3.946639   4.801913   5.903402   4.460542
    27  F    6.142853   4.561437   5.816549   6.712806   5.831921
    28  C    6.264144   4.632374   5.701632   6.881341   5.858623
    29  F    5.946570   4.773959   5.967541   7.045071   6.415915
    30  O    7.617419   5.991183   7.074264   8.240104   7.121009
    31  C    8.465729   6.595684   7.525783   8.729191   7.319410
    32  F    8.166324   6.173837   7.069566   8.194831   6.697044
    33  F    8.728038   6.779447   7.508545   8.798997   7.243657
    34  F    9.669814   7.865810   8.843318  10.022374   8.629943
    35  C    6.352619   4.626774   5.377349   6.684023   5.489591
    36  F    7.408340   5.856546   6.554121   7.867992   6.719545
    37  F    6.846860   4.843726   5.351712   6.692232   5.134930
    38  F    5.333438   3.819349   4.464275   5.754974   4.823874
    39  H    4.842026   4.758011   6.190384   6.634355   6.912566
    40  H    5.659028   4.810998   6.246152   6.973064   6.688612
    41  H    3.424228   4.315749   5.508117   5.732652   6.591670
    42  H    2.262737   3.885336   4.802177   4.627207   5.954383
    43  H    3.467950   4.271905   5.486045   5.466006   6.387216
                   11         12         13         14         15
    11  C    0.000000
    12  F    1.365184   0.000000
    13  O    1.433191   2.224365   0.000000
    14  C    2.369766   2.817427   1.402118   0.000000
    15  F    2.652152   2.461680   2.264289   1.341565   0.000000
    16  F    3.515207   3.856769   2.229907   1.345957   2.184964
    17  F    2.896390   3.653337   2.240386   1.342573   2.202603
    18  C    1.535249   2.374166   2.534822   2.909076   3.074295
    19  F    2.390286   2.752594   3.012868   2.731861   2.498822
    20  F    2.411291   2.866067   3.705809   4.196577   4.143381
    21  F    2.395039   3.561785   2.930005   3.284104   3.865211
    22  C    3.211365   3.042092   3.682895   4.930845   5.108651
    23  O    3.180944   2.593917   3.971164   5.045355   4.917427
    24  N    4.467601   4.255135   4.661537   5.877655   6.099816
    25  C    5.502868   4.981885   5.826845   6.931347   6.920416
    26  F    5.542209   4.930198   6.179696   7.281106   7.138090
    27  F    6.678881   6.284633   6.951128   8.117883   8.209927
    28  C    6.014227   5.245979   6.166490   7.042705   6.847901
    29  F    6.191253   5.569162   6.021323   6.834459   6.788559
    30  O    7.425618   6.603518   7.601315   8.444910   8.188084
    31  C    7.911866   6.993471   8.309354   9.154483   8.772693
    32  F    7.674123   6.874153   8.230588   9.211335   8.913161
    33  F    7.673703   6.591707   8.140092   8.836410   8.272035
    34  F    9.249229   8.328206   9.606997  10.435342  10.045197
    35  C    5.345546   4.325215   5.584813   6.260337   5.818934
    36  F    6.308874   5.192744   6.410406   6.859944   6.270919
    37  F    5.371030   4.250422   5.933400   6.623133   6.053083
    38  F    4.216406   3.244516   4.302489   4.925725   4.542425
    39  H    6.950362   7.060026   6.528693   7.628449   8.209504
    40  H    7.000196   6.803100   6.848452   7.957163   8.269943
    41  H    5.979267   6.366601   5.172024   6.109195   6.938098
    42  H    5.411019   6.152353   4.643375   5.664136   6.711868
    43  H    6.372182   6.917628   5.857381   7.012777   7.899436
                   16         17         18         19         20
    16  F    0.000000
    17  F    2.183781   0.000000
    18  C    4.228250   2.760135   0.000000
    19  F    4.042866   2.422131   1.356474   0.000000
    20  F    5.522327   4.081807   1.349975   2.161428   0.000000
    21  F    4.456092   2.680817   1.352041   2.170028   2.177768
    22  C    5.517813   5.851963   4.529287   5.483133   4.703947
    23  O    5.799342   5.959830   4.322626   5.137546   4.272001
    24  N    6.215542   6.896220   5.857584   6.777613   6.084954
    25  C    7.278249   8.022066   6.838107   7.657387   6.900889
    26  F    7.843132   8.278990   6.680558   7.512838   6.481311
    27  F    8.392204   9.180164   8.001436   8.906489   8.030106
    28  C    7.226427   8.265840   7.403809   7.996536   7.586473
    29  F    6.766573   8.102134   7.681091   8.240819   8.085765
    30  O    8.585556   9.683022   8.783079   9.353939   8.885735
    31  C    9.454759  10.343201   9.136369   9.695646   9.040995
    32  F    9.648049  10.308233   8.817479   9.516151   8.580556
    33  F    9.199358  10.018687   8.800812   9.202074   8.671347
    34  F   10.671049  11.645661  10.482013  11.030105  10.376176
    35  C    6.544559   7.494685   6.638115   7.028419   6.818611
    36  F    6.991498   8.141690   7.563754   7.760510   7.811835
    37  F    7.143811   7.746772   6.460634   6.852270   6.383219
    38  F    5.193468   6.182244   5.569479   5.913581   5.948345
    39  H    7.418378   8.611880   8.388070   9.297385   8.914731
    40  H    7.914217   9.051989   8.457428   9.330740   8.793439
    41  H    5.685788   6.970147   7.347868   8.147615   8.161940
    42  H    5.421446   6.234002   6.558949   7.475263   7.383827
    43  H    6.852427   7.710366   7.615085   8.635495   8.231144
                   21         22         23         24         25
    21  F    0.000000
    22  C    5.248060   0.000000
    23  O    5.286853   1.228345   0.000000
    24  N    6.506064   1.382991   2.276513   0.000000
    25  C    7.649957   2.417545   2.673130   1.477388   0.000000
    26  F    7.578893   2.646179   2.390457   2.332307   1.360327
    27  F    8.705493   3.486523   3.910502   2.309748   1.375137
    28  C    8.336279   3.383829   3.406257   2.585048   1.554887
    29  F    8.497171   3.776732   4.127979   2.809977   2.370832
    30  O    9.741663   4.716869   4.669250   3.808924   2.516684
    31  C   10.175163   5.243413   4.925675   4.543429   3.096091
    32  F    9.798782   4.842392   4.524340   4.207239   2.759820
    33  F    9.948328   5.423954   4.843701   5.020153   3.699498
    34  F   11.515911   6.528442   6.261231   5.719442   4.267035
    35  C    7.720269   3.411893   3.009326   3.209304   2.534166
    36  F    8.688938   4.714081   4.297469   4.458418   3.729381
    37  F    7.634468   3.578783   2.765678   3.688550   2.896749
    38  F    6.611013   2.866024   2.596791   2.997638   2.983464
    39  H    8.672636   4.557449   5.634956   3.403214   4.019500
    40  H    8.985756   4.112661   4.932024   2.738923   2.683756
    41  H    7.421538   4.664856   5.805570   4.058325   5.176676
    42  H    6.350559   4.711349   5.881661   4.518010   5.886546
    43  H    7.554354   4.732862   5.958782   4.102553   5.258069
                   26         27         28         29         30
    26  F    0.000000
    27  F    2.128304   0.000000
    28  C    2.400366   2.363138   0.000000
    29  F    3.560465   2.906467   1.383111   0.000000
    30  O    3.089625   2.664308   1.438670   2.181797   0.000000
    31  C    3.048905   3.217106   2.400922   3.494301   1.404788
    32  F    2.293953   2.708612   2.796137   4.028345   2.256240
    33  F    3.440461   4.217716   2.817275   3.964088   2.252897
    34  F    4.270263   4.068293   3.549260   4.396429   2.228015
    35  C    2.861358   3.696194   1.526702   2.331900   2.509788
    36  F    4.093756   4.708265   2.368266   2.800363   2.783347
    37  F    2.548938   4.059706   2.402163   3.540614   3.110731
    38  F    3.447475   4.276506   2.382900   2.642711   3.653331
    39  H    5.252427   3.664349   4.507531   3.703750   5.158130
    40  H    3.927057   2.085729   3.085883   2.578289   3.494665
    41  H    6.342121   5.358674   5.557546   4.616665   6.569099
    42  H    6.816431   6.165708   6.571384   5.881915   7.728951
    43  H    6.256258   5.156090   6.070506   5.413923   7.011446
                   31         32         33         34         35
    31  C    0.000000
    32  F    1.338327   0.000000
    33  F    1.339422   2.198664   0.000000
    34  F    1.345763   2.179894   2.180609   0.000000
    35  C    3.004629   3.494459   2.682378   4.233475   0.000000
    36  F    3.251997   4.146098   2.652679   4.210735   1.357663
    37  F    2.994405   3.181180   2.354033   4.270837   1.345349
    38  F    4.314853   4.661508   4.017596   5.552159   1.353881
    39  H    6.327637   6.256362   7.202998   7.041240   5.649420
    40  H    4.599134   4.543309   5.576334   5.269810   4.464243
    41  H    7.785373   7.795942   8.373330   8.692007   6.216803
    42  H    8.801947   8.609209   9.320415   9.825570   7.065398
    43  H    8.070804   7.796965   8.811163   8.955827   6.915838
                   36         37         38         39         40
    36  F    0.000000
    37  F    2.173556   0.000000
    38  F    2.166641   2.187165   0.000000
    39  H    6.447059   6.586181   5.467116   0.000000
    40  H    5.254832   5.315581   4.679267   1.792630   0.000000
    41  H    6.975971   7.208378   5.527447   2.311085   3.788746
    42  H    7.995545   7.847678   6.219610   3.568351   4.982951
    43  H    7.885088   7.699222   6.377930   2.273697   3.815944
                   41         42         43
    41  H    0.000000
    42  H    1.764627   0.000000
    43  H    1.799302   1.761113   0.000000
 Symmetry turned off by external request.
 Stoichiometry    C13H5F18N3O4
 Framework group  C1[X(C13H5F18N3O4)]
 Deg. of freedom   123
 Full point group                 C1      NOp   1
 Rotational constants (GHZ):      0.1874021      0.0655326      0.0607768
 Leave Link  202 at Sun Mar  3 17:37:12 2024, MaxMem=  5368709120 cpu:         0.1
 (Enter /home/k0335/k033513/app/g09/l301.exe)
 Standard basis: 6-31G(d,p) (6D, 7F)
 Ernie: Thresh=  0.10000D-02 Tol=  0.10000D-05 Strict=F.
   595 basis functions,  1099 primitive gaussians,   595 cartesian basis functions
   149 alpha electrons      149 beta electrons
       nuclear repulsion energy      5693.3026526755 Hartrees.
 IExCor=20419 DFT=T Ex+Corr=CAM-B3LYP ExCW=0 ScaHFX=  1.000000
 ScaDFX=  1.000000  1.000000  1.000000  0.810000 ScalE2=  1.000000  1.000000
 IRadAn=      0 IRanWt=     -1 IRanGd=            0 ICorTp=0 IEmpDi=  4
  HFx wShort=  0.000000 wLong=  0.330000 cFull=  0.190000 cShort=  0.000000 cLong=  0.460000
  DFx wShort=  0.000000 wLong=  0.330000 cFull=  0.190000 cShort=  0.000000 cLong=  0.460000
 NAtoms=   43 NActive=   43 NUniq=   43 SFac= 1.00D+00 NAtFMM=   60 NAOKFM=F Big=F
 Integral buffers will be    131072 words long.
 Raffenetti 2 integral format.
 Two-electron integral symmetry is turned off.
 Using the following non-standard input for PCM:
 eps=4.9
 --- end of non-standard input.
 ------------------------------------------------------------------------------
 Polarizable Continuum Model (PCM)
 =================================
 Model                : PCM (using non-symmetric T matrix).
 Atomic radii         : UFF (Universal Force Field).
 Polarization charges : Total charges.
 Charge compensation  : None.
 Solution method      : On-the-fly selection.
 Cavity type          : Scaled VdW (van der Waals Surface) (Alpha=1.100).
 Cavity algorithm     : GePol (No added spheres)
                        Default sphere list used, NSphG=   43.
                        Lebedev-Laikov grids with approx.  5.0 points / Ang**2.
                        Smoothing algorithm: Karplus/York (Gamma=1.0000).
                        Polarization charges: spherical gaussians, with
                                              point-specific exponents (IZeta= 3).
                        Self-potential: point-specific (ISelfS= 7).
                        Self-field    : sphere-specific E.n sum rule (ISelfD= 2).
 Solvent              : Generic,
                        Eps                           =   4.900000
                        Eps(infinity)                 =   0.000000
                        RSolv                         =   0.000000 Ang.
                        Molar volume                  =   0.000000 cm**3/mol
                        Thermal expansion coefficient =   0.000000 K**-1
                        Absolute temperature          = 298.150000 K
                        Numeral density               =   0.000000 Ang**-3
                        Hydrogen bond acidity         =   0.000000
                        Hydrogen bond basicity        =   0.000000
                        Surface tension at interface  =   0.000000 (cal/mol)*Ang**-2
                        Carbon aromaticity            =   0.000000
                        Electronegative halogenicity  =   0.000000
 ------------------------------------------------------------------------------
 GePol: Number of generator spheres                  =      43
 GePol: Total number of spheres                      =      43
 GePol: Number of exposed spheres                    =      43 (100.00%)
 GePol: Number of points                             =    3427
 GePol: Average weight of points                     =       0.12
 GePol: Minimum weight of points                     =   0.63D-11
 GePol: Maximum weight of points                     =    0.20577
 GePol: Number of points with low weight             =     131
 GePol: Fraction of low-weight points (<1% of avg)   =       3.82%
 GePol: Cavity surface area                          =    427.443 Ang**2
 GePol: Cavity volume                                =    508.160 Ang**3
 Leave Link  301 at Sun Mar  3 17:37:12 2024, MaxMem=  5368709120 cpu:         0.8
 (Enter /home/k0335/k033513/app/g09/l302.exe)
 NPDir=0 NMtPBC=     1 NCelOv=     1 NCel=       1 NClECP=     1 NCelD=      1
         NCelK=      1 NCelE2=     1 NClLst=     1 CellRange=     0.0.
 One-electron integrals computed using PRISM.
 NBasis=   595 RedAO= T EigKep=  1.08D-03  NBF=   595
 NBsUse=   595 1.00D-06 EigRej= -1.00D+00 NBFU=   595
 Precomputing XC quadrature grid using
 IXCGrd= 4 IRadAn=           0 IRanWt=          -1 IRanGd=           0 AccXCQ= 0.00D+00.
 Generated NRdTot=       0 NPtTot=           0 NUsed=           0 NTot=          32
 NSgBfM=   582   582   582   582   582 MxSgAt=    43 MxSgA2=    43.
 Leave Link  302 at Sun Mar  3 17:37:12 2024, MaxMem=  5368709120 cpu:        11.6
 (Enter /home/k0335/k033513/app/g09/l303.exe)
 DipDrv:  MaxL=1.
 Leave Link  303 at Sun Mar  3 17:37:12 2024, MaxMem=  5368709120 cpu:         0.9
 (Enter /home/k0335/k033513/app/g09/l401.exe)
 ExpMin= 1.61D-01 ExpMax= 7.00D+03 ExpMxC= 1.05D+03 IAcc=1 IRadAn=         1 AccDes= 0.00D+00
 Harris functional with IExCor=20419 and IRadAn=       1 diagonalized for initial guess.
 HarFok:  IExCor=20419 AccDes= 0.00D+00 IRadAn=         1 IDoV= 1 UseB2=F ITyADJ=14
 ICtDFT=  3500011 ScaDFX=  1.000000  1.000000  1.000000  1.000000
 FoFCou: FMM=F IPFlag=           0 FMFlag=      100000 FMFlg1=           0
         NFxFlg=           0 DoJE=T BraDBF=F KetDBF=T FulRan=T
         wScrn=  0.000000 ICntrl=     500 IOpCl=  0 I1Cent=   200000004 NGrid=           0
         NMat0=    1 NMatS0=      1 NMatT0=    0 NMatD0=    1 NMtDS0=    0 NMtDT0=    0
 Symmetry not used in FoFCou.
 Harris En= -2677.18707536457    
 JPrj=0 DoOrth=F DoCkMO=F.
 Leave Link  401 at Sun Mar  3 17:37:13 2024, MaxMem=  5368709120 cpu:        14.4
 (Enter /home/k0335/k033513/app/g09/l502.exe)
 Closed shell SCF:
 Using DIIS extrapolation, IDIIS=  1040.
 Two-electron integral symmetry not used.
 IVT=     1098561 IEndB=     1098561 NGot=  5368709120 MDV=  5367981820
 LenX=  5367981820 LenY=  5367627200
 Requested convergence on RMS density matrix=1.00D-08 within 128 cycles.
 Requested convergence on MAX density matrix=1.00D-06.
 Requested convergence on             energy=1.00D-06.
 No special actions if energy rises.
 Fock matrices will be formed incrementally for  20 cycles.

 Cycle   1  Pass 1  IDiag  1:
 FoFJK:  IHMeth= 1 ICntrl=       0 DoSepK=T KAlg= 0 I1Cent=   0 FoldK=F
 IRaf=         1 NMat=   1 IRICut=       1 DoRegI=T DoRafI=F ISym2E= 0.
 FoFCou: FMM=F IPFlag=           0 FMFlag=      100000 FMFlg1=           0
         NFxFlg=           0 DoJE=T BraDBF=F KetDBF=F FulRan=T
         wScrn=  0.000000 ICntrl=     500 IOpCl=  0 I1Cent=           0 NGrid=           0
         NMat0=    1 NMatS0=      1 NMatT0=    0 NMatD0=    1 NMtDS0=    0 NMtDT0=    0
 Symmetry not used in FoFCou.
 Inv3:  Mode=1 IEnd=    35232987.
 Iteration    1 A*A^-1 deviation from unit magnitude is 7.55D-15 for    264.
 Iteration    1 A*A^-1 deviation from orthogonality  is 3.05D-15 for   3394     12.
 Iteration    1 A^-1*A deviation from unit magnitude is 6.88D-15 for    985.
 Iteration    1 A^-1*A deviation from orthogonality  is 1.77D-12 for   3019   3016.
 E= -2758.86998707685    
 DIIS: error= 4.06D-02 at cycle   1 NSaved=   1.
 NSaved= 1 IEnMin= 1 EnMin= -2758.86998707685     IErMin= 1 ErrMin= 4.06D-02
 ErrMax= 4.06D-02  0.00D+00 EMaxC= 1.00D-01 BMatC= 2.36D+00 BMatP= 2.36D+00
 IDIUse=3 WtCom= 5.94D-01 WtEn= 4.06D-01
 Coeff-Com:  0.100D+01
 Coeff-En:   0.100D+01
 Coeff:      0.100D+01
 Gap=     0.399 Goal=   None    Shift=    0.000
 GapD=    0.399 DampG=1.000 DampE=0.500 DampFc=0.5000 IDamp=-1.
 Damping current iteration by 5.00D-01
 RMSDP=3.20D-03 MaxDP=1.69D-01              OVMax= 3.84D-01

 Cycle   2  Pass 1  IDiag  1:
 RMSU=  1.60D-03    CP:  1.00D+00
 E= -2759.36019347598     Delta-E=       -0.490206399127 Rises=F Damp=T
 DIIS: error= 1.96D-02 at cycle   2 NSaved=   2.
 NSaved= 2 IEnMin= 2 EnMin= -2759.36019347598     IErMin= 2 ErrMin= 1.96D-02
 ErrMax= 1.96D-02  0.00D+00 EMaxC= 1.00D-01 BMatC= 2.99D-01 BMatP= 2.36D+00
 IDIUse=3 WtCom= 8.04D-01 WtEn= 1.96D-01
 Coeff-Com: -0.253D+00 0.125D+01
 Coeff-En:   0.000D+00 0.100D+01
 Coeff:     -0.203D+00 0.120D+01
 Gap=     0.313 Goal=   None    Shift=    0.000
 RMSDP=1.05D-03 MaxDP=6.00D-02 DE=-4.90D-01 OVMax= 2.57D-01

 Cycle   3  Pass 1  IDiag  1:
 RMSU=  1.01D-03    CP:  1.00D+00  1.17D+00
 E= -2759.71956118820     Delta-E=       -0.359367712219 Rises=F Damp=F
 DIIS: error= 9.42D-03 at cycle   3 NSaved=   3.
 NSaved= 3 IEnMin= 3 EnMin= -2759.71956118820     IErMin= 3 ErrMin= 9.42D-03
 ErrMax= 9.42D-03  0.00D+00 EMaxC= 1.00D-01 BMatC= 1.72D-01 BMatP= 2.99D-01
 IDIUse=3 WtCom= 9.06D-01 WtEn= 9.42D-02
 Coeff-Com: -0.203D+00 0.638D+00 0.564D+00
 Coeff-En:   0.000D+00 0.000D+00 0.100D+01
 Coeff:     -0.184D+00 0.578D+00 0.605D+00
 Gap=     0.324 Goal=   None    Shift=    0.000
 RMSDP=7.65D-04 MaxDP=6.62D-02 DE=-3.59D-01 OVMax= 1.08D-01

 Cycle   4  Pass 1  IDiag  1:
 RMSU=  3.76D-04    CP:  1.00D+00  1.38D+00  4.27D-01
 E= -2759.83017257052     Delta-E=       -0.110611382328 Rises=F Damp=F
 DIIS: error= 3.86D-03 at cycle   4 NSaved=   4.
 NSaved= 4 IEnMin= 4 EnMin= -2759.83017257052     IErMin= 4 ErrMin= 3.86D-03
 ErrMax= 3.86D-03  0.00D+00 EMaxC= 1.00D-01 BMatC= 2.84D-02 BMatP= 1.72D-01
 IDIUse=3 WtCom= 9.61D-01 WtEn= 3.86D-02
 Coeff-Com: -0.617D-01 0.144D+00 0.330D+00 0.588D+00
 Coeff-En:   0.000D+00 0.000D+00 0.135D+00 0.865D+00
 Coeff:     -0.593D-01 0.138D+00 0.322D+00 0.599D+00
 Gap=     0.303 Goal=   None    Shift=    0.000
 RMSDP=2.67D-04 MaxDP=2.58D-02 DE=-1.11D-01 OVMax= 3.10D-02

 Cycle   5  Pass 1  IDiag  1:
 RMSU=  1.14D-04    CP:  9.99D-01  1.34D+00  6.21D-01  6.54D-01
 E= -2759.85007434909     Delta-E=       -0.019901778562 Rises=F Damp=F
 DIIS: error= 7.67D-04 at cycle   5 NSaved=   5.
 NSaved= 5 IEnMin= 5 EnMin= -2759.85007434909     IErMin= 5 ErrMin= 7.67D-04
 ErrMax= 7.67D-04  0.00D+00 EMaxC= 1.00D-01 BMatC= 1.53D-03 BMatP= 2.84D-02
 IDIUse=3 WtCom= 9.92D-01 WtEn= 7.67D-03
 Coeff-Com: -0.200D-01 0.387D-01 0.144D+00 0.333D+00 0.504D+00
 Coeff-En:   0.000D+00 0.000D+00 0.000D+00 0.000D+00 0.100D+01
 Coeff:     -0.199D-01 0.385D-01 0.143D+00 0.330D+00 0.508D+00
 Gap=     0.306 Goal=   None    Shift=    0.000
 RMSDP=5.39D-05 MaxDP=4.93D-03 DE=-1.99D-02 OVMax= 5.65D-03

 Cycle   6  Pass 1  IDiag  1:
 RMSU=  2.72D-05    CP:  9.99D-01  1.35D+00  6.13D-01  6.95D-01  6.36D-01
 E= -2759.85118332574     Delta-E=       -0.001108976659 Rises=F Damp=F
 DIIS: error= 8.08D-05 at cycle   6 NSaved=   6.
 NSaved= 6 IEnMin= 6 EnMin= -2759.85118332574     IErMin= 6 ErrMin= 8.08D-05
 ErrMax= 8.08D-05  0.00D+00 EMaxC= 1.00D-01 BMatC= 2.31D-05 BMatP= 1.53D-03
 IDIUse=1 WtCom= 1.00D+00 WtEn= 0.00D+00
 Coeff-Com:  0.447D-03-0.256D-02 0.827D-02 0.305D-01 0.115D+00 0.848D+00
 Coeff:      0.447D-03-0.256D-02 0.827D-02 0.305D-01 0.115D+00 0.848D+00
 Gap=     0.308 Goal=   None    Shift=    0.000
 RMSDP=1.29D-05 MaxDP=9.66D-04 DE=-1.11D-03 OVMax= 1.53D-03

 Cycle   7  Pass 1  IDiag  1:
 RMSU=  9.87D-06    CP:  9.99D-01  1.35D+00  6.16D-01  7.10D-01  6.86D-01
                    CP:  1.01D+00
 E= -2759.85120494744     Delta-E=       -0.000021621694 Rises=F Damp=F
 DIIS: error= 6.33D-05 at cycle   7 NSaved=   7.
 NSaved= 7 IEnMin= 7 EnMin= -2759.85120494744     IErMin= 7 ErrMin= 6.33D-05
 ErrMax= 6.33D-05  0.00D+00 EMaxC= 1.00D-01 BMatC= 6.47D-06 BMatP= 2.31D-05
 IDIUse=1 WtCom= 1.00D+00 WtEn= 0.00D+00
 Coeff-Com:  0.261D-02-0.568D-02-0.121D-01-0.242D-01-0.424D-02 0.378D+00
 Coeff-Com:  0.665D+00
 Coeff:      0.261D-02-0.568D-02-0.121D-01-0.242D-01-0.424D-02 0.378D+00
 Coeff:      0.665D+00
 Gap=     0.307 Goal=   None    Shift=    0.000
 RMSDP=4.99D-06 MaxDP=4.05D-04 DE=-2.16D-05 OVMax= 8.77D-04

 Cycle   8  Pass 1  IDiag  1:
 RMSU=  3.02D-06    CP:  9.99D-01  1.35D+00  6.17D-01  7.09D-01  7.00D-01
                    CP:  1.12D+00  8.11D-01
 E= -2759.85121104689     Delta-E=       -0.000006099448 Rises=F Damp=F
 DIIS: error= 1.36D-05 at cycle   8 NSaved=   8.
 NSaved= 8 IEnMin= 8 EnMin= -2759.85121104689     IErMin= 8 ErrMin= 1.36D-05
 ErrMax= 1.36D-05  0.00D+00 EMaxC= 1.00D-01 BMatC= 4.73D-07 BMatP= 6.47D-06
 IDIUse=1 WtCom= 1.00D+00 WtEn= 0.00D+00
 Coeff-Com:  0.963D-03-0.195D-02-0.481D-02-0.116D-01-0.104D-01 0.661D-01
 Coeff-Com:  0.245D+00 0.717D+00
 Coeff:      0.963D-03-0.195D-02-0.481D-02-0.116D-01-0.104D-01 0.661D-01
 Coeff:      0.245D+00 0.717D+00
 Gap=     0.308 Goal=   None    Shift=    0.000
 RMSDP=1.55D-06 MaxDP=1.58D-04 DE=-6.10D-06 OVMax= 1.79D-04

 Cycle   9  Pass 1  IDiag  1:
 RMSU=  1.09D-06    CP:  9.99D-01  1.35D+00  6.17D-01  7.09D-01  7.04D-01
                    CP:  1.14D+00  8.82D-01  9.73D-01
 E= -2759.85121149181     Delta-E=       -0.000000444921 Rises=F Damp=F
 DIIS: error= 5.91D-06 at cycle   9 NSaved=   9.
 NSaved= 9 IEnMin= 9 EnMin= -2759.85121149181     IErMin= 9 ErrMin= 5.91D-06
 ErrMax= 5.91D-06  0.00D+00 EMaxC= 1.00D-01 BMatC= 7.05D-08 BMatP= 4.73D-07
 IDIUse=1 WtCom= 1.00D+00 WtEn= 0.00D+00
 Coeff-Com:  0.284D-04-0.913D-05-0.108D-03-0.134D-02-0.382D-02-0.324D-01
 Coeff-Com:  0.499D-02 0.296D+00 0.737D+00
 Coeff:      0.284D-04-0.913D-05-0.108D-03-0.134D-02-0.382D-02-0.324D-01
 Coeff:      0.499D-02 0.296D+00 0.737D+00
 Gap=     0.308 Goal=   None    Shift=    0.000
 RMSDP=6.40D-07 MaxDP=6.79D-05 DE=-4.45D-07 OVMax= 9.21D-05

 Cycle  10  Pass 1  IDiag  1:
 RMSU=  3.51D-07    CP:  9.99D-01  1.35D+00  6.17D-01  7.09D-01  7.05D-01
                    CP:  1.15D+00  9.06D-01  1.08D+00  9.45D-01
 E= -2759.85121156155     Delta-E=       -0.000000069738 Rises=F Damp=F
 DIIS: error= 1.88D-06 at cycle  10 NSaved=  10.
 NSaved=10 IEnMin=10 EnMin= -2759.85121156155     IErMin=10 ErrMin= 1.88D-06
 ErrMax= 1.88D-06  0.00D+00 EMaxC= 1.00D-01 BMatC= 7.21D-09 BMatP= 7.05D-08
 IDIUse=1 WtCom= 1.00D+00 WtEn= 0.00D+00
 Coeff-Com: -0.806D-04 0.181D-03 0.473D-03 0.632D-03-0.491D-03-0.203D-01
 Coeff-Com: -0.218D-01 0.478D-01 0.303D+00 0.691D+00
 Coeff:     -0.806D-04 0.181D-03 0.473D-03 0.632D-03-0.491D-03-0.203D-01
 Coeff:     -0.218D-01 0.478D-01 0.303D+00 0.691D+00
 Gap=     0.308 Goal=   None    Shift=    0.000
 RMSDP=2.01D-07 MaxDP=1.68D-05 DE=-6.97D-08 OVMax= 4.06D-05

 Cycle  11  Pass 1  IDiag  1:
 RMSU=  1.36D-07    CP:  9.99D-01  1.35D+00  6.17D-01  7.09D-01  7.05D-01
                    CP:  1.15D+00  9.13D-01  1.11D+00  1.02D+00  8.97D-01
 E= -2759.85121156745     Delta-E=       -0.000000005899 Rises=F Damp=F
 DIIS: error= 7.71D-07 at cycle  11 NSaved=  11.
 NSaved=11 IEnMin=11 EnMin= -2759.85121156745     IErMin=11 ErrMin= 7.71D-07
 ErrMax= 7.71D-07  0.00D+00 EMaxC= 1.00D-01 BMatC= 1.35D-09 BMatP= 7.21D-09
 IDIUse=1 WtCom= 1.00D+00 WtEn= 0.00D+00
 Coeff-Com: -0.434D-04 0.913D-04 0.266D-03 0.491D-03 0.259D-03-0.619D-02
 Coeff-Com: -0.112D-01-0.133D-01 0.621D-01 0.352D+00 0.615D+00
 Coeff:     -0.434D-04 0.913D-04 0.266D-03 0.491D-03 0.259D-03-0.619D-02
 Coeff:     -0.112D-01-0.133D-01 0.621D-01 0.352D+00 0.615D+00
 Gap=     0.308 Goal=   None    Shift=    0.000
 RMSDP=7.07D-08 MaxDP=5.66D-06 DE=-5.90D-09 OVMax= 8.12D-06

 Cycle  12  Pass 1  IDiag  1:
 RMSU=  4.43D-08    CP:  9.99D-01  1.35D+00  6.17D-01  7.09D-01  7.05D-01
                    CP:  1.15D+00  9.14D-01  1.11D+00  1.03D+00  9.87D-01
                    CP:  8.31D-01
 E= -2759.85121156857     Delta-E=       -0.000000001122 Rises=F Damp=F
 DIIS: error= 2.19D-07 at cycle  12 NSaved=  12.
 NSaved=12 IEnMin=12 EnMin= -2759.85121156857     IErMin=12 ErrMin= 2.19D-07
 ErrMax= 2.19D-07  0.00D+00 EMaxC= 1.00D-01 BMatC= 9.16D-11 BMatP= 1.35D-09
 IDIUse=1 WtCom= 1.00D+00 WtEn= 0.00D+00
 Coeff-Com: -0.624D-05 0.118D-04 0.498D-04 0.115D-03 0.185D-03 0.181D-03
 Coeff-Com: -0.136D-02-0.115D-01-0.138D-01 0.471D-01 0.217D+00 0.762D+00
 Coeff:     -0.624D-05 0.118D-04 0.498D-04 0.115D-03 0.185D-03 0.181D-03
 Coeff:     -0.136D-02-0.115D-01-0.138D-01 0.471D-01 0.217D+00 0.762D+00
 Gap=     0.308 Goal=   None    Shift=    0.000
 RMSDP=2.52D-08 MaxDP=1.74D-06 DE=-1.12D-09 OVMax= 3.29D-06

 Cycle  13  Pass 1  IDiag  1:
 RMSU=  1.48D-08    CP:  9.99D-01  1.35D+00  6.17D-01  7.09D-01  7.05D-01
                    CP:  1.15D+00  9.15D-01  1.12D+00  1.04D+00  1.01D+00
                    CP:  9.09D-01  9.53D-01
 E= -2759.85121156883     Delta-E=       -0.000000000262 Rises=F Damp=F
 DIIS: error= 7.15D-08 at cycle  13 NSaved=  13.
 NSaved=13 IEnMin=13 EnMin= -2759.85121156883     IErMin=13 ErrMin= 7.15D-08
 ErrMax= 7.15D-08  0.00D+00 EMaxC= 1.00D-01 BMatC= 1.45D-11 BMatP= 9.16D-11
 IDIUse=1 WtCom= 1.00D+00 WtEn= 0.00D+00
 Coeff-Com:  0.278D-05-0.644D-05-0.876D-05-0.947D-05 0.471D-04 0.743D-03
 Coeff-Com:  0.746D-03-0.340D-02-0.124D-01-0.201D-01 0.171D-01 0.321D+00
 Coeff-Com:  0.696D+00
 Coeff:      0.278D-05-0.644D-05-0.876D-05-0.947D-05 0.471D-04 0.743D-03
 Coeff:      0.746D-03-0.340D-02-0.124D-01-0.201D-01 0.171D-01 0.321D+00
 Coeff:      0.696D+00
 Gap=     0.308 Goal=   None    Shift=    0.000
 RMSDP=8.21D-09 MaxDP=5.55D-07 DE=-2.62D-10 OVMax= 1.93D-06

 Error on total polarization charges =  0.00249
 SCF Done:  E(RCAM-B3LYP) =  -2759.85121157     A.U. after   13 cycles
            NFock= 13  Conv=0.82D-08     -V/T= 2.0074
 KE= 2.739677041959D+03 PE=-1.791117149349D+04 EE= 6.718340587283D+03
 Leave Link  502 at Sun Mar  3 17:38:06 2024, MaxMem=  5368709120 cpu:      1204.7
 (Enter /home/k0335/k033513/app/g09/l601.exe)
 Copying SCF densities to generalized density rwf, IOpCl= 0 IROHF=0.

 **********************************************************************

            Population analysis using the SCF density.

 **********************************************************************

 Alpha  occ. eigenvalues --  -24.83936 -24.83903 -24.83566 -24.83501 -24.83388
 Alpha  occ. eigenvalues --  -24.83371 -24.83316 -24.83248 -24.83127 -24.82952
 Alpha  occ. eigenvalues --  -24.82753 -24.82707 -24.82682 -24.82558 -24.82454
 Alpha  occ. eigenvalues --  -24.82399 -24.82341 -24.82278 -19.33279 -19.32765
 Alpha  occ. eigenvalues --  -19.23073 -19.22248 -14.51924 -14.51781 -14.49087
 Alpha  occ. eigenvalues --  -10.59789 -10.59407 -10.55217 -10.55105 -10.53367
 Alpha  occ. eigenvalues --  -10.52794 -10.49072 -10.48618 -10.45550 -10.44191
 Alpha  occ. eigenvalues --  -10.38096 -10.30897 -10.26041  -1.43553  -1.43072
 Alpha  occ. eigenvalues --   -1.41610  -1.41494  -1.38967  -1.38493  -1.35417
 Alpha  occ. eigenvalues --   -1.35267  -1.34188  -1.33442  -1.33394  -1.33137
 Alpha  occ. eigenvalues --   -1.32552  -1.32490  -1.32056  -1.31862  -1.31495
 Alpha  occ. eigenvalues --   -1.31017  -1.21224  -1.20533  -1.20269  -1.16441
 Alpha  occ. eigenvalues --   -1.11070  -1.07958  -1.04822  -0.93361  -0.92903
 Alpha  occ. eigenvalues --   -0.87961  -0.85656  -0.83007  -0.82366  -0.82235
 Alpha  occ. eigenvalues --   -0.80470  -0.78100  -0.76239  -0.75560  -0.73606
 Alpha  occ. eigenvalues --   -0.73279  -0.72752  -0.72183  -0.72070  -0.71113
 Alpha  occ. eigenvalues --   -0.70886  -0.70438  -0.70219  -0.69673  -0.68755
 Alpha  occ. eigenvalues --   -0.68533  -0.68277  -0.67549  -0.66915  -0.66137
 Alpha  occ. eigenvalues --   -0.65718  -0.64725  -0.63934  -0.63677  -0.60732
 Alpha  occ. eigenvalues --   -0.59584  -0.58947  -0.58053  -0.57442  -0.57350
 Alpha  occ. eigenvalues --   -0.57143  -0.56978  -0.56740  -0.56151  -0.55887
 Alpha  occ. eigenvalues --   -0.55655  -0.55488  -0.55372  -0.55263  -0.55070
 Alpha  occ. eigenvalues --   -0.54645  -0.54533  -0.54307  -0.53744  -0.53531
 Alpha  occ. eigenvalues --   -0.53327  -0.53201  -0.52955  -0.52925  -0.52405
 Alpha  occ. eigenvalues --   -0.52124  -0.52047  -0.51889  -0.51464  -0.50741
 Alpha  occ. eigenvalues --   -0.50578  -0.50445  -0.50266  -0.50093  -0.49957
 Alpha  occ. eigenvalues --   -0.49707  -0.49363  -0.49156  -0.48883  -0.48678
 Alpha  occ. eigenvalues --   -0.48500  -0.48336  -0.47934  -0.47287  -0.46094
 Alpha  occ. eigenvalues --   -0.45531  -0.45212  -0.44261  -0.43560  -0.38920
 Alpha  occ. eigenvalues --   -0.37073  -0.36627  -0.35797  -0.28853
 Alpha virt. eigenvalues --    0.01901   0.03238   0.05419   0.06012   0.06753
 Alpha virt. eigenvalues --    0.09652   0.12134   0.14049   0.14250   0.15408
 Alpha virt. eigenvalues --    0.16782   0.17603   0.17893   0.18734   0.19628
 Alpha virt. eigenvalues --    0.20302   0.20563   0.21143   0.21615   0.21996
 Alpha virt. eigenvalues --    0.22316   0.22675   0.22847   0.22964   0.23070
 Alpha virt. eigenvalues --    0.23859   0.24679   0.25179   0.25406   0.25911
 Alpha virt. eigenvalues --    0.27282   0.27761   0.28507   0.29398   0.29875
 Alpha virt. eigenvalues --    0.30933   0.31448   0.32120   0.33128   0.33736
 Alpha virt. eigenvalues --    0.36778   0.38546   0.38885   0.40584   0.41680
 Alpha virt. eigenvalues --    0.46291   0.47528   0.48260   0.49033   0.50001
 Alpha virt. eigenvalues --    0.50556   0.51432   0.51818   0.52527   0.53335
 Alpha virt. eigenvalues --    0.53595   0.54180   0.54344   0.54919   0.55112
 Alpha virt. eigenvalues --    0.55861   0.56615   0.57060   0.57986   0.58398
 Alpha virt. eigenvalues --    0.60311   0.61202   0.61408   0.62222   0.62646
 Alpha virt. eigenvalues --    0.64659   0.65425   0.65759   0.68055   0.69237
 Alpha virt. eigenvalues --    0.70041   0.71038   0.71440   0.71579   0.73329
 Alpha virt. eigenvalues --    0.73789   0.75437   0.76341   0.78561   0.79764
 Alpha virt. eigenvalues --    0.82003   0.83082   0.84661   0.85461   0.86595
 Alpha virt. eigenvalues --    0.87158   0.87478   0.89525   0.89864   0.90546
 Alpha virt. eigenvalues --    0.91830   0.92850   0.94604   0.95294   0.96651
 Alpha virt. eigenvalues --    0.97526   0.97984   0.98533   1.00285   1.01070
 Alpha virt. eigenvalues --    1.01951   1.02496   1.04018   1.04611   1.05714
 Alpha virt. eigenvalues --    1.06198   1.07232   1.07641   1.08293   1.08927
 Alpha virt. eigenvalues --    1.09398   1.10444   1.11095   1.12167   1.12863
 Alpha virt. eigenvalues --    1.13393   1.14323   1.14456   1.15305   1.16081
 Alpha virt. eigenvalues --    1.17000   1.17314   1.17943   1.18828   1.19267
 Alpha virt. eigenvalues --    1.20023   1.20564   1.21760   1.22973   1.23486
 Alpha virt. eigenvalues --    1.23820   1.24372   1.25558   1.26584   1.27306
 Alpha virt. eigenvalues --    1.28171   1.28577   1.28608   1.29751   1.30170
 Alpha virt. eigenvalues --    1.31256   1.32380   1.32702   1.33249   1.33607
 Alpha virt. eigenvalues --    1.34068   1.34268   1.34715   1.35522   1.36101
 Alpha virt. eigenvalues --    1.36375   1.36628   1.37864   1.38188   1.39128
 Alpha virt. eigenvalues --    1.39437   1.40071   1.40204   1.40466   1.40854
 Alpha virt. eigenvalues --    1.41305   1.42079   1.42338   1.43353   1.44075
 Alpha virt. eigenvalues --    1.45309   1.45815   1.46557   1.47179   1.47765
 Alpha virt. eigenvalues --    1.48531   1.48860   1.49576   1.50255   1.50625
 Alpha virt. eigenvalues --    1.51360   1.53019   1.53208   1.53408   1.53770
 Alpha virt. eigenvalues --    1.55273   1.55820   1.56283   1.56563   1.57208
 Alpha virt. eigenvalues --    1.57968   1.59594   1.60173   1.60596   1.61113
 Alpha virt. eigenvalues --    1.61468   1.62805   1.64190   1.65008   1.66158
 Alpha virt. eigenvalues --    1.67448   1.68455   1.69101   1.69269   1.71231
 Alpha virt. eigenvalues --    1.71712   1.72822   1.73778   1.73860   1.74327
 Alpha virt. eigenvalues --    1.74741   1.75285   1.76008   1.76812   1.76896
 Alpha virt. eigenvalues --    1.78272   1.79535   1.79836   1.80063   1.80716
 Alpha virt. eigenvalues --    1.82089   1.82446   1.82850   1.83703   1.84142
 Alpha virt. eigenvalues --    1.84688   1.85455   1.86007   1.86576   1.86919
 Alpha virt. eigenvalues --    1.87280   1.87550   1.87984   1.88381   1.88640
 Alpha virt. eigenvalues --    1.89107   1.89703   1.90021   1.90991   1.91379
 Alpha virt. eigenvalues --    1.92054   1.92465   1.93286   1.93580   1.93944
 Alpha virt. eigenvalues --    1.94220   1.94297   1.94854   1.94921   1.95919
 Alpha virt. eigenvalues --    1.96840   1.97017   1.97145   1.97980   1.98746
 Alpha virt. eigenvalues --    1.99665   1.99831   2.00447   2.00676   2.01179
 Alpha virt. eigenvalues --    2.01370   2.01839   2.02192   2.02523   2.02684
 Alpha virt. eigenvalues --    2.03258   2.03641   2.03970   2.04344   2.04707
 Alpha virt. eigenvalues --    2.04992   2.05487   2.05539   2.06540   2.07359
 Alpha virt. eigenvalues --    2.07911   2.08421   2.09071   2.09239   2.09345
 Alpha virt. eigenvalues --    2.09676   2.10691   2.11212   2.12210   2.12426
 Alpha virt. eigenvalues --    2.12512   2.12972   2.13853   2.14858   2.16191
 Alpha virt. eigenvalues --    2.16344   2.17822   2.18342   2.18707   2.19006
 Alpha virt. eigenvalues --    2.19442   2.19801   2.21085   2.21776   2.21870
 Alpha virt. eigenvalues --    2.23780   2.24039   2.25132   2.26236   2.27342
 Alpha virt. eigenvalues --    2.27544   2.28244   2.28544   2.30296   2.30814
 Alpha virt. eigenvalues --    2.31741   2.32737   2.34396   2.36107   2.36492
 Alpha virt. eigenvalues --    2.37973   2.38466   2.39588   2.40824   2.41931
 Alpha virt. eigenvalues --    2.42129   2.43472   2.43605   2.44991   2.45268
 Alpha virt. eigenvalues --    2.47089   2.48274   2.49279   2.49983   2.51246
 Alpha virt. eigenvalues --    2.52349   2.52573   2.54443   2.54984   2.55610
 Alpha virt. eigenvalues --    2.56400   2.59619   2.61442   2.62239   2.62845
 Alpha virt. eigenvalues --    2.63451   2.63867   2.65755   2.66417   2.66560
 Alpha virt. eigenvalues --    2.67696   2.70387   2.72034   2.72576   2.72711
 Alpha virt. eigenvalues --    2.74339   2.76105   2.76879   2.77340   2.78307
 Alpha virt. eigenvalues --    2.80842   2.81907   2.83997   2.84243   2.84961
 Alpha virt. eigenvalues --    2.86820   2.87954   2.88228   2.90244   2.90631
 Alpha virt. eigenvalues --    2.91111   2.91864   2.92736   2.93434   2.94339
 Alpha virt. eigenvalues --    2.94897   2.95516   2.96915   2.97300   2.98437
 Alpha virt. eigenvalues --    3.00066   3.03913   3.05172   3.05429   3.06108
 Alpha virt. eigenvalues --    3.06940   3.07195   3.07426   3.08543   3.10990
 Alpha virt. eigenvalues --    3.12155   3.13503   3.14028   3.16912   3.18098
 Alpha virt. eigenvalues --    3.18361   3.19200   3.21556   3.22919   3.23493
 Alpha virt. eigenvalues --    3.25871   3.25919   3.28575   3.30921   3.31352
 Alpha virt. eigenvalues --    3.34608   3.37557   3.38891   3.42107   3.47305
 Alpha virt. eigenvalues --    3.52294   3.57447   3.74703   3.96714   4.06763
 Alpha virt. eigenvalues --    4.15428   4.19397   4.23700   4.25882   4.29759
 Alpha virt. eigenvalues --    4.35156   4.36733   4.37314   4.40863   4.45672
 Alpha virt. eigenvalues --    4.47830   4.49365   4.54433   4.56971   4.61149
 Alpha virt. eigenvalues --    4.64503   4.72835   4.74810   4.77601   4.81344
 Alpha virt. eigenvalues --    4.87207   4.88709   4.96706   5.08769   5.12641
 Alpha virt. eigenvalues --    5.25447   5.33585   5.34899   5.43947   5.60097
 Alpha virt. eigenvalues --    5.66961   5.68382   6.23878   6.30764   6.63484
 Alpha virt. eigenvalues --    6.89819
          Condensed to atoms (all electrons):
               1          2          3          4          5          6
     1  C    5.129748   0.650074  -0.076397  -0.007096   0.003612  -0.000122
     2  C    0.650074   4.325039   0.284654  -0.033257  -0.021289   0.001179
     3  N   -0.076397   0.284654   7.161875   0.281233   0.289555  -0.087153
     4  C   -0.007096  -0.033257   0.281233   4.813526  -0.030370  -0.010421
     5  C    0.003612  -0.021289   0.289555  -0.030370   4.179002   0.581383
     6  O   -0.000122   0.001179  -0.087153  -0.010421   0.581383   8.110633
     7  N    0.000065   0.003173  -0.097787   0.002997   0.194696  -0.090444
     8  C    0.000008   0.000254   0.001874  -0.000025  -0.006676   0.017996
     9  F    0.000000   0.000003   0.000030   0.000003   0.005098  -0.012038
    10  F    0.000000   0.000002  -0.000025   0.000000   0.000503   0.000018
    11  C    0.000000   0.000052  -0.000120   0.000000  -0.003119  -0.003908
    12  F    0.000000   0.000003   0.000001   0.000000  -0.000396   0.000007
    13  O    0.000000   0.000027  -0.000341  -0.000001   0.004637  -0.002490
    14  C    0.000000   0.000000  -0.000005   0.000000   0.000104   0.000478
    15  F    0.000000   0.000000   0.000000   0.000000   0.000000   0.000000
    16  F    0.000000   0.000000   0.000000   0.000000  -0.000013  -0.000004
    17  F    0.000000   0.000000   0.000000   0.000000   0.000002  -0.000002
    18  C    0.000000   0.000000  -0.000001   0.000000  -0.000043  -0.000031
    19  F    0.000000   0.000000   0.000000   0.000000   0.000000   0.000000
    20  F    0.000000   0.000000   0.000000   0.000000   0.000002   0.000000
    21  F    0.000000   0.000000   0.000000   0.000000   0.000003  -0.000001
    22  C    0.002450  -0.020836  -0.004659   0.000233  -0.010191  -0.000120
    23  O   -0.000123   0.000610   0.000277   0.000002  -0.000158  -0.000027
    24  N   -0.080957   0.236480  -0.038899   0.002768  -0.006754   0.000233
    25  C    0.001357  -0.020483   0.002007  -0.000031   0.000225   0.000002
    26  F    0.000052   0.000924  -0.000015   0.000000   0.000007   0.000000
    27  F   -0.008170  -0.002570   0.000063   0.000000   0.000002   0.000000
    28  C   -0.000905   0.000549  -0.000085   0.000001   0.000013   0.000000
    29  F    0.000253   0.001931  -0.000065   0.000000   0.000003   0.000000
    30  O   -0.000176   0.000069   0.000000   0.000000   0.000000   0.000000
    31  C    0.000002  -0.000001   0.000000   0.000000   0.000000   0.000000
    32  F    0.000001   0.000001   0.000000   0.000000   0.000000   0.000000
    33  F    0.000000   0.000000   0.000000   0.000000   0.000000   0.000000
    34  F    0.000000   0.000000   0.000000   0.000000   0.000000   0.000000
    35  C    0.000073   0.000085   0.000007   0.000000  -0.000002   0.000000
    36  F    0.000000   0.000000   0.000000   0.000000   0.000000   0.000000
    37  F    0.000000  -0.000003   0.000000   0.000000   0.000000   0.000000
    38  F    0.000026   0.000317  -0.000024   0.000000   0.000055   0.000000
    39  H    0.375222  -0.016335  -0.011702   0.005456   0.000114  -0.000002
    40  H    0.369683  -0.015070   0.003693   0.000037  -0.000059   0.000001
    41  H    0.003473  -0.001544  -0.040997   0.392148   0.000929   0.000611
    42  H    0.000426   0.002545  -0.025797   0.387088  -0.002498   0.014574
    43  H    0.002669  -0.002888  -0.041760   0.393280   0.001373   0.000597
               7          8          9         10         11         12
     1  C    0.000065   0.000008   0.000000   0.000000   0.000000   0.000000
     2  C    0.003173   0.000254   0.000003   0.000002   0.000052   0.000003
     3  N   -0.097787   0.001874   0.000030  -0.000025  -0.000120   0.000001
     4  C    0.002997  -0.000025   0.000003   0.000000   0.000000   0.000000
     5  C    0.194696  -0.006676   0.005098   0.000503  -0.003119  -0.000396
     6  O   -0.090444   0.017996  -0.012038   0.000018  -0.003908   0.000007
     7  N    7.565594   0.187643  -0.036722  -0.040501  -0.069323  -0.001041
     8  C    0.187643   4.360118   0.267004   0.268165   0.210782  -0.022460
     9  F   -0.036722   0.267004   9.101921  -0.041865  -0.035687   0.000301
    10  F   -0.040501   0.268165  -0.041865   9.105302  -0.023932  -0.000112
    11  C   -0.069323   0.210782  -0.035687  -0.023932   4.992777   0.220760
    12  F   -0.001041  -0.022460   0.000301  -0.000112   0.220760   9.124640
    13  O    0.000382  -0.027212   0.000752   0.000543   0.155559  -0.052833
    14  C   -0.000199   0.001116  -0.000055   0.000005   0.002051  -0.001101
    15  F   -0.000002   0.000173   0.000000   0.000000   0.012197  -0.001351
    16  F    0.000001  -0.000032   0.000000   0.000000   0.000539  -0.000020
    17  F    0.000001  -0.000164   0.000001   0.000000  -0.008955  -0.000017
    18  C    0.003251  -0.029954   0.008220  -0.001297   0.206792  -0.014851
    19  F   -0.000013   0.001299   0.000001  -0.000003  -0.031439  -0.000037
    20  F    0.000046   0.006539  -0.000941  -0.002744  -0.029377  -0.000267
    21  F   -0.000031  -0.000405  -0.000770  -0.000142  -0.031982   0.000313
    22  C    0.206004  -0.013535   0.000793   0.006938  -0.000224   0.007792
    23  O   -0.088923   0.016012   0.000009  -0.009760  -0.001476  -0.004771
    24  N   -0.096569   0.001902  -0.000023  -0.000004  -0.000291   0.000008
    25  C    0.000998  -0.000033   0.000000   0.000011   0.000003   0.000004
    26  F   -0.000066   0.000013   0.000000  -0.000001   0.000000   0.000000
    27  F   -0.000026   0.000000   0.000000   0.000000   0.000000   0.000000
    28  C   -0.000133   0.000002   0.000000   0.000000   0.000000   0.000000
    29  F    0.000001   0.000000   0.000000   0.000000   0.000000   0.000000
    30  O    0.000000   0.000000   0.000000   0.000000   0.000000   0.000000
    31  C    0.000000   0.000000   0.000000   0.000000   0.000000   0.000000
    32  F    0.000000   0.000000   0.000000   0.000000   0.000000   0.000000
    33  F    0.000000   0.000000   0.000000   0.000000   0.000000   0.000000
    34  F    0.000000   0.000000   0.000000   0.000000   0.000000   0.000000
    35  C   -0.000015  -0.000004   0.000000   0.000001   0.000004   0.000005
    36  F    0.000000   0.000000   0.000000   0.000000   0.000000   0.000000
    37  F   -0.000007   0.000000   0.000000   0.000000   0.000000   0.000000
    38  F   -0.000285  -0.000020   0.000000   0.000000   0.000097   0.000136
    39  H   -0.000009   0.000000   0.000000   0.000000   0.000000   0.000000
    40  H    0.000003   0.000000   0.000000   0.000000   0.000000   0.000000
    41  H   -0.000029   0.000004   0.000000   0.000000   0.000000   0.000000
    42  H    0.000746  -0.000001   0.000003   0.000000   0.000000   0.000000
    43  H   -0.000081  -0.000002   0.000000   0.000000   0.000000   0.000000
              13         14         15         16         17         18
     1  C    0.000000   0.000000   0.000000   0.000000   0.000000   0.000000
     2  C    0.000027   0.000000   0.000000   0.000000   0.000000   0.000000
     3  N   -0.000341  -0.000005   0.000000   0.000000   0.000000  -0.000001
     4  C   -0.000001   0.000000   0.000000   0.000000   0.000000   0.000000
     5  C    0.004637   0.000104   0.000000  -0.000013   0.000002  -0.000043
     6  O   -0.002490   0.000478   0.000000  -0.000004  -0.000002  -0.000031
     7  N    0.000382  -0.000199  -0.000002   0.000001   0.000001   0.003251
     8  C   -0.027212   0.001116   0.000173  -0.000032  -0.000164  -0.029954
     9  F    0.000752  -0.000055   0.000000   0.000000   0.000001   0.008220
    10  F    0.000543   0.000005   0.000000   0.000000   0.000000  -0.001297
    11  C    0.155559   0.002051   0.012197   0.000539  -0.008955   0.206792
    12  F   -0.052833  -0.001101  -0.001351  -0.000020  -0.000017  -0.014851
    13  O    8.351297   0.235809  -0.046317  -0.039448  -0.047563  -0.026731
    14  C    0.235809   3.822949   0.295825   0.338776   0.301505  -0.003965
    15  F   -0.046317   0.295825   9.058953  -0.036677  -0.033834  -0.004246
    16  F   -0.039448   0.338776  -0.036677   9.015127  -0.037539  -0.000031
    17  F   -0.047563   0.301505  -0.033834  -0.037539   9.060497   0.017847
    18  C   -0.026731  -0.003965  -0.004246  -0.000031   0.017847   4.199091
    19  F   -0.001508   0.012141  -0.001611  -0.000003  -0.007010   0.278952
    20  F    0.000537   0.000061   0.000000   0.000000   0.000000   0.288722
    21  F    0.000294  -0.000351   0.000014   0.000000  -0.000530   0.266274
    22  C    0.000111  -0.000011   0.000000   0.000000   0.000000   0.000335
    23  O   -0.000049  -0.000004   0.000000   0.000000   0.000000  -0.000026
    24  N   -0.000007   0.000000   0.000000   0.000000   0.000000   0.000000
    25  C    0.000000   0.000000   0.000000   0.000000   0.000000   0.000000
    26  F    0.000000   0.000000   0.000000   0.000000   0.000000   0.000000
    27  F    0.000000   0.000000   0.000000   0.000000   0.000000   0.000000
    28  C    0.000000   0.000000   0.000000   0.000000   0.000000   0.000000
    29  F    0.000000   0.000000   0.000000   0.000000   0.000000   0.000000
    30  O    0.000000   0.000000   0.000000   0.000000   0.000000   0.000000
    31  C    0.000000   0.000000   0.000000   0.000000   0.000000   0.000000
    32  F    0.000000   0.000000   0.000000   0.000000   0.000000   0.000000
    33  F    0.000000   0.000000   0.000000   0.000000   0.000000   0.000000
    34  F    0.000000   0.000000   0.000000   0.000000   0.000000   0.000000
    35  C    0.000000   0.000000   0.000000   0.000000   0.000000   0.000000
    36  F    0.000000   0.000000   0.000000   0.000000   0.000000   0.000000
    37  F    0.000000   0.000000   0.000000   0.000000   0.000000   0.000000
    38  F   -0.000003   0.000002   0.000000   0.000000   0.000000   0.000000
    39  H    0.000000   0.000000   0.000000   0.000000   0.000000   0.000000
    40  H    0.000000   0.000000   0.000000   0.000000   0.000000   0.000000
    41  H    0.000001   0.000000   0.000000   0.000000   0.000000   0.000000
    42  H    0.000001   0.000000   0.000000   0.000000   0.000000   0.000000
    43  H    0.000000   0.000000   0.000000   0.000000   0.000000   0.000000
              19         20         21         22         23         24
     1  C    0.000000   0.000000   0.000000   0.002450  -0.000123  -0.080957
     2  C    0.000000   0.000000   0.000000  -0.020836   0.000610   0.236480
     3  N    0.000000   0.000000   0.000000  -0.004659   0.000277  -0.038899
     4  C    0.000000   0.000000   0.000000   0.000233   0.000002   0.002768
     5  C    0.000000   0.000002   0.000003  -0.010191  -0.000158  -0.006754
     6  O    0.000000   0.000000  -0.000001  -0.000120  -0.000027   0.000233
     7  N   -0.000013   0.000046  -0.000031   0.206004  -0.088923  -0.096569
     8  C    0.001299   0.006539  -0.000405  -0.013535   0.016012   0.001902
     9  F    0.000001  -0.000941  -0.000770   0.000793   0.000009  -0.000023
    10  F   -0.000003  -0.002744  -0.000142   0.006938  -0.009760  -0.000004
    11  C   -0.031439  -0.029377  -0.031982  -0.000224  -0.001476  -0.000291
    12  F   -0.000037  -0.000267   0.000313   0.007792  -0.004771   0.000008
    13  O   -0.001508   0.000537   0.000294   0.000111  -0.000049  -0.000007
    14  C    0.012141   0.000061  -0.000351  -0.000011  -0.000004   0.000000
    15  F   -0.001611   0.000000   0.000014   0.000000   0.000000   0.000000
    16  F   -0.000003   0.000000   0.000000   0.000000   0.000000   0.000000
    17  F   -0.007010   0.000000  -0.000530   0.000000   0.000000   0.000000
    18  C    0.278952   0.288722   0.266274   0.000335  -0.000026   0.000000
    19  F    9.090094  -0.040024  -0.038745   0.000000   0.000000   0.000000
    20  F   -0.040024   9.059241  -0.037936  -0.000005  -0.000001   0.000000
    21  F   -0.038745  -0.037936   9.091408   0.000000   0.000000   0.000000
    22  C    0.000000  -0.000005   0.000000   4.215674   0.530405   0.234221
    23  O    0.000000  -0.000001   0.000000   0.530405   8.159327  -0.090391
    24  N    0.000000   0.000000   0.000000   0.234221  -0.090391   7.451582
    25  C    0.000000   0.000000   0.000000  -0.007622   0.016542   0.207520
    26  F    0.000000   0.000000   0.000000   0.007404  -0.018704  -0.034286
    27  F    0.000000   0.000000   0.000000   0.000503   0.000019  -0.043072
    28  C    0.000000   0.000000   0.000000  -0.001119  -0.005707  -0.067724
    29  F    0.000000   0.000000   0.000000  -0.000410   0.000021  -0.000585
    30  O    0.000000   0.000000   0.000000   0.000036   0.000003   0.001924
    31  C    0.000000   0.000000   0.000000  -0.000008   0.000004   0.000286
    32  F    0.000000   0.000000   0.000000   0.000013  -0.000001   0.000054
    33  F    0.000000   0.000000   0.000000   0.000000   0.000000  -0.000001
    34  F    0.000000   0.000000   0.000000   0.000000   0.000000   0.000000
    35  C    0.000000   0.000000   0.000000   0.001836   0.008785  -0.002034
    36  F    0.000000   0.000000   0.000000   0.000008  -0.000002  -0.000010
    37  F    0.000000   0.000000   0.000000  -0.000746  -0.000296  -0.000304
    38  F    0.000000   0.000000   0.000000   0.012926  -0.007430  -0.000697
    39  H    0.000000   0.000000   0.000000  -0.000049   0.000001   0.003728
    40  H    0.000000   0.000000   0.000000  -0.000023   0.000000  -0.008698
    41  H    0.000000   0.000000   0.000000  -0.000068   0.000000  -0.000040
    42  H    0.000000   0.000000   0.000000  -0.000008   0.000000  -0.000068
    43  H    0.000000   0.000000   0.000000   0.000037   0.000000  -0.000144
              25         26         27         28         29         30
     1  C    0.001357   0.000052  -0.008170  -0.000905   0.000253  -0.000176
     2  C   -0.020483   0.000924  -0.002570   0.000549   0.001931   0.000069
     3  N    0.002007  -0.000015   0.000063  -0.000085  -0.000065   0.000000
     4  C   -0.000031   0.000000   0.000000   0.000001   0.000000   0.000000
     5  C    0.000225   0.000007   0.000002   0.000013   0.000003   0.000000
     6  O    0.000002   0.000000   0.000000   0.000000   0.000000   0.000000
     7  N    0.000998  -0.000066  -0.000026  -0.000133   0.000001   0.000000
     8  C   -0.000033   0.000013   0.000000   0.000002   0.000000   0.000000
     9  F    0.000000   0.000000   0.000000   0.000000   0.000000   0.000000
    10  F    0.000011  -0.000001   0.000000   0.000000   0.000000   0.000000
    11  C    0.000003   0.000000   0.000000   0.000000   0.000000   0.000000
    12  F    0.000004   0.000000   0.000000   0.000000   0.000000   0.000000
    13  O    0.000000   0.000000   0.000000   0.000000   0.000000   0.000000
    14  C    0.000000   0.000000   0.000000   0.000000   0.000000   0.000000
    15  F    0.000000   0.000000   0.000000   0.000000   0.000000   0.000000
    16  F    0.000000   0.000000   0.000000   0.000000   0.000000   0.000000
    17  F    0.000000   0.000000   0.000000   0.000000   0.000000   0.000000
    18  C    0.000000   0.000000   0.000000   0.000000   0.000000   0.000000
    19  F    0.000000   0.000000   0.000000   0.000000   0.000000   0.000000
    20  F    0.000000   0.000000   0.000000   0.000000   0.000000   0.000000
    21  F    0.000000   0.000000   0.000000   0.000000   0.000000   0.000000
    22  C   -0.007622   0.007404   0.000503  -0.001119  -0.000410   0.000036
    23  O    0.016542  -0.018704   0.000019  -0.005707   0.000021   0.000003
    24  N    0.207520  -0.034286  -0.043072  -0.067724  -0.000585   0.001924
    25  C    4.453775   0.252483   0.249284   0.189303  -0.026515  -0.033564
    26  F    0.252483   9.108168  -0.041535  -0.032511   0.000311  -0.000288
    27  F    0.249284  -0.041535   9.127312  -0.022027  -0.000316  -0.001908
    28  C    0.189303  -0.032511  -0.022027   4.987000   0.250358   0.170401
    29  F   -0.026515   0.000311  -0.000316   0.250358   9.107073  -0.044696
    30  O   -0.033564  -0.000288  -0.001908   0.170401  -0.044696   8.332585
    31  C   -0.005579   0.006522   0.001714  -0.003675   0.000340   0.239644
    32  F    0.016405  -0.010488  -0.000987  -0.003250  -0.000003  -0.046984
    33  F   -0.001176  -0.000092   0.000002  -0.004381  -0.000002  -0.047029
    34  F   -0.000120   0.000000  -0.000004   0.001351  -0.000002  -0.038312
    35  C   -0.044519   0.005442   0.001773   0.190176  -0.014125  -0.032517
    36  F    0.001789  -0.000001  -0.000001  -0.020164  -0.000761  -0.000723
    37  F    0.004364  -0.000294  -0.000001  -0.036751   0.000305  -0.000582
    38  F   -0.003575  -0.000136   0.000000  -0.022896  -0.001036   0.000589
    39  H   -0.000107   0.000000   0.000443   0.000045   0.000112  -0.000001
    40  H    0.004140   0.000116   0.011372  -0.001888   0.003458   0.000443
    41  H    0.000004   0.000000   0.000000   0.000000  -0.000004   0.000000
    42  H    0.000001   0.000000   0.000000   0.000000   0.000000   0.000000
    43  H   -0.000002   0.000000   0.000000   0.000000   0.000000   0.000000
              31         32         33         34         35         36
     1  C    0.000002   0.000001   0.000000   0.000000   0.000073   0.000000
     2  C   -0.000001   0.000001   0.000000   0.000000   0.000085   0.000000
     3  N    0.000000   0.000000   0.000000   0.000000   0.000007   0.000000
     4  C    0.000000   0.000000   0.000000   0.000000   0.000000   0.000000
     5  C    0.000000   0.000000   0.000000   0.000000  -0.000002   0.000000
     6  O    0.000000   0.000000   0.000000   0.000000   0.000000   0.000000
     7  N    0.000000   0.000000   0.000000   0.000000  -0.000015   0.000000
     8  C    0.000000   0.000000   0.000000   0.000000  -0.000004   0.000000
     9  F    0.000000   0.000000   0.000000   0.000000   0.000000   0.000000
    10  F    0.000000   0.000000   0.000000   0.000000   0.000001   0.000000
    11  C    0.000000   0.000000   0.000000   0.000000   0.000004   0.000000
    12  F    0.000000   0.000000   0.000000   0.000000   0.000005   0.000000
    13  O    0.000000   0.000000   0.000000   0.000000   0.000000   0.000000
    14  C    0.000000   0.000000   0.000000   0.000000   0.000000   0.000000
    15  F    0.000000   0.000000   0.000000   0.000000   0.000000   0.000000
    16  F    0.000000   0.000000   0.000000   0.000000   0.000000   0.000000
    17  F    0.000000   0.000000   0.000000   0.000000   0.000000   0.000000
    18  C    0.000000   0.000000   0.000000   0.000000   0.000000   0.000000
    19  F    0.000000   0.000000   0.000000   0.000000   0.000000   0.000000
    20  F    0.000000   0.000000   0.000000   0.000000   0.000000   0.000000
    21  F    0.000000   0.000000   0.000000   0.000000   0.000000   0.000000
    22  C   -0.000008   0.000013   0.000000   0.000000   0.001836   0.000008
    23  O    0.000004  -0.000001   0.000000   0.000000   0.008785  -0.000002
    24  N    0.000286   0.000054  -0.000001   0.000000  -0.002034  -0.000010
    25  C   -0.005579   0.016405  -0.001176  -0.000120  -0.044519   0.001789
    26  F    0.006522  -0.010488  -0.000092   0.000000   0.005442  -0.000001
    27  F    0.001714  -0.000987   0.000002  -0.000004   0.001773  -0.000001
    28  C   -0.003675  -0.003250  -0.004381   0.001351   0.190176  -0.020164
    29  F    0.000340  -0.000003  -0.000002  -0.000002  -0.014125  -0.000761
    30  O    0.239644  -0.046984  -0.047029  -0.038312  -0.032517  -0.000723
    31  C    3.843092   0.305508   0.302599   0.333222  -0.005920   0.000898
    32  F    0.305508   9.044655  -0.034823  -0.038134  -0.001858   0.000003
    33  F    0.302599  -0.034823   9.049552  -0.038082   0.017399  -0.001154
    34  F    0.333222  -0.038134  -0.038082   9.019721  -0.000084  -0.000001
    35  C   -0.005920  -0.001858   0.017399  -0.000084   4.238416   0.274552
    36  F    0.000898   0.000003  -0.001154  -0.000001   0.274552   9.082045
    37  F    0.009811  -0.000238  -0.008493   0.000000   0.258852  -0.037046
    38  F    0.000106   0.000000  -0.000001   0.000000   0.276791  -0.038868
    39  H    0.000000   0.000000   0.000000   0.000000   0.000001   0.000000
    40  H    0.000029   0.000001   0.000000   0.000000   0.000166   0.000000
    41  H    0.000000   0.000000   0.000000   0.000000   0.000000   0.000000
    42  H    0.000000   0.000000   0.000000   0.000000   0.000000   0.000000
    43  H    0.000000   0.000000   0.000000   0.000000   0.000000   0.000000
              37         38         39         40         41         42
     1  C    0.000000   0.000026   0.375222   0.369683   0.003473   0.000426
     2  C   -0.000003   0.000317  -0.016335  -0.015070  -0.001544   0.002545
     3  N    0.000000  -0.000024  -0.011702   0.003693  -0.040997  -0.025797
     4  C    0.000000   0.000000   0.005456   0.000037   0.392148   0.387088
     5  C    0.000000   0.000055   0.000114  -0.000059   0.000929  -0.002498
     6  O    0.000000   0.000000  -0.000002   0.000001   0.000611   0.014574
     7  N   -0.000007  -0.000285  -0.000009   0.000003  -0.000029   0.000746
     8  C    0.000000  -0.000020   0.000000   0.000000   0.000004  -0.000001
     9  F    0.000000   0.000000   0.000000   0.000000   0.000000   0.000003
    10  F    0.000000   0.000000   0.000000   0.000000   0.000000   0.000000
    11  C    0.000000   0.000097   0.000000   0.000000   0.000000   0.000000
    12  F    0.000000   0.000136   0.000000   0.000000   0.000000   0.000000
    13  O    0.000000  -0.000003   0.000000   0.000000   0.000001   0.000001
    14  C    0.000000   0.000002   0.000000   0.000000   0.000000   0.000000
    15  F    0.000000   0.000000   0.000000   0.000000   0.000000   0.000000
    16  F    0.000000   0.000000   0.000000   0.000000   0.000000   0.000000
    17  F    0.000000   0.000000   0.000000   0.000000   0.000000   0.000000
    18  C    0.000000   0.000000   0.000000   0.000000   0.000000   0.000000
    19  F    0.000000   0.000000   0.000000   0.000000   0.000000   0.000000
    20  F    0.000000   0.000000   0.000000   0.000000   0.000000   0.000000
    21  F    0.000000   0.000000   0.000000   0.000000   0.000000   0.000000
    22  C   -0.000746   0.012926  -0.000049  -0.000023  -0.000068  -0.000008
    23  O   -0.000296  -0.007430   0.000001   0.000000   0.000000   0.000000
    24  N   -0.000304  -0.000697   0.003728  -0.008698  -0.000040  -0.000068
    25  C    0.004364  -0.003575  -0.000107   0.004140   0.000004   0.000001
    26  F   -0.000294  -0.000136   0.000000   0.000116   0.000000   0.000000
    27  F   -0.000001   0.000000   0.000443   0.011372   0.000000   0.000000
    28  C   -0.036751  -0.022896   0.000045  -0.001888   0.000000   0.000000
    29  F    0.000305  -0.001036   0.000112   0.003458  -0.000004   0.000000
    30  O   -0.000582   0.000589  -0.000001   0.000443   0.000000   0.000000
    31  C    0.009811   0.000106   0.000000   0.000029   0.000000   0.000000
    32  F   -0.000238   0.000000   0.000000   0.000001   0.000000   0.000000
    33  F   -0.008493  -0.000001   0.000000   0.000000   0.000000   0.000000
    34  F    0.000000   0.000000   0.000000   0.000000   0.000000   0.000000
    35  C    0.258852   0.276791   0.000001   0.000166   0.000000   0.000000
    36  F   -0.037046  -0.038868   0.000000   0.000000   0.000000   0.000000
    37  F    9.086536  -0.034426   0.000000   0.000000   0.000000   0.000000
    38  F   -0.034426   9.066254   0.000000  -0.000002   0.000000   0.000000
    39  H    0.000000   0.000000   0.547956  -0.031768  -0.000523   0.000166
    40  H    0.000000  -0.000002  -0.031768   0.533280   0.000083  -0.000008
    41  H    0.000000   0.000000  -0.000523   0.000083   0.553403  -0.023829
    42  H    0.000000   0.000000   0.000166  -0.000008  -0.023829   0.492660
    43  H    0.000000   0.000000  -0.000758   0.000090  -0.035976  -0.024833
              43
     1  C    0.002669
     2  C   -0.002888
     3  N   -0.041760
     4  C    0.393280
     5  C    0.001373
     6  O    0.000597
     7  N   -0.000081
     8  C   -0.000002
     9  F    0.000000
    10  F    0.000000
    11  C    0.000000
    12  F    0.000000
    13  O    0.000000
    14  C    0.000000
    15  F    0.000000
    16  F    0.000000
    17  F    0.000000
    18  C    0.000000
    19  F    0.000000
    20  F    0.000000
    21  F    0.000000
    22  C    0.000037
    23  O    0.000000
    24  N   -0.000144
    25  C   -0.000002
    26  F    0.000000
    27  F    0.000000
    28  C    0.000000
    29  F    0.000000
    30  O    0.000000
    31  C    0.000000
    32  F    0.000000
    33  F    0.000000
    34  F    0.000000
    35  C    0.000000
    36  F    0.000000
    37  F    0.000000
    38  F    0.000000
    39  H   -0.000758
    40  H    0.000090
    41  H   -0.035976
    42  H   -0.024833
    43  H    0.555685
 Mulliken charges:
               1
     1  C   -0.365246
     2  C    0.626305
     3  N   -0.599435
     4  C   -0.197569
     5  C    0.820250
     6  O   -0.520948
     7  N   -0.643393
     8  C    0.759620
     9  F   -0.256038
    10  F   -0.261103
    11  C    0.438219
    12  F   -0.254712
    13  O   -0.505448
    14  C    0.994870
    15  F   -0.243123
    16  F   -0.240676
    17  F   -0.244237
    18  C    0.811693
    19  F   -0.262093
    20  F   -0.243854
    21  F   -0.247409
    22  C    0.831915
    23  O   -0.504167
    24  N   -0.669149
    25  C    0.743110
    26  F   -0.243026
    27  F   -0.271873
    28  C    0.434018
    29  F   -0.275647
    30  O   -0.498914
    31  C    0.971406
    32  F   -0.229876
    33  F   -0.234317
    34  F   -0.239555
    35  C    0.826714
    36  F   -0.260565
    37  F   -0.240681
    38  F   -0.247901
    39  H    0.128011
    40  H    0.130922
    41  H    0.152353
    42  H    0.178834
    43  H    0.152713
 Sum of Mulliken charges =   0.00000
 Mulliken charges with hydrogens summed into heavy atoms:
               1
     1  C   -0.106313
     2  C    0.626305
     3  N   -0.599435
     4  C    0.286331
     5  C    0.820250
     6  O   -0.520948
     7  N   -0.643393
     8  C    0.759620
     9  F   -0.256038
    10  F   -0.261103
    11  C    0.438219
    12  F   -0.254712
    13  O   -0.505448
    14  C    0.994870
    15  F   -0.243123
    16  F   -0.240676
    17  F   -0.244237
    18  C    0.811693
    19  F   -0.262093
    20  F   -0.243854
    21  F   -0.247409
    22  C    0.831915
    23  O   -0.504167
    24  N   -0.669149
    25  C    0.743110
    26  F   -0.243026
    27  F   -0.271873
    28  C    0.434018
    29  F   -0.275647
    30  O   -0.498914
    31  C    0.971406
    32  F   -0.229876
    33  F   -0.234317
    34  F   -0.239555
    35  C    0.826714
    36  F   -0.260565
    37  F   -0.240681
    38  F   -0.247901
 Electronic spatial extent (au):  <R**2>=          17115.6405
 Charge=              0.0000 electrons
 Dipole moment (field-independent basis, Debye):
    X=             -3.2706    Y=              3.7478    Z=              0.6305  Tot=              5.0140
 Quadrupole moment (field-independent basis, Debye-Ang):
   XX=           -208.6034   YY=           -195.9926   ZZ=           -202.9785
   XY=             -4.8346   XZ=             -6.8193   YZ=              3.0667
 Traceless Quadrupole moment (field-independent basis, Debye-Ang):
   XX=             -6.0786   YY=              6.5322   ZZ=             -0.4537
   XY=             -4.8346   XZ=             -6.8193   YZ=              3.0667
 Octapole moment (field-independent basis, Debye-Ang**2):
  XXX=           -115.3175  YYY=            267.7817  ZZZ=             91.4303  XYY=            -56.3936
  XXY=             64.4322  XXZ=             13.6274  XZZ=            -37.2839  YZZ=             74.1470
  YYZ=             42.9009  XYZ=            -15.1292
 Hexadecapole moment (field-independent basis, Debye-Ang**3):
 XXXX=         -11713.2803 YYYY=          -3144.4944 ZZZZ=          -3067.0846 XXXY=           -477.2973
 XXXZ=          -1071.6959 YYYX=           -513.2344 YYYZ=           -496.0607 ZZZX=          -1049.8473
 ZZZY=           -582.9949 XXYY=          -2479.7002 XXZZ=          -2488.9129 YYZZ=          -1041.6957
 XXYZ=           -203.5071 YYXZ=           -363.8468 ZZXY=           -172.8347
 N-N= 5.693302652676D+03 E-N=-1.791117150478D+04  KE= 2.739677041959D+03
 No NMR shielding tensors so no spin-rotation constants.
 Leave Link  601 at Sun Mar  3 17:38:06 2024, MaxMem=  5368709120 cpu:         3.8
 (Enter /home/k0335/k033513/app/g09/l9999.exe)
 1\1\GINC-C24U17N3\SP\RCAM-B3LYP\6-31G(d,p)\C13H5F18N3O4\K033513\03-Mar
 -2024\0\\#p CAM-B3LYP/6-31G(d,p) SCRF=(PCM,Solvent=Generic,Read) NoSym
 m out=wfn\\Title A1462740672_0\\0,1\C,0,-2.60707,2.144566,0.778893\C,0
 ,-1.469489,1.43968,0.929672\N,0,-0.314914,2.074654,1.378002\C,0,-0.299
 671,3.515495,1.652292\C,0,0.882911,1.395849,1.567388\O,0,1.922835,1.98
 7249,1.856063\N,0,0.843756,0.035663,1.399183\C,0,2.092724,-0.695429,1.
 548465\F,0,2.775784,-0.201148,2.62326\F,0,1.803043,-1.973548,1.933263\
 C,0,3.013144,-0.709281,0.298699\F,0,2.394021,-1.385036,-0.713116\O,0,3
 .188486,0.626044,-0.191403\C,0,4.194243,0.735202,-1.162213\F,0,4.09312
 4,-0.240179,-2.077747\F,0,4.063479,1.924123,-1.77944\F,0,5.396369,0.69
 1292,-0.566002\C,0,4.27399,-1.469162,0.734401\F,0,5.099709,-1.699654,-
 0.316829\F,0,4.0078,-2.679116,1.270672\F,0,4.994372,-0.773646,1.642874
 \C,0,-0.168239,-0.585535,0.718648\O,0,-0.010823,-1.692149,0.209279\N,0
 ,-1.371557,0.087831,0.6125\C,0,-2.483118,-0.691579,0.029725\F,0,-2.375
 29,-2.003678,0.372154\F,0,-3.644282,-0.320556,0.666154\C,0,-2.723641,-
 0.541164,-1.499065\F,0,-2.609419,0.802431,-1.806801\O,0,-4.073425,-0.8
 11494,-1.917129\C,0,-4.463967,-2.158894,-1.843508\F,0,-4.368957,-2.609
 865,-0.587038\F,0,-3.715454,-2.906156,-2.665323\F,0,-5.74859,-2.245651
 ,-2.235036\C,0,-1.632009,-1.259151,-2.288782\F,0,-1.90714,-1.215007,-3
 .617542\F,0,-1.498154,-2.555935,-1.956522\F,0,-0.429898,-0.655717,-2.1
 34544\H,0,-2.688895,3.199785,1.01528\H,0,-3.541453,1.746097,0.404167\H
 ,0,-0.56243,4.062579,0.741702\H,0,0.679562,3.87369,1.980929\H,0,-1.011
 466,3.736499,2.453288\\Version=ES64L-G09RevD.01\HF=-2759.8512116\RMSD=
 8.207e-09\Dipole=-1.2867392,1.4744903,0.248045\Quadrupole=-4.519266,4.
 8565509,-0.3372849,-3.5944057,-5.0699929,2.2800357\PG=C01 [X(C13H5F18N
 3O4)]\\@

 Writing a WFN file to "A1462740672/A1462740672_0.wfn"


 IBM COMPATIBILITY IS LIKE PREGNANCY. YOU ARE OR
 OR YOU ARE NOT. -- ADAM OSBORNE
 Job cpu time:       0 days  0 hours 20 minutes 44.1 seconds.
 File lengths (MBytes):  RWF=    382 Int=      0 D2E=      0 Chk=     14 Scr=      1
 Normal termination of Gaussian 09 at Sun Mar  3 17:38:07 2024.
