 Entering Gaussian System, Link 0=g09
 Initial command:
 /home/k0335/k033513/app/g09/l1.exe "/home/k0335/k033513/app/g09/scratch/Gau-913436.inp" -scrdir="/home/k0335/k033513/app/g09/scratch/"
 Default is to use a total of  36 processors:
                               36 via shared-memory
                                1 via Linda
 Entering Link 1 = /home/k0335/k033513/app/g09/l1.exe PID=    913437.
  
 Copyright (c) 1988,1990,1992,1993,1995,1998,2003,2009,2013,
            Gaussian, Inc.  All Rights Reserved.
  
 This is part of the Gaussian(R) 09 program.  It is based on
 the Gaussian(R) 03 system (copyright 2003, Gaussian, Inc.),
 the Gaussian(R) 98 system (copyright 1998, Gaussian, Inc.),
 the Gaussian(R) 94 system (copyright 1995, Gaussian, Inc.),
 the Gaussian 92(TM) system (copyright 1992, Gaussian, Inc.),
 the Gaussian 90(TM) system (copyright 1990, Gaussian, Inc.),
 the Gaussian 88(TM) system (copyright 1988, Gaussian, Inc.),
 the Gaussian 86(TM) system (copyright 1986, Carnegie Mellon
 University), and the Gaussian 82(TM) system (copyright 1983,
 Carnegie Mellon University). Gaussian is a federally registered
 trademark of Gaussian, Inc.
  
 This software contains proprietary and confidential information,
 including trade secrets, belonging to Gaussian, Inc.
  
 This software is provided under written license and may be
 used, copied, transmitted, or stored only in accord with that
 written license.
  
 The following legend is applicable only to US Government
 contracts under FAR:
  
                    RESTRICTED RIGHTS LEGEND
  
 Use, reproduction and disclosure by the US Government is
 subject to restrictions as set forth in subparagraphs (a)
 and (c) of the Commercial Computer Software - Restricted
 Rights clause in FAR 52.227-19.
  
 Gaussian, Inc.
 340 Quinnipiac St., Bldg. 40, Wallingford CT 06492
  
  
 ---------------------------------------------------------------
 Warning -- This program may not be used in any manner that
 competes with the business of Gaussian, Inc. or will provide
 assistance to any competitor of Gaussian, Inc.  The licensee
 of this program is prohibited from giving any competitor of
 Gaussian, Inc. access to this program.  By using this program,
 the user acknowledges that Gaussian, Inc. is engaged in the
 business of creating and licensing software in the field of
 computational chemistry and represents and warrants to the
 licensee that it is not a competitor of Gaussian, Inc. and that
 it will not use this program in any manner prohibited above.
 ---------------------------------------------------------------
  

 Cite this work as:
 Gaussian 09, Revision D.01,
 M. J. Frisch, G. W. Trucks, H. B. Schlegel, G. E. Scuseria, 
 M. A. Robb, J. R. Cheeseman, G. Scalmani, V. Barone, B. Mennucci, 
 G. A. Petersson, H. Nakatsuji, M. Caricato, X. Li, H. P. Hratchian, 
 A. F. Izmaylov, J. Bloino, G. Zheng, J. L. Sonnenberg, M. Hada, 
 M. Ehara, K. Toyota, R. Fukuda, J. Hasegawa, M. Ishida, T. Nakajima, 
 Y. Honda, O. Kitao, H. Nakai, T. Vreven, J. A. Montgomery, Jr., 
 J. E. Peralta, F. Ogliaro, M. Bearpark, J. J. Heyd, E. Brothers, 
 K. N. Kudin, V. N. Staroverov, T. Keith, R. Kobayashi, J. Normand, 
 K. Raghavachari, A. Rendell, J. C. Burant, S. S. Iyengar, J. Tomasi, 
 M. Cossi, N. Rega, J. M. Millam, M. Klene, J. E. Knox, J. B. Cross, 
 V. Bakken, C. Adamo, J. Jaramillo, R. Gomperts, R. E. Stratmann, 
 O. Yazyev, A. J. Austin, R. Cammi, C. Pomelli, J. W. Ochterski, 
 R. L. Martin, K. Morokuma, V. G. Zakrzewski, G. A. Voth, 
 P. Salvador, J. J. Dannenberg, S. Dapprich, A. D. Daniels, 
 O. Farkas, J. B. Foresman, J. V. Ortiz, J. Cioslowski, 
 and D. J. Fox, Gaussian, Inc., Wallingford CT, 2013.
 
 ******************************************
 Gaussian 09:  ES64L-G09RevD.01 24-Apr-2013
                 2-Feb-2025 
 ******************************************
 %nprocshared=24
 Will use up to   24 processors via shared memory.
 %mem=40GB
 %rwf=wang5/LDAI1C0/LDAI1C0_neu.rwf
 %nosave
 %chk=wang5/LDAI1C0/LDAI1C0_neu.chk
 ----------------------------------------------------------------------
 #p CAM-B3LYP/6-31G(d,p) SCRF=(PCM,Solvent=Generic,Read) NoSymm out=wfn
 ----------------------------------------------------------------------
 1/38=1,40=2/1;
 2/12=2,15=1,17=6,18=5,40=1/2;
 3/5=1,6=6,7=101,11=2,16=1,25=1,30=1,70=2203,72=-2,74=-40/1,2,3;
 4//1;
 5/5=2,38=5/2;
 6/7=2,8=2,9=2,10=2,28=1/1;
 99/5=1,6=100,9=1/99;
 Leave Link    1 at Sun Feb  2 05:08:34 2025, MaxMem=  5368709120 cpu:         1.1
 (Enter /home/k0335/k033513/app/g09/l101.exe)
 -----------------
 Title LDAI1C0_neu
 -----------------
 Symbolic Z-matrix:
 Charge =  0 Multiplicity = 1
 C                     0.06052  -3.81253  -2.06391 
 N                     0.05912  -2.51254  -1.41629 
 C                    -1.1077   -1.78039  -1.43024 
 O                    -2.15085  -2.22149  -1.91768 
 N                    -1.04821  -0.52783  -0.85558 
 C                    -2.24307   0.3114   -0.90443 
 C                    -3.15916   0.05861   0.29726 
 C                    -4.41268   0.93633   0.23842 
 C                    -5.32258   0.69691   1.4427 
 F                    -4.61379   0.96095   2.57719 
 F                    -5.64326  -0.62297   1.50488 
 C                    -6.60274   1.56894   1.40812 
 F                    -7.3542    1.40052   2.52547 
 F                    -6.22064   2.88165   1.43265 
 O                    -7.45161   1.46693   0.29033 
 C                    -7.93604   0.16251   0.14116 
 F                    -8.22038  -0.4224    1.31474 
 F                    -9.05944   0.20692  -0.60204 
 F                    -7.02325  -0.56928  -0.52406 
 C                     0.03957  -0.07249  -0.14112 
 O                     0.0443    1.03637   0.39871 
 N                     1.11787  -0.92763  -0.05446 
 C                     2.29035  -0.48701   0.69795 
 C                     3.26913   0.28669  -0.19139 
 C                     4.49999   0.74795   0.59984 
 C                     5.47995   1.51589  -0.28821 
 F                     4.75801   2.51192  -0.89291 
 F                     5.90174   0.70206  -1.29547 
 C                     6.70599   2.15987   0.42127 
 F                     6.32873   2.82076   1.5473 
 F                     7.19079   3.13485  -0.40992 
 O                     7.84757   1.39558   0.71901 
 C                     7.57156   0.31577   1.54669 
 F                     8.70595  -0.07549   2.15599 
 F                     7.11088  -0.70581   0.80324 
 F                     6.66135   0.62486   2.48666 
 C                     1.17936  -2.14305  -0.70435 
 O                     2.18015  -2.86092  -0.64336 
 H                    -0.24474  -4.56278  -1.32753 
 H                    -0.6379   -3.83568  -2.90567 
 H                     1.05955  -4.06455  -2.43218 
 H                    -2.78747   0.11455  -1.83576 
 H                    -1.94503   1.36634  -0.92939 
 H                    -2.61115   0.25644   1.22652 
 H                    -3.44918  -0.99882   0.32412 
 H                    -4.95114   0.72409  -0.69134 
 H                    -4.10906   1.9896    0.2156 
 H                     2.79263  -1.35874   1.1339 
 H                     1.97067   0.14408   1.5357 
 H                     2.75926   1.15428  -0.62745 
 H                     3.58518  -0.34574  -1.03002 
 H                     4.17083   1.39383   1.42203 
 H                     4.96426  -0.1393    1.0325 
 
 NAtoms=     53 NQM=       53 NQMF=       0 NMMI=      0 NMMIF=      0
                NMic=       0 NMicF=      0.
                    Isotopes and Nuclear Properties:
 (Nuclear quadrupole moments (NQMom) in fm**2, nuclear magnetic moments (NMagM)
  in nuclear magnetons)

  Atom         1           2           3           4           5           6           7           8           9          10
 IAtWgt=          12          14          12          16          14          12          12          12          12          19
 AtmWgt=  12.0000000  14.0030740  12.0000000  15.9949146  14.0030740  12.0000000  12.0000000  12.0000000  12.0000000  18.9984033
 NucSpn=           0           2           0           0           2           0           0           0           0           1
 AtZEff=   0.0000000   0.0000000   0.0000000   0.0000000   0.0000000   0.0000000   0.0000000   0.0000000   0.0000000   0.0000000
 NQMom=    0.0000000   2.0440000   0.0000000   0.0000000   2.0440000   0.0000000   0.0000000   0.0000000   0.0000000   0.0000000
 NMagM=    0.0000000   0.4037610   0.0000000   0.0000000   0.4037610   0.0000000   0.0000000   0.0000000   0.0000000   2.6288670
 AtZNuc=   6.0000000   7.0000000   6.0000000   8.0000000   7.0000000   6.0000000   6.0000000   6.0000000   6.0000000   9.0000000

  Atom        11          12          13          14          15          16          17          18          19          20
 IAtWgt=          19          12          19          19          16          12          19          19          19          12
 AtmWgt=  18.9984033  12.0000000  18.9984033  18.9984033  15.9949146  12.0000000  18.9984033  18.9984033  18.9984033  12.0000000
 NucSpn=           1           0           1           1           0           0           1           1           1           0
 AtZEff=   0.0000000   0.0000000   0.0000000   0.0000000   0.0000000   0.0000000   0.0000000   0.0000000   0.0000000   0.0000000
 NQMom=    0.0000000   0.0000000   0.0000000   0.0000000   0.0000000   0.0000000   0.0000000   0.0000000   0.0000000   0.0000000
 NMagM=    2.6288670   0.0000000   2.6288670   2.6288670   0.0000000   0.0000000   2.6288670   2.6288670   2.6288670   0.0000000
 AtZNuc=   9.0000000   6.0000000   9.0000000   9.0000000   8.0000000   6.0000000   9.0000000   9.0000000   9.0000000   6.0000000

  Atom        21          22          23          24          25          26          27          28          29          30
 IAtWgt=          16          14          12          12          12          12          19          19          12          19
 AtmWgt=  15.9949146  14.0030740  12.0000000  12.0000000  12.0000000  12.0000000  18.9984033  18.9984033  12.0000000  18.9984033
 NucSpn=           0           2           0           0           0           0           1           1           0           1
 AtZEff=   0.0000000   0.0000000   0.0000000   0.0000000   0.0000000   0.0000000   0.0000000   0.0000000   0.0000000   0.0000000
 NQMom=    0.0000000   2.0440000   0.0000000   0.0000000   0.0000000   0.0000000   0.0000000   0.0000000   0.0000000   0.0000000
 NMagM=    0.0000000   0.4037610   0.0000000   0.0000000   0.0000000   0.0000000   2.6288670   2.6288670   0.0000000   2.6288670
 AtZNuc=   8.0000000   7.0000000   6.0000000   6.0000000   6.0000000   6.0000000   9.0000000   9.0000000   6.0000000   9.0000000

  Atom        31          32          33          34          35          36          37          38          39          40
 IAtWgt=          19          16          12          19          19          19          12          16           1           1
 AtmWgt=  18.9984033  15.9949146  12.0000000  18.9984033  18.9984033  18.9984033  12.0000000  15.9949146   1.0078250   1.0078250
 NucSpn=           1           0           0           1           1           1           0           0           1           1
 AtZEff=   0.0000000   0.0000000   0.0000000   0.0000000   0.0000000   0.0000000   0.0000000   0.0000000   0.0000000   0.0000000
 NQMom=    0.0000000   0.0000000   0.0000000   0.0000000   0.0000000   0.0000000   0.0000000   0.0000000   0.0000000   0.0000000
 NMagM=    2.6288670   0.0000000   0.0000000   2.6288670   2.6288670   2.6288670   0.0000000   0.0000000   2.7928460   2.7928460
 AtZNuc=   9.0000000   8.0000000   6.0000000   9.0000000   9.0000000   9.0000000   6.0000000   8.0000000   1.0000000   1.0000000

  Atom        41          42          43          44          45          46          47          48          49          50
 IAtWgt=           1           1           1           1           1           1           1           1           1           1
 AtmWgt=   1.0078250   1.0078250   1.0078250   1.0078250   1.0078250   1.0078250   1.0078250   1.0078250   1.0078250   1.0078250
 NucSpn=           1           1           1           1           1           1           1           1           1           1
 AtZEff=   0.0000000   0.0000000   0.0000000   0.0000000   0.0000000   0.0000000   0.0000000   0.0000000   0.0000000   0.0000000
 NQMom=    0.0000000   0.0000000   0.0000000   0.0000000   0.0000000   0.0000000   0.0000000   0.0000000   0.0000000   0.0000000
 NMagM=    2.7928460   2.7928460   2.7928460   2.7928460   2.7928460   2.7928460   2.7928460   2.7928460   2.7928460   2.7928460
 AtZNuc=   1.0000000   1.0000000   1.0000000   1.0000000   1.0000000   1.0000000   1.0000000   1.0000000   1.0000000   1.0000000

  Atom        51          52          53
 IAtWgt=           1           1           1
 AtmWgt=   1.0078250   1.0078250   1.0078250
 NucSpn=           1           1           1
 AtZEff=   0.0000000   0.0000000   0.0000000
 NQMom=    0.0000000   0.0000000   0.0000000
 NMagM=    2.7928460   2.7928460   2.7928460
 AtZNuc=   1.0000000   1.0000000   1.0000000
 Leave Link  101 at Sun Feb  2 05:08:34 2025, MaxMem=  5368709120 cpu:         0.9
 (Enter /home/k0335/k033513/app/g09/l202.exe)
 Symmetry turned off by external request.
 Stoichiometry    C16H15F14N3O5
 Framework group  C1[X(C16H15F14N3O5)]
 Deg. of freedom   153
 Full point group                 C1      NOp   1
                          Input orientation:                          
 ---------------------------------------------------------------------
 Center     Atomic      Atomic             Coordinates (Angstroms)
 Number     Number       Type             X           Y           Z
 ---------------------------------------------------------------------
      1          6           0        0.060520   -3.812534   -2.063911
      2          7           0        0.059118   -2.512536   -1.416291
      3          6           0       -1.107703   -1.780387   -1.430237
      4          8           0       -2.150849   -2.221493   -1.917680
      5          7           0       -1.048213   -0.527825   -0.855578
      6          6           0       -2.243071    0.311399   -0.904428
      7          6           0       -3.159157    0.058610    0.297264
      8          6           0       -4.412678    0.936326    0.238421
      9          6           0       -5.322582    0.696910    1.442699
     10          9           0       -4.613790    0.960946    2.577193
     11          9           0       -5.643261   -0.622969    1.504875
     12          6           0       -6.602736    1.568939    1.408120
     13          9           0       -7.354202    1.400523    2.525469
     14          9           0       -6.220637    2.881650    1.432652
     15          8           0       -7.451606    1.466934    0.290330
     16          6           0       -7.936038    0.162507    0.141160
     17          9           0       -8.220375   -0.422395    1.314741
     18          9           0       -9.059443    0.206916   -0.602037
     19          9           0       -7.023250   -0.569282   -0.524061
     20          6           0        0.039569   -0.072492   -0.141121
     21          8           0        0.044295    1.036372    0.398705
     22          7           0        1.117869   -0.927630   -0.054456
     23          6           0        2.290351   -0.487008    0.697951
     24          6           0        3.269129    0.286688   -0.191392
     25          6           0        4.499986    0.747952    0.599843
     26          6           0        5.479953    1.515891   -0.288213
     27          9           0        4.758013    2.511919   -0.892913
     28          9           0        5.901736    0.702064   -1.295469
     29          6           0        6.705991    2.159867    0.421268
     30          9           0        6.328733    2.820755    1.547297
     31          9           0        7.190794    3.134855   -0.409918
     32          8           0        7.847569    1.395576    0.719010
     33          6           0        7.571560    0.315767    1.546691
     34          9           0        8.705947   -0.075492    2.155994
     35          9           0        7.110876   -0.705810    0.803243
     36          9           0        6.661354    0.624855    2.486661
     37          6           0        1.179363   -2.143047   -0.704345
     38          8           0        2.180154   -2.860921   -0.643357
     39          1           0       -0.244737   -4.562776   -1.327532
     40          1           0       -0.637895   -3.835684   -2.905670
     41          1           0        1.059548   -4.064551   -2.432183
     42          1           0       -2.787467    0.114550   -1.835762
     43          1           0       -1.945030    1.366335   -0.929387
     44          1           0       -2.611152    0.256442    1.226519
     45          1           0       -3.449176   -0.998817    0.324121
     46          1           0       -4.951141    0.724092   -0.691344
     47          1           0       -4.109057    1.989603    0.215595
     48          1           0        2.792628   -1.358742    1.133902
     49          1           0        1.970667    0.144082    1.535696
     50          1           0        2.759256    1.154276   -0.627447
     51          1           0        3.585177   -0.345741   -1.030025
     52          1           0        4.170830    1.393825    1.422027
     53          1           0        4.964259   -0.139295    1.032499
 ---------------------------------------------------------------------
 Rotational constants (GHZ):      0.2045989      0.0258144      0.0243136
 Leave Link  202 at Sun Feb  2 05:08:34 2025, MaxMem=  5368709120 cpu:         0.1
 (Enter /home/k0335/k033513/app/g09/l301.exe)
 Standard basis: 6-31G(d,p) (6D, 7F)
 Ernie: Thresh=  0.10000D-02 Tol=  0.10000D-05 Strict=F.
   645 basis functions,  1169 primitive gaussians,   645 cartesian basis functions
   149 alpha electrons      149 beta electrons
       nuclear repulsion energy      4712.4276737787 Hartrees.
 IExCor=20419 DFT=T Ex+Corr=CAM-B3LYP ExCW=0 ScaHFX=  1.000000
 ScaDFX=  1.000000  1.000000  1.000000  0.810000 ScalE2=  1.000000  1.000000
 IRadAn=      0 IRanWt=     -1 IRanGd=            0 ICorTp=0 IEmpDi=  4
  HFx wShort=  0.000000 wLong=  0.330000 cFull=  0.190000 cShort=  0.000000 cLong=  0.460000
  DFx wShort=  0.000000 wLong=  0.330000 cFull=  0.190000 cShort=  0.000000 cLong=  0.460000
 NAtoms=   53 NActive=   53 NUniq=   53 SFac= 1.00D+00 NAtFMM=   60 NAOKFM=F Big=F
 Integral buffers will be    131072 words long.
 Raffenetti 2 integral format.
 Two-electron integral symmetry is turned off.
 Using the following non-standard input for PCM:
 eps=4.9
 --- end of non-standard input.
 ------------------------------------------------------------------------------
 Polarizable Continuum Model (PCM)
 =================================
 Model                : PCM (using non-symmetric T matrix).
 Atomic radii         : UFF (Universal Force Field).
 Polarization charges : Total charges.
 Charge compensation  : None.
 Solution method      : On-the-fly selection.
 Cavity type          : Scaled VdW (van der Waals Surface) (Alpha=1.100).
 Cavity algorithm     : GePol (No added spheres)
                        Default sphere list used, NSphG=   53.
                        Lebedev-Laikov grids with approx.  5.0 points / Ang**2.
                        Smoothing algorithm: Karplus/York (Gamma=1.0000).
                        Polarization charges: spherical gaussians, with
                                              point-specific exponents (IZeta= 3).
                        Self-potential: point-specific (ISelfS= 7).
                        Self-field    : sphere-specific E.n sum rule (ISelfD= 2).
 Solvent              : Generic,
                        Eps                           =   4.900000
                        Eps(infinity)                 =   0.000000
                        RSolv                         =   0.000000 Ang.
                        Molar volume                  =   0.000000 cm**3/mol
                        Thermal expansion coefficient =   0.000000 K**-1
                        Absolute temperature          = 298.150000 K
                        Numeral density               =   0.000000 Ang**-3
                        Hydrogen bond acidity         =   0.000000
                        Hydrogen bond basicity        =   0.000000
                        Surface tension at interface  =   0.000000 (cal/mol)*Ang**-2
                        Carbon aromaticity            =   0.000000
                        Electronegative halogenicity  =   0.000000
 ------------------------------------------------------------------------------
 GePol: Number of generator spheres                  =      53
 GePol: Total number of spheres                      =      53
 GePol: Number of exposed spheres                    =      53 (100.00%)
 GePol: Number of points                             =    4138
 GePol: Average weight of points                     =       0.13
 GePol: Minimum weight of points                     =   0.15D-09
 GePol: Maximum weight of points                     =    0.20577
 GePol: Number of points with low weight             =     212
 GePol: Fraction of low-weight points (<1% of avg)   =       5.12%
 GePol: Cavity surface area                          =    526.017 Ang**2
 GePol: Cavity volume                                =    587.913 Ang**3
 Leave Link  301 at Sun Feb  2 05:08:34 2025, MaxMem=  5368709120 cpu:         0.8
 (Enter /home/k0335/k033513/app/g09/l302.exe)
 NPDir=0 NMtPBC=     1 NCelOv=     1 NCel=       1 NClECP=     1 NCelD=      1
         NCelK=      1 NCelE2=     1 NClLst=     1 CellRange=     0.0.
 One-electron integrals computed using PRISM.
 NBasis=   645 RedAO= T EigKep=  1.48D-03  NBF=   645
 NBsUse=   645 1.00D-06 EigRej= -1.00D+00 NBFU=   645
 Precomputing XC quadrature grid using
 IXCGrd= 4 IRadAn=           0 IRanWt=          -1 IRanGd=           0 AccXCQ= 0.00D+00.
 Generated NRdTot=       0 NPtTot=           0 NUsed=           0 NTot=          32
 NSgBfM=   589   590   590   590   590 MxSgAt=    53 MxSgA2=    53.
 Leave Link  302 at Sun Feb  2 05:08:35 2025, MaxMem=  5368709120 cpu:        13.8
 (Enter /home/k0335/k033513/app/g09/l303.exe)
 DipDrv:  MaxL=1.
 Leave Link  303 at Sun Feb  2 05:08:35 2025, MaxMem=  5368709120 cpu:         0.9
 (Enter /home/k0335/k033513/app/g09/l401.exe)
 ExpMin= 1.61D-01 ExpMax= 7.00D+03 ExpMxC= 1.05D+03 IAcc=1 IRadAn=         1 AccDes= 0.00D+00
 Harris functional with IExCor=20419 and IRadAn=       1 diagonalized for initial guess.
 HarFok:  IExCor=20419 AccDes= 0.00D+00 IRadAn=         1 IDoV= 1 UseB2=F ITyADJ=14
 ICtDFT=  3500011 ScaDFX=  1.000000  1.000000  1.000000  1.000000
 FoFCou: FMM=F IPFlag=           0 FMFlag=      100000 FMFlg1=           0
         NFxFlg=           0 DoJE=T BraDBF=F KetDBF=T FulRan=T
         wScrn=  0.000000 ICntrl=     500 IOpCl=  0 I1Cent=   200000004 NGrid=           0
         NMat0=    1 NMatS0=      1 NMatT0=    0 NMatD0=    1 NMtDS0=    0 NMtDT0=    0
 Symmetry not used in FoFCou.
 Harris En= -2476.16412704119    
 JPrj=0 DoOrth=F DoCkMO=F.
 Leave Link  401 at Sun Feb  2 05:08:37 2025, MaxMem=  5368709120 cpu:        15.5
 (Enter /home/k0335/k033513/app/g09/l502.exe)
 Closed shell SCF:
 Using DIIS extrapolation, IDIIS=  1040.
 Two-electron integral symmetry not used.
 IVT=     1286081 IEndB=     1286081 NGot=  5368709120 MDV=  5367856350
 LenX=  5367856350 LenY=  5367439680
 Requested convergence on RMS density matrix=1.00D-08 within 128 cycles.
 Requested convergence on MAX density matrix=1.00D-06.
 Requested convergence on             energy=1.00D-06.
 No special actions if energy rises.
 Fock matrices will be formed incrementally for  20 cycles.

 Cycle   1  Pass 1  IDiag  1:
 FoFJK:  IHMeth= 1 ICntrl=       0 DoSepK=T KAlg= 0 I1Cent=   0 FoldK=F
 IRaf=         1 NMat=   1 IRICut=       1 DoRegI=T DoRafI=F ISym2E= 0.
 FoFCou: FMM=F IPFlag=           0 FMFlag=      100000 FMFlg1=           0
         NFxFlg=           0 DoJE=T BraDBF=F KetDBF=F FulRan=T
         wScrn=  0.000000 ICntrl=     500 IOpCl=  0 I1Cent=           0 NGrid=           0
         NMat0=    1 NMatS0=      1 NMatT0=    0 NMatD0=    1 NMtDS0=    0 NMtDT0=    0
 Symmetry not used in FoFCou.
 Inv3:  Mode=1 IEnd=    51369132.
 Iteration    1 A*A^-1 deviation from unit magnitude is 8.66D-15 for   4127.
 Iteration    1 A*A^-1 deviation from orthogonality  is 7.09D-15 for   3393   2558.
 Iteration    1 A^-1*A deviation from unit magnitude is 8.22D-15 for   1870.
 Iteration    1 A^-1*A deviation from orthogonality  is 2.78D-13 for   1909   1896.
 E= -2555.31118836676    
 DIIS: error= 6.47D-02 at cycle   1 NSaved=   1.
 NSaved= 1 IEnMin= 1 EnMin= -2555.31118836676     IErMin= 1 ErrMin= 6.47D-02
 ErrMax= 6.47D-02  0.00D+00 EMaxC= 1.00D-01 BMatC= 2.18D+00 BMatP= 2.18D+00
 IDIUse=3 WtCom= 3.53D-01 WtEn= 6.47D-01
 Coeff-Com:  0.100D+01
 Coeff-En:   0.100D+01
 Coeff:      0.100D+01
 Gap=     0.440 Goal=   None    Shift=    0.000
 GapD=    0.440 DampG=2.000 DampE=0.500 DampFc=1.0000 IDamp=-1.
 RMSDP=2.90D-03 MaxDP=1.37D-01              OVMax= 1.57D-01

 Cycle   2  Pass 1  IDiag  1:
 RMSU=  2.90D-03    CP:  9.97D-01
 E= -2555.56645017658     Delta-E=       -0.255261809820 Rises=F Damp=F
 DIIS: error= 2.34D-02 at cycle   2 NSaved=   2.
 NSaved= 2 IEnMin= 2 EnMin= -2555.56645017658     IErMin= 2 ErrMin= 2.34D-02
 ErrMax= 2.34D-02  0.00D+00 EMaxC= 1.00D-01 BMatC= 9.39D-01 BMatP= 2.18D+00
 IDIUse=3 WtCom= 7.66D-01 WtEn= 2.34D-01
 Coeff-Com:  0.377D+00 0.623D+00
 Coeff-En:   0.398D+00 0.602D+00
 Coeff:      0.382D+00 0.618D+00
 Gap=     0.420 Goal=   None    Shift=    0.000
 RMSDP=1.53D-03 MaxDP=1.16D-01 DE=-2.55D-01 OVMax= 1.21D-01

 Cycle   3  Pass 1  IDiag  1:
 RMSU=  9.03D-04    CP:  9.98D-01  5.76D-01
 E= -2556.06872955285     Delta-E=       -0.502279376276 Rises=F Damp=F
 DIIS: error= 1.22D-02 at cycle   3 NSaved=   3.
 NSaved= 3 IEnMin= 3 EnMin= -2556.06872955285     IErMin= 3 ErrMin= 1.22D-02
 ErrMax= 1.22D-02  0.00D+00 EMaxC= 1.00D-01 BMatC= 1.81D-01 BMatP= 9.39D-01
 IDIUse=3 WtCom= 8.78D-01 WtEn= 1.22D-01
 Coeff-Com:  0.100D+00 0.322D+00 0.578D+00
 Coeff-En:   0.000D+00 0.131D+00 0.869D+00
 Coeff:      0.878D-01 0.299D+00 0.613D+00
 Gap=     0.388 Goal=   None    Shift=    0.000
 RMSDP=6.92D-04 MaxDP=6.14D-02 DE=-5.02D-01 OVMax= 9.01D-02

 Cycle   4  Pass 1  IDiag  1:
 RMSU=  3.44D-04    CP:  9.97D-01  6.84D-01  4.34D-01
 E= -2556.17829831010     Delta-E=       -0.109568757245 Rises=F Damp=F
 DIIS: error= 6.71D-03 at cycle   4 NSaved=   4.
 NSaved= 4 IEnMin= 4 EnMin= -2556.17829831010     IErMin= 4 ErrMin= 6.71D-03
 ErrMax= 6.71D-03  0.00D+00 EMaxC= 1.00D-01 BMatC= 2.90D-02 BMatP= 1.81D-01
 IDIUse=3 WtCom= 9.33D-01 WtEn= 6.71D-02
 Coeff-Com:  0.812D-02 0.928D-01 0.343D+00 0.556D+00
 Coeff-En:   0.000D+00 0.000D+00 0.125D+00 0.875D+00
 Coeff:      0.757D-02 0.865D-01 0.328D+00 0.578D+00
 Gap=     0.378 Goal=   None    Shift=    0.000
 RMSDP=2.47D-04 MaxDP=2.33D-02 DE=-1.10D-01 OVMax= 2.76D-02

 Cycle   5  Pass 1  IDiag  1:
 RMSU=  9.57D-05    CP:  9.96D-01  6.76D-01  6.24D-01  5.74D-01
 E= -2556.19807450519     Delta-E=       -0.019776195088 Rises=F Damp=F
 DIIS: error= 1.06D-03 at cycle   5 NSaved=   5.
 NSaved= 5 IEnMin= 5 EnMin= -2556.19807450519     IErMin= 5 ErrMin= 1.06D-03
 ErrMax= 1.06D-03  0.00D+00 EMaxC= 1.00D-01 BMatC= 1.48D-03 BMatP= 2.90D-02
 IDIUse=3 WtCom= 9.89D-01 WtEn= 1.06D-02
 Coeff-Com: -0.141D-02 0.261D-01 0.136D+00 0.305D+00 0.534D+00
 Coeff-En:   0.000D+00 0.000D+00 0.000D+00 0.000D+00 0.100D+01
 Coeff:     -0.140D-02 0.258D-01 0.134D+00 0.302D+00 0.539D+00
 Gap=     0.376 Goal=   None    Shift=    0.000
 RMSDP=4.89D-05 MaxDP=3.57D-03 DE=-1.98D-02 OVMax= 5.60D-03

 Cycle   6  Pass 1  IDiag  1:
 RMSU=  2.45D-05    CP:  9.97D-01  6.80D-01  6.13D-01  6.35D-01  6.50D-01
 E= -2556.19912413353     Delta-E=       -0.001049628340 Rises=F Damp=F
 DIIS: error= 1.31D-04 at cycle   6 NSaved=   6.
 NSaved= 6 IEnMin= 6 EnMin= -2556.19912413353     IErMin= 6 ErrMin= 1.31D-04
 ErrMax= 1.31D-04  0.00D+00 EMaxC= 1.00D-01 BMatC= 3.57D-05 BMatP= 1.48D-03
 IDIUse=3 WtCom= 9.99D-01 WtEn= 1.31D-03
 Coeff-Com: -0.886D-03-0.823D-04 0.111D-01 0.408D-01 0.167D+00 0.782D+00
 Coeff-En:   0.000D+00 0.000D+00 0.000D+00 0.000D+00 0.000D+00 0.100D+01
 Coeff:     -0.885D-03-0.822D-04 0.110D-01 0.408D-01 0.167D+00 0.782D+00
 Gap=     0.375 Goal=   None    Shift=    0.000
 RMSDP=1.09D-05 MaxDP=6.04D-04 DE=-1.05D-03 OVMax= 6.96D-04

 Cycle   7  Pass 1  IDiag  1:
 RMSU=  7.89D-06    CP:  9.97D-01  6.79D-01  6.17D-01  6.44D-01  7.04D-01
                    CP:  9.08D-01
 E= -2556.19915094912     Delta-E=       -0.000026815595 Rises=F Damp=F
 DIIS: error= 5.14D-05 at cycle   7 NSaved=   7.
 NSaved= 7 IEnMin= 7 EnMin= -2556.19915094912     IErMin= 7 ErrMin= 5.14D-05
 ErrMax= 5.14D-05  0.00D+00 EMaxC= 1.00D-01 BMatC= 6.56D-06 BMatP= 3.57D-05
 IDIUse=1 WtCom= 1.00D+00 WtEn= 0.00D+00
 Coeff-Com: -0.160D-03-0.296D-02-0.976D-02-0.147D-01 0.199D-01 0.358D+00
 Coeff-Com:  0.649D+00
 Coeff:     -0.160D-03-0.296D-02-0.976D-02-0.147D-01 0.199D-01 0.358D+00
 Coeff:      0.649D+00
 Gap=     0.375 Goal=   None    Shift=    0.000
 RMSDP=3.79D-06 MaxDP=2.15D-04 DE=-2.68D-05 OVMax= 3.54D-04

 Cycle   8  Pass 1  IDiag  1:
 RMSU=  2.08D-06    CP:  9.97D-01  6.79D-01  6.17D-01  6.43D-01  7.18D-01
                    CP:  9.94D-01  7.93D-01
 E= -2556.19915679740     Delta-E=       -0.000005848274 Rises=F Damp=F
 DIIS: error= 8.86D-06 at cycle   8 NSaved=   8.
 NSaved= 8 IEnMin= 8 EnMin= -2556.19915679740     IErMin= 8 ErrMin= 8.86D-06
 ErrMax= 8.86D-06  0.00D+00 EMaxC= 1.00D-01 BMatC= 1.52D-07 BMatP= 6.56D-06
 IDIUse=1 WtCom= 1.00D+00 WtEn= 0.00D+00
 Coeff-Com:  0.822D-05-0.699D-03-0.283D-02-0.621D-02-0.625D-02 0.269D-01
 Coeff-Com:  0.124D+00 0.865D+00
 Coeff:      0.822D-05-0.699D-03-0.283D-02-0.621D-02-0.625D-02 0.269D-01
 Coeff:      0.124D+00 0.865D+00
 Gap=     0.375 Goal=   None    Shift=    0.000
 RMSDP=1.00D-06 MaxDP=7.96D-05 DE=-5.85D-06 OVMax= 1.47D-04

 Cycle   9  Pass 1  IDiag  1:
 RMSU=  6.28D-07    CP:  9.97D-01  6.79D-01  6.18D-01  6.43D-01  7.22D-01
                    CP:  1.01D+00  8.47D-01  1.12D+00
 E= -2556.19915698316     Delta-E=       -0.000000185762 Rises=F Damp=F
 DIIS: error= 4.21D-06 at cycle   9 NSaved=   9.
 NSaved= 9 IEnMin= 9 EnMin= -2556.19915698316     IErMin= 9 ErrMin= 4.21D-06
 ErrMax= 4.21D-06  0.00D+00 EMaxC= 1.00D-01 BMatC= 4.21D-08 BMatP= 1.52D-07
 IDIUse=1 WtCom= 1.00D+00 WtEn= 0.00D+00
 Coeff-Com:  0.213D-04 0.995D-04 0.169D-03-0.699D-03-0.508D-02-0.370D-01
 Coeff-Com: -0.329D-01 0.383D+00 0.692D+00
 Coeff:      0.213D-04 0.995D-04 0.169D-03-0.699D-03-0.508D-02-0.370D-01
 Coeff:     -0.329D-01 0.383D+00 0.692D+00
 Gap=     0.375 Goal=   None    Shift=    0.000
 RMSDP=3.89D-07 MaxDP=2.47D-05 DE=-1.86D-07 OVMax= 6.93D-05

 Cycle  10  Pass 1  IDiag  1:
 RMSU=  2.32D-07    CP:  9.97D-01  6.79D-01  6.18D-01  6.43D-01  7.22D-01
                    CP:  1.01D+00  8.65D-01  1.22D+00  9.30D-01
 E= -2556.19915702389     Delta-E=       -0.000000040732 Rises=F Damp=F
 DIIS: error= 1.11D-06 at cycle  10 NSaved=  10.
 NSaved=10 IEnMin=10 EnMin= -2556.19915702389     IErMin=10 ErrMin= 1.11D-06
 ErrMax= 1.11D-06  0.00D+00 EMaxC= 1.00D-01 BMatC= 2.82D-09 BMatP= 4.21D-08
 IDIUse=1 WtCom= 1.00D+00 WtEn= 0.00D+00
 Coeff-Com:  0.626D-05 0.101D-03 0.347D-03 0.356D-03-0.779D-03-0.142D-01
 Coeff-Com: -0.218D-01 0.297D-01 0.220D+00 0.786D+00
 Coeff:      0.626D-05 0.101D-03 0.347D-03 0.356D-03-0.779D-03-0.142D-01
 Coeff:     -0.218D-01 0.297D-01 0.220D+00 0.786D+00
 Gap=     0.375 Goal=   None    Shift=    0.000
 RMSDP=1.23D-07 MaxDP=1.03D-05 DE=-4.07D-08 OVMax= 1.96D-05

 Cycle  11  Pass 1  IDiag  1:
 RMSU=  6.47D-08    CP:  9.97D-01  6.79D-01  6.18D-01  6.43D-01  7.23D-01
                    CP:  1.02D+00  8.69D-01  1.25D+00  1.02D+00  1.00D+00
 E= -2556.19915702648     Delta-E=       -0.000000002586 Rises=F Damp=F
 DIIS: error= 4.44D-07 at cycle  11 NSaved=  11.
 NSaved=11 IEnMin=11 EnMin= -2556.19915702648     IErMin=11 ErrMin= 4.44D-07
 ErrMax= 4.44D-07  0.00D+00 EMaxC= 1.00D-01 BMatC= 2.75D-10 BMatP= 2.82D-09
 IDIUse=1 WtCom= 1.00D+00 WtEn= 0.00D+00
 Coeff-Com:  0.107D-05 0.323D-04 0.126D-03 0.181D-03 0.148D-03-0.266D-02
 Coeff-Com: -0.576D-02-0.185D-01 0.266D-01 0.257D+00 0.743D+00
 Coeff:      0.107D-05 0.323D-04 0.126D-03 0.181D-03 0.148D-03-0.266D-02
 Coeff:     -0.576D-02-0.185D-01 0.266D-01 0.257D+00 0.743D+00
 Gap=     0.375 Goal=   None    Shift=    0.000
 RMSDP=3.58D-08 MaxDP=3.73D-06 DE=-2.59D-09 OVMax= 4.83D-06

 Cycle  12  Pass 1  IDiag  1:
 RMSU=  2.09D-08    CP:  9.97D-01  6.79D-01  6.18D-01  6.43D-01  7.23D-01
                    CP:  1.02D+00  8.70D-01  1.26D+00  1.04D+00  1.07D+00
                    CP:  1.02D+00
 E= -2556.19915702661     Delta-E=       -0.000000000130 Rises=F Damp=F
 DIIS: error= 1.55D-07 at cycle  12 NSaved=  12.
 NSaved=12 IEnMin=12 EnMin= -2556.19915702661     IErMin=12 ErrMin= 1.55D-07
 ErrMax= 1.55D-07  0.00D+00 EMaxC= 1.00D-01 BMatC= 4.58D-11 BMatP= 2.75D-10
 IDIUse=1 WtCom= 1.00D+00 WtEn= 0.00D+00
 Coeff-Com: -0.535D-06-0.195D-05 0.344D-05 0.212D-04 0.226D-03 0.113D-02
 Coeff-Com:  0.115D-02-0.112D-01-0.209D-01-0.153D-01 0.305D+00 0.740D+00
 Coeff:     -0.535D-06-0.195D-05 0.344D-05 0.212D-04 0.226D-03 0.113D-02
 Coeff:      0.115D-02-0.112D-01-0.209D-01-0.153D-01 0.305D+00 0.740D+00
 Gap=     0.375 Goal=   None    Shift=    0.000
 RMSDP=1.34D-08 MaxDP=1.02D-06 DE=-1.30D-10 OVMax= 1.86D-06

 Cycle  13  Pass 1  IDiag  1:
 RMSU=  6.77D-09    CP:  9.97D-01  6.79D-01  6.18D-01  6.43D-01  7.23D-01
                    CP:  1.02D+00  8.70D-01  1.26D+00  1.05D+00  1.10D+00
                    CP:  1.11D+00  8.72D-01
 E= -2556.19915702671     Delta-E=       -0.000000000105 Rises=F Damp=F
 DIIS: error= 5.98D-08 at cycle  13 NSaved=  13.
 NSaved=13 IEnMin=13 EnMin= -2556.19915702671     IErMin=13 ErrMin= 5.98D-08
 ErrMax= 5.98D-08  0.00D+00 EMaxC= 1.00D-01 BMatC= 3.62D-12 BMatP= 4.58D-11
 IDIUse=1 WtCom= 1.00D+00 WtEn= 0.00D+00
 Coeff-Com: -0.257D-06-0.278D-05-0.597D-05-0.481D-05 0.779D-04 0.575D-03
 Coeff-Com:  0.781D-03-0.302D-02-0.922D-02-0.231D-01 0.576D-01 0.269D+00
 Coeff-Com:  0.707D+00
 Coeff:     -0.257D-06-0.278D-05-0.597D-05-0.481D-05 0.779D-04 0.575D-03
 Coeff:      0.781D-03-0.302D-02-0.922D-02-0.231D-01 0.576D-01 0.269D+00
 Coeff:      0.707D+00
 Gap=     0.375 Goal=   None    Shift=    0.000
 RMSDP=3.75D-09 MaxDP=3.68D-07 DE=-1.05D-10 OVMax= 4.22D-07

 Error on total polarization charges =  0.00362
 SCF Done:  E(RCAM-B3LYP) =  -2556.19915703     A.U. after   13 cycles
            NFock= 13  Conv=0.38D-08     -V/T= 2.0077
 KE= 2.536707068434D+03 PE=-1.545373431160D+04 EE= 5.648400412356D+03
 Leave Link  502 at Sun Feb  2 05:09:32 2025, MaxMem=  5368709120 cpu:      1227.8
 (Enter /home/k0335/k033513/app/g09/l601.exe)
 Copying SCF densities to generalized density rwf, IOpCl= 0 IROHF=0.

 **********************************************************************

            Population analysis using the SCF density.

 **********************************************************************

 Alpha  occ. eigenvalues --  -24.84403 -24.83836 -24.83647 -24.83613 -24.83169
 Alpha  occ. eigenvalues --  -24.83102 -24.81974 -24.81821 -24.81426 -24.81165
 Alpha  occ. eigenvalues --  -24.80651 -24.80495 -24.80479 -24.80244 -19.32685
 Alpha  occ. eigenvalues --  -19.32506 -19.22021 -19.22009 -19.21954 -14.48832
 Alpha  occ. eigenvalues --  -14.48826 -14.48808 -10.59743 -10.59314 -10.52605
 Alpha  occ. eigenvalues --  -10.52345 -10.46464 -10.46306 -10.43280 -10.43211
 Alpha  occ. eigenvalues --  -10.43200 -10.31374 -10.31326 -10.30283 -10.28724
 Alpha  occ. eigenvalues --  -10.28588 -10.27500 -10.27416  -1.43536  -1.42925
 Alpha  occ. eigenvalues --   -1.38254  -1.38240  -1.35678  -1.35358  -1.34061
 Alpha  occ. eigenvalues --   -1.33509  -1.33422  -1.32805  -1.30684  -1.30509
 Alpha  occ. eigenvalues --   -1.29580  -1.29312  -1.20935  -1.20563  -1.19952
 Alpha  occ. eigenvalues --   -1.15251  -1.15221  -1.06822  -1.04285  -1.04190
 Alpha  occ. eigenvalues --   -0.91642  -0.91249  -0.87782  -0.86974  -0.84097
 Alpha  occ. eigenvalues --   -0.83011  -0.82090  -0.80291  -0.80049  -0.76331
 Alpha  occ. eigenvalues --   -0.75825  -0.74025  -0.73858  -0.71373  -0.71135
 Alpha  occ. eigenvalues --   -0.70841  -0.70687  -0.70586  -0.70381  -0.70155
 Alpha  occ. eigenvalues --   -0.69631  -0.69192  -0.67005  -0.66571  -0.65781
 Alpha  occ. eigenvalues --   -0.65230  -0.63895  -0.63666  -0.62390  -0.60968
 Alpha  occ. eigenvalues --   -0.60493  -0.60260  -0.60028  -0.59131  -0.57223
 Alpha  occ. eigenvalues --   -0.56907  -0.56701  -0.56431  -0.56019  -0.55682
 Alpha  occ. eigenvalues --   -0.55062  -0.55024  -0.54819  -0.54734  -0.54060
 Alpha  occ. eigenvalues --   -0.53925  -0.53833  -0.53572  -0.53415  -0.53033
 Alpha  occ. eigenvalues --   -0.52671  -0.52320  -0.52246  -0.52103  -0.51750
 Alpha  occ. eigenvalues --   -0.51532  -0.51257  -0.50879  -0.50708  -0.50467
 Alpha  occ. eigenvalues --   -0.50177  -0.49792  -0.49417  -0.48909  -0.48826
 Alpha  occ. eigenvalues --   -0.48717  -0.48524  -0.48276  -0.47868  -0.47130
 Alpha  occ. eigenvalues --   -0.47070  -0.46619  -0.46429  -0.46093  -0.46008
 Alpha  occ. eigenvalues --   -0.45582  -0.45134  -0.43661  -0.43312  -0.41943
 Alpha  occ. eigenvalues --   -0.41669  -0.41221  -0.40976  -0.38150  -0.38042
 Alpha  occ. eigenvalues --   -0.35740  -0.34640  -0.34509  -0.34135
 Alpha virt. eigenvalues --    0.03398   0.03491   0.10663   0.11037   0.11851
 Alpha virt. eigenvalues --    0.12412   0.13926   0.14170   0.15713   0.16226
 Alpha virt. eigenvalues --    0.16756   0.16917   0.17641   0.18490   0.18572
 Alpha virt. eigenvalues --    0.18737   0.19464   0.19650   0.20003   0.20084
 Alpha virt. eigenvalues --    0.20598   0.21527   0.21706   0.21815   0.22114
 Alpha virt. eigenvalues --    0.22365   0.22818   0.22958   0.23152   0.23562
 Alpha virt. eigenvalues --    0.23702   0.23986   0.24165   0.24452   0.25986
 Alpha virt. eigenvalues --    0.26835   0.27283   0.27819   0.28407   0.29179
 Alpha virt. eigenvalues --    0.29277   0.29834   0.31405   0.31459   0.31616
 Alpha virt. eigenvalues --    0.32678   0.33088   0.34635   0.35583   0.35693
 Alpha virt. eigenvalues --    0.36344   0.37627   0.38459   0.41098   0.42015
 Alpha virt. eigenvalues --    0.48559   0.49984   0.50500   0.50600   0.51154
 Alpha virt. eigenvalues --    0.51498   0.52126   0.52484   0.53248   0.54153
 Alpha virt. eigenvalues --    0.54603   0.54884   0.55999   0.56418   0.57496
 Alpha virt. eigenvalues --    0.57871   0.58001   0.58858   0.59024   0.59474
 Alpha virt. eigenvalues --    0.59738   0.60086   0.60633   0.61514   0.62430
 Alpha virt. eigenvalues --    0.62455   0.63418   0.63844   0.64591   0.66009
 Alpha virt. eigenvalues --    0.66268   0.66703   0.67885   0.69965   0.70262
 Alpha virt. eigenvalues --    0.71750   0.72036   0.72701   0.73353   0.75050
 Alpha virt. eigenvalues --    0.75913   0.76462   0.77256   0.78310   0.82024
 Alpha virt. eigenvalues --    0.83301   0.83934   0.83974   0.85076   0.86176
 Alpha virt. eigenvalues --    0.86353   0.87451   0.88158   0.88695   0.89133
 Alpha virt. eigenvalues --    0.89629   0.89847   0.90393   0.91384   0.92465
 Alpha virt. eigenvalues --    0.93115   0.93644   0.93771   0.93959   0.94445
 Alpha virt. eigenvalues --    0.94780   0.95328   0.96427   0.97078   0.97339
 Alpha virt. eigenvalues --    0.98005   0.99089   0.99143   0.99754   1.00612
 Alpha virt. eigenvalues --    1.01557   1.01846   1.02938   1.03842   1.04598
 Alpha virt. eigenvalues --    1.04796   1.06298   1.06541   1.08259   1.09305
 Alpha virt. eigenvalues --    1.10200   1.10495   1.11492   1.12585   1.12883
 Alpha virt. eigenvalues --    1.13958   1.14416   1.14802   1.15377   1.15780
 Alpha virt. eigenvalues --    1.16404   1.16887   1.17231   1.18022   1.18139
 Alpha virt. eigenvalues --    1.18879   1.19568   1.19925   1.21143   1.21709
 Alpha virt. eigenvalues --    1.21905   1.22871   1.23513   1.24116   1.24827
 Alpha virt. eigenvalues --    1.25666   1.27366   1.29430   1.29940   1.30780
 Alpha virt. eigenvalues --    1.31951   1.32832   1.33117   1.33918   1.34155
 Alpha virt. eigenvalues --    1.34646   1.34843   1.35386   1.36376   1.36932
 Alpha virt. eigenvalues --    1.37463   1.37729   1.38520   1.39018   1.39158
 Alpha virt. eigenvalues --    1.40195   1.40314   1.40526   1.41064   1.41428
 Alpha virt. eigenvalues --    1.41754   1.43040   1.43312   1.43333   1.44359
 Alpha virt. eigenvalues --    1.44431   1.45556   1.45740   1.45921   1.46169
 Alpha virt. eigenvalues --    1.46755   1.49116   1.49204   1.49252   1.50188
 Alpha virt. eigenvalues --    1.51328   1.51527   1.53539   1.54478   1.55138
 Alpha virt. eigenvalues --    1.55169   1.55608   1.56172   1.56628   1.57542
 Alpha virt. eigenvalues --    1.57711   1.58319   1.59610   1.59904   1.61204
 Alpha virt. eigenvalues --    1.62979   1.63180   1.64622   1.66420   1.66778
 Alpha virt. eigenvalues --    1.67088   1.67532   1.69687   1.70009   1.70818
 Alpha virt. eigenvalues --    1.71761   1.72397   1.73547   1.74363   1.74412
 Alpha virt. eigenvalues --    1.75016   1.75477   1.75944   1.76565   1.77865
 Alpha virt. eigenvalues --    1.79315   1.80839   1.81317   1.81927   1.82312
 Alpha virt. eigenvalues --    1.82614   1.84409   1.85079   1.85748   1.85818
 Alpha virt. eigenvalues --    1.86087   1.86473   1.86784   1.87246   1.87650
 Alpha virt. eigenvalues --    1.87667   1.87995   1.88212   1.88419   1.88916
 Alpha virt. eigenvalues --    1.89389   1.89720   1.90165   1.90673   1.90837
 Alpha virt. eigenvalues --    1.90977   1.92186   1.92483   1.92693   1.93084
 Alpha virt. eigenvalues --    1.93309   1.94434   1.95111   1.95213   1.95581
 Alpha virt. eigenvalues --    1.95606   1.96639   1.97550   1.97782   1.98471
 Alpha virt. eigenvalues --    1.98604   1.98818   1.99516   1.99598   2.00672
 Alpha virt. eigenvalues --    2.00846   2.01038   2.01429   2.02019   2.02390
 Alpha virt. eigenvalues --    2.03034   2.03313   2.03521   2.04224   2.05035
 Alpha virt. eigenvalues --    2.05482   2.05947   2.06568   2.07465   2.07504
 Alpha virt. eigenvalues --    2.08082   2.08347   2.08532   2.08584   2.09563
 Alpha virt. eigenvalues --    2.09804   2.10460   2.10578   2.10883   2.10963
 Alpha virt. eigenvalues --    2.11751   2.13080   2.13793   2.14590   2.15363
 Alpha virt. eigenvalues --    2.15796   2.16365   2.16808   2.19324   2.19691
 Alpha virt. eigenvalues --    2.20372   2.20497   2.21493   2.22069   2.22768
 Alpha virt. eigenvalues --    2.23915   2.24459   2.25539   2.25896   2.26422
 Alpha virt. eigenvalues --    2.27757   2.28023   2.29320   2.30250   2.30816
 Alpha virt. eigenvalues --    2.31849   2.32570   2.32966   2.34085   2.34106
 Alpha virt. eigenvalues --    2.34800   2.35951   2.36188   2.36581   2.36858
 Alpha virt. eigenvalues --    2.37468   2.38100   2.39244   2.40108   2.40865
 Alpha virt. eigenvalues --    2.41315   2.42469   2.42697   2.42974   2.44560
 Alpha virt. eigenvalues --    2.45946   2.46055   2.47129   2.47830   2.47895
 Alpha virt. eigenvalues --    2.48564   2.48751   2.49696   2.50130   2.50555
 Alpha virt. eigenvalues --    2.52914   2.53574   2.55370   2.57443   2.58812
 Alpha virt. eigenvalues --    2.59383   2.61464   2.62160   2.62870   2.63642
 Alpha virt. eigenvalues --    2.64220   2.65121   2.65954   2.68058   2.68926
 Alpha virt. eigenvalues --    2.70905   2.72019   2.73474   2.73578   2.74089
 Alpha virt. eigenvalues --    2.74442   2.75173   2.75928   2.76839   2.77950
 Alpha virt. eigenvalues --    2.79752   2.80442   2.80868   2.82533   2.83613
 Alpha virt. eigenvalues --    2.84586   2.84616   2.84829   2.85560   2.86810
 Alpha virt. eigenvalues --    2.87645   2.89009   2.89311   2.89700   2.90328
 Alpha virt. eigenvalues --    2.91802   2.93484   2.93622   2.94700   2.95502
 Alpha virt. eigenvalues --    2.97112   2.97725   2.97878   2.98443   2.98747
 Alpha virt. eigenvalues --    2.99135   2.99590   2.99894   3.00398   3.02931
 Alpha virt. eigenvalues --    3.03730   3.04506   3.05485   3.05661   3.06055
 Alpha virt. eigenvalues --    3.07017   3.07369   3.08043   3.08980   3.12987
 Alpha virt. eigenvalues --    3.14883   3.17187   3.18323   3.18564   3.19836
 Alpha virt. eigenvalues --    3.20795   3.21319   3.24508   3.25808   3.28847
 Alpha virt. eigenvalues --    3.30064   3.30172   3.30866   3.31483   3.36808
 Alpha virt. eigenvalues --    3.38257   3.41330   3.43280   3.45840   3.46464
 Alpha virt. eigenvalues --    3.47829   3.49084   3.52794   3.57518   3.58278
 Alpha virt. eigenvalues --    3.59785   3.64242   3.64933   4.05831   4.06738
 Alpha virt. eigenvalues --    4.12622   4.14437   4.15778   4.24143   4.26329
 Alpha virt. eigenvalues --    4.28731   4.31873   4.33313   4.36921   4.38093
 Alpha virt. eigenvalues --    4.41536   4.44008   4.46147   4.51733   4.52229
 Alpha virt. eigenvalues --    4.52850   4.60978   4.62110   4.70096   4.71662
 Alpha virt. eigenvalues --    4.73961   4.77986   4.78914   4.81035   4.87091
 Alpha virt. eigenvalues --    4.90450   4.95723   5.13888   5.20137   5.28788
 Alpha virt. eigenvalues --    5.30862   5.37916   5.72937   5.90876   6.00643
 Alpha virt. eigenvalues --    6.11363
          Condensed to atoms (all electrons):
 Mulliken charges:
               1
     1  C   -0.182514
     2  N   -0.557804
     3  C    0.815513
     4  O   -0.533704
     5  N   -0.567135
     6  C   -0.057005
     7  C   -0.205184
     8  C   -0.252077
     9  C    0.543665
    10  F   -0.284618
    11  F   -0.282752
    12  C    0.731680
    13  F   -0.260397
    14  F   -0.271724
    15  O   -0.493554
    16  C    0.980914
    17  F   -0.237982
    18  F   -0.242763
    19  F   -0.244189
    20  C    0.826234
    21  O   -0.539988
    22  N   -0.569647
    23  C   -0.058494
    24  C   -0.204433
    25  C   -0.269933
    26  C    0.547212
    27  F   -0.288820
    28  F   -0.283419
    29  C    0.736336
    30  F   -0.256527
    31  F   -0.275962
    32  O   -0.481322
    33  C    0.980666
    34  F   -0.237564
    35  F   -0.240613
    36  F   -0.240336
    37  C    0.818920
    38  O   -0.536327
    39  H    0.151310
    40  H    0.157974
    41  H    0.158449
    42  H    0.149528
    43  H    0.151092
    44  H    0.133273
    45  H    0.134348
    46  H    0.140364
    47  H    0.146520
    48  H    0.150130
    49  H    0.150196
    50  H    0.133492
    51  H    0.132116
    52  H    0.145416
    53  H    0.141443
 Sum of Mulliken charges =   0.00000
 Mulliken charges with hydrogens summed into heavy atoms:
               1
     1  C    0.285218
     2  N   -0.557804
     3  C    0.815513
     4  O   -0.533704
     5  N   -0.567135
     6  C    0.243614
     7  C    0.062436
     8  C    0.034807
     9  C    0.543665
    10  F   -0.284618
    11  F   -0.282752
    12  C    0.731680
    13  F   -0.260397
    14  F   -0.271724
    15  O   -0.493554
    16  C    0.980914
    17  F   -0.237982
    18  F   -0.242763
    19  F   -0.244189
    20  C    0.826234
    21  O   -0.539988
    22  N   -0.569647
    23  C    0.241832
    24  C    0.061176
    25  C    0.016926
    26  C    0.547212
    27  F   -0.288820
    28  F   -0.283419
    29  C    0.736336
    30  F   -0.256527
    31  F   -0.275962
    32  O   -0.481322
    33  C    0.980666
    34  F   -0.237564
    35  F   -0.240613
    36  F   -0.240336
    37  C    0.818920
    38  O   -0.536327
 Electronic spatial extent (au):  <R**2>=          38047.5457
 Charge=              0.0000 electrons
 Dipole moment (field-independent basis, Debye):
    X=              0.0951    Y=             -1.6211    Z=             -0.5392  Tot=              1.7111
 Quadrupole moment (field-independent basis, Debye-Ang):
   XX=           -239.2231   YY=           -215.3168   ZZ=           -207.4847
   XY=             -6.8285   XZ=             13.7644   YZ=             -1.6422
 Traceless Quadrupole moment (field-independent basis, Debye-Ang):
   XX=            -18.5482   YY=              5.3581   ZZ=             13.1901
   XY=             -6.8285   XZ=             13.7644   YZ=             -1.6422
 Octapole moment (field-independent basis, Debye-Ang**2):
  XXX=             -1.7808  YYY=           -139.7758  ZZZ=           -153.8463  XYY=            -28.0304
  XXY=            -86.2137  XXZ=            -38.5818  XZZ=             33.6868  YZZ=            -47.9990
  YYZ=            -59.6107  XYZ=             24.6605
 Hexadecapole moment (field-independent basis, Debye-Ang**3):
 XXXX=         -37430.1611 YYYY=          -3368.4147 ZZZZ=          -2053.7681 XXXY=           -768.3840
 XXXZ=            501.3167 YYYX=           -538.9985 YYYZ=           -574.7802 ZZZX=            121.8353
 ZZZY=           -623.2583 XXYY=          -6885.3226 XXZZ=          -6410.6909 YYZZ=           -875.2713
 XXYZ=           -285.0690 YYXZ=             39.1369 ZZXY=           -196.8738
 N-N= 4.712427673779D+03 E-N=-1.545373430278D+04  KE= 2.536707068434D+03
 No NMR shielding tensors so no spin-rotation constants.
 Leave Link  601 at Sun Feb  2 05:09:32 2025, MaxMem=  5368709120 cpu:         3.8
 (Enter /home/k0335/k033513/app/g09/l9999.exe)
 1\1\GINC-C18U03N1\SP\RCAM-B3LYP\6-31G(d,p)\C16H15F14N3O5\K033513\02-Fe
 b-2025\0\\#p CAM-B3LYP/6-31G(d,p) SCRF=(PCM,Solvent=Generic,Read) NoSy
 mm out=wfn\\Title LDAI1C0_neu\\0,1\C,0,0.06052,-3.812534,-2.063911\N,0
 ,0.059118,-2.512536,-1.416291\C,0,-1.107703,-1.780387,-1.430237\O,0,-2
 .150849,-2.221493,-1.91768\N,0,-1.048213,-0.527825,-0.855578\C,0,-2.24
 3071,0.311399,-0.904428\C,0,-3.159157,0.05861,0.297264\C,0,-4.412678,0
 .936326,0.238421\C,0,-5.322582,0.69691,1.442699\F,0,-4.61379,0.960946,
 2.577193\F,0,-5.643261,-0.622969,1.504875\C,0,-6.602736,1.568939,1.408
 12\F,0,-7.354202,1.400523,2.525469\F,0,-6.220637,2.88165,1.432652\O,0,
 -7.451606,1.466934,0.29033\C,0,-7.936038,0.162507,0.14116\F,0,-8.22037
 5,-0.422395,1.314741\F,0,-9.059443,0.206916,-0.602037\F,0,-7.02325,-0.
 569282,-0.524061\C,0,0.039569,-0.072492,-0.141121\O,0,0.044295,1.03637
 2,0.398705\N,0,1.117869,-0.92763,-0.054456\C,0,2.290351,-0.487008,0.69
 7951\C,0,3.269129,0.286688,-0.191392\C,0,4.499986,0.747952,0.599843\C,
 0,5.479953,1.515891,-0.288213\F,0,4.758013,2.511919,-0.892913\F,0,5.90
 1736,0.702064,-1.295469\C,0,6.705991,2.159867,0.421268\F,0,6.328733,2.
 820755,1.547297\F,0,7.190794,3.134855,-0.409918\O,0,7.847569,1.395576,
 0.71901\C,0,7.57156,0.315767,1.546691\F,0,8.705947,-0.075492,2.155994\
 F,0,7.110876,-0.70581,0.803243\F,0,6.661354,0.624855,2.486661\C,0,1.17
 9363,-2.143047,-0.704345\O,0,2.180154,-2.860921,-0.643357\H,0,-0.24473
 7,-4.562776,-1.327532\H,0,-0.637895,-3.835684,-2.90567\H,0,1.059548,-4
 .064551,-2.432183\H,0,-2.787467,0.11455,-1.835762\H,0,-1.94503,1.36633
 5,-0.929387\H,0,-2.611152,0.256442,1.226519\H,0,-3.449176,-0.998817,0.
 324121\H,0,-4.951141,0.724092,-0.691344\H,0,-4.109057,1.989603,0.21559
 5\H,0,2.792628,-1.358742,1.133902\H,0,1.970667,0.144082,1.535696\H,0,2
 .759256,1.154276,-0.627447\H,0,3.585177,-0.345741,-1.030025\H,0,4.1708
 3,1.393825,1.422027\H,0,4.964259,-0.139295,1.032499\\Version=ES64L-G09
 RevD.01\HF=-2556.199157\RMSD=3.751e-09\Dipole=0.0374123,-0.6377827,-0.
 2121494\Quadrupole=-13.7901474,3.9836027,9.8065447,-5.0768487,10.23347
 53,-1.220961\PG=C01 [X(C16H15F14N3O5)]\\@

 Writing a WFN file to "wang5/LDAI1C0/LDAI1C0_neu.wfn"


 THE ONLY EXISTING THINGS ARE ATOMS AND EMPTY SPACE;
 ALL ELSE IS MERE OPINION. -- DEMOCRITUS OF ABDERA D. 370 B.C.
 EXPERIMENTS ARE THE ONLY MEANS OF KNOWLEDGE AT OUR DISPOSAL
 THE REST IS POETRY, IMAGINATION. -- MAX PLANCK
 Job cpu time:       0 days  0 hours 21 minutes  9.9 seconds.
 File lengths (MBytes):  RWF=    504 Int=      0 D2E=      0 Chk=     17 Scr=      1
 Normal termination of Gaussian 09 at Sun Feb  2 05:09:33 2025.
