 Entering Gaussian System, Link 0=g09
 Initial command:
 /home/k0335/k033513/app/g09/l1.exe "/home/k0335/k033513/app/g09/scratch/Gau-1507599.inp" -scrdir="/home/k0335/k033513/app/g09/scratch/"
 Default is to use a total of  36 processors:
                               36 via shared-memory
                                1 via Linda
 Entering Link 1 = /home/k0335/k033513/app/g09/l1.exe PID=   1507600.
  
 Copyright (c) 1988,1990,1992,1993,1995,1998,2003,2009,2013,
            Gaussian, Inc.  All Rights Reserved.
  
 This is part of the Gaussian(R) 09 program.  It is based on
 the Gaussian(R) 03 system (copyright 2003, Gaussian, Inc.),
 the Gaussian(R) 98 system (copyright 1998, Gaussian, Inc.),
 the Gaussian(R) 94 system (copyright 1995, Gaussian, Inc.),
 the Gaussian 92(TM) system (copyright 1992, Gaussian, Inc.),
 the Gaussian 90(TM) system (copyright 1990, Gaussian, Inc.),
 the Gaussian 88(TM) system (copyright 1988, Gaussian, Inc.),
 the Gaussian 86(TM) system (copyright 1986, Carnegie Mellon
 University), and the Gaussian 82(TM) system (copyright 1983,
 Carnegie Mellon University). Gaussian is a federally registered
 trademark of Gaussian, Inc.
  
 This software contains proprietary and confidential information,
 including trade secrets, belonging to Gaussian, Inc.
  
 This software is provided under written license and may be
 used, copied, transmitted, or stored only in accord with that
 written license.
  
 The following legend is applicable only to US Government
 contracts under FAR:
  
                    RESTRICTED RIGHTS LEGEND
  
 Use, reproduction and disclosure by the US Government is
 subject to restrictions as set forth in subparagraphs (a)
 and (c) of the Commercial Computer Software - Restricted
 Rights clause in FAR 52.227-19.
  
 Gaussian, Inc.
 340 Quinnipiac St., Bldg. 40, Wallingford CT 06492
  
  
 ---------------------------------------------------------------
 Warning -- This program may not be used in any manner that
 competes with the business of Gaussian, Inc. or will provide
 assistance to any competitor of Gaussian, Inc.  The licensee
 of this program is prohibited from giving any competitor of
 Gaussian, Inc. access to this program.  By using this program,
 the user acknowledges that Gaussian, Inc. is engaged in the
 business of creating and licensing software in the field of
 computational chemistry and represents and warrants to the
 licensee that it is not a competitor of Gaussian, Inc. and that
 it will not use this program in any manner prohibited above.
 ---------------------------------------------------------------
  

 Cite this work as:
 Gaussian 09, Revision D.01,
 M. J. Frisch, G. W. Trucks, H. B. Schlegel, G. E. Scuseria, 
 M. A. Robb, J. R. Cheeseman, G. Scalmani, V. Barone, B. Mennucci, 
 G. A. Petersson, H. Nakatsuji, M. Caricato, X. Li, H. P. Hratchian, 
 A. F. Izmaylov, J. Bloino, G. Zheng, J. L. Sonnenberg, M. Hada, 
 M. Ehara, K. Toyota, R. Fukuda, J. Hasegawa, M. Ishida, T. Nakajima, 
 Y. Honda, O. Kitao, H. Nakai, T. Vreven, J. A. Montgomery, Jr., 
 J. E. Peralta, F. Ogliaro, M. Bearpark, J. J. Heyd, E. Brothers, 
 K. N. Kudin, V. N. Staroverov, T. Keith, R. Kobayashi, J. Normand, 
 K. Raghavachari, A. Rendell, J. C. Burant, S. S. Iyengar, J. Tomasi, 
 M. Cossi, N. Rega, J. M. Millam, M. Klene, J. E. Knox, J. B. Cross, 
 V. Bakken, C. Adamo, J. Jaramillo, R. Gomperts, R. E. Stratmann, 
 O. Yazyev, A. J. Austin, R. Cammi, C. Pomelli, J. W. Ochterski, 
 R. L. Martin, K. Morokuma, V. G. Zakrzewski, G. A. Voth, 
 P. Salvador, J. J. Dannenberg, S. Dapprich, A. D. Daniels, 
 O. Farkas, J. B. Foresman, J. V. Ortiz, J. Cioslowski, 
 and D. J. Fox, Gaussian, Inc., Wallingford CT, 2013.
 
 ******************************************
 Gaussian 09:  ES64L-G09RevD.01 24-Apr-2013
                 4-Feb-2025 
 ******************************************
 %nprocshared=24
 Will use up to   24 processors via shared memory.
 %mem=40GB
 %rwf=cytopopt/DBE0/DBE0_neu.rwf
 %nosave
 %chk=cytopopt/DBE0/DBE0_neu.chk
 ----------------------------------------------------------------------
 #p CAM-B3LYP/6-31G(d,p) opt SCRF=(PCM,Solvent=Generic,Read) NoSymm out
 =wfn
 ----------------------------------------------------------------------
 1/14=-1,18=20,19=15,26=3,38=1,40=2/1,3;
 2/9=110,12=2,15=1,17=6,18=5,40=1/2;
 3/5=1,6=6,7=101,11=2,16=1,25=1,30=1,70=2203,71=1,72=-2,74=-40/1,2,3;
 4//1;
 5/5=2,38=5/2;
 6/7=2,8=2,9=2,10=2,28=1/1;
 7/30=1/1,2,3,16;
 1/14=-1,18=20,19=15,26=3/3(2);
 2/9=110,15=1/2;
 99/6=100/99;
 2/9=110,15=1/2;
 3/5=1,6=6,7=101,11=2,16=1,25=1,30=1,70=2205,71=1,72=-2,74=-40/1,2,3;
 4/5=5,16=3,69=1/1;
 5/5=2,38=5/2;
 7/30=1/1,2,3,16;
 1/14=-1,18=20,19=15,26=3/3(-5);
 2/9=110,15=1/2;
 6/7=2,8=2,9=2,10=2,19=2,28=1/1;
 99/6=100,9=1/99;
 Leave Link    1 at Tue Feb  4 08:04:26 2025, MaxMem=  5368709120 cpu:         0.8
 (Enter /home/k0335/k033513/app/g09/l101.exe)
 --------------
 Title DBE0_neu
 --------------
 Symbolic Z-matrix:
 Charge =  0 Multiplicity = 1
 F                     7.32831   0.10216   1.90605 
 C                     6.37833  -0.79342   2.25562 
 F                     6.74858  -1.3407    3.42956 
 C                     6.12685  -1.81517   1.16999 
 F                     5.46073  -2.88512   1.6584 
 F                     7.25341  -2.27992   0.5988 
 C                     5.26145  -1.00639   0.24823 
 F                     6.0786   -0.05526  -0.32907 
 C                     4.68802  -1.86489  -0.84906 
 F                     3.85319  -2.79221  -0.31408 
 C                     4.02243  -1.06088  -1.96769 
 O                     3.50162   0.12392  -1.58371 
 O                     3.90414  -1.40295  -3.13479 
 F                     5.71569  -2.59542  -1.38882 
 C                     4.35524  -0.29656   1.26714 
 F                     4.05852   0.95515   0.81028 
 C                     3.04159  -0.95438   1.75455 
 F                     2.69721  -0.37414   2.95541 
 C                     1.87854  -0.73317   0.77282 
 N                     1.11801   0.3974    1.02174 
 C                    -0.04362   0.73626   0.21712 
 C                    -1.30194  -0.04285   0.64454 
 N                    -2.53452   0.20645  -0.12733 
 C                    -2.43006  -0.37155  -1.47957 
 C                    -3.77328  -0.55298  -2.20623 
 C                    -4.84806  -1.31009  -1.41852 
 C                    -4.42952  -2.71443  -1.00796 
 C                    -2.9649    1.61493  -0.15778 
 C                    -3.22643   2.21039   1.2342 
 C                    -3.71783   3.66086   1.18647 
 C                    -5.10496   3.81702   0.58226 
 O                     1.65134  -1.47428  -0.18142 
 F                     3.24124  -2.26355   2.05033 
 O                     5.18081  -0.05152   2.44381 
 H                     3.06847   0.46158  -2.39963 
 H                     1.23096   0.85838   1.92121 
 H                     0.19693   0.5362   -0.83124 
 H                    -0.19199   1.8133    0.33361 
 H                    -1.08381  -1.11829   0.62303 
 H                    -1.49703   0.15426   1.70431 
 H                    -1.77039   0.23785  -2.1094 
 H                    -1.96127  -1.3614   -1.42023 
 H                    -4.17574   0.42389  -2.50015 
 H                    -3.58187  -1.08843  -3.14643 
 H                    -5.13655  -0.74047  -0.52675 
 H                    -5.74605  -1.3831   -2.04508 
 H                    -3.61398  -2.69134  -0.27778 
 H                    -4.10287  -3.2968   -1.87686 
 H                    -5.27362  -3.23823  -0.54582 
 H                    -2.23793   2.23394  -0.69688 
 H                    -3.90292   1.68023  -0.71582 
 H                    -2.30357   2.20309   1.82507 
 H                    -3.95659   1.59339   1.77222 
 H                    -3.74191   4.04922   2.21311 
 H                    -3.0024    4.28071   0.63082 
 H                    -5.43454   4.8567    0.66808 
 H                    -5.83416   3.18669   1.1019 
 H                    -5.11591   3.55592  -0.47965 
 
 NAtoms=     58 NQM=       58 NQMF=       0 NMMI=      0 NMMIF=      0
                NMic=       0 NMicF=      0.
                    Isotopes and Nuclear Properties:
 (Nuclear quadrupole moments (NQMom) in fm**2, nuclear magnetic moments (NMagM)
  in nuclear magnetons)

  Atom         1           2           3           4           5           6           7           8           9          10
 IAtWgt=          19          12          19          12          19          19          12          19          12          19
 AtmWgt=  18.9984033  12.0000000  18.9984033  12.0000000  18.9984033  18.9984033  12.0000000  18.9984033  12.0000000  18.9984033
 NucSpn=           1           0           1           0           1           1           0           1           0           1
 AtZEff=   0.0000000   0.0000000   0.0000000   0.0000000   0.0000000   0.0000000   0.0000000   0.0000000   0.0000000   0.0000000
 NQMom=    0.0000000   0.0000000   0.0000000   0.0000000   0.0000000   0.0000000   0.0000000   0.0000000   0.0000000   0.0000000
 NMagM=    2.6288670   0.0000000   2.6288670   0.0000000   2.6288670   2.6288670   0.0000000   2.6288670   0.0000000   2.6288670
 AtZNuc=   9.0000000   6.0000000   9.0000000   6.0000000   9.0000000   9.0000000   6.0000000   9.0000000   6.0000000   9.0000000

  Atom        11          12          13          14          15          16          17          18          19          20
 IAtWgt=          12          16          16          19          12          19          12          19          12          14
 AtmWgt=  12.0000000  15.9949146  15.9949146  18.9984033  12.0000000  18.9984033  12.0000000  18.9984033  12.0000000  14.0030740
 NucSpn=           0           0           0           1           0           1           0           1           0           2
 AtZEff=   0.0000000   0.0000000   0.0000000   0.0000000   0.0000000   0.0000000   0.0000000   0.0000000   0.0000000   0.0000000
 NQMom=    0.0000000   0.0000000   0.0000000   0.0000000   0.0000000   0.0000000   0.0000000   0.0000000   0.0000000   2.0440000
 NMagM=    0.0000000   0.0000000   0.0000000   2.6288670   0.0000000   2.6288670   0.0000000   2.6288670   0.0000000   0.4037610
 AtZNuc=   6.0000000   8.0000000   8.0000000   9.0000000   6.0000000   9.0000000   6.0000000   9.0000000   6.0000000   7.0000000

  Atom        21          22          23          24          25          26          27          28          29          30
 IAtWgt=          12          12          14          12          12          12          12          12          12          12
 AtmWgt=  12.0000000  12.0000000  14.0030740  12.0000000  12.0000000  12.0000000  12.0000000  12.0000000  12.0000000  12.0000000
 NucSpn=           0           0           2           0           0           0           0           0           0           0
 AtZEff=   0.0000000   0.0000000   0.0000000   0.0000000   0.0000000   0.0000000   0.0000000   0.0000000   0.0000000   0.0000000
 NQMom=    0.0000000   0.0000000   2.0440000   0.0000000   0.0000000   0.0000000   0.0000000   0.0000000   0.0000000   0.0000000
 NMagM=    0.0000000   0.0000000   0.4037610   0.0000000   0.0000000   0.0000000   0.0000000   0.0000000   0.0000000   0.0000000
 AtZNuc=   6.0000000   6.0000000   7.0000000   6.0000000   6.0000000   6.0000000   6.0000000   6.0000000   6.0000000   6.0000000

  Atom        31          32          33          34          35          36          37          38          39          40
 IAtWgt=          12          16          19          16           1           1           1           1           1           1
 AtmWgt=  12.0000000  15.9949146  18.9984033  15.9949146   1.0078250   1.0078250   1.0078250   1.0078250   1.0078250   1.0078250
 NucSpn=           0           0           1           0           1           1           1           1           1           1
 AtZEff=   0.0000000   0.0000000   0.0000000   0.0000000   0.0000000   0.0000000   0.0000000   0.0000000   0.0000000   0.0000000
 NQMom=    0.0000000   0.0000000   0.0000000   0.0000000   0.0000000   0.0000000   0.0000000   0.0000000   0.0000000   0.0000000
 NMagM=    0.0000000   0.0000000   2.6288670   0.0000000   2.7928460   2.7928460   2.7928460   2.7928460   2.7928460   2.7928460
 AtZNuc=   6.0000000   8.0000000   9.0000000   8.0000000   1.0000000   1.0000000   1.0000000   1.0000000   1.0000000   1.0000000

  Atom        41          42          43          44          45          46          47          48          49          50
 IAtWgt=           1           1           1           1           1           1           1           1           1           1
 AtmWgt=   1.0078250   1.0078250   1.0078250   1.0078250   1.0078250   1.0078250   1.0078250   1.0078250   1.0078250   1.0078250
 NucSpn=           1           1           1           1           1           1           1           1           1           1
 AtZEff=   0.0000000   0.0000000   0.0000000   0.0000000   0.0000000   0.0000000   0.0000000   0.0000000   0.0000000   0.0000000
 NQMom=    0.0000000   0.0000000   0.0000000   0.0000000   0.0000000   0.0000000   0.0000000   0.0000000   0.0000000   0.0000000
 NMagM=    2.7928460   2.7928460   2.7928460   2.7928460   2.7928460   2.7928460   2.7928460   2.7928460   2.7928460   2.7928460
 AtZNuc=   1.0000000   1.0000000   1.0000000   1.0000000   1.0000000   1.0000000   1.0000000   1.0000000   1.0000000   1.0000000

  Atom        51          52          53          54          55          56          57          58
 IAtWgt=           1           1           1           1           1           1           1           1
 AtmWgt=   1.0078250   1.0078250   1.0078250   1.0078250   1.0078250   1.0078250   1.0078250   1.0078250
 NucSpn=           1           1           1           1           1           1           1           1
 AtZEff=   0.0000000   0.0000000   0.0000000   0.0000000   0.0000000   0.0000000   0.0000000   0.0000000
 NQMom=    0.0000000   0.0000000   0.0000000   0.0000000   0.0000000   0.0000000   0.0000000   0.0000000
 NMagM=    2.7928460   2.7928460   2.7928460   2.7928460   2.7928460   2.7928460   2.7928460   2.7928460
 AtZNuc=   1.0000000   1.0000000   1.0000000   1.0000000   1.0000000   1.0000000   1.0000000   1.0000000
 Leave Link  101 at Tue Feb  4 08:04:26 2025, MaxMem=  5368709120 cpu:         3.1
 (Enter /home/k0335/k033513/app/g09/l103.exe)

 GradGradGradGradGradGradGradGradGradGradGradGradGradGradGradGradGradGrad
 Berny optimization.
 Initialization pass.
                           ----------------------------
                           !    Initial Parameters    !
                           ! (Angstroms and Degrees)  !
 --------------------------                            --------------------------
 ! Name  Definition              Value          Derivative Info.                !
 --------------------------------------------------------------------------------
 ! R1    R(1,2)                  1.3516         estimate D2E/DX2                !
 ! R2    R(2,3)                  1.3471         estimate D2E/DX2                !
 ! R3    R(2,4)                  1.5119         estimate D2E/DX2                !
 ! R4    R(2,34)                 1.4212         estimate D2E/DX2                !
 ! R5    R(4,5)                  1.3517         estimate D2E/DX2                !
 ! R6    R(4,6)                  1.3459         estimate D2E/DX2                !
 ! R7    R(4,7)                  1.5009         estimate D2E/DX2                !
 ! R8    R(7,8)                  1.3805         estimate D2E/DX2                !
 ! R9    R(7,9)                  1.5066         estimate D2E/DX2                !
 ! R10   R(7,15)                 1.5373         estimate D2E/DX2                !
 ! R11   R(9,10)                 1.3576         estimate D2E/DX2                !
 ! R12   R(9,11)                 1.53           estimate D2E/DX2                !
 ! R13   R(9,14)                 1.3715         estimate D2E/DX2                !
 ! R14   R(11,12)                1.35           estimate D2E/DX2                !
 ! R15   R(11,13)                1.2219         estimate D2E/DX2                !
 ! R16   R(12,35)                0.9835         estimate D2E/DX2                !
 ! R17   R(15,16)                1.3651         estimate D2E/DX2                !
 ! R18   R(15,17)                1.5479         estimate D2E/DX2                !
 ! R19   R(15,34)                1.4581         estimate D2E/DX2                !
 ! R20   R(17,18)                1.3774         estimate D2E/DX2                !
 ! R21   R(17,19)                1.538          estimate D2E/DX2                !
 ! R22   R(17,33)                1.3569         estimate D2E/DX2                !
 ! R23   R(19,20)                1.3851         estimate D2E/DX2                !
 ! R24   R(19,32)                1.2294         estimate D2E/DX2                !
 ! R25   R(20,21)                1.4531         estimate D2E/DX2                !
 ! R26   R(20,36)                1.017          estimate D2E/DX2                !
 ! R27   R(21,22)                1.5405         estimate D2E/DX2                !
 ! R28   R(21,37)                1.0941         estimate D2E/DX2                !
 ! R29   R(21,38)                1.0934         estimate D2E/DX2                !
 ! R30   R(22,23)                1.4755         estimate D2E/DX2                !
 ! R31   R(22,39)                1.0976         estimate D2E/DX2                !
 ! R32   R(22,40)                1.0955         estimate D2E/DX2                !
 ! R33   R(23,24)                1.4743         estimate D2E/DX2                !
 ! R34   R(23,28)                1.4731         estimate D2E/DX2                !
 ! R35   R(24,25)                1.5379         estimate D2E/DX2                !
 ! R36   R(24,41)                1.0969         estimate D2E/DX2                !
 ! R37   R(24,42)                1.0969         estimate D2E/DX2                !
 ! R38   R(25,26)                1.5326         estimate D2E/DX2                !
 ! R39   R(25,43)                1.0967         estimate D2E/DX2                !
 ! R40   R(25,44)                1.0988         estimate D2E/DX2                !
 ! R41   R(26,27)                1.5218         estimate D2E/DX2                !
 ! R42   R(26,45)                1.0968         estimate D2E/DX2                !
 ! R43   R(26,46)                1.0974         estimate D2E/DX2                !
 ! R44   R(27,47)                1.0949         estimate D2E/DX2                !
 ! R45   R(27,48)                1.0958         estimate D2E/DX2                !
 ! R46   R(27,49)                1.0956         estimate D2E/DX2                !
 ! R47   R(28,29)                1.5364         estimate D2E/DX2                !
 ! R48   R(28,50)                1.0965         estimate D2E/DX2                !
 ! R49   R(28,51)                1.0934         estimate D2E/DX2                !
 ! R50   R(29,30)                1.5322         estimate D2E/DX2                !
 ! R51   R(29,52)                1.0958         estimate D2E/DX2                !
 ! R52   R(29,53)                1.0969         estimate D2E/DX2                !
 ! R53   R(30,31)                1.5211         estimate D2E/DX2                !
 ! R54   R(30,54)                1.0979         estimate D2E/DX2                !
 ! R55   R(30,55)                1.0976         estimate D2E/DX2                !
 ! R56   R(31,56)                1.094          estimate D2E/DX2                !
 ! R57   R(31,57)                1.095          estimate D2E/DX2                !
 ! R58   R(31,58)                1.0936         estimate D2E/DX2                !
 ! A1    A(1,2,3)              107.5422         estimate D2E/DX2                !
 ! A2    A(1,2,4)              112.2719         estimate D2E/DX2                !
 ! A3    A(1,2,34)             106.2954         estimate D2E/DX2                !
 ! A4    A(3,2,4)              113.3855         estimate D2E/DX2                !
 ! A5    A(3,2,34)             109.1631         estimate D2E/DX2                !
 ! A6    A(4,2,34)             107.9212         estimate D2E/DX2                !
 ! A7    A(2,4,5)              110.9442         estimate D2E/DX2                !
 ! A8    A(2,4,6)              113.5081         estimate D2E/DX2                !
 ! A9    A(2,4,7)               99.9464         estimate D2E/DX2                !
 ! A10   A(5,4,6)              107.0086         estimate D2E/DX2                !
 ! A11   A(5,4,7)              111.3652         estimate D2E/DX2                !
 ! A12   A(6,4,7)              114.0837         estimate D2E/DX2                !
 ! A13   A(4,7,8)              106.6664         estimate D2E/DX2                !
 ! A14   A(4,7,9)              111.081          estimate D2E/DX2                !
 ! A15   A(4,7,15)             100.4664         estimate D2E/DX2                !
 ! A16   A(8,7,9)              108.2598         estimate D2E/DX2                !
 ! A17   A(8,7,15)             107.9379         estimate D2E/DX2                !
 ! A18   A(9,7,15)             121.4306         estimate D2E/DX2                !
 ! A19   A(7,9,10)             109.6499         estimate D2E/DX2                !
 ! A20   A(7,9,11)             113.4933         estimate D2E/DX2                !
 ! A21   A(7,9,14)             107.7546         estimate D2E/DX2                !
 ! A22   A(10,9,11)            112.3065         estimate D2E/DX2                !
 ! A23   A(10,9,14)            104.5965         estimate D2E/DX2                !
 ! A24   A(11,9,14)            108.55           estimate D2E/DX2                !
 ! A25   A(9,11,12)            114.9029         estimate D2E/DX2                !
 ! A26   A(9,11,13)            126.3942         estimate D2E/DX2                !
 ! A27   A(12,11,13)           118.6865         estimate D2E/DX2                !
 ! A28   A(11,12,35)           103.606          estimate D2E/DX2                !
 ! A29   A(7,15,16)            109.2501         estimate D2E/DX2                !
 ! A30   A(7,15,17)            120.8477         estimate D2E/DX2                !
 ! A31   A(7,15,34)            106.1823         estimate D2E/DX2                !
 ! A32   A(16,15,17)           108.095          estimate D2E/DX2                !
 ! A33   A(16,15,34)           103.8297         estimate D2E/DX2                !
 ! A34   A(17,15,34)           107.3266         estimate D2E/DX2                !
 ! A35   A(15,17,18)           107.9193         estimate D2E/DX2                !
 ! A36   A(15,17,19)           112.312          estimate D2E/DX2                !
 ! A37   A(15,17,33)           110.7192         estimate D2E/DX2                !
 ! A38   A(18,17,19)           107.8693         estimate D2E/DX2                !
 ! A39   A(18,17,33)           104.6649         estimate D2E/DX2                !
 ! A40   A(19,17,33)           112.903          estimate D2E/DX2                !
 ! A41   A(17,19,20)           114.7019         estimate D2E/DX2                !
 ! A42   A(17,19,32)           123.2642         estimate D2E/DX2                !
 ! A43   A(20,19,32)           122.0093         estimate D2E/DX2                !
 ! A44   A(19,20,21)           121.9884         estimate D2E/DX2                !
 ! A45   A(19,20,36)           117.9005         estimate D2E/DX2                !
 ! A46   A(21,20,36)           118.2161         estimate D2E/DX2                !
 ! A47   A(20,21,22)           112.4206         estimate D2E/DX2                !
 ! A48   A(20,21,37)           108.1905         estimate D2E/DX2                !
 ! A49   A(20,21,38)           106.2105         estimate D2E/DX2                !
 ! A50   A(22,21,37)           110.6704         estimate D2E/DX2                !
 ! A51   A(22,21,38)           110.9638         estimate D2E/DX2                !
 ! A52   A(37,21,38)           108.1826         estimate D2E/DX2                !
 ! A53   A(21,22,23)           116.856          estimate D2E/DX2                !
 ! A54   A(21,22,39)           109.1346         estimate D2E/DX2                !
 ! A55   A(21,22,40)           108.8374         estimate D2E/DX2                !
 ! A56   A(23,22,39)           108.7431         estimate D2E/DX2                !
 ! A57   A(23,22,40)           109.0814         estimate D2E/DX2                !
 ! A58   A(39,22,40)           103.3359         estimate D2E/DX2                !
 ! A59   A(22,23,24)           110.7553         estimate D2E/DX2                !
 ! A60   A(22,23,28)           114.6083         estimate D2E/DX2                !
 ! A61   A(24,23,28)           112.1236         estimate D2E/DX2                !
 ! A62   A(23,24,25)           114.692          estimate D2E/DX2                !
 ! A63   A(23,24,41)           110.5762         estimate D2E/DX2                !
 ! A64   A(23,24,42)           109.5399         estimate D2E/DX2                !
 ! A65   A(25,24,41)           108.6324         estimate D2E/DX2                !
 ! A66   A(25,24,42)           107.0012         estimate D2E/DX2                !
 ! A67   A(41,24,42)           105.9855         estimate D2E/DX2                !
 ! A68   A(24,25,26)           115.3361         estimate D2E/DX2                !
 ! A69   A(24,25,43)           110.0036         estimate D2E/DX2                !
 ! A70   A(24,25,44)           108.0375         estimate D2E/DX2                !
 ! A71   A(26,25,43)           108.6896         estimate D2E/DX2                !
 ! A72   A(26,25,44)           108.7371         estimate D2E/DX2                !
 ! A73   A(43,25,44)           105.5857         estimate D2E/DX2                !
 ! A74   A(25,26,27)           113.6822         estimate D2E/DX2                !
 ! A75   A(25,26,45)           110.2303         estimate D2E/DX2                !
 ! A76   A(25,26,46)           108.2556         estimate D2E/DX2                !
 ! A77   A(27,26,45)           109.4054         estimate D2E/DX2                !
 ! A78   A(27,26,46)           108.5231         estimate D2E/DX2                !
 ! A79   A(45,26,46)           106.4719         estimate D2E/DX2                !
 ! A80   A(26,27,47)           111.4267         estimate D2E/DX2                !
 ! A81   A(26,27,48)           111.0072         estimate D2E/DX2                !
 ! A82   A(26,27,49)           110.0646         estimate D2E/DX2                !
 ! A83   A(47,27,48)           108.5402         estimate D2E/DX2                !
 ! A84   A(47,27,49)           107.6162         estimate D2E/DX2                !
 ! A85   A(48,27,49)           108.0605         estimate D2E/DX2                !
 ! A86   A(23,28,29)           113.6771         estimate D2E/DX2                !
 ! A87   A(23,28,50)           110.8695         estimate D2E/DX2                !
 ! A88   A(23,28,51)           108.5593         estimate D2E/DX2                !
 ! A89   A(29,28,50)           109.8468         estimate D2E/DX2                !
 ! A90   A(29,28,51)           107.05           estimate D2E/DX2                !
 ! A91   A(50,28,51)           106.5066         estimate D2E/DX2                !
 ! A92   A(28,29,30)           113.1581         estimate D2E/DX2                !
 ! A93   A(28,29,52)           110.0332         estimate D2E/DX2                !
 ! A94   A(28,29,53)           109.8573         estimate D2E/DX2                !
 ! A95   A(30,29,52)           107.0496         estimate D2E/DX2                !
 ! A96   A(30,29,53)           109.5284         estimate D2E/DX2                !
 ! A97   A(52,29,53)           106.9983         estimate D2E/DX2                !
 ! A98   A(29,30,31)           113.7059         estimate D2E/DX2                !
 ! A99   A(29,30,54)           108.2264         estimate D2E/DX2                !
 ! A100  A(29,30,55)           109.9576         estimate D2E/DX2                !
 ! A101  A(31,30,54)           108.3686         estimate D2E/DX2                !
 ! A102  A(31,30,55)           109.5932         estimate D2E/DX2                !
 ! A103  A(54,30,55)           106.7324         estimate D2E/DX2                !
 ! A104  A(30,31,56)           109.9455         estimate D2E/DX2                !
 ! A105  A(30,31,57)           111.0806         estimate D2E/DX2                !
 ! A106  A(30,31,58)           111.7365         estimate D2E/DX2                !
 ! A107  A(56,31,57)           108.011          estimate D2E/DX2                !
 ! A108  A(56,31,58)           107.4605         estimate D2E/DX2                !
 ! A109  A(57,31,58)           108.4641         estimate D2E/DX2                !
 ! A110  A(2,34,15)            106.4086         estimate D2E/DX2                !
 ! D1    D(1,2,4,5)            163.5488         estimate D2E/DX2                !
 ! D2    D(1,2,4,6)             43.0152         estimate D2E/DX2                !
 ! D3    D(1,2,4,7)            -78.8603         estimate D2E/DX2                !
 ! D4    D(3,2,4,5)             41.4104         estimate D2E/DX2                !
 ! D5    D(3,2,4,6)            -79.1232         estimate D2E/DX2                !
 ! D6    D(3,2,4,7)            159.0013         estimate D2E/DX2                !
 ! D7    D(34,2,4,5)           -79.6355         estimate D2E/DX2                !
 ! D8    D(34,2,4,6)           159.8309         estimate D2E/DX2                !
 ! D9    D(34,2,4,7)            37.9554         estimate D2E/DX2                !
 ! D10   D(1,2,34,15)          103.9094         estimate D2E/DX2                !
 ! D11   D(3,2,34,15)         -140.3666         estimate D2E/DX2                !
 ! D12   D(4,2,34,15)          -16.7238         estimate D2E/DX2                !
 ! D13   D(2,4,7,8)             70.6055         estimate D2E/DX2                !
 ! D14   D(2,4,7,9)           -171.624          estimate D2E/DX2                !
 ! D15   D(2,4,7,15)           -41.8666         estimate D2E/DX2                !
 ! D16   D(5,4,7,8)           -172.1174         estimate D2E/DX2                !
 ! D17   D(5,4,7,9)            -54.3469         estimate D2E/DX2                !
 ! D18   D(5,4,7,15)            75.4104         estimate D2E/DX2                !
 ! D19   D(6,4,7,8)            -50.8585         estimate D2E/DX2                !
 ! D20   D(6,4,7,9)             66.912          estimate D2E/DX2                !
 ! D21   D(6,4,7,15)          -163.3306         estimate D2E/DX2                !
 ! D22   D(4,7,9,10)            64.6318         estimate D2E/DX2                !
 ! D23   D(4,7,9,11)          -168.8793         estimate D2E/DX2                !
 ! D24   D(4,7,9,14)           -48.6532         estimate D2E/DX2                !
 ! D25   D(8,7,9,10)          -178.5696         estimate D2E/DX2                !
 ! D26   D(8,7,9,11)           -52.0807         estimate D2E/DX2                !
 ! D27   D(8,7,9,14)            68.1454         estimate D2E/DX2                !
 ! D28   D(15,7,9,10)          -52.9977         estimate D2E/DX2                !
 ! D29   D(15,7,9,11)           73.4911         estimate D2E/DX2                !
 ! D30   D(15,7,9,14)         -166.2828         estimate D2E/DX2                !
 ! D31   D(4,7,15,16)          145.496          estimate D2E/DX2                !
 ! D32   D(4,7,15,17)          -88.2216         estimate D2E/DX2                !
 ! D33   D(4,7,15,34)           34.0897         estimate D2E/DX2                !
 ! D34   D(8,7,15,16)           34.005          estimate D2E/DX2                !
 ! D35   D(8,7,15,17)          160.2875         estimate D2E/DX2                !
 ! D36   D(8,7,15,34)          -77.4012         estimate D2E/DX2                !
 ! D37   D(9,7,15,16)          -91.7135         estimate D2E/DX2                !
 ! D38   D(9,7,15,17)           34.5689         estimate D2E/DX2                !
 ! D39   D(9,7,15,34)          156.8802         estimate D2E/DX2                !
 ! D40   D(7,9,11,12)          -28.8952         estimate D2E/DX2                !
 ! D41   D(7,9,11,13)          152.6088         estimate D2E/DX2                !
 ! D42   D(10,9,11,12)          96.1802         estimate D2E/DX2                !
 ! D43   D(10,9,11,13)         -82.3158         estimate D2E/DX2                !
 ! D44   D(14,9,11,12)        -148.6696         estimate D2E/DX2                !
 ! D45   D(14,9,11,13)          32.8344         estimate D2E/DX2                !
 ! D46   D(9,11,12,35)        -176.0615         estimate D2E/DX2                !
 ! D47   D(13,11,12,35)          2.5584         estimate D2E/DX2                !
 ! D48   D(7,15,17,18)         158.8676         estimate D2E/DX2                !
 ! D49   D(7,15,17,19)         -82.3627         estimate D2E/DX2                !
 ! D50   D(7,15,17,33)          44.8647         estimate D2E/DX2                !
 ! D51   D(16,15,17,18)        -74.3232         estimate D2E/DX2                !
 ! D52   D(16,15,17,19)         44.4464         estimate D2E/DX2                !
 ! D53   D(16,15,17,33)        171.6739         estimate D2E/DX2                !
 ! D54   D(34,15,17,18)         37.1069         estimate D2E/DX2                !
 ! D55   D(34,15,17,19)        155.8766         estimate D2E/DX2                !
 ! D56   D(34,15,17,33)        -76.896          estimate D2E/DX2                !
 ! D57   D(7,15,34,2)          -11.037          estimate D2E/DX2                !
 ! D58   D(16,15,34,2)        -126.1864         estimate D2E/DX2                !
 ! D59   D(17,15,34,2)         119.4912         estimate D2E/DX2                !
 ! D60   D(15,17,19,20)        -91.1617         estimate D2E/DX2                !
 ! D61   D(15,17,19,32)         87.0642         estimate D2E/DX2                !
 ! D62   D(18,17,19,20)         27.6373         estimate D2E/DX2                !
 ! D63   D(18,17,19,32)       -154.1368         estimate D2E/DX2                !
 ! D64   D(33,17,19,20)        142.786          estimate D2E/DX2                !
 ! D65   D(33,17,19,32)        -38.9881         estimate D2E/DX2                !
 ! D66   D(17,19,20,21)       -178.0891         estimate D2E/DX2                !
 ! D67   D(17,19,20,36)        -14.0455         estimate D2E/DX2                !
 ! D68   D(32,19,20,21)          3.6603         estimate D2E/DX2                !
 ! D69   D(32,19,20,36)        167.7039         estimate D2E/DX2                !
 ! D70   D(19,20,21,22)         81.4554         estimate D2E/DX2                !
 ! D71   D(19,20,21,37)        -41.0597         estimate D2E/DX2                !
 ! D72   D(19,20,21,38)       -157.0102         estimate D2E/DX2                !
 ! D73   D(36,20,21,22)        -82.54           estimate D2E/DX2                !
 ! D74   D(36,20,21,37)        154.9449         estimate D2E/DX2                !
 ! D75   D(36,20,21,38)         38.9944         estimate D2E/DX2                !
 ! D76   D(20,21,22,23)       -178.794          estimate D2E/DX2                !
 ! D77   D(20,21,22,39)        -54.9509         estimate D2E/DX2                !
 ! D78   D(20,21,22,40)         57.1558         estimate D2E/DX2                !
 ! D79   D(37,21,22,23)        -57.6894         estimate D2E/DX2                !
 ! D80   D(37,21,22,39)         66.1538         estimate D2E/DX2                !
 ! D81   D(37,21,22,40)        178.2604         estimate D2E/DX2                !
 ! D82   D(38,21,22,23)         62.4237         estimate D2E/DX2                !
 ! D83   D(38,21,22,39)       -173.7332         estimate D2E/DX2                !
 ! D84   D(38,21,22,40)        -61.6265         estimate D2E/DX2                !
 ! D85   D(21,22,23,24)         70.8133         estimate D2E/DX2                !
 ! D86   D(21,22,23,28)        -57.2512         estimate D2E/DX2                !
 ! D87   D(39,22,23,24)        -53.2294         estimate D2E/DX2                !
 ! D88   D(39,22,23,28)        178.7061         estimate D2E/DX2                !
 ! D89   D(40,22,23,24)       -165.2608         estimate D2E/DX2                !
 ! D90   D(40,22,23,28)         66.6747         estimate D2E/DX2                !
 ! D91   D(22,23,24,25)        162.1695         estimate D2E/DX2                !
 ! D92   D(22,23,24,41)        -74.5861         estimate D2E/DX2                !
 ! D93   D(22,23,24,42)         41.8608         estimate D2E/DX2                !
 ! D94   D(28,23,24,25)        -68.4275         estimate D2E/DX2                !
 ! D95   D(28,23,24,41)         54.8169         estimate D2E/DX2                !
 ! D96   D(28,23,24,42)        171.2637         estimate D2E/DX2                !
 ! D97   D(22,23,28,29)        -58.6272         estimate D2E/DX2                !
 ! D98   D(22,23,28,50)         65.6999         estimate D2E/DX2                !
 ! D99   D(22,23,28,51)       -177.6358         estimate D2E/DX2                !
 ! D100  D(24,23,28,29)        174.0031         estimate D2E/DX2                !
 ! D101  D(24,23,28,50)        -61.6698         estimate D2E/DX2                !
 ! D102  D(24,23,28,51)         54.9945         estimate D2E/DX2                !
 ! D103  D(23,24,25,26)        -51.9439         estimate D2E/DX2                !
 ! D104  D(23,24,25,43)         71.4003         estimate D2E/DX2                !
 ! D105  D(23,24,25,44)       -173.8121         estimate D2E/DX2                !
 ! D106  D(41,24,25,26)       -176.224          estimate D2E/DX2                !
 ! D107  D(41,24,25,43)        -52.8798         estimate D2E/DX2                !
 ! D108  D(41,24,25,44)         61.9078         estimate D2E/DX2                !
 ! D109  D(42,24,25,26)         69.7596         estimate D2E/DX2                !
 ! D110  D(42,24,25,43)       -166.8962         estimate D2E/DX2                !
 ! D111  D(42,24,25,44)        -52.1086         estimate D2E/DX2                !
 ! D112  D(24,25,26,27)        -58.6439         estimate D2E/DX2                !
 ! D113  D(24,25,26,45)         64.606          estimate D2E/DX2                !
 ! D114  D(24,25,26,46)       -179.3051         estimate D2E/DX2                !
 ! D115  D(43,25,26,27)        177.3198         estimate D2E/DX2                !
 ! D116  D(43,25,26,45)        -59.4303         estimate D2E/DX2                !
 ! D117  D(43,25,26,46)         56.6586         estimate D2E/DX2                !
 ! D118  D(44,25,26,27)         62.8474         estimate D2E/DX2                !
 ! D119  D(44,25,26,45)       -173.9027         estimate D2E/DX2                !
 ! D120  D(44,25,26,46)        -57.8139         estimate D2E/DX2                !
 ! D121  D(25,26,27,47)         66.7339         estimate D2E/DX2                !
 ! D122  D(25,26,27,48)        -54.3703         estimate D2E/DX2                !
 ! D123  D(25,26,27,49)       -173.9616         estimate D2E/DX2                !
 ! D124  D(45,26,27,47)        -56.9656         estimate D2E/DX2                !
 ! D125  D(45,26,27,48)       -178.0697         estimate D2E/DX2                !
 ! D126  D(45,26,27,49)         62.3389         estimate D2E/DX2                !
 ! D127  D(46,26,27,47)       -172.7553         estimate D2E/DX2                !
 ! D128  D(46,26,27,48)         66.1405         estimate D2E/DX2                !
 ! D129  D(46,26,27,49)        -53.4508         estimate D2E/DX2                !
 ! D130  D(23,28,29,30)       -178.0925         estimate D2E/DX2                !
 ! D131  D(23,28,29,52)         62.2116         estimate D2E/DX2                !
 ! D132  D(23,28,29,53)        -55.3388         estimate D2E/DX2                !
 ! D133  D(50,28,29,30)         57.0303         estimate D2E/DX2                !
 ! D134  D(50,28,29,52)        -62.6656         estimate D2E/DX2                !
 ! D135  D(50,28,29,53)        179.784          estimate D2E/DX2                !
 ! D136  D(51,28,29,30)        -58.2249         estimate D2E/DX2                !
 ! D137  D(51,28,29,52)       -177.9208         estimate D2E/DX2                !
 ! D138  D(51,28,29,53)         64.5288         estimate D2E/DX2                !
 ! D139  D(28,29,30,31)         67.4403         estimate D2E/DX2                !
 ! D140  D(28,29,30,54)       -172.0994         estimate D2E/DX2                !
 ! D141  D(28,29,30,55)        -55.8644         estimate D2E/DX2                !
 ! D142  D(52,29,30,31)       -171.1676         estimate D2E/DX2                !
 ! D143  D(52,29,30,54)        -50.7073         estimate D2E/DX2                !
 ! D144  D(52,29,30,55)         65.5276         estimate D2E/DX2                !
 ! D145  D(53,29,30,31)        -55.4957         estimate D2E/DX2                !
 ! D146  D(53,29,30,54)         64.9646         estimate D2E/DX2                !
 ! D147  D(53,29,30,55)       -178.8005         estimate D2E/DX2                !
 ! D148  D(29,30,31,56)        174.4403         estimate D2E/DX2                !
 ! D149  D(29,30,31,57)         54.9412         estimate D2E/DX2                !
 ! D150  D(29,30,31,58)        -66.3302         estimate D2E/DX2                !
 ! D151  D(54,30,31,56)         54.0602         estimate D2E/DX2                !
 ! D152  D(54,30,31,57)        -65.4389         estimate D2E/DX2                !
 ! D153  D(54,30,31,58)        173.2896         estimate D2E/DX2                !
 ! D154  D(55,30,31,56)        -62.0563         estimate D2E/DX2                !
 ! D155  D(55,30,31,57)        178.4446         estimate D2E/DX2                !
 ! D156  D(55,30,31,58)         57.1732         estimate D2E/DX2                !
 --------------------------------------------------------------------------------
 Trust Radius=3.00D-01 FncErr=1.00D-07 GrdErr=1.00D-06
 Number of steps in this run=    334 maximum allowed number of steps=    348.
 GradGradGradGradGradGradGradGradGradGradGradGradGradGradGradGradGradGrad

 Leave Link  103 at Tue Feb  4 08:04:27 2025, MaxMem=  5368709120 cpu:         0.1
 (Enter /home/k0335/k033513/app/g09/l202.exe)
 Symmetry turned off by external request.
 Stoichiometry    C18H24F10N2O4
 Framework group  C1[X(C18H24F10N2O4)]
 Deg. of freedom   168
 Full point group                 C1      NOp   1
                          Input orientation:                          
 ---------------------------------------------------------------------
 Center     Atomic      Atomic             Coordinates (Angstroms)
 Number     Number       Type             X           Y           Z
 ---------------------------------------------------------------------
      1          9           0        7.328310    0.102162    1.906052
      2          6           0        6.378333   -0.793418    2.255619
      3          9           0        6.748577   -1.340696    3.429563
      4          6           0        6.126852   -1.815170    1.169986
      5          9           0        5.460734   -2.885115    1.658397
      6          9           0        7.253408   -2.279916    0.598802
      7          6           0        5.261452   -1.006391    0.248229
      8          9           0        6.078602   -0.055264   -0.329071
      9          6           0        4.688016   -1.864887   -0.849057
     10          9           0        3.853190   -2.792212   -0.314079
     11          6           0        4.022430   -1.060877   -1.967688
     12          8           0        3.501615    0.123921   -1.583708
     13          8           0        3.904142   -1.402953   -3.134788
     14          9           0        5.715692   -2.595423   -1.388817
     15          6           0        4.355238   -0.296563    1.267140
     16          9           0        4.058524    0.955152    0.810279
     17          6           0        3.041587   -0.954382    1.754549
     18          9           0        2.697212   -0.374144    2.955412
     19          6           0        1.878544   -0.733171    0.772815
     20          7           0        1.118009    0.397403    1.021743
     21          6           0       -0.043624    0.736261    0.217117
     22          6           0       -1.301944   -0.042847    0.644537
     23          7           0       -2.534520    0.206451   -0.127332
     24          6           0       -2.430057   -0.371551   -1.479573
     25          6           0       -3.773282   -0.552980   -2.206229
     26          6           0       -4.848059   -1.310090   -1.418515
     27          6           0       -4.429520   -2.714430   -1.007956
     28          6           0       -2.964895    1.614930   -0.157775
     29          6           0       -3.226435    2.210394    1.234198
     30          6           0       -3.717830    3.660857    1.186471
     31          6           0       -5.104965    3.817017    0.582258
     32          8           0        1.651341   -1.474283   -0.181420
     33          9           0        3.241236   -2.263550    2.050331
     34          8           0        5.180809   -0.051521    2.443810
     35          1           0        3.068472    0.461582   -2.399635
     36          1           0        1.230955    0.858384    1.921212
     37          1           0        0.196933    0.536201   -0.831242
     38          1           0       -0.191990    1.813296    0.333612
     39          1           0       -1.083807   -1.118293    0.623032
     40          1           0       -1.497028    0.154264    1.704310
     41          1           0       -1.770386    0.237847   -2.109404
     42          1           0       -1.961265   -1.361403   -1.420228
     43          1           0       -4.175740    0.423894   -2.500149
     44          1           0       -3.581871   -1.088426   -3.146431
     45          1           0       -5.136550   -0.740470   -0.526745
     46          1           0       -5.746045   -1.383102   -2.045080
     47          1           0       -3.613976   -2.691340   -0.277776
     48          1           0       -4.102874   -3.296805   -1.876862
     49          1           0       -5.273616   -3.238227   -0.545822
     50          1           0       -2.237934    2.233935   -0.696877
     51          1           0       -3.902920    1.680229   -0.715821
     52          1           0       -2.303569    2.203087    1.825074
     53          1           0       -3.956589    1.593394    1.772223
     54          1           0       -3.741911    4.049222    2.213109
     55          1           0       -3.002402    4.280707    0.630823
     56          1           0       -5.434541    4.856701    0.668081
     57          1           0       -5.834156    3.186690    1.101904
     58          1           0       -5.115908    3.555919   -0.479654
 ---------------------------------------------------------------------
 Rotational constants (GHZ):      0.2294334      0.0550205      0.0506704
 Leave Link  202 at Tue Feb  4 08:04:27 2025, MaxMem=  5368709120 cpu:         0.0
 (Enter /home/k0335/k033513/app/g09/l301.exe)
 Standard basis: 6-31G(d,p) (6D, 7F)
 Ernie: Thresh=  0.10000D-02 Tol=  0.10000D-05 Strict=F.
   630 basis functions,  1120 primitive gaussians,   630 cartesian basis functions
   134 alpha electrons      134 beta electrons
       nuclear repulsion energy      4369.2485858494 Hartrees.
 IExCor=20419 DFT=T Ex+Corr=CAM-B3LYP ExCW=0 ScaHFX=  1.000000
 ScaDFX=  1.000000  1.000000  1.000000  0.810000 ScalE2=  1.000000  1.000000
 IRadAn=      0 IRanWt=     -1 IRanGd=            0 ICorTp=0 IEmpDi=  4
  HFx wShort=  0.000000 wLong=  0.330000 cFull=  0.190000 cShort=  0.000000 cLong=  0.460000
  DFx wShort=  0.000000 wLong=  0.330000 cFull=  0.190000 cShort=  0.000000 cLong=  0.460000
 NAtoms=   58 NActive=   58 NUniq=   58 SFac= 1.00D+00 NAtFMM=   60 NAOKFM=F Big=F
 Integral buffers will be    131072 words long.
 Raffenetti 2 integral format.
 Two-electron integral symmetry is turned off.
 Using the following non-standard input for PCM:
 eps=2.05
 --- end of non-standard input.
 ------------------------------------------------------------------------------
 Polarizable Continuum Model (PCM)
 =================================
 Model                : PCM (using non-symmetric T matrix).
 Atomic radii         : UFF (Universal Force Field).
 Polarization charges : Total charges.
 Charge compensation  : None.
 Solution method      : On-the-fly selection.
 Cavity type          : Scaled VdW (van der Waals Surface) (Alpha=1.100).
 Cavity algorithm     : GePol (No added spheres)
                        Default sphere list used, NSphG=   58.
                        Lebedev-Laikov grids with approx.  5.0 points / Ang**2.
                        Smoothing algorithm: Karplus/York (Gamma=1.0000).
                        Polarization charges: spherical gaussians, with
                                              point-specific exponents (IZeta= 3).
                        Self-potential: point-specific (ISelfS= 7).
                        Self-field    : sphere-specific E.n sum rule (ISelfD= 2).
 1st derivatives      : Analytical E(r).r(x)/FMM algorithm (CHGder, D1EAlg=3).
                        Cavity 1st derivative terms included.
 Solvent              : Generic,
                        Eps                           =   2.050000
                        Eps(infinity)                 =   0.000000
                        RSolv                         =   0.000000 Ang.
                        Molar volume                  =   0.000000 cm**3/mol
                        Thermal expansion coefficient =   0.000000 K**-1
                        Absolute temperature          = 298.150000 K
                        Numeral density               =   0.000000 Ang**-3
                        Hydrogen bond acidity         =   0.000000
                        Hydrogen bond basicity        =   0.000000
                        Surface tension at interface  =   0.000000 (cal/mol)*Ang**-2
                        Carbon aromaticity            =   0.000000
                        Electronegative halogenicity  =   0.000000
 ------------------------------------------------------------------------------
 GePol: Number of generator spheres                  =      58
 GePol: Total number of spheres                      =      58
 GePol: Number of exposed spheres                    =      57 ( 98.28%)
 GePol: Number of points                             =    4013
 GePol: Average weight of points                     =       0.13
 GePol: Minimum weight of points                     =   0.30D-11
 GePol: Maximum weight of points                     =    0.20577
 GePol: Number of points with low weight             =     219
 GePol: Fraction of low-weight points (<1% of avg)   =       5.46%
 GePol: Cavity surface area                          =    512.713 Ang**2
 GePol: Cavity volume                                =    584.741 Ang**3
 Leave Link  301 at Tue Feb  4 08:04:27 2025, MaxMem=  5368709120 cpu:         0.8
 (Enter /home/k0335/k033513/app/g09/l302.exe)
 NPDir=0 NMtPBC=     1 NCelOv=     1 NCel=       1 NClECP=     1 NCelD=      1
         NCelK=      1 NCelE2=     1 NClLst=     1 CellRange=     0.0.
 One-electron integrals computed using PRISM.
 NBasis=   630 RedAO= T EigKep=  8.23D-04  NBF=   630
 NBsUse=   630 1.00D-06 EigRej= -1.00D+00 NBFU=   630
 Precomputing XC quadrature grid using
 IXCGrd= 4 IRadAn=           0 IRanWt=          -1 IRanGd=           0 AccXCQ= 0.00D+00.
 Generated NRdTot=       0 NPtTot=           0 NUsed=           0 NTot=          32
 NSgBfM=   596   596   599   602   602 MxSgAt=    58 MxSgA2=    58.
 Leave Link  302 at Tue Feb  4 08:04:28 2025, MaxMem=  5368709120 cpu:        14.8
 (Enter /home/k0335/k033513/app/g09/l303.exe)
 DipDrv:  MaxL=1.
 Leave Link  303 at Tue Feb  4 08:04:28 2025, MaxMem=  5368709120 cpu:         1.0
 (Enter /home/k0335/k033513/app/g09/l401.exe)
 ExpMin= 1.61D-01 ExpMax= 7.00D+03 ExpMxC= 1.05D+03 IAcc=1 IRadAn=         1 AccDes= 0.00D+00
 Harris functional with IExCor=20419 and IRadAn=       1 diagonalized for initial guess.
 HarFok:  IExCor=20419 AccDes= 0.00D+00 IRadAn=         1 IDoV= 1 UseB2=F ITyADJ=14
 ICtDFT=  3500011 ScaDFX=  1.000000  1.000000  1.000000  1.000000
 FoFCou: FMM=F IPFlag=           0 FMFlag=      100000 FMFlg1=           0
         NFxFlg=           0 DoJE=T BraDBF=F KetDBF=T FulRan=T
         wScrn=  0.000000 ICntrl=     500 IOpCl=  0 I1Cent=   200000004 NGrid=           0
         NMat0=    1 NMatS0=      1 NMatT0=    0 NMatD0=    1 NMtDS0=    0 NMtDT0=    0
 Symmetry not used in FoFCou.
 Harris En= -2039.00836330748    
 JPrj=0 DoOrth=F DoCkMO=F.
 Leave Link  401 at Tue Feb  4 08:04:29 2025, MaxMem=  5368709120 cpu:        15.8
 (Enter /home/k0335/k033513/app/g09/l502.exe)
 Closed shell SCF:
 Using DIIS extrapolation, IDIIS=  1040.
 Two-electron integral symmetry not used.
 IVT=     1228266 IEndB=     1228266 NGot=  5368709120 MDV=  5367895025
 LenX=  5367895025 LenY=  5367497495
 Requested convergence on RMS density matrix=1.00D-08 within 128 cycles.
 Requested convergence on MAX density matrix=1.00D-06.
 Requested convergence on             energy=1.00D-06.
 No special actions if energy rises.
 Fock matrices will be formed incrementally for  20 cycles.

 Cycle   1  Pass 1  IDiag  1:
 FoFJK:  IHMeth= 1 ICntrl=       0 DoSepK=T KAlg= 0 I1Cent=   0 FoldK=F
 IRaf=         1 NMat=   1 IRICut=       1 DoRegI=T DoRafI=F ISym2E= 0.
 FoFCou: FMM=F IPFlag=           0 FMFlag=      100000 FMFlg1=           0
         NFxFlg=           0 DoJE=T BraDBF=F KetDBF=F FulRan=T
         wScrn=  0.000000 ICntrl=     500 IOpCl=  0 I1Cent=           0 NGrid=           0
         NMat0=    1 NMatS0=      1 NMatT0=    0 NMatD0=    1 NMtDS0=    0 NMtDT0=    0
 Symmetry not used in FoFCou.
 Inv3:  Mode=1 IEnd=    48312507.
 Iteration    1 A*A^-1 deviation from unit magnitude is 8.66D-15 for   3998.
 Iteration    1 A*A^-1 deviation from orthogonality  is 6.24D-15 for   4012   2693.
 Iteration    1 A^-1*A deviation from unit magnitude is 8.66D-15 for   3998.
 Iteration    1 A^-1*A deviation from orthogonality  is 3.75D-15 for   3984   2555.
 E= -2107.78623693750    
 DIIS: error= 5.62D-02 at cycle   1 NSaved=   1.
 NSaved= 1 IEnMin= 1 EnMin= -2107.78623693750     IErMin= 1 ErrMin= 5.62D-02
 ErrMax= 5.62D-02  0.00D+00 EMaxC= 1.00D-01 BMatC= 1.71D+00 BMatP= 1.71D+00
 IDIUse=3 WtCom= 4.38D-01 WtEn= 5.62D-01
 Coeff-Com:  0.100D+01
 Coeff-En:   0.100D+01
 Coeff:      0.100D+01
 Gap=     0.467 Goal=   None    Shift=    0.000
 GapD=    0.467 DampG=2.000 DampE=0.500 DampFc=1.0000 IDamp=-1.
 RMSDP=2.42D-03 MaxDP=1.33D-01              OVMax= 1.24D-01

 Cycle   2  Pass 1  IDiag  1:
 RMSU=  2.42D-03    CP:  9.93D-01
 E= -2108.03922161230     Delta-E=       -0.252984674798 Rises=F Damp=F
 DIIS: error= 1.67D-02 at cycle   2 NSaved=   2.
 NSaved= 2 IEnMin= 2 EnMin= -2108.03922161230     IErMin= 2 ErrMin= 1.67D-02
 ErrMax= 1.67D-02  0.00D+00 EMaxC= 1.00D-01 BMatC= 6.11D-01 BMatP= 1.71D+00
 IDIUse=3 WtCom= 8.33D-01 WtEn= 1.67D-01
 Coeff-Com:  0.349D+00 0.651D+00
 Coeff-En:   0.336D+00 0.664D+00
 Coeff:      0.347D+00 0.653D+00
 Gap=     0.268 Goal=   None    Shift=    0.000
 RMSDP=1.14D-03 MaxDP=7.22D-02 DE=-2.53D-01 OVMax= 7.61D-02

 Cycle   3  Pass 1  IDiag  1:
 RMSU=  7.05D-04    CP:  9.99D-01  6.34D-01
 E= -2108.34200148700     Delta-E=       -0.302779874700 Rises=F Damp=F
 DIIS: error= 7.07D-03 at cycle   3 NSaved=   3.
 NSaved= 3 IEnMin= 3 EnMin= -2108.34200148700     IErMin= 3 ErrMin= 7.07D-03
 ErrMax= 7.07D-03  0.00D+00 EMaxC= 1.00D-01 BMatC= 1.14D-01 BMatP= 6.11D-01
 IDIUse=3 WtCom= 9.29D-01 WtEn= 7.07D-02
 Coeff-Com:  0.644D-01 0.316D+00 0.620D+00
 Coeff-En:   0.000D+00 0.115D+00 0.885D+00
 Coeff:      0.598D-01 0.302D+00 0.639D+00
 Gap=     0.282 Goal=   None    Shift=    0.000
 RMSDP=5.10D-04 MaxDP=3.92D-02 DE=-3.03D-01 OVMax= 6.19D-02

 Cycle   4  Pass 1  IDiag  1:
 RMSU=  2.81D-04    CP:  9.95D-01  7.24D-01  4.90D-01
 E= -2108.40890150870     Delta-E=       -0.066900021701 Rises=F Damp=F
 DIIS: error= 2.46D-03 at cycle   4 NSaved=   4.
 NSaved= 4 IEnMin= 4 EnMin= -2108.40890150870     IErMin= 4 ErrMin= 2.46D-03
 ErrMax= 2.46D-03  0.00D+00 EMaxC= 1.00D-01 BMatC= 1.10D-02 BMatP= 1.14D-01
 IDIUse=3 WtCom= 9.75D-01 WtEn= 2.46D-02
 Coeff-Com:  0.630D-02 0.101D+00 0.327D+00 0.566D+00
 Coeff-En:   0.000D+00 0.000D+00 0.265D-01 0.973D+00
 Coeff:      0.615D-02 0.981D-01 0.320D+00 0.576D+00
 Gap=     0.267 Goal=   None    Shift=    0.000
 RMSDP=1.55D-04 MaxDP=1.40D-02 DE=-6.69D-02 OVMax= 2.10D-02

 Cycle   5  Pass 1  IDiag  1:
 RMSU=  7.05D-05    CP:  9.95D-01  7.25D-01  6.20D-01  6.31D-01
 E= -2108.41657694624     Delta-E=       -0.007675437546 Rises=F Damp=F
 DIIS: error= 5.19D-04 at cycle   5 NSaved=   5.
 NSaved= 5 IEnMin= 5 EnMin= -2108.41657694624     IErMin= 5 ErrMin= 5.19D-04
 ErrMax= 5.19D-04  0.00D+00 EMaxC= 1.00D-01 BMatC= 5.80D-04 BMatP= 1.10D-02
 IDIUse=3 WtCom= 9.95D-01 WtEn= 5.19D-03
 Coeff-Com:  0.642D-03 0.404D-01 0.151D+00 0.316D+00 0.492D+00
 Coeff-En:   0.000D+00 0.000D+00 0.000D+00 0.000D+00 0.100D+01
 Coeff:      0.639D-03 0.402D-01 0.150D+00 0.315D+00 0.495D+00
 Gap=     0.265 Goal=   None    Shift=    0.000
 RMSDP=3.40D-05 MaxDP=3.07D-03 DE=-7.68D-03 OVMax= 5.71D-03

 Cycle   6  Pass 1  IDiag  1:
 RMSU=  2.08D-05    CP:  9.95D-01  7.26D-01  6.20D-01  6.51D-01  6.32D-01
 E= -2108.41699762803     Delta-E=       -0.000420681786 Rises=F Damp=F
 DIIS: error= 1.26D-04 at cycle   6 NSaved=   6.
 NSaved= 6 IEnMin= 6 EnMin= -2108.41699762803     IErMin= 6 ErrMin= 1.26D-04
 ErrMax= 1.26D-04  0.00D+00 EMaxC= 1.00D-01 BMatC= 2.87D-05 BMatP= 5.80D-04
 IDIUse=3 WtCom= 9.99D-01 WtEn= 1.26D-03
 Coeff-Com: -0.530D-03 0.434D-02 0.225D-01 0.571D-01 0.205D+00 0.712D+00
 Coeff-En:   0.000D+00 0.000D+00 0.000D+00 0.000D+00 0.000D+00 0.100D+01
 Coeff:     -0.529D-03 0.434D-02 0.225D-01 0.570D-01 0.204D+00 0.712D+00
 Gap=     0.266 Goal=   None    Shift=    0.000
 RMSDP=1.10D-05 MaxDP=6.83D-04 DE=-4.21D-04 OVMax= 1.06D-03

 Cycle   7  Pass 1  IDiag  1:
 RMSU=  7.43D-06    CP:  9.95D-01  7.27D-01  6.23D-01  6.65D-01  7.17D-01
                    CP:  8.72D-01
 E= -2108.41701912237     Delta-E=       -0.000021494345 Rises=F Damp=F
 DIIS: error= 4.00D-05 at cycle   7 NSaved=   7.
 NSaved= 7 IEnMin= 7 EnMin= -2108.41701912237     IErMin= 7 ErrMin= 4.00D-05
 ErrMax= 4.00D-05  0.00D+00 EMaxC= 1.00D-01 BMatC= 4.23D-06 BMatP= 2.87D-05
 IDIUse=1 WtCom= 1.00D+00 WtEn= 0.00D+00
 Coeff-Com: -0.236D-03-0.383D-02-0.110D-01-0.190D-01 0.306D-01 0.326D+00
 Coeff-Com:  0.678D+00
 Coeff:     -0.236D-03-0.383D-02-0.110D-01-0.190D-01 0.306D-01 0.326D+00
 Coeff:      0.678D+00
 Gap=     0.266 Goal=   None    Shift=    0.000
 RMSDP=3.55D-06 MaxDP=2.53D-04 DE=-2.15D-05 OVMax= 4.99D-04

 Cycle   8  Pass 1  IDiag  1:
 RMSU=  2.23D-06    CP:  9.95D-01  7.27D-01  6.24D-01  6.65D-01  7.35D-01
                    CP:  9.71D-01  8.53D-01
 E= -2108.41702280407     Delta-E=       -0.000003681695 Rises=F Damp=F
 DIIS: error= 1.12D-05 at cycle   8 NSaved=   8.
 NSaved= 8 IEnMin= 8 EnMin= -2108.41702280407     IErMin= 8 ErrMin= 1.12D-05
 ErrMax= 1.12D-05  0.00D+00 EMaxC= 1.00D-01 BMatC= 3.13D-07 BMatP= 4.23D-06
 IDIUse=1 WtCom= 1.00D+00 WtEn= 0.00D+00
 Coeff-Com: -0.561D-04-0.192D-02-0.616D-02-0.125D-01-0.889D-04 0.796D-01
 Coeff-Com:  0.283D+00 0.658D+00
 Coeff:     -0.561D-04-0.192D-02-0.616D-02-0.125D-01-0.889D-04 0.796D-01
 Coeff:      0.283D+00 0.658D+00
 Gap=     0.266 Goal=   None    Shift=    0.000
 RMSDP=1.11D-06 MaxDP=6.73D-05 DE=-3.68D-06 OVMax= 1.30D-04

 Cycle   9  Pass 1  IDiag  1:
 RMSU=  8.51D-07    CP:  9.95D-01  7.27D-01  6.24D-01  6.65D-01  7.41D-01
                    CP:  9.85D-01  9.13D-01  9.82D-01
 E= -2108.41702307477     Delta-E=       -0.000000270703 Rises=F Damp=F
 DIIS: error= 6.71D-06 at cycle   9 NSaved=   9.
 NSaved= 9 IEnMin= 9 EnMin= -2108.41702307477     IErMin= 9 ErrMin= 6.71D-06
 ErrMax= 6.71D-06  0.00D+00 EMaxC= 1.00D-01 BMatC= 4.13D-08 BMatP= 3.13D-07
 IDIUse=1 WtCom= 1.00D+00 WtEn= 0.00D+00
 Coeff-Com:  0.914D-05-0.188D-03-0.735D-03-0.232D-02-0.403D-02-0.247D-01
 Coeff-Com:  0.666D-02 0.249D+00 0.776D+00
 Coeff:      0.914D-05-0.188D-03-0.735D-03-0.232D-02-0.403D-02-0.247D-01
 Coeff:      0.666D-02 0.249D+00 0.776D+00
 Gap=     0.266 Goal=   None    Shift=    0.000
 RMSDP=5.87D-07 MaxDP=5.79D-05 DE=-2.71D-07 OVMax= 8.46D-05

 Cycle  10  Pass 1  IDiag  1:
 RMSU=  3.17D-07    CP:  9.95D-01  7.27D-01  6.24D-01  6.65D-01  7.45D-01
                    CP:  9.93D-01  9.43D-01  1.10D+00  9.46D-01
 E= -2108.41702312424     Delta-E=       -0.000000049472 Rises=F Damp=F
 DIIS: error= 2.36D-06 at cycle  10 NSaved=  10.
 NSaved=10 IEnMin=10 EnMin= -2108.41702312424     IErMin=10 ErrMin= 2.36D-06
 ErrMax= 2.36D-06  0.00D+00 EMaxC= 1.00D-01 BMatC= 5.32D-09 BMatP= 4.13D-08
 IDIUse=1 WtCom= 1.00D+00 WtEn= 0.00D+00
 Coeff-Com:  0.111D-04 0.157D-03 0.452D-03 0.528D-03-0.104D-02-0.198D-01
 Coeff-Com: -0.296D-01 0.103D-01 0.299D+00 0.740D+00
 Coeff:      0.111D-04 0.157D-03 0.452D-03 0.528D-03-0.104D-02-0.198D-01
 Coeff:     -0.296D-01 0.103D-01 0.299D+00 0.740D+00
 Gap=     0.266 Goal=   None    Shift=    0.000
 RMSDP=2.03D-07 MaxDP=1.70D-05 DE=-4.95D-08 OVMax= 3.50D-05

 Cycle  11  Pass 1  IDiag  1:
 RMSU=  1.19D-07    CP:  9.95D-01  7.27D-01  6.24D-01  6.65D-01  7.46D-01
                    CP:  9.94D-01  9.55D-01  1.14D+00  1.06D+00  9.54D-01
 E= -2108.41702312939     Delta-E=       -0.000000005150 Rises=F Damp=F
 DIIS: error= 1.66D-06 at cycle  11 NSaved=  11.
 NSaved=11 IEnMin=11 EnMin= -2108.41702312939     IErMin=11 ErrMin= 1.66D-06
 ErrMax= 1.66D-06  0.00D+00 EMaxC= 1.00D-01 BMatC= 1.77D-09 BMatP= 5.32D-09
 IDIUse=1 WtCom= 1.00D+00 WtEn= 0.00D+00
 Coeff-Com:  0.574D-05 0.126D-03 0.390D-03 0.659D-03 0.125D-03-0.852D-02
 Coeff-Com: -0.184D-01-0.312D-01 0.670D-01 0.442D+00 0.548D+00
 Coeff:      0.574D-05 0.126D-03 0.390D-03 0.659D-03 0.125D-03-0.852D-02
 Coeff:     -0.184D-01-0.312D-01 0.670D-01 0.442D+00 0.548D+00
 Gap=     0.266 Goal=   None    Shift=    0.000
 RMSDP=7.65D-08 MaxDP=8.21D-06 DE=-5.15D-09 OVMax= 1.45D-05

 Cycle  12  Pass 1  IDiag  1:
 RMSU=  4.35D-08    CP:  9.95D-01  7.27D-01  6.24D-01  6.65D-01  7.46D-01
                    CP:  9.94D-01  9.57D-01  1.15D+00  1.09D+00  1.06D+00
                    CP:  7.67D-01
 E= -2108.41702313084     Delta-E=       -0.000000001444 Rises=F Damp=F
 DIIS: error= 2.82D-07 at cycle  12 NSaved=  12.
 NSaved=12 IEnMin=12 EnMin= -2108.41702313084     IErMin=12 ErrMin= 2.82D-07
 ErrMax= 2.82D-07  0.00D+00 EMaxC= 1.00D-01 BMatC= 7.29D-11 BMatP= 1.77D-09
 IDIUse=1 WtCom= 1.00D+00 WtEn= 0.00D+00
 Coeff-Com:  0.787D-07 0.176D-04 0.592D-04 0.125D-03 0.304D-03 0.146D-03
 Coeff-Com: -0.107D-02-0.107D-01-0.206D-01 0.277D-01 0.150D+00 0.854D+00
 Coeff:      0.787D-07 0.176D-04 0.592D-04 0.125D-03 0.304D-03 0.146D-03
 Coeff:     -0.107D-02-0.107D-01-0.206D-01 0.277D-01 0.150D+00 0.854D+00
 Gap=     0.266 Goal=   None    Shift=    0.000
 RMSDP=2.50D-08 MaxDP=2.01D-06 DE=-1.44D-09 OVMax= 4.04D-06

 Cycle  13  Pass 1  IDiag  1:
 RMSU=  1.28D-08    CP:  9.95D-01  7.27D-01  6.24D-01  6.65D-01  7.46D-01
                    CP:  9.93D-01  9.58D-01  1.15D+00  1.10D+00  1.09D+00
                    CP:  8.65D-01  1.02D+00
 E= -2108.41702313080     Delta-E=        0.000000000040 Rises=F Damp=F
 DIIS: error= 8.33D-08 at cycle  13 NSaved=  13.
 NSaved=13 IEnMin=12 EnMin= -2108.41702313084     IErMin=13 ErrMin= 8.33D-08
 ErrMax= 8.33D-08  0.00D+00 EMaxC= 1.00D-01 BMatC= 1.52D-11 BMatP= 7.29D-11
 IDIUse=1 WtCom= 1.00D+00 WtEn= 0.00D+00
 Coeff-Com: -0.565D-06-0.449D-05-0.113D-04-0.933D-05 0.146D-03 0.902D-03
 Coeff-Com:  0.140D-02-0.191D-02-0.164D-01-0.322D-01 0.106D-01 0.400D+00
 Coeff-Com:  0.637D+00
 Coeff:     -0.565D-06-0.449D-05-0.113D-04-0.933D-05 0.146D-03 0.902D-03
 Coeff:      0.140D-02-0.191D-02-0.164D-01-0.322D-01 0.106D-01 0.400D+00
 Coeff:      0.637D+00
 Gap=     0.266 Goal=   None    Shift=    0.000
 RMSDP=7.89D-09 MaxDP=6.83D-07 DE= 4.00D-11 OVMax= 1.25D-06

 Error on total polarization charges =  0.00460
 SCF Done:  E(RCAM-B3LYP) =  -2108.41702313     A.U. after   13 cycles
            NFock= 13  Conv=0.79D-08     -V/T= 2.0078
 KE= 2.092091730671D+03 PE=-1.370019231669D+04 EE= 5.130434977036D+03
 Leave Link  502 at Tue Feb  4 08:05:29 2025, MaxMem=  5368709120 cpu:      1337.2
 (Enter /home/k0335/k033513/app/g09/l601.exe)
 Copying SCF densities to generalized density rwf, IOpCl= 0 IROHF=0.

 **********************************************************************

            Population analysis using the SCF density.

 **********************************************************************

 Alpha  occ. eigenvalues --  -24.82991 -24.82932 -24.82698 -24.82430 -24.82113
 Alpha  occ. eigenvalues --  -24.81964 -24.81910 -24.81815 -24.81782 -24.81738
 Alpha  occ. eigenvalues --  -19.31189 -19.30146 -19.25140 -19.22258 -14.45903
 Alpha  occ. eigenvalues --  -14.39938 -10.52041 -10.48931 -10.48494 -10.47951
 Alpha  occ. eigenvalues --  -10.47356 -10.44153 -10.42777 -10.40327 -10.30564
 Alpha  occ. eigenvalues --  -10.28605 -10.27992 -10.27624 -10.25584 -10.25491
 Alpha  occ. eigenvalues --  -10.24927 -10.24628 -10.24497 -10.23800  -1.40176
 Alpha  occ. eigenvalues --   -1.38043  -1.37409  -1.37136  -1.35541  -1.33693
 Alpha  occ. eigenvalues --   -1.32353  -1.31411  -1.30758  -1.30485  -1.22256
 Alpha  occ. eigenvalues --   -1.19283  -1.14450  -1.12008  -1.02422  -0.99772
 Alpha  occ. eigenvalues --   -0.97098  -0.90348  -0.88220  -0.88043  -0.86787
 Alpha  occ. eigenvalues --   -0.84403  -0.81705  -0.80312  -0.78472  -0.77015
 Alpha  occ. eigenvalues --   -0.76211  -0.73818  -0.72546  -0.71842  -0.70870
 Alpha  occ. eigenvalues --   -0.70159  -0.69597  -0.68433  -0.67920  -0.67046
 Alpha  occ. eigenvalues --   -0.66789  -0.65992  -0.65460  -0.65040  -0.64456
 Alpha  occ. eigenvalues --   -0.64212  -0.64034  -0.62478  -0.62208  -0.62122
 Alpha  occ. eigenvalues --   -0.58726  -0.57445  -0.57183  -0.56392  -0.55800
 Alpha  occ. eigenvalues --   -0.55710  -0.55243  -0.54886  -0.54616  -0.53962
 Alpha  occ. eigenvalues --   -0.53721  -0.53443  -0.53150  -0.52756  -0.52622
 Alpha  occ. eigenvalues --   -0.52529  -0.52285  -0.52109  -0.51707  -0.51260
 Alpha  occ. eigenvalues --   -0.51140  -0.50711  -0.50367  -0.50237  -0.49754
 Alpha  occ. eigenvalues --   -0.49552  -0.49387  -0.49076  -0.48656  -0.48222
 Alpha  occ. eigenvalues --   -0.47879  -0.47278  -0.45991  -0.45791  -0.45466
 Alpha  occ. eigenvalues --   -0.45205  -0.44398  -0.44060  -0.42737  -0.42657
 Alpha  occ. eigenvalues --   -0.42461  -0.42412  -0.40956  -0.40856  -0.39485
 Alpha  occ. eigenvalues --   -0.39316  -0.38606  -0.38016  -0.37611  -0.37471
 Alpha  occ. eigenvalues --   -0.37016  -0.35100  -0.34118  -0.26996
 Alpha virt. eigenvalues --   -0.00402   0.01833   0.05366   0.08959   0.09594
 Alpha virt. eigenvalues --    0.11143   0.11716   0.12344   0.13007   0.14228
 Alpha virt. eigenvalues --    0.15059   0.15565   0.15898   0.17293   0.17985
 Alpha virt. eigenvalues --    0.18243   0.18603   0.19637   0.19997   0.20638
 Alpha virt. eigenvalues --    0.21032   0.21202   0.21379   0.21839   0.22268
 Alpha virt. eigenvalues --    0.22962   0.23360   0.23446   0.23844   0.24497
 Alpha virt. eigenvalues --    0.24631   0.24952   0.25192   0.25404   0.26181
 Alpha virt. eigenvalues --    0.26511   0.27408   0.27465   0.28197   0.28642
 Alpha virt. eigenvalues --    0.28936   0.29379   0.29876   0.30506   0.30971
 Alpha virt. eigenvalues --    0.31228   0.31641   0.32433   0.33091   0.34118
 Alpha virt. eigenvalues --    0.34155   0.34648   0.35023   0.35525   0.36771
 Alpha virt. eigenvalues --    0.36987   0.37848   0.40100   0.42398   0.43943
 Alpha virt. eigenvalues --    0.48548   0.50378   0.51653   0.52366   0.53734
 Alpha virt. eigenvalues --    0.54427   0.55186   0.55690   0.56329   0.56692
 Alpha virt. eigenvalues --    0.57201   0.57548   0.57977   0.58926   0.59102
 Alpha virt. eigenvalues --    0.59557   0.60365   0.60844   0.61154   0.62128
 Alpha virt. eigenvalues --    0.62272   0.63465   0.63924   0.64262   0.64904
 Alpha virt. eigenvalues --    0.66037   0.66474   0.67762   0.68265   0.68885
 Alpha virt. eigenvalues --    0.69456   0.70823   0.71185   0.71344   0.72212
 Alpha virt. eigenvalues --    0.72512   0.73491   0.73826   0.74298   0.74696
 Alpha virt. eigenvalues --    0.76139   0.76997   0.77596   0.78006   0.78206
 Alpha virt. eigenvalues --    0.79150   0.80398   0.80852   0.81788   0.83948
 Alpha virt. eigenvalues --    0.84308   0.85461   0.86385   0.87083   0.87728
 Alpha virt. eigenvalues --    0.88579   0.89095   0.89928   0.90481   0.90982
 Alpha virt. eigenvalues --    0.91619   0.91725   0.92224   0.92983   0.93376
 Alpha virt. eigenvalues --    0.94206   0.94480   0.95673   0.95869   0.96397
 Alpha virt. eigenvalues --    0.97499   0.97683   0.97797   0.98855   0.99230
 Alpha virt. eigenvalues --    0.99507   1.00076   1.00134   1.00936   1.01201
 Alpha virt. eigenvalues --    1.02267   1.02724   1.03272   1.03956   1.04184
 Alpha virt. eigenvalues --    1.04807   1.05247   1.06037   1.06908   1.07867
 Alpha virt. eigenvalues --    1.09004   1.09446   1.10377   1.11173   1.11834
 Alpha virt. eigenvalues --    1.12187   1.12973   1.13704   1.15344   1.15627
 Alpha virt. eigenvalues --    1.17945   1.18050   1.18678   1.19432   1.20507
 Alpha virt. eigenvalues --    1.20706   1.22249   1.22421   1.23717   1.25118
 Alpha virt. eigenvalues --    1.25769   1.26560   1.27722   1.28593   1.29115
 Alpha virt. eigenvalues --    1.29992   1.32192   1.32712   1.33633   1.34743
 Alpha virt. eigenvalues --    1.35096   1.35374   1.35423   1.35892   1.36557
 Alpha virt. eigenvalues --    1.37465   1.38223   1.38664   1.39647   1.39968
 Alpha virt. eigenvalues --    1.41274   1.41755   1.42340   1.43189   1.43836
 Alpha virt. eigenvalues --    1.44898   1.45472   1.45854   1.47640   1.47961
 Alpha virt. eigenvalues --    1.48194   1.48628   1.48768   1.49715   1.51089
 Alpha virt. eigenvalues --    1.52432   1.52591   1.53417   1.54004   1.54747
 Alpha virt. eigenvalues --    1.56352   1.57210   1.57229   1.57736   1.58202
 Alpha virt. eigenvalues --    1.59559   1.60412   1.61624   1.62498   1.64137
 Alpha virt. eigenvalues --    1.64489   1.64807   1.65815   1.66568   1.67057
 Alpha virt. eigenvalues --    1.68729   1.69687   1.70389   1.70901   1.72089
 Alpha virt. eigenvalues --    1.72767   1.74422   1.75268   1.76092   1.76746
 Alpha virt. eigenvalues --    1.76813   1.77390   1.77651   1.78644   1.78990
 Alpha virt. eigenvalues --    1.79638   1.80108   1.80497   1.81689   1.82539
 Alpha virt. eigenvalues --    1.83244   1.83688   1.84367   1.84894   1.85417
 Alpha virt. eigenvalues --    1.85650   1.86522   1.87205   1.87681   1.87933
 Alpha virt. eigenvalues --    1.88532   1.89253   1.89619   1.90643   1.91388
 Alpha virt. eigenvalues --    1.91932   1.92525   1.92747   1.93150   1.94004
 Alpha virt. eigenvalues --    1.94168   1.94941   1.95170   1.95843   1.96140
 Alpha virt. eigenvalues --    1.96841   1.97304   1.98380   1.99062   1.99658
 Alpha virt. eigenvalues --    2.00167   2.00885   2.01391   2.02094   2.02205
 Alpha virt. eigenvalues --    2.03079   2.03384   2.04301   2.04795   2.05291
 Alpha virt. eigenvalues --    2.06318   2.06819   2.07280   2.07716   2.08271
 Alpha virt. eigenvalues --    2.08705   2.08815   2.09309   2.10227   2.11645
 Alpha virt. eigenvalues --    2.12782   2.12903   2.13253   2.14082   2.14663
 Alpha virt. eigenvalues --    2.14894   2.14990   2.15221   2.15706   2.16141
 Alpha virt. eigenvalues --    2.17442   2.17702   2.18515   2.19218   2.19474
 Alpha virt. eigenvalues --    2.20827   2.21034   2.21527   2.22537   2.23204
 Alpha virt. eigenvalues --    2.24191   2.24715   2.24981   2.25848   2.26298
 Alpha virt. eigenvalues --    2.27206   2.27849   2.29473   2.29625   2.29879
 Alpha virt. eigenvalues --    2.31101   2.31867   2.32611   2.33036   2.33152
 Alpha virt. eigenvalues --    2.33854   2.33967   2.34360   2.35018   2.35996
 Alpha virt. eigenvalues --    2.37136   2.37763   2.38038   2.38801   2.39228
 Alpha virt. eigenvalues --    2.39676   2.40658   2.41524   2.42141   2.42798
 Alpha virt. eigenvalues --    2.43073   2.43421   2.43921   2.45193   2.45576
 Alpha virt. eigenvalues --    2.46762   2.47112   2.47651   2.48487   2.49887
 Alpha virt. eigenvalues --    2.51413   2.53280   2.54305   2.54738   2.55649
 Alpha virt. eigenvalues --    2.56320   2.56884   2.57710   2.59373   2.60199
 Alpha virt. eigenvalues --    2.60537   2.62047   2.63355   2.64735   2.64955
 Alpha virt. eigenvalues --    2.65743   2.67066   2.68543   2.68816   2.69428
 Alpha virt. eigenvalues --    2.71690   2.72186   2.73335   2.74121   2.74685
 Alpha virt. eigenvalues --    2.76330   2.76623   2.76763   2.77577   2.77759
 Alpha virt. eigenvalues --    2.79168   2.79668   2.79753   2.80317   2.81195
 Alpha virt. eigenvalues --    2.82645   2.83008   2.83445   2.84403   2.85526
 Alpha virt. eigenvalues --    2.85903   2.86625   2.87592   2.88617   2.89624
 Alpha virt. eigenvalues --    2.90961   2.91430   2.92769   2.93141   2.94750
 Alpha virt. eigenvalues --    2.94908   2.95625   2.96187   2.96674   2.97032
 Alpha virt. eigenvalues --    2.97716   2.98401   2.98959   2.99260   2.99616
 Alpha virt. eigenvalues --    3.00109   3.00368   3.00822   3.01848   3.02267
 Alpha virt. eigenvalues --    3.04425   3.07056   3.07620   3.08012   3.08957
 Alpha virt. eigenvalues --    3.09408   3.11881   3.12287   3.16336   3.18393
 Alpha virt. eigenvalues --    3.19185   3.21800   3.23879   3.26487   3.26937
 Alpha virt. eigenvalues --    3.27105   3.27746   3.32160   3.34118   3.34462
 Alpha virt. eigenvalues --    3.35356   3.36420   3.37858   3.38816   3.39442
 Alpha virt. eigenvalues --    3.41209   3.42870   3.43976   3.46731   3.47583
 Alpha virt. eigenvalues --    3.48288   3.50781   3.53254   3.53438   3.55977
 Alpha virt. eigenvalues --    3.56636   3.58359   3.61487   3.62537   3.63766
 Alpha virt. eigenvalues --    3.65295   3.67311   4.02852   4.11085   4.15602
 Alpha virt. eigenvalues --    4.23462   4.29814   4.31737   4.37470   4.39507
 Alpha virt. eigenvalues --    4.39980   4.40602   4.49405   4.50209   4.53102
 Alpha virt. eigenvalues --    4.53776   4.58454   4.68639   4.68754   4.70735
 Alpha virt. eigenvalues --    4.75072   4.75467   4.75952   4.81243   4.83003
 Alpha virt. eigenvalues --    4.93374   4.95717   5.09715   5.18686   5.27421
 Alpha virt. eigenvalues --    5.39085   5.68913   5.78488   6.08740   6.61082
 Alpha virt. eigenvalues --    6.89973
          Condensed to atoms (all electrons):
 Mulliken charges:
               1
     1  F   -0.251584
     2  C    0.759721
     3  F   -0.248897
     4  C    0.538610
     5  F   -0.254404
     6  F   -0.257339
     7  C    0.159562
     8  F   -0.295461
     9  C    0.584491
    10  F   -0.245647
    11  C    0.580252
    12  O   -0.482515
    13  O   -0.452859
    14  F   -0.276085
    15  C    0.516317
    16  F   -0.273317
    17  C    0.560704
    18  F   -0.287058
    19  C    0.541805
    20  N   -0.537587
    21  C   -0.056333
    22  C   -0.050643
    23  N   -0.438520
    24  C   -0.032368
    25  C   -0.198970
    26  C   -0.163121
    27  C   -0.320643
    28  C   -0.023236
    29  C   -0.187908
    30  C   -0.184167
    31  C   -0.318742
    32  O   -0.520640
    33  F   -0.258722
    34  O   -0.508315
    35  H    0.359884
    36  H    0.290619
    37  H    0.134701
    38  H    0.121387
    39  H    0.124247
    40  H    0.102349
    41  H    0.072949
    42  H    0.110152
    43  H    0.090699
    44  H    0.094983
    45  H    0.102177
    46  H    0.088439
    47  H    0.111398
    48  H    0.098936
    49  H    0.099352
    50  H    0.072010
    51  H    0.108358
    52  H    0.086144
    53  H    0.106819
    54  H    0.097400
    55  H    0.092983
    56  H    0.104132
    57  H    0.107015
    58  H    0.106484
 Sum of Mulliken charges =   0.00000
 Mulliken charges with hydrogens summed into heavy atoms:
               1
     1  F   -0.251584
     2  C    0.759721
     3  F   -0.248897
     4  C    0.538610
     5  F   -0.254404
     6  F   -0.257339
     7  C    0.159562
     8  F   -0.295461
     9  C    0.584491
    10  F   -0.245647
    11  C    0.580252
    12  O   -0.122631
    13  O   -0.452859
    14  F   -0.276085
    15  C    0.516317
    16  F   -0.273317
    17  C    0.560704
    18  F   -0.287058
    19  C    0.541805
    20  N   -0.246968
    21  C    0.199756
    22  C    0.175952
    23  N   -0.438520
    24  C    0.150733
    25  C   -0.013287
    26  C    0.027495
    27  C   -0.010957
    28  C    0.157132
    29  C    0.005055
    30  C    0.006217
    31  C   -0.001111
    32  O   -0.520640
    33  F   -0.258722
    34  O   -0.508315
 Electronic spatial extent (au):  <R**2>=          25000.1884
 Charge=              0.0000 electrons
 Dipole moment (field-independent basis, Debye):
    X=             -3.5174    Y=              4.5026    Z=              0.5511  Tot=              5.7401
 Quadrupole moment (field-independent basis, Debye-Ang):
   XX=           -213.6307   YY=           -198.5711   ZZ=           -197.8059
   XY=              5.3575   XZ=              0.4114   YZ=             -4.6392
 Traceless Quadrupole moment (field-independent basis, Debye-Ang):
   XX=            -10.2948   YY=              4.7648   ZZ=              5.5300
   XY=              5.3575   XZ=              0.4114   YZ=             -4.6392
 Octapole moment (field-independent basis, Debye-Ang**2):
  XXX=          -1044.6280  YYY=            255.4118  ZZZ=           -160.0010  XYY=           -340.6881
  XXY=            108.2131  XXZ=            -65.5271  XZZ=           -353.4337  YZZ=            103.9797
  YYZ=            -46.3652  XYZ=            -29.1774
 Hexadecapole moment (field-independent basis, Debye-Ang**3):
 XXXX=         -22942.9818 YYYY=          -3751.6013 ZZZZ=          -3122.7432 XXXY=           2379.2923
 XXXZ=          -1470.4377 YYYX=           2360.6148 YYYZ=           -186.5211 ZZZX=          -1378.1804
 ZZZY=           -234.5125 XXYY=          -4411.3573 XXZZ=          -4384.7557 YYZZ=          -1137.8411
 XXYZ=           -156.2505 YYXZ=           -443.7623 ZZXY=            870.5548
 N-N= 4.369248585849D+03 E-N=-1.370019232118D+04  KE= 2.092091730671D+03
 No NMR shielding tensors so no spin-rotation constants.
 Leave Link  601 at Tue Feb  4 08:05:29 2025, MaxMem=  5368709120 cpu:         7.6
 (Enter /home/k0335/k033513/app/g09/l701.exe)
 Compute integral first derivatives.
 ... and contract with generalized density number  0.
 D1PCM: PCM CHGder 1st derivatives, ID1Alg=3 FixD1E=F DoIter=F DoCFld=F I1PDM=0.
 GePol: Maximum number of non-zero 1st derivatives   =     211
 Leave Link  701 at Tue Feb  4 08:05:31 2025, MaxMem=  5368709120 cpu:        37.9
 (Enter /home/k0335/k033513/app/g09/l702.exe)
 L702 exits ... SP integral derivatives will be done elsewhere.
 Leave Link  702 at Tue Feb  4 08:05:31 2025, MaxMem=  5368709120 cpu:         0.2
 (Enter /home/k0335/k033513/app/g09/l703.exe)
 Compute integral first derivatives, UseDBF=F ICtDFT=           0.
 Integral derivatives from FoFJK, PRISM(SPDF).
 Calling FoFJK, ICntrl=      2127 FMM=F ISym2X=0 I1Cent= 0 IOpClX= 0 NMat=1 NMatS=1 NMatT=0.
 FoFJK:  IHMeth= 1 ICntrl=    2127 DoSepK=T KAlg= 0 I1Cent=   0 FoldK=F
 IRaf=         1 NMat=   1 IRICut=       1 DoRegI=T DoRafI=F ISym2E= 0.
 FoFCou: FMM=F IPFlag=           0 FMFlag=      100000 FMFlg1=         800
         NFxFlg=           0 DoJE=F BraDBF=F KetDBF=F FulRan=T
         wScrn=  0.000000 ICntrl=    2527 IOpCl=  0 I1Cent=           0 NGrid=           0
         NMat0=    1 NMatS0=      1 NMatT0=    0 NMatD0=    1 NMtDS0=    0 NMtDT0=    0
 Symmetry not used in FoFCou.
 Leave Link  703 at Tue Feb  4 08:05:45 2025, MaxMem=  5368709120 cpu:       331.1
 (Enter /home/k0335/k033513/app/g09/l716.exe)
 Dipole        =-1.38384706D+00 1.77146210D+00 2.16828605D-01
 -------------------------------------------------------------------
 Center     Atomic                   Forces (Hartrees/Bohr)
 Number     Number              X              Y              Z
[...]
     28          6           0       -3.081558    1.927170    0.027720
     29          6           0       -3.612687    2.157929    1.440106
     30          6           0       -4.474926    3.417447    1.568100
     31          6           0       -5.802488    3.354082    0.815542
     32          8           0        1.890389   -0.477939   -0.341559
     33          9           0        2.956422   -1.188839    2.352355
     34          8           0        5.546410   -0.027129    1.871472
     35          1           0        3.390159   -0.755683   -3.161320
     36          1           0        1.386178    1.636691    1.936583
     37          1           0        0.223660    1.395732   -0.739448
     38          1           0       -0.287232    2.504316    0.539056
     39          1           0       -0.809248   -0.516015    0.528649
     40          1           0       -1.426520    0.611481    1.721474
     41          1           0       -1.880781    1.145001   -2.153721
     42          1           0       -1.387844   -0.443973   -1.591502
     43          1           0       -4.263256    0.419302   -2.174499
     44          1           0       -3.237932   -0.541024   -3.217656
     45          1           0       -4.141388   -1.364759   -0.416009
     46          1           0       -4.924972   -1.871336   -1.905032
     47          1           0       -2.048707   -2.583851   -1.081584
     48          1           0       -2.785071   -3.019154   -2.625318
     49          1           0       -3.431429   -3.673119   -1.116979
     50          1           0       -2.460787    2.792396   -0.274478
     51          1           0       -3.926160    1.914260   -0.664995
     52          1           0       -2.777529    2.239292    2.144514
     53          1           0       -4.190174    1.276545    1.742448
     54          1           0       -4.678331    3.590430    2.630345
     55          1           0       -3.900255    4.287537    1.226055
     56          1           0       -6.402551    4.248070    1.005327
     57          1           0       -6.389948    2.485830    1.130654
     58          1           0       -5.661043    3.282241   -0.266266
 ---------------------------------------------------------------------
 Rotational constants (GHZ):      0.2275953      0.0580130      0.0511362
 Leave Link  202 at Tue Feb  4 08:38:02 2025, MaxMem=  5368709120 cpu:         0.1
 (Enter /home/k0335/k033513/app/g09/l601.exe)
 Copying SCF densities to generalized density rwf, IOpCl= 0 IROHF=0.

 **********************************************************************

            Population analysis using the SCF density.

 **********************************************************************

 Alpha  occ. eigenvalues --  -24.82329 -24.82281 -24.82042 -24.82012 -24.81931
 Alpha  occ. eigenvalues --  -24.81702 -24.81586 -24.81127 -24.80952 -24.80681
 Alpha  occ. eigenvalues --  -19.30835 -19.29001 -19.23154 -19.22590 -14.46698
 Alpha  occ. eigenvalues --  -14.39619 -10.51394 -10.47383 -10.47108 -10.46907
 Alpha  occ. eigenvalues --  -10.46530 -10.42281 -10.41518 -10.40117 -10.30705
 Alpha  occ. eigenvalues --  -10.28667 -10.27897 -10.27578 -10.25566 -10.25299
 Alpha  occ. eigenvalues --  -10.24640 -10.24637 -10.24194 -10.23638  -1.39984
 Alpha  occ. eigenvalues --   -1.38094  -1.37590  -1.36570  -1.35242  -1.33032
 Alpha  occ. eigenvalues --   -1.32062  -1.31517  -1.31050  -1.30115  -1.21320
 Alpha  occ. eigenvalues --   -1.21043  -1.15667  -1.12122  -1.04098  -1.00617
 Alpha  occ. eigenvalues --   -0.93706  -0.89763  -0.88016  -0.87065  -0.85864
 Alpha  occ. eigenvalues --   -0.84599  -0.81625  -0.80311  -0.78281  -0.76993
 Alpha  occ. eigenvalues --   -0.75336  -0.74052  -0.72266  -0.71827  -0.70443
 Alpha  occ. eigenvalues --   -0.69701  -0.69203  -0.68662  -0.67816  -0.67211
 Alpha  occ. eigenvalues --   -0.66820  -0.66055  -0.65646  -0.64878  -0.64490
 Alpha  occ. eigenvalues --   -0.64279  -0.64017  -0.62330  -0.62211  -0.61354
 Alpha  occ. eigenvalues --   -0.58194  -0.57308  -0.56495  -0.56288  -0.55986
 Alpha  occ. eigenvalues --   -0.55367  -0.54910  -0.54613  -0.54298  -0.53945
 Alpha  occ. eigenvalues --   -0.53531  -0.53360  -0.52751  -0.52610  -0.52356
 Alpha  occ. eigenvalues --   -0.52184  -0.51856  -0.51418  -0.51121  -0.50973
 Alpha  occ. eigenvalues --   -0.50842  -0.50449  -0.50086  -0.49908  -0.49818
 Alpha  occ. eigenvalues --   -0.49247  -0.49007  -0.48675  -0.48446  -0.47979
 Alpha  occ. eigenvalues --   -0.47581  -0.46969  -0.46399  -0.45826  -0.45013
 Alpha  occ. eigenvalues --   -0.44646  -0.43813  -0.43659  -0.42732  -0.42571
 Alpha  occ. eigenvalues --   -0.42329  -0.41239  -0.41088  -0.40066  -0.39560
 Alpha  occ. eigenvalues --   -0.39162  -0.38409  -0.37973  -0.37655  -0.37167
 Alpha  occ. eigenvalues --   -0.36098  -0.35773  -0.35045  -0.26696
 Alpha virt. eigenvalues --    0.02704   0.03905   0.06883   0.10631   0.11579
 Alpha virt. eigenvalues --    0.12366   0.12666   0.13040   0.14173   0.14840
 Alpha virt. eigenvalues --    0.15341   0.15630   0.16940   0.17273   0.18089
 Alpha virt. eigenvalues --    0.18520   0.19320   0.20099   0.20583   0.21043
 Alpha virt. eigenvalues --    0.21331   0.21398   0.21637   0.22084   0.22834
 Alpha virt. eigenvalues --    0.23325   0.23565   0.24180   0.24602   0.24980
 Alpha virt. eigenvalues --    0.25303   0.25597   0.26069   0.26460   0.26613
 Alpha virt. eigenvalues --    0.27452   0.27578   0.28192   0.28874   0.29280
 Alpha virt. eigenvalues --    0.29534   0.29972   0.30362   0.30938   0.31365
 Alpha virt. eigenvalues --    0.32419   0.32552   0.33572   0.34319   0.34441
 Alpha virt. eigenvalues --    0.34968   0.35729   0.36410   0.36564   0.37020
 Alpha virt. eigenvalues --    0.37215   0.39027   0.40293   0.44437   0.46218
 Alpha virt. eigenvalues --    0.49416   0.51322   0.51764   0.52832   0.54167
 Alpha virt. eigenvalues --    0.54255   0.55518   0.56168   0.56555   0.56702
 Alpha virt. eigenvalues --    0.57243   0.57743   0.58408   0.59240   0.59552
 Alpha virt. eigenvalues --    0.59916   0.60172   0.60627   0.61697   0.62963
 Alpha virt. eigenvalues --    0.63527   0.64170   0.64445   0.65248   0.65659
 Alpha virt. eigenvalues --    0.66254   0.67402   0.67917   0.69121   0.69702
 Alpha virt. eigenvalues --    0.70207   0.70841   0.71609   0.72330   0.72906
 Alpha virt. eigenvalues --    0.73510   0.73934   0.74228   0.74750   0.75335
 Alpha virt. eigenvalues --    0.75474   0.76503   0.77090   0.77885   0.78346
 Alpha virt. eigenvalues --    0.79412   0.79925   0.80332   0.80935   0.82799
 Alpha virt. eigenvalues --    0.85950   0.86371   0.86768   0.87126   0.88161
 Alpha virt. eigenvalues --    0.88500   0.88716   0.90138   0.91036   0.91382
 Alpha virt. eigenvalues --    0.91531   0.91817   0.92337   0.92833   0.93511
 Alpha virt. eigenvalues --    0.94142   0.94756   0.95239   0.95487   0.96037
 Alpha virt. eigenvalues --    0.96986   0.97336   0.97776   0.98370   0.98921
 Alpha virt. eigenvalues --    0.99635   1.00013   1.00422   1.01370   1.02156
 Alpha virt. eigenvalues --    1.02844   1.03089   1.03488   1.04469   1.04792
 Alpha virt. eigenvalues --    1.05370   1.05953   1.07601   1.08213   1.08975
 Alpha virt. eigenvalues --    1.09693   1.10839   1.11292   1.12199   1.12494
 Alpha virt. eigenvalues --    1.13548   1.14703   1.15400   1.15725   1.16230
 Alpha virt. eigenvalues --    1.16856   1.17745   1.18490   1.18875   1.19421
 Alpha virt. eigenvalues --    1.20606   1.21868   1.22561   1.22818   1.23561
 Alpha virt. eigenvalues --    1.26544   1.27362   1.27835   1.29557   1.31594
 Alpha virt. eigenvalues --    1.32563   1.32908   1.33810   1.34303   1.34744
 Alpha virt. eigenvalues --    1.34841   1.35453   1.37111   1.38161   1.38884
 Alpha virt. eigenvalues --    1.39358   1.39754   1.40179   1.41167   1.41414
 Alpha virt. eigenvalues --    1.41619   1.42608   1.43485   1.43798   1.44513
 Alpha virt. eigenvalues --    1.45265   1.45772   1.46410   1.47525   1.48020
 Alpha virt. eigenvalues --    1.48369   1.49529   1.50510   1.51194   1.51668
 Alpha virt. eigenvalues --    1.52816   1.53344   1.54230   1.54344   1.55841
 Alpha virt. eigenvalues --    1.56834   1.57123   1.57608   1.57726   1.58198
 Alpha virt. eigenvalues --    1.58575   1.61071   1.61591   1.61946   1.63280
 Alpha virt. eigenvalues --    1.64148   1.64537   1.65353   1.65970   1.66791
 Alpha virt. eigenvalues --    1.67716   1.68190   1.70262   1.71692   1.72299
 Alpha virt. eigenvalues --    1.73032   1.73484   1.74610   1.75211   1.75475
 Alpha virt. eigenvalues --    1.76182   1.76584   1.76684   1.77860   1.77920
 Alpha virt. eigenvalues --    1.78585   1.79140   1.81085   1.81765   1.82472
 Alpha virt. eigenvalues --    1.82922   1.84228   1.84622   1.85697   1.85845
 Alpha virt. eigenvalues --    1.86681   1.87189   1.87984   1.88557   1.88841
 Alpha virt. eigenvalues --    1.89164   1.89373   1.89875   1.90424   1.90998
 Alpha virt. eigenvalues --    1.91566   1.92619   1.93144   1.93353   1.93713
 Alpha virt. eigenvalues --    1.94069   1.95482   1.95754   1.96462   1.97348
 Alpha virt. eigenvalues --    1.97737   1.98556   1.98927   1.99208   2.00157
 Alpha virt. eigenvalues --    2.00291   2.00765   2.01191   2.02792   2.03034
 Alpha virt. eigenvalues --    2.03146   2.04345   2.04822   2.05752   2.05816
 Alpha virt. eigenvalues --    2.06929   2.07386   2.07521   2.07662   2.08794
 Alpha virt. eigenvalues --    2.09046   2.09798   2.10113   2.11336   2.11697
 Alpha virt. eigenvalues --    2.12144   2.13196   2.13782   2.14373   2.14733
 Alpha virt. eigenvalues --    2.15629   2.16146   2.16819   2.16835   2.17769
 Alpha virt. eigenvalues --    2.18151   2.18516   2.19817   2.20317   2.20666
 Alpha virt. eigenvalues --    2.21766   2.22067   2.23194   2.23739   2.24383
 Alpha virt. eigenvalues --    2.24532   2.25009   2.26201   2.26328   2.27331
 Alpha virt. eigenvalues --    2.27973   2.29121   2.29500   2.30046   2.31172
 Alpha virt. eigenvalues --    2.31377   2.32226   2.32889   2.33335   2.33962
 Alpha virt. eigenvalues --    2.34555   2.35142   2.35677   2.36000   2.36256
 Alpha virt. eigenvalues --    2.37050   2.37400   2.37882   2.38721   2.39444
 Alpha virt. eigenvalues --    2.40843   2.41540   2.41835   2.43146   2.43567
 Alpha virt. eigenvalues --    2.43926   2.44603   2.44770   2.46576   2.47013
 Alpha virt. eigenvalues --    2.48589   2.49712   2.49807   2.50919   2.51494
 Alpha virt. eigenvalues --    2.53009   2.54510   2.55114   2.55380   2.57315
 Alpha virt. eigenvalues --    2.57585   2.57984   2.59582   2.60788   2.61028
 Alpha virt. eigenvalues --    2.62694   2.63775   2.64023   2.64361   2.65738
 Alpha virt. eigenvalues --    2.67721   2.68504   2.69008   2.70285   2.70927
 Alpha virt. eigenvalues --    2.71975   2.73520   2.74324   2.74795   2.75772
 Alpha virt. eigenvalues --    2.76814   2.77736   2.77993   2.78581   2.79446
 Alpha virt. eigenvalues --    2.79537   2.80191   2.80661   2.81607   2.82338
 Alpha virt. eigenvalues --    2.82743   2.83176   2.85472   2.85900   2.86435
 Alpha virt. eigenvalues --    2.87061   2.88813   2.89435   2.89868   2.90673
 Alpha virt. eigenvalues --    2.91895   2.92427   2.93425   2.95360   2.95815
 Alpha virt. eigenvalues --    2.96166   2.96521   2.96816   2.97421   2.97884
 Alpha virt. eigenvalues --    2.98506   2.99303   3.00056   3.00214   3.00864
 Alpha virt. eigenvalues --    3.01060   3.01415   3.01973   3.02243   3.05749
 Alpha virt. eigenvalues --    3.07591   3.08842   3.09782   3.10740   3.10935
 Alpha virt. eigenvalues --    3.12289   3.13057   3.14915   3.17658   3.19716
 Alpha virt. eigenvalues --    3.20184   3.21634   3.22692   3.24289   3.25319
 Alpha virt. eigenvalues --    3.27003   3.27942   3.28186   3.32872   3.33740
 Alpha virt. eigenvalues --    3.34713   3.38156   3.38813   3.39612   3.40078
 Alpha virt. eigenvalues --    3.41749   3.42652   3.45623   3.46431   3.47085
 Alpha virt. eigenvalues --    3.49959   3.52518   3.53639   3.54114   3.55731
 Alpha virt. eigenvalues --    3.56683   3.57609   3.62202   3.62922   3.64853
 Alpha virt. eigenvalues --    3.66689   3.67967   4.08784   4.13099   4.13883
 Alpha virt. eigenvalues --    4.20950   4.24690   4.32580   4.37286   4.39921
 Alpha virt. eigenvalues --    4.40353   4.44760   4.48686   4.50345   4.53582
 Alpha virt. eigenvalues --    4.55917   4.58922   4.66932   4.68631   4.70047
 Alpha virt. eigenvalues --    4.71721   4.75364   4.77122   4.80644   4.82515
 Alpha virt. eigenvalues --    4.85720   4.94016   5.08693   5.12306   5.23536
 Alpha virt. eigenvalues --    5.47094   5.73255   5.74313   5.94573   6.41942
 Alpha virt. eigenvalues --    6.46176
          Condensed to atoms (all electrons):
 Mulliken charges:
               1
     1  F   -0.245296
     2  C    0.756990
     3  F   -0.245766
     4  C    0.513192
     5  F   -0.256803
     6  F   -0.253364
     7  C    0.155763
     8  F   -0.298012
     9  C    0.575839
    10  F   -0.258295
    11  C    0.600772
    12  O   -0.481102
    13  O   -0.452826
    14  F   -0.282474
    15  C    0.523333
    16  F   -0.268609
    17  C    0.547778
    18  F   -0.283497
    19  C    0.581457
    20  N   -0.543276
    21  C   -0.067347
    22  C   -0.052429
    23  N   -0.424001
    24  C   -0.049198
    25  C   -0.179574
    26  C   -0.168820
    27  C   -0.322639
    28  C   -0.022593
    29  C   -0.184668
    30  C   -0.184241
    31  C   -0.319871
    32  O   -0.538512
    33  F   -0.262810
    34  O   -0.506145
    35  H    0.349253
    36  H    0.298480
    37  H    0.145193
    38  H    0.123911
    39  H    0.128161
    40  H    0.105125
    41  H    0.074807
    42  H    0.113421
    43  H    0.089916
    44  H    0.090312
    45  H    0.105000
    46  H    0.087572
    47  H    0.110627
    48  H    0.101080
    49  H    0.101068
    50  H    0.068261
    51  H    0.103455
    52  H    0.087440
    53  H    0.105660
    54  H    0.097697
    55  H    0.092321
    56  H    0.104847
    57  H    0.107375
    58  H    0.106064
 Sum of Mulliken charges =   0.00000
 Mulliken charges with hydrogens summed into heavy atoms:
               1
     1  F   -0.245296
     2  C    0.756990
     3  F   -0.245766
     4  C    0.513192
     5  F   -0.256803
     6  F   -0.253364
     7  C    0.155763
     8  F   -0.298012
     9  C    0.575839
    10  F   -0.258295
    11  C    0.600772
    12  O   -0.131849
    13  O   -0.452826
    14  F   -0.282474
    15  C    0.523333
    16  F   -0.268609
    17  C    0.547778
    18  F   -0.283497
    19  C    0.581457
    20  N   -0.244796
    21  C    0.201756
    22  C    0.180856
    23  N   -0.424001
    24  C    0.139030
    25  C    0.000653
    26  C    0.023752
    27  C   -0.009864
    28  C    0.149124
    29  C    0.008433
    30  C    0.005777
    31  C   -0.001584
    32  O   -0.538512
    33  F   -0.262810
    34  O   -0.506145
 Electronic spatial extent (au):  <R**2>=          24199.6111
 Charge=              0.0000 electrons
 Dipole moment (field-independent basis, Debye):
    X=             -3.4442    Y=              5.5369    Z=              0.2040  Tot=              6.5239
 Quadrupole moment (field-independent basis, Debye-Ang):
   XX=           -213.1335   YY=           -199.9610   ZZ=           -186.9514
   XY=              5.0536   XZ=             -6.0307   YZ=             -0.3614
 Traceless Quadrupole moment (field-independent basis, Debye-Ang):
   XX=            -13.1182   YY=              0.0543   ZZ=             13.0639
   XY=              5.0536   XZ=             -6.0307   YZ=             -0.3614
 Octapole moment (field-independent basis, Debye-Ang**2):
  XXX=          -1030.2701  YYY=            303.1039  ZZZ=           -203.3858  XYY=           -329.4164
  XXY=            116.6410  XXZ=            -90.2345  XZZ=           -288.9623  YZZ=            101.4400
  YYZ=            -33.5064  XYZ=             -4.8197
 Hexadecapole moment (field-independent basis, Debye-Ang**3):
 XXXX=         -21594.9189 YYYY=          -4542.5665 ZZZZ=          -2775.4027 XXXY=           2898.6108
 XXXZ=          -1472.8270 YYYX=           2925.8164 YYYZ=           -392.7208 ZZZX=          -1454.7005
 ZZZY=           -338.5233 XXYY=          -4255.5214 XXZZ=          -3911.0450 YYZZ=          -1251.3830
 XXYZ=           -109.5135 YYXZ=           -409.7778 ZZXY=            956.1425
 N-N= 4.372319966512D+03 E-N=-1.370784889988D+04  KE= 2.092618852143D+03
 No NMR shielding tensors so no spin-rotation constants.
 Leave Link  601 at Tue Feb  4 08:38:02 2025, MaxMem=  5368709120 cpu:         3.5
 (Enter /home/k0335/k033513/app/g09/l9999.exe)
 1\1\GINC-C18U06N1\FOpt\RCAM-B3LYP\6-31G(d,p)\C18H24F10N2O4\K033513\04-
 Feb-2025\0\\#p CAM-B3LYP/6-31G(d,p) opt SCRF=(PCM,Solvent=Generic,Read
 ) NoSymm out=wfn\\Title DBE0_neu\\0,1\F,7.6048429287,-0.8414923712,1.6
 00261412\C,6.3815100989,-1.101265862,2.0775330956\F,6.4903494407,-1.32
 88211198,3.387820667\C,5.7467726558,-2.2935098333,1.335086736\F,4.9382
 17667,-2.9614724158,2.1747220738\F,6.6785358493,-3.1231158541,0.860810
 1319\C,4.9554117511,-1.5882480458,0.2142134605\F,5.9181216657,-1.24602
 87877,-0.7020139992\C,3.9532256237,-2.5088428955,-0.5036497613\F,3.002
 2716192,-2.9109326785,0.3536882232\C,3.282954044,-2.0328898626,-1.8078
 894954\O,3.8672274542,-0.9660799681,-2.3415840426\O,2.3894307489,-2.66
 59749089,-2.2948978584\F,4.6808680881,-3.6067191286,-0.8571875499\C,4.
 5545525703,-0.2403251836,0.8961395553\F,4.6300401088,0.7614707337,-0.0
 085724649\C,3.1961870338,-0.0806838455,1.6177629595\F,3.3298370794,0.9
 57523188,2.4839765161\C,2.0134885863,0.1866250296,0.6768786023\N,1.178
 24708,1.1486304223,1.0785677617\C,-0.0243883407,1.467594099,0.32157970
 78\C,-1.1775986766,0.5053229208,0.6615654462\N,-2.3790163041,0.6595177
 731,-0.137252988\C,-2.2018082771,0.2852015076,-1.5401749809\C,-3.45903
 84746,-0.3250821874,-2.1647298851\C,-3.9580260182,-1.5936196319,-1.470
 581818\C,-3.0026111642,-2.7797124218,-1.5791519656\C,-3.0815583545,1.9
 271696473,0.0277204233\C,-3.6126869934,2.1579289641,1.4401061738\C,-4.
 474926285,3.4174472743,1.5681004302\C,-5.8024881246,3.3540816177,0.815
 5424487\O,1.8903888771,-0.4779390971,-0.3415586815\F,2.9564216333,-1.1
 888389704,2.3523551449\O,5.546410497,-0.0271285318,1.871471531\H,3.390
 1587746,-0.7556832367,-3.1613199331\H,1.3861780825,1.6366911443,1.9365
 827124\H,0.2236598367,1.3957318993,-0.7394480948\H,-0.2872316179,2.504
 3156267,0.5390558124\H,-0.8092484957,-0.5160152418,0.5286490647\H,-1.4
 265204673,0.611480518,1.7214740281\H,-1.8807814487,1.1450014712,-2.153
 7214257\H,-1.3878442632,-0.4439728086,-1.5915015698\H,-4.263256235,0.4
 193024984,-2.1744986107\H,-3.2379322185,-0.5410240553,-3.2176555876\H,
 -4.1413881812,-1.3647590121,-0.4160086836\H,-4.9249716359,-1.871336302
 4,-1.9050324784\H,-2.0487072594,-2.5838511149,-1.0815843636\H,-2.78507
 05996,-3.0191535932,-2.6253183893\H,-3.4314287247,-3.6731192333,-1.116
 97885\H,-2.4607872171,2.7923961293,-0.274477767\H,-3.9261596167,1.9142
 604628,-0.6649953297\H,-2.7775289369,2.2392919144,2.1445135429\H,-4.19
 01735155,1.276545155,1.7424484953\H,-4.6783313837,3.5904300455,2.63034
 49737\H,-3.9002552226,4.2875370578,1.2260545616\H,-6.4025510292,4.2480
 697541,1.0053271485\H,-6.3899480414,2.4858301169,1.1306540283\H,-5.661
 042672,3.2822412282,-0.2662662945\\Version=ES64L-G09RevD.01\HF=-2108.4
 523491\RMSD=4.953e-09\RMSF=1.985e-06\Dipole=-1.3550687,2.1783647,0.080
 271\Quadrupole=-9.7530347,0.0403343,9.7127004,3.7572156,-4.4836903,-0.
 2686571\PG=C01 [X(C18H24F10N2O4)]\\@

 Writing a WFN file to "cytopopt/DBE0/DBE0_neu.wfn"


 We make a living by what we get,
 we make a life by what we give.
                   -- Sir Winston Churchill
 Job cpu time:       0 days 12 hours 34 minutes  5.4 seconds.
 File lengths (MBytes):  RWF=    757 Int=      0 D2E=      0 Chk=     33 Scr=      1
 Normal termination of Gaussian 09 at Tue Feb  4 08:38:03 2025.
