 Entering Gaussian System, Link 0=g09
 Initial command:
 /home/k0335/k033513/app/g09/l1.exe "/home/k0335/k033513/app/g09/scratch/Gau-195709.inp" -scrdir="/home/k0335/k033513/app/g09/scratch/"
 Default is to use a total of  36 processors:
                               36 via shared-memory
                                1 via Linda
 Entering Link 1 = /home/k0335/k033513/app/g09/l1.exe PID=    195710.
  
 Copyright (c) 1988,1990,1992,1993,1995,1998,2003,2009,2013,
            Gaussian, Inc.  All Rights Reserved.
  
 This is part of the Gaussian(R) 09 program.  It is based on
 the Gaussian(R) 03 system (copyright 2003, Gaussian, Inc.),
 the Gaussian(R) 98 system (copyright 1998, Gaussian, Inc.),
 the Gaussian(R) 94 system (copyright 1995, Gaussian, Inc.),
 the Gaussian 92(TM) system (copyright 1992, Gaussian, Inc.),
 the Gaussian 90(TM) system (copyright 1990, Gaussian, Inc.),
 the Gaussian 88(TM) system (copyright 1988, Gaussian, Inc.),
 the Gaussian 86(TM) system (copyright 1986, Carnegie Mellon
 University), and the Gaussian 82(TM) system (copyright 1983,
 Carnegie Mellon University). Gaussian is a federally registered
 trademark of Gaussian, Inc.
  
 This software contains proprietary and confidential information,
 including trade secrets, belonging to Gaussian, Inc.
  
 This software is provided under written license and may be
 used, copied, transmitted, or stored only in accord with that
 written license.
  
 The following legend is applicable only to US Government
 contracts under FAR:
  
                    RESTRICTED RIGHTS LEGEND
  
 Use, reproduction and disclosure by the US Government is
 subject to restrictions as set forth in subparagraphs (a)
 and (c) of the Commercial Computer Software - Restricted
 Rights clause in FAR 52.227-19.
  
 Gaussian, Inc.
 340 Quinnipiac St., Bldg. 40, Wallingford CT 06492
  
  
 ---------------------------------------------------------------
 Warning -- This program may not be used in any manner that
 competes with the business of Gaussian, Inc. or will provide
 assistance to any competitor of Gaussian, Inc.  The licensee
 of this program is prohibited from giving any competitor of
 Gaussian, Inc. access to this program.  By using this program,
 the user acknowledges that Gaussian, Inc. is engaged in the
 business of creating and licensing software in the field of
 computational chemistry and represents and warrants to the
 licensee that it is not a competitor of Gaussian, Inc. and that
 it will not use this program in any manner prohibited above.
 ---------------------------------------------------------------
  

 Cite this work as:
 Gaussian 09, Revision D.01,
 M. J. Frisch, G. W. Trucks, H. B. Schlegel, G. E. Scuseria, 
 M. A. Robb, J. R. Cheeseman, G. Scalmani, V. Barone, B. Mennucci, 
 G. A. Petersson, H. Nakatsuji, M. Caricato, X. Li, H. P. Hratchian, 
 A. F. Izmaylov, J. Bloino, G. Zheng, J. L. Sonnenberg, M. Hada, 
 M. Ehara, K. Toyota, R. Fukuda, J. Hasegawa, M. Ishida, T. Nakajima, 
 Y. Honda, O. Kitao, H. Nakai, T. Vreven, J. A. Montgomery, Jr., 
 J. E. Peralta, F. Ogliaro, M. Bearpark, J. J. Heyd, E. Brothers, 
 K. N. Kudin, V. N. Staroverov, T. Keith, R. Kobayashi, J. Normand, 
 K. Raghavachari, A. Rendell, J. C. Burant, S. S. Iyengar, J. Tomasi, 
 M. Cossi, N. Rega, J. M. Millam, M. Klene, J. E. Knox, J. B. Cross, 
 V. Bakken, C. Adamo, J. Jaramillo, R. Gomperts, R. E. Stratmann, 
 O. Yazyev, A. J. Austin, R. Cammi, C. Pomelli, J. W. Ochterski, 
 R. L. Martin, K. Morokuma, V. G. Zakrzewski, G. A. Voth, 
 P. Salvador, J. J. Dannenberg, S. Dapprich, A. D. Daniels, 
 O. Farkas, J. B. Foresman, J. V. Ortiz, J. Cioslowski, 
 and D. J. Fox, Gaussian, Inc., Wallingford CT, 2013.
 
 ******************************************
 Gaussian 09:  ES64L-G09RevD.01 24-Apr-2013
                 3-Mar-2024 
 ******************************************
 %nprocshared=24
 Will use up to   24 processors via shared memory.
 %mem=40GB
 %rwf=A156206681/A156206681_p1.rwf
 %nosave
 %chk=A156206681/A156206681_p1.chk
 ----------------------------------------------------------------------
 #p CAM-B3LYP/6-31G(d,p) SCRF=(PCM,Solvent=Generic,Read) NoSymm out=wfn
 ----------------------------------------------------------------------
 1/38=1,40=2/1;
 2/12=2,15=1,17=6,18=5,40=1/2;
 3/5=1,6=6,7=101,11=2,16=1,25=1,30=1,70=2203,72=-2,74=-40/1,2,3;
 4//1;
 5/5=2,38=5/2;
 6/7=2,8=2,9=2,10=2,28=1/1;
 99/5=1,6=100,9=1/99;
 Leave Link    1 at Sun Mar  3 18:16:02 2024, MaxMem=  5368709120 cpu:         1.0
 (Enter /home/k0335/k033513/app/g09/l101.exe)
 -------------------
 Title A156206681_p1
 -------------------
 Symbolic Z-matrix:
 Charge =  1 Multiplicity = 2
 C                     2.22922   1.67645   0.04772 
 C                     1.14833   0.89549  -0.13155 
 N                    -0.07044   1.41808  -0.57496 
 C                    -0.34652   2.86713  -0.70285 
 F                    -1.32589   3.0967   -1.62139 
 F                     0.74477   3.45226  -1.29433 
 C                    -0.65312   3.65035   0.6019 
 F                     0.34445   3.33555   1.50763 
 O                    -0.52701   5.07982   0.51889 
 C                    -1.25057   5.68508  -0.52192 
 F                    -1.28495   7.01138  -0.29879 
 F                    -0.63736   5.46293  -1.69357 
 F                    -2.50425   5.22406  -0.56478 
 C                    -1.96461   3.17229   1.22712 
 F                    -3.03108   3.25214   0.41458 
 F                    -1.86363   1.88593   1.64691 
 F                    -2.25656   3.90925   2.33046 
 C                    -1.15701   0.59075  -0.80302 
 O                    -2.29575   1.03823  -0.89643 
 N                    -0.89857  -0.74723  -0.91806 
 C                    -2.01437  -1.61257  -1.28151 
 F                    -1.51731  -2.75761  -1.83471 
 F                    -2.68463  -1.03415  -2.32108 
 C                    -3.00116  -1.96133  -0.1343 
 F                    -3.65853  -0.82988   0.25498 
 O                    -2.27233  -2.38663   1.02237 
 C                    -3.08715  -2.94582   2.01783 
 F                    -2.38831  -2.9884    3.16723 
 F                    -4.19131  -2.20863   2.21158 
 F                    -3.42088  -4.1983    1.66849 
 C                    -3.99794  -2.9552   -0.74739 
 F                    -3.41542  -4.13934  -1.04129 
 F                    -4.57123  -2.49498  -1.88068 
 F                    -5.01605  -3.22716   0.10519 
 C                     0.1752   -1.32458  -0.29336 
 O                     0.23017  -2.53757  -0.10206 
 N                     1.18531  -0.47427   0.13193 
 C                     2.30681  -1.17063   0.80854 
 F                     2.99175  -0.29401   1.60148 
 F                     1.78794  -2.04604   1.7144 
 C                     3.30231  -1.87339  -0.15229 
 F                     2.64884  -2.77262  -0.93872 
 O                     3.83038  -0.8823   -1.05063 
 C                     4.89852  -1.36031  -1.82797 
 F                     5.06424  -0.52722  -2.8717 
 F                     6.01761  -1.3465   -1.08658 
 F                     4.65796  -2.59523  -2.28938 
 C                     4.31064  -2.59271   0.75307 
 F                     3.73194  -3.44353   1.6258 
 F                     5.04742  -1.71287   1.47045 
 F                     5.18761  -3.33102   0.03066 
 H                     3.20559   1.32064   0.35268 
 H                     2.25692   2.74752  -0.11063 
 
 NAtoms=     53 NQM=       53 NQMF=       0 NMMI=      0 NMMIF=      0
                NMic=       0 NMicF=      0.
                    Isotopes and Nuclear Properties:
 (Nuclear quadrupole moments (NQMom) in fm**2, nuclear magnetic moments (NMagM)
  in nuclear magnetons)

  Atom         1           2           3           4           5           6           7           8           9          10
 IAtWgt=          12          12          14          12          19          19          12          19          16          12
 AtmWgt=  12.0000000  12.0000000  14.0030740  12.0000000  18.9984033  18.9984033  12.0000000  18.9984033  15.9949146  12.0000000
 NucSpn=           0           0           2           0           1           1           0           1           0           0
 AtZEff=   0.0000000   0.0000000   0.0000000   0.0000000   0.0000000   0.0000000   0.0000000   0.0000000   0.0000000   0.0000000
 NQMom=    0.0000000   0.0000000   2.0440000   0.0000000   0.0000000   0.0000000   0.0000000   0.0000000   0.0000000   0.0000000
 NMagM=    0.0000000   0.0000000   0.4037610   0.0000000   2.6288670   2.6288670   0.0000000   2.6288670   0.0000000   0.0000000
 AtZNuc=   6.0000000   6.0000000   7.0000000   6.0000000   9.0000000   9.0000000   6.0000000   9.0000000   8.0000000   6.0000000

  Atom        11          12          13          14          15          16          17          18          19          20
 IAtWgt=          19          19          19          12          19          19          19          12          16          14
 AtmWgt=  18.9984033  18.9984033  18.9984033  12.0000000  18.9984033  18.9984033  18.9984033  12.0000000  15.9949146  14.0030740
 NucSpn=           1           1           1           0           1           1           1           0           0           2
 AtZEff=   0.0000000   0.0000000   0.0000000   0.0000000   0.0000000   0.0000000   0.0000000   0.0000000   0.0000000   0.0000000
 NQMom=    0.0000000   0.0000000   0.0000000   0.0000000   0.0000000   0.0000000   0.0000000   0.0000000   0.0000000   2.0440000
 NMagM=    2.6288670   2.6288670   2.6288670   0.0000000   2.6288670   2.6288670   2.6288670   0.0000000   0.0000000   0.4037610
 AtZNuc=   9.0000000   9.0000000   9.0000000   6.0000000   9.0000000   9.0000000   9.0000000   6.0000000   8.0000000   7.0000000

  Atom        21          22          23          24          25          26          27          28          29          30
 IAtWgt=          12          19          19          12          19          16          12          19          19          19
 AtmWgt=  12.0000000  18.9984033  18.9984033  12.0000000  18.9984033  15.9949146  12.0000000  18.9984033  18.9984033  18.9984033
 NucSpn=           0           1           1           0           1           0           0           1           1           1
 AtZEff=   0.0000000   0.0000000   0.0000000   0.0000000   0.0000000   0.0000000   0.0000000   0.0000000   0.0000000   0.0000000
 NQMom=    0.0000000   0.0000000   0.0000000   0.0000000   0.0000000   0.0000000   0.0000000   0.0000000   0.0000000   0.0000000
 NMagM=    0.0000000   2.6288670   2.6288670   0.0000000   2.6288670   0.0000000   0.0000000   2.6288670   2.6288670   2.6288670
 AtZNuc=   6.0000000   9.0000000   9.0000000   6.0000000   9.0000000   8.0000000   6.0000000   9.0000000   9.0000000   9.0000000

  Atom        31          32          33          34          35          36          37          38          39          40
 IAtWgt=          12          19          19          19          12          16          14          12          19          19
 AtmWgt=  12.0000000  18.9984033  18.9984033  18.9984033  12.0000000  15.9949146  14.0030740  12.0000000  18.9984033  18.9984033
 NucSpn=           0           1           1           1           0           0           2           0           1           1
 AtZEff=   0.0000000   0.0000000   0.0000000   0.0000000   0.0000000   0.0000000   0.0000000   0.0000000   0.0000000   0.0000000
 NQMom=    0.0000000   0.0000000   0.0000000   0.0000000   0.0000000   0.0000000   2.0440000   0.0000000   0.0000000   0.0000000
 NMagM=    0.0000000   2.6288670   2.6288670   2.6288670   0.0000000   0.0000000   0.4037610   0.0000000   2.6288670   2.6288670
 AtZNuc=   6.0000000   9.0000000   9.0000000   9.0000000   6.0000000   8.0000000   7.0000000   6.0000000   9.0000000   9.0000000

  Atom        41          42          43          44          45          46          47          48          49          50
 IAtWgt=          12          19          16          12          19          19          19          12          19          19
 AtmWgt=  12.0000000  18.9984033  15.9949146  12.0000000  18.9984033  18.9984033  18.9984033  12.0000000  18.9984033  18.9984033
 NucSpn=           0           1           0           0           1           1           1           0           1           1
 AtZEff=   0.0000000   0.0000000   0.0000000   0.0000000   0.0000000   0.0000000   0.0000000   0.0000000   0.0000000   0.0000000
 NQMom=    0.0000000   0.0000000   0.0000000   0.0000000   0.0000000   0.0000000   0.0000000   0.0000000   0.0000000   0.0000000
 NMagM=    0.0000000   2.6288670   0.0000000   0.0000000   2.6288670   2.6288670   2.6288670   0.0000000   2.6288670   2.6288670
 AtZNuc=   6.0000000   9.0000000   8.0000000   6.0000000   9.0000000   9.0000000   9.0000000   6.0000000   9.0000000   9.0000000

  Atom        51          52          53
 IAtWgt=          19           1           1
 AtmWgt=  18.9984033   1.0078250   1.0078250
 NucSpn=           1           1           1
 AtZEff=   0.0000000   0.0000000   0.0000000
 NQMom=    0.0000000   0.0000000   0.0000000
 NMagM=    2.6288670   2.7928460   2.7928460
 AtZNuc=   9.0000000   1.0000000   1.0000000
 Leave Link  101 at Sun Mar  3 18:16:02 2024, MaxMem=  5368709120 cpu:         0.8
 (Enter /home/k0335/k033513/app/g09/l202.exe)
 Symmetry turned off by external request.
 Stoichiometry    C16H2F27N3O5(1+,2)
 Framework group  C1[X(C16H2F27N3O5)]
 Deg. of freedom   153
 Full point group                 C1      NOp   1
                          Input orientation:                          
 ---------------------------------------------------------------------
 Center     Atomic      Atomic             Coordinates (Angstroms)
 Number     Number       Type             X           Y           Z
 ---------------------------------------------------------------------
      1          6           0        2.229218    1.676448    0.047715
      2          6           0        1.148326    0.895493   -0.131553
      3          7           0       -0.070442    1.418079   -0.574961
      4          6           0       -0.346522    2.867126   -0.702852
      5          9           0       -1.325890    3.096704   -1.621392
      6          9           0        0.744772    3.452264   -1.294333
      7          6           0       -0.653117    3.650349    0.601896
      8          9           0        0.344450    3.335551    1.507627
      9          8           0       -0.527009    5.079816    0.518891
     10          6           0       -1.250566    5.685080   -0.521920
     11          9           0       -1.284946    7.011384   -0.298791
     12          9           0       -0.637364    5.462929   -1.693568
     13          9           0       -2.504247    5.224062   -0.564779
     14          6           0       -1.964612    3.172289    1.227119
     15          9           0       -3.031082    3.252137    0.414582
     16          9           0       -1.863625    1.885933    1.646910
     17          9           0       -2.256558    3.909248    2.330462
     18          6           0       -1.157009    0.590754   -0.803016
     19          8           0       -2.295747    1.038228   -0.896433
     20          7           0       -0.898566   -0.747230   -0.918058
     21          6           0       -2.014374   -1.612566   -1.281511
     22          9           0       -1.517307   -2.757610   -1.834714
     23          9           0       -2.684628   -1.034153   -2.321081
     24          6           0       -3.001159   -1.961332   -0.134301
     25          9           0       -3.658525   -0.829879    0.254977
     26          8           0       -2.272326   -2.386634    1.022370
     27          6           0       -3.087149   -2.945816    2.017834
     28          9           0       -2.388311   -2.988399    3.167227
     29          9           0       -4.191309   -2.208633    2.211584
     30          9           0       -3.420875   -4.198302    1.668493
     31          6           0       -3.997935   -2.955203   -0.747391
     32          9           0       -3.415424   -4.139337   -1.041292
     33          9           0       -4.571227   -2.494976   -1.880679
     34          9           0       -5.016050   -3.227162    0.105192
     35          6           0        0.175196   -1.324579   -0.293362
     36          8           0        0.230168   -2.537571   -0.102057
     37          7           0        1.185305   -0.474274    0.131929
     38          6           0        2.306814   -1.170628    0.808537
     39          9           0        2.991748   -0.294006    1.601484
     40          9           0        1.787940   -2.046044    1.714403
     41          6           0        3.302310   -1.873385   -0.152293
     42          9           0        2.648840   -2.772616   -0.938722
     43          8           0        3.830383   -0.882304   -1.050634
     44          6           0        4.898517   -1.360309   -1.827970
     45          9           0        5.064239   -0.527221   -2.871698
     46          9           0        6.017609   -1.346504   -1.086579
     47          9           0        4.657956   -2.595233   -2.289378
     48          6           0        4.310635   -2.592709    0.753070
     49          9           0        3.731942   -3.443528    1.625804
     50          9           0        5.047419   -1.712865    1.470451
     51          9           0        5.187613   -3.331016    0.030659
     52          1           0        3.205589    1.320635    0.352679
     53          1           0        2.256915    2.747517   -0.110626
 ---------------------------------------------------------------------
 Rotational constants (GHZ):      0.0607149      0.0498768      0.0331516
 Leave Link  202 at Sun Mar  3 18:16:02 2024, MaxMem=  5368709120 cpu:         0.0
 (Enter /home/k0335/k033513/app/g09/l301.exe)
 Standard basis: 6-31G(d,p) (6D, 7F)
 Ernie: Thresh=  0.10000D-02 Tol=  0.10000D-05 Strict=F.
   775 basis functions,  1442 primitive gaussians,   775 cartesian basis functions
   201 alpha electrons      200 beta electrons
       nuclear repulsion energy      9164.7406394144 Hartrees.
 IExCor=20419 DFT=T Ex+Corr=CAM-B3LYP ExCW=0 ScaHFX=  1.000000
 ScaDFX=  1.000000  1.000000  1.000000  0.810000 ScalE2=  1.000000  1.000000
 IRadAn=      0 IRanWt=     -1 IRanGd=            0 ICorTp=0 IEmpDi=  4
  HFx wShort=  0.000000 wLong=  0.330000 cFull=  0.190000 cShort=  0.000000 cLong=  0.460000
  DFx wShort=  0.000000 wLong=  0.330000 cFull=  0.190000 cShort=  0.000000 cLong=  0.460000
 NAtoms=   53 NActive=   53 NUniq=   53 SFac= 1.00D+00 NAtFMM=   60 NAOKFM=F Big=F
 Integral buffers will be    131072 words long.
 Raffenetti 2 integral format.
 Two-electron integral symmetry is turned off.
 Using the following non-standard input for PCM:
 eps=4.9
 --- end of non-standard input.
 ------------------------------------------------------------------------------
 Polarizable Continuum Model (PCM)
 =================================
 Model                : PCM (using non-symmetric T matrix).
 Atomic radii         : UFF (Universal Force Field).
 Polarization charges : Total charges.
 Charge compensation  : None.
 Solution method      : On-the-fly selection.
 Cavity type          : Scaled VdW (van der Waals Surface) (Alpha=1.100).
 Cavity algorithm     : GePol (No added spheres)
                        Default sphere list used, NSphG=   53.
                        Lebedev-Laikov grids with approx.  5.0 points / Ang**2.
                        Smoothing algorithm: Karplus/York (Gamma=1.0000).
                        Polarization charges: spherical gaussians, with
                                              point-specific exponents (IZeta= 3).
                        Self-potential: point-specific (ISelfS= 7).
                        Self-field    : sphere-specific E.n sum rule (ISelfD= 2).
 Solvent              : Generic,
                        Eps                           =   4.900000
                        Eps(infinity)                 =   0.000000
                        RSolv                         =   0.000000 Ang.
                        Molar volume                  =   0.000000 cm**3/mol
                        Thermal expansion coefficient =   0.000000 K**-1
                        Absolute temperature          = 298.150000 K
                        Numeral density               =   0.000000 Ang**-3
                        Hydrogen bond acidity         =   0.000000
                        Hydrogen bond basicity        =   0.000000
                        Surface tension at interface  =   0.000000 (cal/mol)*Ang**-2
                        Carbon aromaticity            =   0.000000
                        Electronegative halogenicity  =   0.000000
 ------------------------------------------------------------------------------
 GePol: Number of generator spheres                  =      53
 GePol: Total number of spheres                      =      53
 GePol: Number of exposed spheres                    =      53 (100.00%)
 GePol: Number of points                             =    4351
 GePol: Average weight of points                     =       0.12
 GePol: Minimum weight of points                     =   0.36D-09
 GePol: Maximum weight of points                     =    0.20577
 GePol: Number of points with low weight             =     172
 GePol: Fraction of low-weight points (<1% of avg)   =       3.95%
 GePol: Cavity surface area                          =    535.288 Ang**2
 GePol: Cavity volume                                =    645.910 Ang**3
 Leave Link  301 at Sun Mar  3 18:16:02 2024, MaxMem=  5368709120 cpu:         0.7
 (Enter /home/k0335/k033513/app/g09/l302.exe)
 NPDir=0 NMtPBC=     1 NCelOv=     1 NCel=       1 NClECP=     1 NCelD=      1
         NCelK=      1 NCelE2=     1 NClLst=     1 CellRange=     0.0.
 One-electron integrals computed using PRISM.
 NBasis=   775 RedAO= T EigKep=  1.18D-03  NBF=   775
 NBsUse=   775 1.00D-06 EigRej= -1.00D+00 NBFU=   775
 Precomputing XC quadrature grid using
 IXCGrd= 4 IRadAn=           0 IRanWt=          -1 IRanGd=           0 AccXCQ= 0.00D+00.
 Generated NRdTot=       0 NPtTot=           0 NUsed=           0 NTot=          32
 NSgBfM=   741   741   741   741   741 MxSgAt=    53 MxSgA2=    53.
 Leave Link  302 at Sun Mar  3 18:16:03 2024, MaxMem=  5368709120 cpu:        20.6
 (Enter /home/k0335/k033513/app/g09/l303.exe)
 DipDrv:  MaxL=1.
 Leave Link  303 at Sun Mar  3 18:16:04 2024, MaxMem=  5368709120 cpu:         1.2
 (Enter /home/k0335/k033513/app/g09/l401.exe)
 ExpMin= 1.61D-01 ExpMax= 7.00D+03 ExpMxC= 1.05D+03 IAcc=1 IRadAn=         1 AccDes= 0.00D+00
 Harris functional with IExCor=20419 and IRadAn=       1 diagonalized for initial guess.
 HarFok:  IExCor=20419 AccDes= 0.00D+00 IRadAn=         1 IDoV= 1 UseB2=F ITyADJ=14
 ICtDFT=  3500011 ScaDFX=  1.000000  1.000000  1.000000  1.000000
 FoFCou: FMM=F IPFlag=           0 FMFlag=      100000 FMFlg1=           0
         NFxFlg=           0 DoJE=T BraDBF=F KetDBF=T FulRan=T
         wScrn=  0.000000 ICntrl=     500 IOpCl=  0 I1Cent=   200000004 NGrid=           0
         NMat0=    1 NMatS0=      1 NMatT0=    0 NMatD0=    1 NMtDS0=    0 NMtDT0=    0
 Symmetry not used in FoFCou.
 Harris En= -3732.70179882274    
 JPrj=0 DoOrth=F DoCkMO=F.
 Initial guess <Sx>= 0.0000 <Sy>= 0.0000 <Sz>= 0.5000 <S**2>= 0.7500 S= 0.5000
 Leave Link  401 at Sun Mar  3 18:16:05 2024, MaxMem=  5368709120 cpu:        27.9
 (Enter /home/k0335/k033513/app/g09/l502.exe)
 UHF open shell SCF:
 Using DIIS extrapolation, IDIIS=  1040.
 Two-electron integral symmetry not used.
 IVT=     1843781 IEndB=     1843781 NGot=  5368709120 MDV=  5367483380
 LenX=  5367483380 LenY=  5366881980
 Requested convergence on RMS density matrix=1.00D-08 within 128 cycles.
 Requested convergence on MAX density matrix=1.00D-06.
 Requested convergence on             energy=1.00D-06.
 No special actions if energy rises.
 Fock matrices will be formed incrementally for  20 cycles.

 Cycle   1  Pass 1  IDiag  1:
 FoFJK:  IHMeth= 1 ICntrl=       0 DoSepK=T KAlg= 0 I1Cent=   0 FoldK=F
 IRaf=         1 NMat=   1 IRICut=       1 DoRegI=T DoRafI=F ISym2E= 0.
 FoFCou: FMM=F IPFlag=           0 FMFlag=      100000 FMFlg1=           0
         NFxFlg=           0 DoJE=T BraDBF=F KetDBF=F FulRan=T
         wScrn=  0.000000 ICntrl=     500 IOpCl=  0 I1Cent=           0 NGrid=           0
         NMat0=    1 NMatS0=      1 NMatT0=    0 NMatD0=    1 NMtDS0=    0 NMtDT0=    0
 Symmetry not used in FoFCou.
 Inv3:  Mode=1 IEnd=    56793603.
 Iteration    1 A*A^-1 deviation from unit magnitude is 7.33D-15 for   4322.
 Iteration    1 A*A^-1 deviation from orthogonality  is 5.99D-15 for   4322     12.
 Iteration    1 A^-1*A deviation from unit magnitude is 7.77D-15 for   4322.
 Iteration    1 A^-1*A deviation from orthogonality  is 2.52D-13 for   4265   4216.
 E= -3844.10654576883    
 DIIS: error= 4.55D-02 at cycle   1 NSaved=   1.
 NSaved= 1 IEnMin= 1 EnMin= -3844.10654576883     IErMin= 1 ErrMin= 4.55D-02
 ErrMax= 4.55D-02  0.00D+00 EMaxC= 1.00D-01 BMatC= 1.35D+01 BMatP= 1.35D+01
 IDIUse=3 WtCom= 5.45D-01 WtEn= 4.55D-01
 Coeff-Com:  0.100D+01
 Coeff-En:   0.100D+01
 Coeff:      0.100D+01
 Gap=     0.368 Goal=   None    Shift=    0.000
 Gap=     0.187 Goal=   None    Shift=    0.000
 GapD=    0.187 DampG=1.000 DampE=0.500 DampFc=0.5000 IDamp=-1.
 Damping current iteration by 5.00D-01
 RMSDP=2.95D-03 MaxDP=1.51D-01              OVMax= 3.95D-01

 Cycle   2  Pass 1  IDiag  1:
 RMSU=  1.48D-03    CP:  1.00D+00
 E= -3844.85318322738     Delta-E=       -0.746637458555 Rises=F Damp=T
 DIIS: error= 2.13D-02 at cycle   2 NSaved=   2.
 NSaved= 2 IEnMin= 2 EnMin= -3844.85318322738     IErMin= 2 ErrMin= 2.13D-02
 ErrMax= 2.13D-02  0.00D+00 EMaxC= 1.00D-01 BMatC= 1.64D+00 BMatP= 1.35D+01
 IDIUse=3 WtCom= 7.87D-01 WtEn= 2.13D-01
 Coeff-Com: -0.261D+00 0.126D+01
 Coeff-En:   0.000D+00 0.100D+01
 Coeff:     -0.205D+00 0.121D+01
 Gap=     0.433 Goal=   None    Shift=    0.000
 Gap=     0.245 Goal=   None    Shift=    0.000
 RMSDP=9.74D-04 MaxDP=8.48D-02 DE=-7.47D-01 OVMax= 2.36D-01

 Cycle   3  Pass 1  IDiag  1:
 RMSU=  9.14D-04    CP:  1.00D+00  1.23D+00
 E= -3845.40244033529     Delta-E=       -0.549257107912 Rises=F Damp=F
 DIIS: error= 1.18D-02 at cycle   3 NSaved=   3.
 NSaved= 3 IEnMin= 3 EnMin= -3845.40244033529     IErMin= 3 ErrMin= 1.18D-02
 ErrMax= 1.18D-02  0.00D+00 EMaxC= 1.00D-01 BMatC= 9.56D-01 BMatP= 1.64D+00
 IDIUse=3 WtCom= 8.82D-01 WtEn= 1.18D-01
 Coeff-Com: -0.194D+00 0.647D+00 0.547D+00
 Coeff-En:   0.000D+00 0.000D+00 0.100D+01
 Coeff:     -0.171D+00 0.571D+00 0.600D+00
 Gap=     0.346 Goal=   None    Shift=    0.000
 Gap=     0.183 Goal=   None    Shift=    0.000
 RMSDP=7.12D-04 MaxDP=9.92D-02 DE=-5.49D-01 OVMax= 1.48D-01

 Cycle   4  Pass 1  IDiag  1:
 RMSU=  4.04D-04    CP:  1.00D+00  1.41D+00  4.31D-01
 E= -3845.53858296648     Delta-E=       -0.136142631187 Rises=F Damp=F
 DIIS: error= 6.04D-03 at cycle   4 NSaved=   4.
 NSaved= 4 IEnMin= 4 EnMin= -3845.53858296648     IErMin= 4 ErrMin= 6.04D-03
 ErrMax= 6.04D-03  0.00D+00 EMaxC= 1.00D-01 BMatC= 2.25D-01 BMatP= 9.56D-01
 IDIUse=3 WtCom= 9.40D-01 WtEn= 6.04D-02
 Coeff-Com: -0.538D-01 0.134D+00 0.352D+00 0.569D+00
 Coeff-En:   0.000D+00 0.000D+00 0.206D+00 0.794D+00
 Coeff:     -0.506D-01 0.126D+00 0.343D+00 0.582D+00
 Gap=     0.343 Goal=   None    Shift=    0.000
 Gap=     0.191 Goal=   None    Shift=    0.000
 RMSDP=2.89D-04 MaxDP=4.25D-02 DE=-1.36D-01 OVMax= 4.79D-02

 Cycle   5  Pass 1  IDiag  1:
 RMSU=  1.27D-04    CP:  9.99D-01  1.37D+00  6.63D-01  6.67D-01
 E= -3845.57810159512     Delta-E=       -0.039518628637 Rises=F Damp=F
 DIIS: error= 1.31D-03 at cycle   5 NSaved=   5.
 NSaved= 5 IEnMin= 5 EnMin= -3845.57810159512     IErMin= 5 ErrMin= 1.31D-03
 ErrMax= 1.31D-03  0.00D+00 EMaxC= 1.00D-01 BMatC= 1.21D-02 BMatP= 2.25D-01
 IDIUse=3 WtCom= 9.87D-01 WtEn= 1.31D-02
 Coeff-Com: -0.125D-01 0.220D-01 0.145D+00 0.321D+00 0.525D+00
 Coeff-En:   0.000D+00 0.000D+00 0.000D+00 0.000D+00 0.100D+01
 Coeff:     -0.123D-01 0.217D-01 0.143D+00 0.316D+00 0.531D+00
 Gap=     0.338 Goal=   None    Shift=    0.000
 Gap=     0.188 Goal=   None    Shift=    0.000
 RMSDP=6.34D-05 MaxDP=7.67D-03 DE=-3.95D-02 OVMax= 1.31D-02

 Cycle   6  Pass 1  IDiag  1:
 RMSU=  4.46D-05    CP:  9.99D-01  1.38D+00  6.53D-01  7.28D-01  7.39D-01
 E= -3845.58057045796     Delta-E=       -0.002468862840 Rises=F Damp=F
 DIIS: error= 3.83D-04 at cycle   6 NSaved=   6.
 NSaved= 6 IEnMin= 6 EnMin= -3845.58057045796     IErMin= 6 ErrMin= 3.83D-04
 ErrMax= 3.83D-04  0.00D+00 EMaxC= 1.00D-01 BMatC= 4.31D-04 BMatP= 1.21D-02
 IDIUse=3 WtCom= 9.96D-01 WtEn= 3.83D-03
 Coeff-Com:  0.412D-02-0.111D-01-0.163D-01-0.148D-01 0.111D+00 0.927D+00
 Coeff-En:   0.000D+00 0.000D+00 0.000D+00 0.000D+00 0.000D+00 0.100D+01
 Coeff:      0.410D-02-0.111D-01-0.162D-01-0.148D-01 0.111D+00 0.927D+00
 Gap=     0.334 Goal=   None    Shift=    0.000
 Gap=     0.189 Goal=   None    Shift=    0.000
 RMSDP=2.98D-05 MaxDP=6.27D-03 DE=-2.47D-03 OVMax= 1.21D-02

 Cycle   7  Pass 1  IDiag  1:
 RMSU=  1.72D-05    CP:  9.99D-01  1.38D+00  6.60D-01  7.56D-01  8.65D-01
                    CP:  1.28D+00
 E= -3845.58087426353     Delta-E=       -0.000303805571 Rises=F Damp=F
 DIIS: error= 2.23D-04 at cycle   7 NSaved=   7.
 NSaved= 7 IEnMin= 7 EnMin= -3845.58087426353     IErMin= 7 ErrMin= 2.23D-04
 ErrMax= 2.23D-04  0.00D+00 EMaxC= 1.00D-01 BMatC= 1.14D-04 BMatP= 4.31D-04
 IDIUse=3 WtCom= 9.98D-01 WtEn= 2.23D-03
 Coeff-Com:  0.320D-02-0.635D-02-0.263D-01-0.544D-01-0.300D-01 0.348D+00
 Coeff-Com:  0.766D+00
 Coeff-En:   0.000D+00 0.000D+00 0.000D+00 0.000D+00 0.000D+00 0.000D+00
 Coeff-En:   0.100D+01
 Coeff:      0.319D-02-0.633D-02-0.263D-01-0.543D-01-0.300D-01 0.347D+00
 Coeff:      0.766D+00
 Gap=     0.335 Goal=   None    Shift=    0.000
 Gap=     0.192 Goal=   None    Shift=    0.000
 RMSDP=1.40D-05 MaxDP=1.60D-03 DE=-3.04D-04 OVMax= 6.77D-03

 Cycle   8  Pass 1  IDiag  1:
 RMSU=  7.19D-06    CP:  9.99D-01  1.38D+00  6.63D-01  7.61D-01  9.14D-01
                    CP:  1.49D+00  1.14D+00
 E= -3845.58095344435     Delta-E=       -0.000079180825 Rises=F Damp=F
 DIIS: error= 6.56D-05 at cycle   8 NSaved=   8.
 NSaved= 8 IEnMin= 8 EnMin= -3845.58095344435     IErMin= 8 ErrMin= 6.56D-05
 ErrMax= 6.56D-05  0.00D+00 EMaxC= 1.00D-01 BMatC= 1.96D-05 BMatP= 1.14D-04
 IDIUse=1 WtCom= 1.00D+00 WtEn= 0.00D+00
 Coeff-Com:  0.448D-05 0.498D-03-0.379D-02-0.129D-01-0.261D-01-0.937D-01
 Coeff-Com:  0.148D+00 0.988D+00
 Coeff:      0.448D-05 0.498D-03-0.379D-02-0.129D-01-0.261D-01-0.937D-01
 Coeff:      0.148D+00 0.988D+00
 Gap=     0.335 Goal=   None    Shift=    0.000
 Gap=     0.192 Goal=   None    Shift=    0.000
 RMSDP=9.55D-06 MaxDP=1.82D-03 DE=-7.92D-05 OVMax= 5.05D-03

 Cycle   9  Pass 1  IDiag  1:
 RMSU=  3.73D-06    CP:  9.99D-01  1.38D+00  6.64D-01  7.63D-01  9.42D-01
                    CP:  1.61D+00  1.44D+00  1.39D+00
 E= -3845.58097652704     Delta-E=       -0.000023082690 Rises=F Damp=F
 DIIS: error= 2.89D-05 at cycle   9 NSaved=   9.
 NSaved= 9 IEnMin= 9 EnMin= -3845.58097652704     IErMin= 9 ErrMin= 2.89D-05
 ErrMax= 2.89D-05  0.00D+00 EMaxC= 1.00D-01 BMatC= 7.93D-06 BMatP= 1.96D-05
 IDIUse=1 WtCom= 1.00D+00 WtEn= 0.00D+00
 Coeff-Com: -0.845D-03 0.185D-02 0.487D-02 0.778D-02-0.225D-02-0.120D+00
 Coeff-Com: -0.141D+00 0.478D+00 0.772D+00
 Coeff:     -0.845D-03 0.185D-02 0.487D-02 0.778D-02-0.225D-02-0.120D+00
 Coeff:     -0.141D+00 0.478D+00 0.772D+00
 Gap=     0.335 Goal=   None    Shift=    0.000
 Gap=     0.192 Goal=   None    Shift=    0.000
 RMSDP=4.61D-06 MaxDP=9.12D-04 DE=-2.31D-05 OVMax= 2.39D-03

 Cycle  10  Pass 1  IDiag  1:
 RMSU=  1.81D-06    CP:  9.99D-01  1.38D+00  6.64D-01  7.65D-01  9.50D-01
                    CP:  1.66D+00  1.58D+00  1.74D+00  1.14D+00
 E= -3845.58098222542     Delta-E=       -0.000005698374 Rises=F Damp=F
 DIIS: error= 2.22D-05 at cycle  10 NSaved=  10.
 NSaved=10 IEnMin=10 EnMin= -3845.58098222542     IErMin=10 ErrMin= 2.22D-05
 ErrMax= 2.22D-05  0.00D+00 EMaxC= 1.00D-01 BMatC= 1.10D-06 BMatP= 7.93D-06
 IDIUse=1 WtCom= 1.00D+00 WtEn= 0.00D+00
 Coeff-Com: -0.227D-03 0.412D-03 0.199D-02 0.467D-02 0.567D-02-0.560D-02
 Coeff-Com: -0.729D-01-0.683D-01 0.164D+00 0.970D+00
 Coeff:     -0.227D-03 0.412D-03 0.199D-02 0.467D-02 0.567D-02-0.560D-02
 Coeff:     -0.729D-01-0.683D-01 0.164D+00 0.970D+00
 Gap=     0.335 Goal=   None    Shift=    0.000
 Gap=     0.192 Goal=   None    Shift=    0.000
 RMSDP=2.33D-06 MaxDP=3.99D-04 DE=-5.70D-06 OVMax= 1.20D-03

 Cycle  11  Pass 1  IDiag  1:
 RMSU=  9.65D-07    CP:  9.99D-01  1.38D+00  6.64D-01  7.65D-01  9.51D-01
                    CP:  1.67D+00  1.63D+00  1.91D+00  1.43D+00  1.38D+00
 E= -3845.58098365517     Delta-E=       -0.000001429751 Rises=F Damp=F
 DIIS: error= 1.57D-05 at cycle  11 NSaved=  11.
 NSaved=11 IEnMin=11 EnMin= -3845.58098365517     IErMin=11 ErrMin= 1.57D-05
 ErrMax= 1.57D-05  0.00D+00 EMaxC= 1.00D-01 BMatC= 5.33D-07 BMatP= 1.10D-06
 IDIUse=1 WtCom= 1.00D+00 WtEn= 0.00D+00
 Coeff-Com:  0.131D-03-0.316D-03-0.494D-03-0.206D-03 0.332D-02 0.321D-01
 Coeff-Com:  0.174D-02-0.163D+00-0.145D+00 0.491D+00 0.781D+00
 Coeff:      0.131D-03-0.316D-03-0.494D-03-0.206D-03 0.332D-02 0.321D-01
 Coeff:      0.174D-02-0.163D+00-0.145D+00 0.491D+00 0.781D+00
 Gap=     0.335 Goal=   None    Shift=    0.000
 Gap=     0.192 Goal=   None    Shift=    0.000
 RMSDP=1.32D-06 MaxDP=2.26D-04 DE=-1.43D-06 OVMax= 5.89D-04

 Cycle  12  Pass 1  IDiag  1:
 RMSU=  5.23D-07    CP:  9.99D-01  1.38D+00  6.64D-01  7.65D-01  9.52D-01
                    CP:  1.67D+00  1.66D+00  2.00D+00  1.58D+00  1.78D+00
                    CP:  1.22D+00
 E= -3845.58098415430     Delta-E=       -0.000000499131 Rises=F Damp=F
 DIIS: error= 9.87D-06 at cycle  12 NSaved=  12.
 NSaved=12 IEnMin=12 EnMin= -3845.58098415430     IErMin=12 ErrMin= 9.87D-06
 ErrMax= 9.87D-06  0.00D+00 EMaxC= 1.00D-01 BMatC= 1.28D-07 BMatP= 5.33D-07
 IDIUse=1 WtCom= 1.00D+00 WtEn= 0.00D+00
 Coeff-Com:  0.134D-03-0.279D-03-0.849D-03-0.170D-02-0.545D-03 0.145D-01
 Coeff-Com:  0.257D-01-0.363D-01-0.117D+00-0.995D-01 0.265D+00 0.951D+00
 Coeff:      0.134D-03-0.279D-03-0.849D-03-0.170D-02-0.545D-03 0.145D-01
 Coeff:      0.257D-01-0.363D-01-0.117D+00-0.995D-01 0.265D+00 0.951D+00
 Gap=     0.335 Goal=   None    Shift=    0.000
 Gap=     0.192 Goal=   None    Shift=    0.000
 RMSDP=8.17D-07 MaxDP=1.81D-04 DE=-4.99D-07 OVMax= 3.18D-04

 Cycle  13  Pass 1  IDiag  1:
 RMSU=  2.94D-07    CP:  9.99D-01  1.38D+00  6.64D-01  7.65D-01  9.53D-01
                    CP:  1.68D+00  1.67D+00  2.03D+00  1.67D+00  2.00D+00
                    CP:  1.62D+00  1.46D+00
 E= -3845.58098433728     Delta-E=       -0.000000182979 Rises=F Damp=F
 DIIS: error= 5.84D-06 at cycle  13 NSaved=  13.
 NSaved=13 IEnMin=13 EnMin= -3845.58098433728     IErMin=13 ErrMin= 5.84D-06
 ErrMax= 5.84D-06  0.00D+00 EMaxC= 1.00D-01 BMatC= 4.09D-08 BMatP= 1.28D-07
 IDIUse=1 WtCom= 1.00D+00 WtEn= 0.00D+00
 Coeff-Com:  0.317D-05 0.605D-05-0.693D-04-0.429D-03-0.130D-02-0.646D-02
 Coeff-Com:  0.819D-02 0.428D-01 0.443D-02-0.171D+00-0.195D+00 0.271D+00
 Coeff-Com:  0.105D+01
 Coeff:      0.317D-05 0.605D-05-0.693D-04-0.429D-03-0.130D-02-0.646D-02
 Coeff:      0.819D-02 0.428D-01 0.443D-02-0.171D+00-0.195D+00 0.271D+00
 Coeff:      0.105D+01
 Gap=     0.335 Goal=   None    Shift=    0.000
 Gap=     0.192 Goal=   None    Shift=    0.000
 RMSDP=5.51D-07 MaxDP=1.22D-04 DE=-1.83D-07 OVMax= 2.02D-04

 Cycle  14  Pass 1  IDiag  1:
 RMSU=  1.76D-07    CP:  9.99D-01  1.38D+00  6.64D-01  7.65D-01  9.53D-01
                    CP:  1.68D+00  1.67D+00  2.05D+00  1.71D+00  2.13D+00
                    CP:  1.89D+00  2.00D+00  1.44D+00
 E= -3845.58098440299     Delta-E=       -0.000000065715 Rises=F Damp=F
 DIIS: error= 3.25D-06 at cycle  14 NSaved=  14.
 NSaved=14 IEnMin=14 EnMin= -3845.58098440299     IErMin=14 ErrMin= 3.25D-06
 ErrMax= 3.25D-06  0.00D+00 EMaxC= 1.00D-01 BMatC= 1.73D-08 BMatP= 4.09D-08
 IDIUse=1 WtCom= 1.00D+00 WtEn= 0.00D+00
 Coeff-Com: -0.329D-04 0.740D-04 0.198D-03 0.232D-03-0.584D-03-0.780D-02
 Coeff-Com: -0.264D-02 0.327D-01 0.340D-01-0.522D-01-0.189D+00-0.163D+00
 Coeff-Com:  0.558D+00 0.791D+00
 Coeff:     -0.329D-04 0.740D-04 0.198D-03 0.232D-03-0.584D-03-0.780D-02
 Coeff:     -0.264D-02 0.327D-01 0.340D-01-0.522D-01-0.189D+00-0.163D+00
 Coeff:      0.558D+00 0.791D+00
 Gap=     0.335 Goal=   None    Shift=    0.000
 Gap=     0.192 Goal=   None    Shift=    0.000
 RMSDP=2.87D-07 MaxDP=6.59D-05 DE=-6.57D-08 OVMax= 1.10D-04

 Cycle  15  Pass 1  IDiag  1:
 RMSU=  9.09D-08    CP:  9.99D-01  1.38D+00  6.64D-01  7.65D-01  9.53D-01
                    CP:  1.68D+00  1.67D+00  2.06D+00  1.73D+00  2.19D+00
                    CP:  2.02D+00  2.27D+00  1.87D+00  1.20D+00
 E= -3845.58098441922     Delta-E=       -0.000000016227 Rises=F Damp=F
 DIIS: error= 1.54D-06 at cycle  15 NSaved=  15.
 NSaved=15 IEnMin=15 EnMin= -3845.58098441922     IErMin=15 ErrMin= 1.54D-06
 ErrMax= 1.54D-06  0.00D+00 EMaxC= 1.00D-01 BMatC= 3.48D-09 BMatP= 1.73D-08
 IDIUse=1 WtCom= 1.00D+00 WtEn= 0.00D+00
 Coeff-Com: -0.135D-04 0.269D-04 0.109D-03 0.221D-03 0.148D-03-0.160D-02
 Coeff-Com: -0.299D-02 0.216D-02 0.124D-01 0.311D-01-0.283D-01-0.152D+00
 Coeff-Com: -0.449D-01 0.341D+00 0.843D+00
 Coeff:     -0.135D-04 0.269D-04 0.109D-03 0.221D-03 0.148D-03-0.160D-02
 Coeff:     -0.299D-02 0.216D-02 0.124D-01 0.311D-01-0.283D-01-0.152D+00
 Coeff:     -0.449D-01 0.341D+00 0.843D+00
 Gap=     0.335 Goal=   None    Shift=    0.000
 Gap=     0.192 Goal=   None    Shift=    0.000
 RMSDP=1.17D-07 MaxDP=2.38D-05 DE=-1.62D-08 OVMax= 4.71D-05

 Cycle  16  Pass 1  IDiag  1:
 RMSU=  4.24D-08    CP:  9.99D-01  1.38D+00  6.64D-01  7.65D-01  9.53D-01
                    CP:  1.68D+00  1.67D+00  2.06D+00  1.73D+00  2.20D+00
                    CP:  2.06D+00  2.38D+00  2.06D+00  1.50D+00  1.16D+00
 E= -3845.58098442243     Delta-E=       -0.000000003214 Rises=F Damp=F
 DIIS: error= 5.61D-07 at cycle  16 NSaved=  16.
 NSaved=16 IEnMin=16 EnMin= -3845.58098442243     IErMin=16 ErrMin= 5.61D-07
 ErrMax= 5.61D-07  0.00D+00 EMaxC= 1.00D-01 BMatC= 6.88D-10 BMatP= 3.48D-09
 IDIUse=1 WtCom= 1.00D+00 WtEn= 0.00D+00
 Coeff-Com:  0.106D-05-0.357D-05 0.943D-05 0.476D-04 0.198D-03 0.821D-03
 Coeff-Com: -0.641D-03-0.557D-02-0.228D-02 0.210D-01 0.255D-01-0.237D-01
 Coeff-Com: -0.125D+00-0.387D-01 0.298D+00 0.850D+00
 Coeff:      0.106D-05-0.357D-05 0.943D-05 0.476D-04 0.198D-03 0.821D-03
 Coeff:     -0.641D-03-0.557D-02-0.228D-02 0.210D-01 0.255D-01-0.237D-01
 Coeff:     -0.125D+00-0.387D-01 0.298D+00 0.850D+00
 Gap=     0.335 Goal=   None    Shift=    0.000
 Gap=     0.192 Goal=   None    Shift=    0.000
 RMSDP=5.14D-08 MaxDP=9.69D-06 DE=-3.21D-09 OVMax= 2.28D-05

 Cycle  17  Pass 1  IDiag  1:
 RMSU=  2.07D-08    CP:  9.99D-01  1.38D+00  6.64D-01  7.65D-01  9.53D-01
                    CP:  1.68D+00  1.67D+00  2.06D+00  1.74D+00  2.21D+00
                    CP:  2.07D+00  2.41D+00  2.13D+00  1.62D+00  1.42D+00
                    CP:  1.26D+00
 E= -3845.58098442291     Delta-E=       -0.000000000480 Rises=F Damp=F
 DIIS: error= 2.13D-07 at cycle  17 NSaved=  17.
 NSaved=17 IEnMin=17 EnMin= -3845.58098442291     IErMin=17 ErrMin= 2.13D-07
 ErrMax= 2.13D-07  0.00D+00 EMaxC= 1.00D-01 BMatC= 1.80D-10 BMatP= 6.88D-10
 IDIUse=1 WtCom= 1.00D+00 WtEn= 0.00D+00
 Coeff-Com:  0.348D-05-0.751D-05-0.217D-04-0.360D-04 0.443D-04 0.644D-03
 Coeff-Com:  0.342D-03-0.256D-02-0.356D-02 0.509D-03 0.171D-01 0.269D-01
 Coeff-Com: -0.380D-01-0.883D-01-0.892D-01 0.311D+00 0.865D+00
 Coeff:      0.348D-05-0.751D-05-0.217D-04-0.360D-04 0.443D-04 0.644D-03
 Coeff:      0.342D-03-0.256D-02-0.356D-02 0.509D-03 0.171D-01 0.269D-01
 Coeff:     -0.380D-01-0.883D-01-0.892D-01 0.311D+00 0.865D+00
 Gap=     0.335 Goal=   None    Shift=    0.000
 Gap=     0.192 Goal=   None    Shift=    0.000
 RMSDP=2.44D-08 MaxDP=3.56D-06 DE=-4.80D-10 OVMax= 1.00D-05

 Cycle  18  Pass 1  IDiag  1:
 RMSU=  9.79D-09    CP:  9.99D-01  1.38D+00  6.64D-01  7.65D-01  9.53D-01
                    CP:  1.68D+00  1.67D+00  2.06D+00  1.74D+00  2.21D+00
                    CP:  2.07D+00  2.42D+00  2.15D+00  1.67D+00  1.53D+00
                    CP:  1.60D+00  1.33D+00
 E= -3845.58098442302     Delta-E=       -0.000000000104 Rises=F Damp=F
 DIIS: error= 1.17D-07 at cycle  18 NSaved=  18.
 NSaved=18 IEnMin=18 EnMin= -3845.58098442302     IErMin=18 ErrMin= 1.17D-07
 ErrMax= 1.17D-07  0.00D+00 EMaxC= 1.00D-01 BMatC= 4.13D-11 BMatP= 1.80D-10
 IDIUse=1 WtCom= 1.00D+00 WtEn= 0.00D+00
 Coeff-Com:  0.387D-06-0.548D-06-0.742D-05-0.209D-04-0.341D-04-0.947D-05
 Coeff-Com:  0.192D-03 0.778D-03-0.136D-03-0.562D-02-0.128D-02 0.121D-01
 Coeff-Com:  0.197D-01-0.653D-02-0.104D+00-0.164D+00 0.216D+00 0.103D+01
 Coeff:      0.387D-06-0.548D-06-0.742D-05-0.209D-04-0.341D-04-0.947D-05
 Coeff:      0.192D-03 0.778D-03-0.136D-03-0.562D-02-0.128D-02 0.121D-01
 Coeff:      0.197D-01-0.653D-02-0.104D+00-0.164D+00 0.216D+00 0.103D+01
 Gap=     0.335 Goal=   None    Shift=    0.000
 Gap=     0.192 Goal=   None    Shift=    0.000
 RMSDP=1.64D-08 MaxDP=2.14D-06 DE=-1.04D-10 OVMax= 6.07D-06

 Cycle  19  Pass 1  IDiag  1:
 RMSU=  4.91D-09    CP:  9.99D-01  1.38D+00  6.64D-01  7.65D-01  9.53D-01
                    CP:  1.68D+00  1.67D+00  2.06D+00  1.74D+00  2.21D+00
                    CP:  2.07D+00  2.42D+00  2.16D+00  1.70D+00  1.59D+00
                    CP:  1.81D+00  1.77D+00  1.45D+00
 E= -3845.58098442351     Delta-E=       -0.000000000487 Rises=F Damp=F
 DIIS: error= 4.50D-08 at cycle  19 NSaved=  19.
 NSaved=19 IEnMin=19 EnMin= -3845.58098442351     IErMin=19 ErrMin= 4.50D-08
 ErrMax= 4.50D-08  0.00D+00 EMaxC= 1.00D-01 BMatC= 1.09D-11 BMatP= 4.13D-11
 IDIUse=1 WtCom= 1.00D+00 WtEn= 0.00D+00
 Coeff-Com: -0.842D-06 0.188D-05 0.287D-05 0.292D-05-0.211D-04-0.148D-03
 Coeff-Com: -0.497D-04 0.847D-03 0.872D-03-0.208D-02-0.402D-02-0.242D-02
 Coeff-Com:  0.148D-01 0.199D-01-0.153D-01-0.127D+00-0.126D+00 0.362D+00
 Coeff-Com:  0.879D+00
 Coeff:     -0.842D-06 0.188D-05 0.287D-05 0.292D-05-0.211D-04-0.148D-03
 Coeff:     -0.497D-04 0.847D-03 0.872D-03-0.208D-02-0.402D-02-0.242D-02
 Coeff:      0.148D-01 0.199D-01-0.153D-01-0.127D+00-0.126D+00 0.362D+00
 Coeff:      0.879D+00
 Gap=     0.335 Goal=   None    Shift=    0.000
 Gap=     0.192 Goal=   None    Shift=    0.000
 RMSDP=7.22D-09 MaxDP=9.49D-07 DE=-4.87D-10 OVMax= 3.04D-06

 Error on total polarization charges =  0.00104
 SCF Done:  E(UCAM-B3LYP) =  -3845.58098442     A.U. after   19 cycles
            NFock= 19  Conv=0.72D-08     -V/T= 2.0073
 <Sx>= 0.0000 <Sy>= 0.0000 <Sz>= 0.5000 <S**2>= 0.7561 S= 0.5030
 <L.S>= 0.000000000000E+00
 KE= 3.817762417694D+03 PE=-2.737922453228D+04 EE= 1.055114049075D+04
 Annihilation of the first spin contaminant:
 S**2 before annihilation     0.7561,   after     0.7500
 Leave Link  502 at Sun Mar  3 18:18:42 2024, MaxMem=  5368709120 cpu:      3670.7
 (Enter /home/k0335/k033513/app/g09/l601.exe)
 Copying SCF densities to generalized density rwf, IOpCl= 1 IROHF=0.

 **********************************************************************

            Population analysis using the SCF density.

 **********************************************************************

 Alpha  occ. eigenvalues --  -24.90215 -24.89344 -24.88963 -24.88536 -24.88503
 Alpha  occ. eigenvalues --  -24.87277 -24.87209 -24.86771 -24.86735 -24.86520
 Alpha  occ. eigenvalues --  -24.86452 -24.86433 -24.86315 -24.86269 -24.86267
 Alpha  occ. eigenvalues --  -24.86243 -24.86171 -24.85904 -24.85688 -24.85679
 Alpha  occ. eigenvalues --  -24.85585 -24.85489 -24.85488 -24.85328 -24.85284
 Alpha  occ. eigenvalues --  -24.84943 -24.84625 -19.37518 -19.37065 -19.35757
 Alpha  occ. eigenvalues --  -19.31231 -19.30863 -14.63471 -14.63317 -14.59203
 Alpha  occ. eigenvalues --  -10.62926 -10.62559 -10.61726 -10.60366 -10.60237
 Alpha  occ. eigenvalues --  -10.58879 -10.58810 -10.57558 -10.57456 -10.54562
 Alpha  occ. eigenvalues --  -10.54130 -10.53824 -10.53334 -10.53221 -10.51995
 Alpha  occ. eigenvalues --  -10.43063  -1.46583  -1.46482  -1.45757  -1.45244
 Alpha  occ. eigenvalues --   -1.45181  -1.44894  -1.44373  -1.43869  -1.42434
 Alpha  occ. eigenvalues --   -1.40458  -1.40064  -1.38333  -1.38146  -1.37942
 Alpha  occ. eigenvalues --   -1.36951  -1.36565  -1.36199  -1.36080  -1.35718
 Alpha  occ. eigenvalues --   -1.35573  -1.35560  -1.35459  -1.35184  -1.35117
 Alpha  occ. eigenvalues --   -1.35085  -1.34302  -1.34022  -1.30273  -1.25275
 Alpha  occ. eigenvalues --   -1.24784  -1.24331  -1.23280  -1.21658  -1.16126
 Alpha  occ. eigenvalues --   -1.15632  -1.02875  -0.99010  -0.98090  -0.96372
 Alpha  occ. eigenvalues --   -0.92234  -0.90536  -0.88497  -0.86038  -0.85680
 Alpha  occ. eigenvalues --   -0.85379  -0.84714  -0.83886  -0.82805  -0.81105
 Alpha  occ. eigenvalues --   -0.80108  -0.79153  -0.77775  -0.77347  -0.76632
 Alpha  occ. eigenvalues --   -0.76375  -0.75747  -0.75151  -0.74970  -0.74603
 Alpha  occ. eigenvalues --   -0.73862  -0.73475  -0.72921  -0.72727  -0.72454
 Alpha  occ. eigenvalues --   -0.72329  -0.72047  -0.71911  -0.71703  -0.71230
 Alpha  occ. eigenvalues --   -0.70900  -0.70661  -0.70526  -0.70405  -0.69894
 Alpha  occ. eigenvalues --   -0.69627  -0.69558  -0.68940  -0.68469  -0.67991
 Alpha  occ. eigenvalues --   -0.67727  -0.64250  -0.63870  -0.63425  -0.62717
 Alpha  occ. eigenvalues --   -0.62402  -0.61956  -0.61745  -0.61220  -0.61143
 Alpha  occ. eigenvalues --   -0.60862  -0.60588  -0.60379  -0.60208  -0.59956
 Alpha  occ. eigenvalues --   -0.59812  -0.59593  -0.59235  -0.59149  -0.58998
 Alpha  occ. eigenvalues --   -0.58817  -0.58745  -0.58611  -0.58404  -0.58311
 Alpha  occ. eigenvalues --   -0.58178  -0.57794  -0.57521  -0.57320  -0.57227
 Alpha  occ. eigenvalues --   -0.57001  -0.56771  -0.56561  -0.56289  -0.55975
 Alpha  occ. eigenvalues --   -0.55927  -0.55889  -0.55547  -0.55149  -0.55030
 Alpha  occ. eigenvalues --   -0.54874  -0.54723  -0.54558  -0.54253  -0.54219
 Alpha  occ. eigenvalues --   -0.53944  -0.53717  -0.53673  -0.53621  -0.53133
 Alpha  occ. eigenvalues --   -0.52984  -0.52822  -0.52766  -0.52690  -0.52422
 Alpha  occ. eigenvalues --   -0.52271  -0.51947  -0.51863  -0.51793  -0.51389
 Alpha  occ. eigenvalues --   -0.50918  -0.50393  -0.49032  -0.48751  -0.48199
 Alpha  occ. eigenvalues --   -0.47476  -0.46830  -0.46215  -0.44520  -0.43744
 Alpha  occ. eigenvalues --   -0.43204
 Alpha virt. eigenvalues --   -0.09728  -0.06260  -0.01401  -0.00359   0.00180
 Alpha virt. eigenvalues --    0.01235   0.02614   0.04103   0.06204   0.06507
 Alpha virt. eigenvalues --    0.07996   0.09272   0.09770   0.11677   0.11936
 Alpha virt. eigenvalues --    0.13051   0.13668   0.14509   0.15744   0.15801
 Alpha virt. eigenvalues --    0.16274   0.16531   0.17471   0.17909   0.18444
 Alpha virt. eigenvalues --    0.18538   0.19179   0.19362   0.19764   0.20016
 Alpha virt. eigenvalues --    0.20268   0.20456   0.20765   0.21089   0.21488
 Alpha virt. eigenvalues --    0.21739   0.22129   0.22782   0.22993   0.23361
 Alpha virt. eigenvalues --    0.23593   0.24422   0.25099   0.25924   0.26077
 Alpha virt. eigenvalues --    0.26514   0.27056   0.27953   0.28442   0.29535
 Alpha virt. eigenvalues --    0.30097   0.30876   0.31067   0.33883   0.34974
 Alpha virt. eigenvalues --    0.39348   0.40393   0.40519   0.43141   0.44705
 Alpha virt. eigenvalues --    0.45226   0.45630   0.45792   0.46247   0.46795
 Alpha virt. eigenvalues --    0.47540   0.48218   0.48653   0.49065   0.49395
 Alpha virt. eigenvalues --    0.49646   0.50298   0.50437   0.50679   0.51349
 Alpha virt. eigenvalues --    0.51798   0.52298   0.52502   0.53344   0.53686
 Alpha virt. eigenvalues --    0.53979   0.54287   0.54947   0.55109   0.56154
 Alpha virt. eigenvalues --    0.56426   0.57454   0.58030   0.58257   0.59473
 Alpha virt. eigenvalues --    0.59910   0.61199   0.61912   0.63036   0.63921
 Alpha virt. eigenvalues --    0.66342   0.67543   0.67567   0.68431   0.69606
 Alpha virt. eigenvalues --    0.70236   0.71574   0.72548   0.74327   0.75923
 Alpha virt. eigenvalues --    0.76398   0.77494   0.78017   0.80024   0.80532
 Alpha virt. eigenvalues --    0.82109   0.82860   0.84148   0.84872   0.85847
 Alpha virt. eigenvalues --    0.87271   0.89036   0.89581   0.90307   0.90977
 Alpha virt. eigenvalues --    0.91546   0.92492   0.92925   0.93697   0.94159
 Alpha virt. eigenvalues --    0.95101   0.96277   0.96925   0.97988   0.98450
 Alpha virt. eigenvalues --    0.98870   0.99727   1.00232   1.00983   1.01802
 Alpha virt. eigenvalues --    1.02501   1.02910   1.03791   1.04317   1.05366
 Alpha virt. eigenvalues --    1.05493   1.05889   1.06482   1.07327   1.08000
 Alpha virt. eigenvalues --    1.08423   1.09265   1.09487   1.10325   1.10630
 Alpha virt. eigenvalues --    1.11430   1.12113   1.12493   1.12973   1.13235
 Alpha virt. eigenvalues --    1.13934   1.14478   1.14847   1.15252   1.15712
 Alpha virt. eigenvalues --    1.16368   1.16781   1.17833   1.18146   1.18416
 Alpha virt. eigenvalues --    1.19221   1.19569   1.20263   1.21070   1.21423
 Alpha virt. eigenvalues --    1.21773   1.22494   1.23174   1.23961   1.24161
 Alpha virt. eigenvalues --    1.24714   1.24860   1.25383   1.26023   1.26132
 Alpha virt. eigenvalues --    1.27452   1.27662   1.28219   1.28441   1.28743
 Alpha virt. eigenvalues --    1.29442   1.29730   1.30290   1.30731   1.31381
 Alpha virt. eigenvalues --    1.31673   1.32184   1.32428   1.32465   1.32918
 Alpha virt. eigenvalues --    1.33215   1.34001   1.34325   1.34688   1.34984
 Alpha virt. eigenvalues --    1.35595   1.35906   1.36504   1.36757   1.36970
 Alpha virt. eigenvalues --    1.37294   1.37680   1.37728   1.38041   1.38205
 Alpha virt. eigenvalues --    1.38485   1.38915   1.39036   1.39623   1.39848
 Alpha virt. eigenvalues --    1.41110   1.41380   1.42377   1.42639   1.42877
 Alpha virt. eigenvalues --    1.43479   1.43817   1.44247   1.44577   1.45219
 Alpha virt. eigenvalues --    1.45395   1.45799   1.46258   1.47100   1.47459
 Alpha virt. eigenvalues --    1.47969   1.48235   1.48625   1.48924   1.49223
 Alpha virt. eigenvalues --    1.49793   1.50555   1.50931   1.51581   1.51894
 Alpha virt. eigenvalues --    1.52295   1.52917   1.54087   1.54197   1.54803
 Alpha virt. eigenvalues --    1.55297   1.56188   1.56417   1.57101   1.57393
 Alpha virt. eigenvalues --    1.58386   1.58714   1.59108   1.60368   1.60770
 Alpha virt. eigenvalues --    1.61159   1.62422   1.63575   1.64045   1.64976
 Alpha virt. eigenvalues --    1.65455   1.65976   1.66891   1.67155   1.67804
 Alpha virt. eigenvalues --    1.68263   1.68492   1.69347   1.69866   1.70180
 Alpha virt. eigenvalues --    1.71026   1.71380   1.71735   1.72521   1.72753
 Alpha virt. eigenvalues --    1.73436   1.73626   1.74522   1.74889   1.75068
 Alpha virt. eigenvalues --    1.75932   1.76720   1.76917   1.77336   1.78293
 Alpha virt. eigenvalues --    1.78505   1.78706   1.79459   1.79599   1.80685
 Alpha virt. eigenvalues --    1.81415   1.81784   1.81945   1.82100   1.82391
 Alpha virt. eigenvalues --    1.82709   1.83179   1.83437   1.83889   1.84060
 Alpha virt. eigenvalues --    1.84354   1.84869   1.85021   1.85284   1.85532
 Alpha virt. eigenvalues --    1.86018   1.86137   1.86588   1.86756   1.87360
 Alpha virt. eigenvalues --    1.87443   1.88142   1.88510   1.88984   1.89101
 Alpha virt. eigenvalues --    1.89554   1.89727   1.89840   1.90502   1.90601
 Alpha virt. eigenvalues --    1.91154   1.91202   1.91418   1.91768   1.92268
 Alpha virt. eigenvalues --    1.92687   1.93082   1.93374   1.94047   1.94561
 Alpha virt. eigenvalues --    1.94643   1.94989   1.95735   1.96023   1.96219
 Alpha virt. eigenvalues --    1.97177   1.97614   1.97806   1.98168   1.98387
 Alpha virt. eigenvalues --    1.98719   1.98930   1.99091   1.99318   1.99626
 Alpha virt. eigenvalues --    1.99852   2.00364   2.00622   2.00776   2.00982
 Alpha virt. eigenvalues --    2.01181   2.01343   2.01680   2.01792   2.01972
 Alpha virt. eigenvalues --    2.02576   2.02893   2.03270   2.03394   2.04616
 Alpha virt. eigenvalues --    2.04755   2.05183   2.05875   2.06010   2.06335
 Alpha virt. eigenvalues --    2.06619   2.07237   2.07702   2.08031   2.08601
 Alpha virt. eigenvalues --    2.09120   2.09245   2.09546   2.10147   2.10640
 Alpha virt. eigenvalues --    2.10795   2.11501   2.12129   2.12554   2.13451
 Alpha virt. eigenvalues --    2.13630   2.14128   2.14605   2.14950   2.16297
 Alpha virt. eigenvalues --    2.16614   2.17157   2.17636   2.18153   2.18322
 Alpha virt. eigenvalues --    2.18828   2.19115   2.20306   2.21081   2.22039
 Alpha virt. eigenvalues --    2.22801   2.23365   2.23915   2.24459   2.24865
 Alpha virt. eigenvalues --    2.25475   2.26025   2.26369   2.27606   2.28360
 Alpha virt. eigenvalues --    2.29169   2.30658   2.32230   2.32843   2.33953
 Alpha virt. eigenvalues --    2.35102   2.35422   2.35984   2.36764   2.37024
 Alpha virt. eigenvalues --    2.37875   2.38688   2.38852   2.39805   2.40857
 Alpha virt. eigenvalues --    2.42570   2.42964   2.43155   2.43720   2.44200
 Alpha virt. eigenvalues --    2.45356   2.46257   2.46462   2.47192   2.49097
 Alpha virt. eigenvalues --    2.49633   2.50406   2.52143   2.53371   2.54074
 Alpha virt. eigenvalues --    2.55066   2.55852   2.56314   2.56598   2.57300
 Alpha virt. eigenvalues --    2.58129   2.59137   2.60352   2.61103   2.62080
 Alpha virt. eigenvalues --    2.62796   2.64055   2.64939   2.65660   2.66638
 Alpha virt. eigenvalues --    2.68085   2.68767   2.69310   2.71256   2.71985
 Alpha virt. eigenvalues --    2.72344   2.73378   2.74882   2.76111   2.77365
 Alpha virt. eigenvalues --    2.78597   2.79223   2.80548   2.81192   2.81694
 Alpha virt. eigenvalues --    2.82501   2.83040   2.83981   2.84504   2.85361
 Alpha virt. eigenvalues --    2.85976   2.86695   2.87245   2.88257   2.88670
 Alpha virt. eigenvalues --    2.89086   2.89862   2.90512   2.91385   2.92343
 Alpha virt. eigenvalues --    2.93770   2.94819   2.95894   2.96901   2.97378
 Alpha virt. eigenvalues --    3.00020   3.00534   3.01520   3.02382   3.02857
 Alpha virt. eigenvalues --    3.03066   3.03334   3.03429   3.04277   3.04672
 Alpha virt. eigenvalues --    3.05794   3.06737   3.07676   3.08853   3.10120
 Alpha virt. eigenvalues --    3.10836   3.11668   3.13143   3.13293   3.16120
 Alpha virt. eigenvalues --    3.17345   3.17537   3.19481   3.19739   3.20555
 Alpha virt. eigenvalues --    3.22624   3.25056   3.25399   3.25621   3.26989
 Alpha virt. eigenvalues --    3.28309   3.28498   3.29551   3.31204   3.34789
 Alpha virt. eigenvalues --    3.37242   3.44012   3.62638   3.94812   4.01785
 Alpha virt. eigenvalues --    4.03168   4.08965   4.15600   4.17265   4.19000
 Alpha virt. eigenvalues --    4.23016   4.26594   4.30053   4.31503   4.34441
 Alpha virt. eigenvalues --    4.36269   4.42397   4.42880   4.44576   4.45297
 Alpha virt. eigenvalues --    4.46591   4.51290   4.52278   4.56271   4.57512
 Alpha virt. eigenvalues --    4.63985   4.65505   4.67096   4.75108   4.76500
 Alpha virt. eigenvalues --    4.80507   4.84193   4.87311   4.88836   4.99746
 Alpha virt. eigenvalues --    5.06854   5.08776   5.19961   5.23024   5.25585
 Alpha virt. eigenvalues --    5.31044   5.34525   5.39985   5.42313   5.47909
 Alpha virt. eigenvalues --    5.60420   5.65619   5.87877   6.09273   6.20054
 Alpha virt. eigenvalues --    6.21069   6.23666   6.58272   6.76184
  Beta  occ. eigenvalues --  -24.90201 -24.89333 -24.88964 -24.88511 -24.88491
  Beta  occ. eigenvalues --  -24.87274 -24.87208 -24.86771 -24.86734 -24.86518
  Beta  occ. eigenvalues --  -24.86452 -24.86433 -24.86315 -24.86269 -24.86267
  Beta  occ. eigenvalues --  -24.86243 -24.86171 -24.85904 -24.85688 -24.85678
  Beta  occ. eigenvalues --  -24.85585 -24.85489 -24.85488 -24.85328 -24.85284
  Beta  occ. eigenvalues --  -24.84943 -24.84625 -19.37512 -19.37059 -19.35757
  Beta  occ. eigenvalues --  -19.31146 -19.30778 -14.63160 -14.62985 -14.59173
  Beta  occ. eigenvalues --  -10.62925 -10.62559 -10.61726 -10.60381 -10.60252
  Beta  occ. eigenvalues --  -10.58879 -10.58808 -10.57558 -10.57458 -10.54467
  Beta  occ. eigenvalues --  -10.54119 -10.53814 -10.53376 -10.53265 -10.51993
  Beta  occ. eigenvalues --  -10.42095  -1.46575  -1.46474  -1.45738  -1.45244
  Beta  occ. eigenvalues --   -1.45171  -1.44885  -1.44366  -1.43868  -1.42431
  Beta  occ. eigenvalues --   -1.40417  -1.40060  -1.38332  -1.38119  -1.37929
  Beta  occ. eigenvalues --   -1.36950  -1.36564  -1.36198  -1.36077  -1.35717
  Beta  occ. eigenvalues --   -1.35572  -1.35557  -1.35459  -1.35184  -1.35116
  Beta  occ. eigenvalues --   -1.35084  -1.34301  -1.34022  -1.30004  -1.25049
  Beta  occ. eigenvalues --   -1.24767  -1.24314  -1.23267  -1.21241  -1.15587
  Beta  occ. eigenvalues --   -1.15499  -1.01092  -0.98795  -0.98036  -0.96211
  Beta  occ. eigenvalues --   -0.92147  -0.90465  -0.87755  -0.85990  -0.85619
  Beta  occ. eigenvalues --   -0.85302  -0.84576  -0.83683  -0.82668  -0.80989
  Beta  occ. eigenvalues --   -0.80041  -0.79125  -0.77712  -0.77271  -0.76604
  Beta  occ. eigenvalues --   -0.76273  -0.75721  -0.75123  -0.74930  -0.74547
  Beta  occ. eigenvalues --   -0.73833  -0.73434  -0.72912  -0.72713  -0.72413
  Beta  occ. eigenvalues --   -0.72320  -0.72032  -0.71834  -0.71665  -0.71057
  Beta  occ. eigenvalues --   -0.70838  -0.70636  -0.70410  -0.70257  -0.69838
  Beta  occ. eigenvalues --   -0.69524  -0.69244  -0.68838  -0.68260  -0.67728
  Beta  occ. eigenvalues --   -0.67421  -0.64173  -0.63601  -0.63071  -0.62586
  Beta  occ. eigenvalues --   -0.62383  -0.61755  -0.61576  -0.61125  -0.61020
  Beta  occ. eigenvalues --   -0.60790  -0.60531  -0.60067  -0.59937  -0.59824
  Beta  occ. eigenvalues --   -0.59770  -0.59533  -0.59207  -0.59076  -0.58839
  Beta  occ. eigenvalues --   -0.58781  -0.58685  -0.58399  -0.58258  -0.58172
  Beta  occ. eigenvalues --   -0.58072  -0.57742  -0.57393  -0.57310  -0.56991
  Beta  occ. eigenvalues --   -0.56940  -0.56689  -0.56494  -0.56237  -0.55936
  Beta  occ. eigenvalues --   -0.55888  -0.55856  -0.55515  -0.55098  -0.54921
  Beta  occ. eigenvalues --   -0.54744  -0.54622  -0.54540  -0.54223  -0.54199
  Beta  occ. eigenvalues --   -0.53819  -0.53704  -0.53645  -0.53533  -0.53121
  Beta  occ. eigenvalues --   -0.52948  -0.52818  -0.52751  -0.52671  -0.52399
  Beta  occ. eigenvalues --   -0.52218  -0.51939  -0.51850  -0.51769  -0.51366
  Beta  occ. eigenvalues --   -0.50915  -0.50254  -0.48836  -0.48627  -0.47784
  Beta  occ. eigenvalues --   -0.47342  -0.45890  -0.45349  -0.43711  -0.43106
  Beta virt. eigenvalues --   -0.23881  -0.06034  -0.05436  -0.01221  -0.00273
  Beta virt. eigenvalues --    0.00419   0.01619   0.02627   0.04455   0.06347
  Beta virt. eigenvalues --    0.06769   0.08190   0.09400   0.09886   0.11891
  Beta virt. eigenvalues --    0.12502   0.13146   0.13898   0.14529   0.15806
  Beta virt. eigenvalues --    0.15876   0.16355   0.16605   0.17650   0.17940
  Beta virt. eigenvalues --    0.18486   0.18670   0.19208   0.19454   0.19956
  Beta virt. eigenvalues --    0.20063   0.20309   0.20474   0.20791   0.21217
  Beta virt. eigenvalues --    0.21541   0.21770   0.22173   0.22843   0.23000
  Beta virt. eigenvalues --    0.23434   0.23632   0.24478   0.25116   0.25962
  Beta virt. eigenvalues --    0.26120   0.26557   0.27127   0.28202   0.28501
  Beta virt. eigenvalues --    0.29587   0.30129   0.30984   0.31217   0.34000
  Beta virt. eigenvalues --    0.35034   0.39685   0.40580   0.40700   0.43297
  Beta virt. eigenvalues --    0.44961   0.45473   0.45692   0.45922   0.46314
  Beta virt. eigenvalues --    0.47244   0.48029   0.48397   0.48678   0.49208
  Beta virt. eigenvalues --    0.49554   0.49748   0.50333   0.50494   0.50708
  Beta virt. eigenvalues --    0.51361   0.51896   0.52374   0.52663   0.53468
  Beta virt. eigenvalues --    0.53743   0.54032   0.54524   0.55192   0.55685
  Beta virt. eigenvalues --    0.56236   0.56498   0.57815   0.58231   0.59023
  Beta virt. eigenvalues --    0.59528   0.60201   0.61442   0.62330   0.63161
  Beta virt. eigenvalues --    0.63993   0.66467   0.67593   0.67685   0.68490
  Beta virt. eigenvalues --    0.69706   0.70344   0.71666   0.72741   0.74372
  Beta virt. eigenvalues --    0.76041   0.76587   0.77552   0.78173   0.80154
  Beta virt. eigenvalues --    0.80689   0.82173   0.82950   0.84366   0.85174
  Beta virt. eigenvalues --    0.85888   0.87358   0.89328   0.89884   0.90410
  Beta virt. eigenvalues --    0.91123   0.91682   0.92560   0.93044   0.93765
  Beta virt. eigenvalues --    0.94321   0.95266   0.96373   0.97240   0.98150
  Beta virt. eigenvalues --    0.98718   0.98968   0.99838   1.00318   1.01048
  Beta virt. eigenvalues --    1.01896   1.02566   1.02982   1.03853   1.04545
  Beta virt. eigenvalues --    1.05398   1.05552   1.05959   1.06505   1.07419
  Beta virt. eigenvalues --    1.08074   1.08529   1.09311   1.09532   1.10435
  Beta virt. eigenvalues --    1.10669   1.11487   1.12179   1.12544   1.13037
  Beta virt. eigenvalues --    1.13270   1.13987   1.14511   1.14919   1.15373
  Beta virt. eigenvalues --    1.15749   1.16425   1.16810   1.17937   1.18173
  Beta virt. eigenvalues --    1.18472   1.19297   1.19657   1.20329   1.21201
  Beta virt. eigenvalues --    1.21519   1.21806   1.22570   1.23272   1.24110
  Beta virt. eigenvalues --    1.24274   1.24865   1.25261   1.25670   1.26058
  Beta virt. eigenvalues --    1.26203   1.27528   1.27716   1.28268   1.28558
  Beta virt. eigenvalues --    1.28854   1.29528   1.29970   1.30349   1.30759
  Beta virt. eigenvalues --    1.31397   1.31716   1.32234   1.32448   1.32504
  Beta virt. eigenvalues --    1.32989   1.33278   1.34038   1.34396   1.34729
  Beta virt. eigenvalues --    1.35019   1.35630   1.35933   1.36523   1.36840
  Beta virt. eigenvalues --    1.36988   1.37354   1.37715   1.38019   1.38079
  Beta virt. eigenvalues --    1.38245   1.38680   1.38971   1.39133   1.39818
  Beta virt. eigenvalues --    1.39997   1.41137   1.41451   1.42426   1.42803
  Beta virt. eigenvalues --    1.42905   1.43706   1.43897   1.44277   1.44625
  Beta virt. eigenvalues --    1.45330   1.45463   1.45934   1.46463   1.47219
  Beta virt. eigenvalues --    1.47553   1.48021   1.48306   1.48666   1.49078
  Beta virt. eigenvalues --    1.49358   1.49901   1.50644   1.51019   1.51635
  Beta virt. eigenvalues --    1.51947   1.52344   1.52976   1.54230   1.54311
  Beta virt. eigenvalues --    1.54890   1.55405   1.56266   1.56497   1.57145
  Beta virt. eigenvalues --    1.57449   1.58612   1.58828   1.59214   1.60477
  Beta virt. eigenvalues --    1.60812   1.61326   1.62601   1.63624   1.64195
  Beta virt. eigenvalues --    1.65084   1.65572   1.66095   1.66925   1.67209
  Beta virt. eigenvalues --    1.67919   1.68331   1.68546   1.69372   1.69927
  Beta virt. eigenvalues --    1.70258   1.71092   1.71415   1.71799   1.72573
  Beta virt. eigenvalues --    1.72841   1.73478   1.73677   1.74632   1.74960
  Beta virt. eigenvalues --    1.75151   1.76018   1.76788   1.76963   1.77407
  Beta virt. eigenvalues --    1.78442   1.78617   1.78916   1.79581   1.79752
  Beta virt. eigenvalues --    1.80715   1.81475   1.81857   1.81966   1.82161
  Beta virt. eigenvalues --    1.82471   1.82747   1.83239   1.83658   1.83938
  Beta virt. eigenvalues --    1.84174   1.84617   1.85000   1.85165   1.85331
  Beta virt. eigenvalues --    1.85623   1.86119   1.86199   1.86687   1.86809
  Beta virt. eigenvalues --    1.87431   1.87495   1.88177   1.88585   1.89085
  Beta virt. eigenvalues --    1.89218   1.89594   1.89891   1.89975   1.90654
  Beta virt. eigenvalues --    1.90731   1.91178   1.91279   1.91461   1.91903
  Beta virt. eigenvalues --    1.92337   1.92844   1.93133   1.93417   1.94092
  Beta virt. eigenvalues --    1.94600   1.94664   1.95027   1.95795   1.96102
  Beta virt. eigenvalues --    1.96275   1.97213   1.97665   1.97848   1.98193
  Beta virt. eigenvalues --    1.98424   1.98734   1.98959   1.99113   1.99380
  Beta virt. eigenvalues --    1.99667   1.99901   2.00391   2.00670   2.00861
  Beta virt. eigenvalues --    2.01008   2.01225   2.01413   2.01707   2.01966
  Beta virt. eigenvalues --    2.01996   2.02749   2.02942   2.03284   2.03470
  Beta virt. eigenvalues --    2.04666   2.04792   2.05229   2.05894   2.06189
  Beta virt. eigenvalues --    2.06349   2.06670   2.07243   2.07831   2.08101
  Beta virt. eigenvalues --    2.08645   2.09166   2.09298   2.09608   2.10168
  Beta virt. eigenvalues --    2.10683   2.10870   2.11597   2.12246   2.12554
  Beta virt. eigenvalues --    2.13639   2.13667   2.14176   2.14645   2.14994
  Beta virt. eigenvalues --    2.16375   2.16653   2.17241   2.17735   2.18216
  Beta virt. eigenvalues --    2.18398   2.18961   2.19236   2.20418   2.21446
  Beta virt. eigenvalues --    2.22099   2.22834   2.23550   2.24067   2.24482
  Beta virt. eigenvalues --    2.24997   2.25522   2.26056   2.26597   2.27717
  Beta virt. eigenvalues --    2.28429   2.29352   2.30721   2.32273   2.32935
  Beta virt. eigenvalues --    2.33989   2.35136   2.35507   2.36112   2.36805
  Beta virt. eigenvalues --    2.37082   2.37969   2.38744   2.38945   2.39992
  Beta virt. eigenvalues --    2.40942   2.42613   2.43000   2.43238   2.43905
  Beta virt. eigenvalues --    2.44294   2.45439   2.46279   2.46566   2.47457
  Beta virt. eigenvalues --    2.49330   2.49698   2.50510   2.52362   2.53560
  Beta virt. eigenvalues --    2.54706   2.55330   2.56101   2.56454   2.56953
  Beta virt. eigenvalues --    2.57632   2.58206   2.59231   2.60487   2.61229
  Beta virt. eigenvalues --    2.62165   2.62879   2.64219   2.65086   2.65746
  Beta virt. eigenvalues --    2.66731   2.68158   2.68838   2.69396   2.71312
  Beta virt. eigenvalues --    2.72187   2.72393   2.73418   2.74948   2.76163
  Beta virt. eigenvalues --    2.77389   2.78648   2.79244   2.80635   2.81208
  Beta virt. eigenvalues --    2.81746   2.82598   2.83100   2.84048   2.84566
  Beta virt. eigenvalues --    2.85396   2.86011   2.86765   2.87273   2.88295
  Beta virt. eigenvalues --    2.88687   2.89110   2.89904   2.90555   2.91427
  Beta virt. eigenvalues --    2.92368   2.93832   2.94827   2.95929   2.96922
  Beta virt. eigenvalues --    2.97469   3.00204   3.00583   3.01579   3.02393
  Beta virt. eigenvalues --    3.02863   3.03070   3.03341   3.03442   3.04288
  Beta virt. eigenvalues --    3.04674   3.05815   3.06746   3.07701   3.08871
  Beta virt. eigenvalues --    3.10145   3.10848   3.11686   3.13156   3.13305
  Beta virt. eigenvalues --    3.16128   3.17399   3.17572   3.19494   3.19772
  Beta virt. eigenvalues --    3.20571   3.22645   3.25222   3.25607   3.25645
  Beta virt. eigenvalues --    3.27014   3.28328   3.28525   3.29580   3.31219
  Beta virt. eigenvalues --    3.34840   3.37286   3.44183   3.63164   3.94950
  Beta virt. eigenvalues --    4.01922   4.03305   4.09128   4.15780   4.17923
  Beta virt. eigenvalues --    4.19247   4.23387   4.26814   4.30126   4.31583
  Beta virt. eigenvalues --    4.34567   4.36397   4.42426   4.42903   4.44604
  Beta virt. eigenvalues --    4.45306   4.46662   4.51314   4.52534   4.56537
  Beta virt. eigenvalues --    4.57569   4.64139   4.65595   4.67121   4.75170
  Beta virt. eigenvalues --    4.76530   4.80548   4.84203   4.87336   4.88848
  Beta virt. eigenvalues --    4.99769   5.06859   5.08783   5.19970   5.23027
  Beta virt. eigenvalues --    5.25596   5.31052   5.34536   5.40003   5.42324
  Beta virt. eigenvalues --    5.47925   5.60421   5.65620   5.87909   6.09282
  Beta virt. eigenvalues --    6.20058   6.21073   6.23678   6.58275   6.76198
          Condensed to atoms (all electrons):
          Atomic-Atomic Spin Densities.
 Mulliken charges and spin densities:
               1          2
     1  C   -0.167835   0.658199
     2  C    0.732203   0.078269
     3  N   -0.652660   0.130336
     4  C    0.737537  -0.007507
     5  F   -0.220677  -0.000125
     6  F   -0.252887   0.002956
     7  C    0.451926   0.003872
     8  F   -0.272005   0.004559
     9  O   -0.489630   0.001842
    10  C    0.990309  -0.000058
    11  F   -0.230776   0.000086
    12  F   -0.238079   0.000004
    13  F   -0.231065  -0.000002
    14  C    0.817513   0.000074
    15  F   -0.220418   0.000068
    16  F   -0.252417   0.000549
    17  F   -0.240945   0.000025
    18  C    0.866603  -0.022251
    19  O   -0.426541   0.033852
    20  N   -0.657043   0.014289
    21  C    0.761817  -0.000519
    22  F   -0.242316   0.000158
    23  F   -0.247376   0.000312
    24  C    0.441325   0.000897
    25  F   -0.249463   0.000027
    26  O   -0.514331   0.000034
    27  C    1.001396   0.000009
    28  F   -0.236780  -0.000002
    29  F   -0.239214   0.000019
    30  F   -0.238849   0.000005
    31  C    0.819604   0.000022
    32  F   -0.242369   0.000007
    33  F   -0.240372   0.000010
    34  F   -0.253900   0.000100
    35  C    0.892018  -0.023768
    36  O   -0.432054   0.033960
    37  N   -0.673868   0.141206
    38  C    0.748094  -0.009110
    39  F   -0.243958   0.002940
    40  F   -0.222650   0.002803
    41  C    0.443591   0.003258
    42  F   -0.238175   0.000230
    43  O   -0.528090   0.000686
    44  C    1.005454   0.000220
    45  F   -0.233447   0.000013
    46  F   -0.236128  -0.000001
    47  F   -0.231997   0.000098
    48  C    0.827408   0.000696
    49  F   -0.234470   0.000016
    50  F   -0.243659   0.000031
    51  F   -0.247922   0.000247
    52  H    0.243110  -0.026883
    53  H    0.244459  -0.026753
 Sum of Mulliken charges =   1.00000   1.00000
 Mulliken charges and spin densities with hydrogens summed into heavy atoms:
               1          2
     1  C    0.319734   0.604562
     2  C    0.732203   0.078269
     3  N   -0.652660   0.130336
     4  C    0.737537  -0.007507
     5  F   -0.220677  -0.000125
     6  F   -0.252887   0.002956
     7  C    0.451926   0.003872
     8  F   -0.272005   0.004559
     9  O   -0.489630   0.001842
    10  C    0.990309  -0.000058
    11  F   -0.230776   0.000086
    12  F   -0.238079   0.000004
    13  F   -0.231065  -0.000002
    14  C    0.817513   0.000074
    15  F   -0.220418   0.000068
    16  F   -0.252417   0.000549
    17  F   -0.240945   0.000025
    18  C    0.866603  -0.022251
    19  O   -0.426541   0.033852
    20  N   -0.657043   0.014289
    21  C    0.761817  -0.000519
    22  F   -0.242316   0.000158
    23  F   -0.247376   0.000312
    24  C    0.441325   0.000897
    25  F   -0.249463   0.000027
    26  O   -0.514331   0.000034
    27  C    1.001396   0.000009
    28  F   -0.236780  -0.000002
    29  F   -0.239214   0.000019
    30  F   -0.238849   0.000005
    31  C    0.819604   0.000022
    32  F   -0.242369   0.000007
    33  F   -0.240372   0.000010
    34  F   -0.253900   0.000100
    35  C    0.892018  -0.023768
    36  O   -0.432054   0.033960
    37  N   -0.673868   0.141206
    38  C    0.748094  -0.009110
    39  F   -0.243958   0.002940
    40  F   -0.222650   0.002803
    41  C    0.443591   0.003258
    42  F   -0.238175   0.000230
    43  O   -0.528090   0.000686
    44  C    1.005454   0.000220
    45  F   -0.233447   0.000013
    46  F   -0.236128  -0.000001
    47  F   -0.231997   0.000098
    48  C    0.827408   0.000696
    49  F   -0.234470   0.000016
    50  F   -0.243659   0.000031
    51  F   -0.247922   0.000247
 Electronic spatial extent (au):  <R**2>=          29522.6469
 Charge=              1.0000 electrons
 Dipole moment (field-independent basis, Debye):
    X=              7.4247    Y=              5.7864    Z=             -0.8252  Tot=              9.4493
 Quadrupole moment (field-independent basis, Debye-Ang):
   XX=           -243.4188   YY=           -248.7486   ZZ=           -260.5204
   XY=              6.2315   XZ=             -2.7708   YZ=             -1.4090
 Traceless Quadrupole moment (field-independent basis, Debye-Ang):
   XX=              7.4771   YY=              2.1473   ZZ=             -9.6245
   XY=              6.2315   XZ=             -2.7708   YZ=             -1.4090
 Octapole moment (field-independent basis, Debye-Ang**2):
  XXX=            151.4656  YYY=            130.9512  ZZZ=             43.4018  XYY=             32.5953
  XXY=             23.6940  XXZ=             15.4724  XZZ=             28.4096  YZZ=             12.4527
  YYZ=             10.1497  XYZ=              6.3193
 Hexadecapole moment (field-independent basis, Debye-Ang**3):
 XXXX=         -13645.1397 YYYY=         -13269.3485 ZZZZ=          -2902.1837 XXXY=            789.2034
 XXXZ=            373.9035 YYYX=            705.7112 YYYZ=             89.0284 ZZZX=            426.7912
 ZZZY=            152.0896 XXYY=          -4438.8900 XXZZ=          -2762.1169 YYZZ=          -2726.3272
 XXYZ=             65.8135 YYXZ=            143.5280 ZZXY=            249.7827
 N-N= 9.164740639414D+03 E-N=-2.737922453640D+04  KE= 3.817762417694D+03
                          Isotropic Fermi Contact Couplings
        Atom                 a.u.       MegaHertz       Gauss      10(-4) cm-1
     1  C(13)              0.05647      63.47848      22.65070      21.17414
     2  C(13)             -0.01246     -14.00944      -4.99892      -4.67305
     3  N(14)              0.02726       8.80682       3.14249       2.93764
     4  C(13)             -0.00465      -5.22637      -1.86490      -1.74333
     5  F(19)             -0.00037      -1.57281      -0.56122      -0.52463
     6  F(19)             -0.00148      -6.22064      -2.21968      -2.07498
     7  C(13)              0.00364       4.09259       1.46034       1.36514
     8  F(19)              0.00582      24.50305       8.74330       8.17334
     9  O(17)              0.00039      -0.23843      -0.08508      -0.07953
    10  C(13)             -0.00007      -0.07734      -0.02760      -0.02580
    11  F(19)              0.00003       0.10968       0.03914       0.03659
    12  F(19)             -0.00004      -0.17640      -0.06295      -0.05884
    13  F(19)              0.00002       0.09355       0.03338       0.03120
    14  C(13)              0.00022       0.25172       0.08982       0.08396
    15  F(19)             -0.00005      -0.20874      -0.07448      -0.06963
    16  F(19)              0.00009       0.36110       0.12885       0.12045
    17  F(19)             -0.00002      -0.07986      -0.02850      -0.02664
    18  C(13)             -0.00590      -6.63091      -2.36607      -2.21183
    19  O(17)              0.00366      -2.21989      -0.79211      -0.74048
    20  N(14)              0.00224       0.72307       0.25801       0.24119
    21  C(13)             -0.00065      -0.73017      -0.26054      -0.24356
    22  F(19)              0.00026       1.09764       0.39166       0.36613
    23  F(19)              0.00088       3.68664       1.31548       1.22973
    24  C(13)              0.00019       0.21018       0.07500       0.07011
    25  F(19)              0.00011       0.47103       0.16808       0.15712
    26  O(17)              0.00045      -0.27203      -0.09707      -0.09074
    27  C(13)             -0.00001      -0.01100      -0.00392      -0.00367
    28  F(19)              0.00000      -0.00976      -0.00348      -0.00326
    29  F(19)              0.00001       0.03762       0.01342       0.01255
    30  F(19)              0.00000       0.00936       0.00334       0.00312
    31  C(13)              0.00007       0.08121       0.02898       0.02709
    32  F(19)              0.00000      -0.01958      -0.00699      -0.00653
    33  F(19)              0.00000       0.01179       0.00421       0.00393
    34  F(19)              0.00002       0.06653       0.02374       0.02219
    35  C(13)             -0.00640      -7.19110      -2.56596      -2.39869
    36  O(17)              0.00354      -2.14340      -0.76482      -0.71496
    37  N(14)              0.02824       9.12598       3.25638       3.04410
    38  C(13)             -0.00208      -2.33952      -0.83480      -0.78038
    39  F(19)             -0.00011      -0.46592      -0.16625      -0.15541
    40  F(19)              0.00023       0.97211       0.34687       0.32426
    41  C(13)              0.00272       3.05526       1.09019       1.01912
    42  F(19)             -0.00002      -0.08000      -0.02855      -0.02669
    43  O(17)              0.00307      -1.85873      -0.66324      -0.62001
    44  C(13)              0.00028       0.31685       0.11306       0.10569
    45  F(19)              0.00001       0.02711       0.00967       0.00904
    46  F(19)             -0.00001      -0.05933      -0.02117      -0.01979
    47  F(19)              0.00006       0.27150       0.09688       0.09056
    48  C(13)              0.00069       0.77797       0.27760       0.25950
    49  F(19)             -0.00001      -0.05807      -0.02072      -0.01937
    50  F(19)              0.00005       0.20264       0.07231       0.06759
    51  F(19)              0.00008       0.35410       0.12635       0.11812
    52  H(1)              -0.01061     -47.40391     -16.91489     -15.81224
    53  H(1)              -0.01066     -47.64199     -16.99985     -15.89166
 --------------------------------------------------------
       Center         ----  Spin Dipole Couplings  ----
                      3XX-RR        3YY-RR        3ZZ-RR
 --------------------------------------------------------
     1   Atom       -0.313415     -0.345308      0.658724
     2   Atom       -0.032630     -0.062101      0.094731
     3   Atom       -0.093892     -0.167514      0.261405
     4   Atom        0.001099      0.005361     -0.006460
     5   Atom        0.004004     -0.002918     -0.001086
     6   Atom        0.022298     -0.012314     -0.009984
     7   Atom       -0.000647     -0.000275      0.000923
     8   Atom        0.002889     -0.002362     -0.000527
     9   Atom       -0.004094      0.006097     -0.002003
    10   Atom       -0.000194      0.001053     -0.000859
    11   Atom       -0.000554      0.001029     -0.000475
    12   Atom       -0.000482      0.001119     -0.000637
    13   Atom        0.000335      0.000432     -0.000767
    14   Atom        0.001794     -0.000592     -0.001202
    15   Atom        0.000853      0.000308     -0.001161
    16   Atom        0.005451     -0.004569     -0.000882
    17   Atom        0.000440     -0.000328     -0.000112
    18   Atom        0.018381      0.007675     -0.026056
    19   Atom       -0.060477     -0.062152      0.122629
    20   Atom       -0.005547     -0.015345      0.020892
    21   Atom        0.001200      0.000366     -0.001565
    22   Atom       -0.000870      0.002191     -0.001320
    23   Atom        0.000676     -0.001776      0.001100
    24   Atom        0.001305     -0.000439     -0.000866
    25   Atom        0.001055     -0.000535     -0.000519
    26   Atom        0.001183     -0.000138     -0.001046
    27   Atom        0.000297      0.000016     -0.000313
    28   Atom        0.000052      0.000019     -0.000071
    29   Atom        0.000403     -0.000224     -0.000179
    30   Atom        0.000123      0.000163     -0.000286
    31   Atom        0.000439      0.000066     -0.000504
    32   Atom        0.000164      0.000151     -0.000316
    33   Atom        0.000489     -0.000120     -0.000369
    34   Atom        0.000679      0.000035     -0.000714
    35   Atom        0.004625      0.016043     -0.020668
    36   Atom       -0.011471     -0.059062      0.070532
    37   Atom       -0.073209     -0.159396      0.232605
    38   Atom       -0.001779      0.005250     -0.003471
    39   Atom       -0.019370      0.036549     -0.017179
    40   Atom       -0.013149      0.008810      0.004339
    41   Atom        0.001732      0.003068     -0.004799
    42   Atom        0.000076      0.000835     -0.000912
    43   Atom       -0.001048      0.006277     -0.005229
[...]
    50   Atom        0.000652      0.000120     -0.000771
    51   Atom        0.000845      0.000752     -0.001597
    52   Atom        0.042695     -0.037975     -0.004720
    53   Atom       -0.043230      0.052868     -0.009638
 --------------------------------------------------------
                        XY            XZ            YZ
 --------------------------------------------------------
     1   Atom       -0.032337     -0.233399      0.151374
     2   Atom        0.011883     -0.054885      0.028876
     3   Atom       -0.017401     -0.161445      0.048054
     4   Atom       -0.005108      0.003419     -0.000772
     5   Atom       -0.002868      0.004995     -0.001664
     6   Atom       -0.003628     -0.016593     -0.004552
     7   Atom       -0.005602     -0.004225      0.005070
     8   Atom       -0.027002     -0.026748      0.024947
     9   Atom       -0.005806     -0.002187      0.006775
    10   Atom       -0.001204      0.000200     -0.000242
    11   Atom       -0.000762      0.000172     -0.000597
    12   Atom       -0.001063      0.000440     -0.000868
    13   Atom       -0.001111      0.000193     -0.000193
    14   Atom       -0.001591     -0.001481      0.001034
    15   Atom       -0.001053     -0.000160      0.000973
    16   Atom       -0.000466     -0.005755      0.000353
    17   Atom       -0.001102     -0.001090      0.000950
    18   Atom        0.004098      0.006130      0.002832
    19   Atom       -0.002016      0.011368      0.044462
    20   Atom        0.003662     -0.016268      0.001044
    21   Atom        0.001642      0.001053      0.000545
    22   Atom        0.001570      0.000869      0.000900
    23   Atom        0.002984      0.003609      0.002680
    24   Atom        0.001543     -0.000918     -0.000518
    25   Atom        0.000921     -0.000103     -0.000301
    26   Atom        0.001105     -0.000859     -0.000413
    27   Atom        0.000651     -0.000432     -0.000359
    28   Atom        0.000532     -0.000498     -0.000467
    29   Atom        0.000450     -0.000493     -0.000212
    30   Atom        0.000507     -0.000206     -0.000242
    31   Atom        0.000722      0.000199      0.000140
    32   Atom        0.000575      0.000098      0.000099
    33   Atom        0.000489      0.000151      0.000142
    34   Atom        0.000997      0.000169      0.000105
    35   Atom        0.009876      0.015551     -0.002864
    36   Atom       -0.002946     -0.087986      0.004876
    37   Atom       -0.028432     -0.212572      0.066543
    38   Atom       -0.002783      0.002222     -0.003261
    39   Atom       -0.006833      0.004261      0.000816
    40   Atom       -0.008003      0.007236     -0.020846
    41   Atom       -0.006872     -0.002476      0.001923
    42   Atom       -0.001960     -0.003079      0.001585
    43   Atom       -0.006587     -0.002625      0.003826
    44   Atom       -0.001814     -0.001550      0.001007
    45   Atom       -0.001066     -0.001660      0.000909
    46   Atom       -0.001205     -0.000510      0.000277
    47   Atom       -0.001493     -0.001139      0.001187
    48   Atom       -0.002053      0.001111     -0.000978
    49   Atom       -0.000982      0.000237     -0.000566
    50   Atom       -0.001752      0.001177     -0.000957
    51   Atom       -0.002481      0.000767     -0.000646
    52   Atom       -0.026104      0.015060     -0.001133
    53   Atom        0.007452     -0.009330     -0.005460
 --------------------------------------------------------


 ---------------------------------------------------------------------------------
              Anisotropic Spin Dipole Couplings in Principal Axis System
 ---------------------------------------------------------------------------------

       Atom             a.u.   MegaHertz   Gauss  10(-4) cm-1        Axes

              Baa    -0.3691   -49.534   -17.675   -16.523 -0.5816  0.7753 -0.2462
     1 C(13)  Bbb    -0.3649   -48.969   -17.473   -16.334  0.7833  0.6154  0.0876
              Bcc     0.7341    98.503    35.148    32.857 -0.2195  0.1419  0.9652
 
              Baa    -0.0809   -10.856    -3.874    -3.621 -0.5326  0.7926 -0.2968
     2 C(13)  Bbb    -0.0372    -4.990    -1.780    -1.664  0.7792  0.5961  0.1937
              Bcc     0.1181    15.845     5.654     5.285 -0.3304  0.1281  0.9351
 
              Baa    -0.1728    -6.666    -2.379    -2.224 -0.0244  0.9926 -0.1189
     3 N(14)  Bbb    -0.1562    -6.025    -2.150    -2.010  0.9332  0.0652  0.3533
              Bcc     0.3291    12.691     4.529     4.233 -0.3584  0.1024  0.9279
 
              Baa    -0.0079    -1.059    -0.378    -0.353 -0.4040 -0.1027  0.9090
     4 C(13)  Bbb    -0.0013    -0.174    -0.062    -0.058  0.7111  0.5898  0.3827
              Bcc     0.0092     1.233     0.440     0.411 -0.5754  0.8010 -0.1652
 
              Baa    -0.0042    -2.094    -0.747    -0.699 -0.5700 -0.2782  0.7731
     5 F(19)  Bbb    -0.0039    -1.956    -0.698    -0.653  0.0847  0.9160  0.3920
              Bcc     0.0081     4.051     1.445     1.351  0.8173 -0.2890  0.4986
 
              Baa    -0.0207   -10.417    -3.717    -3.475  0.3394  0.5560  0.7588
     6 F(19)  Bbb    -0.0086    -4.331    -1.545    -1.445 -0.1847  0.8303 -0.5258
              Bcc     0.0294    14.748     5.263     4.919  0.9223 -0.0383 -0.3845
 
              Baa    -0.0061    -0.824    -0.294    -0.275  0.6474  0.7474 -0.1493
     7 C(13)  Bbb    -0.0038    -0.511    -0.182    -0.171  0.5292 -0.2998  0.7937
              Bcc     0.0100     1.335     0.476     0.445 -0.5485  0.5929  0.5896
 
              Baa    -0.0270   -13.559    -4.838    -4.523  0.5140  0.8196 -0.2531
     8 F(19)  Bbb    -0.0256   -12.848    -4.584    -4.286  0.6056 -0.1378  0.7837
              Bcc     0.0526    26.407     9.423     8.808  0.6075 -0.5561 -0.5672
 
              Baa    -0.0071     0.511     0.182     0.170  0.7549  0.5311 -0.3848
     9 O(17)  Bbb    -0.0052     0.375     0.134     0.125  0.5534 -0.2007  0.8084
              Bcc     0.0122    -0.886    -0.316    -0.296 -0.3521  0.8232  0.4454
 
              Baa    -0.0010    -0.128    -0.046    -0.043  0.7313  0.3688 -0.5738
    10 C(13)  Bbb    -0.0009    -0.116    -0.041    -0.039  0.4440  0.3813  0.8109
              Bcc     0.0018     0.244     0.087     0.082 -0.5178  0.8477 -0.1151
 
              Baa    -0.0009    -0.441    -0.157    -0.147  0.8636  0.4281  0.2661
    11 F(19)  Bbb    -0.0006    -0.326    -0.116    -0.109 -0.3630  0.1620  0.9176
              Bcc     0.0015     0.767     0.274     0.256 -0.3498  0.8891 -0.2953
 
              Baa    -0.0010    -0.509    -0.182    -0.170  0.9010  0.3389 -0.2707
    12 F(19)  Bbb    -0.0010    -0.499    -0.178    -0.166  0.1102  0.4248  0.8985
              Bcc     0.0020     1.008     0.360     0.336 -0.4195  0.8394 -0.3455
 
              Baa    -0.0008    -0.402    -0.143    -0.134 -0.1404  0.0287  0.9897
    13 F(19)  Bbb    -0.0007    -0.366    -0.131    -0.122  0.7130  0.6965  0.0809
              Bcc     0.0015     0.767     0.274     0.256 -0.6870  0.7170 -0.1182
 
              Baa    -0.0020    -0.269    -0.096    -0.090  0.1375 -0.4787  0.8671
    14 C(13)  Bbb    -0.0013    -0.174    -0.062    -0.058  0.5532  0.7633  0.3336
              Bcc     0.0033     0.443     0.158     0.148  0.8216 -0.4339 -0.3698
 
              Baa    -0.0017    -0.852    -0.304    -0.284 -0.1507 -0.4948  0.8559
    15 F(19)  Bbb    -0.0002    -0.079    -0.028    -0.026  0.6763  0.5799  0.4543
              Bcc     0.0019     0.931     0.332     0.310  0.7211 -0.6473 -0.2472
 
              Baa    -0.0046    -2.314    -0.826    -0.772 -0.0660  0.9787 -0.1946
    16 F(19)  Bbb    -0.0043    -2.145    -0.765    -0.715  0.5062  0.2009  0.8387
              Bcc     0.0089     4.459     1.591     1.487  0.8599 -0.0431 -0.5086
 
              Baa    -0.0012    -0.602    -0.215    -0.201  0.2279  0.8347 -0.5013
    17 F(19)  Bbb    -0.0009    -0.474    -0.169    -0.158  0.7039  0.2145  0.6771
              Bcc     0.0021     1.077     0.384     0.359  0.6728 -0.5072 -0.5387
 
              Baa    -0.0270    -3.628    -1.295    -1.210 -0.1276 -0.0657  0.9896
    18 C(13)  Bbb     0.0063     0.846     0.302     0.282 -0.3303  0.9437  0.0200
              Bcc     0.0207     2.782     0.993     0.928  0.9352  0.3243  0.1421
 
              Baa    -0.0739     5.345     1.907     1.783  0.3302  0.9163 -0.2264
    19 O(17)  Bbb    -0.0595     4.305     1.536     1.436  0.9423 -0.3340  0.0227
              Bcc     0.1334    -9.649    -3.443    -3.219  0.0548  0.2209  0.9738
 
              Baa    -0.0182    -0.703    -0.251    -0.234 -0.5519  0.7953 -0.2508
    20 N(14)  Bbb    -0.0104    -0.402    -0.144    -0.134  0.7140  0.6061  0.3506
              Bcc     0.0286     1.105     0.394     0.368 -0.4309 -0.0145  0.9023
 
              Baa    -0.0019    -0.258    -0.092    -0.086 -0.3226  0.0059  0.9465
    21 C(13)  Bbb    -0.0009    -0.117    -0.042    -0.039 -0.5483  0.8139 -0.1919
              Bcc     0.0028     0.374     0.134     0.125  0.7715  0.5809  0.2594
 
              Baa    -0.0020    -1.014    -0.362    -0.338 -0.6843  0.1008  0.7222
    22 F(19)  Bbb    -0.0011    -0.573    -0.204    -0.191  0.6108 -0.4616  0.6432
              Bcc     0.0032     1.587     0.566     0.529  0.3982  0.8813  0.2544
 
              Baa    -0.0038    -1.910    -0.681    -0.637 -0.4818  0.8680 -0.1199
    23 F(19)  Bbb    -0.0026    -1.329    -0.474    -0.443 -0.6108 -0.2346  0.7563
              Bcc     0.0064     3.238     1.156     1.080  0.6284  0.4376  0.6432
 
              Baa    -0.0013    -0.180    -0.064    -0.060 -0.5255  0.8457 -0.0932
    24 C(13)  Bbb    -0.0012    -0.160    -0.057    -0.053  0.2058  0.2326  0.9505
              Bcc     0.0025     0.340     0.121     0.113  0.8255  0.4803 -0.2963
 
              Baa    -0.0011    -0.532    -0.190    -0.177 -0.3485  0.8453  0.4050
    25 F(19)  Bbb    -0.0004    -0.222    -0.079    -0.074  0.2635 -0.3263  0.9078
              Bcc     0.0015     0.754     0.269     0.251  0.8995  0.4231 -0.1090
 
              Baa    -0.0013     0.097     0.035     0.032  0.3024  0.0495  0.9519
    26 O(17)  Bbb    -0.0008     0.055     0.020     0.018 -0.4584  0.8831  0.0997
              Bcc     0.0021    -0.152    -0.054    -0.051  0.8357  0.4665 -0.2897
 
              Baa    -0.0005    -0.073    -0.026    -0.024  0.1669  0.3866  0.9070
    27 C(13)  Bbb    -0.0005    -0.068    -0.024    -0.023 -0.6751  0.7153 -0.1806
              Bcc     0.0011     0.141     0.050     0.047  0.7186  0.5822 -0.3804
 
              Baa    -0.0005    -0.257    -0.092    -0.086  0.7013 -0.0790  0.7085
    28 F(19)  Bbb    -0.0005    -0.246    -0.088    -0.082 -0.3715  0.8077  0.4579
              Bcc     0.0010     0.503     0.180     0.168  0.6084  0.5843 -0.5371
 
              Baa    -0.0005    -0.245    -0.088    -0.082  0.5991 -0.5597  0.5725
    29 F(19)  Bbb    -0.0004    -0.208    -0.074    -0.069  0.0177  0.7241  0.6894
              Bcc     0.0009     0.453     0.162     0.151  0.8005  0.4029 -0.4437
 
              Baa    -0.0004    -0.198    -0.071    -0.066 -0.2019  0.5386  0.8180
    30 F(19)  Bbb    -0.0004    -0.177    -0.063    -0.059  0.7244 -0.4800  0.4948
              Bcc     0.0007     0.375     0.134     0.125  0.6591  0.6925 -0.2933
 
              Baa    -0.0005    -0.073    -0.026    -0.024 -0.2437  0.0658  0.9676
    31 C(13)  Bbb    -0.0005    -0.066    -0.024    -0.022 -0.5743  0.7942 -0.1986
              Bcc     0.0010     0.139     0.050     0.046  0.7815  0.6041  0.1558
 
              Baa    -0.0004    -0.210    -0.075    -0.070 -0.7007  0.7131 -0.0240
    32 F(19)  Bbb    -0.0003    -0.168    -0.060    -0.056 -0.1090 -0.0737  0.9913
              Bcc     0.0008     0.377     0.135     0.126  0.7051  0.6972  0.1294
 
              Baa    -0.0004    -0.225    -0.080    -0.075  0.2164 -0.6416  0.7359
    33 F(19)  Bbb    -0.0003    -0.175    -0.062    -0.058 -0.4659  0.5946  0.6553
              Bcc     0.0008     0.399     0.142     0.133  0.8580  0.4846  0.1702
 
              Baa    -0.0007    -0.370    -0.132    -0.124 -0.2467  0.1894  0.9504
    34 F(19)  Bbb    -0.0007    -0.345    -0.123    -0.115 -0.5389  0.7882 -0.2970
              Bcc     0.0014     0.715     0.255     0.238  0.8054  0.5855  0.0924
 
              Baa    -0.0291    -3.909    -1.395    -1.304 -0.4503  0.1542  0.8795
    35 C(13)  Bbb     0.0066     0.881     0.314     0.294  0.6828 -0.5753  0.4504
              Bcc     0.0226     3.028     1.081     1.010  0.5754  0.8033  0.1537
 
              Baa    -0.0675     4.887     1.744     1.630  0.8430 -0.0164  0.5377
    36 O(17)  Bbb    -0.0592     4.286     1.529     1.430  0.0303  0.9994 -0.0170
              Bcc     0.1268    -9.173    -3.273    -3.060 -0.5371  0.0306  0.8429
 
              Baa    -0.1839    -7.093    -2.531    -2.366  0.8197 -0.3266  0.4705
    37 N(14)  Bbb    -0.1678    -6.473    -2.310    -2.159  0.3538  0.9347  0.0325
              Bcc     0.3517    13.566     4.841     4.525 -0.4504  0.1399  0.8818
 
              Baa    -0.0052    -0.695    -0.248    -0.232 -0.4480  0.1558  0.8804
    38 C(13)  Bbb    -0.0024    -0.318    -0.114    -0.106  0.8264  0.4479  0.3413
              Bcc     0.0075     1.013     0.361     0.338 -0.3412  0.8804 -0.3294
 
              Baa    -0.0233   -11.687    -4.170    -3.898  0.8089  0.1003 -0.5794
    39 F(19)  Bbb    -0.0141    -7.083    -2.527    -2.363  0.5758  0.0645  0.8150
              Bcc     0.0374    18.770     6.698     6.261 -0.1191  0.9929  0.0056
 
              Baa    -0.0158    -7.952    -2.837    -2.652  0.9702  0.1644 -0.1781
    40 F(19)  Bbb    -0.0144    -7.227    -2.579    -2.411  0.0219  0.6724  0.7399
              Bcc     0.0302    15.179     5.416     5.063 -0.2414  0.7217 -0.6487
 
              Baa    -0.0057    -0.763    -0.272    -0.254  0.4273  0.1392  0.8933
    41 C(13)  Bbb    -0.0043    -0.573    -0.204    -0.191  0.6143  0.6803 -0.3998
              Bcc     0.0100     1.335     0.477     0.445 -0.6634  0.7196  0.2052
 
              Baa    -0.0035    -1.776    -0.634    -0.593  0.6545  0.0194  0.7558
    42 F(19)  Bbb    -0.0009    -0.461    -0.164    -0.154  0.4216  0.8204 -0.3862
              Bcc     0.0045     2.237     0.798     0.746  0.6276 -0.5714 -0.5288
 
              Baa    -0.0066     0.476     0.170     0.159  0.2925 -0.1321  0.9471
    43 O(17)  Bbb    -0.0049     0.352     0.126     0.117  0.8194  0.5453 -0.1770
              Bcc     0.0114    -0.828    -0.295    -0.276 -0.4930  0.8278  0.2677
 
              Baa    -0.0017    -0.234    -0.084    -0.078  0.5259  0.0609  0.8484
    44 C(13)  Bbb    -0.0014    -0.191    -0.068    -0.064  0.4287  0.8425 -0.3262
              Bcc     0.0032     0.425     0.152     0.142  0.7346 -0.5352 -0.4169
 
              Baa    -0.0014    -0.694    -0.248    -0.232  0.4971 -0.2955  0.8159
    45 F(19)  Bbb    -0.0012    -0.626    -0.223    -0.209  0.4899  0.8716  0.0172
              Bcc     0.0026     1.321     0.471     0.440  0.7162 -0.3912 -0.5780
 
              Baa    -0.0010    -0.519    -0.185    -0.173  0.2596  0.0547  0.9642
    46 F(19)  Bbb    -0.0009    -0.458    -0.164    -0.153  0.4702  0.8649 -0.1757
              Bcc     0.0019     0.977     0.349     0.326  0.8435 -0.4989 -0.1988
 
              Baa    -0.0014    -0.682    -0.243    -0.228  0.6240  0.0025  0.7814
    47 F(19)  Bbb    -0.0013    -0.628    -0.224    -0.210  0.5067  0.7600 -0.4070
              Bcc     0.0026     1.311     0.468     0.437 -0.5949  0.6499  0.4730
 
              Baa    -0.0017    -0.231    -0.082    -0.077  0.7103  0.3487 -0.6115
    48 C(13)  Bbb    -0.0014    -0.184    -0.066    -0.061  0.3070  0.6282  0.7149
              Bcc     0.0031     0.415     0.148     0.138 -0.6335  0.6955 -0.3392
 
              Baa    -0.0010    -0.490    -0.175    -0.163  0.8351  0.5260  0.1611
    49 F(19)  Bbb    -0.0005    -0.272    -0.097    -0.091 -0.2966  0.1838  0.9372
              Bcc     0.0015     0.762     0.272     0.254 -0.4634  0.8304 -0.3095
 
              Baa    -0.0014    -0.724    -0.258    -0.242 -0.6133 -0.2238  0.7575
    50 F(19)  Bbb    -0.0014    -0.683    -0.244    -0.228  0.3648  0.7703  0.5230
              Bcc     0.0028     1.407     0.502     0.469  0.7006 -0.5971  0.3908
 
              Baa    -0.0018    -0.920    -0.328    -0.307 -0.4382 -0.2020  0.8759
    51 F(19)  Bbb    -0.0016    -0.827    -0.295    -0.276  0.5611  0.6998  0.4421
              Bcc     0.0035     1.746     0.623     0.582  0.7023 -0.6852  0.1933
 
              Baa    -0.0459   -24.514    -8.747    -8.177  0.2943  0.9523 -0.0813
    52 H(1)   Bbb    -0.0082    -4.360    -1.556    -1.454 -0.2104  0.1476  0.9664
              Bcc     0.0541    28.874    10.303     9.631  0.9323 -0.2673  0.2438
 
              Baa    -0.0460   -24.542    -8.757    -8.186  0.9690 -0.0598  0.2397
    53 H(1)   Bbb    -0.0080    -4.294    -1.532    -1.432 -0.2318  0.1149  0.9659
              Bcc     0.0540    28.836    10.289     9.619  0.0853  0.9916 -0.0975
 

 ---------------------------------------------------------------------------------

 No NMR shielding tensors so no spin-rotation constants.
 Leave Link  601 at Sun Mar  3 18:18:43 2024, MaxMem=  5368709120 cpu:         6.7
 (Enter /home/k0335/k033513/app/g09/l9999.exe)
 1\1\GINC-C18U01N4\SP\UCAM-B3LYP\6-31G(d,p)\C16H2F27N3O5(1+,2)\K033513\
 03-Mar-2024\0\\#p CAM-B3LYP/6-31G(d,p) SCRF=(PCM,Solvent=Generic,Read)
  NoSymm out=wfn\\Title A156206681_p1\\1,2\C,0,2.229218,1.676448,0.0477
 15\C,0,1.148326,0.895493,-0.131553\N,0,-0.070442,1.418079,-0.574961\C,
 0,-0.346522,2.867126,-0.702852\F,0,-1.32589,3.096704,-1.621392\F,0,0.7
 44772,3.452264,-1.294333\C,0,-0.653117,3.650349,0.601896\F,0,0.34445,3
 .335551,1.507627\O,0,-0.527009,5.079816,0.518891\C,0,-1.250566,5.68508
 ,-0.52192\F,0,-1.284946,7.011384,-0.298791\F,0,-0.637364,5.462929,-1.6
 93568\F,0,-2.504247,5.224062,-0.564779\C,0,-1.964612,3.172289,1.227119
 \F,0,-3.031082,3.252137,0.414582\F,0,-1.863625,1.885933,1.64691\F,0,-2
 .256558,3.909248,2.330462\C,0,-1.157009,0.590754,-0.803016\O,0,-2.2957
 47,1.038228,-0.896433\N,0,-0.898566,-0.74723,-0.918058\C,0,-2.014374,-
 1.612566,-1.281511\F,0,-1.517307,-2.75761,-1.834714\F,0,-2.684628,-1.0
 34153,-2.321081\C,0,-3.001159,-1.961332,-0.134301\F,0,-3.658525,-0.829
 879,0.254977\O,0,-2.272326,-2.386634,1.02237\C,0,-3.087149,-2.945816,2
 .017834\F,0,-2.388311,-2.988399,3.167227\F,0,-4.191309,-2.208633,2.211
 584\F,0,-3.420875,-4.198302,1.668493\C,0,-3.997935,-2.955203,-0.747391
 \F,0,-3.415424,-4.139337,-1.041292\F,0,-4.571227,-2.494976,-1.880679\F
 ,0,-5.01605,-3.227162,0.105192\C,0,0.175196,-1.324579,-0.293362\O,0,0.
 230168,-2.537571,-0.102057\N,0,1.185305,-0.474274,0.131929\C,0,2.30681
 4,-1.170628,0.808537\F,0,2.991748,-0.294006,1.601484\F,0,1.78794,-2.04
 6044,1.714403\C,0,3.30231,-1.873385,-0.152293\F,0,2.64884,-2.772616,-0
 .938722\O,0,3.830383,-0.882304,-1.050634\C,0,4.898517,-1.360309,-1.827
 97\F,0,5.064239,-0.527221,-2.871698\F,0,6.017609,-1.346504,-1.086579\F
 ,0,4.657956,-2.595233,-2.289378\C,0,4.310635,-2.592709,0.75307\F,0,3.7
 31942,-3.443528,1.625804\F,0,5.047419,-1.712865,1.470451\F,0,5.187613,
 -3.331016,0.030659\H,0,3.205589,1.320635,0.352679\H,0,2.256915,2.74751
 7,-0.110626\\Version=ES64L-G09RevD.01\HF=-3845.5809844\S2=0.756097\S2-
 1=0.\S2A=0.750025\RMSD=7.220e-09\Dipole=3.1363579,2.4432854,-0.2302902
 \Quadrupole=5.5590589,1.5964907,-7.1555495,4.632991,-2.0600133,-1.0475
 647\PG=C01 [X(C16H2F27N3O5)]\\@

 Writing a WFN file to "A156206681/A156206681_p1.wfn"


 MOST BUREAUCRACIES FUNCTION LIKE A SEPTIC TANK.
 THE LARGE CHUNKS RISE TO THE TOP.
 Job cpu time:       0 days  1 hours  2 minutes 21.1 seconds.
 File lengths (MBytes):  RWF=    873 Int=      0 D2E=      0 Chk=     30 Scr=      1
 Normal termination of Gaussian 09 at Sun Mar  3 18:18:43 2024.
