 Entering Gaussian System, Link 0=g09
 Initial command:
 /home/k0335/k033513/app/g09/l1.exe "/home/k0335/k033513/app/g09/scratch/Gau-288020.inp" -scrdir="/home/k0335/k033513/app/g09/scratch/"
 Default is to use a total of  36 processors:
                               36 via shared-memory
                                1 via Linda
 Entering Link 1 = /home/k0335/k033513/app/g09/l1.exe PID=    288021.
  
 Copyright (c) 1988,1990,1992,1993,1995,1998,2003,2009,2013,
            Gaussian, Inc.  All Rights Reserved.
  
 This is part of the Gaussian(R) 09 program.  It is based on
 the Gaussian(R) 03 system (copyright 2003, Gaussian, Inc.),
 the Gaussian(R) 98 system (copyright 1998, Gaussian, Inc.),
 the Gaussian(R) 94 system (copyright 1995, Gaussian, Inc.),
 the Gaussian 92(TM) system (copyright 1992, Gaussian, Inc.),
 the Gaussian 90(TM) system (copyright 1990, Gaussian, Inc.),
 the Gaussian 88(TM) system (copyright 1988, Gaussian, Inc.),
 the Gaussian 86(TM) system (copyright 1986, Carnegie Mellon
 University), and the Gaussian 82(TM) system (copyright 1983,
 Carnegie Mellon University). Gaussian is a federally registered
 trademark of Gaussian, Inc.
  
 This software contains proprietary and confidential information,
 including trade secrets, belonging to Gaussian, Inc.
  
 This software is provided under written license and may be
 used, copied, transmitted, or stored only in accord with that
 written license.
  
 The following legend is applicable only to US Government
 contracts under FAR:
  
                    RESTRICTED RIGHTS LEGEND
  
 Use, reproduction and disclosure by the US Government is
 subject to restrictions as set forth in subparagraphs (a)
 and (c) of the Commercial Computer Software - Restricted
 Rights clause in FAR 52.227-19.
  
 Gaussian, Inc.
 340 Quinnipiac St., Bldg. 40, Wallingford CT 06492
  
  
 ---------------------------------------------------------------
 Warning -- This program may not be used in any manner that
 competes with the business of Gaussian, Inc. or will provide
 assistance to any competitor of Gaussian, Inc.  The licensee
 of this program is prohibited from giving any competitor of
 Gaussian, Inc. access to this program.  By using this program,
 the user acknowledges that Gaussian, Inc. is engaged in the
 business of creating and licensing software in the field of
 computational chemistry and represents and warrants to the
 licensee that it is not a competitor of Gaussian, Inc. and that
 it will not use this program in any manner prohibited above.
 ---------------------------------------------------------------
  

 Cite this work as:
 Gaussian 09, Revision D.01,
 M. J. Frisch, G. W. Trucks, H. B. Schlegel, G. E. Scuseria, 
 M. A. Robb, J. R. Cheeseman, G. Scalmani, V. Barone, B. Mennucci, 
 G. A. Petersson, H. Nakatsuji, M. Caricato, X. Li, H. P. Hratchian, 
 A. F. Izmaylov, J. Bloino, G. Zheng, J. L. Sonnenberg, M. Hada, 
 M. Ehara, K. Toyota, R. Fukuda, J. Hasegawa, M. Ishida, T. Nakajima, 
 Y. Honda, O. Kitao, H. Nakai, T. Vreven, J. A. Montgomery, Jr., 
 J. E. Peralta, F. Ogliaro, M. Bearpark, J. J. Heyd, E. Brothers, 
 K. N. Kudin, V. N. Staroverov, T. Keith, R. Kobayashi, J. Normand, 
 K. Raghavachari, A. Rendell, J. C. Burant, S. S. Iyengar, J. Tomasi, 
 M. Cossi, N. Rega, J. M. Millam, M. Klene, J. E. Knox, J. B. Cross, 
 V. Bakken, C. Adamo, J. Jaramillo, R. Gomperts, R. E. Stratmann, 
 O. Yazyev, A. J. Austin, R. Cammi, C. Pomelli, J. W. Ochterski, 
 R. L. Martin, K. Morokuma, V. G. Zakrzewski, G. A. Voth, 
 P. Salvador, J. J. Dannenberg, S. Dapprich, A. D. Daniels, 
 O. Farkas, J. B. Foresman, J. V. Ortiz, J. Cioslowski, 
 and D. J. Fox, Gaussian, Inc., Wallingford CT, 2013.
 
 ******************************************
 Gaussian 09:  ES64L-G09RevD.01 24-Apr-2013
                 3-Mar-2024 
 ******************************************
 %nprocshared=24
 Will use up to   24 processors via shared memory.
 %mem=40GB
 %rwf=A139312/A139312_p1.rwf
 %nosave
 %chk=A139312/A139312_p1.chk
 ----------------------------------------------------------------------
 #p CAM-B3LYP/6-31G(d,p) SCRF=(PCM,Solvent=Generic,Read) NoSymm out=wfn
 ----------------------------------------------------------------------
 1/38=1,40=2/1;
 2/12=2,15=1,17=6,18=5,40=1/2;
 3/5=1,6=6,7=101,11=2,16=1,25=1,30=1,70=2203,72=-2,74=-40/1,2,3;
 4//1;
 5/5=2,38=5/2;
 6/7=2,8=2,9=2,10=2,28=1/1;
 99/5=1,6=100,9=1/99;
 Leave Link    1 at Sun Mar  3 17:20:41 2024, MaxMem=  5368709120 cpu:         1.7
 (Enter /home/k0335/k033513/app/g09/l101.exe)
 ----------------
 Title A139312_p1
 ----------------
 Symbolic Z-matrix:
 Charge =  1 Multiplicity = 2
 O                     2.04644   0.86263   1.40539 
 C                     0.96701   0.3018    1.24131 
 N                     0.79915  -1.03873   1.47928 
 C                     1.97355  -1.80561   1.89302 
 F                     2.64457  -1.08255   2.83553 
 F                     1.54549  -2.90019   2.58517 
 C                     2.94215  -2.22923   0.75518 
 F                     2.32336  -3.14707  -0.04275 
 O                     3.19906  -1.10944  -0.09936 
 C                     4.25415  -1.32936  -0.99893 
 F                     5.42309  -1.21831  -0.34956 
 F                     4.19722  -0.3875   -1.9581 
 F                     4.15336  -2.53734  -1.57315 
 C                     4.13968  -2.87805   1.46348 
 F                     3.77478  -3.86376   2.31175 
 F                     4.85339  -1.97644   2.17417 
 F                     4.9972   -3.43895   0.57717 
 C                    -0.24798  -1.73332   0.92705 
 O                    -0.15094  -2.92702   0.66267 
 N                    -1.37849  -0.99704   0.63818 
 C                    -2.52892  -1.7721    0.16608 
 F                    -2.21539  -2.27632  -1.06153 
 F                    -2.62831  -2.87231   0.98122 
 C                    -3.97744  -1.18576   0.10906 
 F                    -4.84892  -2.22515  -0.132 
 O                    -4.31174  -0.20305  -0.86873 
 C                    -4.05736  -0.61237  -2.18941 
 F                    -4.42969  -1.88591  -2.396 
 F                    -4.75482   0.18084  -3.02483 
 F                    -2.74864  -0.47909  -2.46809 
 C                    -4.29895  -0.6756    1.51393 
 F                    -4.19156  -1.6463    2.45022 
 F                    -5.56035  -0.18882   1.5954 
 F                    -3.46899   0.32033   1.90695 
 C                    -1.25053   0.32341   0.31584 
 O                    -2.09581   0.8968   -0.3595 
 N                    -0.12884   0.97356   0.75443 
 C                     0.03554   2.39304   0.44414 
 F                    -1.17799   3.0055    0.45089 
 F                     0.67168   2.96952   1.51422 
 C                     0.83715   2.75197  -0.8435 
 F                     1.85144   1.82637  -0.98549 
 O                     1.56115   3.98916  -0.75956 
 C                     0.76176   5.13919  -0.85702 
 F                     1.51001   6.21342  -0.55256 
 F                     0.30539   5.26868  -2.11124 
 F                    -0.26767   5.07116  -0.00445 
 C                    -0.05626   2.58373  -2.071 
 F                     0.59766   2.95355  -3.19871 
 F                    -0.40294   1.28625  -2.24082 
 F                    -1.18693   3.31178  -2.00547 
 
 NAtoms=     51 NQM=       51 NQMF=       0 NMMI=      0 NMMIF=      0
                NMic=       0 NMicF=      0.
                    Isotopes and Nuclear Properties:
 (Nuclear quadrupole moments (NQMom) in fm**2, nuclear magnetic moments (NMagM)
  in nuclear magnetons)

  Atom         1           2           3           4           5           6           7           8           9          10
 IAtWgt=          16          12          14          12          19          19          12          19          16          12
 AtmWgt=  15.9949146  12.0000000  14.0030740  12.0000000  18.9984033  18.9984033  12.0000000  18.9984033  15.9949146  12.0000000
 NucSpn=           0           0           2           0           1           1           0           1           0           0
 AtZEff=   0.0000000   0.0000000   0.0000000   0.0000000   0.0000000   0.0000000   0.0000000   0.0000000   0.0000000   0.0000000
 NQMom=    0.0000000   0.0000000   2.0440000   0.0000000   0.0000000   0.0000000   0.0000000   0.0000000   0.0000000   0.0000000
 NMagM=    0.0000000   0.0000000   0.4037610   0.0000000   2.6288670   2.6288670   0.0000000   2.6288670   0.0000000   0.0000000
 AtZNuc=   8.0000000   6.0000000   7.0000000   6.0000000   9.0000000   9.0000000   6.0000000   9.0000000   8.0000000   6.0000000

  Atom        11          12          13          14          15          16          17          18          19          20
 IAtWgt=          19          19          19          12          19          19          19          12          16          14
 AtmWgt=  18.9984033  18.9984033  18.9984033  12.0000000  18.9984033  18.9984033  18.9984033  12.0000000  15.9949146  14.0030740
 NucSpn=           1           1           1           0           1           1           1           0           0           2
 AtZEff=   0.0000000   0.0000000   0.0000000   0.0000000   0.0000000   0.0000000   0.0000000   0.0000000   0.0000000   0.0000000
 NQMom=    0.0000000   0.0000000   0.0000000   0.0000000   0.0000000   0.0000000   0.0000000   0.0000000   0.0000000   2.0440000
 NMagM=    2.6288670   2.6288670   2.6288670   0.0000000   2.6288670   2.6288670   2.6288670   0.0000000   0.0000000   0.4037610
 AtZNuc=   9.0000000   9.0000000   9.0000000   6.0000000   9.0000000   9.0000000   9.0000000   6.0000000   8.0000000   7.0000000

  Atom        21          22          23          24          25          26          27          28          29          30
 IAtWgt=          12          19          19          12          19          16          12          19          19          19
 AtmWgt=  12.0000000  18.9984033  18.9984033  12.0000000  18.9984033  15.9949146  12.0000000  18.9984033  18.9984033  18.9984033
 NucSpn=           0           1           1           0           1           0           0           1           1           1
 AtZEff=   0.0000000   0.0000000   0.0000000   0.0000000   0.0000000   0.0000000   0.0000000   0.0000000   0.0000000   0.0000000
 NQMom=    0.0000000   0.0000000   0.0000000   0.0000000   0.0000000   0.0000000   0.0000000   0.0000000   0.0000000   0.0000000
 NMagM=    0.0000000   2.6288670   2.6288670   0.0000000   2.6288670   0.0000000   0.0000000   2.6288670   2.6288670   2.6288670
 AtZNuc=   6.0000000   9.0000000   9.0000000   6.0000000   9.0000000   8.0000000   6.0000000   9.0000000   9.0000000   9.0000000

  Atom        31          32          33          34          35          36          37          38          39          40
 IAtWgt=          12          19          19          19          12          16          14          12          19          19
 AtmWgt=  12.0000000  18.9984033  18.9984033  18.9984033  12.0000000  15.9949146  14.0030740  12.0000000  18.9984033  18.9984033
 NucSpn=           0           1           1           1           0           0           2           0           1           1
 AtZEff=   0.0000000   0.0000000   0.0000000   0.0000000   0.0000000   0.0000000   0.0000000   0.0000000   0.0000000   0.0000000
 NQMom=    0.0000000   0.0000000   0.0000000   0.0000000   0.0000000   0.0000000   2.0440000   0.0000000   0.0000000   0.0000000
 NMagM=    0.0000000   2.6288670   2.6288670   2.6288670   0.0000000   0.0000000   0.4037610   0.0000000   2.6288670   2.6288670
 AtZNuc=   6.0000000   9.0000000   9.0000000   9.0000000   6.0000000   8.0000000   7.0000000   6.0000000   9.0000000   9.0000000

  Atom        41          42          43          44          45          46          47          48          49          50
 IAtWgt=          12          19          16          12          19          19          19          12          19          19
 AtmWgt=  12.0000000  18.9984033  15.9949146  12.0000000  18.9984033  18.9984033  18.9984033  12.0000000  18.9984033  18.9984033
 NucSpn=           0           1           0           0           1           1           1           0           1           1
 AtZEff=   0.0000000   0.0000000   0.0000000   0.0000000   0.0000000   0.0000000   0.0000000   0.0000000   0.0000000   0.0000000
 NQMom=    0.0000000   0.0000000   0.0000000   0.0000000   0.0000000   0.0000000   0.0000000   0.0000000   0.0000000   0.0000000
 NMagM=    0.0000000   2.6288670   0.0000000   0.0000000   2.6288670   2.6288670   2.6288670   0.0000000   2.6288670   2.6288670
 AtZNuc=   6.0000000   9.0000000   8.0000000   6.0000000   9.0000000   9.0000000   9.0000000   6.0000000   9.0000000   9.0000000

  Atom        51
 IAtWgt=          19
 AtmWgt=  18.9984033
 NucSpn=           1
 AtZEff=   0.0000000
 NQMom=    0.0000000
 NMagM=    2.6288670
 AtZNuc=   9.0000000
 Leave Link  101 at Sun Mar  3 17:20:41 2024, MaxMem=  5368709120 cpu:         0.8
 (Enter /home/k0335/k033513/app/g09/l202.exe)
 Symmetry turned off by external request.
 Stoichiometry    C15F27N3O6(1+,2)
 Framework group  C1[X(C15F27N3O6)]
 Deg. of freedom   147
 Full point group                 C1      NOp   1
                          Input orientation:                          
 ---------------------------------------------------------------------
 Center     Atomic      Atomic             Coordinates (Angstroms)
 Number     Number       Type             X           Y           Z
 ---------------------------------------------------------------------
      1          8           0        2.046443    0.862631    1.405390
      2          6           0        0.967012    0.301802    1.241311
      3          7           0        0.799154   -1.038725    1.479283
      4          6           0        1.973554   -1.805611    1.893019
      5          9           0        2.644572   -1.082555    2.835532
      6          9           0        1.545485   -2.900186    2.585167
      7          6           0        2.942146   -2.229227    0.755179
      8          9           0        2.323364   -3.147071   -0.042751
      9          8           0        3.199058   -1.109442   -0.099361
     10          6           0        4.254153   -1.329359   -0.998933
     11          9           0        5.423093   -1.218306   -0.349559
     12          9           0        4.197217   -0.387504   -1.958098
     13          9           0        4.153355   -2.537339   -1.573148
     14          6           0        4.139684   -2.878050    1.463479
     15          9           0        3.774782   -3.863757    2.311752
     16          9           0        4.853387   -1.976435    2.174166
     17          9           0        4.997201   -3.438949    0.577171
     18          6           0       -0.247980   -1.733322    0.927047
     19          8           0       -0.150936   -2.927015    0.662668
     20          7           0       -1.378485   -0.997038    0.638183
     21          6           0       -2.528924   -1.772096    0.166083
     22          9           0       -2.215390   -2.276320   -1.061530
     23          9           0       -2.628305   -2.872314    0.981216
     24          6           0       -3.977442   -1.185765    0.109064
     25          9           0       -4.848919   -2.225146   -0.132000
     26          8           0       -4.311744   -0.203048   -0.868725
     27          6           0       -4.057357   -0.612373   -2.189414
     28          9           0       -4.429687   -1.885913   -2.396002
     29          9           0       -4.754824    0.180843   -3.024828
     30          9           0       -2.748636   -0.479087   -2.468089
     31          6           0       -4.298948   -0.675603    1.513927
     32          9           0       -4.191558   -1.646302    2.450223
     33          9           0       -5.560351   -0.188822    1.595404
     34          9           0       -3.468986    0.320327    1.906947
     35          6           0       -1.250525    0.323411    0.315843
     36          8           0       -2.095808    0.896797   -0.359497
     37          7           0       -0.128841    0.973555    0.754430
     38          6           0        0.035537    2.393039    0.444137
     39          9           0       -1.177991    3.005500    0.450892
     40          9           0        0.671684    2.969516    1.514216
     41          6           0        0.837148    2.751965   -0.843495
     42          9           0        1.851437    1.826374   -0.985485
     43          8           0        1.561147    3.989157   -0.759557
     44          6           0        0.761764    5.139195   -0.857015
     45          9           0        1.510014    6.213425   -0.552558
     46          9           0        0.305392    5.268676   -2.111235
     47          9           0       -0.267672    5.071155   -0.004449
     48          6           0       -0.056257    2.583732   -2.071004
     49          9           0        0.597656    2.953553   -3.198713
     50          9           0       -0.402939    1.286248   -2.240820
     51          9           0       -1.186934    3.311778   -2.005466
 ---------------------------------------------------------------------
 Rotational constants (GHZ):      0.0683007      0.0525376      0.0372505
 Leave Link  202 at Sun Mar  3 17:20:42 2024, MaxMem=  5368709120 cpu:         0.0
 (Enter /home/k0335/k033513/app/g09/l301.exe)
 Standard basis: 6-31G(d,p) (6D, 7F)
 Ernie: Thresh=  0.10000D-02 Tol=  0.10000D-05 Strict=F.
   765 basis functions,  1428 primitive gaussians,   765 cartesian basis functions
   201 alpha electrons      200 beta electrons
       nuclear repulsion energy      9400.1913506453 Hartrees.
 IExCor=20419 DFT=T Ex+Corr=CAM-B3LYP ExCW=0 ScaHFX=  1.000000
 ScaDFX=  1.000000  1.000000  1.000000  0.810000 ScalE2=  1.000000  1.000000
 IRadAn=      0 IRanWt=     -1 IRanGd=            0 ICorTp=0 IEmpDi=  4
  HFx wShort=  0.000000 wLong=  0.330000 cFull=  0.190000 cShort=  0.000000 cLong=  0.460000
  DFx wShort=  0.000000 wLong=  0.330000 cFull=  0.190000 cShort=  0.000000 cLong=  0.460000
 NAtoms=   51 NActive=   51 NUniq=   51 SFac= 1.00D+00 NAtFMM=   60 NAOKFM=F Big=F
 Integral buffers will be    131072 words long.
 Raffenetti 2 integral format.
 Two-electron integral symmetry is turned off.
 Using the following non-standard input for PCM:
 eps=4.9
 --- end of non-standard input.
 ------------------------------------------------------------------------------
 Polarizable Continuum Model (PCM)
 =================================
 Model                : PCM (using non-symmetric T matrix).
 Atomic radii         : UFF (Universal Force Field).
 Polarization charges : Total charges.
 Charge compensation  : None.
 Solution method      : On-the-fly selection.
 Cavity type          : Scaled VdW (van der Waals Surface) (Alpha=1.100).
 Cavity algorithm     : GePol (No added spheres)
                        Default sphere list used, NSphG=   51.
                        Lebedev-Laikov grids with approx.  5.0 points / Ang**2.
                        Smoothing algorithm: Karplus/York (Gamma=1.0000).
                        Polarization charges: spherical gaussians, with
                                              point-specific exponents (IZeta= 3).
                        Self-potential: point-specific (ISelfS= 7).
                        Self-field    : sphere-specific E.n sum rule (ISelfD= 2).
 Solvent              : Generic,
                        Eps                           =   4.900000
                        Eps(infinity)                 =   0.000000
                        RSolv                         =   0.000000 Ang.
                        Molar volume                  =   0.000000 cm**3/mol
                        Thermal expansion coefficient =   0.000000 K**-1
                        Absolute temperature          = 298.150000 K
                        Numeral density               =   0.000000 Ang**-3
                        Hydrogen bond acidity         =   0.000000
                        Hydrogen bond basicity        =   0.000000
                        Surface tension at interface  =   0.000000 (cal/mol)*Ang**-2
                        Carbon aromaticity            =   0.000000
                        Electronegative halogenicity  =   0.000000
 ------------------------------------------------------------------------------
 GePol: Number of generator spheres                  =      51
 GePol: Total number of spheres                      =      51
 GePol: Number of exposed spheres                    =      51 (100.00%)
 GePol: Number of points                             =    4219
 GePol: Average weight of points                     =       0.12
 GePol: Minimum weight of points                     =   0.20D-09
 GePol: Maximum weight of points                     =    0.20577
 GePol: Number of points with low weight             =     154
 GePol: Fraction of low-weight points (<1% of avg)   =       3.65%
 GePol: Cavity surface area                          =    515.973 Ang**2
 GePol: Cavity volume                                =    630.876 Ang**3
 Leave Link  301 at Sun Mar  3 17:20:42 2024, MaxMem=  5368709120 cpu:         0.7
 (Enter /home/k0335/k033513/app/g09/l302.exe)
 NPDir=0 NMtPBC=     1 NCelOv=     1 NCel=       1 NClECP=     1 NCelD=      1
         NCelK=      1 NCelE2=     1 NClLst=     1 CellRange=     0.0.
 One-electron integrals computed using PRISM.
 NBasis=   765 RedAO= T EigKep=  1.07D-03  NBF=   765
 NBsUse=   765 1.00D-06 EigRej= -1.00D+00 NBFU=   765
 Precomputing XC quadrature grid using
 IXCGrd= 4 IRadAn=           0 IRanWt=          -1 IRanGd=           0 AccXCQ= 0.00D+00.
 Generated NRdTot=       0 NPtTot=           0 NUsed=           0 NTot=          32
 NSgBfM=   739   739   739   739   739 MxSgAt=    51 MxSgA2=    51.
 Leave Link  302 at Sun Mar  3 17:20:43 2024, MaxMem=  5368709120 cpu:        19.7
 (Enter /home/k0335/k033513/app/g09/l303.exe)
 DipDrv:  MaxL=1.
 Leave Link  303 at Sun Mar  3 17:20:43 2024, MaxMem=  5368709120 cpu:         1.1
 (Enter /home/k0335/k033513/app/g09/l401.exe)
 ExpMin= 1.69D-01 ExpMax= 7.00D+03 ExpMxC= 1.05D+03 IAcc=1 IRadAn=         1 AccDes= 0.00D+00
 Harris functional with IExCor=20419 and IRadAn=       1 diagonalized for initial guess.
 HarFok:  IExCor=20419 AccDes= 0.00D+00 IRadAn=         1 IDoV= 1 UseB2=F ITyADJ=14
 ICtDFT=  3500011 ScaDFX=  1.000000  1.000000  1.000000  1.000000
 FoFCou: FMM=F IPFlag=           0 FMFlag=      100000 FMFlg1=           0
         NFxFlg=           0 DoJE=T BraDBF=F KetDBF=T FulRan=T
         wScrn=  0.000000 ICntrl=     500 IOpCl=  0 I1Cent=   200000004 NGrid=           0
         NMat0=    1 NMatS0=      1 NMatT0=    0 NMatD0=    1 NMtDS0=    0 NMtDT0=    0
 Symmetry not used in FoFCou.
 Harris En= -3768.12285392069    
 JPrj=0 DoOrth=F DoCkMO=F.
 Initial guess <Sx>= 0.0000 <Sy>= 0.0000 <Sz>= 0.5000 <S**2>= 0.7500 S= 0.5000
 Leave Link  401 at Sun Mar  3 17:20:44 2024, MaxMem=  5368709120 cpu:        25.4
 (Enter /home/k0335/k033513/app/g09/l502.exe)
 UHF open shell SCF:
 Using DIIS extrapolation, IDIIS=  1040.
 Two-electron integral symmetry not used.
 IVT=     1797277 IEndB=     1797277 NGot=  5368709120 MDV=  5367514474
 LenX=  5367514474 LenY=  5366928484
 Requested convergence on RMS density matrix=1.00D-08 within 128 cycles.
 Requested convergence on MAX density matrix=1.00D-06.
 Requested convergence on             energy=1.00D-06.
 No special actions if energy rises.
 Fock matrices will be formed incrementally for  20 cycles.

 Cycle   1  Pass 1  IDiag  1:
 FoFJK:  IHMeth= 1 ICntrl=       0 DoSepK=T KAlg= 0 I1Cent=   0 FoldK=F
 IRaf=         1 NMat=   1 IRICut=       1 DoRegI=T DoRafI=F ISym2E= 0.
 FoFCou: FMM=F IPFlag=           0 FMFlag=      100000 FMFlg1=           0
         NFxFlg=           0 DoJE=T BraDBF=F KetDBF=F FulRan=T
         wScrn=  0.000000 ICntrl=     500 IOpCl=  0 I1Cent=           0 NGrid=           0
         NMat0=    1 NMatS0=      1 NMatT0=    0 NMatD0=    1 NMtDS0=    0 NMtDT0=    0
 Symmetry not used in FoFCou.
 Inv3:  Mode=1 IEnd=    53399883.
 Iteration    1 A*A^-1 deviation from unit magnitude is 6.44D-15 for   4209.
 Iteration    1 A*A^-1 deviation from orthogonality  is 4.05D-15 for   4207   3915.
 Iteration    1 A^-1*A deviation from unit magnitude is 7.55D-15 for   4189.
 Iteration    1 A^-1*A deviation from orthogonality  is 4.16D-14 for   1482   1459.
 E= -3880.01642012673    
 DIIS: error= 4.58D-02 at cycle   1 NSaved=   1.
 NSaved= 1 IEnMin= 1 EnMin= -3880.01642012673     IErMin= 1 ErrMin= 4.58D-02
 ErrMax= 4.58D-02  0.00D+00 EMaxC= 1.00D-01 BMatC= 1.35D+01 BMatP= 1.35D+01
 IDIUse=3 WtCom= 5.42D-01 WtEn= 4.58D-01
 Coeff-Com:  0.100D+01
 Coeff-En:   0.100D+01
 Coeff:      0.100D+01
 Gap=     0.498 Goal=   None    Shift=    0.000
 Gap=     0.013 Goal=   None    Shift=    0.000
 GapD=    0.013 DampG=0.250 DampE=0.500 DampFc=0.2500 IDamp=-1.
 Damping current iteration by 2.50D-01
 RMSDP=3.06D-03 MaxDP=2.20D-01              OVMax= 6.20D-01

 Cycle   2  Pass 1  IDiag  1:
 RMSU=  7.65D-04    CP:  1.00D+00
 E= -3880.47958866370     Delta-E=       -0.463168536971 Rises=F Damp=T
 DIIS: error= 3.36D-02 at cycle   2 NSaved=   2.
 NSaved= 2 IEnMin= 2 EnMin= -3880.47958866370     IErMin= 2 ErrMin= 3.36D-02
 ErrMax= 3.36D-02  0.00D+00 EMaxC= 1.00D-01 BMatC= 5.64D+00 BMatP= 1.35D+01
 IDIUse=3 WtCom= 6.64D-01 WtEn= 3.36D-01
 Coeff-Com: -0.147D+01 0.247D+01
 Coeff-En:   0.000D+00 0.100D+01
 Coeff:     -0.977D+00 0.198D+01
 Gap=     0.526 Goal=   None    Shift=    0.000
 Gap=     0.046 Goal=   None    Shift=    0.000
 RMSDP=1.53D-03 MaxDP=1.18D-01 DE=-4.63D-01 OVMax= 8.19D-01

 Cycle   3  Pass 1  IDiag  1:
 RMSU=  1.09D-03    CP:  1.00D+00  2.39D+00
 E= -3881.23686502002     Delta-E=       -0.757276356322 Rises=F Damp=F
 DIIS: error= 1.06D-02 at cycle   3 NSaved=   3.
 NSaved= 3 IEnMin= 3 EnMin= -3881.23686502002     IErMin= 3 ErrMin= 1.06D-02
 ErrMax= 1.06D-02  0.00D+00 EMaxC= 1.00D-01 BMatC= 1.00D+00 BMatP= 5.64D+00
 IDIUse=3 WtCom= 8.94D-01 WtEn= 1.06D-01
 Coeff-Com: -0.725D+00 0.118D+01 0.543D+00
 Coeff-En:   0.000D+00 0.000D+00 0.100D+01
 Coeff:     -0.648D+00 0.106D+01 0.592D+00
 Gap=     0.404 Goal=   None    Shift=    0.000
 Gap=     0.015 Goal=   None    Shift=    0.000
 RMSDP=1.06D-03 MaxDP=2.68D-01 DE=-7.57D-01 OVMax= 7.34D-01

 Cycle   4  Pass 1  IDiag  1:
 RMSU=  5.92D-04    CP:  1.00D+00  2.85D+00  2.59D-01
 E= -3881.34103372551     Delta-E=       -0.104168705489 Rises=F Damp=F
 DIIS: error= 8.05D-03 at cycle   4 NSaved=   4.
 NSaved= 4 IEnMin= 4 EnMin= -3881.34103372551     IErMin= 4 ErrMin= 8.05D-03
 ErrMax= 8.05D-03  0.00D+00 EMaxC= 1.00D-01 BMatC= 5.11D-01 BMatP= 1.00D+00
 IDIUse=3 WtCom= 9.19D-01 WtEn= 8.05D-02
 Coeff-Com: -0.194D+00 0.317D+00 0.413D+00 0.464D+00
 Coeff-En:   0.000D+00 0.000D+00 0.344D+00 0.656D+00
 Coeff:     -0.178D+00 0.292D+00 0.407D+00 0.479D+00
 Gap=     0.423 Goal=   None    Shift=    0.000
 Gap=     0.047 Goal=   None    Shift=    0.000
 RMSDP=5.54D-04 MaxDP=1.57D-01 DE=-1.04D-01 OVMax= 2.66D-01

 Cycle   5  Pass 1  IDiag  1:
 RMSU=  3.79D-04    CP:  1.00D+00  2.70D+00  5.58D-01  6.46D-01
 E= -3881.42006774080     Delta-E=       -0.079034015285 Rises=F Damp=F
 DIIS: error= 4.16D-03 at cycle   5 NSaved=   5.
 NSaved= 5 IEnMin= 5 EnMin= -3881.42006774080     IErMin= 5 ErrMin= 4.16D-03
 ErrMax= 4.16D-03  0.00D+00 EMaxC= 1.00D-01 BMatC= 9.79D-02 BMatP= 5.11D-01
 IDIUse=3 WtCom= 9.58D-01 WtEn= 4.16D-02
 Coeff-Com: -0.242D-01 0.442D-01 0.239D+00 0.348D+00 0.393D+00
 Coeff-En:   0.000D+00 0.000D+00 0.000D+00 0.126D+00 0.874D+00
 Coeff:     -0.232D-01 0.424D-01 0.229D+00 0.339D+00 0.413D+00
 Gap=     0.371 Goal=   None    Shift=    0.000
 Gap=     0.077 Goal=   None    Shift=    0.000
 RMSDP=2.64D-04 MaxDP=6.72D-02 DE=-7.90D-02 OVMax= 1.84D-01

 Cycle   6  Pass 1  IDiag  1:
 RMSU=  1.51D-04    CP:  1.00D+00  2.74D+00  5.06D-01  8.71D-01  5.88D-01
 E= -3881.43873848366     Delta-E=       -0.018670742860 Rises=F Damp=F
 DIIS: error= 1.55D-03 at cycle   6 NSaved=   6.
 NSaved= 6 IEnMin= 6 EnMin= -3881.43873848366     IErMin= 6 ErrMin= 1.55D-03
 ErrMax= 1.55D-03  0.00D+00 EMaxC= 1.00D-01 BMatC= 1.26D-02 BMatP= 9.79D-02
 IDIUse=3 WtCom= 9.84D-01 WtEn= 1.55D-02
 Coeff-Com:  0.368D-01-0.527D-01 0.649D-01 0.891D-01 0.251D+00 0.611D+00
 Coeff-En:   0.000D+00 0.000D+00 0.000D+00 0.000D+00 0.455D-01 0.955D+00
 Coeff:      0.362D-01-0.519D-01 0.639D-01 0.877D-01 0.247D+00 0.617D+00
 Gap=     0.361 Goal=   None    Shift=    0.000
 Gap=     0.094 Goal=   None    Shift=    0.000
 RMSDP=1.21D-04 MaxDP=2.00D-02 DE=-1.87D-02 OVMax= 8.19D-02

 Cycle   7  Pass 1  IDiag  1:
 RMSU=  1.02D-04    CP:  1.00D+00  2.76D+00  4.94D-01  8.60D-01  7.51D-01
                    CP:  1.04D+00
 E= -3881.44293624901     Delta-E=       -0.004197765351 Rises=F Damp=F
 DIIS: error= 1.16D-03 at cycle   7 NSaved=   7.
 NSaved= 7 IEnMin= 7 EnMin= -3881.44293624901     IErMin= 7 ErrMin= 1.16D-03
 ErrMax= 1.16D-03  0.00D+00 EMaxC= 1.00D-01 BMatC= 4.04D-03 BMatP= 1.26D-02
 IDIUse=3 WtCom= 9.88D-01 WtEn= 1.16D-02
 Coeff-Com:  0.193D-01-0.264D-01-0.162D-01-0.697D-01-0.193D-01 0.363D+00
 Coeff-Com:  0.749D+00
 Coeff-En:   0.000D+00 0.000D+00 0.000D+00 0.000D+00 0.000D+00 0.000D+00
 Coeff-En:   0.100D+01
 Coeff:      0.190D-01-0.261D-01-0.160D-01-0.689D-01-0.191D-01 0.359D+00
 Coeff:      0.752D+00
 Gap=     0.357 Goal=   None    Shift=    0.000
 Gap=     0.105 Goal=   None    Shift=    0.000
 RMSDP=9.66D-05 MaxDP=1.06D-02 DE=-4.20D-03 OVMax= 5.78D-02

 Cycle   8  Pass 1  IDiag  1:
 RMSU=  4.70D-05    CP:  1.00D+00  2.77D+00  4.73D-01  8.77D-01  7.89D-01
                    CP:  1.43D+00  1.51D+00
 E= -3881.44534073174     Delta-E=       -0.002404482728 Rises=F Damp=F
 DIIS: error= 5.02D-04 at cycle   8 NSaved=   8.
 NSaved= 8 IEnMin= 8 EnMin= -3881.44534073174     IErMin= 8 ErrMin= 5.02D-04
 ErrMax= 5.02D-04  0.00D+00 EMaxC= 1.00D-01 BMatC= 9.81D-04 BMatP= 4.04D-03
 IDIUse=3 WtCom= 9.95D-01 WtEn= 5.02D-03
 Coeff-Com:  0.785D-02-0.984D-02-0.121D-01-0.526D-01-0.654D-01 0.965D-01
 Coeff-Com:  0.328D+00 0.708D+00
 Coeff-En:   0.000D+00 0.000D+00 0.000D+00 0.000D+00 0.000D+00 0.000D+00
 Coeff-En:   0.000D+00 0.100D+01
 Coeff:      0.781D-02-0.979D-02-0.121D-01-0.524D-01-0.651D-01 0.960D-01
 Coeff:      0.326D+00 0.709D+00
 Gap=     0.360 Goal=   None    Shift=    0.000
 Gap=     0.109 Goal=   None    Shift=    0.000
 RMSDP=6.87D-05 MaxDP=9.61D-03 DE=-2.40D-03 OVMax= 5.26D-02

 Cycle   9  Pass 1  IDiag  1:
 RMSU=  3.02D-05    CP:  1.00D+00  2.77D+00  4.58D-01  8.78D-01  8.03D-01
                    CP:  1.62D+00  2.00D+00  1.27D+00
 E= -3881.44645184532     Delta-E=       -0.001111113579 Rises=F Damp=F
 DIIS: error= 5.47D-04 at cycle   9 NSaved=   9.
 NSaved= 9 IEnMin= 9 EnMin= -3881.44645184532     IErMin= 8 ErrMin= 5.02D-04
 ErrMax= 5.47D-04  0.00D+00 EMaxC= 1.00D-01 BMatC= 8.22D-04 BMatP= 9.81D-04
 IDIUse=3 WtCom= 9.95D-01 WtEn= 5.02D-03
 Coeff-Com:  0.589D-03-0.252D-03 0.714D-02 0.931D-02-0.430D-01-0.131D+00
 Coeff-Com: -0.352D+00 0.681D+00 0.829D+00
 Coeff-En:   0.000D+00 0.000D+00 0.000D+00 0.000D+00 0.000D+00 0.000D+00
 Coeff-En:   0.000D+00 0.000D+00 0.100D+01
 Coeff:      0.586D-03-0.251D-03 0.711D-02 0.926D-02-0.428D-01-0.131D+00
 Coeff:     -0.351D+00 0.678D+00 0.830D+00
 Gap=     0.358 Goal=   None    Shift=    0.000
 Gap=     0.111 Goal=   None    Shift=    0.000
 RMSDP=9.01D-05 MaxDP=8.30D-03 DE=-1.11D-03 OVMax= 6.84D-02

 Cycle  10  Pass 1  IDiag  1:
 RMSU=  1.95D-05    CP:  1.00D+00  2.78D+00  4.35D-01  8.65D-01  8.11D-01
                    CP:  1.87D+00  2.60D+00  2.12D+00  1.47D+00
 E= -3881.44760278280     Delta-E=       -0.001150937485 Rises=F Damp=F
 DIIS: error= 2.49D-04 at cycle  10 NSaved=  10.
 NSaved=10 IEnMin=10 EnMin= -3881.44760278280     IErMin=10 ErrMin= 2.49D-04
 ErrMax= 2.49D-04  0.00D+00 EMaxC= 1.00D-01 BMatC= 1.96D-04 BMatP= 8.22D-04
 IDIUse=3 WtCom= 9.98D-01 WtEn= 2.49D-03
 Coeff-Com: -0.525D-03 0.611D-03 0.629D-02 0.186D-01-0.808D-02-0.309D-01
 Coeff-Com: -0.230D+00 0.125D+00 0.148D+00 0.971D+00
 Coeff-En:   0.000D+00 0.000D+00 0.000D+00 0.000D+00 0.000D+00 0.000D+00
 Coeff-En:   0.000D+00 0.000D+00 0.000D+00 0.100D+01
 Coeff:     -0.524D-03 0.609D-03 0.628D-02 0.186D-01-0.806D-02-0.308D-01
 Coeff:     -0.230D+00 0.125D+00 0.147D+00 0.971D+00
 Gap=     0.356 Goal=   None    Shift=    0.000
 Gap=     0.113 Goal=   None    Shift=    0.000
 RMSDP=5.28D-05 MaxDP=6.65D-03 DE=-1.15D-03 OVMax= 3.90D-02

 Cycle  11  Pass 1  IDiag  1:
 RMSU=  1.04D-05    CP:  1.00D+00  2.79D+00  4.22D-01  8.52D-01  8.03D-01
                    CP:  1.97D+00  2.93D+00  2.58D+00  2.09D+00  1.83D+00
 E= -3881.44805728262     Delta-E=       -0.000454499823 Rises=F Damp=F
 DIIS: error= 2.02D-04 at cycle  11 NSaved=  11.
 NSaved=11 IEnMin=11 EnMin= -3881.44805728262     IErMin=11 ErrMin= 2.02D-04
 ErrMax= 2.02D-04  0.00D+00 EMaxC= 1.00D-01 BMatC= 1.41D-04 BMatP= 1.96D-04
 IDIUse=3 WtCom= 9.98D-01 WtEn= 2.02D-03
 Coeff-Com:  0.216D-03-0.497D-03-0.165D-02 0.765D-03 0.644D-02 0.105D+00
 Coeff-Com:  0.979D-01-0.206D+00-0.525D+00 0.343D+00 0.118D+01
 Coeff-En:   0.000D+00 0.000D+00 0.000D+00 0.000D+00 0.000D+00 0.000D+00
 Coeff-En:   0.000D+00 0.000D+00 0.000D+00 0.000D+00 0.100D+01
 Coeff:      0.216D-03-0.496D-03-0.165D-02 0.763D-03 0.642D-02 0.105D+00
 Coeff:      0.977D-01-0.206D+00-0.524D+00 0.342D+00 0.118D+01
 Gap=     0.356 Goal=   None    Shift=    0.000
 Gap=     0.113 Goal=   None    Shift=    0.000
 RMSDP=5.04D-05 MaxDP=7.18D-03 DE=-4.54D-04 OVMax= 3.20D-02

 Cycle  12  Pass 1  IDiag  1:
 RMSU=  1.92D-05    CP:  1.00D+00  2.79D+00  4.10D-01  8.35D-01  7.90D-01
                    CP:  2.04D+00  3.00D+00  2.98D+00  2.74D+00  3.00D+00
                    CP:  2.22D+00
 E= -3881.44839595051     Delta-E=       -0.000338667891 Rises=F Damp=F
 DIIS: error= 1.42D-04 at cycle  12 NSaved=  12.
 NSaved=12 IEnMin=12 EnMin= -3881.44839595051     IErMin=12 ErrMin= 1.42D-04
 ErrMax= 1.42D-04  0.00D+00 EMaxC= 1.00D-01 BMatC= 7.62D-05 BMatP= 1.41D-04
 IDIUse=3 WtCom= 9.99D-01 WtEn= 1.42D-03
 Coeff-Com:  0.154D-02-0.203D-02-0.283D-02-0.971D-02-0.514D-02 0.701D-01
 Coeff-Com:  0.106D+00-0.127D-01-0.304D+00-0.443D+00 0.270D+00 0.133D+01
 Coeff-En:   0.000D+00 0.000D+00 0.000D+00 0.000D+00 0.000D+00 0.000D+00
 Coeff-En:   0.000D+00 0.000D+00 0.000D+00 0.000D+00 0.000D+00 0.100D+01
 Coeff:      0.154D-02-0.203D-02-0.282D-02-0.970D-02-0.514D-02 0.700D-01
 Coeff:      0.106D+00-0.127D-01-0.304D+00-0.443D+00 0.270D+00 0.133D+01
 Gap=     0.355 Goal=   None    Shift=    0.000
 Gap=     0.114 Goal=   None    Shift=    0.000
 RMSDP=5.05D-05 MaxDP=8.12D-03 DE=-3.39D-04 OVMax= 2.98D-02

 Cycle  13  Pass 1  IDiag  1:
 RMSU=  3.41D-05    CP:  1.00D+00  2.79D+00  4.03D-01  8.16D-01  7.80D-01
                    CP:  2.08D+00  3.00D+00  3.00D+00  3.00D+00  3.00D+00
                    CP:  3.00D+00  2.28D+00
 E= -3881.44862042218     Delta-E=       -0.000224471663 Rises=F Damp=F
 DIIS: error= 1.00D-04 at cycle  13 NSaved=  13.
 NSaved=13 IEnMin=13 EnMin= -3881.44862042218     IErMin=13 ErrMin= 1.00D-04
 ErrMax= 1.00D-04  0.00D+00 EMaxC= 1.00D-01 BMatC= 4.49D-05 BMatP= 7.62D-05
 IDIUse=3 WtCom= 9.99D-01 WtEn= 1.00D-03
 Coeff-Com:  0.661D-03-0.784D-03-0.561D-05-0.170D-02-0.173D-01-0.261D-01
 Coeff-Com: -0.709D-01 0.200D+00 0.164D+00-0.287D+00-0.616D+00 0.446D+00
 Coeff-Com:  0.121D+01
 Coeff-En:   0.000D+00 0.000D+00 0.000D+00 0.000D+00 0.000D+00 0.000D+00
 Coeff-En:   0.000D+00 0.000D+00 0.000D+00 0.000D+00 0.000D+00 0.000D+00
 Coeff-En:   0.100D+01
 Coeff:      0.660D-03-0.783D-03-0.560D-05-0.169D-02-0.173D-01-0.260D-01
 Coeff:     -0.709D-01 0.200D+00 0.164D+00-0.286D+00-0.616D+00 0.446D+00
 Coeff:      0.121D+01
 Gap=     0.354 Goal=   None    Shift=    0.000
 Gap=     0.115 Goal=   None    Shift=    0.000
 RMSDP=3.76D-05 MaxDP=6.96D-03 DE=-2.24D-04 OVMax= 2.19D-02

 Cycle  14  Pass 1  IDiag  1:
 RMSU=  1.21D-05    CP:  1.00D+00  2.79D+00  3.99D-01  8.02D-01  7.77D-01
                    CP:  2.11D+00  3.00D+00  3.00D+00  3.00D+00  3.00D+00
                    CP:  3.00D+00  3.00D+00  1.86D+00
 E= -3881.44872013118     Delta-E=       -0.000099708997 Rises=F Damp=F
 DIIS: error= 9.84D-05 at cycle  14 NSaved=  14.
 NSaved=14 IEnMin=14 EnMin= -3881.44872013118     IErMin=14 ErrMin= 9.84D-05
 ErrMax= 9.84D-05  0.00D+00 EMaxC= 1.00D-01 BMatC= 4.05D-05 BMatP= 4.49D-05
 IDIUse=1 WtCom= 1.00D+00 WtEn= 0.00D+00
 Coeff-Com: -0.450D-03 0.651D-03 0.602D-04 0.229D-02-0.117D-01-0.330D-02
 Coeff-Com: -0.409D-01 0.102D+00 0.677D-01-0.111D-01-0.287D+00-0.109D+00
 Coeff-Com:  0.490D+00 0.800D+00
 Coeff:     -0.450D-03 0.651D-03 0.602D-04 0.229D-02-0.117D-01-0.330D-02
 Coeff:     -0.409D-01 0.102D+00 0.677D-01-0.111D-01-0.287D+00-0.109D+00
 Coeff:      0.490D+00 0.800D+00
 Gap=     0.354 Goal=   None    Shift=    0.000
 Gap=     0.114 Goal=   None    Shift=    0.000
 RMSDP=1.27D-05 MaxDP=2.78D-03 DE=-9.97D-05 OVMax= 5.53D-03

 Cycle  15  Pass 1  IDiag  1:
 RMSU=  5.11D-06    CP:  1.00D+00  2.79D+00  3.99D-01  7.97D-01  7.79D-01
                    CP:  2.10D+00  3.00D+00  3.00D+00  3.00D+00  3.00D+00
                    CP:  3.00D+00  3.00D+00  2.11D+00  1.61D+00
 E= -3881.44875105407     Delta-E=       -0.000030922896 Rises=F Damp=F
 DIIS: error= 1.03D-04 at cycle  15 NSaved=  15.
 NSaved=15 IEnMin=15 EnMin= -3881.44875105407     IErMin=14 ErrMin= 9.84D-05
 ErrMax= 1.03D-04  0.00D+00 EMaxC= 1.00D-01 BMatC= 3.41D-05 BMatP= 4.05D-05
 IDIUse=1 WtCom= 1.00D+00 WtEn= 0.00D+00
 Coeff-Com: -0.642D-03 0.900D-03-0.202D-03 0.243D-02-0.104D-01 0.502D-02
 Coeff-Com: -0.364D-01 0.568D-01 0.857D-02 0.649D-01-0.944D-01-0.135D+00
 Coeff-Com:  0.391D-01 0.240D+00 0.860D+00
 Coeff:     -0.642D-03 0.900D-03-0.202D-03 0.243D-02-0.104D-01 0.502D-02
 Coeff:     -0.364D-01 0.568D-01 0.857D-02 0.649D-01-0.944D-01-0.135D+00
 Coeff:      0.391D-01 0.240D+00 0.860D+00
 Gap=     0.354 Goal=   None    Shift=    0.000
 Gap=     0.114 Goal=   None    Shift=    0.000
 RMSDP=1.20D-05 MaxDP=2.69D-03 DE=-3.09D-05 OVMax= 5.35D-03

 Cycle  16  Pass 1  IDiag  1:
 RMSU=  3.27D-06    CP:  1.00D+00  2.79D+00  3.99D-01  7.93D-01  7.83D-01
                    CP:  2.10D+00  3.00D+00  3.00D+00  3.00D+00  3.00D+00
                    CP:  3.00D+00  3.00D+00  2.31D+00  2.20D+00  1.97D+00
 E= -3881.44877804145     Delta-E=       -0.000026987378 Rises=F Damp=F
 DIIS: error= 9.85D-05 at cycle  16 NSaved=  16.
 NSaved=16 IEnMin=16 EnMin= -3881.44877804145     IErMin=14 ErrMin= 9.84D-05
 ErrMax= 9.85D-05  0.00D+00 EMaxC= 1.00D-01 BMatC= 3.29D-05 BMatP= 3.41D-05
 IDIUse=1 WtCom= 1.00D+00 WtEn= 0.00D+00
 Coeff-Com: -0.382D-03 0.555D-03-0.264D-03 0.136D-02-0.966D-02 0.106D-01
 Coeff-Com: -0.263D-01 0.444D-01-0.239D-01 0.210D-01-0.373D-01 0.232D-01
 Coeff-Com: -0.238D-01-0.243D+00 0.408D+00 0.855D+00
 Coeff:     -0.382D-03 0.555D-03-0.264D-03 0.136D-02-0.966D-02 0.106D-01
 Coeff:     -0.263D-01 0.444D-01-0.239D-01 0.210D-01-0.373D-01 0.232D-01
 Coeff:     -0.238D-01-0.243D+00 0.408D+00 0.855D+00
 Gap=     0.354 Goal=   None    Shift=    0.000
 Gap=     0.114 Goal=   None    Shift=    0.000
 RMSDP=1.08D-05 MaxDP=2.33D-03 DE=-2.70D-05 OVMax= 5.48D-03

 Cycle  17  Pass 1  IDiag  1:
 RMSU=  1.70D-06    CP:  1.00D+00  2.78D+00  3.99D-01  7.89D-01  7.87D-01
                    CP:  2.10D+00  3.00D+00  3.00D+00  3.00D+00  3.00D+00
                    CP:  3.00D+00  3.00D+00  2.45D+00  2.72D+00  3.00D+00
                    CP:  2.04D+00
 E= -3881.44880288277     Delta-E=       -0.000024841323 Rises=F Damp=F
 DIIS: error= 9.67D-05 at cycle  17 NSaved=  17.
 NSaved=17 IEnMin=17 EnMin= -3881.44880288277     IErMin=17 ErrMin= 9.67D-05
 ErrMax= 9.67D-05  0.00D+00 EMaxC= 1.00D-01 BMatC= 3.33D-05 BMatP= 3.29D-05
 IDIUse=1 WtCom= 1.00D+00 WtEn= 0.00D+00
 Coeff-Com: -0.222D-03 0.349D-03-0.213D-03 0.103D-02-0.108D-01 0.519D-02
 Coeff-Com: -0.316D-01 0.670D-01 0.292D-02-0.282D-01-0.120D+00 0.106D+00
 Coeff-Com:  0.148D+00-0.262D+00-0.908D-01-0.126D-01 0.123D+01
 Coeff:     -0.222D-03 0.349D-03-0.213D-03 0.103D-02-0.108D-01 0.519D-02
 Coeff:     -0.316D-01 0.670D-01 0.292D-02-0.282D-01-0.120D+00 0.106D+00
 Coeff:      0.148D+00-0.262D+00-0.908D-01-0.126D-01 0.123D+01
 Gap=     0.353 Goal=   None    Shift=    0.000
 Gap=     0.114 Goal=   None    Shift=    0.000
 RMSDP=1.38D-05 MaxDP=2.90D-03 DE=-2.48D-05 OVMax= 7.35D-03

 Cycle  18  Pass 1  IDiag  1:
 RMSU=  8.21D-06    CP:  1.00D+00  2.78D+00  4.00D-01  7.84D-01  7.93D-01
                    CP:  2.10D+00  3.00D+00  3.00D+00  3.00D+00  3.00D+00
                    CP:  3.00D+00  3.00D+00  2.60D+00  3.00D+00  3.00D+00
                    CP:  3.00D+00  3.00D+00
 E= -3881.44883443231     Delta-E=       -0.000031549534 Rises=F Damp=F
 DIIS: error= 9.72D-05 at cycle  18 NSaved=  18.
 NSaved=18 IEnMin=18 EnMin= -3881.44883443231     IErMin=17 ErrMin= 9.67D-05
 ErrMax= 9.72D-05  0.00D+00 EMaxC= 1.00D-01 BMatC= 3.57D-05 BMatP= 3.29D-05
 IDIUse=1 WtCom= 1.00D+00 WtEn= 0.00D+00
 Coeff-Com: -0.163D-03 0.268D-03-0.230D-03 0.783D-03-0.102D-01 0.704D-02
 Coeff-Com: -0.283D-01 0.590D-01-0.762D-02-0.304D-01-0.930D-01 0.126D+00
 Coeff-Com:  0.967D-01-0.362D+00-0.922D-01 0.397D+00 0.157D+01-0.638D+00
 Coeff:     -0.163D-03 0.268D-03-0.230D-03 0.783D-03-0.102D-01 0.704D-02
 Coeff:     -0.283D-01 0.590D-01-0.762D-02-0.304D-01-0.930D-01 0.126D+00
 Coeff:      0.967D-01-0.362D+00-0.922D-01 0.397D+00 0.157D+01-0.638D+00
 Gap=     0.353 Goal=   None    Shift=    0.000
 Gap=     0.114 Goal=   None    Shift=    0.000
 RMSDP=9.42D-06 MaxDP=1.96D-03 DE=-3.15D-05 OVMax= 5.22D-03

 Cycle  19  Pass 1  IDiag  1:
 RMSU=  1.21D-06    CP:  1.00D+00  2.78D+00  3.99D-01  7.87D-01  7.88D-01
                    CP:  2.10D+00  3.00D+00  3.00D+00  3.00D+00  3.00D+00
                    CP:  3.00D+00  3.00D+00  2.51D+00  2.93D+00  3.00D+00
                    CP:  2.51D+00  1.52D+00  1.99D-01
 E= -3881.44881273049     Delta-E=        0.000021701817 Rises=F Damp=F
 DIIS: error= 9.57D-05 at cycle  19 NSaved=  19.
 NSaved=19 IEnMin=18 EnMin= -3881.44883443231     IErMin=19 ErrMin= 9.57D-05
 ErrMax= 9.57D-05  0.00D+00 EMaxC= 1.00D-01 BMatC= 3.42D-05 BMatP= 3.29D-05
 IDIUse=1 WtCom= 1.00D+00 WtEn= 0.00D+00
 Coeff-Com: -0.102D-04 0.593D-04-0.130D-03 0.561D-03-0.957D-02 0.525D-02
 Coeff-Com: -0.262D-01 0.605D-01-0.992D-03-0.524D-01-0.106D+00 0.177D+00
 Coeff-Com:  0.135D+00-0.406D+00-0.427D+00 0.136D+00 0.262D+01-0.374D+01
 Coeff-Com:  0.263D+01
 Coeff:     -0.102D-04 0.593D-04-0.130D-03 0.561D-03-0.957D-02 0.525D-02
 Coeff:     -0.262D-01 0.605D-01-0.992D-03-0.524D-01-0.106D+00 0.177D+00
 Coeff:      0.135D+00-0.406D+00-0.427D+00 0.136D+00 0.262D+01-0.374D+01
 Coeff:      0.263D+01
 Gap=     0.354 Goal=   None    Shift=    0.000
 Gap=     0.114 Goal=   None    Shift=    0.000
 RMSDP=2.34D-05 MaxDP=4.94D-03 DE= 2.17D-05 OVMax= 1.32D-02

 Cycle  20  Pass 1  IDiag  1:
 RMSU=  2.23D-06    CP:  1.00D+00  2.79D+00  3.98D-01  7.95D-01  7.76D-01
                    CP:  2.10D+00  3.00D+00  3.00D+00  3.00D+00  3.00D+00
                    CP:  3.00D+00  3.00D+00  2.27D+00  1.86D+00  9.97D-01
                    CP: -1.73D-02 -1.87D+00  5.05D-02  6.45D-01
 E= -3881.44875982375     Delta-E=        0.000052906740 Rises=F Damp=F
 DIIS: error= 9.19D-05 at cycle  20 NSaved=  20.
 NSaved=20 IEnMin=18 EnMin= -3881.44883443231     IErMin=20 ErrMin= 9.19D-05
 ErrMax= 9.19D-05  0.00D+00 EMaxC= 1.00D-01 BMatC= 3.04D-05 BMatP= 3.29D-05
 IDIUse=1 WtCom= 1.00D+00 WtEn= 0.00D+00
 Coeff-Com:  0.112D-04 0.225D-04-0.656D-04 0.764D-03-0.949D-02-0.252D-02
 Coeff-Com: -0.326D-01 0.830D-01 0.281D-01-0.540D-01-0.194D+00 0.127D+00
 Coeff-Com:  0.309D+00-0.154D+00-0.526D+00-0.116D+01 0.164D+01-0.280D+01
 Coeff-Com:  0.138D+01 0.237D+01
 Coeff:      0.112D-04 0.225D-04-0.656D-04 0.764D-03-0.949D-02-0.252D-02
 Coeff:     -0.326D-01 0.830D-01 0.281D-01-0.540D-01-0.194D+00 0.127D+00
 Coeff:      0.309D+00-0.154D+00-0.526D+00-0.116D+01 0.164D+01-0.280D+01
 Coeff:      0.138D+01 0.237D+01
 Gap=     0.354 Goal=   None    Shift=    0.000
 Gap=     0.114 Goal=   None    Shift=    0.000
 RMSDP=3.23D-05 MaxDP=7.04D-03 DE= 5.29D-05 OVMax= 1.92D-02

 Cycle  21  Pass 1  IDiag  1:
 Restarting incremental Fock formation.
 E= -3881.44869012370     Delta-E=        0.000069700051 Rises=F Damp=F
 DIIS: error= 8.27D-05 at cycle  21 NSaved=  20.
 NSaved=20 IEnMin=17 EnMin= -3881.44883443231     IErMin=20 ErrMin= 8.27D-05
 ErrMax= 8.27D-05  0.00D+00 EMaxC= 1.00D-01 BMatC= 2.57D-05 BMatP= 3.04D-05
 IDIUse=1 WtCom= 1.00D+00 WtEn= 0.00D+00
 Coeff-Com:  0.212D-04-0.692D-04 0.897D-03-0.842D-02 0.551D-03-0.283D-01
 Coeff-Com:  0.750D-01 0.169D-01-0.212D-01-0.165D+00 0.446D-01 0.271D+00
 Coeff-Com: -0.138D-01-0.219D+00-0.116D+01 0.284D+00 0.585D+00-0.164D+01
 Coeff-Com:  0.191D+01 0.106D+01
 Coeff:      0.212D-04-0.692D-04 0.897D-03-0.842D-02 0.551D-03-0.283D-01
 Coeff:      0.750D-01 0.169D-01-0.212D-01-0.165D+00 0.446D-01 0.271D+00
 Coeff:     -0.138D-01-0.219D+00-0.116D+01 0.284D+00 0.585D+00-0.164D+01
 Coeff:      0.191D+01 0.106D+01
 Gap=     0.355 Goal=   None    Shift=    0.000
 Gap=     0.114 Goal=   None    Shift=    0.000
 RMSDP=2.09D-05 MaxDP=4.66D-03 DE= 6.97D-05 OVMax= 1.33D-02

 Cycle  22  Pass 1  IDiag  1:
 RMSU=  2.09D-05    CP:  1.00D+00
 E= -3881.44864944737     Delta-E=        0.000040676328 Rises=F Damp=F
 DIIS: error= 7.62D-05 at cycle  22 NSaved=  20.
 NSaved=20 IEnMin=16 EnMin= -3881.44883443231     IErMin=20 ErrMin= 7.62D-05
 ErrMax= 7.62D-05  0.00D+00 EMaxC= 1.00D-01 BMatC= 2.17D-05 BMatP= 2.57D-05
 IDIUse=1 WtCom= 1.00D+00 WtEn= 0.00D+00
 Coeff-Com:  0.109D-04 0.517D-03-0.674D-02 0.102D-01-0.185D-01 0.137D-01
 Coeff-Com: -0.924D-02 0.131D-01-0.770D-02-0.126D-01-0.528D-01-0.173D-01
 Coeff-Com:  0.296D+00 0.635D+00-0.661D+00 0.472D+01-0.426D+01-0.182D+01
 Coeff-Com: -0.125D+01 0.343D+01
 Coeff:      0.109D-04 0.517D-03-0.674D-02 0.102D-01-0.185D-01 0.137D-01
 Coeff:     -0.924D-02 0.131D-01-0.770D-02-0.126D-01-0.528D-01-0.173D-01
 Coeff:      0.296D+00 0.635D+00-0.661D+00 0.472D+01-0.426D+01-0.182D+01
 Coeff:     -0.125D+01 0.343D+01
 Gap=     0.355 Goal=   None    Shift=    0.000
 Gap=     0.114 Goal=   None    Shift=    0.000
 RMSDP=3.44D-05 MaxDP=7.72D-03 DE= 4.07D-05 OVMax= 2.51D-02

 Cycle  23  Pass 1  IDiag  1:
 RMSU=  9.77D-06    CP:  1.00D+00  2.57D+00
 E= -3881.44859887626     Delta-E=        0.000050571114 Rises=F Damp=F
 DIIS: error= 5.80D-05 at cycle  23 NSaved=  20.
 NSaved=20 IEnMin=15 EnMin= -3881.44883443231     IErMin=20 ErrMin= 5.80D-05
 ErrMax= 5.80D-05  0.00D+00 EMaxC= 1.00D-01 BMatC= 1.69D-05 BMatP= 2.17D-05
 IDIUse=1 WtCom= 1.00D+00 WtEn= 0.00D+00
 Coeff-Com:  0.736D-03-0.803D-02-0.277D-02-0.211D-01 0.902D-02 0.802D-01
 Coeff-Com: -0.512D-01-0.823D-01 0.712D-01 0.558D-01 0.160D+00-0.138D+00
 Coeff-Com: -0.581D+00 0.494D+00 0.214D+01-0.260D+01 0.906D+00-0.331D+01
 Coeff-Com:  0.235D+01 0.152D+01
 Coeff:      0.736D-03-0.803D-02-0.277D-02-0.211D-01 0.902D-02 0.802D-01
 Coeff:     -0.512D-01-0.823D-01 0.712D-01 0.558D-01 0.160D+00-0.138D+00
 Coeff:     -0.581D+00 0.494D+00 0.214D+01-0.260D+01 0.906D+00-0.331D+01
 Coeff:      0.235D+01 0.152D+01
 Gap=     0.355 Goal=   None    Shift=    0.000
 Gap=     0.114 Goal=   None    Shift=    0.000
 RMSDP=4.73D-05 MaxDP=1.06D-02 DE= 5.06D-05 OVMax= 3.43D-02

 Cycle  24  Pass 1  IDiag  1:
 RMSU=  3.71D-05    CP:  1.00D+00  3.00D+00  2.17D+00
 E= -3881.44853800380     Delta-E=        0.000060872453 Rises=F Damp=F
 DIIS: error= 5.02D-05 at cycle  24 NSaved=  20.
 NSaved=20 IEnMin=14 EnMin= -3881.44883443231     IErMin=20 ErrMin= 5.02D-05
 ErrMax= 5.02D-05  0.00D+00 EMaxC= 1.00D-01 BMatC= 1.27D-05 BMatP= 1.69D-05
 IDIUse=1 WtCom= 1.00D+00 WtEn= 0.00D+00
 Coeff-Com: -0.392D-02 0.341D-02 0.663D-02-0.370D-02 0.427D-01-0.829D-01
 Coeff-Com: -0.463D-01 0.130D+00 0.512D-01-0.493D-01 0.287D-01-0.631D+00
 Coeff-Com:  0.558D+00 0.934D+00-0.254D+01 0.277D+01-0.241D+01-0.425D+00
 Coeff-Com:  0.953D+00 0.171D+01
 Coeff:     -0.392D-02 0.341D-02 0.663D-02-0.370D-02 0.427D-01-0.829D-01
 Coeff:     -0.463D-01 0.130D+00 0.512D-01-0.493D-01 0.287D-01-0.631D+00
 Coeff:      0.558D+00 0.934D+00-0.254D+01 0.277D+01-0.241D+01-0.425D+00
 Coeff:      0.953D+00 0.171D+01
 Gap=     0.354 Goal=   None    Shift=    0.000
 Gap=     0.115 Goal=   None    Shift=    0.000
 RMSDP=1.00D-04 MaxDP=2.25D-02 DE= 6.09D-05 OVMax= 7.41D-02

 Cycle  25  Pass 1  IDiag  1:
 RMSU=  2.93D-05    CP:  1.00D+00  3.00D+00  3.00D+00  3.00D+00
 E= -3881.44845111243     Delta-E=        0.000086891376 Rises=F Damp=F
 DIIS: error= 5.75D-05 at cycle  25 NSaved=  20.
 NSaved=20 IEnMin=13 EnMin= -3881.44883443231     IErMin=19 ErrMin= 5.02D-05
 ErrMax= 5.75D-05  0.00D+00 EMaxC= 1.00D-01 BMatC= 1.05D-05 BMatP= 1.27D-05
 IDIUse=1 WtCom= 1.00D+00 WtEn= 0.00D+00
 Coeff-Com:  0.120D-01 0.685D-02-0.184D-01-0.435D-01 0.247D-01 0.710D-01
 Coeff-Com:  0.143D-01-0.157D+00-0.216D+00 0.266D+00 0.646D+00 0.499D+00
 Coeff-Com:  0.422D+00-0.101D+01 0.523D+00-0.219D+01-0.494D+00 0.607D+00
 Coeff-Com:  0.117D+01 0.867D+00
 Coeff:      0.120D-01 0.685D-02-0.184D-01-0.435D-01 0.247D-01 0.710D-01
 Coeff:      0.143D-01-0.157D+00-0.216D+00 0.266D+00 0.646D+00 0.499D+00
 Coeff:      0.422D+00-0.101D+01 0.523D+00-0.219D+01-0.494D+00 0.607D+00
 Coeff:      0.117D+01 0.867D+00
 Gap=     0.351 Goal=   None    Shift=    0.000
 Gap=     0.116 Goal=   None    Shift=    0.000
 RMSDP=7.37D-05 MaxDP=1.59D-02 DE= 8.69D-05 OVMax= 4.04D-02

 Cycle  26  Pass 1  IDiag  1:
 RMSU=  2.30D-05    CP:  1.00D+00  3.00D+00  3.00D+00  3.00D+00  3.00D+00
 E= -3881.44843109816     Delta-E=        0.000020014268 Rises=F Damp=F
 DIIS: error= 4.78D-05 at cycle  26 NSaved=  20.
 NSaved=20 IEnMin=12 EnMin= -3881.44883443231     IErMin=20 ErrMin= 4.78D-05
 ErrMax= 4.78D-05  0.00D+00 EMaxC= 1.00D-01 BMatC= 7.24D-06 BMatP= 1.05D-05
 IDIUse=1 WtCom= 1.00D+00 WtEn= 0.00D+00
 Coeff-Com: -0.264D-02 0.152D-01 0.509D-02-0.110D-01-0.507D-01 0.568D-01
 Coeff-Com:  0.970D-01-0.176D-02-0.385D+00-0.985D+00 0.158D+01-0.282D+01
 Coeff-Com:  0.794D+00 0.326D+01-0.190D+01-0.111D+01 0.727D+00 0.839D+00
 Coeff-Com:  0.112D-01 0.888D+00
 Coeff:     -0.264D-02 0.152D-01 0.509D-02-0.110D-01-0.507D-01 0.568D-01
 Coeff:      0.970D-01-0.176D-02-0.385D+00-0.985D+00 0.158D+01-0.282D+01
 Coeff:      0.794D+00 0.326D+01-0.190D+01-0.111D+01 0.727D+00 0.839D+00
 Coeff:      0.112D-01 0.888D+00
 Gap=     0.348 Goal=   None    Shift=    0.000
 Gap=     0.118 Goal=   None    Shift=    0.000
 RMSDP=7.16D-05 MaxDP=1.56D-02 DE= 2.00D-05 OVMax= 4.45D-02

 Cycle  27  Pass 1  IDiag  1:
 RMSU=  4.43D-05    CP:  1.00D+00  3.00D+00  3.00D+00  3.00D+00  3.00D+00
                    CP:  3.00D+00
 E= -3881.44840148689     Delta-E=        0.000029611272 Rises=F Damp=F
 DIIS: error= 1.28D-04 at cycle  27 NSaved=  20.
 NSaved=20 IEnMin=11 EnMin= -3881.44883443231     IErMin=19 ErrMin= 4.78D-05
 ErrMax= 1.28D-04  0.00D+00 EMaxC= 1.00D-01 BMatC= 6.55D-05 BMatP= 7.24D-06
 IDIUse=1 WtCom= 1.00D+00 WtEn= 0.00D+00
 Coeff-Com:  0.183D-01-0.923D-02 0.169D-01-0.319D-01 0.362D-02 0.667D-01
 Coeff-Com: -0.532D-01-0.811D-01-0.604D+00 0.537D+00-0.885D+00 0.132D+00
 Coeff-Com:  0.222D+01-0.855D-01-0.195D+01-0.426D+00 0.881D+00 0.851D+00
 Coeff-Com:  0.838D+00-0.440D+00
 Coeff:      0.183D-01-0.923D-02 0.169D-01-0.319D-01 0.362D-02 0.667D-01
 Coeff:     -0.532D-01-0.811D-01-0.604D+00 0.537D+00-0.885D+00 0.132D+00
 Coeff:      0.222D+01-0.855D-01-0.195D+01-0.426D+00 0.881D+00 0.851D+00
 Coeff:      0.838D+00-0.440D+00
 Gap=     0.352 Goal=   None    Shift=    0.000
 Gap=     0.116 Goal=   None    Shift=    0.000
 RMSDP=9.18D-05 MaxDP=2.03D-02 DE= 2.96D-05 OVMax= 6.36D-02

 Cycle  28  Pass 1  IDiag  1:
 RMSU=  9.36D-06    CP:  1.00D+00  3.00D+00  3.00D+00  3.00D+00  2.91D+00
                    CP:  3.25D-01 -1.85D-01
 E= -3881.44844382969     Delta-E=       -0.000042342799 Rises=F Damp=F
 DIIS: error= 4.17D-05 at cycle  28 NSaved=  20.
 NSaved=20 IEnMin=10 EnMin= -3881.44883443231     IErMin=20 ErrMin= 4.17D-05
 ErrMax= 4.17D-05  0.00D+00 EMaxC= 1.00D-01 BMatC= 5.61D-06 BMatP= 7.24D-06
 IDIUse=1 WtCom= 1.00D+00 WtEn= 0.00D+00
 Coeff-Com: -0.206D-02 0.382D-01-0.781D-02-0.922D-01 0.180D-01 0.203D+00
 Coeff-Com:  0.166D+00-0.492D+00-0.881D+00 0.133D+01-0.168D+01 0.132D+01
 Coeff-Com:  0.109D+01-0.100D+01-0.711D+00 0.417D+00 0.452D+00 0.947D-01
 Coeff-Com: -0.478D+00 0.123D+01
 Coeff:     -0.206D-02 0.382D-01-0.781D-02-0.922D-01 0.180D-01 0.203D+00
 Coeff:      0.166D+00-0.492D+00-0.881D+00 0.133D+01-0.168D+01 0.132D+01
 Coeff:      0.109D+01-0.100D+01-0.711D+00 0.417D+00 0.452D+00 0.947D-01
 Coeff:     -0.478D+00 0.123D+01
 Gap=     0.351 Goal=   None    Shift=    0.000
 Gap=     0.116 Goal=   None    Shift=    0.000
 RMSDP=9.76D-06 MaxDP=1.70D-03 DE=-4.23D-05 OVMax= 5.33D-03

 Cycle  29  Pass 1  IDiag  1:
 RMSU=  2.37D-06    CP:  1.00D+00  3.00D+00  3.00D+00  3.00D+00  3.00D+00
                    CP:  5.87D-01 -1.12D-01  1.20D+00
 E= -3881.44843969834     Delta-E=        0.000004131352 Rises=F Damp=F
 DIIS: error= 6.07D-05 at cycle  29 NSaved=  20.
 NSaved=20 IEnMin= 9 EnMin= -3881.44883443231     IErMin=19 ErrMin= 4.17D-05
 ErrMax= 6.07D-05  0.00D+00 EMaxC= 1.00D-01 BMatC= 1.35D-05 BMatP= 5.61D-06
 IDIUse=1 WtCom= 1.00D+00 WtEn= 0.00D+00
 Coeff-Com:  0.319D-01-0.903D-02-0.855D-01 0.285D-01 0.194D+00 0.879D-01
 Coeff-Com: -0.401D+00-0.821D+00 0.827D+00-0.118D+01 0.858D+00 0.109D+01
 Coeff-Com: -0.465D+00-0.594D+00 0.129D+00 0.254D+00 0.296D-01-0.634D+00
 Coeff-Com:  0.804D+00 0.856D+00
 Coeff:      0.319D-01-0.903D-02-0.855D-01 0.285D-01 0.194D+00 0.879D-01
 Coeff:     -0.401D+00-0.821D+00 0.827D+00-0.118D+01 0.858D+00 0.109D+01
 Coeff:     -0.465D+00-0.594D+00 0.129D+00 0.254D+00 0.296D-01-0.634D+00
 Coeff:      0.804D+00 0.856D+00
 Gap=     0.351 Goal=   None    Shift=    0.000
 Gap=     0.117 Goal=   None    Shift=    0.000
 RMSDP=8.44D-06 MaxDP=1.41D-03 DE= 4.13D-06 OVMax= 4.53D-03

 Cycle  30  Pass 1  IDiag  1:
 RMSU=  7.98D-07    CP:  1.00D+00  3.00D+00  3.00D+00  3.00D+00  3.00D+00
                    CP:  8.71D-01 -1.79D-02  1.43D+00  1.99D+00
 E= -3881.44843491059     Delta-E=        0.000004787749 Rises=F Damp=F
 DIIS: error= 7.85D-05 at cycle  30 NSaved=  20.
 NSaved=20 IEnMin= 8 EnMin= -3881.44883443231     IErMin=18 ErrMin= 4.17D-05
 ErrMax= 7.85D-05  0.00D+00 EMaxC= 1.00D-01 BMatC= 2.49D-05 BMatP= 5.61D-06
 IDIUse=1 WtCom= 1.00D+00 WtEn= 0.00D+00
 Coeff-Com: -0.625D-02-0.296D-02 0.235D-01 0.241D-02-0.166D+00-0.123D+00
 Coeff-Com:  0.425D+00-0.137D+01 0.848D+00 0.573D+00-0.546D+00-0.500D-01
 Coeff-Com:  0.612D-01 0.136D+00 0.200D+00 0.539D+00-0.996D+00 0.993D-01
 Coeff-Com: -0.290D+00 0.164D+01
 Coeff:     -0.625D-02-0.296D-02 0.235D-01 0.241D-02-0.166D+00-0.123D+00
 Coeff:      0.425D+00-0.137D+01 0.848D+00 0.573D+00-0.546D+00-0.500D-01
 Coeff:      0.612D-01 0.136D+00 0.200D+00 0.539D+00-0.996D+00 0.993D-01
 Coeff:     -0.290D+00 0.164D+01
 Gap=     0.351 Goal=   None    Shift=    0.000
 Gap=     0.117 Goal=   None    Shift=    0.000
 RMSDP=1.27D-05 MaxDP=3.02D-03 DE= 4.79D-06 OVMax= 8.28D-03

 Cycle  31  Pass 1  IDiag  1:
 RMSU=  2.38D-06    CP:  1.00D+00  3.00D+00  3.00D+00  3.00D+00  3.00D+00
                    CP:  4.41D-01 -1.37D-01  1.94D+00  3.00D+00  3.39D-01
 E= -3881.44843937259     Delta-E=       -0.000004462006 Rises=F Damp=F
 DIIS: error= 8.30D-05 at cycle  31 NSaved=  20.
 NSaved=20 IEnMin= 7 EnMin= -3881.44883443231     IErMin=17 ErrMin= 4.17D-05
 ErrMax= 8.30D-05  0.00D+00 EMaxC= 1.00D-01 BMatC= 2.97D-05 BMatP= 5.61D-06
 IDIUse=1 WtCom= 1.00D+00 WtEn= 0.00D+00
 Coeff-Com: -0.713D-03 0.122D-01-0.185D-01-0.147D+00-0.833D-01 0.489D+00
 Coeff-Com: -0.148D+01 0.793D+00 0.701D+00-0.682D+00-0.169D-01 0.763D-01
 Coeff-Com:  0.184D+00 0.209D+00 0.591D+00-0.102D+01 0.185D+00-0.584D+00
 Coeff-Com:  0.137D+01 0.425D+00
 Coeff:     -0.713D-03 0.122D-01-0.185D-01-0.147D+00-0.833D-01 0.489D+00
 Coeff:     -0.148D+01 0.793D+00 0.701D+00-0.682D+00-0.169D-01 0.763D-01
 Coeff:      0.184D+00 0.209D+00 0.591D+00-0.102D+01 0.185D+00-0.584D+00
 Coeff:      0.137D+01 0.425D+00
 Gap=     0.352 Goal=   None    Shift=    0.000
 Gap=     0.118 Goal=   None    Shift=    0.000
 RMSDP=3.78D-06 MaxDP=9.60D-04 DE=-4.46D-06 OVMax= 2.40D-03

 Cycle  32  Pass 1  IDiag  1:
 RMSU=  1.17D-06    CP:  1.00D+00  3.00D+00  3.00D+00  3.00D+00  3.00D+00
                    CP:  3.27D-01 -1.86D-01  1.99D+00  3.00D+00  4.40D-01
                    CP:  1.45D+00
 E= -3881.44843945316     Delta-E=       -0.000000080565 Rises=F Damp=F
 DIIS: error= 9.01D-05 at cycle  32 NSaved=  20.
 NSaved=20 IEnMin= 6 EnMin= -3881.44883443231     IErMin=16 ErrMin= 4.17D-05
 ErrMax= 9.01D-05  0.00D+00 EMaxC= 1.00D-01 BMatC= 3.44D-05 BMatP= 5.61D-06
 IDIUse=1 WtCom= 1.00D+00 WtEn= 0.00D+00
 Coeff-Com:  0.107D-01-0.375D-01-0.149D+00 0.151D-02 0.493D+00-0.146D+01
 Coeff-Com:  0.844D+00 0.529D+00-0.675D+00 0.356D-01 0.375D-01 0.176D+00
 Coeff-Com:  0.255D+00 0.585D+00-0.101D+01 0.736D-01-0.616D+00 0.165D+01
 Coeff-Com:  0.999D+00-0.744D+00
 Coeff:      0.107D-01-0.375D-01-0.149D+00 0.151D-02 0.493D+00-0.146D+01
 Coeff:      0.844D+00 0.529D+00-0.675D+00 0.356D-01 0.375D-01 0.176D+00
 Coeff:      0.255D+00 0.585D+00-0.101D+01 0.736D-01-0.616D+00 0.165D+01
 Coeff:      0.999D+00-0.744D+00
 Gap=     0.351 Goal=   None    Shift=    0.000
 Gap=     0.117 Goal=   None    Shift=    0.000
 RMSDP=6.12D-06 MaxDP=1.50D-03 DE=-8.06D-08 OVMax= 3.73D-03

 Cycle  33  Pass 1  IDiag  1:
 RMSU=  1.84D-07    CP:  1.00D+00  3.00D+00  3.00D+00  3.00D+00  3.00D+00
                    CP:  5.38D-01 -1.10D-01  1.92D+00  3.00D+00  6.32D-01
                    CP:  9.55D-01  2.07D-01
 E= -3881.44843749899     Delta-E=        0.000001954169 Rises=F Damp=F
 DIIS: error= 8.82D-05 at cycle  33 NSaved=  20.
 NSaved=20 IEnMin= 6 EnMin= -3881.44883443231     IErMin=15 ErrMin= 4.17D-05
 ErrMax= 8.82D-05  0.00D+00 EMaxC= 1.00D-01 BMatC= 3.27D-05 BMatP= 5.61D-06
 IDIUse=1 WtCom= 1.00D+00 WtEn= 0.00D+00
 Coeff-Com:  0.109D-01 0.158D+00-0.145D+00-0.736D+00-0.121D+00-0.669D+00
 Coeff-Com: -0.585D+00 0.202D+01 0.721D+00-0.879D+00-0.175D+00 0.265D+00
 Coeff-Com: -0.192D+00-0.747D-01 0.995D+00 0.155D+01-0.314D+00 0.436D+00
 Coeff-Com:  0.178D+01-0.305D+01
 Coeff:      0.109D-01 0.158D+00-0.145D+00-0.736D+00-0.121D+00-0.669D+00
 Coeff:     -0.585D+00 0.202D+01 0.721D+00-0.879D+00-0.175D+00 0.265D+00
 Coeff:     -0.192D+00-0.747D-01 0.995D+00 0.155D+01-0.314D+00 0.436D+00
 Coeff:      0.178D+01-0.305D+01
 Gap=     0.349 Goal=   None    Shift=    0.000
 Gap=     0.117 Goal=   None    Shift=    0.000
 RMSDP=6.54D-05 MaxDP=1.53D-02 DE= 1.95D-06 OVMax= 3.39D-02

 Cycle  34  Pass 1  IDiag  1:
 RMSU=  2.36D-06    CP:  1.00D+00  3.00D+00  3.00D+00  3.00D+00  3.00D+00
                    CP:  2.82D+00  6.72D-01  2.86D-01  2.02D+00  3.00D+00
                    CP: -2.46D+00 -1.39D+00  3.00D+00
 E= -3881.44841232540     Delta-E=        0.000025173593 Rises=F Damp=F
 DIIS: error= 1.05D-04 at cycle  34 NSaved=  20.
 NSaved=20 IEnMin= 6 EnMin= -3881.44883443231     IErMin=14 ErrMin= 4.17D-05
 ErrMax= 1.05D-04  0.00D+00 EMaxC= 1.00D-01 BMatC= 4.57D-05 BMatP= 5.61D-06
 IDIUse=1 WtCom= 1.00D+00 WtEn= 0.00D+00
 Coeff-Com:  0.599D-01-0.197D-02-0.158D+00-0.657D+00 0.199D+00-0.134D+01
 Coeff-Com:  0.339D+00 0.200D+01 0.637D+00-0.136D+01-0.521D+00 0.577D+00
 Coeff-Com:  0.605D+00 0.877D-01 0.333D+00 0.189D+01 0.725D+00-0.554D+01
 Coeff-Com:  0.444D+01-0.132D+01
 Coeff:      0.599D-01-0.197D-02-0.158D+00-0.657D+00 0.199D+00-0.134D+01
 Coeff:      0.339D+00 0.200D+01 0.637D+00-0.136D+01-0.521D+00 0.577D+00
 Coeff:      0.605D+00 0.877D-01 0.333D+00 0.189D+01 0.725D+00-0.554D+01
 Coeff:      0.444D+01-0.132D+01
 Gap=     0.351 Goal=   None    Shift=    0.000
 Gap=     0.117 Goal=   None    Shift=    0.000
 RMSDP=5.55D-05 MaxDP=1.25D-02 DE= 2.52D-05 OVMax= 3.39D-02

 Cycle  35  Pass 1  IDiag  1:
 RMSU=  1.28D-06    CP:  1.00D+00  3.00D+00  3.00D+00  3.00D+00  3.00D+00
                    CP:  8.83D-01 -3.73D-02  1.11D+00  8.86D-01 -2.64D-01
                    CP: -8.26D-01  4.52D-01  2.35D+00 -4.12D-01
 E= -3881.44843376930     Delta-E=       -0.000021443901 Rises=F Damp=F
 DIIS: error= 7.87D-05 at cycle  35 NSaved=  20.
 NSaved=20 IEnMin= 6 EnMin= -3881.44883443231     IErMin=14 ErrMin= 4.17D-05
 ErrMax= 7.87D-05  0.00D+00 EMaxC= 1.00D-01 BMatC= 2.49D-05 BMatP= 5.61D-06
 IDIUse=1 WtCom= 1.00D+00 WtEn= 0.00D+00
 Coeff-Com:  0.308D-01 0.667D-01-0.203D+00-0.596D+00 0.368D+00-0.194D+01
 Coeff-Com:  0.715D+00 0.185D+01 0.260D+00-0.957D+00-0.102D+00 0.321D+00
 Coeff-Com:  0.145D+00 0.667D+00 0.466D+00-0.617D+00 0.467D+00 0.705D-01
 Coeff-Com: -0.126D+01 0.125D+01
 Coeff:      0.308D-01 0.667D-01-0.203D+00-0.596D+00 0.368D+00-0.194D+01
 Coeff:      0.715D+00 0.185D+01 0.260D+00-0.957D+00-0.102D+00 0.321D+00
 Coeff:      0.145D+00 0.667D+00 0.466D+00-0.617D+00 0.467D+00 0.705D-01
 Coeff:     -0.126D+01 0.125D+01
 Gap=     0.351 Goal=   None    Shift=    0.000
 Gap=     0.118 Goal=   None    Shift=    0.000
 RMSDP=7.37D-06 MaxDP=1.92D-03 DE=-2.14D-05 OVMax= 4.68D-03

 Cycle  36  Pass 1  IDiag  1:
 RMSU=  6.67D-07    CP:  1.00D+00  3.00D+00  3.00D+00  3.00D+00  3.00D+00
                    CP:  6.86D-01 -1.19D-01  1.35D+00  2.00D+00 -2.82D-01
                    CP:  1.78D-01  1.60D+00 -1.39D+00 -6.38D-01  1.34D+00
 E= -3881.44843151466     Delta-E=        0.000002254639 Rises=F Damp=F
 DIIS: error= 1.00D-04 at cycle  36 NSaved=  20.
 NSaved=20 IEnMin= 6 EnMin= -3881.44883443231     IErMin=14 ErrMin= 4.17D-05
 ErrMax= 1.00D-04  0.00D+00 EMaxC= 1.00D-01 BMatC= 4.32D-05 BMatP= 5.61D-06
 IDIUse=1 WtCom= 1.00D+00 WtEn= 0.00D+00
 Coeff-Com:  0.606D-01 0.144D+00-0.223D+00-0.103D+01 0.211D+00-0.118D+01
 Coeff-Com: -0.405D+00 0.266D+01 0.447D+00-0.990D+00-0.123D+00 0.389D+00
 Coeff-Com: -0.140D+00 0.840D+00 0.895D+00-0.820D+00 0.303D+01-0.125D+01
 Coeff-Com:  0.149D+00-0.166D+01
 Coeff:      0.606D-01 0.144D+00-0.223D+00-0.103D+01 0.211D+00-0.118D+01
 Coeff:     -0.405D+00 0.266D+01 0.447D+00-0.990D+00-0.123D+00 0.389D+00
 Coeff:     -0.140D+00 0.840D+00 0.895D+00-0.820D+00 0.303D+01-0.125D+01
 Coeff:      0.149D+00-0.166D+01
 Gap=     0.350 Goal=   None    Shift=    0.000
 Gap=     0.117 Goal=   None    Shift=    0.000
 RMSDP=4.53D-05 MaxDP=1.00D-02 DE= 2.25D-06 OVMax= 2.80D-02

 Cycle  37  Pass 1  IDiag  1:
 RMSU=  1.04D-06    CP:  1.00D+00  3.00D+00  3.00D+00  3.00D+00  3.00D+00
                    CP:  2.24D+00  4.71D-01  9.99D-01  3.00D+00  3.00D+00
                    CP: -1.21D-01 -8.52D-02  3.00D+00  1.70D+00 -1.59D+00
                    CP: -8.43D-01
 E= -3881.44841684753     Delta-E=        0.000014667126 Rises=F Damp=F
 DIIS: error= 1.04D-04 at cycle  37 NSaved=  20.
 NSaved=20 IEnMin= 6 EnMin= -3881.44883443231     IErMin=14 ErrMin= 4.17D-05
 ErrMax= 1.04D-04  0.00D+00 EMaxC= 1.00D-01 BMatC= 4.56D-05 BMatP= 5.61D-06
 IDIUse=1 WtCom= 1.00D+00 WtEn= 0.00D+00
 Coeff-Com:  0.617D-01 0.160D+00-0.195D+00-0.108D+01 0.137D+00-0.910D+00
 Coeff-Com: -0.722D+00 0.276D+01 0.424D+00-0.953D+00-0.979D-01 0.413D+00
 Coeff-Com: -0.172D+00 0.796D+00 0.900D+00-0.701D+00 0.299D+01-0.939D+00
 Coeff-Com: -0.214D+01 0.264D+00
 Coeff:      0.617D-01 0.160D+00-0.195D+00-0.108D+01 0.137D+00-0.910D+00
 Coeff:     -0.722D+00 0.276D+01 0.424D+00-0.953D+00-0.979D-01 0.413D+00
 Coeff:     -0.172D+00 0.796D+00 0.900D+00-0.701D+00 0.299D+01-0.939D+00
 Coeff:     -0.214D+01 0.264D+00
 Gap=     0.349 Goal=   None    Shift=    0.000
 Gap=     0.117 Goal=   None    Shift=    0.000
 RMSDP=7.82D-06 MaxDP=1.41D-03 DE= 1.47D-05 OVMax= 5.58D-03

 Cycle  38  Pass 1  IDiag  1:
 RMSU=  1.01D-06    CP:  1.00D+00  3.00D+00  3.00D+00  3.00D+00  3.00D+00
                    CP:  2.47D+00  5.74D-01  1.08D+00  3.00D+00  3.00D+00
                    CP:  3.00D-01  3.86D-01  3.00D+00  2.71D+00 -2.45D+00
                    CP: -1.84D+00  1.59D+00
 E= -3881.44841433832     Delta-E=        0.000002509214 Rises=F Damp=F
 DIIS: error= 1.08D-04 at cycle  38 NSaved=  20.
 NSaved=20 IEnMin= 6 EnMin= -3881.44883443231     IErMin=14 ErrMin= 4.17D-05
 ErrMax= 1.08D-04  0.00D+00 EMaxC= 1.00D-01 BMatC= 4.88D-05 BMatP= 5.61D-06
 IDIUse=1 WtCom= 1.00D+00 WtEn= 0.00D+00
 Coeff-Com:  0.460D-01 0.147D+00-0.236D+00-0.934D+00 0.139D+00-0.118D+01
 Coeff-Com: -0.278D+00 0.243D+01 0.681D+00-0.103D+01-0.240D+00 0.329D+00
 Coeff-Com: -0.107D+00 0.922D+00 0.128D+01 0.113D-02 0.109D+01-0.153D+01
 Coeff-Com: -0.205D+01 0.151D+01
 Coeff:      0.460D-01 0.147D+00-0.236D+00-0.934D+00 0.139D+00-0.118D+01
 Coeff:     -0.278D+00 0.243D+01 0.681D+00-0.103D+01-0.240D+00 0.329D+00
 Coeff:     -0.107D+00 0.922D+00 0.128D+01 0.113D-02 0.109D+01-0.153D+01
 Coeff:     -0.205D+01 0.151D+01
 Gap=     0.349 Goal=   None    Shift=    0.000
 Gap=     0.118 Goal=   None    Shift=    0.000
 RMSDP=1.03D-05 MaxDP=1.22D-03 DE= 2.51D-06 OVMax= 6.55D-03

 Cycle  39  Pass 1  IDiag  1:
 RMSU=  2.11D-07    CP:  1.00D+00  3.00D+00  3.00D+00  3.00D+00  3.00D+00
                    CP:  2.38D+00  5.03D-01  5.57D-01  2.34D+00  3.00D+00
                    CP: -1.48D+00 -8.40D-01  6.38D-01  8.55D-01 -4.58D-01
                    CP: -2.64D-02  1.82D-01 -1.80D-01
 E= -3881.44841603891     Delta-E=       -0.000001700591 Rises=F Damp=F
 DIIS: error= 1.00D-04 at cycle  39 NSaved=  20.
 NSaved=20 IEnMin= 6 EnMin= -3881.44883443231     IErMin=14 ErrMin= 4.17D-05
 ErrMax= 1.00D-04  0.00D+00 EMaxC= 1.00D-01 BMatC= 4.21D-05 BMatP= 5.61D-06
 IDIUse=1 WtCom= 1.00D+00 WtEn= 0.00D+00
 Coeff-Com:  0.590D-01 0.156D+00-0.137D+00-0.115D+01-0.232D-01-0.563D+00
 Coeff-Com: -0.110D+01 0.298D+01 0.809D+00-0.118D+01-0.493D+00 0.553D+00
 Coeff-Com:  0.239D+00 0.654D+00 0.925D+00 0.122D+01-0.516D+01 0.420D+01
 Coeff-Com:  0.184D+01-0.283D+01
 Coeff:      0.590D-01 0.156D+00-0.137D+00-0.115D+01-0.232D-01-0.563D+00
 Coeff:     -0.110D+01 0.298D+01 0.809D+00-0.118D+01-0.493D+00 0.553D+00
 Coeff:      0.239D+00 0.654D+00 0.925D+00 0.122D+01-0.516D+01 0.420D+01
 Coeff:      0.184D+01-0.283D+01
 Gap=     0.350 Goal=   None    Shift=    0.000
 Gap=     0.118 Goal=   None    Shift=    0.000
 RMSDP=1.82D-05 MaxDP=4.23D-03 DE=-1.70D-06 OVMax= 1.23D-02

 Cycle  40  Pass 1  IDiag  1:
 RMSU=  2.71D-07    CP:  1.00D+00  3.00D+00  3.00D+00  3.00D+00  3.00D+00
                    CP:  1.82D+00  3.07D-01  1.12D+00  3.00D+00  3.00D+00
                    CP:  9.53D-01  1.05D+00 -3.06D-01  1.72D+00 -2.25D+00
                    CP: -1.51D+00  1.10D+00 -2.83D-02  1.92D+00
 E= -3881.44842015375     Delta-E=       -0.000004114847 Rises=F Damp=F
 DIIS: error= 1.01D-04 at cycle  40 NSaved=  20.
 NSaved=20 IEnMin= 6 EnMin= -3881.44883443231     IErMin=14 ErrMin= 4.17D-05
 ErrMax= 1.01D-04  0.00D+00 EMaxC= 1.00D-01 BMatC= 4.27D-05 BMatP= 5.61D-06
 IDIUse=1 WtCom= 1.00D+00 WtEn= 0.00D+00
 Coeff-Com:  0.505D-01 0.134D+00-0.255D+00-0.738D+00 0.202D+00-0.128D+01
 Coeff-Com:  0.252D+00 0.167D+01 0.531D+00-0.784D+00-0.674D-01 0.142D+00
 Coeff-Com: -0.833D-01 0.639D+00 0.124D+01 0.125D+01-0.302D+01 0.157D+01
 Coeff-Com: -0.222D+01 0.177D+01
 Coeff:      0.505D-01 0.134D+00-0.255D+00-0.738D+00 0.202D+00-0.128D+01
 Coeff:      0.252D+00 0.167D+01 0.531D+00-0.784D+00-0.674D-01 0.142D+00
 Coeff:     -0.833D-01 0.639D+00 0.124D+01 0.125D+01-0.302D+01 0.157D+01
 Coeff:     -0.222D+01 0.177D+01
 Gap=     0.350 Goal=   None    Shift=    0.000
 Gap=     0.117 Goal=   None    Shift=    0.000
 RMSDP=7.53D-06 MaxDP=1.33D-03 DE=-4.11D-06 OVMax= 4.15D-03

 Cycle  41  Pass 1  IDiag  1:
 Restarting incremental Fock formation.
 E= -3881.44842519217     Delta-E=       -0.000005038413 Rises=F Damp=F
 DIIS: error= 9.54D-05 at cycle  41 NSaved=  20.
 NSaved=20 IEnMin= 6 EnMin= -3881.44883443231     IErMin=14 ErrMin= 4.17D-05
 ErrMax= 9.54D-05  0.00D+00 EMaxC= 1.00D-01 BMatC= 3.75D-05 BMatP= 5.61D-06
 IDIUse=1 WtCom= 1.00D+00 WtEn= 0.00D+00
 Coeff-Com:  0.142D-01 0.149D+00-0.180D+00-0.700D+00-0.235D-01-0.796D+00
 Coeff-Com: -0.419D+00 0.191D+01 0.588D+00-0.785D+00-0.120D+00 0.227D+00
 Coeff-Com: -0.231D+00 0.864D+00 0.153D+01 0.640D+00 0.149D+01-0.315D+01
 Coeff-Com:  0.818D-01-0.941D-01
 Coeff:      0.142D-01 0.149D+00-0.180D+00-0.700D+00-0.235D-01-0.796D+00
 Coeff:     -0.419D+00 0.191D+01 0.588D+00-0.785D+00-0.120D+00 0.227D+00
 Coeff:     -0.231D+00 0.864D+00 0.153D+01 0.640D+00 0.149D+01-0.315D+01
 Coeff:      0.818D-01-0.941D-01
 Gap=     0.348 Goal=   None    Shift=    0.000
 Gap=     0.118 Goal=   None    Shift=    0.000
 RMSDP=4.43D-05 MaxDP=1.03D-02 DE=-5.04D-06 OVMax= 2.71D-02

 Cycle  42  Pass 1  IDiag  1:
 RMSU=  4.43D-05    CP:  1.00D+00
 E= -3881.44841102999     Delta-E=        0.000014162182 Rises=F Damp=F
 DIIS: error= 1.06D-04 at cycle  42 NSaved=  20.
 NSaved=20 IEnMin= 6 EnMin= -3881.44883443231     IErMin=14 ErrMin= 4.17D-05
 ErrMax= 1.06D-04  0.00D+00 EMaxC= 1.00D-01 BMatC= 4.72D-05 BMatP= 5.61D-06
 IDIUse=1 WtCom= 1.00D+00 WtEn= 0.00D+00
 Coeff-Com:  0.409D-01 0.702D-01-0.665D-01-0.750D+00 0.809D-02-0.902D+00
 Coeff-Com: -0.374D+00 0.233D+01 0.581D+00-0.121D+01-0.430D+00 0.539D+00
 Coeff-Com:  0.382D+00 0.636D+00 0.356D+00 0.520D+00-0.439D+01 0.452D+01
 Coeff-Com:  0.335D+00-0.120D+01
 Coeff:      0.409D-01 0.702D-01-0.665D-01-0.750D+00 0.809D-02-0.902D+00
 Coeff:     -0.374D+00 0.233D+01 0.581D+00-0.121D+01-0.430D+00 0.539D+00
 Coeff:      0.382D+00 0.636D+00 0.356D+00 0.520D+00-0.439D+01 0.452D+01
 Coeff:      0.335D+00-0.120D+01
 Gap=     0.352 Goal=   None    Shift=    0.000
 Gap=     0.117 Goal=   None    Shift=    0.000
 RMSDP=7.27D-05 MaxDP=1.70D-02 DE= 1.42D-05 OVMax= 4.17D-02

 Cycle  43  Pass 1  IDiag  1:
 RMSU=  1.78D-05    CP:  1.00D+00 -5.91D-01
 E= -3881.44843535227     Delta-E=       -0.000024322284 Rises=F Damp=F
 DIIS: error= 9.12D-05 at cycle  43 NSaved=  20.
 NSaved=20 IEnMin= 6 EnMin= -3881.44883443231     IErMin=14 ErrMin= 4.17D-05
 ErrMax= 9.12D-05  0.00D+00 EMaxC= 1.00D-01 BMatC= 3.45D-05 BMatP= 5.61D-06
 IDIUse=1 WtCom= 1.00D+00 WtEn= 0.00D+00
 Coeff-Com:  0.558D-01 0.371D-01-0.213D+00-0.627D+00 0.356D+00-0.159D+01
 Coeff-Com:  0.429D+00 0.183D+01 0.366D+00-0.869D+00-0.308D+00 0.337D+00
 Coeff-Com:  0.271D+00 0.522D+00 0.434D+00 0.124D+01-0.599D+01 0.499D+01
 Coeff-Com: -0.129D+01 0.103D+01
 Coeff:      0.558D-01 0.371D-01-0.213D+00-0.627D+00 0.356D+00-0.159D+01
 Coeff:      0.429D+00 0.183D+01 0.366D+00-0.869D+00-0.308D+00 0.337D+00
 Coeff:      0.271D+00 0.522D+00 0.434D+00 0.124D+01-0.599D+01 0.499D+01
 Coeff:     -0.129D+01 0.103D+01
 Gap=     0.351 Goal=   None    Shift=    0.000
 Gap=     0.118 Goal=   None    Shift=    0.000
 RMSDP=1.83D-06 MaxDP=3.25D-04 DE=-2.43D-05 OVMax= 9.04D-04

 Cycle  44  Pass 1  IDiag  1:
 RMSU=  1.61D-06    CP:  1.00D+00 -5.78D-01  1.04D+00
 E= -3881.44843490168     Delta-E=        0.000000450595 Rises=F Damp=F
 DIIS: error= 9.35D-05 at cycle  44 NSaved=  20.
 NSaved=20 IEnMin= 6 EnMin= -3881.44883443231     IErMin=14 ErrMin= 4.17D-05
 ErrMax= 9.35D-05  0.00D+00 EMaxC= 1.00D-01 BMatC= 3.69D-05 BMatP= 5.61D-06
 IDIUse=1 WtCom= 1.00D+00 WtEn= 0.00D+00
 Coeff-Com:  0.121D-01 0.149D+00-0.228D+00-0.630D+00 0.933D-01-0.103D+01
 Coeff-Com: -0.158D+00 0.167D+01 0.452D+00-0.569D+00-0.229D-01 0.127D+00
 Coeff-Com: -0.319D+00 0.812D+00 0.161D+01 0.936D+00 0.128D+01-0.346D+01
 Coeff-Com:  0.455D+00-0.177D+00
 Coeff:      0.121D-01 0.149D+00-0.228D+00-0.630D+00 0.933D-01-0.103D+01
 Coeff:     -0.158D+00 0.167D+01 0.452D+00-0.569D+00-0.229D-01 0.127D+00
 Coeff:     -0.319D+00 0.812D+00 0.161D+01 0.936D+00 0.128D+01-0.346D+01
 Coeff:      0.455D+00-0.177D+00
 Gap=     0.348 Goal=   None    Shift=    0.000
 Gap=     0.117 Goal=   None    Shift=    0.000
 RMSDP=7.83D-05 MaxDP=1.81D-02 DE= 4.51D-07 OVMax= 4.35D-02

 Cycle  45  Pass 1  IDiag  1:
 RMSU=  5.35D-07    CP:  1.00D+00  1.12D+00 -1.64D-01  1.09D-01
 E= -3881.44840855357     Delta-E=        0.000026348107 Rises=F Damp=F
 DIIS: error= 1.14D-04 at cycle  45 NSaved=  20.
 NSaved=20 IEnMin= 6 EnMin= -3881.44883443231     IErMin=14 ErrMin= 4.17D-05
 ErrMax= 1.14D-04  0.00D+00 EMaxC= 1.00D-01 BMatC= 5.44D-05 BMatP= 5.61D-06
 IDIUse=1 WtCom= 1.00D+00 WtEn= 0.00D+00
 Coeff-Com:  0.556D-01 0.258D-01-0.145D+00-0.674D+00 0.252D+00-0.132D+01
 Coeff-Com:  0.111D+00 0.209D+01 0.435D+00-0.105D+01-0.430D+00 0.470D+00
 Coeff-Com:  0.392D+00 0.584D+00 0.138D+00 0.748D+00-0.550D+01 0.551D+01
 Coeff-Com:  0.453D+00-0.114D+01
 Coeff:      0.556D-01 0.258D-01-0.145D+00-0.674D+00 0.252D+00-0.132D+01
 Coeff:      0.111D+00 0.209D+01 0.435D+00-0.105D+01-0.430D+00 0.470D+00
 Coeff:      0.392D+00 0.584D+00 0.138D+00 0.748D+00-0.550D+01 0.551D+01
 Coeff:      0.453D+00-0.114D+01
 Gap=     0.352 Goal=   None    Shift=    0.000
 Gap=     0.117 Goal=   None    Shift=    0.000
 RMSDP=8.76D-05 MaxDP=2.02D-02 DE= 2.63D-05 OVMax= 5.34D-02

 Cycle  46  Pass 1  IDiag  1:
 RMSU=  6.36D-07    CP:  1.00D+00 -7.62D-01  1.32D+00  1.07D+00 -3.12D-02
 E= -3881.44843972218     Delta-E=       -0.000031168607 Rises=F Damp=F
 DIIS: error= 8.77D-05 at cycle  46 NSaved=  20.
 NSaved=20 IEnMin= 6 EnMin= -3881.44883443231     IErMin=14 ErrMin= 4.17D-05
 ErrMax= 8.77D-05  0.00D+00 EMaxC= 1.00D-01 BMatC= 3.20D-05 BMatP= 5.61D-06
 IDIUse=1 WtCom= 1.00D+00 WtEn= 0.00D+00
 Coeff-Com:  0.470D-01 0.929D-02-0.179D+00-0.525D+00 0.352D+00-0.158D+01
 Coeff-Com:  0.470D+00 0.171D+01 0.290D+00-0.865D+00-0.321D+00 0.368D+00
 Coeff-Com:  0.325D+00 0.490D+00 0.244D+00 0.114D+01-0.574D+01 0.492D+01
 Coeff-Com: -0.106D+01 0.900D+00
 Coeff:      0.470D-01 0.929D-02-0.179D+00-0.525D+00 0.352D+00-0.158D+01
 Coeff:      0.470D+00 0.171D+01 0.290D+00-0.865D+00-0.321D+00 0.368D+00
 Coeff:      0.325D+00 0.490D+00 0.244D+00 0.114D+01-0.574D+01 0.492D+01
 Coeff:     -0.106D+01 0.900D+00
 Gap=     0.351 Goal=   None    Shift=    0.000
 Gap=     0.118 Goal=   None    Shift=    0.000
 RMSDP=1.03D-05 MaxDP=2.42D-03 DE=-3.12D-05 OVMax= 6.63D-03

 Cycle  47  Pass 1  IDiag  1:
 RMSU=  4.22D-07    CP:  1.00D+00 -5.37D-01  1.20D+00  1.91D+00 -7.95D-01
                    CP:  6.42D-01
 E= -3881.44843509034     Delta-E=        0.000004631835 Rises=F Damp=F
 DIIS: error= 8.91D-05 at cycle  47 NSaved=  20.
 NSaved=20 IEnMin= 6 EnMin= -3881.44883443231     IErMin=14 ErrMin= 4.17D-05
 ErrMax= 8.91D-05  0.00D+00 EMaxC= 1.00D-01 BMatC= 3.37D-05 BMatP= 5.61D-06
 IDIUse=1 WtCom= 1.00D+00 WtEn= 0.00D+00
 Coeff-Com:  0.187D-01 0.115D+00-0.227D+00-0.516D+00 0.200D+00-0.119D+01
 Coeff-Com:  0.163D-01 0.143D+01 0.208D+00-0.370D+00 0.504D-01 0.114D+00
 Coeff-Com: -0.248D+00 0.569D+00 0.136D+01 0.176D+01-0.183D+01-0.420D+00
 Coeff-Com:  0.258D+01-0.261D+01
 Coeff:      0.187D-01 0.115D+00-0.227D+00-0.516D+00 0.200D+00-0.119D+01
 Coeff:      0.163D-01 0.143D+01 0.208D+00-0.370D+00 0.504D-01 0.114D+00
 Coeff:     -0.248D+00 0.569D+00 0.136D+01 0.176D+01-0.183D+01-0.420D+00
 Coeff:      0.258D+01-0.261D+01
 Gap=     0.349 Goal=   None    Shift=    0.000
 Gap=     0.118 Goal=   None    Shift=    0.000
 RMSDP=7.45D-05 MaxDP=1.68D-02 DE= 4.63D-06 OVMax= 4.59D-02

 Cycle  48  Pass 1  IDiag  1:
 RMSU=  2.53D-07    CP:  1.00D+00  1.02D+00 -3.70D-01  4.30D-02  1.87D+00
                    CP: -6.96D-01  1.53D-01
 E= -3881.44840744726     Delta-E=        0.000027643076 Rises=F Damp=F
 DIIS: error= 1.24D-04 at cycle  48 NSaved=  20.
 NSaved=20 IEnMin= 6 EnMin= -3881.44883443231     IErMin=14 ErrMin= 4.17D-05
 ErrMax= 1.24D-04  0.00D+00 EMaxC= 1.00D-01 BMatC= 6.34D-05 BMatP= 5.61D-06
 IDIUse=1 WtCom= 1.00D+00 WtEn= 0.00D+00
 Coeff-Com:  0.370D-01 0.658D-01-0.212D+00-0.541D+00 0.218D+00-0.135D+01
 Coeff-Com:  0.300D+00 0.151D+01 0.389D+00-0.638D+00-0.131D+00 0.185D+00
 Coeff-Com: -0.695D-01 0.583D+00 0.106D+01 0.485D+00-0.603D+00 0.887D+00
 Coeff-Com: -0.570D+00-0.603D+00
 Coeff:      0.370D-01 0.658D-01-0.212D+00-0.541D+00 0.218D+00-0.135D+01
 Coeff:      0.300D+00 0.151D+01 0.389D+00-0.638D+00-0.131D+00 0.185D+00
 Coeff:     -0.695D-01 0.583D+00 0.106D+01 0.485D+00-0.603D+00 0.887D+00
 Coeff:     -0.570D+00-0.603D+00
 Gap=     0.350 Goal=   None    Shift=    0.000
 Gap=     0.117 Goal=   None    Shift=    0.000
 RMSDP=5.14D-05 MaxDP=1.16D-02 DE= 2.76D-05 OVMax= 2.70D-02

 Cycle  49  Pass 1  IDiag  1:
 RMSU=  4.65D-07    CP:  1.00D+00 -6.03D-02  6.77D-01  1.25D+00 -1.10D+00
                    CP: -2.63D-01  1.37D+00  2.08D-01
 E= -3881.44842653289     Delta-E=       -0.000019085623 Rises=F Damp=F
 DIIS: error= 9.27D-05 at cycle  49 NSaved=  20.
 NSaved=20 IEnMin= 6 EnMin= -3881.44883443231     IErMin=14 ErrMin= 4.17D-05
 ErrMax= 9.27D-05  0.00D+00 EMaxC= 1.00D-01 BMatC= 3.61D-05 BMatP= 5.61D-06
 IDIUse=1 WtCom= 1.00D+00 WtEn= 0.00D+00
 Coeff-Com:  0.160D-01 0.106D-01-0.145D+00-0.246D+00 0.239D+00-0.132D+01
 Coeff-Com:  0.558D+00 0.951D+00 0.983D-01-0.420D+00-0.789D-01 0.166D+00
 Coeff-Com:  0.988D-02 0.448D+00 0.625D+00 0.609D+00-0.646D+00 0.159D+00
 Coeff-Com: -0.129D+01 0.126D+01
 Coeff:      0.160D-01 0.106D-01-0.145D+00-0.246D+00 0.239D+00-0.132D+01
 Coeff:      0.558D+00 0.951D+00 0.983D-01-0.420D+00-0.789D-01 0.166D+00
 Coeff:      0.988D-02 0.448D+00 0.625D+00 0.609D+00-0.646D+00 0.159D+00
 Coeff:     -0.129D+01 0.126D+01
 Gap=     0.351 Goal=   None    Shift=    0.000
 Gap=     0.117 Goal=   None    Shift=    0.000
 RMSDP=2.45D-05 MaxDP=5.64D-03 DE=-1.91D-05 OVMax= 1.34D-02

 Cycle  50  Pass 1  IDiag  1:
 RMSU=  3.64D-07    CP:  1.00D+00 -5.73D-01  1.16D+00  2.81D+00 -4.18D-01
                    CP:  1.65D+00  3.00D+00 -6.15D-01  1.45D+00
 E= -3881.44843694737     Delta-E=       -0.000010414480 Rises=F Damp=F
 DIIS: error= 8.48D-05 at cycle  50 NSaved=  20.
 NSaved=20 IEnMin= 6 EnMin= -3881.44883443231     IErMin=14 ErrMin= 4.17D-05
 ErrMax= 8.48D-05  0.00D+00 EMaxC= 1.00D-01 BMatC= 3.08D-05 BMatP= 5.61D-06
 IDIUse=1 WtCom= 1.00D+00 WtEn= 0.00D+00
 Coeff-Com:  0.300D-01 0.154D+00-0.272D+00-0.664D+00 0.178D+00-0.151D+01
 Coeff-Com:  0.321D+00 0.171D+01 0.484D+00-0.758D+00 0.392D-01 0.119D+00
 Coeff-Com: -0.234D+00 0.810D+00 0.143D+01 0.982D+00-0.101D+01 0.174D+01
 Coeff-Com: -0.409D+00-0.214D+01
 Coeff:      0.300D-01 0.154D+00-0.272D+00-0.664D+00 0.178D+00-0.151D+01
 Coeff:      0.321D+00 0.171D+01 0.484D+00-0.758D+00 0.392D-01 0.119D+00
 Coeff:     -0.234D+00 0.810D+00 0.143D+01 0.982D+00-0.101D+01 0.174D+01
 Coeff:     -0.409D+00-0.214D+01
 Gap=     0.349 Goal=   None    Shift=    0.000
 Gap=     0.118 Goal=   None    Shift=    0.000
 RMSDP=7.23D-05 MaxDP=1.67D-02 DE=-1.04D-05 OVMax= 4.28D-02

 Cycle  51  Pass 1  IDiag  1:
 RMSU=  4.59D-07    CP:  1.00D+00  9.40D-01 -2.99D-01 -1.25D+00  5.76D-01
                    CP: -1.40D+00 -3.00D+00  2.15D+00 -3.00D+00 -1.20D+00
 E= -3881.44840742587     Delta-E=        0.000029521496 Rises=F Damp=F
 DIIS: error= 1.21D-04 at cycle  51 NSaved=  20.
 NSaved=20 IEnMin= 6 EnMin= -3881.44883443231     IErMin=14 ErrMin= 4.17D-05
 ErrMax= 1.21D-04  0.00D+00 EMaxC= 1.00D-01 BMatC= 6.07D-05 BMatP= 5.61D-06
 IDIUse=1 WtCom= 1.00D+00 WtEn= 0.00D+00
 Coeff-Com:  0.414D-01 0.101D+00-0.262D+00-0.583D+00 0.221D+00-0.170D+01
 Coeff-Com:  0.688D+00 0.145D+01 0.549D+00-0.741D+00-0.312D-01 0.893D-01
 Coeff-Com: -0.173D+00 0.626D+00 0.133D+01 0.394D+00-0.339D-01 0.169D+01
 Coeff-Com: -0.199D+01-0.654D+00
 Coeff:      0.414D-01 0.101D+00-0.262D+00-0.583D+00 0.221D+00-0.170D+01
 Coeff:      0.688D+00 0.145D+01 0.549D+00-0.741D+00-0.312D-01 0.893D-01
 Coeff:     -0.173D+00 0.626D+00 0.133D+01 0.394D+00-0.339D-01 0.169D+01
 Coeff:     -0.199D+01-0.654D+00
 Gap=     0.351 Goal=   None    Shift=    0.000
 Gap=     0.117 Goal=   None    Shift=    0.000
 RMSDP=4.97D-05 MaxDP=1.17D-02 DE= 2.95D-05 OVMax= 2.55D-02

 Cycle  52  Pass 1  IDiag  1:
 RMSU=  1.25D-07    CP:  1.00D+00 -1.33D-01  4.87D-01  3.33D-01 -2.82D-01
                    CP: -1.06D+00 -2.98D-01  6.58D-01  1.72D-01  1.42D-02
                    CP:  2.28D-01
 E= -3881.44842591915     Delta-E=       -0.000018493281 Rises=F Damp=F
 DIIS: error= 9.96D-05 at cycle  52 NSaved=  20.
 NSaved=20 IEnMin= 6 EnMin= -3881.44883443231     IErMin=14 ErrMin= 4.17D-05
 ErrMax= 9.96D-05  0.00D+00 EMaxC= 1.00D-01 BMatC= 4.19D-05 BMatP= 5.61D-06
 IDIUse=1 WtCom= 1.00D+00 WtEn= 0.00D+00
 Coeff-Com:  0.335D-02 0.167D-01-0.952D-01-0.213D+00 0.113D+00-0.111D+01
 Coeff-Com:  0.404D+00 0.914D+00 0.213D+00-0.518D+00-0.130D+00 0.197D+00
 Coeff-Com:  0.876D-01 0.397D+00 0.810D+00 0.128D+01-0.186D+01 0.661D+00
 Coeff-Com: -0.132D+01 0.114D+01
[...]
 Coeff-Com: -0.524D-02 0.530D-01-0.180D+00-0.373D+00 0.545D+00-0.215D+01
 Coeff-Com:  0.101D+01 0.132D+01-0.505D+00-0.362D+00 0.391D+00 0.153D+00
 Coeff-Com: -0.191D+00 0.553D+00 0.143D+01-0.543D-01 0.865D+00-0.147D+01
 Coeff-Com:  0.746D+00-0.778D+00
 Coeff:     -0.524D-02 0.530D-01-0.180D+00-0.373D+00 0.545D+00-0.215D+01
 Coeff:      0.101D+01 0.132D+01-0.505D+00-0.362D+00 0.391D+00 0.153D+00
 Coeff:     -0.191D+00 0.553D+00 0.143D+01-0.543D-01 0.865D+00-0.147D+01
 Coeff:      0.746D+00-0.778D+00
 Gap=     0.351 Goal=   None    Shift=    0.000
 Gap=     0.118 Goal=   None    Shift=    0.000
 RMSDP=5.46D-05 MaxDP=1.27D-02 DE= 3.38D-05 OVMax= 2.89D-02

 Cycle 113  Pass 1  IDiag  1:
 RMSU=  1.04D-07    CP:  1.00D+00  3.00D+00  6.22D-02 -8.28D-01  8.42D-01
                    CP:  1.99D+00  2.05D+00  3.46D-01 -4.68D-02  1.28D+00
                    CP:  5.07D-01  4.79D-01
 E= -3881.44842521127     Delta-E=       -0.000014851790 Rises=F Damp=F
 DIIS: error= 1.04D-04 at cycle 113 NSaved=  20.
 NSaved=20 IEnMin= 6 EnMin= -3881.44883443231     IErMin=14 ErrMin= 4.17D-05
 ErrMax= 1.04D-04  0.00D+00 EMaxC= 1.00D-01 BMatC= 4.80D-05 BMatP= 5.61D-06
 IDIUse=1 WtCom= 1.00D+00 WtEn= 0.00D+00
 Coeff-Com:  0.206D-01 0.927D-01-0.101D+00-0.620D+00 0.253D+00-0.114D+01
 Coeff-Com: -0.130D+00 0.184D+01-0.193D+00-0.419D+00 0.109D+00 0.296D+00
 Coeff-Com: -0.146D+00 0.761D+00 0.388D-02 0.141D+01-0.124D+01 0.431D+00
 Coeff-Com: -0.141D+01 0.118D+01
 Coeff:      0.206D-01 0.927D-01-0.101D+00-0.620D+00 0.253D+00-0.114D+01
 Coeff:     -0.130D+00 0.184D+01-0.193D+00-0.419D+00 0.109D+00 0.296D+00
 Coeff:     -0.146D+00 0.761D+00 0.388D-02 0.141D+01-0.124D+01 0.431D+00
 Coeff:     -0.141D+01 0.118D+01
 Gap=     0.352 Goal=   None    Shift=    0.000
 Gap=     0.118 Goal=   None    Shift=    0.000
 RMSDP=4.38D-05 MaxDP=1.04D-02 DE=-1.49D-05 OVMax= 2.68D-02

 Cycle 114  Pass 1  IDiag  1:
 RMSU=  7.27D-07    CP:  1.00D+00  3.51D-02 -1.91D-02  4.37D-01 -9.92D-01
                    CP:  1.21D+00  3.86D-01  3.00D+00 -2.38D-02  5.94D-01
                    CP:  7.00D-01 -1.42D+00 -3.00D+00
 E= -3881.44844379899     Delta-E=       -0.000018587718 Rises=F Damp=F
 DIIS: error= 9.69D-05 at cycle 114 NSaved=  20.
 NSaved=20 IEnMin= 6 EnMin= -3881.44883443231     IErMin=14 ErrMin= 4.17D-05
 ErrMax= 9.69D-05  0.00D+00 EMaxC= 1.00D-01 BMatC= 4.00D-05 BMatP= 5.61D-06
 IDIUse=1 WtCom= 1.00D+00 WtEn= 0.00D+00
 Coeff-Com:  0.227D-01 0.729D-01-0.154D+00-0.720D+00 0.376D+00-0.175D+01
 Coeff-Com:  0.438D+00 0.217D+01 0.113D+00-0.112D+01 0.252D-01 0.403D+00
 Coeff-Com: -0.315D-01 0.893D+00 0.281D+00 0.900D+00-0.165D+01 0.622D+00
 Coeff-Com: -0.842D+00 0.952D+00
 Coeff:      0.227D-01 0.729D-01-0.154D+00-0.720D+00 0.376D+00-0.175D+01
 Coeff:      0.438D+00 0.217D+01 0.113D+00-0.112D+01 0.252D-01 0.403D+00
 Coeff:     -0.315D-01 0.893D+00 0.281D+00 0.900D+00-0.165D+01 0.622D+00
 Coeff:     -0.842D+00 0.952D+00
 Gap=     0.350 Goal=   None    Shift=    0.000
 Gap=     0.117 Goal=   None    Shift=    0.000
 RMSDP=6.49D-05 MaxDP=1.51D-02 DE=-1.86D-05 OVMax= 3.67D-02

 Cycle 115  Pass 1  IDiag  1:
 RMSU=  3.67D-07    CP:  1.00D+00  3.00D+00  3.16D-01 -6.73D-01 -6.21D-02
                    CP:  2.82D+00  1.01D+00  3.00D+00  9.52D-01 -4.34D-01
                    CP:  6.63D-01  6.10D-02 -3.00D+00  1.20D+00
 E= -3881.44842327844     Delta-E=        0.000020520549 Rises=F Damp=F
 DIIS: error= 8.97D-05 at cycle 115 NSaved=  20.
 NSaved=20 IEnMin= 6 EnMin= -3881.44883443231     IErMin=14 ErrMin= 4.17D-05
 ErrMax= 8.97D-05  0.00D+00 EMaxC= 1.00D-01 BMatC= 3.46D-05 BMatP= 5.61D-06
 IDIUse=1 WtCom= 1.00D+00 WtEn= 0.00D+00
 Coeff-Com:  0.431D-01 0.450D-01-0.147D+00-0.823D+00 0.298D+00-0.167D+01
 Coeff-Com:  0.264D+00 0.256D+01 0.564D+00-0.156D+01-0.335D+00 0.565D+00
 Coeff-Com:  0.211D+00 0.947D+00 0.171D+00 0.104D+01-0.214D+01 0.669D+00
 Coeff-Com:  0.815D+00-0.513D+00
 Coeff:      0.431D-01 0.450D-01-0.147D+00-0.823D+00 0.298D+00-0.167D+01
 Coeff:      0.264D+00 0.256D+01 0.564D+00-0.156D+01-0.335D+00 0.565D+00
 Coeff:      0.211D+00 0.947D+00 0.171D+00 0.104D+01-0.214D+01 0.669D+00
 Coeff:      0.815D+00-0.513D+00
 Gap=     0.349 Goal=   None    Shift=    0.000
 Gap=     0.118 Goal=   None    Shift=    0.000
 RMSDP=5.59D-06 MaxDP=6.77D-04 DE= 2.05D-05 OVMax= 3.30D-03

 Cycle 116  Pass 1  IDiag  1:
 RMSU=  1.86D-07    CP:  1.00D+00  3.00D+00  3.35D-01 -1.40D-01  2.70D-01
                    CP:  1.09D+00 -2.04D-02  2.05D+00  2.05D-01 -1.22D+00
                    CP: -3.76D-02  3.96D-01 -3.00D+00  8.17D-01  5.80D-02
 E= -3881.44842387925     Delta-E=       -0.000000600803 Rises=F Damp=F
 DIIS: error= 8.23D-05 at cycle 116 NSaved=  20.
 NSaved=20 IEnMin= 6 EnMin= -3881.44883443231     IErMin=14 ErrMin= 4.17D-05
 ErrMax= 8.23D-05  0.00D+00 EMaxC= 1.00D-01 BMatC= 2.89D-05 BMatP= 5.61D-06
 IDIUse=1 WtCom= 1.00D+00 WtEn= 0.00D+00
 Coeff-Com:  0.235D-01 0.101D+00-0.196D+00-0.763D+00 0.417D+00-0.161D+01
 Coeff-Com:  0.249D+00 0.236D+01-0.121D+00-0.124D+01 0.149D+00 0.553D+00
 Coeff-Com:  0.286D-01 0.126D+01 0.383D+00-0.818D+00 0.211D+00 0.344D+00
 Coeff-Com: -0.911D+00 0.581D+00
 Coeff:      0.235D-01 0.101D+00-0.196D+00-0.763D+00 0.417D+00-0.161D+01
 Coeff:      0.249D+00 0.236D+01-0.121D+00-0.124D+01 0.149D+00 0.553D+00
 Coeff:      0.286D-01 0.126D+01 0.383D+00-0.818D+00 0.211D+00 0.344D+00
 Coeff:     -0.911D+00 0.581D+00
 Gap=     0.349 Goal=   None    Shift=    0.000
 Gap=     0.118 Goal=   None    Shift=    0.000
 RMSDP=1.39D-05 MaxDP=2.19D-03 DE=-6.01D-07 OVMax= 7.22D-03

 Cycle 117  Pass 1  IDiag  1:
 RMSU=  3.09D-06    CP:  1.00D+00  3.00D+00  4.02D-01 -1.12D+00  3.00D+00
                    CP: -4.18D-01  5.13D-01 -2.92D+00  5.74D-01 -6.42D-01
                    CP: -2.79D+00  5.59D-01  8.83D-01  1.68D-02 -5.21D-02
                    CP:  6.30D-01
 E= -3881.44841539925     Delta-E=        0.000008479999 Rises=F Damp=F
 DIIS: error= 1.01D-04 at cycle 117 NSaved=  20.
 NSaved=20 IEnMin= 6 EnMin= -3881.44883443231     IErMin=14 ErrMin= 4.17D-05
 ErrMax= 1.01D-04  0.00D+00 EMaxC= 1.00D-01 BMatC= 4.19D-05 BMatP= 5.61D-06
 IDIUse=1 WtCom= 1.00D+00 WtEn= 0.00D+00
 Coeff-Com:  0.346D-01 0.336D-01-0.111D+00-0.747D+00 0.242D+00-0.121D+01
 Coeff-Com:  0.116D-02 0.237D+01 0.454D+00-0.157D+01-0.370D+00 0.729D+00
 Coeff-Com:  0.506D+00 0.980D+00 0.331D+00-0.490D-01 0.288D+00-0.418D+00
 Coeff-Com:  0.485D+00-0.972D+00
 Coeff:      0.346D-01 0.336D-01-0.111D+00-0.747D+00 0.242D+00-0.121D+01
 Coeff:      0.116D-02 0.237D+01 0.454D+00-0.157D+01-0.370D+00 0.729D+00
 Coeff:      0.506D+00 0.980D+00 0.331D+00-0.490D-01 0.288D+00-0.418D+00
 Coeff:      0.485D+00-0.972D+00
 Gap=     0.351 Goal=   None    Shift=    0.000
 Gap=     0.117 Goal=   None    Shift=    0.000
 RMSDP=3.49D-05 MaxDP=7.81D-03 DE= 8.48D-06 OVMax= 1.76D-02

 Cycle 118  Pass 1  IDiag  1:
 RMSU=  4.22D-07    CP:  1.00D+00  2.96D+00  9.60D-03  2.49D-01  2.80D+00
                    CP: -1.86D+00  2.81D-01 -1.52D+00 -2.45D+00  2.65D+00
                    CP: -2.95D+00 -9.14D-01 -3.00D+00  4.21D-01 -1.72D-01
                    CP:  8.90D-01  1.46D-02
 E= -3881.44843181458     Delta-E=       -0.000016415333 Rises=F Damp=F
 DIIS: error= 7.26D-05 at cycle 118 NSaved=  20.
 NSaved=20 IEnMin= 6 EnMin= -3881.44883443231     IErMin=14 ErrMin= 4.17D-05
 ErrMax= 7.26D-05  0.00D+00 EMaxC= 1.00D-01 BMatC= 2.06D-05 BMatP= 5.61D-06
 IDIUse=1 WtCom= 1.00D+00 WtEn= 0.00D+00
 Coeff-Com:  0.703D-02 0.599D-01-0.138D+00-0.513D+00 0.336D+00-0.162D+01
 Coeff-Com:  0.620D+00 0.162D+01 0.214D+00-0.101D+01-0.111D+00 0.316D+00
 Coeff-Com:  0.127D+00 0.861D+00 0.710D+00-0.618D+00 0.226D+00-0.112D+00
 Coeff-Com: -0.126D+01 0.127D+01
 Coeff:      0.703D-02 0.599D-01-0.138D+00-0.513D+00 0.336D+00-0.162D+01
 Coeff:      0.620D+00 0.162D+01 0.214D+00-0.101D+01-0.111D+00 0.316D+00
 Coeff:      0.127D+00 0.861D+00 0.710D+00-0.618D+00 0.226D+00-0.112D+00
 Coeff:     -0.126D+01 0.127D+01
 Gap=     0.350 Goal=   None    Shift=    0.000
 Gap=     0.117 Goal=   None    Shift=    0.000
 RMSDP=9.38D-06 MaxDP=1.50D-03 DE=-1.64D-05 OVMax= 4.81D-03

 Cycle 119  Pass 1  IDiag  1:
 RMSU=  1.60D-07    CP:  1.00D+00  3.00D+00  5.81D-02  1.44D-02 -2.73D-01
                    CP:  4.19D-01  5.53D-01  1.72D+00 -1.07D+00  1.49D+00
                    CP:  4.31D-01 -5.47D-02 -3.00D+00  5.13D-01  7.00D-02
                    CP:  7.50D-01 -2.45D-03  9.56D-02
 E= -3881.44843110090     Delta-E=        0.000000713686 Rises=F Damp=F
 DIIS: error= 7.72D-05 at cycle 119 NSaved=  20.
 NSaved=20 IEnMin= 6 EnMin= -3881.44883443231     IErMin=14 ErrMin= 4.17D-05
 ErrMax= 7.72D-05  0.00D+00 EMaxC= 1.00D-01 BMatC= 2.63D-05 BMatP= 5.61D-06
 IDIUse=1 WtCom= 1.00D+00 WtEn= 0.00D+00
 Coeff-Com:  0.528D-02 0.172D+00-0.164D+00-0.761D+00 0.158D+00-0.919D+00
 Coeff-Com: -0.454D+00 0.220D+01 0.901D-01-0.869D+00 0.149D+00 0.335D+00
 Coeff-Com: -0.325D+00 0.132D+01 0.930D+00-0.222D+01 0.117D+00 0.424D+00
 Coeff-Com:  0.553D+00 0.253D+00
 Coeff:      0.528D-02 0.172D+00-0.164D+00-0.761D+00 0.158D+00-0.919D+00
 Coeff:     -0.454D+00 0.220D+01 0.901D-01-0.869D+00 0.149D+00 0.335D+00
 Coeff:     -0.325D+00 0.132D+01 0.930D+00-0.222D+01 0.117D+00 0.424D+00
 Coeff:      0.553D+00 0.253D+00
 Gap=     0.348 Goal=   None    Shift=    0.000
 Gap=     0.118 Goal=   None    Shift=    0.000
 RMSDP=7.24D-05 MaxDP=1.67D-02 DE= 7.14D-07 OVMax= 4.11D-02

 Cycle 120  Pass 1  IDiag  1:
 RMSU=  4.33D-07    CP:  1.00D+00  3.00D+00  9.25D-01 -1.25D+00  1.95D+00
                    CP:  1.76D+00  1.41D+00 -7.64D-03  2.07D+00  1.30D+00
                    CP: -1.57D-01 -7.56D-01 -1.70D+00  3.78D-01  3.18D-01
                    CP:  1.46D+00  2.20D-02  2.76D-01 -8.08D-01
 E= -3881.44840580588     Delta-E=        0.000025295016 Rises=F Damp=F
 DIIS: error= 1.21D-04 at cycle 120 NSaved=  20.
 NSaved=20 IEnMin= 6 EnMin= -3881.44883443231     IErMin=14 ErrMin= 4.17D-05
 ErrMax= 1.21D-04  0.00D+00 EMaxC= 1.00D-01 BMatC= 6.12D-05 BMatP= 5.61D-06
 IDIUse=1 WtCom= 1.00D+00 WtEn= 0.00D+00
 Coeff-Com:  0.166D-01 0.620D-01-0.946D-01-0.524D+00 0.222D+00-0.111D+01
 Coeff-Com:  0.649D-01 0.172D+01 0.399D-01-0.843D+00-0.880D-01 0.447D+00
 Coeff-Com:  0.172D+00 0.857D+00 0.327D+00 0.131D-01 0.160D+00-0.677D-01
 Coeff-Com:  0.456D+00-0.822D+00
 Coeff:      0.166D-01 0.620D-01-0.946D-01-0.524D+00 0.222D+00-0.111D+01
 Coeff:      0.649D-01 0.172D+01 0.399D-01-0.843D+00-0.880D-01 0.447D+00
 Coeff:      0.172D+00 0.857D+00 0.327D+00 0.131D-01 0.160D+00-0.677D-01
 Coeff:      0.456D+00-0.822D+00
 Gap=     0.353 Goal=   None    Shift=    0.000
 Gap=     0.117 Goal=   None    Shift=    0.000
 RMSDP=1.13D-04 MaxDP=2.62D-02 DE= 2.53D-05 OVMax= 6.38D-02

 Cycle 121  Pass 1  IDiag  1:
 Restarting incremental Fock formation.
 E= -3881.44844442260     Delta-E=       -0.000038616718 Rises=F Damp=F
 DIIS: error= 8.86D-05 at cycle 121 NSaved=  20.
 NSaved=20 IEnMin= 6 EnMin= -3881.44883443231     IErMin=14 ErrMin= 4.17D-05
 ErrMax= 8.86D-05  0.00D+00 EMaxC= 1.00D-01 BMatC= 3.28D-05 BMatP= 5.61D-06
 IDIUse=1 WtCom= 1.00D+00 WtEn= 0.00D+00
 Coeff-Com:  0.115D-01 0.781D-01-0.143D+00-0.517D+00 0.383D+00-0.160D+01
 Coeff-Com:  0.524D+00 0.164D+01-0.275D+00-0.713D+00 0.171D+00 0.347D+00
 Coeff-Com:  0.126D-01 0.921D+00 0.491D+00-0.348D+00 0.122D+00-0.936D-02
 Coeff-Com: -0.844D+00 0.748D+00
 Coeff:      0.115D-01 0.781D-01-0.143D+00-0.517D+00 0.383D+00-0.160D+01
 Coeff:      0.524D+00 0.164D+01-0.275D+00-0.713D+00 0.171D+00 0.347D+00
 Coeff:      0.126D-01 0.921D+00 0.491D+00-0.348D+00 0.122D+00-0.936D-02
 Coeff:     -0.844D+00 0.748D+00
 Gap=     0.353 Goal=   None    Shift=    0.000
 Gap=     0.118 Goal=   None    Shift=    0.000
 RMSDP=1.08D-05 MaxDP=2.47D-03 DE=-3.86D-05 OVMax= 6.49D-03

 Cycle 122  Pass 1  IDiag  1:
 RMSU=  1.08D-05    CP:  1.00D+00
 E= -3881.44844721719     Delta-E=       -0.000002794597 Rises=F Damp=F
 DIIS: error= 9.85D-05 at cycle 122 NSaved=  20.
 NSaved=20 IEnMin= 6 EnMin= -3881.44883443231     IErMin=14 ErrMin= 4.17D-05
 ErrMax= 9.85D-05  0.00D+00 EMaxC= 1.00D-01 BMatC= 4.17D-05 BMatP= 5.61D-06
 IDIUse=1 WtCom= 1.00D+00 WtEn= 0.00D+00
 Coeff-Com:  0.317D-01 0.561D-01-0.150D+00-0.772D+00 0.339D+00-0.131D+01
 Coeff-Com: -0.123D-01 0.251D+01 0.291D+00-0.157D+01-0.281D+00 0.703D+00
 Coeff-Com:  0.425D+00 0.105D+01-0.137D+00 0.714D+00 0.480D+00-0.809D-01
 Coeff-Com:  0.246D+00-0.153D+01
 Coeff:      0.317D-01 0.561D-01-0.150D+00-0.772D+00 0.339D+00-0.131D+01
 Coeff:     -0.123D-01 0.251D+01 0.291D+00-0.157D+01-0.281D+00 0.703D+00
 Coeff:      0.425D+00 0.105D+01-0.137D+00 0.714D+00 0.480D+00-0.809D-01
 Coeff:      0.246D+00-0.153D+01
 Gap=     0.348 Goal=   None    Shift=    0.000
 Gap=     0.117 Goal=   None    Shift=    0.000
 RMSDP=1.09D-04 MaxDP=2.59D-02 DE=-2.79D-06 OVMax= 5.98D-02

 Cycle 123  Pass 1  IDiag  1:
 RMSU=  6.98D-05    CP:  1.00D+00 -3.00D+00
 E= -3881.44841491226     Delta-E=        0.000032304933 Rises=F Damp=F
 DIIS: error= 9.13D-05 at cycle 123 NSaved=  20.
 NSaved=20 IEnMin= 6 EnMin= -3881.44883443231     IErMin=14 ErrMin= 4.17D-05
 ErrMax= 9.13D-05  0.00D+00 EMaxC= 1.00D-01 BMatC= 3.36D-05 BMatP= 5.61D-06
 IDIUse=1 WtCom= 1.00D+00 WtEn= 0.00D+00
 Coeff-Com:  0.236D-01 0.721D-01-0.140D+00-0.761D+00 0.331D+00-0.133D+01
 Coeff-Com:  0.248D-01 0.242D+01 0.107D+00-0.142D+01-0.129D+00 0.680D+00
 Coeff-Com:  0.333D+00 0.111D+01 0.294D+00 0.422D+00-0.153D+00 0.286D+00
 Coeff-Com: -0.814D+00-0.352D+00
 Coeff:      0.236D-01 0.721D-01-0.140D+00-0.761D+00 0.331D+00-0.133D+01
 Coeff:      0.248D-01 0.242D+01 0.107D+00-0.142D+01-0.129D+00 0.680D+00
 Coeff:      0.333D+00 0.111D+01 0.294D+00 0.422D+00-0.153D+00 0.286D+00
 Coeff:     -0.814D+00-0.352D+00
 Gap=     0.350 Goal=   None    Shift=    0.000
 Gap=     0.118 Goal=   None    Shift=    0.000
 RMSDP=3.96D-05 MaxDP=9.27D-03 DE= 3.23D-05 OVMax= 2.21D-02

 Cycle 124  Pass 1  IDiag  1:
 RMSU=  9.58D-06    CP:  1.00D+00 -3.00D+00  4.51D-01
 E= -3881.44842146938     Delta-E=       -0.000006557122 Rises=F Damp=F
 DIIS: error= 8.97D-05 at cycle 124 NSaved=  20.
 NSaved=20 IEnMin= 6 EnMin= -3881.44883443231     IErMin=14 ErrMin= 4.17D-05
 ErrMax= 8.97D-05  0.00D+00 EMaxC= 1.00D-01 BMatC= 3.25D-05 BMatP= 5.61D-06
 IDIUse=1 WtCom= 1.00D+00 WtEn= 0.00D+00
 Coeff-Com:  0.107D-01 0.138D+00-0.158D+00-0.669D+00 0.290D+00-0.118D+01
 Coeff-Com:  0.118D+00 0.184D+01-0.221D+00-0.785D+00 0.239D+00 0.304D+00
 Coeff-Com: -0.207D+00 0.117D+01 0.649D+00 0.186D+00 0.671D+00-0.182D+01
 Coeff-Com: -0.286D+01 0.329D+01
 Coeff:      0.107D-01 0.138D+00-0.158D+00-0.669D+00 0.290D+00-0.118D+01
 Coeff:      0.118D+00 0.184D+01-0.221D+00-0.785D+00 0.239D+00 0.304D+00
 Coeff:     -0.207D+00 0.117D+01 0.649D+00 0.186D+00 0.671D+00-0.182D+01
 Coeff:     -0.286D+01 0.329D+01
 Gap=     0.352 Goal=   None    Shift=    0.000
 Gap=     0.118 Goal=   None    Shift=    0.000
 RMSDP=4.25D-05 MaxDP=1.02D-02 DE=-6.56D-06 OVMax= 2.30D-02

 Cycle 125  Pass 1  IDiag  1:
 RMSU=  4.38D-06    CP:  1.00D+00 -1.11D+00  1.38D-01  1.51D+00
 E= -3881.44843152890     Delta-E=       -0.000010059515 Rises=F Damp=F
 DIIS: error= 1.02D-04 at cycle 125 NSaved=  20.
 NSaved=20 IEnMin= 6 EnMin= -3881.44883443231     IErMin=14 ErrMin= 4.17D-05
 ErrMax= 1.02D-04  0.00D+00 EMaxC= 1.00D-01 BMatC= 4.68D-05 BMatP= 5.61D-06
 IDIUse=1 WtCom= 1.00D+00 WtEn= 0.00D+00
 Coeff-Com:  0.149D-01 0.867D-01-0.136D+00-0.768D+00 0.297D+00-0.139D+01
 Coeff-Com:  0.247D-01 0.249D+01 0.134D+00-0.146D+01-0.107D+00 0.649D+00
 Coeff-Com:  0.271D+00 0.113D+01 0.284D+00 0.743D-02 0.254D+00-0.173D+00
 Coeff-Com: -0.490D-01-0.564D+00
 Coeff:      0.149D-01 0.867D-01-0.136D+00-0.768D+00 0.297D+00-0.139D+01
 Coeff:      0.247D-01 0.249D+01 0.134D+00-0.146D+01-0.107D+00 0.649D+00
 Coeff:      0.271D+00 0.113D+01 0.284D+00 0.743D-02 0.254D+00-0.173D+00
 Coeff:     -0.490D-01-0.564D+00
 Gap=     0.349 Goal=   None    Shift=    0.000
 Gap=     0.118 Goal=   None    Shift=    0.000
 RMSDP=6.49D-05 MaxDP=1.54D-02 DE=-1.01D-05 OVMax= 3.94D-02

 Cycle 126  Pass 1  IDiag  1:
 RMSU=  8.24D-07    CP:  1.00D+00 -3.00D+00  7.62D-01  3.37D-01  1.01D-01
 E= -3881.44841594176     Delta-E=        0.000015587133 Rises=F Damp=F
 DIIS: error= 9.66D-05 at cycle 126 NSaved=  20.
 NSaved=20 IEnMin= 6 EnMin= -3881.44883443231     IErMin=14 ErrMin= 4.17D-05
 ErrMax= 9.66D-05  0.00D+00 EMaxC= 1.00D-01 BMatC= 3.88D-05 BMatP= 5.61D-06
 IDIUse=1 WtCom= 1.00D+00 WtEn= 0.00D+00
 Coeff-Com:  0.130D-01 0.883D-01-0.105D+00-0.731D+00 0.245D+00-0.123D+01
 Coeff-Com: -0.399D-01 0.238D+01 0.357D-01-0.140D+01-0.380D-01 0.646D+00
 Coeff-Com:  0.252D+00 0.113D+01 0.320D+00-0.109D+00 0.296D+00-0.123D+00
 Coeff-Com: -0.291D+00-0.347D+00
 Coeff:      0.130D-01 0.883D-01-0.105D+00-0.731D+00 0.245D+00-0.123D+01
 Coeff:     -0.399D-01 0.238D+01 0.357D-01-0.140D+01-0.380D-01 0.646D+00
 Coeff:      0.252D+00 0.113D+01 0.320D+00-0.109D+00 0.296D+00-0.123D+00
 Coeff:     -0.291D+00-0.347D+00
 Gap=     0.350 Goal=   None    Shift=    0.000
 Gap=     0.118 Goal=   None    Shift=    0.000
 RMSDP=2.53D-05 MaxDP=5.89D-03 DE= 1.56D-05 OVMax= 1.46D-02

 Cycle 127  Pass 1  IDiag  1:
 RMSU=  4.94D-07    CP:  1.00D+00 -3.00D+00  4.12D-01  1.02D+00  2.66D-01
                    CP:  2.80D-02
 E= -3881.44842269448     Delta-E=       -0.000006752713 Rises=F Damp=F
 DIIS: error= 8.96D-05 at cycle 127 NSaved=  20.
 NSaved=20 IEnMin= 6 EnMin= -3881.44883443231     IErMin=14 ErrMin= 4.17D-05
 ErrMax= 8.96D-05  0.00D+00 EMaxC= 1.00D-01 BMatC= 3.29D-05 BMatP= 5.61D-06
 IDIUse=1 WtCom= 1.00D+00 WtEn= 0.00D+00
 Coeff-Com:  0.489D-03 0.147D+00-0.173D+00-0.499D+00 0.394D+00-0.145D+01
 Coeff-Com:  0.358D+00 0.137D+01-0.643D+00-0.118D+00 0.523D+00 0.917D-01
 Coeff-Com: -0.447D+00 0.919D+00 0.473D+00 0.935D-01 0.687D+00-0.878D+00
 Coeff-Com: -0.367D+01 0.382D+01
 Coeff:      0.489D-03 0.147D+00-0.173D+00-0.499D+00 0.394D+00-0.145D+01
 Coeff:      0.358D+00 0.137D+01-0.643D+00-0.118D+00 0.523D+00 0.917D-01
 Coeff:     -0.447D+00 0.919D+00 0.473D+00 0.935D-01 0.687D+00-0.878D+00
 Coeff:     -0.367D+01 0.382D+01
 Gap=     0.352 Goal=   None    Shift=    0.000
 Gap=     0.118 Goal=   None    Shift=    0.000
 RMSDP=4.68D-05 MaxDP=1.12D-02 DE=-6.75D-06 OVMax= 2.53D-02

 Cycle 128  Pass 1  IDiag  1:
 RMSU=  7.66D-07    CP:  1.00D+00 -4.65D-01  1.54D-01  1.60D+00  1.98D+00
                    CP: -9.38D-02  2.27D-01
 E= -3881.44843256872     Delta-E=       -0.000009874248 Rises=F Damp=F
 DIIS: error= 1.10D-04 at cycle 128 NSaved=  20.
 NSaved=20 IEnMin= 6 EnMin= -3881.44883443231     IErMin=14 ErrMin= 4.17D-05
 ErrMax= 1.10D-04  0.00D+00 EMaxC= 1.00D-01 BMatC= 5.41D-05 BMatP= 5.61D-06
 IDIUse=1 WtCom= 1.00D+00 WtEn= 0.00D+00
 Coeff-Com:  0.164D-01 0.923D-01-0.182D+00-0.753D+00 0.422D+00-0.159D+01
 Coeff-Com:  0.192D+00 0.236D+01-0.378D-01-0.120D+01-0.236D-01 0.542D+00
 Coeff-Com:  0.143D+00 0.113D+01 0.145D+00 0.134D+00 0.222D+00 0.418D+00
 Coeff-Com: -0.223D+00-0.814D+00
 Coeff:      0.164D-01 0.923D-01-0.182D+00-0.753D+00 0.422D+00-0.159D+01
 Coeff:      0.192D+00 0.236D+01-0.378D-01-0.120D+01-0.236D-01 0.542D+00
 Coeff:      0.143D+00 0.113D+01 0.145D+00 0.134D+00 0.222D+00 0.418D+00
 Coeff:     -0.223D+00-0.814D+00
 Gap=     0.349 Goal=   None    Shift=    0.000
 Gap=     0.118 Goal=   None    Shift=    0.000
 RMSDP=6.16D-05 MaxDP=1.45D-02 DE=-9.87D-06 OVMax= 4.13D-02

 >>>>>>>>>> Convergence criterion not met.
 Error on total polarization charges =  0.00102
 SCF Done:  E(UCAM-B3LYP) =  -3881.44843257     A.U. after  129 cycles
            NFock=128  Conv=0.62D-04     -V/T= 2.0073
 <Sx>= 0.0000 <Sy>= 0.0000 <Sz>= 0.5000 <S**2>= 0.7645 S= 0.5072
 <L.S>= 0.000000000000E+00
 KE= 3.853497474167D+03 PE=-2.793282944838D+04 EE= 1.079769219100D+04
 Annihilation of the first spin contaminant:
 S**2 before annihilation     0.7645,   after     0.7501
 Convergence failure -- run terminated.
 Error termination via Lnk1e in /home/k0335/k033513/app/g09/l502.exe at Sun Mar  3 17:36:31 2024.
 Job cpu time:       0 days  6 hours 15 minutes 56.1 seconds.
 File lengths (MBytes):  RWF=    839 Int=      0 D2E=      0 Chk=     14 Scr=      1
