 Entering Gaussian System, Link 0=g09
 Initial command:
 /home/k0335/k033513/app/g09/l1.exe "/home/k0335/k033513/app/g09/scratch/Gau-515381.inp" -scrdir="/home/k0335/k033513/app/g09/scratch/"
 Default is to use a total of  36 processors:
                               36 via shared-memory
                                1 via Linda
 Entering Link 1 = /home/k0335/k033513/app/g09/l1.exe PID=    515382.
  
 Copyright (c) 1988,1990,1992,1993,1995,1998,2003,2009,2013,
            Gaussian, Inc.  All Rights Reserved.
  
 This is part of the Gaussian(R) 09 program.  It is based on
 the Gaussian(R) 03 system (copyright 2003, Gaussian, Inc.),
 the Gaussian(R) 98 system (copyright 1998, Gaussian, Inc.),
 the Gaussian(R) 94 system (copyright 1995, Gaussian, Inc.),
 the Gaussian 92(TM) system (copyright 1992, Gaussian, Inc.),
 the Gaussian 90(TM) system (copyright 1990, Gaussian, Inc.),
 the Gaussian 88(TM) system (copyright 1988, Gaussian, Inc.),
 the Gaussian 86(TM) system (copyright 1986, Carnegie Mellon
 University), and the Gaussian 82(TM) system (copyright 1983,
 Carnegie Mellon University). Gaussian is a federally registered
 trademark of Gaussian, Inc.
  
 This software contains proprietary and confidential information,
 including trade secrets, belonging to Gaussian, Inc.
  
 This software is provided under written license and may be
 used, copied, transmitted, or stored only in accord with that
 written license.
  
 The following legend is applicable only to US Government
 contracts under FAR:
  
                    RESTRICTED RIGHTS LEGEND
  
 Use, reproduction and disclosure by the US Government is
 subject to restrictions as set forth in subparagraphs (a)
 and (c) of the Commercial Computer Software - Restricted
 Rights clause in FAR 52.227-19.
  
 Gaussian, Inc.
 340 Quinnipiac St., Bldg. 40, Wallingford CT 06492
  
  
 ---------------------------------------------------------------
 Warning -- This program may not be used in any manner that
 competes with the business of Gaussian, Inc. or will provide
 assistance to any competitor of Gaussian, Inc.  The licensee
 of this program is prohibited from giving any competitor of
 Gaussian, Inc. access to this program.  By using this program,
 the user acknowledges that Gaussian, Inc. is engaged in the
 business of creating and licensing software in the field of
 computational chemistry and represents and warrants to the
 licensee that it is not a competitor of Gaussian, Inc. and that
 it will not use this program in any manner prohibited above.
 ---------------------------------------------------------------
  

 Cite this work as:
 Gaussian 09, Revision D.01,
 M. J. Frisch, G. W. Trucks, H. B. Schlegel, G. E. Scuseria, 
 M. A. Robb, J. R. Cheeseman, G. Scalmani, V. Barone, B. Mennucci, 
 G. A. Petersson, H. Nakatsuji, M. Caricato, X. Li, H. P. Hratchian, 
 A. F. Izmaylov, J. Bloino, G. Zheng, J. L. Sonnenberg, M. Hada, 
 M. Ehara, K. Toyota, R. Fukuda, J. Hasegawa, M. Ishida, T. Nakajima, 
 Y. Honda, O. Kitao, H. Nakai, T. Vreven, J. A. Montgomery, Jr., 
 J. E. Peralta, F. Ogliaro, M. Bearpark, J. J. Heyd, E. Brothers, 
 K. N. Kudin, V. N. Staroverov, T. Keith, R. Kobayashi, J. Normand, 
 K. Raghavachari, A. Rendell, J. C. Burant, S. S. Iyengar, J. Tomasi, 
 M. Cossi, N. Rega, J. M. Millam, M. Klene, J. E. Knox, J. B. Cross, 
 V. Bakken, C. Adamo, J. Jaramillo, R. Gomperts, R. E. Stratmann, 
 O. Yazyev, A. J. Austin, R. Cammi, C. Pomelli, J. W. Ochterski, 
 R. L. Martin, K. Morokuma, V. G. Zakrzewski, G. A. Voth, 
 P. Salvador, J. J. Dannenberg, S. Dapprich, A. D. Daniels, 
 O. Farkas, J. B. Foresman, J. V. Ortiz, J. Cioslowski, 
 and D. J. Fox, Gaussian, Inc., Wallingford CT, 2013.
 
 ******************************************
 Gaussian 09:  ES64L-G09RevD.01 24-Apr-2013
                 4-Feb-2025 
 ******************************************
 %nprocshared=24
 Will use up to   24 processors via shared memory.
 %mem=40GB
 %rwf=cytopopt/mXD0/mXD0_neu.rwf
 %nosave
 %chk=cytopopt/mXD0/mXD0_neu.chk
 ----------------------------------------------------------------------
 #p CAM-B3LYP/6-31G(d,p) opt SCRF=(PCM,Solvent=Generic,Read) NoSymm out
 =wfn
 ----------------------------------------------------------------------
 1/14=-1,18=20,19=15,26=3,38=1,40=2/1,3;
 2/9=110,12=2,15=1,17=6,18=5,40=1/2;
 3/5=1,6=6,7=101,11=2,16=1,25=1,30=1,70=2203,71=1,72=-2,74=-40/1,2,3;
 4//1;
 5/5=2,38=5/2;
 6/7=2,8=2,9=2,10=2,28=1/1;
 7/30=1/1,2,3,16;
 1/14=-1,18=20,19=15,26=3/3(2);
 2/9=110,15=1/2;
 99/6=100/99;
 2/9=110,15=1/2;
 3/5=1,6=6,7=101,11=2,16=1,25=1,30=1,70=2205,71=1,72=-2,74=-40/1,2,3;
 4/5=5,16=3,69=1/1;
 5/5=2,38=5/2;
 7/30=1/1,2,3,16;
 1/14=-1,18=20,19=15,26=3/3(-5);
 2/9=110,15=1/2;
 6/7=2,8=2,9=2,10=2,19=2,28=1/1;
 99/6=100,9=1/99;
 Leave Link    1 at Tue Feb  4 08:46:26 2025, MaxMem=  5368709120 cpu:         0.8
 (Enter /home/k0335/k033513/app/g09/l101.exe)
 --------------
 Title mXD0_neu
 --------------
 Symbolic Z-matrix:
 Charge =  0 Multiplicity = 1
 F                    -5.13072  -3.56529   0.23584 
 C                    -3.88294  -3.44732   0.72915 
 F                    -3.54273  -4.64233   1.25182 
 C                    -3.74272  -2.30901   1.70993 
 F                    -2.58388  -2.47699   2.4145 
 F                    -4.71919  -2.224     2.62518 
 C                    -3.58498  -1.11188   0.81354 
 F                    -2.89175  -0.15545   1.49277 
 C                    -4.91876  -0.53715   0.361 
 F                    -5.73586  -0.41085   1.45114 
 C                    -4.73665   0.84101  -0.27824 
 O                    -4.74992   0.83881  -1.62773 
 O                    -4.59034   1.89738   0.32 
 F                    -5.56478  -1.40689  -0.46182 
 C                    -2.77228  -1.73024  -0.33057 
 F                    -3.20847  -1.27863  -1.53443 
 C                    -1.25363  -1.47694  -0.24416 
 F                    -0.77112  -1.88938   0.96188 
 C                    -0.90837  -0.00229  -0.50381 
 N                     0.44704   0.26844  -0.51478 
 C                     0.95253   1.61535  -0.64104 
 C                     2.39209   1.60224  -1.07551 
 C                     3.42843   1.6624   -0.13022 
 C                     4.7738    1.63427  -0.53212 
 C                     5.88749   1.70855   0.48236 
 N                     6.54253   0.41826   0.6424 
 C                     5.07073   1.52331  -1.89815 
 C                     4.04768   1.44764  -2.84379 
 C                     2.71573   1.48441  -2.43436 
 O                    -1.75698   0.86805  -0.6858 
 F                    -0.61016  -2.26588  -1.16245 
 O                    -3.02388  -3.15745  -0.36596 
 H                    -4.55619   1.76808  -1.87732 
 H                     1.10156  -0.4685   -0.27261 
 H                     0.8429    2.10698   0.33255 
 H                     0.33922   2.18072  -1.35205 
 H                     3.18706   1.73749   0.92818 
 H                     6.62057   2.45749   0.16155 
 H                     5.49906   2.0439    1.45003 
 H                     5.85089  -0.28146   0.90773 
 H                     7.20865   0.47312   1.40945 
 H                     6.10837   1.48442  -2.22558 
 H                     4.29256   1.35838  -3.89852 
 H                     1.92742   1.41722  -3.18149 
 
 NAtoms=     44 NQM=       44 NQMF=       0 NMMI=      0 NMMIF=      0
                NMic=       0 NMicF=      0.
                    Isotopes and Nuclear Properties:
 (Nuclear quadrupole moments (NQMom) in fm**2, nuclear magnetic moments (NMagM)
  in nuclear magnetons)

  Atom         1           2           3           4           5           6           7           8           9          10
 IAtWgt=          19          12          19          12          19          19          12          19          12          19
 AtmWgt=  18.9984033  12.0000000  18.9984033  12.0000000  18.9984033  18.9984033  12.0000000  18.9984033  12.0000000  18.9984033
 NucSpn=           1           0           1           0           1           1           0           1           0           1
 AtZEff=   0.0000000   0.0000000   0.0000000   0.0000000   0.0000000   0.0000000   0.0000000   0.0000000   0.0000000   0.0000000
 NQMom=    0.0000000   0.0000000   0.0000000   0.0000000   0.0000000   0.0000000   0.0000000   0.0000000   0.0000000   0.0000000
 NMagM=    2.6288670   0.0000000   2.6288670   0.0000000   2.6288670   2.6288670   0.0000000   2.6288670   0.0000000   2.6288670
 AtZNuc=   9.0000000   6.0000000   9.0000000   6.0000000   9.0000000   9.0000000   6.0000000   9.0000000   6.0000000   9.0000000

  Atom        11          12          13          14          15          16          17          18          19          20
 IAtWgt=          12          16          16          19          12          19          12          19          12          14
 AtmWgt=  12.0000000  15.9949146  15.9949146  18.9984033  12.0000000  18.9984033  12.0000000  18.9984033  12.0000000  14.0030740
 NucSpn=           0           0           0           1           0           1           0           1           0           2
 AtZEff=   0.0000000   0.0000000   0.0000000   0.0000000   0.0000000   0.0000000   0.0000000   0.0000000   0.0000000   0.0000000
 NQMom=    0.0000000   0.0000000   0.0000000   0.0000000   0.0000000   0.0000000   0.0000000   0.0000000   0.0000000   2.0440000
 NMagM=    0.0000000   0.0000000   0.0000000   2.6288670   0.0000000   2.6288670   0.0000000   2.6288670   0.0000000   0.4037610
 AtZNuc=   6.0000000   8.0000000   8.0000000   9.0000000   6.0000000   9.0000000   6.0000000   9.0000000   6.0000000   7.0000000

  Atom        21          22          23          24          25          26          27          28          29          30
 IAtWgt=          12          12          12          12          12          14          12          12          12          16
 AtmWgt=  12.0000000  12.0000000  12.0000000  12.0000000  12.0000000  14.0030740  12.0000000  12.0000000  12.0000000  15.9949146
 NucSpn=           0           0           0           0           0           2           0           0           0           0
 AtZEff=   0.0000000   0.0000000   0.0000000   0.0000000   0.0000000   0.0000000   0.0000000   0.0000000   0.0000000   0.0000000
 NQMom=    0.0000000   0.0000000   0.0000000   0.0000000   0.0000000   2.0440000   0.0000000   0.0000000   0.0000000   0.0000000
 NMagM=    0.0000000   0.0000000   0.0000000   0.0000000   0.0000000   0.4037610   0.0000000   0.0000000   0.0000000   0.0000000
 AtZNuc=   6.0000000   6.0000000   6.0000000   6.0000000   6.0000000   7.0000000   6.0000000   6.0000000   6.0000000   8.0000000

  Atom        31          32          33          34          35          36          37          38          39          40
 IAtWgt=          19          16           1           1           1           1           1           1           1           1
 AtmWgt=  18.9984033  15.9949146   1.0078250   1.0078250   1.0078250   1.0078250   1.0078250   1.0078250   1.0078250   1.0078250
 NucSpn=           1           0           1           1           1           1           1           1           1           1
 AtZEff=   0.0000000   0.0000000   0.0000000   0.0000000   0.0000000   0.0000000   0.0000000   0.0000000   0.0000000   0.0000000
 NQMom=    0.0000000   0.0000000   0.0000000   0.0000000   0.0000000   0.0000000   0.0000000   0.0000000   0.0000000   0.0000000
 NMagM=    2.6288670   0.0000000   2.7928460   2.7928460   2.7928460   2.7928460   2.7928460   2.7928460   2.7928460   2.7928460
 AtZNuc=   9.0000000   8.0000000   1.0000000   1.0000000   1.0000000   1.0000000   1.0000000   1.0000000   1.0000000   1.0000000

  Atom        41          42          43          44
 IAtWgt=           1           1           1           1
 AtmWgt=   1.0078250   1.0078250   1.0078250   1.0078250
 NucSpn=           1           1           1           1
 AtZEff=   0.0000000   0.0000000   0.0000000   0.0000000
 NQMom=    0.0000000   0.0000000   0.0000000   0.0000000
 NMagM=    2.7928460   2.7928460   2.7928460   2.7928460
 AtZNuc=   1.0000000   1.0000000   1.0000000   1.0000000
 Leave Link  101 at Tue Feb  4 08:46:26 2025, MaxMem=  5368709120 cpu:         3.0
 (Enter /home/k0335/k033513/app/g09/l103.exe)

 GradGradGradGradGradGradGradGradGradGradGradGradGradGradGradGradGradGrad
 Berny optimization.
 Initialization pass.
                           ----------------------------
                           !    Initial Parameters    !
                           ! (Angstroms and Degrees)  !
 --------------------------                            --------------------------
 ! Name  Definition              Value          Derivative Info.                !
 --------------------------------------------------------------------------------
 ! R1    R(1,2)                  1.3469         estimate D2E/DX2                !
 ! R2    R(2,3)                  1.348          estimate D2E/DX2                !
 ! R3    R(2,4)                  1.5091         estimate D2E/DX2                !
 ! R4    R(2,32)                 1.4217         estimate D2E/DX2                !
 ! R5    R(4,5)                  1.3666         estimate D2E/DX2                !
 ! R6    R(4,6)                  1.341          estimate D2E/DX2                !
 ! R7    R(4,7)                  1.5038         estimate D2E/DX2                !
 ! R8    R(7,8)                  1.3626         estimate D2E/DX2                !
 ! R9    R(7,9)                  1.5212         estimate D2E/DX2                !
 ! R10   R(7,15)                 1.5336         estimate D2E/DX2                !
 ! R11   R(9,10)                 1.3682         estimate D2E/DX2                !
 ! R12   R(9,11)                 1.5301         estimate D2E/DX2                !
 ! R13   R(9,14)                 1.3604         estimate D2E/DX2                !
 ! R14   R(11,12)                1.3496         estimate D2E/DX2                !
 ! R15   R(11,13)                1.2228         estimate D2E/DX2                !
 ! R16   R(12,33)                0.9815         estimate D2E/DX2                !
 ! R17   R(15,16)                1.3578         estimate D2E/DX2                !
 ! R18   R(15,17)                1.542          estimate D2E/DX2                !
 ! R19   R(15,32)                1.4497         estimate D2E/DX2                !
 ! R20   R(17,18)                1.3629         estimate D2E/DX2                !
 ! R21   R(17,19)                1.5366         estimate D2E/DX2                !
 ! R22   R(17,31)                1.371          estimate D2E/DX2                !
 ! R23   R(19,20)                1.3822         estimate D2E/DX2                !
 ! R24   R(19,30)                1.2291         estimate D2E/DX2                !
 ! R25   R(20,21)                1.4442         estimate D2E/DX2                !
 ! R26   R(20,34)                1.015          estimate D2E/DX2                !
 ! R27   R(21,22)                1.5038         estimate D2E/DX2                !
 ! R28   R(21,35)                1.0962         estimate D2E/DX2                !
 ! R29   R(21,36)                1.0961         estimate D2E/DX2                !
 ! R30   R(22,23)                1.404          estimate D2E/DX2                !
 ! R31   R(22,29)                1.4018         estimate D2E/DX2                !
 ! R32   R(23,24)                1.4044         estimate D2E/DX2                !
 ! R33   R(23,37)                1.0882         estimate D2E/DX2                !
 ! R34   R(24,25)                1.5083         estimate D2E/DX2                !
 ! R35   R(24,27)                1.4023         estimate D2E/DX2                !
 ! R36   R(25,26)                1.4559         estimate D2E/DX2                !
 ! R37   R(25,38)                1.096          estimate D2E/DX2                !
 ! R38   R(25,39)                1.0953         estimate D2E/DX2                !
 ! R39   R(26,40)                1.019          estimate D2E/DX2                !
 ! R40   R(26,41)                1.0174         estimate D2E/DX2                !
 ! R41   R(27,28)                1.3952         estimate D2E/DX2                !
 ! R42   R(27,42)                1.0888         estimate D2E/DX2                !
 ! R43   R(28,29)                1.3939         estimate D2E/DX2                !
 ! R44   R(28,43)                1.0865         estimate D2E/DX2                !
 ! R45   R(29,44)                1.0882         estimate D2E/DX2                !
 ! A1    A(1,2,3)              107.3477         estimate D2E/DX2                !
 ! A2    A(1,2,4)              112.965          estimate D2E/DX2                !
 ! A3    A(1,2,32)             107.1881         estimate D2E/DX2                !
 ! A4    A(3,2,4)              113.1579         estimate D2E/DX2                !
 ! A5    A(3,2,32)             109.082          estimate D2E/DX2                !
 ! A6    A(4,2,32)             106.8989         estimate D2E/DX2                !
 ! A7    A(2,4,5)              108.7324         estimate D2E/DX2                !
 ! A8    A(2,4,6)              115.0697         estimate D2E/DX2                !
 ! A9    A(2,4,7)              102.8744         estimate D2E/DX2                !
 ! A10   A(5,4,6)              105.8653         estimate D2E/DX2                !
 ! A11   A(5,4,7)              108.4343         estimate D2E/DX2                !
 ! A12   A(6,4,7)              115.6409         estimate D2E/DX2                !
 ! A13   A(4,7,8)              108.3603         estimate D2E/DX2                !
 ! A14   A(4,7,9)              112.7124         estimate D2E/DX2                !
 ! A15   A(4,7,15)             100.3288         estimate D2E/DX2                !
 ! A16   A(8,7,9)              109.2183         estimate D2E/DX2                !
 ! A17   A(8,7,15)             112.6632         estimate D2E/DX2                !
 ! A18   A(9,7,15)             113.2692         estimate D2E/DX2                !
 ! A19   A(7,9,10)             108.7523         estimate D2E/DX2                !
 ! A20   A(7,9,11)             111.114          estimate D2E/DX2                !
 ! A21   A(7,9,14)             110.7772         estimate D2E/DX2                !
 ! A22   A(10,9,11)            108.7121         estimate D2E/DX2                !
 ! A23   A(10,9,14)            104.9109         estimate D2E/DX2                !
 ! A24   A(11,9,14)            112.3133         estimate D2E/DX2                !
 ! A25   A(9,11,12)            114.5272         estimate D2E/DX2                !
 ! A26   A(9,11,13)            126.0134         estimate D2E/DX2                !
 ! A27   A(12,11,13)           119.4591         estimate D2E/DX2                !
 ! A28   A(11,12,33)           104.5245         estimate D2E/DX2                !
 ! A29   A(7,15,16)            110.9233         estimate D2E/DX2                !
 ! A30   A(7,15,17)            114.4472         estimate D2E/DX2                !
 ! A31   A(7,15,32)            108.8575         estimate D2E/DX2                !
 ! A32   A(16,15,17)           108.1456         estimate D2E/DX2                !
 ! A33   A(16,15,32)           104.4813         estimate D2E/DX2                !
 ! A34   A(17,15,32)           109.5126         estimate D2E/DX2                !
 ! A35   A(15,17,18)           110.3983         estimate D2E/DX2                !
 ! A36   A(15,17,19)           111.6815         estimate D2E/DX2                !
 ! A37   A(15,17,31)           109.2781         estimate D2E/DX2                !
 ! A38   A(18,17,19)           111.1247         estimate D2E/DX2                !
 ! A39   A(18,17,31)           104.6198         estimate D2E/DX2                !
 ! A40   A(19,17,31)           109.4868         estimate D2E/DX2                !
 ! A41   A(17,19,20)           114.1818         estimate D2E/DX2                !
 ! A42   A(17,19,30)           123.328          estimate D2E/DX2                !
 ! A43   A(20,19,30)           122.4901         estimate D2E/DX2                !
 ! A44   A(19,20,21)           121.7759         estimate D2E/DX2                !
 ! A45   A(19,20,34)           119.2265         estimate D2E/DX2                !
 ! A46   A(21,20,34)           118.1851         estimate D2E/DX2                !
 ! A47   A(20,21,22)           110.6222         estimate D2E/DX2                !
 ! A48   A(20,21,35)           107.7963         estimate D2E/DX2                !
 ! A49   A(20,21,36)           109.9947         estimate D2E/DX2                !
 ! A50   A(22,21,35)           110.8713         estimate D2E/DX2                !
 ! A51   A(22,21,36)           110.6553         estimate D2E/DX2                !
 ! A52   A(35,21,36)           106.7899         estimate D2E/DX2                !
 ! A53   A(21,22,23)           120.7784         estimate D2E/DX2                !
 ! A54   A(21,22,29)           120.1208         estimate D2E/DX2                !
 ! A55   A(23,22,29)           119.0672         estimate D2E/DX2                !
 ! A56   A(22,23,24)           120.9025         estimate D2E/DX2                !
 ! A57   A(22,23,37)           119.6109         estimate D2E/DX2                !
 ! A58   A(24,23,37)           119.4858         estimate D2E/DX2                !
 ! A59   A(23,24,25)           120.9223         estimate D2E/DX2                !
 ! A60   A(23,24,27)           118.8935         estimate D2E/DX2                !
 ! A61   A(25,24,27)           120.1818         estimate D2E/DX2                !
 ! A62   A(24,25,26)           111.2543         estimate D2E/DX2                !
 ! A63   A(24,25,38)           109.3079         estimate D2E/DX2                !
 ! A64   A(24,25,39)           110.3311         estimate D2E/DX2                !
 ! A65   A(26,25,38)           109.6857         estimate D2E/DX2                !
 ! A66   A(26,25,39)           109.4984         estimate D2E/DX2                !
 ! A67   A(38,25,39)           106.6531         estimate D2E/DX2                !
 ! A68   A(25,26,40)           109.3788         estimate D2E/DX2                !
 ! A69   A(25,26,41)           109.249          estimate D2E/DX2                !
 ! A70   A(40,26,41)           106.5655         estimate D2E/DX2                !
 ! A71   A(24,27,28)           120.6154         estimate D2E/DX2                !
 ! A72   A(24,27,42)           119.8388         estimate D2E/DX2                !
 ! A73   A(28,27,42)           119.5422         estimate D2E/DX2                !
 ! A74   A(27,28,29)           120.0092         estimate D2E/DX2                !
 ! A75   A(27,28,43)           119.8133         estimate D2E/DX2                !
 ! A76   A(29,28,43)           120.1774         estimate D2E/DX2                !
 ! A77   A(22,29,28)           120.5004         estimate D2E/DX2                !
 ! A78   A(22,29,44)           120.2303         estimate D2E/DX2                !
 ! A79   A(28,29,44)           119.269          estimate D2E/DX2                !
 ! A80   A(2,32,15)            106.6661         estimate D2E/DX2                !
 ! D1    D(1,2,4,5)            164.0304         estimate D2E/DX2                !
 ! D2    D(1,2,4,6)             45.5197         estimate D2E/DX2                !
 ! D3    D(1,2,4,7)            -81.1337         estimate D2E/DX2                !
 ! D4    D(3,2,4,5)             41.7903         estimate D2E/DX2                !
 ! D5    D(3,2,4,6)            -76.7203         estimate D2E/DX2                !
 ! D6    D(3,2,4,7)            156.6263         estimate D2E/DX2                !
 ! D7    D(32,2,4,5)           -78.3132         estimate D2E/DX2                !
 ! D8    D(32,2,4,6)           163.1762         estimate D2E/DX2                !
 ! D9    D(32,2,4,7)            36.5228         estimate D2E/DX2                !
 ! D10   D(1,2,32,15)          100.7815         estimate D2E/DX2                !
 ! D11   D(3,2,32,15)         -143.2893         estimate D2E/DX2                !
 ! D12   D(4,2,32,15)          -20.6053         estimate D2E/DX2                !
 ! D13   D(2,4,7,8)           -153.8481         estimate D2E/DX2                !
 ! D14   D(2,4,7,9)             85.1614         estimate D2E/DX2                !
 ! D15   D(2,4,7,15)           -35.609          estimate D2E/DX2                !
 ! D16   D(5,4,7,8)            -38.7967         estimate D2E/DX2                !
 ! D17   D(5,4,7,9)           -159.7871         estimate D2E/DX2                !
 ! D18   D(5,4,7,15)            79.4425         estimate D2E/DX2                !
 ! D19   D(6,4,7,8)             79.8647         estimate D2E/DX2                !
 ! D20   D(6,4,7,9)            -41.1258         estimate D2E/DX2                !
 ! D21   D(6,4,7,15)          -161.8962         estimate D2E/DX2                !
 ! D22   D(4,7,9,10)            47.6696         estimate D2E/DX2                !
 ! D23   D(4,7,9,11)           167.2916         estimate D2E/DX2                !
 ! D24   D(4,7,9,14)           -67.1303         estimate D2E/DX2                !
 ! D25   D(8,7,9,10)           -72.8301         estimate D2E/DX2                !
 ! D26   D(8,7,9,11)            46.7919         estimate D2E/DX2                !
 ! D27   D(8,7,9,14)           172.37           estimate D2E/DX2                !
 ! D28   D(15,7,9,10)          160.7221         estimate D2E/DX2                !
 ! D29   D(15,7,9,11)          -79.6559         estimate D2E/DX2                !
 ! D30   D(15,7,9,14)           45.9222         estimate D2E/DX2                !
 ! D31   D(4,7,15,16)          139.1942         estimate D2E/DX2                !
 ! D32   D(4,7,15,17)          -98.1174         estimate D2E/DX2                !
 ! D33   D(4,7,15,32)           24.7702         estimate D2E/DX2                !
 ! D34   D(8,7,15,16)         -105.7772         estimate D2E/DX2                !
 ! D35   D(8,7,15,17)           16.9112         estimate D2E/DX2                !
 ! D36   D(8,7,15,32)          139.7989         estimate D2E/DX2                !
 ! D37   D(9,7,15,16)           18.8238         estimate D2E/DX2                !
 ! D38   D(9,7,15,17)          141.5121         estimate D2E/DX2                !
 ! D39   D(9,7,15,32)          -95.6002         estimate D2E/DX2                !
 ! D40   D(7,9,11,12)          100.5877         estimate D2E/DX2                !
 ! D41   D(7,9,11,13)          -79.6272         estimate D2E/DX2                !
 ! D42   D(10,9,11,12)        -139.7663         estimate D2E/DX2                !
 ! D43   D(10,9,11,13)          40.0188         estimate D2E/DX2                !
 ! D44   D(14,9,11,12)         -24.1289         estimate D2E/DX2                !
 ! D45   D(14,9,11,13)         155.6562         estimate D2E/DX2                !
 ! D46   D(9,11,12,33)        -175.8628         estimate D2E/DX2                !
 ! D47   D(13,11,12,33)          4.3368         estimate D2E/DX2                !
 ! D48   D(7,15,17,18)          54.5577         estimate D2E/DX2                !
 ! D49   D(7,15,17,19)         -69.6108         estimate D2E/DX2                !
 ! D50   D(7,15,17,31)         169.0991         estimate D2E/DX2                !
 ! D51   D(16,15,17,18)        178.7389         estimate D2E/DX2                !
 ! D52   D(16,15,17,19)         54.5704         estimate D2E/DX2                !
 ! D53   D(16,15,17,31)        -66.7197         estimate D2E/DX2                !
 ! D54   D(32,15,17,18)        -67.9751         estimate D2E/DX2                !
 ! D55   D(32,15,17,19)        167.8564         estimate D2E/DX2                !
 ! D56   D(32,15,17,31)         46.5664         estimate D2E/DX2                !
 ! D57   D(7,15,32,2)           -2.9692         estimate D2E/DX2                !
 ! D58   D(16,15,32,2)        -121.5219         estimate D2E/DX2                !
 ! D59   D(17,15,32,2)         122.8344         estimate D2E/DX2                !
 ! D60   D(15,17,19,20)       -176.4765         estimate D2E/DX2                !
 ! D61   D(15,17,19,30)          3.5866         estimate D2E/DX2                !
 ! D62   D(18,17,19,20)         59.7638         estimate D2E/DX2                !
 ! D63   D(18,17,19,30)       -120.1731         estimate D2E/DX2                !
 ! D64   D(31,17,19,20)        -55.3076         estimate D2E/DX2                !
 ! D65   D(31,17,19,30)        124.7555         estimate D2E/DX2                !
 ! D66   D(17,19,20,21)       -175.1526         estimate D2E/DX2                !
 ! D67   D(17,19,20,34)         -5.6647         estimate D2E/DX2                !
 ! D68   D(30,19,20,21)          4.7848         estimate D2E/DX2                !
 ! D69   D(30,19,20,34)        174.2727         estimate D2E/DX2                !
 ! D70   D(19,20,21,22)       -161.3476         estimate D2E/DX2                !
 ! D71   D(19,20,21,35)         77.2808         estimate D2E/DX2                !
 ! D72   D(19,20,21,36)        -38.8            estimate D2E/DX2                !
 ! D73   D(34,20,21,22)         29.0592         estimate D2E/DX2                !
 ! D74   D(34,20,21,35)        -92.3124         estimate D2E/DX2                !
 ! D75   D(34,20,21,36)        151.6068         estimate D2E/DX2                !
 ! D76   D(20,21,22,23)        -94.225          estimate D2E/DX2                !
 ! D77   D(20,21,22,29)         83.6472         estimate D2E/DX2                !
 ! D78   D(35,21,22,23)         25.3114         estimate D2E/DX2                !
 ! D79   D(35,21,22,29)       -156.8164         estimate D2E/DX2                !
 ! D80   D(36,21,22,23)        143.6137         estimate D2E/DX2                !
 ! D81   D(36,21,22,29)        -38.5141         estimate D2E/DX2                !
 ! D82   D(21,22,23,24)        179.2355         estimate D2E/DX2                !
 ! D83   D(21,22,23,37)         -1.1101         estimate D2E/DX2                !
 ! D84   D(29,22,23,24)          1.3411         estimate D2E/DX2                !
 ! D85   D(29,22,23,37)       -179.0045         estimate D2E/DX2                !
 ! D86   D(21,22,29,28)       -178.8617         estimate D2E/DX2                !
 ! D87   D(21,22,29,44)          0.931          estimate D2E/DX2                !
 ! D88   D(23,22,29,28)         -0.9532         estimate D2E/DX2                !
 ! D89   D(23,22,29,44)        178.8395         estimate D2E/DX2                !
 ! D90   D(22,23,24,25)        179.571          estimate D2E/DX2                !
 ! D91   D(22,23,24,27)         -0.9987         estimate D2E/DX2                !
 ! D92   D(37,23,24,25)         -0.0838         estimate D2E/DX2                !
 ! D93   D(37,23,24,27)        179.3464         estimate D2E/DX2                !
 ! D94   D(23,24,25,26)        106.796          estimate D2E/DX2                !
 ! D95   D(23,24,25,38)       -131.9214         estimate D2E/DX2                !
 ! D96   D(23,24,25,39)        -14.9435         estimate D2E/DX2                !
 ! D97   D(27,24,25,26)        -72.627          estimate D2E/DX2                !
 ! D98   D(27,24,25,38)         48.6556         estimate D2E/DX2                !
 ! D99   D(27,24,25,39)        165.6335         estimate D2E/DX2                !
 ! D100  D(23,24,27,28)          0.2636         estimate D2E/DX2                !
 ! D101  D(23,24,27,42)       -179.047          estimate D2E/DX2                !
 ! D102  D(25,24,27,28)        179.6982         estimate D2E/DX2                !
 ! D103  D(25,24,27,42)          0.3876         estimate D2E/DX2                !
 ! D104  D(24,25,26,40)        -56.8994         estimate D2E/DX2                !
 ! D105  D(24,25,26,41)       -173.1921         estimate D2E/DX2                !
 ! D106  D(38,25,26,40)       -177.961          estimate D2E/DX2                !
 ! D107  D(38,25,26,41)         65.7464         estimate D2E/DX2                !
 ! D108  D(39,25,26,40)         65.3233         estimate D2E/DX2                !
 ! D109  D(39,25,26,41)        -50.9694         estimate D2E/DX2                !
 ! D110  D(24,27,28,29)          0.1121         estimate D2E/DX2                !
 ! D111  D(24,27,28,43)       -179.7838         estimate D2E/DX2                !
 ! D112  D(42,27,28,29)        179.4248         estimate D2E/DX2                !
 ! D113  D(42,27,28,43)         -0.4711         estimate D2E/DX2                !
 ! D114  D(27,28,29,22)          0.2375         estimate D2E/DX2                !
 ! D115  D(27,28,29,44)       -179.5571         estimate D2E/DX2                !
 ! D116  D(43,28,29,22)       -179.867          estimate D2E/DX2                !
 ! D117  D(43,28,29,44)          0.3384         estimate D2E/DX2                !
 --------------------------------------------------------------------------------
 Trust Radius=3.00D-01 FncErr=1.00D-07 GrdErr=1.00D-06
 Number of steps in this run=    252 maximum allowed number of steps=    264.
 GradGradGradGradGradGradGradGradGradGradGradGradGradGradGradGradGradGrad

 Leave Link  103 at Tue Feb  4 08:46:26 2025, MaxMem=  5368709120 cpu:         0.1
 (Enter /home/k0335/k033513/app/g09/l202.exe)
                          Input orientation:                          
 ---------------------------------------------------------------------
 Center     Atomic      Atomic             Coordinates (Angstroms)
 Number     Number       Type             X           Y           Z
 ---------------------------------------------------------------------
      1          9           0       -5.130725   -3.565287    0.235840
      2          6           0       -3.882935   -3.447315    0.729149
      3          9           0       -3.542732   -4.642328    1.251815
      4          6           0       -3.742720   -2.309007    1.709928
      5          9           0       -2.583878   -2.476987    2.414496
      6          9           0       -4.719192   -2.224000    2.625175
      7          6           0       -3.584975   -1.111876    0.813536
      8          9           0       -2.891754   -0.155449    1.492773
      9          6           0       -4.918760   -0.537147    0.361001
     10          9           0       -5.735863   -0.410852    1.451135
     11          6           0       -4.736646    0.841008   -0.278237
     12          8           0       -4.749920    0.838809   -1.627731
     13          8           0       -4.590336    1.897378    0.320002
     14          9           0       -5.564776   -1.406889   -0.461815
     15          6           0       -2.772278   -1.730243   -0.330570
     16          9           0       -3.208468   -1.278634   -1.534431
     17          6           0       -1.253632   -1.476941   -0.244156
     18          9           0       -0.771122   -1.889377    0.961876
     19          6           0       -0.908371   -0.002287   -0.503811
     20          7           0        0.447036    0.268441   -0.514777
     21          6           0        0.952529    1.615353   -0.641035
     22          6           0        2.392088    1.602235   -1.075512
     23          6           0        3.428425    1.662404   -0.130219
     24          6           0        4.773803    1.634270   -0.532117
     25          6           0        5.887488    1.708549    0.482357
     26          7           0        6.542525    0.418258    0.642402
     27          6           0        5.070725    1.523310   -1.898153
     28          6           0        4.047680    1.447635   -2.843791
     29          6           0        2.715733    1.484413   -2.434358
     30          8           0       -1.756976    0.868053   -0.685804
     31          9           0       -0.610161   -2.265876   -1.162453
     32          8           0       -3.023879   -3.157454   -0.365959
     33          1           0       -4.556192    1.768075   -1.877319
     34          1           0        1.101563   -0.468503   -0.272610
     35          1           0        0.842904    2.106976    0.332552
     36          1           0        0.339217    2.180719   -1.352054
     37          1           0        3.187064    1.737494    0.928179
     38          1           0        6.620566    2.457494    0.161546
     39          1           0        5.499060    2.043897    1.450034
     40          1           0        5.850890   -0.281455    0.907734
     41          1           0        7.208647    0.473121    1.409447
     42          1           0        6.108369    1.484419   -2.225575
     43          1           0        4.292555    1.358378   -3.898518
     44          1           0        1.927424    1.417216   -3.181491
 ---------------------------------------------------------------------
                    Distance matrix (angstroms):
                    1          2          3          4          5
     1  F    0.000000
     2  C    1.346941   0.000000
     3  F    2.171162   1.347952   0.000000
     4  C    2.382799   1.509083   2.386263   0.000000
     5  F    3.523829   2.338692   2.638168   1.366583   0.000000
     6  F    2.770800   2.406396   3.019683   1.341045   2.160545
     7  C    2.956738   2.355881   3.557803   1.503837   2.329978
     8  F    4.268474   3.521639   4.540255   2.325750   2.516724
     9  C    3.038129   3.110875   4.420352   2.518365   3.664900
    10  F    3.434180   3.629699   4.770214   2.764523   3.889986
    11  C    4.453651   4.487022   5.816654   3.855293   4.784800
    12  O    4.797288   4.967636   6.308086   4.697144   5.659138
    13  O    5.489974   5.406807   6.688311   4.510435   5.248604
    14  F    2.309503   2.900056   4.182494   2.974924   4.278321
    15  C    3.041460   2.303237   3.402614   2.332457   2.851054
    16  F    3.472422   3.206537   4.380563   3.445716   4.173750
    17  C    4.429835   3.426796   4.183011   3.272054   3.136571
    18  F    4.726726   3.487795   3.917222   3.092906   2.396137
    19  C    5.574076   4.715553   5.617122   4.272602   4.177078
    20  N    6.809722   5.839764   6.569227   5.398760   5.030353
    21  C    8.038278   7.133703   7.934029   6.555379   6.212060
    22  C    9.220393   8.254130   8.923738   7.790530   7.319867
    23  C   10.036025   8.961235   9.500352   8.401403   7.730325
    24  C   11.212708  10.116937  10.570849   9.649216   8.928630
    25  C   12.217820  11.050113  11.395383  10.506598   9.644476
    26  N   12.340935  11.119370  11.300147  10.694104   9.737248
    27  C   11.598161  10.572505  11.051200  10.265560   9.653718
    28  C   10.902139   9.981037  10.558219   9.774408   9.328976
    29  C    9.705479   8.824519   9.502274   8.560184   8.203045
    30  O    5.646779   5.014399   6.107994   4.447069   4.635183
    31  F    4.907055   3.960430   4.480646   4.250336   4.090806
    32  O    2.228742   1.421710   2.256380   2.354974   2.896130
    33  H    5.765438   5.869177   7.204988   5.491145   6.350610
    34  H    6.977822   5.892543   6.427609   5.548422   4.983676
    35  H    8.238214   7.303492   8.101355   6.513526   6.090159
    36  H    8.090628   7.337080   8.270649   6.796733   6.665254
    37  H    9.888601   8.769649   9.278848   8.062705   7.298956
    38  H   13.205009  12.062855  12.445432  11.511504  10.683945
    39  H   12.080130  10.894720  11.247173  10.218895   9.311416
    40  H   11.481762  10.237280  10.362227   9.838284   8.845112
    41  H   13.036341  11.783710  11.907343  11.303228  10.276517
    42  H   12.564845  11.527296  11.948766  11.265976  10.619706
    43  H   11.407611  10.552186  11.132211  10.462792  10.092051
    44  H    9.290907   8.527429   9.289504   8.364284   8.175068
                    6          7          8          9         10
     6  F    0.000000
     7  C    2.409420   0.000000
     8  F    2.983415   1.362597   0.000000
     9  C    2.830510   1.521211   2.352733   0.000000
    10  F    2.387362   2.350380   2.855857   1.368210   0.000000
    11  C    4.221893   2.516361   2.744636   1.530066   2.357184
    12  O    5.241083   3.334974   3.765485   2.424215   3.465999
    13  O    4.724001   3.210909   2.911129   2.456920   2.814182
    14  F    3.303360   2.373429   3.539995   1.360446   2.163501
    15  C    3.573611   1.533569   2.412225   2.551300   3.701095
    16  F    4.525298   2.383803   3.244351   2.658489   4.006791
    17  C    4.560840   2.585951   2.728866   3.831787   4.909272
    18  F    4.297184   2.923060   2.790240   4.403689   5.203274
    19  C    5.408227   3.182892   2.818442   4.137293   5.224310
    20  N    6.539226   4.463945   3.918859   5.496156   6.523380
    21  C    7.587963   5.490218   4.739978   6.333196   7.295017
    22  C    8.882875   6.830826   6.132253   7.751711   8.746431
    23  C    9.438220   7.600992   6.773725   8.646087   9.528024
    24  C   10.722485   8.900633   8.127979   9.972888  10.888934
    25  C   11.513395   9.888985   9.031640  11.037793  11.854648
    26  N   11.736234  10.243869   9.489884  11.504479  12.332894
    27  C   11.416887   9.445560   8.815763  10.446965  11.477851
    28  C   10.965789   8.842203   8.338550   9.726618  10.845187
    29  C    9.727760   7.549070   7.039561   8.377722   9.493080
    30  O    5.412772   3.083783   2.661104   3.614867   4.694001
    31  F    5.588561   3.753101   4.087761   4.886046   6.045228
    32  O    3.562626   2.427020   3.533324   3.314371   4.266206
    33  H    6.019608   4.059320   4.222300   3.233509   4.149452
    34  H    6.734992   4.853584   4.377346   6.053963   7.051597
    35  H    7.412853   5.495313   4.518003   6.339477   7.132381
    36  H    7.797910   5.561497   4.897948   6.161792   7.175006
    37  H    9.004561   7.347963   6.391716   8.438013   9.192796
    38  H   12.513032  10.831369   9.954088  11.923242  12.750364
    39  H   11.135914   9.637620   8.674371  10.787899  11.499969
    40  H   10.883461   9.472804   8.763103  10.786550  11.600210
    41  H   12.289255  10.925640  10.120284  12.214495  12.974725
    42  H   12.430536  10.485126   9.875095  11.505420  12.545759
    43  H   11.687754   9.505845   9.108896  10.323993  11.502962
    44  H    9.547425   7.262444   6.895397   7.952297   9.139421
                   11         12         13         14         15
    11  C    0.000000
    12  O    1.349561   0.000000
    13  O    1.222789   2.222543   0.000000
    14  F    2.402611   2.658291   3.532556   0.000000
    15  C    3.236172   3.491951   4.109527   2.814219   0.000000
    16  F    2.899351   2.620753   3.928808   2.592131   1.357753
    17  C    4.183950   4.415995   4.778901   4.317203   1.542049
    18  F    4.971746   5.475390   5.416448   5.023824   2.387544
    19  C    3.926540   4.090005   4.224247   4.863823   2.547547
    20  N    5.220569   5.345310   5.359609   6.241107   3.793765
    21  C    5.753081   5.839051   5.632627   7.186190   5.016332
    22  C    7.213457   7.203891   7.126627   8.528959   6.191205
    23  C    8.207618   8.355009   8.034827   9.508322   7.070991
    24  C    9.546851   9.619482   9.406510  10.776818   8.264618
    25  C   10.686597  10.879493  10.480783  11.905955   9.352951
    26  N   11.324575  11.526044  11.235316  12.293787   9.608761
    27  C    9.963643   9.848184   9.919488  11.124883   8.634560
    28  C    9.171393   8.902092   9.210167  10.306378   7.932655
    29  C    7.784650   7.536805   7.818931   8.989849   6.699119
    30  O    3.007536   3.137801   3.177906   4.441269   2.812147
    31  F    5.240462   5.195494   5.947449   5.077102   2.377747
    32  O    4.350743   4.532263   5.336259   3.087041   1.449651
    33  H    1.857170   0.981509   2.201387   3.619570   4.220546
    34  H    5.983271   6.146972   6.192439   6.734719   4.074554
    35  H    5.753878   6.060581   5.437296   7.350961   5.313522
    36  H    5.358385   5.270297   5.213113   6.965672   5.101025
    37  H    8.065005   8.386658   7.802781   9.402868   7.008809
    38  H   11.480100  11.623666  11.226004  12.798617  10.295865
    39  H   10.450050  10.768773  10.153539  11.746129   9.264433
    40  H   10.712720  10.957224  10.682319  11.552476   8.831275
    41  H   12.069534  12.343642  11.934463  13.045934  10.368285
    42  H   11.037230  10.893882  11.005125  12.154539   9.632808
    43  H    9.741693   9.337707   9.848461  10.799287   8.495981
    44  H    7.291826   6.880091   7.414324   8.456079   6.334149
                   16         17         18         19         20
    16  F    0.000000
    17  C    2.350642   0.000000
    18  F    3.541922   1.362877   0.000000
    19  C    2.825188   1.536630   2.393363   0.000000
    20  N    4.098273   2.451911   2.884544   1.382224   0.000000
    21  C    5.146573   3.819285   4.221780   2.469522   1.444173
    22  C    6.314764   4.843940   5.133050   3.714076   2.424182
    23  C    7.393907   5.638273   5.607496   4.660318   3.313563
    24  C    8.556068   6.789148   6.737529   5.913224   4.537257
    25  C    9.784023   7.853073   7.583673   7.076948   5.715479
    26  N   10.134096   8.072040   7.675720   7.550266   6.206166
    27  C    8.748041   7.192684   7.345296   6.326233   4.986675
    28  C    7.861212   6.589018   6.988534   5.669235   4.447408
    29  C    6.598519   5.415022   5.922417   4.367084   3.210976
    30  O    2.726768   2.438730   3.360086   1.229123   2.290514
    31  F    2.804321   1.371037   2.163431   2.376252   2.821332
    32  O    2.220217   2.443918   2.906214   3.801244   4.879155
    33  H    3.349085   4.909608   5.980363   4.281040   5.397936
    34  H    4.563428   2.562167   2.655144   2.076210   1.014957
    35  H    5.600142   4.191959   4.355682   2.866262   2.062738
    36  H    4.958473   4.140421   4.811736   2.653584   2.090326
    37  H    7.487610   5.605956   5.368665   4.674401   3.427534
    38  H   10.651052   8.811774   8.612367   7.948466   6.584971
    39  H    9.786076   7.801630   7.417825   7.004252   5.704005
    40  H    9.435598   7.295908   6.814645   6.910717   5.614941
    41  H   10.965918   8.840097   8.334172   8.352996   7.033059
    42  H    9.742463   8.178920   8.298779   7.376273   6.037891
    43  H    8.295064   7.221744   7.733833   6.358072   5.236954
    44  H    6.029743   5.207994   5.948378   4.150505   3.259232
                   21         22         23         24         25
    21  C    0.000000
    22  C    1.503753   0.000000
    23  C    2.528479   1.403992   0.000000
    24  C    3.822873   2.443127   1.404406   0.000000
    25  C    5.062066   3.828326   2.534634   1.508300   0.000000
    26  N    5.859036   4.645337   3.441288   2.446744   1.455864
    27  C    4.306780   2.803224   2.417041   1.402330   2.523538
    28  C    3.802660   2.427282   2.791608   2.430211   3.810017
    29  C    2.518341   1.401817   2.418402   2.806533   4.314799
    30  O    2.811028   4.231504   5.275230   6.577369   7.778744
    31  F    4.216375   4.897279   5.727745   6.677989   7.792361
    32  O    6.218293   7.245054   8.057222   9.153801  10.188724
    33  H    5.647807   6.996356   8.174205   9.427422  10.707104
    34  H    2.121416   2.568669   3.158374   4.239616   5.311743
    35  H    1.096167   2.153457   2.663967   4.052539   5.062511
    36  H    1.096056   2.150674   3.362252   4.542737   5.862706
    37  H    2.733221   2.159875   1.088164   2.158903   2.737131
    38  H    5.786189   4.487962   3.302584   2.137615   1.096012
    39  H    5.022665   4.028241   2.632540   2.150050   1.095323
    40  H    5.476359   4.409633   3.274793   2.627411   2.035289
    41  H    6.681930   5.536168   4.251475   3.323613   2.032545
    42  H    5.395424   3.891949   3.406508   2.161324   2.726155
    43  H    4.672580   3.411833   3.878045   3.411799   4.675307
    44  H    2.728295   2.164554   3.409308   3.894633   5.402848
                   26         27         28         29         30
    26  N    0.000000
    27  C    3.137157   0.000000
    28  C    4.408788   1.395199   0.000000
    29  C    5.024687   2.415578   1.393941   0.000000
    30  O    8.417135   6.965390   6.219876   4.841742   0.000000
    31  F    7.850031   6.868162   6.189713   5.171458   3.371037
    32  O   10.262485   9.475219   8.795081   7.666052   4.232263
    33  H   11.460913   9.630051   8.663912   7.298743   3.172595
    34  H    5.588171   4.729054   4.354556   3.330553   3.182508
    35  H    5.952601   4.815722   4.560096   3.398656   3.054727
    36  H    6.750197   4.808074   4.063913   2.702601   2.561446
    37  H    3.616790   3.403264   3.879747   3.404829   5.272988
    38  H    2.096615   2.741727   4.083088   4.788875   8.568987
    39  H    2.093750   3.415383   4.571539   4.811282   7.654703
    40  H    1.018999   3.426198   4.507245   4.910914   7.857503
    41  H    1.017392   4.076006   5.388082   5.998652   9.215663
    42  H    3.090386   1.088771   2.151740   3.399054   8.038312
    43  H    5.154236   2.152722   1.086453   2.155462   6.867225
    44  H    6.076120   3.396845   2.147196   1.088189   4.483842
                   31         32         33         34         35
    31  F    0.000000
    32  O    2.693575   0.000000
    33  H    5.688142   5.375224   0.000000
    34  H    2.636735   4.925286   6.291865   0.000000
    35  H    4.844406   6.569182   5.843682   2.658236   0.000000
    36  H    4.550766   6.385835   4.940770   2.960532   1.759840
    37  H    5.900562   8.013184   8.235883   3.264603   2.446707
    38  H    8.737655  11.172342  11.382099   6.261736   5.790810
    39  H    7.919710  10.148516  10.595067   5.349545   4.788793
    40  H    7.068860   9.415688  10.966515   4.897377   5.578114
    41  H    8.674706  11.001715  12.283777   6.404096   6.659720
    42  H    7.767470  10.411681  10.674015   5.718049   5.886995
    43  H    6.682656   9.295263   9.085891   5.164023   5.510213
    44  H    4.907241   7.305493   6.622782   3.563646   3.741718
                   36         37         38         39         40
    36  H    0.000000
    37  H    3.675071   0.000000
    38  H    6.467065   3.590970   0.000000
    39  H    5.873193   2.389883   1.757566   0.000000
    40  H    6.445734   3.342535   2.941265   2.413532   0.000000
    41  H    7.598082   4.243040   2.416781   2.321997   1.632362
    42  H    5.876307   4.306302   2.628225   3.767542   3.605861
    43  H    4.773846   4.966170   4.807474   5.525631   5.312016
    44  H    2.540114   4.310297   5.855225   5.882205   5.916150
                   41         42         43         44
    41  H    0.000000
    42  H    3.930232   0.000000
    43  H    6.120602   2.472207   0.000000
    44  H    7.061115   4.289358   2.472132   0.000000
 Symmetry turned off by external request.
 Stoichiometry    C16H12F10N2O4
 Framework group  C1[X(C16H12F10N2O4)]
 Deg. of freedom   126
 Full point group                 C1      NOp   1
 Rotational constants (GHZ):      0.2854001      0.0662000      0.0612033
 Leave Link  202 at Tue Feb  4 08:46:26 2025, MaxMem=  5368709120 cpu:         0.1
 (Enter /home/k0335/k033513/app/g09/l301.exe)
 Standard basis: 6-31G(d,p) (6D, 7F)
 Ernie: Thresh=  0.10000D-02 Tol=  0.10000D-05 Strict=F.
   540 basis functions,   980 primitive gaussians,   540 cartesian basis functions
   122 alpha electrons      122 beta electrons
       nuclear repulsion energy      3831.3507085157 Hartrees.
 IExCor=20419 DFT=T Ex+Corr=CAM-B3LYP ExCW=0 ScaHFX=  1.000000
 ScaDFX=  1.000000  1.000000  1.000000  0.810000 ScalE2=  1.000000  1.000000
 IRadAn=      0 IRanWt=     -1 IRanGd=            0 ICorTp=0 IEmpDi=  4
  HFx wShort=  0.000000 wLong=  0.330000 cFull=  0.190000 cShort=  0.000000 cLong=  0.460000
  DFx wShort=  0.000000 wLong=  0.330000 cFull=  0.190000 cShort=  0.000000 cLong=  0.460000
 NAtoms=   44 NActive=   44 NUniq=   44 SFac= 1.00D+00 NAtFMM=   60 NAOKFM=F Big=F
 Integral buffers will be    131072 words long.
 Raffenetti 2 integral format.
 Two-electron integral symmetry is turned off.
 Using the following non-standard input for PCM:
 eps=2.05
 --- end of non-standard input.
 ------------------------------------------------------------------------------
 Polarizable Continuum Model (PCM)
 =================================
 Model                : PCM (using non-symmetric T matrix).
 Atomic radii         : UFF (Universal Force Field).
 Polarization charges : Total charges.
 Charge compensation  : None.
 Solution method      : On-the-fly selection.
 Cavity type          : Scaled VdW (van der Waals Surface) (Alpha=1.100).
 Cavity algorithm     : GePol (No added spheres)
                        Default sphere list used, NSphG=   44.
                        Lebedev-Laikov grids with approx.  5.0 points / Ang**2.
                        Smoothing algorithm: Karplus/York (Gamma=1.0000).
                        Polarization charges: spherical gaussians, with
                                              point-specific exponents (IZeta= 3).
                        Self-potential: point-specific (ISelfS= 7).
                        Self-field    : sphere-specific E.n sum rule (ISelfD= 2).
 1st derivatives      : Analytical E(r).r(x)/FMM algorithm (CHGder, D1EAlg=3).
                        Cavity 1st derivative terms included.
 Solvent              : Generic,
                        Eps                           =   2.050000
                        Eps(infinity)                 =   0.000000
                        RSolv                         =   0.000000 Ang.
                        Molar volume                  =   0.000000 cm**3/mol
                        Thermal expansion coefficient =   0.000000 K**-1
                        Absolute temperature          = 298.150000 K
                        Numeral density               =   0.000000 Ang**-3
                        Hydrogen bond acidity         =   0.000000
                        Hydrogen bond basicity        =   0.000000
                        Surface tension at interface  =   0.000000 (cal/mol)*Ang**-2
                        Carbon aromaticity            =   0.000000
                        Electronegative halogenicity  =   0.000000
 ------------------------------------------------------------------------------
 GePol: Number of generator spheres                  =      44
 GePol: Total number of spheres                      =      44
 GePol: Number of exposed spheres                    =      44 (100.00%)
 GePol: Number of points                             =    3435
 GePol: Average weight of points                     =       0.13
 GePol: Minimum weight of points                     =   0.18D-11
 GePol: Maximum weight of points                     =    0.20577
 GePol: Number of points with low weight             =     175
 GePol: Fraction of low-weight points (<1% of avg)   =       5.09%
 GePol: Cavity surface area                          =    438.091 Ang**2
 GePol: Cavity volume                                =    493.914 Ang**3
 Leave Link  301 at Tue Feb  4 08:46:27 2025, MaxMem=  5368709120 cpu:         0.7
 (Enter /home/k0335/k033513/app/g09/l302.exe)
 NPDir=0 NMtPBC=     1 NCelOv=     1 NCel=       1 NClECP=     1 NCelD=      1
         NCelK=      1 NCelE2=     1 NClLst=     1 CellRange=     0.0.
 One-electron integrals computed using PRISM.
 NBasis=   540 RedAO= T EigKep=  4.35D-04  NBF=   540
 NBsUse=   540 1.00D-06 EigRej= -1.00D+00 NBFU=   540
 Precomputing XC quadrature grid using
 IXCGrd= 4 IRadAn=           0 IRanWt=          -1 IRanGd=           0 AccXCQ= 0.00D+00.
 Generated NRdTot=       0 NPtTot=           0 NUsed=           0 NTot=          32
 NSgBfM=   521   521   521   521   521 MxSgAt=    44 MxSgA2=    44.
 Leave Link  302 at Tue Feb  4 08:46:27 2025, MaxMem=  5368709120 cpu:         9.4
 (Enter /home/k0335/k033513/app/g09/l303.exe)
 DipDrv:  MaxL=1.
 Leave Link  303 at Tue Feb  4 08:46:27 2025, MaxMem=  5368709120 cpu:         0.7
 (Enter /home/k0335/k033513/app/g09/l401.exe)
 ExpMin= 1.61D-01 ExpMax= 7.00D+03 ExpMxC= 1.05D+03 IAcc=1 IRadAn=         1 AccDes= 0.00D+00
 Harris functional with IExCor=20419 and IRadAn=       1 diagonalized for initial guess.
 HarFok:  IExCor=20419 AccDes= 0.00D+00 IRadAn=         1 IDoV= 1 UseB2=F ITyADJ=14
 ICtDFT=  3500011 ScaDFX=  1.000000  1.000000  1.000000  1.000000
 FoFCou: FMM=F IPFlag=           0 FMFlag=      100000 FMFlg1=           0
         NFxFlg=           0 DoJE=T BraDBF=F KetDBF=T FulRan=T
         wScrn=  0.000000 ICntrl=     500 IOpCl=  0 I1Cent=   200000004 NGrid=           0
         NMat0=    1 NMatS0=      1 NMatT0=    0 NMatD0=    1 NMtDS0=    0 NMtDT0=    0
 Symmetry not used in FoFCou.
 Harris En= -1960.21185622746    
 JPrj=0 DoOrth=F DoCkMO=F.
 Leave Link  401 at Tue Feb  4 08:46:28 2025, MaxMem=  5368709120 cpu:        11.3
 (Enter /home/k0335/k033513/app/g09/l502.exe)
 Closed shell SCF:
 Using DIIS extrapolation, IDIIS=  1040.
 Two-electron integral symmetry not used.
 IVT=      909638 IEndB=      909638 NGot=  5368709120 MDV=  5368108263
 LenX=  5368108263 LenY=  5367816123
 Requested convergence on RMS density matrix=1.00D-08 within 128 cycles.
 Requested convergence on MAX density matrix=1.00D-06.
 Requested convergence on             energy=1.00D-06.
 No special actions if energy rises.
 Fock matrices will be formed incrementally for  20 cycles.

 Cycle   1  Pass 1  IDiag  1:
 FoFJK:  IHMeth= 1 ICntrl=       0 DoSepK=T KAlg= 0 I1Cent=   0 FoldK=F
 IRaf=         1 NMat=   1 IRICut=       1 DoRegI=T DoRafI=F ISym2E= 0.
 FoFCou: FMM=F IPFlag=           0 FMFlag=      100000 FMFlg1=           0
         NFxFlg=           0 DoJE=T BraDBF=F KetDBF=F FulRan=T
         wScrn=  0.000000 ICntrl=     500 IOpCl=  0 I1Cent=           0 NGrid=           0
         NMat0=    1 NMatS0=      1 NMatT0=    0 NMatD0=    1 NMtDS0=    0 NMtDT0=    0
 Symmetry not used in FoFCou.
 Inv3:  Mode=1 IEnd=    35397675.
 Iteration    1 A*A^-1 deviation from unit magnitude is 5.33D-15 for   3417.
 Iteration    1 A*A^-1 deviation from orthogonality  is 4.00D-15 for   3397   3277.
 Iteration    1 A^-1*A deviation from unit magnitude is 5.55D-15 for   3417.
 Iteration    1 A^-1*A deviation from orthogonality  is 2.05D-15 for   3419   2120.
 E= -2024.47674795190    
 DIIS: error= 5.86D-02 at cycle   1 NSaved=   1.
 NSaved= 1 IEnMin= 1 EnMin= -2024.47674795190     IErMin= 1 ErrMin= 5.86D-02
 ErrMax= 5.86D-02  0.00D+00 EMaxC= 1.00D-01 BMatC= 1.59D+00 BMatP= 1.59D+00
 IDIUse=3 WtCom= 4.14D-01 WtEn= 5.86D-01
 Coeff-Com:  0.100D+01
 Coeff-En:   0.100D+01
 Coeff:      0.100D+01
 Gap=     0.545 Goal=   None    Shift=    0.000
 GapD=    0.545 DampG=2.000 DampE=0.500 DampFc=1.0000 IDamp=-1.
 RMSDP=2.75D-03 MaxDP=1.66D-01              OVMax= 1.20D-01

 Cycle   2  Pass 1  IDiag  1:
 RMSU=  2.74D-03    CP:  9.93D-01
 E= -2024.70979143283     Delta-E=       -0.233043480936 Rises=F Damp=F
 DIIS: error= 1.74D-02 at cycle   2 NSaved=   2.
 NSaved= 2 IEnMin= 2 EnMin= -2024.70979143283     IErMin= 2 ErrMin= 1.74D-02
 ErrMax= 1.74D-02  0.00D+00 EMaxC= 1.00D-01 BMatC= 5.50D-01 BMatP= 1.59D+00
 IDIUse=3 WtCom= 8.26D-01 WtEn= 1.74D-01
 Coeff-Com:  0.345D+00 0.655D+00
 Coeff-En:   0.324D+00 0.676D+00
 Coeff:      0.341D+00 0.659D+00
 Gap=     0.317 Goal=   None    Shift=    0.000
 RMSDP=1.29D-03 MaxDP=9.21D-02 DE=-2.33D-01 OVMax= 8.30D-02

 Cycle   3  Pass 1  IDiag  1:
 RMSU=  8.26D-04    CP:  9.98D-01  6.40D-01
 E= -2024.95564707079     Delta-E=       -0.245855637955 Rises=F Damp=F
 DIIS: error= 9.16D-03 at cycle   3 NSaved=   3.
 NSaved= 3 IEnMin= 3 EnMin= -2024.95564707079     IErMin= 3 ErrMin= 9.16D-03
 ErrMax= 9.16D-03  0.00D+00 EMaxC= 1.00D-01 BMatC= 1.18D-01 BMatP= 5.50D-01
 IDIUse=3 WtCom= 9.08D-01 WtEn= 9.16D-02
 Coeff-Com:  0.690D-01 0.331D+00 0.600D+00
 Coeff-En:   0.000D+00 0.157D+00 0.843D+00
 Coeff:      0.627D-01 0.315D+00 0.622D+00
 Gap=     0.318 Goal=   None    Shift=    0.000
 RMSDP=6.07D-04 MaxDP=4.48D-02 DE=-2.46D-01 OVMax= 6.36D-02

 Cycle   4  Pass 1  IDiag  1:
 RMSU=  3.22D-04    CP:  9.94D-01  7.34D-01  4.67D-01
 E= -2025.02395185455     Delta-E=       -0.068304783767 Rises=F Damp=F
 DIIS: error= 3.03D-03 at cycle   4 NSaved=   4.
 NSaved= 4 IEnMin= 4 EnMin= -2025.02395185455     IErMin= 4 ErrMin= 3.03D-03
 ErrMax= 3.03D-03  0.00D+00 EMaxC= 1.00D-01 BMatC= 1.08D-02 BMatP= 1.18D-01
 IDIUse=3 WtCom= 9.70D-01 WtEn= 3.03D-02
 Coeff-Com:  0.535D-02 0.101D+00 0.317D+00 0.577D+00
 Coeff-En:   0.000D+00 0.000D+00 0.366D-01 0.963D+00
 Coeff:      0.519D-02 0.975D-01 0.309D+00 0.589D+00
 Gap=     0.305 Goal=   None    Shift=    0.000
 RMSDP=1.81D-04 MaxDP=1.48D-02 DE=-6.83D-02 OVMax= 2.11D-02

 Cycle   5  Pass 1  IDiag  1:
 RMSU=  7.95D-05    CP:  9.94D-01  7.33D-01  6.10D-01  6.54D-01
 E= -2025.03155135066     Delta-E=       -0.007599496102 Rises=F Damp=F
 DIIS: error= 8.88D-04 at cycle   5 NSaved=   5.
 NSaved= 5 IEnMin= 5 EnMin= -2025.03155135066     IErMin= 5 ErrMin= 8.88D-04
 ErrMax= 8.88D-04  0.00D+00 EMaxC= 1.00D-01 BMatC= 5.98D-04 BMatP= 1.08D-02
 IDIUse=3 WtCom= 9.91D-01 WtEn= 8.88D-03
 Coeff-Com:  0.412D-03 0.423D-01 0.152D+00 0.332D+00 0.473D+00
 Coeff-En:   0.000D+00 0.000D+00 0.000D+00 0.000D+00 0.100D+01
 Coeff:      0.408D-03 0.419D-01 0.151D+00 0.329D+00 0.478D+00
 Gap=     0.304 Goal=   None    Shift=    0.000
 RMSDP=3.84D-05 MaxDP=3.83D-03 DE=-7.60D-03 OVMax= 5.72D-03

 Cycle   6  Pass 1  IDiag  1:
 RMSU=  2.35D-05    CP:  9.94D-01  7.35D-01  6.07D-01  6.67D-01  6.32D-01
 E= -2025.03198031186     Delta-E=       -0.000428961205 Rises=F Damp=F
 DIIS: error= 9.26D-05 at cycle   6 NSaved=   6.
 NSaved= 6 IEnMin= 6 EnMin= -2025.03198031186     IErMin= 6 ErrMin= 9.26D-05
 ErrMax= 9.26D-05  0.00D+00 EMaxC= 1.00D-01 BMatC= 1.98D-05 BMatP= 5.98D-04
 IDIUse=1 WtCom= 1.00D+00 WtEn= 0.00D+00
 Coeff-Com: -0.526D-03 0.814D-03 0.891D-02 0.296D-01 0.164D+00 0.797D+00
 Coeff:     -0.526D-03 0.814D-03 0.891D-02 0.296D-01 0.164D+00 0.797D+00
 Gap=     0.305 Goal=   None    Shift=    0.000
 RMSDP=1.14D-05 MaxDP=6.05D-04 DE=-4.29D-04 OVMax= 9.90D-04

 Cycle   7  Pass 1  IDiag  1:
 RMSU=  7.19D-06    CP:  9.94D-01  7.35D-01  6.10D-01  6.81D-01  7.18D-01
                    CP:  9.34D-01
 E= -2025.03199644839     Delta-E=       -0.000016136530 Rises=F Damp=F
 DIIS: error= 3.57D-05 at cycle   7 NSaved=   7.
 NSaved= 7 IEnMin= 7 EnMin= -2025.03199644839     IErMin= 7 ErrMin= 3.57D-05
 ErrMax= 3.57D-05  0.00D+00 EMaxC= 1.00D-01 BMatC= 3.04D-06 BMatP= 1.98D-05
 IDIUse=1 WtCom= 1.00D+00 WtEn= 0.00D+00
 Coeff-Com: -0.226D-03-0.401D-02-0.113D-01-0.205D-01 0.332D-01 0.362D+00
 Coeff-Com:  0.640D+00
 Coeff:     -0.226D-03-0.401D-02-0.113D-01-0.205D-01 0.332D-01 0.362D+00
 Coeff:      0.640D+00
 Gap=     0.305 Goal=   None    Shift=    0.000
 RMSDP=3.33D-06 MaxDP=2.49D-04 DE=-1.61D-05 OVMax= 3.45D-04

 Cycle   8  Pass 1  IDiag  1:
 RMSU=  2.35D-06    CP:  9.94D-01  7.35D-01  6.10D-01  6.80D-01  7.32D-01
                    CP:  1.01D+00  8.68D-01
 E= -2025.03199888306     Delta-E=       -0.000002434665 Rises=F Damp=F
 DIIS: error= 1.21D-05 at cycle   8 NSaved=   8.
 NSaved= 8 IEnMin= 8 EnMin= -2025.03199888306     IErMin= 8 ErrMin= 1.21D-05
 ErrMax= 1.21D-05  0.00D+00 EMaxC= 1.00D-01 BMatC= 2.37D-07 BMatP= 3.04D-06
 IDIUse=1 WtCom= 1.00D+00 WtEn= 0.00D+00
 Coeff-Com: -0.309D-04-0.162D-02-0.512D-02-0.112D-01-0.894D-03 0.561D-01
 Coeff-Com:  0.245D+00 0.718D+00
 Coeff:     -0.309D-04-0.162D-02-0.512D-02-0.112D-01-0.894D-03 0.561D-01
 Coeff:      0.245D+00 0.718D+00
 Gap=     0.305 Goal=   None    Shift=    0.000
 RMSDP=1.23D-06 MaxDP=7.02D-05 DE=-2.43D-06 OVMax= 1.29D-04

 Cycle   9  Pass 1  IDiag  1:
 RMSU=  8.29D-07    CP:  9.94D-01  7.35D-01  6.11D-01  6.80D-01  7.39D-01
                    CP:  1.02D+00  9.38D-01  1.04D+00
 E= -2025.03199912122     Delta-E=       -0.000000238168 Rises=F Damp=F
 DIIS: error= 4.65D-06 at cycle   9 NSaved=   9.
 NSaved= 9 IEnMin= 9 EnMin= -2025.03199912122     IErMin= 9 ErrMin= 4.65D-06
 ErrMax= 4.65D-06  0.00D+00 EMaxC= 1.00D-01 BMatC= 2.55D-08 BMatP= 2.37D-07
 IDIUse=1 WtCom= 1.00D+00 WtEn= 0.00D+00
 Coeff-Com:  0.153D-04-0.115D-04-0.157D-03-0.115D-02-0.386D-02-0.354D-01
 Coeff-Com: -0.975D-02 0.208D+00 0.842D+00
 Coeff:      0.153D-04-0.115D-04-0.157D-03-0.115D-02-0.386D-02-0.354D-01
 Coeff:     -0.975D-02 0.208D+00 0.842D+00
 Gap=     0.305 Goal=   None    Shift=    0.000
 RMSDP=5.90D-07 MaxDP=4.53D-05 DE=-2.38D-07 OVMax= 7.69D-05

 Cycle  10  Pass 1  IDiag  1:
 RMSU=  3.04D-07    CP:  9.94D-01  7.35D-01  6.11D-01  6.80D-01  7.42D-01
                    CP:  1.03D+00  9.74D-01  1.16D+00  1.04D+00
 E= -2025.03199915543     Delta-E=       -0.000000034209 Rises=F Damp=F
 DIIS: error= 1.98D-06 at cycle  10 NSaved=  10.
 NSaved=10 IEnMin=10 EnMin= -2025.03199915543     IErMin=10 ErrMin= 1.98D-06
 ErrMax= 1.98D-06  0.00D+00 EMaxC= 1.00D-01 BMatC= 4.67D-09 BMatP= 2.55D-08
 IDIUse=1 WtCom= 1.00D+00 WtEn= 0.00D+00
 Coeff-Com:  0.109D-04 0.189D-03 0.541D-03 0.788D-03-0.111D-02-0.223D-01
 Coeff-Com: -0.315D-01 0.543D-02 0.373D+00 0.675D+00
 Coeff:      0.109D-04 0.189D-03 0.541D-03 0.788D-03-0.111D-02-0.223D-01
 Coeff:     -0.315D-01 0.543D-02 0.373D+00 0.675D+00
 Gap=     0.305 Goal=   None    Shift=    0.000
 RMSDP=1.85D-07 MaxDP=1.38D-05 DE=-3.42D-08 OVMax= 2.96D-05

 Cycle  11  Pass 1  IDiag  1:
 RMSU=  1.21D-07    CP:  9.94D-01  7.35D-01  6.11D-01  6.80D-01  7.43D-01
                    CP:  1.03D+00  9.84D-01  1.19D+00  1.13D+00  8.83D-01
 E= -2025.03199915956     Delta-E=       -0.000000004123 Rises=F Damp=F
 DIIS: error= 9.64D-07 at cycle  11 NSaved=  11.
 NSaved=11 IEnMin=11 EnMin= -2025.03199915956     IErMin=11 ErrMin= 9.64D-07
 ErrMax= 9.64D-07  0.00D+00 EMaxC= 1.00D-01 BMatC= 1.15D-09 BMatP= 4.67D-09
 IDIUse=1 WtCom= 1.00D+00 WtEn= 0.00D+00
 Coeff-Com:  0.421D-05 0.110D-03 0.334D-03 0.618D-03 0.104D-03-0.737D-02
 Coeff-Com: -0.155D-01-0.282D-01 0.835D-01 0.383D+00 0.584D+00
 Coeff:      0.421D-05 0.110D-03 0.334D-03 0.618D-03 0.104D-03-0.737D-02
 Coeff:     -0.155D-01-0.282D-01 0.835D-01 0.383D+00 0.584D+00
 Gap=     0.305 Goal=   None    Shift=    0.000
 RMSDP=7.34D-08 MaxDP=6.54D-06 DE=-4.12D-09 OVMax= 1.24D-05

 Cycle  12  Pass 1  IDiag  1:
 RMSU=  4.39D-08    CP:  9.94D-01  7.35D-01  6.11D-01  6.80D-01  7.43D-01
                    CP:  1.03D+00  9.85D-01  1.20D+00  1.17D+00  9.82D-01
                    CP:  8.06D-01
 E= -2025.03199916069     Delta-E=       -0.000000001133 Rises=F Damp=F
 DIIS: error= 2.56D-07 at cycle  12 NSaved=  12.
 NSaved=12 IEnMin=12 EnMin= -2025.03199916069     IErMin=12 ErrMin= 2.56D-07
 ErrMax= 2.56D-07  0.00D+00 EMaxC= 1.00D-01 BMatC= 6.38D-11 BMatP= 1.15D-09
 IDIUse=1 WtCom= 1.00D+00 WtEn= 0.00D+00
 Coeff-Com: -0.141D-06 0.122D-04 0.410D-04 0.104D-03 0.268D-03 0.588D-03
 Coeff-Com: -0.607D-03-0.106D-01-0.255D-01 0.293D-01 0.185D+00 0.821D+00
 Coeff:     -0.141D-06 0.122D-04 0.410D-04 0.104D-03 0.268D-03 0.588D-03
 Coeff:     -0.607D-03-0.106D-01-0.255D-01 0.293D-01 0.185D+00 0.821D+00
 Gap=     0.305 Goal=   None    Shift=    0.000
 RMSDP=2.46D-08 MaxDP=1.35D-06 DE=-1.13D-09 OVMax= 3.70D-06

 Cycle  13  Pass 1  IDiag  1:
 RMSU=  1.44D-08    CP:  9.94D-01  7.35D-01  6.11D-01  6.80D-01  7.43D-01
                    CP:  1.03D+00  9.86D-01  1.20D+00  1.18D+00  1.02D+00
                    CP:  9.11D-01  1.00D+00
 E= -2025.03199916069     Delta-E=       -0.000000000001 Rises=F Damp=F
 DIIS: error= 8.64D-08 at cycle  13 NSaved=  13.
 NSaved=13 IEnMin=13 EnMin= -2025.03199916069     IErMin=13 ErrMin= 8.64D-08
 ErrMax= 8.64D-08  0.00D+00 EMaxC= 1.00D-01 BMatC= 1.58D-11 BMatP= 6.38D-11
 IDIUse=1 WtCom= 1.00D+00 WtEn= 0.00D+00
 Coeff-Com: -0.632D-06-0.721D-05-0.191D-04-0.216D-04 0.140D-03 0.121D-02
 Coeff-Com:  0.168D-02-0.200D-02-0.236D-01-0.318D-01 0.221D-01 0.420D+00
 Coeff-Com:  0.613D+00
 Coeff:     -0.632D-06-0.721D-05-0.191D-04-0.216D-04 0.140D-03 0.121D-02
 Coeff:      0.168D-02-0.200D-02-0.236D-01-0.318D-01 0.221D-01 0.420D+00
 Coeff:      0.613D+00
 Gap=     0.305 Goal=   None    Shift=    0.000
 RMSDP=8.67D-09 MaxDP=5.09D-07 DE=-9.09D-13 OVMax= 1.12D-06

 Error on total polarization charges =  0.00336
 SCF Done:  E(RCAM-B3LYP) =  -2025.03199916     A.U. after   13 cycles
            NFock= 13  Conv=0.87D-08     -V/T= 2.0076
 KE= 2.009722785455D+03 PE=-1.243422768244D+04 EE= 4.568122189304D+03
 Leave Link  502 at Tue Feb  4 08:47:10 2025, MaxMem=  5368709120 cpu:       930.3
 (Enter /home/k0335/k033513/app/g09/l601.exe)
 Copying SCF densities to generalized density rwf, IOpCl= 0 IROHF=0.

 **********************************************************************

            Population analysis using the SCF density.

 **********************************************************************

 Alpha  occ. eigenvalues --  -24.82753 -24.82508 -24.82359 -24.82172 -24.82053
 Alpha  occ. eigenvalues --  -24.82006 -24.81977 -24.81546 -24.81495 -24.81468
 Alpha  occ. eigenvalues --  -19.31196 -19.28727 -19.24040 -19.22715 -14.45998
 Alpha  occ. eigenvalues --  -14.38680 -10.52125 -10.48689 -10.48222 -10.47549
 Alpha  occ. eigenvalues --  -10.46721 -10.43176 -10.42443 -10.40403 -10.31080
 Alpha  occ. eigenvalues --  -10.28702 -10.28203 -10.27648 -10.27362 -10.27166
 Alpha  occ. eigenvalues --  -10.27047 -10.26844  -1.40030  -1.37793  -1.37358
 Alpha  occ. eigenvalues --   -1.37312  -1.34826  -1.34267  -1.32041  -1.31461
 Alpha  occ. eigenvalues --   -1.30445  -1.30355  -1.20775  -1.19376  -1.14851
 Alpha  occ. eigenvalues --   -1.10878  -1.02878  -0.97319  -0.96930  -0.94104
 Alpha  occ. eigenvalues --   -0.90087  -0.87666  -0.86424  -0.84019  -0.82590
 Alpha  occ. eigenvalues --   -0.78943  -0.76264  -0.75675  -0.74366  -0.73285
 Alpha  occ. eigenvalues --   -0.70776  -0.69773  -0.69350  -0.68841  -0.68088
 Alpha  occ. eigenvalues --   -0.67864  -0.67216  -0.66068  -0.65967  -0.65423
 Alpha  occ. eigenvalues --   -0.64126  -0.63698  -0.63332  -0.62850  -0.61089
 Alpha  occ. eigenvalues --   -0.58635  -0.57380  -0.57242  -0.56293  -0.56239
 Alpha  occ. eigenvalues --   -0.55812  -0.55748  -0.55485  -0.55090  -0.54638
 Alpha  occ. eigenvalues --   -0.54387  -0.54037  -0.53251  -0.53064  -0.52663
 Alpha  occ. eigenvalues --   -0.52472  -0.52167  -0.51851  -0.51522  -0.51176
 Alpha  occ. eigenvalues --   -0.50812  -0.50455  -0.49706  -0.49506  -0.49239
 Alpha  occ. eigenvalues --   -0.49069  -0.48633  -0.48379  -0.47927  -0.47552
 Alpha  occ. eigenvalues --   -0.47457  -0.46492  -0.45779  -0.45195  -0.44504
 Alpha  occ. eigenvalues --   -0.43127  -0.42838  -0.42065  -0.41033  -0.40138
 Alpha  occ. eigenvalues --   -0.39597  -0.36452  -0.35718  -0.33654  -0.31373
 Alpha  occ. eigenvalues --   -0.30619  -0.29752
 Alpha virt. eigenvalues --    0.00724   0.01518   0.02921   0.03886   0.06127
 Alpha virt. eigenvalues --    0.08485   0.10761   0.12588   0.13162   0.13981
 Alpha virt. eigenvalues --    0.14929   0.15116   0.16309   0.16868   0.17246
 Alpha virt. eigenvalues --    0.17972   0.18570   0.20306   0.21199   0.21546
 Alpha virt. eigenvalues --    0.22268   0.22702   0.23323   0.23971   0.24340
 Alpha virt. eigenvalues --    0.24686   0.25610   0.26481   0.27160   0.28545
 Alpha virt. eigenvalues --    0.29203   0.29367   0.29697   0.30183   0.31228
 Alpha virt. eigenvalues --    0.32002   0.33092   0.34280   0.35258   0.35940
 Alpha virt. eigenvalues --    0.37121   0.37550   0.38621   0.39318   0.40409
 Alpha virt. eigenvalues --    0.42213   0.42424   0.44225   0.47977   0.48671
 Alpha virt. eigenvalues --    0.51323   0.51549   0.52632   0.54701   0.55856
 Alpha virt. eigenvalues --    0.56209   0.56760   0.57438   0.58745   0.59310
 Alpha virt. eigenvalues --    0.59863   0.60407   0.61040   0.61412   0.61566
 Alpha virt. eigenvalues --    0.62026   0.62657   0.63391   0.64280   0.64643
 Alpha virt. eigenvalues --    0.65275   0.65738   0.65840   0.67104   0.67717
 Alpha virt. eigenvalues --    0.68090   0.68164   0.68962   0.70398   0.70655
 Alpha virt. eigenvalues --    0.70854   0.72751   0.73438   0.74452   0.75564
 Alpha virt. eigenvalues --    0.76230   0.76963   0.77887   0.79225   0.80079
 Alpha virt. eigenvalues --    0.80898   0.81586   0.82821   0.82992   0.84920
 Alpha virt. eigenvalues --    0.85567   0.85769   0.87452   0.87780   0.88487
 Alpha virt. eigenvalues --    0.89099   0.90224   0.91412   0.92221   0.92553
 Alpha virt. eigenvalues --    0.93407   0.93741   0.94625   0.94754   0.95598
 Alpha virt. eigenvalues --    0.96531   0.97413   0.98012   0.98445   0.99643
 Alpha virt. eigenvalues --    1.00950   1.02410   1.03004   1.03847   1.04159
 Alpha virt. eigenvalues --    1.04729   1.05338   1.06502   1.07912   1.09424
 Alpha virt. eigenvalues --    1.10370   1.10846   1.11752   1.11794   1.13812
 Alpha virt. eigenvalues --    1.14185   1.14861   1.16754   1.18445   1.19710
 Alpha virt. eigenvalues --    1.20028   1.20278   1.20967   1.21262   1.21628
 Alpha virt. eigenvalues --    1.23191   1.24052   1.25766   1.26875   1.27736
 Alpha virt. eigenvalues --    1.28316   1.29744   1.30668   1.31438   1.31938
 Alpha virt. eigenvalues --    1.32733   1.34442   1.34846   1.35453   1.35850
 Alpha virt. eigenvalues --    1.36259   1.37163   1.37789   1.37903   1.39012
 Alpha virt. eigenvalues --    1.39410   1.40217   1.41841   1.42227   1.42418
 Alpha virt. eigenvalues --    1.43331   1.43521   1.43791   1.44408   1.45173
 Alpha virt. eigenvalues --    1.45839   1.47730   1.48043   1.48179   1.48597
 Alpha virt. eigenvalues --    1.48968   1.49326   1.50850   1.51925   1.52305
 Alpha virt. eigenvalues --    1.54121   1.54952   1.55595   1.56397   1.58055
 Alpha virt. eigenvalues --    1.58710   1.60616   1.61549   1.62971   1.63470
 Alpha virt. eigenvalues --    1.64236   1.65790   1.66801   1.67517   1.67871
 Alpha virt. eigenvalues --    1.68674   1.69863   1.70311   1.71834   1.72445
 Alpha virt. eigenvalues --    1.73193   1.74048   1.75378   1.75776   1.76792
 Alpha virt. eigenvalues --    1.77629   1.78483   1.79539   1.80068   1.81908
 Alpha virt. eigenvalues --    1.82269   1.82768   1.83440   1.84182   1.84650
 Alpha virt. eigenvalues --    1.86274   1.86652   1.87360   1.87841   1.88618
 Alpha virt. eigenvalues --    1.89171   1.90162   1.90888   1.90924   1.91612
 Alpha virt. eigenvalues --    1.92242   1.92771   1.93185   1.93786   1.94379
 Alpha virt. eigenvalues --    1.95254   1.96153   1.96496   1.96611   1.97523
 Alpha virt. eigenvalues --    1.97562   1.99315   2.00250   2.00876   2.00990
 Alpha virt. eigenvalues --    2.02025   2.02510   2.02829   2.03832   2.04240
 Alpha virt. eigenvalues --    2.04592   2.05357   2.05940   2.06177   2.06921
 Alpha virt. eigenvalues --    2.08465   2.08849   2.09459   2.10310   2.10399
 Alpha virt. eigenvalues --    2.11316   2.12137   2.13027   2.13241   2.13514
 Alpha virt. eigenvalues --    2.14967   2.15636   2.16670   2.17336   2.17883
 Alpha virt. eigenvalues --    2.18289   2.20235   2.20605   2.21931   2.22508
 Alpha virt. eigenvalues --    2.22905   2.23220   2.23377   2.24794   2.25867
 Alpha virt. eigenvalues --    2.26466   2.27458   2.29702   2.30933   2.32192
 Alpha virt. eigenvalues --    2.32300   2.32829   2.34015   2.35049   2.35736
 Alpha virt. eigenvalues --    2.36754   2.37380   2.37614   2.39171   2.39486
 Alpha virt. eigenvalues --    2.39961   2.40272   2.40650   2.42033   2.42646
 Alpha virt. eigenvalues --    2.43436   2.44552   2.46731   2.47482   2.48207
 Alpha virt. eigenvalues --    2.48456   2.49085   2.49765   2.51536   2.53145
 Alpha virt. eigenvalues --    2.54044   2.54224   2.57550   2.57931   2.58505
 Alpha virt. eigenvalues --    2.59716   2.60560   2.61182   2.62249   2.63137
 Alpha virt. eigenvalues --    2.63288   2.64081   2.65542   2.67228   2.67942
 Alpha virt. eigenvalues --    2.68847   2.69658   2.70446   2.71422   2.71924
 Alpha virt. eigenvalues --    2.72747   2.73462   2.74576   2.75770   2.76664
 Alpha virt. eigenvalues --    2.78161   2.79660   2.79833   2.81112   2.81446
 Alpha virt. eigenvalues --    2.82318   2.82373   2.83258   2.85569   2.86211
 Alpha virt. eigenvalues --    2.87858   2.88155   2.90036   2.91843   2.92278
 Alpha virt. eigenvalues --    2.92836   2.93845   2.94840   2.96060   2.98889
 Alpha virt. eigenvalues --    2.99935   3.00078   3.02854   3.04053   3.04966
 Alpha virt. eigenvalues --    3.07301   3.09171   3.10991   3.11425   3.12286
 Alpha virt. eigenvalues --    3.12818   3.13654   3.16422   3.17926   3.19560
 Alpha virt. eigenvalues --    3.20930   3.23505   3.25903   3.26472   3.29238
 Alpha virt. eigenvalues --    3.30172   3.31102   3.33793   3.34399   3.34658
 Alpha virt. eigenvalues --    3.34922   3.37277   3.38838   3.47230   3.49273
 Alpha virt. eigenvalues --    3.50077   3.52165   3.53566   3.57695   3.62529
 Alpha virt. eigenvalues --    3.90060   4.04008   4.04240   4.11679   4.19885
 Alpha virt. eigenvalues --    4.21592   4.24098   4.25579   4.27445   4.30020
 Alpha virt. eigenvalues --    4.39293   4.42500   4.45724   4.49064   4.51017
 Alpha virt. eigenvalues --    4.56872   4.57639   4.61884   4.66784   4.75677
 Alpha virt. eigenvalues --    4.76919   4.88047   4.90878   4.98718   5.04782
 Alpha virt. eigenvalues --    5.21596   5.29519   5.47372   5.59906   5.74621
 Alpha virt. eigenvalues --    6.00034   6.79571   7.25667
          Condensed to atoms (all electrons):
               1          2          3          4          5          6
     1  F    9.089991   0.272260  -0.041725  -0.031396   0.000337   0.000030
     2  C    0.272260   4.432107   0.303031   0.192895  -0.021732  -0.022640
     3  F   -0.041725   0.303031   9.047292  -0.021335  -0.000583  -0.000180
     4  C   -0.031396   0.192895  -0.021335   4.744395   0.253596   0.280203
     5  F    0.000337  -0.021732  -0.000583   0.253596   9.114155  -0.041686
     6  F    0.000030  -0.022640  -0.000180   0.280203  -0.041686   9.065435
     7  C   -0.002331  -0.082626   0.002588   0.150436  -0.036881  -0.037226
     8  F   -0.000001   0.001901  -0.000001  -0.007603  -0.001858  -0.000327
     9  C    0.010838  -0.003172   0.000035  -0.027063   0.001978   0.007139
    10  F   -0.000136  -0.000783   0.000000   0.001540   0.000001  -0.004627
    11  C    0.000079  -0.000245   0.000000   0.003002  -0.000032   0.000049
    12  O    0.000000  -0.000001   0.000000  -0.000062   0.000000   0.000000
    13  O    0.000000   0.000001   0.000000  -0.000105   0.000000   0.000000
    14  F   -0.009396   0.009238   0.000000  -0.000691  -0.000001  -0.000302
    15  C    0.001837  -0.010764   0.000755  -0.045148   0.005437   0.002075
    16  F   -0.000026   0.000532  -0.000003   0.001626   0.000000  -0.000001
    17  C    0.000034   0.002132   0.000031  -0.005830   0.001577   0.000014
    18  F    0.000000   0.000491  -0.000009   0.001091  -0.001800   0.000000
    19  C    0.000001   0.000018   0.000000   0.000566  -0.000059  -0.000001
    20  N    0.000000   0.000000   0.000000   0.000009   0.000000   0.000000
    21  C    0.000000   0.000000   0.000000   0.000000   0.000000   0.000000
    22  C    0.000000   0.000000   0.000000   0.000000   0.000000   0.000000
    23  C    0.000000   0.000000   0.000000   0.000000   0.000000   0.000000
    24  C    0.000000   0.000000   0.000000   0.000000   0.000000   0.000000
    25  C    0.000000   0.000000   0.000000   0.000000   0.000000   0.000000
    26  N    0.000000   0.000000   0.000000   0.000000   0.000000   0.000000
    27  C    0.000000   0.000000   0.000000   0.000000   0.000000   0.000000
    28  C    0.000000   0.000000   0.000000   0.000000   0.000000   0.000000
    29  C    0.000000   0.000000   0.000000   0.000000   0.000000   0.000000
    30  O    0.000000   0.000005   0.000000   0.000159   0.000000   0.000000
    31  F    0.000000   0.000076   0.000000   0.000020  -0.000003   0.000000
    32  O   -0.051399   0.184746  -0.041020  -0.034155  -0.001384   0.000776
    33  H    0.000000   0.000000   0.000000   0.000006   0.000000   0.000000
    34  H    0.000000   0.000000   0.000000  -0.000002   0.000000   0.000000
    35  H    0.000000   0.000000   0.000000   0.000000   0.000000   0.000000
    36  H    0.000000   0.000000   0.000000   0.000000   0.000000   0.000000
    37  H    0.000000   0.000000   0.000000   0.000000   0.000000   0.000000
    38  H    0.000000   0.000000   0.000000   0.000000   0.000000   0.000000
[...]
    21  C   -0.023973   0.223161   4.913508   0.337732  -0.036256   0.005646
    22  C    0.003455  -0.043482   0.337732   4.788337   0.525617  -0.023502
    23  C   -0.000176   0.000522  -0.036256   0.525617   4.982182   0.516619
    24  C    0.000003  -0.000141   0.005646  -0.023502   0.516619   4.792492
    25  C    0.000000   0.000001  -0.000196   0.006093  -0.047474   0.343155
    26  N    0.000000   0.000000   0.000000  -0.000118   0.002265  -0.057437
    27  C    0.000000   0.000022   0.000631  -0.039285  -0.040781   0.550095
    28  C    0.000005   0.000029   0.005027  -0.018186  -0.052149  -0.022569
    29  C    0.000919  -0.003464  -0.071189   0.540333  -0.046265  -0.039002
    30  O    0.562268  -0.098496   0.000747   0.000494  -0.000006   0.000000
    31  F   -0.028964   0.000939  -0.000030   0.000001   0.000000   0.000000
    32  O    0.002417  -0.000029   0.000000   0.000000   0.000000   0.000000
    33  H   -0.000005   0.000000   0.000000   0.000000   0.000000   0.000000
    34  H   -0.027340   0.340817  -0.028715   0.002494   0.000810  -0.000035
    35  H   -0.000887  -0.041897   0.384195  -0.035992  -0.005080   0.000088
    36  H   -0.002656  -0.044605   0.388199  -0.025137   0.000327  -0.000150
    37  H   -0.000003   0.000103  -0.009614  -0.044095   0.367068  -0.043875
    38  H    0.000000   0.000000   0.000005  -0.000289  -0.001427  -0.021008
    39  H    0.000000   0.000000  -0.000008   0.000224  -0.003483  -0.056076
    40  H    0.000000   0.000000   0.000000  -0.000017   0.000314   0.001589
    41  H    0.000000   0.000000   0.000000   0.000003  -0.000185   0.005364
    42  H    0.000000   0.000000   0.000006   0.000379   0.006287  -0.040698
    43  H    0.000000   0.000000  -0.000178   0.003201   0.001274   0.003121
    44  H    0.000081   0.006128  -0.009351  -0.045403   0.005463   0.000479
              25         26         27         28         29         30
     1  F    0.000000   0.000000   0.000000   0.000000   0.000000   0.000000
     2  C    0.000000   0.000000   0.000000   0.000000   0.000000   0.000000
     3  F    0.000000   0.000000   0.000000   0.000000   0.000000   0.000000
     4  C    0.000000   0.000000   0.000000   0.000000   0.000000  -0.000008
     5  F    0.000000   0.000000   0.000000   0.000000   0.000000   0.000000
     6  F    0.000000   0.000000   0.000000   0.000000   0.000000   0.000000
     7  C    0.000000   0.000000   0.000000   0.000000   0.000000  -0.000928
     8  F    0.000000   0.000000   0.000000   0.000000   0.000000  -0.000060
     9  C    0.000000   0.000000   0.000000   0.000000   0.000000   0.000016
    10  F    0.000000   0.000000   0.000000   0.000000   0.000000   0.000000
    11  C    0.000000   0.000000   0.000000   0.000000   0.000000   0.002852
    12  O    0.000000   0.000000   0.000000   0.000000   0.000000  -0.000029
    13  O    0.000000   0.000000   0.000000   0.000000   0.000000  -0.001854
    14  F    0.000000   0.000000   0.000000   0.000000   0.000000   0.000000
    15  C    0.000000   0.000000   0.000000   0.000000   0.000000   0.005100
    16  F    0.000000   0.000000   0.000000   0.000000   0.000000  -0.000813
    17  C    0.000000   0.000000   0.000000   0.000000  -0.000062  -0.062460
    18  F    0.000000   0.000000   0.000000   0.000000  -0.000004   0.000883
    19  C    0.000000   0.000000   0.000000   0.000005   0.000919   0.562268
    20  N    0.000001   0.000000   0.000022   0.000029  -0.003464  -0.098496
    21  C   -0.000196   0.000000   0.000631   0.005027  -0.071189   0.000747
    22  C    0.006093  -0.000118  -0.039285  -0.018186   0.540333   0.000494
    23  C   -0.047474   0.002265  -0.040781  -0.052149  -0.046265  -0.000006
    24  C    0.343155  -0.057437   0.550095  -0.022569  -0.039002   0.000000
    25  C    4.880957   0.301364  -0.063505   0.006108   0.000614   0.000000
    26  N    0.301364   6.760621  -0.005917   0.000311   0.000006   0.000000
    27  C   -0.063505  -0.005917   4.890207   0.513372  -0.043174   0.000000
    28  C    0.006108   0.000311   0.513372   4.843515   0.531891   0.000000
    29  C    0.000614   0.000006  -0.043174   0.531891   4.897640   0.000026
    30  O    0.000000   0.000000   0.000000   0.000000   0.000026   8.102742
    31  F    0.000000   0.000000   0.000000   0.000000   0.000000  -0.002022
    32  O    0.000000   0.000000   0.000000   0.000000   0.000000  -0.000019
    33  H    0.000000   0.000000   0.000000   0.000000   0.000000   0.000034
    34  H    0.000000   0.000000  -0.000016  -0.000111   0.001561   0.002654
    35  H   -0.000001   0.000000   0.000005  -0.000157   0.005660   0.000991
    36  H    0.000002   0.000000   0.000020  -0.000067  -0.004904   0.011887
    37  H   -0.009378   0.000064   0.006256   0.000050   0.006018   0.000000
    38  H    0.378125  -0.040229  -0.005079  -0.000190   0.000036   0.000000
    39  H    0.384603  -0.044637   0.006843  -0.000134   0.000013   0.000000
    40  H   -0.042508   0.345396  -0.000198  -0.000152  -0.000009   0.000000
    41  H   -0.030448   0.342010   0.000441   0.000005   0.000000   0.000000
    42  H   -0.011748   0.017309   0.373592  -0.042436   0.004480   0.000000
    43  H   -0.000183  -0.000001  -0.035480   0.371212  -0.036941   0.000000
    44  H    0.000009   0.000000   0.004244  -0.037600   0.374094  -0.000056
              31         32         33         34         35         36
     1  F    0.000000  -0.048328   0.000000   0.000000   0.000000   0.000000
     2  C    0.000127   0.201083   0.000000  -0.000002   0.000000   0.000000
     3  F    0.000000  -0.046108   0.000000   0.000000   0.000000   0.000000
     4  C   -0.000024  -0.041276   0.000003  -0.000015   0.000000   0.000000
     5  F    0.000000  -0.000554   0.000000   0.000008   0.000000   0.000000
     6  F    0.000000   0.000924   0.000000   0.000000   0.000000   0.000000
     7  C    0.002062  -0.023604  -0.000289  -0.000053  -0.000039   0.000005
     8  F    0.000007   0.000942   0.000002   0.002890   0.000232  -0.000005
     9  C   -0.000013  -0.000837   0.008279   0.000020   0.000002   0.000000
    10  F    0.000000  -0.000008  -0.000113   0.000000   0.000000   0.000000
    11  C    0.000004   0.000162  -0.012499  -0.000005   0.000090  -0.000014
    12  O    0.000000  -0.000002   0.286015   0.000000   0.000001   0.000000
    13  O    0.000000  -0.000001   0.004649  -0.000019   0.001957  -0.000026
    14  F    0.000000  -0.000882  -0.000148   0.000000   0.000000   0.000000
    15  C   -0.026295   0.164722  -0.000014   0.000646   0.000045  -0.000032
    16  F   -0.000138  -0.043753  -0.000019  -0.000002   0.000000   0.000001
    17  C    0.266194  -0.030687   0.000001  -0.004425  -0.000243   0.000562
    18  F   -0.034079  -0.000835   0.000000   0.015220  -0.000003  -0.000016
    19  C   -0.028964   0.002417  -0.000005  -0.027340  -0.000887  -0.002656
    20  N    0.000939  -0.000029   0.000000   0.340817  -0.041897  -0.044605
    21  C   -0.000030   0.000000   0.000000  -0.028715   0.384195   0.388199
    22  C    0.000001   0.000000   0.000000   0.002494  -0.035992  -0.025137
    23  C    0.000000   0.000000   0.000000   0.000810  -0.005080   0.000327
    24  C    0.000000   0.000000   0.000000  -0.000035   0.000088  -0.000150
    25  C    0.000000   0.000000   0.000000   0.000000  -0.000001   0.000002
    26  N    0.000000   0.000000   0.000000   0.000000   0.000000   0.000000
    27  C    0.000000   0.000000   0.000000  -0.000016   0.000005   0.000020
    28  C    0.000000   0.000000   0.000000  -0.000111  -0.000157  -0.000067
    29  C    0.000000   0.000000   0.000000   0.001561   0.005660  -0.004904
    30  O   -0.002022  -0.000019   0.000034   0.002654   0.000991   0.011887
    31  F    9.088857   0.000383   0.000000   0.000277   0.000000  -0.000003
    32  O    0.000383   8.352134   0.000000   0.000000   0.000000   0.000000
    33  H    0.000000   0.000000   0.353508   0.000000   0.000000   0.000000
    34  H    0.000277   0.000000   0.000000   0.398548  -0.000030   0.004084
    35  H    0.000000   0.000000   0.000000  -0.000030   0.578580  -0.033104
    36  H   -0.000003   0.000000   0.000000   0.004084  -0.033104   0.544321
    37  H    0.000000   0.000000   0.000000   0.000027   0.006946   0.000037
    38  H    0.000000   0.000000   0.000000   0.000000   0.000000   0.000000
    39  H    0.000000   0.000000   0.000000   0.000000  -0.000004   0.000000
    40  H    0.000000   0.000000   0.000000   0.000000   0.000000   0.000000
    41  H    0.000000   0.000000   0.000000   0.000000   0.000000   0.000000
    42  H    0.000000   0.000000   0.000000   0.000000   0.000000   0.000000
    43  H    0.000000   0.000000   0.000000   0.000002   0.000002  -0.000001
    44  H    0.000000   0.000000   0.000000   0.000356   0.000207   0.000786
              37         38         39         40         41         42
     1  F    0.000000   0.000000   0.000000   0.000000   0.000000   0.000000
     2  C    0.000000   0.000000   0.000000   0.000000   0.000000   0.000000
     3  F    0.000000   0.000000   0.000000   0.000000   0.000000   0.000000
     4  C    0.000000   0.000000   0.000000   0.000000   0.000000   0.000000
     5  F    0.000000   0.000000   0.000000   0.000000   0.000000   0.000000
     6  F    0.000000   0.000000   0.000000   0.000000   0.000000   0.000000
     7  C    0.000000   0.000000   0.000000   0.000000   0.000000   0.000000
     8  F    0.000000   0.000000   0.000000   0.000000   0.000000   0.000000
     9  C    0.000000   0.000000   0.000000   0.000000   0.000000   0.000000
    10  F    0.000000   0.000000   0.000000   0.000000   0.000000   0.000000
    11  C    0.000000   0.000000   0.000000   0.000000   0.000000   0.000000
    12  O    0.000000   0.000000   0.000000   0.000000   0.000000   0.000000
    13  O    0.000000   0.000000   0.000000   0.000000   0.000000   0.000000
    14  F    0.000000   0.000000   0.000000   0.000000   0.000000   0.000000
    15  C    0.000000   0.000000   0.000000   0.000000   0.000000   0.000000
    16  F    0.000000   0.000000   0.000000   0.000000   0.000000   0.000000
    17  C    0.000000   0.000000   0.000000   0.000000   0.000000   0.000000
    18  F    0.000000   0.000000   0.000000   0.000000   0.000000   0.000000
    19  C   -0.000003   0.000000   0.000000   0.000000   0.000000   0.000000
    20  N    0.000103   0.000000   0.000000   0.000000   0.000000   0.000000
    21  C   -0.009614   0.000005  -0.000008   0.000000   0.000000   0.000006
    22  C   -0.044095  -0.000289   0.000224  -0.000017   0.000003   0.000379
    23  C    0.367068  -0.001427  -0.003483   0.000314  -0.000185   0.006287
    24  C   -0.043875  -0.021008  -0.056076   0.001589   0.005364  -0.040698
    25  C   -0.009378   0.378125   0.384603  -0.042508  -0.030448  -0.011748
    26  N    0.000064  -0.040229  -0.044637   0.345396   0.342010   0.017309
    27  C    0.006256  -0.005079   0.006843  -0.000198   0.000441   0.373592
    28  C    0.000050  -0.000190  -0.000134  -0.000152   0.000005  -0.042436
    29  C    0.006018   0.000036   0.000013  -0.000009   0.000000   0.004480
    30  O    0.000000   0.000000   0.000000   0.000000   0.000000   0.000000
    31  F    0.000000   0.000000   0.000000   0.000000   0.000000   0.000000
    32  O    0.000000   0.000000   0.000000   0.000000   0.000000   0.000000
    33  H    0.000000   0.000000   0.000000   0.000000   0.000000   0.000000
    34  H    0.000027   0.000000   0.000000   0.000000   0.000000   0.000000
    35  H    0.006946   0.000000  -0.000004   0.000000   0.000000   0.000000
    36  H    0.000037   0.000000   0.000000   0.000000   0.000000   0.000000
    37  H    0.626173   0.000379   0.006987  -0.000011  -0.000011  -0.000148
    38  H    0.000379   0.604301  -0.044052   0.006615  -0.004862   0.000194
    39  H    0.006987  -0.044052   0.669199  -0.006115  -0.002478   0.000498
    40  H   -0.000011   0.006615  -0.006115   0.477973  -0.031242  -0.000620
    41  H   -0.000011  -0.004862  -0.002478  -0.031242   0.470926  -0.000359
    42  H   -0.000148   0.000194   0.000498  -0.000620  -0.000359   0.586592
    43  H    0.000018   0.000002   0.000002   0.000002   0.000000  -0.004919
    44  H   -0.000160   0.000000   0.000000   0.000000   0.000000  -0.000147
              43         44
     1  F    0.000000   0.000000
     2  C    0.000000   0.000000
     3  F    0.000000   0.000000
     4  C    0.000000   0.000000
     5  F    0.000000   0.000000
     6  F    0.000000   0.000000
     7  C    0.000000   0.000000
     8  F    0.000000   0.000000
     9  C    0.000000   0.000000
    10  F    0.000000   0.000000
    11  C    0.000000   0.000000
    12  O    0.000000   0.000000
    13  O    0.000000   0.000000
    14  F    0.000000   0.000000
    15  C    0.000000   0.000001
    16  F    0.000000   0.000000
    17  C    0.000000   0.000092
    18  F    0.000000  -0.000004
    19  C    0.000000   0.000081
    20  N    0.000000   0.006128
    21  C   -0.000178  -0.009351
    22  C    0.003201  -0.045403
    23  C    0.001274   0.005463
    24  C    0.003121   0.000479
    25  C   -0.000183   0.000009
    26  N   -0.000001   0.000000
    27  C   -0.035480   0.004244
    28  C    0.371212  -0.037600
    29  C   -0.036941   0.374094
    30  O    0.000000  -0.000056
    31  F    0.000000   0.000000
    32  O    0.000000   0.000000
    33  H    0.000000   0.000000
    34  H    0.000002   0.000356
    35  H    0.000002   0.000207
    36  H   -0.000001   0.000786
    37  H    0.000018  -0.000160
    38  H    0.000002   0.000000
    39  H    0.000002   0.000000
    40  H    0.000002   0.000000
    41  H    0.000000   0.000000
    42  H   -0.004919  -0.000147
    43  H    0.604965  -0.005210
    44  H   -0.005210   0.608794
 Mulliken charges:
               1
     1  F   -0.243383
     2  C    0.743644
     3  F   -0.239838
     4  C    0.532822
     5  F   -0.259058
     6  F   -0.249763
     7  C    0.129918
     8  F   -0.289703
     9  C    0.614825
    10  F   -0.273692
    11  C    0.539802
    12  O   -0.461648
    13  O   -0.440029
    14  F   -0.266950
    15  C    0.496122
    16  F   -0.266111
    17  C    0.576864
    18  F   -0.289556
    19  C    0.545368
    20  N   -0.533058
    21  C   -0.083182
    22  C    0.067225
    23  C   -0.175466
    24  C    0.085843
    25  C   -0.095590
    26  N   -0.621009
    27  C   -0.112294
    28  C   -0.097775
    29  C   -0.118276
    30  O   -0.523943
    31  F   -0.267283
    32  O   -0.485843
    33  H    0.360595
    34  H    0.290355
    35  H    0.138436
    36  H    0.160487
    37  H    0.087169
    38  H    0.127479
    39  H    0.088620
    40  H    0.248985
    41  H    0.250836
    42  H    0.111739
    43  H    0.099113
    44  H    0.097198
 Sum of Mulliken charges =   0.00000
 Mulliken charges with hydrogens summed into heavy atoms:
               1
     1  F   -0.243383
     2  C    0.743644
     3  F   -0.239838
     4  C    0.532822
     5  F   -0.259058
     6  F   -0.249763
     7  C    0.129918
     8  F   -0.289703
     9  C    0.614825
    10  F   -0.273692
    11  C    0.539802
    12  O   -0.101053
    13  O   -0.440029
    14  F   -0.266950
    15  C    0.496122
    16  F   -0.266111
    17  C    0.576864
    18  F   -0.289556
    19  C    0.545368
    20  N   -0.242703
    21  C    0.215742
    22  C    0.067225
    23  C   -0.088297
    24  C    0.085843
    25  C    0.120510
    26  N   -0.121187
    27  C   -0.000555
    28  C    0.001337
    29  C   -0.021078
    30  O   -0.523943
    31  F   -0.267283
    32  O   -0.485843
 Electronic spatial extent (au):  <R**2>=          17109.2630
 Charge=              0.0000 electrons
 Dipole moment (field-independent basis, Debye):
    X=              2.4546    Y=              2.3081    Z=              2.7775  Tot=              4.3666
 Quadrupole moment (field-independent basis, Debye-Ang):
   XX=           -169.9706   YY=           -169.3130   ZZ=           -178.4131
   XY=             -7.0812   XZ=              6.0522   YZ=              3.8466
 Traceless Quadrupole moment (field-independent basis, Debye-Ang):
   XX=              2.5950   YY=              3.2526   ZZ=             -5.8476
   XY=             -7.0812   XZ=              6.0522   YZ=              3.8466
 Octapole moment (field-independent basis, Debye-Ang**2):
  XXX=            510.3671  YYY=            275.9941  ZZZ=            110.9342  XYY=            160.6378
  XXY=            157.7218  XXZ=             88.8879  XZZ=            211.3962  YZZ=             75.2912
  YYZ=             41.5700  XYZ=             34.6788
 Hexadecapole moment (field-independent basis, Debye-Ang**3):
 XXXX=         -13777.1110 YYYY=          -3933.7853 ZZZZ=          -2193.3289 XXXY=          -2346.7171
 XXXZ=           1048.3907 YYYX=          -2265.9461 YYYZ=            124.8113 ZZZX=            580.7910
 ZZZY=            167.6315 XXYY=          -2696.6166 XXZZ=          -2517.8923 YYZZ=          -1022.8836
 XXYZ=            173.2191 YYXZ=            266.1214 ZZXY=           -727.3081
 N-N= 3.864478053531D+03 E-N=-1.250084270558D+04  KE= 2.010164615919D+03
 No NMR shielding tensors so no spin-rotation constants.
 Leave Link  601 at Tue Feb  4 09:20:05 2025, MaxMem=  5368709120 cpu:         2.5
 (Enter /home/k0335/k033513/app/g09/l9999.exe)
 1\1\GINC-C18U06N2\FOpt\RCAM-B3LYP\6-31G(d,p)\C16H12F10N2O4\K033513\04-
 Feb-2025\0\\#p CAM-B3LYP/6-31G(d,p) opt SCRF=(PCM,Solvent=Generic,Read
 ) NoSymm out=wfn\\Title mXD0_neu\\0,1\F,-5.3211199606,-3.2831832627,0.
 5715795967\C,-3.9994459942,-3.393385569,0.3832943075\F,-3.6817154985,-
 4.6849318038,0.4098941443\C,-3.2335051025,-2.5838533725,1.4469936692\F
 ,-2.047611129,-3.1737577716,1.667999964\F,-3.9109747832,-2.5136190958,
 2.5985016003\C,-2.9788126315,-1.2195841985,0.7623366177\F,-1.722817711
 9,-0.7863776052,1.0665948692\C,-3.9699164053,-0.1294337098,1.211685274
 1\F,-3.739438605,0.1125446092,2.5224527739\C,-3.7877939075,1.212263911
 5,0.4788562932\O,-4.9322023267,1.6789679695,0.0052469968\O,-2.71538865
 45,1.7500810844,0.4126090823\F,-5.2193954535,-0.6115224347,1.068777400
 1\C,-3.1110924877,-1.5728328207,-0.7473181008\F,-3.9767740512,-0.71681
 51138,-1.3537880891\C,-1.7828918645,-1.5539295371,-1.5312334004\F,-0.9
 399514655,-2.40908954,-0.8886481256\C,-1.1557943083,-0.1565835567,-1.7
 16264297\N,0.0392929472,0.005907797,-1.1328091395\C,0.7293048482,1.287
 8770961,-1.150873076\C,2.2280308848,1.1157813178,-1.1650948539\C,3.018
 1355556,1.7677623957,-0.2232201986\C,4.4073407733,1.6451205836,-0.2285
 799204\C,5.2409098054,2.4031588624,0.7814573162\N,6.4693750636,1.69284
 84877,1.1191380223\C,5.0044558911,0.8344807734,-1.1907022028\C,4.22388
 73743,0.1699158124,-2.1307290544\C,2.8428399185,0.3104105322,-2.124097
 638\O,-1.7539372904,0.6669807779,-2.3842875917\F,-2.0413920501,-2.0592
 790767,-2.7529178971\O,-3.6311477676,-2.8661330444,-0.8346207781\H,-4.
 7456950346,2.5244456813,-0.4375698024\H,0.397209085,-0.734004226,-0.54
 73265322\H,0.4203913666,1.8844401965,-0.2859604109\H,0.3801238715,1.81
 35889657,-2.0429666184\H,2.5407810092,2.3841612987,0.5351280388\H,5.53
 04605772,3.366922915,0.3448831987\H,4.6060765399,2.6417677281,1.649463
 2103\H,6.2511900006,0.8518441817,1.6453337791\H,7.0523138327,2.2708277
 673,1.7154186437\H,6.0830183194,0.7258633671,-1.184476431\H,4.69800615
 58,-0.4603591601,-2.8765196418\H,2.2356706641,-0.2092912134,-2.8591599
 982\\Version=ES64L-G09RevD.01\HF=-2025.0670537\RMSD=5.951e-09\RMSF=1.3
 70e-06\Dipole=0.9657059,0.9080825,1.0927497\Quadrupole=1.9292939,2.418
 226,-4.3475199,-5.2646788,4.4996569,2.8598655\PG=C01 [X(C16H12F10N2O4)
 ]\\@

 Writing a WFN file to "cytopopt/mXD0/mXD0_neu.wfn"


 IT TAKES GREATER CHARACTER TO CARRY OFF GOOD FORTUNE THAN BAD.
                     FRENCH PROVERB.
 Job cpu time:       0 days 12 hours 32 minutes 21.0 seconds.
 File lengths (MBytes):  RWF=    554 Int=      0 D2E=      0 Chk=     25 Scr=      1
 Normal termination of Gaussian 09 at Tue Feb  4 09:20:06 2025.
