 Entering Gaussian System, Link 0=g09
 Initial command:
 /home/k0335/k033513/app/g09/l1.exe "/home/k0335/k033513/app/g09/scratch/Gau-556956.inp" -scrdir="/home/k0335/k033513/app/g09/scratch/"
 Default is to use a total of  36 processors:
                               36 via shared-memory
                                1 via Linda
 Entering Link 1 = /home/k0335/k033513/app/g09/l1.exe PID=    556957.
  
 Copyright (c) 1988,1990,1992,1993,1995,1998,2003,2009,2013,
            Gaussian, Inc.  All Rights Reserved.
  
 This is part of the Gaussian(R) 09 program.  It is based on
 the Gaussian(R) 03 system (copyright 2003, Gaussian, Inc.),
 the Gaussian(R) 98 system (copyright 1998, Gaussian, Inc.),
 the Gaussian(R) 94 system (copyright 1995, Gaussian, Inc.),
 the Gaussian 92(TM) system (copyright 1992, Gaussian, Inc.),
 the Gaussian 90(TM) system (copyright 1990, Gaussian, Inc.),
 the Gaussian 88(TM) system (copyright 1988, Gaussian, Inc.),
 the Gaussian 86(TM) system (copyright 1986, Carnegie Mellon
 University), and the Gaussian 82(TM) system (copyright 1983,
 Carnegie Mellon University). Gaussian is a federally registered
 trademark of Gaussian, Inc.
  
 This software contains proprietary and confidential information,
 including trade secrets, belonging to Gaussian, Inc.
  
 This software is provided under written license and may be
 used, copied, transmitted, or stored only in accord with that
 written license.
  
 The following legend is applicable only to US Government
 contracts under FAR:
  
                    RESTRICTED RIGHTS LEGEND
  
 Use, reproduction and disclosure by the US Government is
 subject to restrictions as set forth in subparagraphs (a)
 and (c) of the Commercial Computer Software - Restricted
 Rights clause in FAR 52.227-19.
  
 Gaussian, Inc.
 340 Quinnipiac St., Bldg. 40, Wallingford CT 06492
  
  
 ---------------------------------------------------------------
 Warning -- This program may not be used in any manner that
 competes with the business of Gaussian, Inc. or will provide
 assistance to any competitor of Gaussian, Inc.  The licensee
 of this program is prohibited from giving any competitor of
 Gaussian, Inc. access to this program.  By using this program,
 the user acknowledges that Gaussian, Inc. is engaged in the
 business of creating and licensing software in the field of
 computational chemistry and represents and warrants to the
 licensee that it is not a competitor of Gaussian, Inc. and that
 it will not use this program in any manner prohibited above.
 ---------------------------------------------------------------
  

 Cite this work as:
 Gaussian 09, Revision D.01,
 M. J. Frisch, G. W. Trucks, H. B. Schlegel, G. E. Scuseria, 
 M. A. Robb, J. R. Cheeseman, G. Scalmani, V. Barone, B. Mennucci, 
 G. A. Petersson, H. Nakatsuji, M. Caricato, X. Li, H. P. Hratchian, 
 A. F. Izmaylov, J. Bloino, G. Zheng, J. L. Sonnenberg, M. Hada, 
 M. Ehara, K. Toyota, R. Fukuda, J. Hasegawa, M. Ishida, T. Nakajima, 
 Y. Honda, O. Kitao, H. Nakai, T. Vreven, J. A. Montgomery, Jr., 
 J. E. Peralta, F. Ogliaro, M. Bearpark, J. J. Heyd, E. Brothers, 
 K. N. Kudin, V. N. Staroverov, T. Keith, R. Kobayashi, J. Normand, 
 K. Raghavachari, A. Rendell, J. C. Burant, S. S. Iyengar, J. Tomasi, 
 M. Cossi, N. Rega, J. M. Millam, M. Klene, J. E. Knox, J. B. Cross, 
 V. Bakken, C. Adamo, J. Jaramillo, R. Gomperts, R. E. Stratmann, 
 O. Yazyev, A. J. Austin, R. Cammi, C. Pomelli, J. W. Ochterski, 
 R. L. Martin, K. Morokuma, V. G. Zakrzewski, G. A. Voth, 
 P. Salvador, J. J. Dannenberg, S. Dapprich, A. D. Daniels, 
 O. Farkas, J. B. Foresman, J. V. Ortiz, J. Cioslowski, 
 and D. J. Fox, Gaussian, Inc., Wallingford CT, 2013.
 
 ******************************************
 Gaussian 09:  ES64L-G09RevD.01 24-Apr-2013
                 3-Mar-2024 
 ******************************************
 %nprocshared=24
 Will use up to   24 processors via shared memory.
 %mem=40GB
 %rwf=A154147350/A154147350_0.rwf
 %nosave
 %chk=A154147350/A154147350_0.chk
 ----------------------------------------------------------------------
 #p CAM-B3LYP/6-31G(d,p) SCRF=(PCM,Solvent=Generic,Read) NoSymm out=wfn
 ----------------------------------------------------------------------
 1/38=1,40=2/1;
 2/12=2,15=1,17=6,18=5,40=1/2;
 3/5=1,6=6,7=101,11=2,16=1,25=1,30=1,70=2203,72=-2,74=-40/1,2,3;
 4//1;
 5/5=2,38=5/2;
 6/7=2,8=2,9=2,10=2,28=1/1;
 99/5=1,6=100,9=1/99;
 Leave Link    1 at Sun Mar  3 18:16:02 2024, MaxMem=  5368709120 cpu:         2.1
 (Enter /home/k0335/k033513/app/g09/l101.exe)
 ------------------
 Title A154147350_0
 ------------------
 Symbolic Z-matrix:
 Charge =  0 Multiplicity = 1
 O                    -2.22877   2.32156   0.0868 
 C                    -1.18652   1.67087   0.06126 
 N                    -0.01067   2.18003   0.5705 
 C                     0.03256   3.60686   0.91757 
 C                    -0.02879   4.53062  -0.29564 
 Br                    1.53401   4.29868  -1.43685 
 C                     1.09392   1.39386   0.82601 
 O                     2.15267   1.87215   1.22382 
 N                     0.93034   0.04522   0.62199 
 C                     2.04013  -0.82536   0.98927 
 F                     1.59458  -2.10008   1.20228 
 F                     2.44441  -0.44785   2.24837 
 C                     3.29592  -0.87725   0.07516 
 F                     3.78756   0.38293  -0.10172 
 O                     4.31222  -1.60556   0.78661 
 C                     5.45785  -1.86089   0.01983 
 F                     5.80382  -0.79744  -0.72102 
 F                     6.4725   -2.16307   0.85066 
 F                     5.22438  -2.91991  -0.7735 
 C                     2.87517  -1.4474   -1.28058 
 F                     2.4189   -2.71184  -1.18706 
 F                     3.90188  -1.4623   -2.16276 
 F                     1.9091   -0.69202  -1.85625 
 C                    -0.12292  -0.46975  -0.09249 
 O                    -0.17085  -1.65987  -0.39223 
 N                    -1.11132   0.4074   -0.46179 
 C                    -2.30818  -0.1265   -1.102 
 F                    -1.94004  -1.07308  -2.01221 
 F                    -2.85733   0.85373  -1.87491 
 C                    -3.36566  -0.70911  -0.13042 
 F                    -3.83323   0.29094   0.67327 
 O                    -2.73368  -1.63914   0.75769 
 C                    -3.64684  -2.39742   1.50683 
 F                    -4.62304  -1.62249   2.00321 
 F                    -2.98573  -2.96898   2.52984 
 F                    -4.1659   -3.36215   0.73209 
 C                    -4.4963   -1.23703  -1.02486 
 F                    -5.55757  -1.65029  -0.29039 
 F                    -4.10109  -2.29702  -1.76436 
 F                    -4.97188  -0.30352  -1.87726 
 H                    -0.83203   3.81652   1.55952 
 H                     0.92438   3.83139   1.51295 
 H                    -0.89914   4.34482  -0.92972 
 H                    -0.0288    5.57975   0.0125 
 
 NAtoms=     44 NQM=       44 NQMF=       0 NMMI=      0 NMMIF=      0
                NMic=       0 NMicF=      0.
                    Isotopes and Nuclear Properties:
 (Nuclear quadrupole moments (NQMom) in fm**2, nuclear magnetic moments (NMagM)
  in nuclear magnetons)

  Atom         1           2           3           4           5           6           7           8           9          10
 IAtWgt=          16          12          14          12          12          79          12          16          14          12
 AtmWgt=  15.9949146  12.0000000  14.0030740  12.0000000  12.0000000  78.9183361  12.0000000  15.9949146  14.0030740  12.0000000
 NucSpn=           0           0           2           0           0           3           0           0           2           0
 AtZEff=   0.0000000   0.0000000   0.0000000   0.0000000   0.0000000   0.0000000   0.0000000   0.0000000   0.0000000   0.0000000
 NQMom=    0.0000000   0.0000000   2.0440000   0.0000000   0.0000000  31.3000000   0.0000000   0.0000000   2.0440000   0.0000000
 NMagM=    0.0000000   0.0000000   0.4037610   0.0000000   0.0000000   2.1063990   0.0000000   0.0000000   0.4037610   0.0000000
 AtZNuc=   8.0000000   6.0000000   7.0000000   6.0000000   6.0000000  35.0000000   6.0000000   8.0000000   7.0000000   6.0000000

  Atom        11          12          13          14          15          16          17          18          19          20
 IAtWgt=          19          19          12          19          16          12          19          19          19          12
 AtmWgt=  18.9984033  18.9984033  12.0000000  18.9984033  15.9949146  12.0000000  18.9984033  18.9984033  18.9984033  12.0000000
 NucSpn=           1           1           0           1           0           0           1           1           1           0
 AtZEff=   0.0000000   0.0000000   0.0000000   0.0000000   0.0000000   0.0000000   0.0000000   0.0000000   0.0000000   0.0000000
 NQMom=    0.0000000   0.0000000   0.0000000   0.0000000   0.0000000   0.0000000   0.0000000   0.0000000   0.0000000   0.0000000
 NMagM=    2.6288670   2.6288670   0.0000000   2.6288670   0.0000000   0.0000000   2.6288670   2.6288670   2.6288670   0.0000000
 AtZNuc=   9.0000000   9.0000000   6.0000000   9.0000000   8.0000000   6.0000000   9.0000000   9.0000000   9.0000000   6.0000000

  Atom        21          22          23          24          25          26          27          28          29          30
 IAtWgt=          19          19          19          12          16          14          12          19          19          12
 AtmWgt=  18.9984033  18.9984033  18.9984033  12.0000000  15.9949146  14.0030740  12.0000000  18.9984033  18.9984033  12.0000000
 NucSpn=           1           1           1           0           0           2           0           1           1           0
 AtZEff=   0.0000000   0.0000000   0.0000000   0.0000000   0.0000000   0.0000000   0.0000000   0.0000000   0.0000000   0.0000000
 NQMom=    0.0000000   0.0000000   0.0000000   0.0000000   0.0000000   2.0440000   0.0000000   0.0000000   0.0000000   0.0000000
 NMagM=    2.6288670   2.6288670   2.6288670   0.0000000   0.0000000   0.4037610   0.0000000   2.6288670   2.6288670   0.0000000
 AtZNuc=   9.0000000   9.0000000   9.0000000   6.0000000   8.0000000   7.0000000   6.0000000   9.0000000   9.0000000   6.0000000

  Atom        31          32          33          34          35          36          37          38          39          40
 IAtWgt=          19          16          12          19          19          19          12          19          19          19
 AtmWgt=  18.9984033  15.9949146  12.0000000  18.9984033  18.9984033  18.9984033  12.0000000  18.9984033  18.9984033  18.9984033
 NucSpn=           1           0           0           1           1           1           0           1           1           1
 AtZEff=   0.0000000   0.0000000   0.0000000   0.0000000   0.0000000   0.0000000   0.0000000   0.0000000   0.0000000   0.0000000
 NQMom=    0.0000000   0.0000000   0.0000000   0.0000000   0.0000000   0.0000000   0.0000000   0.0000000   0.0000000   0.0000000
 NMagM=    2.6288670   0.0000000   0.0000000   2.6288670   2.6288670   2.6288670   0.0000000   2.6288670   2.6288670   2.6288670
 AtZNuc=   9.0000000   8.0000000   6.0000000   9.0000000   9.0000000   9.0000000   6.0000000   9.0000000   9.0000000   9.0000000

  Atom        41          42          43          44
 IAtWgt=           1           1           1           1
 AtmWgt=   1.0078250   1.0078250   1.0078250   1.0078250
 NucSpn=           1           1           1           1
 AtZEff=   0.0000000   0.0000000   0.0000000   0.0000000
 NQMom=    0.0000000   0.0000000   0.0000000   0.0000000
 NMagM=    2.7928460   2.7928460   2.7928460   2.7928460
 AtZNuc=   1.0000000   1.0000000   1.0000000   1.0000000
 Leave Link  101 at Sun Mar  3 18:16:02 2024, MaxMem=  5368709120 cpu:         1.1
 (Enter /home/k0335/k033513/app/g09/l202.exe)
                          Input orientation:                          
 ---------------------------------------------------------------------
 Center     Atomic      Atomic             Coordinates (Angstroms)
 Number     Number       Type             X           Y           Z
 ---------------------------------------------------------------------
      1          8           0       -2.228769    2.321557    0.086799
      2          6           0       -1.186517    1.670873    0.061264
      3          7           0       -0.010674    2.180032    0.570496
      4          6           0        0.032556    3.606865    0.917569
      5          6           0       -0.028788    4.530621   -0.295644
      6         35           0        1.534009    4.298676   -1.436848
      7          6           0        1.093923    1.393857    0.826005
      8          8           0        2.152670    1.872149    1.223820
      9          7           0        0.930338    0.045217    0.621987
     10          6           0        2.040131   -0.825363    0.989268
     11          9           0        1.594581   -2.100077    1.202281
     12          9           0        2.444406   -0.447850    2.248370
     13          6           0        3.295921   -0.877250    0.075162
     14          9           0        3.787561    0.382932   -0.101720
     15          8           0        4.312223   -1.605563    0.786608
     16          6           0        5.457846   -1.860892    0.019830
     17          9           0        5.803823   -0.797439   -0.721017
     18          9           0        6.472496   -2.163071    0.850658
     19          9           0        5.224380   -2.919913   -0.773501
     20          6           0        2.875168   -1.447402   -1.280583
     21          9           0        2.418900   -2.711837   -1.187056
     22          9           0        3.901875   -1.462300   -2.162762
     23          9           0        1.909100   -0.692024   -1.856246
     24          6           0       -0.122918   -0.469747   -0.092486
     25          8           0       -0.170850   -1.659867   -0.392230
     26          7           0       -1.111318    0.407403   -0.461791
     27          6           0       -2.308185   -0.126501   -1.102004
     28          9           0       -1.940042   -1.073082   -2.012208
     29          9           0       -2.857328    0.853727   -1.874911
     30          6           0       -3.365656   -0.709113   -0.130424
     31          9           0       -3.833229    0.290937    0.673266
     32          8           0       -2.733681   -1.639144    0.757691
     33          6           0       -3.646836   -2.397418    1.506831
     34          9           0       -4.623039   -1.622493    2.003214
     35          9           0       -2.985732   -2.968975    2.529836
     36          9           0       -4.165902   -3.362149    0.732087
     37          6           0       -4.496298   -1.237028   -1.024862
     38          9           0       -5.557574   -1.650293   -0.290391
     39          9           0       -4.101094   -2.297021   -1.764356
     40          9           0       -4.971883   -0.303518   -1.877255
     41          1           0       -0.832026    3.816518    1.559524
     42          1           0        0.924376    3.831392    1.512949
     43          1           0       -0.899141    4.344820   -0.929720
     44          1           0       -0.028804    5.579751    0.012502
 ---------------------------------------------------------------------
                    Distance matrix (angstroms):
                    1          2          3          4          5
     1  O    0.000000
     2  C    1.228955   0.000000
     3  N    2.274629   1.378828   0.000000
     4  C    2.730529   2.442839   1.469075   0.000000
     5  C    3.141042   3.105781   2.505154   1.526098   0.000000
     6  Br   4.515418   4.068286   3.302140   2.876846   1.948969
     7  C    3.528078   2.421151   1.379670   2.456072   3.515375
     8  O    4.548823   3.541499   2.280720   2.756431   3.759655
     9  N    3.930408   2.727314   2.333579   3.684931   4.677694
    10  C    5.379690   4.183736   3.662454   4.866225   5.883705
    11  F    5.950895   4.822498   4.614686   5.923696   6.988939
    12  F    5.846415   4.738778   3.968431   4.901914   6.113417
    13  C    6.383941   5.156101   4.530552   5.609500   6.358951
    14  F    6.323767   5.140701   4.255353   5.052995   5.639632
    15  O    7.661369   6.441840   5.750206   6.745525   7.593971
    16  C    8.751081   7.524802   6.821804   7.754745   8.429360
    17  F    8.654666   7.454487   6.658957   7.442471   7.911290
    18  F    9.818726   8.601323   7.808491   8.646934   9.401394
    19  F    9.152188   7.929171   7.431121   8.509617   9.128777
    20  C    6.490374   5.293532   4.991278   6.201446   6.718618
    21  F    6.968399   5.810807   5.737787   7.074608   7.696687
    22  F    7.547377   6.376111   6.003776   7.082126   7.406169
    23  F    5.475313   4.340849   4.221767   5.449396   5.785059
    24  C    3.501161   2.395232   2.733765   4.202755   5.005378
    25  O    4.507354   3.511562   3.961985   5.430968   6.192871
    26  N    2.283338   1.369525   2.327928   3.667102   4.266193
    27  C    2.722599   2.416999   3.660042   4.847243   5.247347
    28  F    4.001596   3.520849   4.579910   5.863160   6.164493
    29  F    2.529410   2.684792   3.980269   4.871257   4.900436
    30  C    3.244173   3.232603   4.482672   5.592298   6.214242
    31  F    2.653611   3.046942   4.265111   5.098956   5.778190
    32  O    4.048726   3.719535   4.694243   5.932810   6.818501
    33  C    5.127975   4.969288   5.920426   7.066581   8.021029
    34  F    4.996069   5.140731   6.147015   7.085152   8.015778
    35  F    5.876321   5.555107   6.261171   7.412904   8.542294
    36  F    6.039321   5.887109   6.928766   8.138096   8.970382
    37  C    4.363600   4.537643   5.860229   6.909910   7.331861
    38  F    5.196038   5.500904   6.795632   7.768297   8.292840
    39  F    5.316356   5.250889   6.498236   7.689971   8.084398
    40  F    4.274717   4.688824   6.064083   6.938771   7.092572
    41  H    2.520857   2.640879   2.081077   1.097070   2.144011
    42  H    3.775689   3.351283   2.118850   1.095551   2.160660
    43  H    2.625798   2.866117   2.779627   2.196614   1.092744
    44  H    3.932073   4.077009   3.445254   2.171449   1.093448
                    6          7          8          9         10
     6  Br   0.000000
     7  C    3.708390   0.000000
     8  O    3.653755   1.227992   0.000000
     9  N    4.763941   1.373759   2.279030   0.000000
    10  C    5.691922   2.418037   2.710028   1.457548   0.000000
    11  F    6.921901   3.549622   4.011297   2.319536   1.367035
    12  F    6.077760   2.690504   2.552882   2.276102   1.375243
    13  C    5.672805   3.251229   3.191494   2.597296   1.554121
    14  F    4.711063   3.022967   2.578312   2.966737   2.388251
    15  O    6.893640   4.399492   4.116953   3.766871   2.410847
    16  C    7.447059   5.503375   5.129267   4.949159   3.700393
    17  F    6.686861   5.420167   4.923414   5.124899   4.134154
    18  F    8.448403   6.448364   5.923103   5.970288   4.631904
    19  F    8.134304   6.182856   6.032292   5.401683   4.199278
    20  C    5.902587   3.960215   4.220599   3.103232   2.497287
    21  F    7.070553   4.760746   5.186148   3.617983   2.904933
    22  F    6.270772   4.997495   5.064307   4.342518   3.715787
    23  F    5.022318   3.494264   4.015111   2.764623   2.851648
    24  C    5.224038   2.407768   3.520716   1.372956   2.444470
    25  O    6.285062   3.522638   4.526091   2.269044   2.737402
    26  N    4.805257   2.737626   3.954792   2.339682   3.681972
    27  C    5.869989   4.195598   5.413251   3.672828   4.875416
    28  F    6.423072   4.831789   5.991373   4.053228   4.991192
    29  F    5.598519   4.816542   5.978244   4.608102   5.916753
    30  C    7.126809   5.022458   6.240898   4.426138   5.521753
    31  F    7.022948   5.051395   6.215652   4.770176   5.986847
    32  O    7.634585   4.884088   6.035137   4.034913   4.848211
    33  C    8.963486   6.108362   7.207189   5.263073   5.922907
    34  F    9.208882   6.570224   7.663564   5.960624   6.786850
    35  F    9.432995   6.211355   7.179508   5.297249   5.676946
    36  F    9.791910   7.091838   8.219734   6.131389   6.709417
    37  C    8.196240   6.449638   7.676739   5.814176   6.852087
    38  F    9.327119   7.399703   8.610940   6.767584   7.748752
    39  F    8.681294   6.879008   8.088309   6.041194   6.889330
    40  F    7.981277   6.854393   8.069043   6.419037   7.593261
    41  H    3.848226   3.180663   3.577943   4.267038   5.488309
    42  H    3.048165   2.538152   2.330437   3.889598   4.817107
    43  H    2.485865   3.970272   4.479440   4.923553   6.249210
    44  H    2.486796   4.409536   4.469053   5.649999   6.801474
                   11         12         13         14         15
    11  F    0.000000
    12  F    2.132219   0.000000
    13  C    2.379130   2.373246   0.000000
    14  F    3.560184   2.831464   1.364205   0.000000
    15  O    2.793368   2.639278   1.438564   2.240203   0.000000
    16  C    4.047248   4.005484   2.375823   2.799888   1.401996
    17  F    4.807667   4.497239   2.632460   2.417047   2.269552
    18  F    4.890978   4.595769   3.513596   3.820737   2.231972
    19  F    4.213228   4.792813   2.934562   3.663949   2.234611
    20  C    2.868885   3.692989   1.529755   2.360572   2.522582
    21  F    2.600516   4.114418   2.393339   3.553700   2.950231
    22  F    4.129634   4.755146   2.391185   2.768726   2.981223
    23  F    3.381734   4.146570   2.384936   2.786128   3.687036
    24  C    2.698926   3.474369   3.447118   4.002373   4.661905
    25  O    2.419297   3.909133   3.584612   4.463904   4.635790
    26  N    4.047034   4.551879   4.621948   4.912155   5.918220
    27  C    4.943310   5.823692   5.775409   6.198242   7.041611
    28  F    4.886841   6.145472   5.640104   6.210908   6.870788
    29  F    6.165514   6.841340   6.682929   6.893504   8.033321
    30  C    5.321169   6.283609   6.666869   7.236152   7.784240
    31  F    5.954656   6.514251   7.248943   7.660647   8.364087
    32  O    4.375382   5.518504   6.115752   6.881423   7.046043
    33  C    5.258670   6.438472   7.249997   8.098644   8.030715
    34  F    6.287160   7.168589   8.184296   8.898914   9.017723
    35  F    4.847335   5.993471   7.061154   8.002366   7.626132
    36  F    5.915832   7.381628   7.892089   8.830540   8.658358
    37  C    6.542463   7.714287   7.877701   8.491100   9.000405
    38  F    7.320089   8.480735   8.894695   9.565623   9.928485
    39  F    6.424985   7.897150   7.753413   8.495727   8.818698
    40  F    7.471922   8.487812   8.514557   8.963905   9.746082
    41  H    6.404853   5.421656   6.424542   5.990812   7.513964
    42  H    5.977292   4.600353   5.464684   4.764122   6.447136
    43  H    7.231927   6.652011   6.773356   6.192521   8.093896
    44  H    7.939188   6.888240   7.262960   6.448614   8.430450
                   16         17         18         19         20
    16  C    0.000000
    17  F    1.341449   0.000000
    18  F    1.345772   2.186833   0.000000
    19  F    1.343654   2.200774   2.183689   0.000000
    20  C    2.921006   3.051653   4.242068   2.818549   0.000000
    21  F    3.378739   3.916608   4.570018   2.843421   1.347488
    22  F    2.709913   2.477514   4.022421   2.409087   1.353732
    23  F    4.180851   4.058168   5.505987   4.138467   1.354722
    24  C    5.752636   5.968977   6.874326   5.921207   3.369852
    25  O    5.647338   6.045544   6.777317   5.553521   3.180022
    26  N    6.966422   7.024103   8.114437   7.163049   4.472448
    27  C    8.036035   8.148618   9.222845   8.040560   5.351992
    28  F    7.712235   7.855609   8.952925   7.501608   4.884838
    29  F    8.949934   8.892320  10.177201   8.987072   6.205637
    30  C    8.899627   9.188903   9.993285   8.893250   6.388726
    31  F    9.559363   9.798028  10.595357   9.718177   7.200135
    32  O    8.227680   8.705402   9.221542   8.204612   5.970805
    33  C    9.240902   9.840640  10.143291   9.174497   7.156028
    34  F   10.276910  10.808404  11.168326  10.313346   8.187618
    35  F    8.878175   9.619766   9.639875   8.849880   7.154343
    36  F    9.766146  10.396378  10.706417   9.520492   7.569264
    37  C   10.028239  10.313974  11.166449   9.868478   7.378900
    38  F   11.021800  11.401497  12.094938  10.867192   8.493102
    39  F    9.733800  10.071975  10.892982   9.398630   7.044439
    40  F   10.714644  10.848810  11.911056  10.584308   7.952402
    41  H    8.611976   8.397854   9.466468   9.354280   7.036928
    42  H    7.428583   7.087008   8.194745   8.324542   6.282919
    43  H    8.934416   8.450805   9.993169   9.502540   6.922308
    44  H    9.244812   8.673300  10.144984  10.022875   7.712717
                   21         22         23         24         25
    21  F    0.000000
    22  F    2.170843   0.000000
    23  F    2.188003   2.158339   0.000000
    24  C    3.561726   4.633591   2.699880   0.000000
    25  O    2.906062   4.445324   2.721444   1.228222   0.000000
    26  N    4.766352   5.614374   3.503736   1.372120   2.272207
    27  C    5.388555   6.440063   4.321364   2.431530   2.724553
    28  F    4.729352   5.856804   3.871101   2.711325   2.469552
    29  F    6.405074   7.150781   5.010841   3.522161   3.966568
    30  C    6.211961   7.583844   5.549937   3.251782   3.343540
    31  F    7.180986   8.423107   6.351298   3.864120   4.284150
    32  O    5.610865   7.251960   5.411573   2.984355   2.809066
    33  C    6.644474   8.445318   6.714691   4.323393   4.029006
    34  F    7.807266   9.489741   7.643955   5.096260   5.055842
    35  F    6.564408   8.469337   6.955688   4.617187   4.263308
    36  F    6.889531   8.779442   7.122828   5.039011   4.485788
    37  C    7.072576   8.477905   6.482079   4.537014   4.391869
    38  F    8.096606   9.644806   7.689044   5.564921   5.387695
    39  F    6.558633   8.056240   6.221486   4.686146   4.211355
    40  F    7.803848   8.953651   6.891974   5.169671   5.205276
    41  H    7.793051   8.008193   6.285555   4.648015   5.851264
    42  H    7.234464   7.099262   5.725596   4.708932   5.914656
    43  H    7.802053   7.634972   5.840759   4.948084   6.072526
    44  H    8.728151   8.352993   6.825163   6.051141   7.252314
                   26         27         28         29         30
    26  N    0.000000
    27  C    1.458567   0.000000
    28  F    2.298350   1.363824   0.000000
    29  F    2.290123   1.363741   2.138424   0.000000
    30  C    2.537410   1.549726   2.388715   2.396685   0.000000
    31  F    2.951393   2.377309   3.557594   2.786094   1.365519
    32  O    2.882283   2.434667   2.936431   3.627711   1.432864
    33  C    4.262786   3.708783   4.129243   4.757042   2.368552
    34  F    4.746463   4.151978   4.860446   4.928413   2.639638
    35  F    4.884996   4.661436   5.031704   5.833638   3.511168
    36  F    4.996534   4.157454   4.210159   5.126638   2.902227
    37  C    3.805166   2.455007   2.745209   2.789276   1.535274
    38  F    4.902314   3.679563   4.047760   4.009008   2.390798
    39  F    4.236667   2.892126   2.495917   3.389158   2.394171
    40  F    4.172878   2.779863   3.130895   2.410511   2.407466
    41  H    3.973133   4.980981   6.155742   4.967426   5.454956
    42  H    4.446049   5.740413   6.684720   5.886032   6.459198
    43  H    3.970797   4.691247   5.622181   4.112859   5.680212
    44  H    5.305655   6.244919   7.211967   5.822214   7.120732
                   31         32         33         34         35
    31  F    0.000000
    32  O    2.222914   0.000000
    33  C    2.820785   1.403582   0.000000
    34  F    2.460442   2.263024   1.341595   0.000000
    35  F    3.846054   2.229905   1.345465   2.184289   0.000000
    36  F    3.668674   2.240683   1.341776   2.202531   2.186158
    37  C    2.378650   2.538900   2.911625   3.055142   4.232886
    38  F    2.769544   3.012137   2.727475   2.476843   4.038189
    39  F    3.565288   2.943355   3.304103   3.862900   4.487275
    40  F    2.855708   3.706263   4.194306   4.113323   5.520137
    41  H    4.714063   5.832965   6.821945   6.644658   7.184906
    42  H    5.989549   6.624089   7.726195   7.794808   7.909993
    43  H    5.254751   6.482339   7.677524   7.620915   8.355476
    44  H    6.548421   7.744941   8.885854   8.771673   9.389415
                   36         37         38         39         40
    36  F    0.000000
    37  C    2.777080   0.000000
    38  F    2.431597   1.355191   0.000000
    39  F    2.714945   1.351526   2.170752   0.000000
    40  F    4.100426   1.350628   2.162169   2.178319   0.000000
    41  H    7.958181   6.756054   7.459156   7.688325   6.776766
    42  H    8.846904   7.843027   8.678513   8.576335   7.959701
    43  H    8.534091   6.641206   7.619129   7.420456   6.252367
    44  H    9.878814   8.216027   9.106733   9.043468   7.913158
                   41         42         43         44
    41  H    0.000000
    42  H    1.757082   0.000000
    43  H    2.545573   3.091190   0.000000
    44  H    2.479402   2.493322   1.780540   0.000000
 Symmetry turned off by external request.
 Stoichiometry    C13H4BrF18N3O5
 Framework group  C1[X(C13H4BrF18N3O5)]
 Deg. of freedom   126
 Full point group                 C1      NOp   1
 Rotational constants (GHZ):      0.1062039      0.0575696      0.0441219
 Leave Link  202 at Sun Mar  3 18:16:02 2024, MaxMem=  5368709120 cpu:         0.1
 (Enter /home/k0335/k033513/app/g09/l301.exe)
 Standard basis: 6-31G(d,p) (6D, 7F)
 Ernie: Thresh=  0.10000D-02 Tol=  0.10000D-05 Strict=F.
   635 basis functions,  1203 primitive gaussians,   635 cartesian basis functions
   170 alpha electrons      170 beta electrons
       nuclear repulsion energy      6818.9397276841 Hartrees.
 IExCor=20419 DFT=T Ex+Corr=CAM-B3LYP ExCW=0 ScaHFX=  1.000000
 ScaDFX=  1.000000  1.000000  1.000000  0.810000 ScalE2=  1.000000  1.000000
 IRadAn=      0 IRanWt=     -1 IRanGd=            0 ICorTp=0 IEmpDi=  4
  HFx wShort=  0.000000 wLong=  0.330000 cFull=  0.190000 cShort=  0.000000 cLong=  0.460000
  DFx wShort=  0.000000 wLong=  0.330000 cFull=  0.190000 cShort=  0.000000 cLong=  0.460000
 NAtoms=   44 NActive=   44 NUniq=   44 SFac= 1.00D+00 NAtFMM=   60 NAOKFM=F Big=F
 Integral buffers will be    131072 words long.
 Raffenetti 2 integral format.
 Two-electron integral symmetry is turned off.
 Using the following non-standard input for PCM:
 eps=4.9
 --- end of non-standard input.
 ------------------------------------------------------------------------------
 Polarizable Continuum Model (PCM)
 =================================
 Model                : PCM (using non-symmetric T matrix).
 Atomic radii         : UFF (Universal Force Field).
 Polarization charges : Total charges.
 Charge compensation  : None.
 Solution method      : On-the-fly selection.
 Cavity type          : Scaled VdW (van der Waals Surface) (Alpha=1.100).
 Cavity algorithm     : GePol (No added spheres)
                        Default sphere list used, NSphG=   44.
                        Lebedev-Laikov grids with approx.  5.0 points / Ang**2.
                        Smoothing algorithm: Karplus/York (Gamma=1.0000).
                        Polarization charges: spherical gaussians, with
                                              point-specific exponents (IZeta= 3).
                        Self-potential: point-specific (ISelfS= 7).
                        Self-field    : sphere-specific E.n sum rule (ISelfD= 2).
 Solvent              : Generic,
                        Eps                           =   4.900000
                        Eps(infinity)                 =   0.000000
                        RSolv                         =   0.000000 Ang.
                        Molar volume                  =   0.000000 cm**3/mol
                        Thermal expansion coefficient =   0.000000 K**-1
                        Absolute temperature          = 298.150000 K
                        Numeral density               =   0.000000 Ang**-3
                        Hydrogen bond acidity         =   0.000000
                        Hydrogen bond basicity        =   0.000000
                        Surface tension at interface  =   0.000000 (cal/mol)*Ang**-2
                        Carbon aromaticity            =   0.000000
                        Electronegative halogenicity  =   0.000000
 ------------------------------------------------------------------------------
 GePol: Number of generator spheres                  =      44
 GePol: Total number of spheres                      =      44
 GePol: Number of exposed spheres                    =      44 (100.00%)
 GePol: Number of points                             =    3746
 GePol: Average weight of points                     =       0.13
 GePol: Minimum weight of points                     =   0.21D-11
 GePol: Maximum weight of points                     =    0.20577
 GePol: Number of points with low weight             =     157
 GePol: Fraction of low-weight points (<1% of avg)   =       4.19%
 GePol: Cavity surface area                          =    470.883 Ang**2
 GePol: Cavity volume                                =    552.115 Ang**3
 Leave Link  301 at Sun Mar  3 18:16:03 2024, MaxMem=  5368709120 cpu:         1.0
 (Enter /home/k0335/k033513/app/g09/l302.exe)
 NPDir=0 NMtPBC=     1 NCelOv=     1 NCel=       1 NClECP=     1 NCelD=      1
         NCelK=      1 NCelE2=     1 NClLst=     1 CellRange=     0.0.
 One-electron integrals computed using PRISM.
 NBasis=   635 RedAO= T EigKep=  7.47D-04  NBF=   635
 NBsUse=   635 1.00D-06 EigRej= -1.00D+00 NBFU=   635
 Precomputing XC quadrature grid using
 IXCGrd= 4 IRadAn=           0 IRanWt=          -1 IRanGd=           0 AccXCQ= 0.00D+00.
 Generated NRdTot=       0 NPtTot=           0 NUsed=           0 NTot=          32
 NSgBfM=   612   612   613   613   613 MxSgAt=    44 MxSgA2=    44.
 Leave Link  302 at Sun Mar  3 18:16:03 2024, MaxMem=  5368709120 cpu:        14.8
 (Enter /home/k0335/k033513/app/g09/l303.exe)
 DipDrv:  MaxL=1.
 Leave Link  303 at Sun Mar  3 18:16:03 2024, MaxMem=  5368709120 cpu:         1.5
 (Enter /home/k0335/k033513/app/g09/l401.exe)
 ExpMin= 1.43D-01 ExpMax= 5.74D+05 ExpMxC= 5.74D+03 IAcc=2 IRadAn=         4 AccDes= 0.00D+00
 Harris functional with IExCor=20419 and IRadAn=       4 diagonalized for initial guess.
 HarFok:  IExCor=20419 AccDes= 0.00D+00 IRadAn=         4 IDoV= 1 UseB2=F ITyADJ=14
 ICtDFT=  3500011 ScaDFX=  1.000000  1.000000  1.000000  1.000000
 FoFCou: FMM=F IPFlag=           0 FMFlag=      100000 FMFlg1=           0
         NFxFlg=           0 DoJE=T BraDBF=F KetDBF=T FulRan=T
         wScrn=  0.000000 ICntrl=     500 IOpCl=  0 I1Cent=   200000004 NGrid=           0
         NMat0=    1 NMatS0=      1 NMatT0=    0 NMatD0=    1 NMtDS0=    0 NMtDT0=    0
 Symmetry not used in FoFCou.
 Harris En= -5301.69436080563    
 JPrj=0 DoOrth=F DoCkMO=F.
 Leave Link  401 at Sun Mar  3 18:16:04 2024, MaxMem=  5368709120 cpu:        22.8
 (Enter /home/k0335/k033513/app/g09/l502.exe)
 Closed shell SCF:
 Using DIIS extrapolation, IDIIS=  1040.
 Two-electron integral symmetry not used.
 IVT=     1247363 IEndB=     1247363 NGot=  5368709120 MDV=  5367882258
 LenX=  5367882258 LenY=  5367478398
 Requested convergence on RMS density matrix=1.00D-08 within 128 cycles.
 Requested convergence on MAX density matrix=1.00D-06.
 Requested convergence on             energy=1.00D-06.
 No special actions if energy rises.
 Fock matrices will be formed incrementally for  20 cycles.

 Cycle   1  Pass 1  IDiag  1:
 FoFJK:  IHMeth= 1 ICntrl=       0 DoSepK=T KAlg= 0 I1Cent=   0 FoldK=F
 IRaf=         1 NMat=   1 IRICut=       1 DoRegI=T DoRafI=F ISym2E= 0.
 FoFCou: FMM=F IPFlag=           0 FMFlag=      100000 FMFlg1=           0
         NFxFlg=           0 DoJE=T BraDBF=F KetDBF=F FulRan=T
         wScrn=  0.000000 ICntrl=     500 IOpCl=  0 I1Cent=           0 NGrid=           0
         NMat0=    1 NMatS0=      1 NMatT0=    0 NMatD0=    1 NMtDS0=    0 NMtDT0=    0
 Symmetry not used in FoFCou.
 Inv3:  Mode=1 IEnd=    42097548.
 Iteration    1 A*A^-1 deviation from unit magnitude is 9.77D-15 for   3742.
 Iteration    1 A*A^-1 deviation from orthogonality  is 2.62D-15 for   3327   1384.
 Iteration    1 A^-1*A deviation from unit magnitude is 9.88D-15 for    135.
 Iteration    1 A^-1*A deviation from orthogonality  is 7.22D-15 for   2064   1956.
 E= -5405.24668782277    
 DIIS: error= 3.42D-01 at cycle   1 NSaved=   1.
 NSaved= 1 IEnMin= 1 EnMin= -5405.24668782277     IErMin= 1 ErrMin= 3.42D-01
 ErrMax= 3.42D-01  0.00D+00 EMaxC= 1.00D-01 BMatC= 4.42D+00 BMatP= 4.42D+00
 IDIUse=3 WtCom= 0.00D+00 WtEn= 1.00D+00
 Coeff-Com:  0.100D+01
 Coeff-En:   0.100D+01
 Coeff:      0.100D+01
 Gap=     0.547 Goal=   None    Shift=    0.000
 GapD=    0.547 DampG=2.000 DampE=0.250 DampFc=0.5000 IDamp=-1.
 Damping current iteration by 5.00D-01
 RMSDP=3.35D-03 MaxDP=2.78D-01              OVMax= 1.96D-01

 Cycle   2  Pass 1  IDiag  1:
 RMSU=  1.66D-03    CP:  9.91D-01
 E= -5405.78668208194     Delta-E=       -0.539994259170 Rises=F Damp=T
 DIIS: error= 1.62D-01 at cycle   2 NSaved=   2.
 NSaved= 2 IEnMin= 2 EnMin= -5405.78668208194     IErMin= 2 ErrMin= 1.62D-01
 ErrMax= 1.62D-01  0.00D+00 EMaxC= 1.00D-01 BMatC= 7.41D-01 BMatP= 4.42D+00
 IDIUse=3 WtCom= 0.00D+00 WtEn= 1.00D+00
 Coeff-Com: -0.445D+00 0.145D+01
 Coeff-En:   0.000D+00 0.100D+01
 Coeff:      0.000D+00 0.100D+01
 Gap=     0.388 Goal=   None    Shift=    0.000
 RMSDP=1.16D-03 MaxDP=1.48D-01 DE=-5.40D-01 OVMax= 1.26D-01

 Cycle   3  Pass 1  IDiag  1:
 RMSU=  8.90D-04    CP:  9.78D-01  1.42D+00
 E= -5406.25122568263     Delta-E=       -0.464543600698 Rises=F Damp=F
 DIIS: error= 7.75D-03 at cycle   3 NSaved=   3.
 NSaved= 3 IEnMin= 3 EnMin= -5406.25122568263     IErMin= 3 ErrMin= 7.75D-03
 ErrMax= 7.75D-03  0.00D+00 EMaxC= 1.00D-01 BMatC= 8.40D-02 BMatP= 7.41D-01
 IDIUse=3 WtCom= 9.22D-01 WtEn= 7.75D-02
 Coeff-Com: -0.119D+00 0.399D+00 0.720D+00
 Coeff-En:   0.000D+00 0.000D+00 0.100D+01
 Coeff:     -0.110D+00 0.368D+00 0.742D+00
 Gap=     0.331 Goal=   None    Shift=    0.000
 RMSDP=5.89D-04 MaxDP=5.45D-02 DE=-4.65D-01 OVMax= 6.86D-02

 Cycle   4  Pass 1  IDiag  1:
 RMSU=  4.11D-04    CP:  9.77D-01  1.44D+00  5.28D-01
 E= -5406.28329726679     Delta-E=       -0.032071584154 Rises=F Damp=F
 DIIS: error= 5.38D-03 at cycle   4 NSaved=   4.
 NSaved= 4 IEnMin= 4 EnMin= -5406.28329726679     IErMin= 4 ErrMin= 5.38D-03
 ErrMax= 5.38D-03  0.00D+00 EMaxC= 1.00D-01 BMatC= 3.87D-02 BMatP= 8.40D-02
 IDIUse=3 WtCom= 9.46D-01 WtEn= 5.38D-02
 Coeff-Com: -0.129D-01 0.459D-01 0.408D+00 0.559D+00
 Coeff-En:   0.000D+00 0.000D+00 0.332D+00 0.668D+00
 Coeff:     -0.122D-01 0.434D-01 0.404D+00 0.565D+00
 Gap=     0.342 Goal=   None    Shift=    0.000
 RMSDP=2.81D-04 MaxDP=2.64D-02 DE=-3.21D-02 OVMax= 2.77D-02

 Cycle   5  Pass 1  IDiag  1:
 RMSU=  1.13D-04    CP:  9.77D-01  1.43D+00  7.40D-01  5.79D-01
 E= -5406.30919291477     Delta-E=       -0.025895647987 Rises=F Damp=F
 DIIS: error= 7.88D-04 at cycle   5 NSaved=   5.
 NSaved= 5 IEnMin= 5 EnMin= -5406.30919291477     IErMin= 5 ErrMin= 7.88D-04
 ErrMax= 7.88D-04  0.00D+00 EMaxC= 1.00D-01 BMatC= 1.85D-03 BMatP= 3.87D-02
 IDIUse=3 WtCom= 9.92D-01 WtEn= 7.88D-03
 Coeff-Com:  0.381D-03 0.269D-02 0.188D+00 0.312D+00 0.497D+00
 Coeff-En:   0.000D+00 0.000D+00 0.000D+00 0.000D+00 0.100D+01
 Coeff:      0.378D-03 0.267D-02 0.186D+00 0.310D+00 0.501D+00
 Gap=     0.341 Goal=   None    Shift=    0.000
 RMSDP=5.41D-05 MaxDP=3.74D-03 DE=-2.59D-02 OVMax= 4.60D-03

 Cycle   6  Pass 1  IDiag  1:
 RMSU=  2.69D-05    CP:  9.77D-01  1.44D+00  7.30D-01  6.07D-01  6.24D-01
 E= -5406.31050827345     Delta-E=       -0.001315358677 Rises=F Damp=F
 DIIS: error= 8.41D-05 at cycle   6 NSaved=   6.
 NSaved= 6 IEnMin= 6 EnMin= -5406.31050827345     IErMin= 6 ErrMin= 8.41D-05
 ErrMax= 8.41D-05  0.00D+00 EMaxC= 1.00D-01 BMatC= 2.02D-05 BMatP= 1.85D-03
 IDIUse=1 WtCom= 1.00D+00 WtEn= 0.00D+00
 Coeff-Com:  0.138D-02-0.323D-02 0.137D-01 0.277D-01 0.107D+00 0.854D+00
 Coeff:      0.138D-02-0.323D-02 0.137D-01 0.277D-01 0.107D+00 0.854D+00
 Gap=     0.340 Goal=   None    Shift=    0.000
 RMSDP=1.05D-05 MaxDP=7.19D-04 DE=-1.32D-03 OVMax= 1.10D-03

 Cycle   7  Pass 1  IDiag  1:
 RMSU=  7.92D-06    CP:  9.77D-01  1.44D+00  7.34D-01  6.13D-01  6.71D-01
                    CP:  1.04D+00
 E= -5406.31052571721     Delta-E=       -0.000017443759 Rises=F Damp=F
 DIIS: error= 4.97D-05 at cycle   7 NSaved=   7.
 NSaved= 7 IEnMin= 7 EnMin= -5406.31052571721     IErMin= 7 ErrMin= 4.97D-05
 ErrMax= 4.97D-05  0.00D+00 EMaxC= 1.00D-01 BMatC= 5.06D-06 BMatP= 2.02D-05
 IDIUse=1 WtCom= 1.00D+00 WtEn= 0.00D+00
 Coeff-Com:  0.769D-03-0.202D-02-0.965D-02-0.152D-01 0.590D-02 0.377D+00
 Coeff-Com:  0.644D+00
 Coeff:      0.769D-03-0.202D-02-0.965D-02-0.152D-01 0.590D-02 0.377D+00
 Coeff:      0.644D+00
 Gap=     0.341 Goal=   None    Shift=    0.000
 RMSDP=3.93D-06 MaxDP=2.64D-04 DE=-1.74D-05 OVMax= 3.54D-04

 Cycle   8  Pass 1  IDiag  1:
 RMSU=  2.47D-06    CP:  9.77D-01  1.44D+00  7.35D-01  6.12D-01  6.83D-01
                    CP:  1.12D+00  8.17D-01
 E= -5406.31053032582     Delta-E=       -0.000004608612 Rises=F Damp=F
 DIIS: error= 1.21D-05 at cycle   8 NSaved=   8.
 NSaved= 8 IEnMin= 8 EnMin= -5406.31053032582     IErMin= 8 ErrMin= 1.21D-05
 ErrMax= 1.21D-05  0.00D+00 EMaxC= 1.00D-01 BMatC= 3.64D-07 BMatP= 5.06D-06
 IDIUse=1 WtCom= 1.00D+00 WtEn= 0.00D+00
 Coeff-Com:  0.173D-03-0.441D-03-0.484D-02-0.908D-02-0.104D-01 0.191D-01
 Coeff-Com:  0.201D+00 0.804D+00
 Coeff:      0.173D-03-0.441D-03-0.484D-02-0.908D-02-0.104D-01 0.191D-01
 Coeff:      0.201D+00 0.804D+00
 Gap=     0.341 Goal=   None    Shift=    0.000
 RMSDP=1.53D-06 MaxDP=1.37D-04 DE=-4.61D-06 OVMax= 1.39D-04

 Cycle   9  Pass 1  IDiag  1:
 RMSU=  9.37D-07    CP:  9.77D-01  1.44D+00  7.35D-01  6.12D-01  6.88D-01
                    CP:  1.14D+00  8.98D-01  1.02D+00
 E= -5406.31053071984     Delta-E=       -0.000000394019 Rises=F Damp=F
 DIIS: error= 4.52D-06 at cycle   9 NSaved=   9.
 NSaved= 9 IEnMin= 9 EnMin= -5406.31053071984     IErMin= 9 ErrMin= 4.52D-06
 ErrMax= 4.52D-06  0.00D+00 EMaxC= 1.00D-01 BMatC= 4.90D-08 BMatP= 3.64D-07
 IDIUse=1 WtCom= 1.00D+00 WtEn= 0.00D+00
 Coeff-Com:  0.500D-05 0.161D-05-0.876D-03-0.213D-02-0.448D-02-0.334D-01
 Coeff-Com:  0.132D-01 0.325D+00 0.702D+00
 Coeff:      0.500D-05 0.161D-05-0.876D-03-0.213D-02-0.448D-02-0.334D-01
 Coeff:      0.132D-01 0.325D+00 0.702D+00
 Gap=     0.341 Goal=   None    Shift=    0.000
 RMSDP=4.83D-07 MaxDP=3.89D-05 DE=-3.94D-07 OVMax= 5.73D-05

 Cycle  10  Pass 1  IDiag  1:
 RMSU=  2.74D-07    CP:  9.77D-01  1.44D+00  7.35D-01  6.12D-01  6.89D-01
                    CP:  1.15D+00  9.22D-01  1.11D+00  9.21D-01
 E= -5406.31053076473     Delta-E=       -0.000000044885 Rises=F Damp=F
 DIIS: error= 1.62D-06 at cycle  10 NSaved=  10.
 NSaved=10 IEnMin=10 EnMin= -5406.31053076473     IErMin=10 ErrMin= 1.62D-06
 ErrMax= 1.62D-06  0.00D+00 EMaxC= 1.00D-01 BMatC= 5.30D-09 BMatP= 4.90D-08
 IDIUse=1 WtCom= 1.00D+00 WtEn= 0.00D+00
 Coeff-Com: -0.843D-05 0.308D-04 0.207D-03 0.120D-03-0.449D-03-0.162D-01
 Coeff-Com: -0.156D-01 0.488D-01 0.273D+00 0.710D+00
 Coeff:     -0.843D-05 0.308D-04 0.207D-03 0.120D-03-0.449D-03-0.162D-01
 Coeff:     -0.156D-01 0.488D-01 0.273D+00 0.710D+00
 Gap=     0.341 Goal=   None    Shift=    0.000
 RMSDP=1.69D-07 MaxDP=1.68D-05 DE=-4.49D-08 OVMax= 1.97D-05

 Cycle  11  Pass 1  IDiag  1:
 RMSU=  1.10D-07    CP:  9.77D-01  1.44D+00  7.35D-01  6.11D-01  6.89D-01
                    CP:  1.15D+00  9.28D-01  1.14D+00  9.89D-01  8.86D-01
 E= -5406.31053076935     Delta-E=       -0.000000004624 Rises=F Damp=F
 DIIS: error= 8.26D-07 at cycle  11 NSaved=  11.
 NSaved=11 IEnMin=11 EnMin= -5406.31053076935     IErMin=11 ErrMin= 8.26D-07
 ErrMax= 8.26D-07  0.00D+00 EMaxC= 1.00D-01 BMatC= 1.10D-09 BMatP= 5.30D-09
 IDIUse=1 WtCom= 1.00D+00 WtEn= 0.00D+00
 Coeff-Com: -0.109D-05 0.715D-05 0.239D-03 0.357D-03 0.545D-03-0.294D-02
 Coeff-Com: -0.879D-02-0.223D-01 0.293D-01 0.347D+00 0.657D+00
 Coeff:     -0.109D-05 0.715D-05 0.239D-03 0.357D-03 0.545D-03-0.294D-02
 Coeff:     -0.879D-02-0.223D-01 0.293D-01 0.347D+00 0.657D+00
 Gap=     0.341 Goal=   None    Shift=    0.000
 RMSDP=6.43D-08 MaxDP=7.66D-06 DE=-4.62D-09 OVMax= 7.91D-06

 Cycle  12  Pass 1  IDiag  1:
 RMSU=  3.51D-08    CP:  9.77D-01  1.44D+00  7.35D-01  6.11D-01  6.89D-01
                    CP:  1.15D+00  9.29D-01  1.15D+00  1.01D+00  1.00D+00
                    CP:  8.35D-01
 E= -5406.31053077030     Delta-E=       -0.000000000955 Rises=F Damp=F
 DIIS: error= 3.15D-07 at cycle  12 NSaved=  12.
 NSaved=12 IEnMin=12 EnMin= -5406.31053077030     IErMin=12 ErrMin= 3.15D-07
 ErrMax= 3.15D-07  0.00D+00 EMaxC= 1.00D-01 BMatC= 1.11D-10 BMatP= 1.10D-09
 IDIUse=1 WtCom= 1.00D+00 WtEn= 0.00D+00
 Coeff-Com:  0.164D-05-0.264D-05 0.884D-04 0.145D-03 0.330D-03 0.531D-03
 Coeff-Com: -0.215D-02-0.161D-01-0.187D-01 0.747D-01 0.291D+00 0.670D+00
 Coeff:      0.164D-05-0.264D-05 0.884D-04 0.145D-03 0.330D-03 0.531D-03
 Coeff:     -0.215D-02-0.161D-01-0.187D-01 0.747D-01 0.291D+00 0.670D+00
 Gap=     0.341 Goal=   None    Shift=    0.000
 RMSDP=2.12D-08 MaxDP=2.63D-06 DE=-9.55D-10 OVMax= 2.73D-06

 Cycle  13  Pass 1  IDiag  1:
 RMSU=  1.26D-08    CP:  9.77D-01  1.44D+00  7.35D-01  6.11D-01  6.89D-01
                    CP:  1.15D+00  9.29D-01  1.15D+00  1.02D+00  1.02D+00
                    CP:  9.11D-01  8.95D-01
 E= -5406.31053077020     Delta-E=        0.000000000100 Rises=F Damp=F
 DIIS: error= 6.13D-08 at cycle  13 NSaved=  13.
 NSaved=13 IEnMin=12 EnMin= -5406.31053077030     IErMin=13 ErrMin= 6.13D-08
 ErrMax= 6.13D-08  0.00D+00 EMaxC= 1.00D-01 BMatC= 1.06D-11 BMatP= 1.11D-10
 IDIUse=1 WtCom= 1.00D+00 WtEn= 0.00D+00
 Coeff-Com:  0.112D-05-0.252D-05 0.947D-05 0.160D-04 0.743D-04 0.518D-03
 Coeff-Com:  0.121D-03-0.380D-02-0.107D-01-0.122D-01 0.343D-01 0.256D+00
 Coeff-Com:  0.735D+00
 Coeff:      0.112D-05-0.252D-05 0.947D-05 0.160D-04 0.743D-04 0.518D-03
 Coeff:      0.121D-03-0.380D-02-0.107D-01-0.122D-01 0.343D-01 0.256D+00
 Coeff:      0.735D+00
 Gap=     0.341 Goal=   None    Shift=    0.000
 RMSDP=7.55D-09 MaxDP=7.02D-07 DE= 1.00D-10 OVMax= 1.11D-06

 Error on total polarization charges =  0.00330
 SCF Done:  E(RCAM-B3LYP) =  -5406.31053077     A.U. after   13 cycles
            NFock= 13  Conv=0.76D-08     -V/T= 2.0068
 KE= 5.369883177003D+03 PE=-2.647078068290D+04 EE= 8.875647247437D+03
 Leave Link  502 at Sun Mar  3 18:17:07 2024, MaxMem=  5368709120 cpu:      1413.8
 (Enter /home/k0335/k033513/app/g09/l601.exe)
 Copying SCF densities to generalized density rwf, IOpCl= 0 IROHF=0.

 **********************************************************************

            Population analysis using the SCF density.

 **********************************************************************

 Alpha  occ. eigenvalues -- -482.97226 -61.93159 -56.45290 -56.44918 -56.44906
 Alpha  occ. eigenvalues --  -24.84385 -24.83878 -24.83720 -24.83656 -24.83648
 Alpha  occ. eigenvalues --  -24.83547 -24.83532 -24.83467 -24.83317 -24.83230
 Alpha  occ. eigenvalues --  -24.83220 -24.83158 -24.83126 -24.83120 -24.82927
 Alpha  occ. eigenvalues --  -24.82918 -24.82880 -24.82129 -19.33370 -19.32951
 Alpha  occ. eigenvalues --  -19.24661 -19.24313 -19.24190 -14.53566 -14.53418
 Alpha  occ. eigenvalues --  -14.51182 -10.59833 -10.59525 -10.55826 -10.55633
 Alpha  occ. eigenvalues --  -10.53792 -10.53630 -10.49298 -10.49221 -10.47146
 Alpha  occ. eigenvalues --  -10.46294 -10.46122 -10.33568 -10.33106  -8.65368
 Alpha  occ. eigenvalues --   -6.60907  -6.59638  -6.59618  -2.72666  -2.72313
 Alpha  occ. eigenvalues --   -2.72295  -2.71287  -2.71286  -1.43476  -1.43279
 Alpha  occ. eigenvalues --   -1.42145  -1.41957  -1.39415  -1.38706  -1.35947
 Alpha  occ. eigenvalues --   -1.35731  -1.33793  -1.33593  -1.33524  -1.33450
 Alpha  occ. eigenvalues --   -1.33138  -1.33005  -1.32540  -1.32340  -1.31894
 Alpha  occ. eigenvalues --   -1.31133  -1.23720  -1.20891  -1.20407  -1.18439
 Alpha  occ. eigenvalues --   -1.18173  -1.10409  -1.08987  -1.07189  -0.94266
 Alpha  occ. eigenvalues --   -0.93521  -0.91635  -0.86423  -0.84356  -0.84215
 Alpha  occ. eigenvalues --   -0.82766  -0.82281  -0.79199  -0.79177  -0.77124
 Alpha  occ. eigenvalues --   -0.76063  -0.75100  -0.74058  -0.73198  -0.72676
 Alpha  occ. eigenvalues --   -0.72117  -0.71583  -0.70725  -0.70483  -0.70002
 Alpha  occ. eigenvalues --   -0.69685  -0.69010  -0.68803  -0.68455  -0.67725
 Alpha  occ. eigenvalues --   -0.67484  -0.66961  -0.66543  -0.65747  -0.65003
 Alpha  occ. eigenvalues --   -0.64167  -0.62705  -0.60358  -0.60242  -0.59667
 Alpha  occ. eigenvalues --   -0.57939  -0.57745  -0.57435  -0.57268  -0.57134
 Alpha  occ. eigenvalues --   -0.56674  -0.56402  -0.56332  -0.56035  -0.55825
 Alpha  occ. eigenvalues --   -0.55664  -0.55534  -0.55147  -0.54808  -0.54662
 Alpha  occ. eigenvalues --   -0.54604  -0.54122  -0.54048  -0.53729  -0.53403
 Alpha  occ. eigenvalues --   -0.53253  -0.52972  -0.52708  -0.52575  -0.52070
 Alpha  occ. eigenvalues --   -0.51991  -0.51886  -0.51746  -0.51104  -0.50880
 Alpha  occ. eigenvalues --   -0.50852  -0.50630  -0.50500  -0.50375  -0.50125
 Alpha  occ. eigenvalues --   -0.49762  -0.49407  -0.49145  -0.49101  -0.48978
 Alpha  occ. eigenvalues --   -0.48655  -0.47824  -0.46119  -0.46022  -0.44903
 Alpha  occ. eigenvalues --   -0.44564  -0.43204  -0.40782  -0.39771  -0.39535
 Alpha  occ. eigenvalues --   -0.38702  -0.37566  -0.36266  -0.34593  -0.34197
 Alpha virt. eigenvalues --   -0.00123   0.00461   0.05087   0.05338   0.06111
 Alpha virt. eigenvalues --    0.06910   0.08320   0.10804   0.13443   0.13953
 Alpha virt. eigenvalues --    0.14778   0.15969   0.17195   0.17461   0.18491
 Alpha virt. eigenvalues --    0.19299   0.19681   0.20018   0.20803   0.21388
 Alpha virt. eigenvalues --    0.21879   0.22242   0.22462   0.22698   0.22929
 Alpha virt. eigenvalues --    0.23213   0.24015   0.24637   0.24894   0.24986
 Alpha virt. eigenvalues --    0.25546   0.26069   0.26556   0.27090   0.27225
 Alpha virt. eigenvalues --    0.28488   0.28826   0.29325   0.30553   0.31227
 Alpha virt. eigenvalues --    0.32636   0.33628   0.36206   0.38236   0.38400
 Alpha virt. eigenvalues --    0.39584   0.40088   0.45284   0.46494   0.46773
 Alpha virt. eigenvalues --    0.47878   0.48306   0.49099   0.49711   0.50195
 Alpha virt. eigenvalues --    0.50554   0.50902   0.51256   0.51766   0.52316
 Alpha virt. eigenvalues --    0.52931   0.53592   0.53726   0.54166   0.54918
 Alpha virt. eigenvalues --    0.55197   0.55602   0.55805   0.56514   0.56828
 Alpha virt. eigenvalues --    0.57306   0.57619   0.59352   0.59423   0.59663
 Alpha virt. eigenvalues --    0.60917   0.61018   0.61845   0.62733   0.63331
 Alpha virt. eigenvalues --    0.63899   0.65760   0.67710   0.68731   0.69533
 Alpha virt. eigenvalues --    0.70255   0.72369   0.73316   0.74558   0.75105
 Alpha virt. eigenvalues --    0.75796   0.78763   0.79033   0.80421   0.82189
 Alpha virt. eigenvalues --    0.83581   0.83854   0.84527   0.85348   0.86653
 Alpha virt. eigenvalues --    0.86979   0.87698   0.88409   0.89327   0.90576
 Alpha virt. eigenvalues --    0.91187   0.92291   0.93271   0.94252   0.94431
 Alpha virt. eigenvalues --    0.96871   0.97279   0.97473   0.98305   1.00065
 Alpha virt. eigenvalues --    1.00384   1.01116   1.01650   1.02538   1.03698
 Alpha virt. eigenvalues --    1.04603   1.06509   1.07270   1.08026   1.08260
 Alpha virt. eigenvalues --    1.08607   1.09394   1.10128   1.10351   1.11568
 Alpha virt. eigenvalues --    1.11679   1.12321   1.12950   1.13575   1.14044
 Alpha virt. eigenvalues --    1.15628   1.16354   1.16743   1.17025   1.17752
 Alpha virt. eigenvalues --    1.18406   1.19217   1.19402   1.19814   1.20821
 Alpha virt. eigenvalues --    1.21934   1.22949   1.23612   1.24268   1.25185
 Alpha virt. eigenvalues --    1.25843   1.27105   1.27394   1.28976   1.29247
 Alpha virt. eigenvalues --    1.30054   1.30768   1.31517   1.32282   1.32648
 Alpha virt. eigenvalues --    1.33271   1.34130   1.34253   1.34810   1.35556
 Alpha virt. eigenvalues --    1.36004   1.36795   1.37098   1.37514   1.37976
 Alpha virt. eigenvalues --    1.38432   1.38632   1.39198   1.39849   1.40129
 Alpha virt. eigenvalues --    1.40368   1.41114   1.41527   1.41627   1.42766
 Alpha virt. eigenvalues --    1.43279   1.43914   1.44511   1.44890   1.45670
 Alpha virt. eigenvalues --    1.46296   1.46833   1.47477   1.47672   1.49007
 Alpha virt. eigenvalues --    1.49699   1.50207   1.50497   1.51079   1.51380
 Alpha virt. eigenvalues --    1.52363   1.53297   1.54859   1.55280   1.56041
 Alpha virt. eigenvalues --    1.56266   1.57319   1.57646   1.58473   1.59616
 Alpha virt. eigenvalues --    1.59819   1.60416   1.61041   1.61545   1.63822
 Alpha virt. eigenvalues --    1.64299   1.65012   1.66129   1.66412   1.67845
 Alpha virt. eigenvalues --    1.68237   1.68762   1.69693   1.70519   1.70991
 Alpha virt. eigenvalues --    1.71649   1.72826   1.73334   1.73724   1.74114
 Alpha virt. eigenvalues --    1.74835   1.75671   1.76260   1.77475   1.78299
 Alpha virt. eigenvalues --    1.78917   1.79566   1.80691   1.80957   1.81962
 Alpha virt. eigenvalues --    1.82780   1.83449   1.83704   1.84027   1.84290
 Alpha virt. eigenvalues --    1.84722   1.84922   1.85561   1.86170   1.87011
 Alpha virt. eigenvalues --    1.87090   1.87346   1.87946   1.88329   1.88900
 Alpha virt. eigenvalues --    1.89137   1.89705   1.90014   1.90352   1.90607
 Alpha virt. eigenvalues --    1.91426   1.92223   1.92449   1.92847   1.93222
 Alpha virt. eigenvalues --    1.93526   1.93670   1.94054   1.94271   1.95076
 Alpha virt. eigenvalues --    1.95645   1.95900   1.96708   1.97009   1.97819
 Alpha virt. eigenvalues --    1.98014   1.99158   1.99361   1.99667   1.99825
 Alpha virt. eigenvalues --    2.00526   2.00714   2.00942   2.01701   2.01927
 Alpha virt. eigenvalues --    2.02287   2.02775   2.03169   2.03667   2.03726
 Alpha virt. eigenvalues --    2.03974   2.04196   2.04780   2.05271   2.05834
 Alpha virt. eigenvalues --    2.06939   2.07549   2.07850   2.08322   2.08886
 Alpha virt. eigenvalues --    2.09246   2.10049   2.10620   2.10765   2.11664
 Alpha virt. eigenvalues --    2.11932   2.12183   2.13991   2.14276   2.15924
 Alpha virt. eigenvalues --    2.16499   2.17731   2.18043   2.18356   2.18820
 Alpha virt. eigenvalues --    2.19306   2.19745   2.20525   2.20687   2.21081
 Alpha virt. eigenvalues --    2.22175   2.22716   2.24167   2.25585   2.26625
 Alpha virt. eigenvalues --    2.27186   2.27619   2.28035   2.28394   2.30716
 Alpha virt. eigenvalues --    2.30999   2.32523   2.32720   2.34543   2.36252
 Alpha virt. eigenvalues --    2.36784   2.37566   2.38342   2.40122   2.40810
 Alpha virt. eigenvalues --    2.41746   2.42580   2.42844   2.43685   2.44414
 Alpha virt. eigenvalues --    2.45265   2.46516   2.47405   2.48240   2.49122
 Alpha virt. eigenvalues --    2.49761   2.50902   2.51930   2.52969   2.55335
 Alpha virt. eigenvalues --    2.56723   2.57732   2.58627   2.59899   2.61098
 Alpha virt. eigenvalues --    2.62057   2.62721   2.63787   2.64293   2.65172
 Alpha virt. eigenvalues --    2.66026   2.66836   2.69201   2.69935   2.72206
 Alpha virt. eigenvalues --    2.72497   2.74144   2.75827   2.76089   2.77330
 Alpha virt. eigenvalues --    2.78003   2.79933   2.81292   2.82607   2.83485
 Alpha virt. eigenvalues --    2.84728   2.84921   2.87146   2.88022   2.88586
 Alpha virt. eigenvalues --    2.90314   2.91139   2.91349   2.91958   2.92448
 Alpha virt. eigenvalues --    2.93353   2.93983   2.94541   2.95152   2.96253
 Alpha virt. eigenvalues --    2.97891   2.99101   3.00108   3.02160   3.04351
 Alpha virt. eigenvalues --    3.04919   3.05048   3.05445   3.06363   3.06622
 Alpha virt. eigenvalues --    3.08279   3.09404   3.12073   3.12763   3.14380
 Alpha virt. eigenvalues --    3.16039   3.17071   3.18455   3.18976   3.21726
 Alpha virt. eigenvalues --    3.22608   3.25700   3.28785   3.29537   3.30424
 Alpha virt. eigenvalues --    3.30720   3.31695   3.33395   3.34696   3.36267
 Alpha virt. eigenvalues --    3.44164   3.48855   3.52809   3.57481   4.02478
 Alpha virt. eigenvalues --    4.08450   4.15461   4.19063   4.21010   4.26767
 Alpha virt. eigenvalues --    4.29393   4.33033   4.36422   4.36965   4.41632
 Alpha virt. eigenvalues --    4.43643   4.47295   4.47497   4.48334   4.55576
 Alpha virt. eigenvalues --    4.57770   4.62616   4.64925   4.67036   4.72792
 Alpha virt. eigenvalues --    4.78147   4.82192   4.86220   4.87860   5.00349
 Alpha virt. eigenvalues --    5.08078   5.23996   5.25624   5.31224   5.42893
 Alpha virt. eigenvalues --    5.49394   5.61448   5.64472   5.67274   6.22167
 Alpha virt. eigenvalues --    6.31639   6.38037   6.68342   8.70181  73.26217
          Condensed to atoms (all electrons):
               1          2          3          4          5          6
     1  O    8.095706   0.570652  -0.091860   0.003384  -0.006030   0.000073
     2  C    0.570652   4.186260   0.254898  -0.024553  -0.003179   0.001176
     3  N   -0.091860   0.254898   7.310541   0.248560  -0.047208  -0.004256
     4  C    0.003384  -0.024553   0.248560   4.855510   0.345550  -0.056722
     5  C   -0.006030  -0.003179  -0.047208   0.345550   4.980540   0.246528
     6  Br   0.000073   0.001176  -0.004256  -0.056722   0.246528  35.043818
     7  C    0.000655  -0.020392   0.260946  -0.024495  -0.001968   0.006223
     8  O   -0.000025   0.000365  -0.086331  -0.004870  -0.000602  -0.000226
     9  N   -0.000009   0.000252  -0.092372   0.002652  -0.000150  -0.000412
    10  C    0.000000   0.000041   0.001917  -0.000015   0.000002  -0.000012
    11  F    0.000000   0.000000  -0.000021   0.000000   0.000000   0.000000
    12  F    0.000000  -0.000007   0.000031   0.000005   0.000000   0.000000
    13  C    0.000000   0.000042  -0.000258   0.000002   0.000000   0.000004
    14  F    0.000000   0.000004   0.000017   0.000000   0.000000   0.000005
    15  O    0.000000   0.000000   0.000000   0.000000   0.000000   0.000000
    16  C    0.000000   0.000000   0.000000   0.000000   0.000000   0.000000
    17  F    0.000000   0.000000   0.000000   0.000000   0.000000   0.000000
    18  F    0.000000   0.000000   0.000000   0.000000   0.000000   0.000000
    19  F    0.000000   0.000000   0.000000   0.000000   0.000000   0.000000
    20  C    0.000000  -0.000005   0.000020   0.000000   0.000000   0.000002
    21  F    0.000000   0.000000   0.000000   0.000000   0.000000   0.000000
    22  F    0.000000   0.000000   0.000000   0.000000   0.000000   0.000000
    23  F    0.000000   0.000134  -0.000082   0.000000   0.000000   0.000002
    24  C   -0.000017  -0.013725  -0.004218   0.000129  -0.000001   0.000145
    25  O   -0.000030  -0.000168   0.000176   0.000002   0.000000   0.000000
    26  N   -0.088558   0.203219  -0.094517   0.003977  -0.000333  -0.000223
    27  C    0.015820  -0.013802   0.002063  -0.000034   0.000009  -0.000006
    28  F    0.000009   0.000854  -0.000024   0.000000   0.000000   0.000000
    29  F   -0.009562   0.007881   0.000004   0.000009  -0.000006   0.000000
    30  C   -0.001939  -0.000947  -0.000298   0.000003   0.000000   0.000000
    31  F   -0.003579   0.008331   0.000014   0.000003   0.000000   0.000000
    32  O   -0.000026   0.000080  -0.000003   0.000000   0.000000   0.000000
    33  C   -0.000004  -0.000007   0.000000   0.000000   0.000000   0.000000
    34  F    0.000000   0.000001   0.000000   0.000000   0.000000   0.000000
    35  F    0.000000   0.000000   0.000000   0.000000   0.000000   0.000000
    36  F    0.000000   0.000000   0.000000   0.000000   0.000000   0.000000
    37  C   -0.000019   0.000334   0.000000   0.000000   0.000000   0.000000
    38  F    0.000000   0.000000   0.000000   0.000000   0.000000   0.000000
    39  F    0.000000   0.000000   0.000000   0.000000   0.000000   0.000000
    40  F   -0.000001  -0.000006   0.000000   0.000000   0.000000   0.000000
    41  H    0.006653  -0.004174  -0.039343   0.382986  -0.033737   0.004654
    42  H    0.000445   0.003784  -0.032426   0.391690  -0.034981  -0.002617
    43  H    0.006805   0.004485  -0.007123  -0.029725   0.383700  -0.042495
    44  H    0.000061  -0.000065   0.003478  -0.030667   0.385373  -0.038211
               7          8          9         10         11         12
     1  O    0.000655  -0.000025  -0.000009   0.000000   0.000000   0.000000
     2  C   -0.020392   0.000365   0.000252   0.000041   0.000000  -0.000007
     3  N    0.260946  -0.086331  -0.092372   0.001917  -0.000021   0.000031
     4  C   -0.024495  -0.004870   0.002652  -0.000015   0.000000   0.000005
     5  C   -0.001968  -0.000602  -0.000150   0.000002   0.000000   0.000000
     6  Br   0.006223  -0.000226  -0.000412  -0.000012   0.000000   0.000000
     7  C    4.162084   0.570894   0.199979  -0.013254   0.000528   0.008239
     8  O    0.570894   8.091165  -0.086671   0.015203   0.000010  -0.008677
     9  N    0.199979  -0.086671   7.617907   0.163851  -0.038486  -0.047208
    10  C   -0.013254   0.015203   0.163851   4.381123   0.280960   0.272262
    11  F    0.000528   0.000010  -0.038486   0.280960   9.086433  -0.043631
    12  F    0.008239  -0.008677  -0.047208   0.272262  -0.043631   9.107037
    13  C   -0.002686  -0.001308  -0.069009   0.225867  -0.037934  -0.023351
    14  F    0.009002  -0.005651  -0.000519  -0.023113   0.000286  -0.000276
    15  O    0.000172  -0.000045   0.001648  -0.020561   0.000102  -0.000290
    16  C   -0.000003  -0.000004  -0.000004   0.000922  -0.000077   0.000026
    17  F    0.000001   0.000000   0.000000   0.000199   0.000000   0.000000
    18  F    0.000000   0.000000   0.000000  -0.000042   0.000000   0.000000
    19  F    0.000000   0.000000   0.000000  -0.000174   0.000001   0.000000
    20  C   -0.000208  -0.000062  -0.001770  -0.037790   0.006293   0.001509
    21  F    0.000020   0.000000  -0.000475   0.002464   0.000015   0.000000
    22  F    0.000002   0.000000  -0.000020   0.001488  -0.000001  -0.000001
    23  F    0.001664  -0.000007  -0.003967  -0.004189  -0.000207   0.000003
    24  C   -0.009991   0.000147   0.186905  -0.006205   0.006600   0.000366
    25  O   -0.000018  -0.000031  -0.086936   0.010793  -0.015723   0.000015
    26  N   -0.001633   0.000064  -0.094037   0.001260   0.000067  -0.000026
    27  C    0.000147   0.000000   0.001787   0.000014   0.000008   0.000000
    28  F   -0.000003   0.000000   0.000046   0.000005   0.000000   0.000000
    29  F   -0.000002   0.000000  -0.000025   0.000000   0.000000   0.000000
    30  C    0.000053   0.000000  -0.000124  -0.000002   0.000000   0.000000
    31  F    0.000004   0.000000   0.000001   0.000000   0.000000   0.000000
    32  O    0.000016   0.000000  -0.000516   0.000010  -0.000002   0.000000
    33  C    0.000000   0.000000  -0.000007   0.000000   0.000000   0.000000
    34  F    0.000000   0.000000   0.000000   0.000000   0.000000   0.000000
    35  F    0.000000   0.000000   0.000000   0.000000   0.000000   0.000000
    36  F    0.000000   0.000000   0.000000   0.000000   0.000000   0.000000
    37  C    0.000000   0.000000  -0.000001   0.000000   0.000000   0.000000
    38  F    0.000000   0.000000   0.000000   0.000000   0.000000   0.000000
    39  F    0.000000   0.000000   0.000000   0.000000   0.000000   0.000000
    40  F    0.000000   0.000000   0.000000   0.000000   0.000000   0.000000
    41  H    0.003146   0.000449  -0.000104   0.000000   0.000000   0.000000
    42  H   -0.001566   0.010979   0.000622  -0.000001   0.000000   0.000000
    43  H   -0.000220  -0.000024   0.000002   0.000000   0.000000   0.000000
    44  H    0.000068  -0.000021   0.000001   0.000000   0.000000   0.000000
              13         14         15         16         17         18
     1  O    0.000000   0.000000   0.000000   0.000000   0.000000   0.000000
     2  C    0.000042   0.000004   0.000000   0.000000   0.000000   0.000000
     3  N   -0.000258   0.000017   0.000000   0.000000   0.000000   0.000000
     4  C    0.000002   0.000000   0.000000   0.000000   0.000000   0.000000
     5  C    0.000000   0.000000   0.000000   0.000000   0.000000   0.000000
     6  Br   0.000004   0.000005   0.000000   0.000000   0.000000   0.000000
     7  C   -0.002686   0.009002   0.000172  -0.000003   0.000001   0.000000
     8  O   -0.001308  -0.005651  -0.000045  -0.000004   0.000000   0.000000
     9  N   -0.069009  -0.000519   0.001648  -0.000004   0.000000   0.000000
    10  C    0.225867  -0.023113  -0.020561   0.000922   0.000199  -0.000042
    11  F   -0.037934   0.000286   0.000102  -0.000077   0.000000   0.000000
    12  F   -0.023351  -0.000276  -0.000290   0.000026   0.000000   0.000000
    13  C    4.994256   0.228583   0.162474  -0.001757   0.013082   0.000676
    14  F    0.228583   9.113988  -0.049590  -0.000732  -0.002479  -0.000023
    15  O    0.162474  -0.049590   8.345416   0.236174  -0.044931  -0.039127
    16  C   -0.001757  -0.000732   0.236174   3.825563   0.295377   0.338817
    17  F    0.013082  -0.002479  -0.044931   0.295377   9.058006  -0.036254
    18  F    0.000676  -0.000023  -0.039127   0.338817  -0.036254   9.012214
    19  F   -0.009406  -0.000016  -0.048348   0.301329  -0.033964  -0.037648
    20  C    0.171348  -0.016873  -0.030308  -0.004028  -0.004719  -0.000012
    21  F   -0.034052   0.000316   0.000529  -0.000359   0.000011   0.000000
    22  F   -0.026084  -0.000151  -0.001407   0.011894  -0.001872  -0.000004
    23  F   -0.022097  -0.000356   0.000594   0.000053   0.000000   0.000000
    24  C   -0.001882  -0.000202   0.000050   0.000000   0.000000   0.000000
    25  O   -0.003825   0.000004   0.000002   0.000000   0.000000   0.000000
    26  N   -0.000144   0.000001   0.000000   0.000000   0.000000   0.000000
    27  C    0.000000   0.000000   0.000000   0.000000   0.000000   0.000000
    28  F    0.000000   0.000000   0.000000   0.000000   0.000000   0.000000
    29  F    0.000000   0.000000   0.000000   0.000000   0.000000   0.000000
    30  C    0.000000   0.000000   0.000000   0.000000   0.000000   0.000000
    31  F    0.000000   0.000000   0.000000   0.000000   0.000000   0.000000
    32  O    0.000000   0.000000   0.000000   0.000000   0.000000   0.000000
    33  C    0.000000   0.000000   0.000000   0.000000   0.000000   0.000000
    34  F    0.000000   0.000000   0.000000   0.000000   0.000000   0.000000
    35  F    0.000000   0.000000   0.000000   0.000000   0.000000   0.000000
    36  F    0.000000   0.000000   0.000000   0.000000   0.000000   0.000000
    37  C    0.000000   0.000000   0.000000   0.000000   0.000000   0.000000
    38  F    0.000000   0.000000   0.000000   0.000000   0.000000   0.000000
    39  F    0.000000   0.000000   0.000000   0.000000   0.000000   0.000000
    40  F    0.000000   0.000000   0.000000   0.000000   0.000000   0.000000
    41  H    0.000000   0.000000   0.000000   0.000000   0.000000   0.000000
    42  H    0.000000   0.000002   0.000000   0.000000   0.000000   0.000000
    43  H    0.000000   0.000000   0.000000   0.000000   0.000000   0.000000
    44  H    0.000000   0.000000   0.000000   0.000000   0.000000   0.000000
              19         20         21         22         23         24
     1  O    0.000000   0.000000   0.000000   0.000000   0.000000  -0.000017
     2  C    0.000000  -0.000005   0.000000   0.000000   0.000134  -0.013725
     3  N    0.000000   0.000020   0.000000   0.000000  -0.000082  -0.004218
     4  C    0.000000   0.000000   0.000000   0.000000   0.000000   0.000129
     5  C    0.000000   0.000000   0.000000   0.000000   0.000000  -0.000001
     6  Br   0.000000   0.000002   0.000000   0.000000   0.000002   0.000145
     7  C    0.000000  -0.000208   0.000020   0.000002   0.001664  -0.009991
     8  O    0.000000  -0.000062   0.000000   0.000000  -0.000007   0.000147
     9  N    0.000000  -0.001770  -0.000475  -0.000020  -0.003967   0.186905
    10  C   -0.000174  -0.037790   0.002464   0.001488  -0.004189  -0.006205
    11  F    0.000001   0.006293   0.000015  -0.000001  -0.000207   0.006600
    12  F    0.000000   0.001509   0.000000  -0.000001   0.000003   0.000366
    13  C   -0.009406   0.171348  -0.034052  -0.026084  -0.022097  -0.001882
    14  F   -0.000016  -0.016873   0.000316  -0.000151  -0.000356  -0.000202
    15  O   -0.048348  -0.030308   0.000529  -0.001407   0.000594   0.000050
    16  C    0.301329  -0.004028  -0.000359   0.011894   0.000053   0.000000
    17  F   -0.033964  -0.004719   0.000011  -0.001872   0.000000   0.000000
    18  F   -0.037648  -0.000012   0.000000  -0.000004   0.000000   0.000000
    19  F    9.063495   0.018072  -0.000453  -0.007433   0.000000   0.000000
    20  C    0.018072   4.257579   0.275616   0.276002   0.266444   0.001726
    21  F   -0.000453   0.275616   9.064868  -0.038602  -0.035470  -0.000277
    22  F   -0.007433   0.276002  -0.038602   9.078229  -0.039568   0.000011
    23  F    0.000000   0.266444  -0.035470  -0.039568   9.075586   0.018441
    24  C    0.000000   0.001726  -0.000277   0.000011   0.018441   4.209927
    25  O    0.000000   0.005307   0.000207  -0.000002  -0.005332   0.549751
    26  N    0.000000  -0.000105  -0.000003   0.000000  -0.001617   0.196128
    27  C    0.000000   0.000000   0.000000   0.000000   0.000017  -0.006748
    28  F    0.000000  -0.000003   0.000000   0.000000  -0.000005   0.004099
    29  F    0.000000   0.000000   0.000000   0.000000   0.000000   0.000505
    30  C    0.000000   0.000000   0.000000   0.000000   0.000000  -0.003447
    31  F    0.000000   0.000000   0.000000   0.000000   0.000000  -0.000423
    32  O    0.000000   0.000000   0.000000   0.000000   0.000000   0.005200
    33  C    0.000000   0.000000   0.000000   0.000000   0.000000   0.000110
    34  F    0.000000   0.000000   0.000000   0.000000   0.000000   0.000000
    35  F    0.000000   0.000000   0.000000   0.000000   0.000000  -0.000014
    36  F    0.000000   0.000000   0.000000   0.000000   0.000000   0.000002
    37  C    0.000000   0.000000   0.000000   0.000000   0.000000   0.000004
    38  F    0.000000   0.000000   0.000000   0.000000   0.000000   0.000000
    39  F    0.000000   0.000000   0.000000   0.000000   0.000000   0.000002
    40  F    0.000000   0.000000   0.000000   0.000000   0.000000   0.000002
    41  H    0.000000   0.000000   0.000000   0.000000   0.000000  -0.000008
    42  H    0.000000   0.000000   0.000000   0.000000   0.000000  -0.000021
    43  H    0.000000   0.000000   0.000000   0.000000   0.000000   0.000000
    44  H    0.000000   0.000000   0.000000   0.000000   0.000000   0.000000
              25         26         27         28         29         30
     1  O   -0.000030  -0.088558   0.015820   0.000009  -0.009562  -0.001939
     2  C   -0.000168   0.203219  -0.013802   0.000854   0.007881  -0.000947
     3  N    0.000176  -0.094517   0.002063  -0.000024   0.000004  -0.000298
     4  C    0.000002   0.003977  -0.000034   0.000000   0.000009   0.000003
     5  C    0.000000  -0.000333   0.000009   0.000000  -0.000006   0.000000
     6  Br   0.000000  -0.000223  -0.000006   0.000000   0.000000   0.000000
     7  C   -0.000018  -0.001633   0.000147  -0.000003  -0.000002   0.000053
     8  O   -0.000031   0.000064   0.000000   0.000000   0.000000   0.000000
     9  N   -0.086936  -0.094037   0.001787   0.000046  -0.000025  -0.000124
    10  C    0.010793   0.001260   0.000014   0.000005   0.000000  -0.000002
    11  F   -0.015723   0.000067   0.000008   0.000000   0.000000   0.000000
    12  F    0.000015  -0.000026   0.000000   0.000000   0.000000   0.000000
    13  C   -0.003825  -0.000144   0.000000   0.000000   0.000000   0.000000
    14  F    0.000004   0.000001   0.000000   0.000000   0.000000   0.000000
    15  O    0.000002   0.000000   0.000000   0.000000   0.000000   0.000000
    16  C    0.000000   0.000000   0.000000   0.000000   0.000000   0.000000
    17  F    0.000000   0.000000   0.000000   0.000000   0.000000   0.000000
    18  F    0.000000   0.000000   0.000000   0.000000   0.000000   0.000000
    19  F    0.000000   0.000000   0.000000   0.000000   0.000000   0.000000
    20  C    0.005307  -0.000105   0.000000  -0.000003   0.000000   0.000000
    21  F    0.000207  -0.000003   0.000000   0.000000   0.000000   0.000000
    22  F   -0.000002   0.000000   0.000000   0.000000   0.000000   0.000000
    23  F   -0.005332  -0.001617   0.000017  -0.000005   0.000000   0.000000
    24  C    0.549751   0.196128  -0.006748   0.004099   0.000505  -0.003447
    25  O    8.128931  -0.087602   0.014236  -0.011094   0.000016  -0.003392
    26  N   -0.087602   7.580539   0.180899  -0.037374  -0.039498  -0.068491
    27  C    0.014236   0.180899   4.362407   0.271055   0.271410   0.210563
    28  F   -0.011094  -0.037374   0.271055   9.092860  -0.041788  -0.035592
    29  F    0.000016  -0.039498   0.271410  -0.041788   9.094602  -0.024615
    30  C   -0.003392  -0.068491   0.210563  -0.035592  -0.024615   4.994377
    31  F    0.000006  -0.001188  -0.021885   0.000304  -0.000146   0.220850
    32  O   -0.001992   0.000151  -0.026525   0.000844   0.000550   0.154145
    33  C    0.000344  -0.000187   0.000973  -0.000052   0.000005   0.001621
    34  F    0.000000  -0.000003   0.000204   0.000000   0.000000   0.012981
    35  F   -0.000003   0.000002  -0.000032   0.000000   0.000000   0.000552
    36  F   -0.000002   0.000001  -0.000170   0.000001   0.000000  -0.009031
    37  C   -0.000023   0.003096  -0.030459   0.006954  -0.000768   0.208737
    38  F    0.000000  -0.000013   0.001347   0.000000  -0.000002  -0.031620
    39  F   -0.000001  -0.000024   0.000533  -0.000730  -0.000184  -0.032610
    40  F    0.000000   0.000044   0.005697  -0.000764  -0.002664  -0.028554
    41  H    0.000000   0.000238   0.000008   0.000000   0.000001   0.000001
    42  H    0.000000  -0.000067   0.000001   0.000000   0.000000   0.000000
    43  H    0.000000  -0.000058   0.000003   0.000000   0.000001   0.000000
    44  H    0.000000  -0.000001   0.000000   0.000000   0.000000   0.000000
              31         32         33         34         35         36
     1  O   -0.003579  -0.000026  -0.000004   0.000000   0.000000   0.000000
     2  C    0.008331   0.000080  -0.000007   0.000001   0.000000   0.000000
     3  N    0.000014  -0.000003   0.000000   0.000000   0.000000   0.000000
     4  C    0.000003   0.000000   0.000000   0.000000   0.000000   0.000000
     5  C    0.000000   0.000000   0.000000   0.000000   0.000000   0.000000
     6  Br   0.000000   0.000000   0.000000   0.000000   0.000000   0.000000
     7  C    0.000004   0.000016   0.000000   0.000000   0.000000   0.000000
     8  O    0.000000   0.000000   0.000000   0.000000   0.000000   0.000000
     9  N    0.000001  -0.000516  -0.000007   0.000000   0.000000   0.000000
    10  C    0.000000   0.000010   0.000000   0.000000   0.000000   0.000000
    11  F    0.000000  -0.000002   0.000000   0.000000   0.000000   0.000000
    12  F    0.000000   0.000000   0.000000   0.000000   0.000000   0.000000
    13  C    0.000000   0.000000   0.000000   0.000000   0.000000   0.000000
    14  F    0.000000   0.000000   0.000000   0.000000   0.000000   0.000000
    15  O    0.000000   0.000000   0.000000   0.000000   0.000000   0.000000
    16  C    0.000000   0.000000   0.000000   0.000000   0.000000   0.000000
    17  F    0.000000   0.000000   0.000000   0.000000   0.000000   0.000000
    18  F    0.000000   0.000000   0.000000   0.000000   0.000000   0.000000
    19  F    0.000000   0.000000   0.000000   0.000000   0.000000   0.000000
    20  C    0.000000   0.000000   0.000000   0.000000   0.000000   0.000000
    21  F    0.000000   0.000000   0.000000   0.000000   0.000000   0.000000
    22  F    0.000000   0.000000   0.000000   0.000000   0.000000   0.000000
    23  F    0.000000   0.000000   0.000000   0.000000   0.000000   0.000000
    24  C   -0.000423   0.005200   0.000110   0.000000  -0.000014   0.000002
    25  O    0.000006  -0.001992   0.000344   0.000000  -0.000003  -0.000002
    26  N   -0.001188   0.000151  -0.000187  -0.000003   0.000002   0.000001
    27  C   -0.021885  -0.026525   0.000973   0.000204  -0.000032  -0.000170
    28  F    0.000304   0.000844  -0.000052   0.000000   0.000000   0.000001
    29  F   -0.000146   0.000550   0.000005   0.000000   0.000000   0.000000
    30  C    0.220850   0.154145   0.001621   0.012981   0.000552  -0.009031
    31  F    9.123979  -0.053305  -0.001013  -0.001477  -0.000021  -0.000015
    32  O   -0.053305   8.357238   0.233593  -0.046289  -0.039392  -0.047327
    33  C   -0.001013   0.233593   3.820058   0.295393   0.339837   0.303011
    34  F   -0.001477  -0.046289   0.295393   9.058727  -0.036675  -0.033797
    35  F   -0.000021  -0.039392   0.339837  -0.036675   9.011167  -0.037207
    36  F   -0.000015  -0.047327   0.303011  -0.033797  -0.037207   9.055788
    37  C   -0.015101  -0.026832  -0.003452  -0.004263  -0.000025   0.017763
    38  F   -0.000057  -0.001507   0.012123  -0.002013  -0.000004  -0.006739
    39  F    0.000310   0.000309  -0.000393   0.000014   0.000000  -0.000470
    40  F   -0.000270   0.000541   0.000058   0.000001   0.000000   0.000000
    41  H   -0.000002   0.000000   0.000000   0.000000   0.000000   0.000000
    42  H    0.000000   0.000000   0.000000   0.000000   0.000000   0.000000
    43  H    0.000000   0.000000   0.000000   0.000000   0.000000   0.000000
    44  H    0.000000   0.000000   0.000000   0.000000   0.000000   0.000000
              37         38         39         40         41         42
     1  O   -0.000019   0.000000   0.000000  -0.000001   0.006653   0.000445
     2  C    0.000334   0.000000   0.000000  -0.000006  -0.004174   0.003784
     3  N    0.000000   0.000000   0.000000   0.000000  -0.039343  -0.032426
     4  C    0.000000   0.000000   0.000000   0.000000   0.382986   0.391690
     5  C    0.000000   0.000000   0.000000   0.000000  -0.033737  -0.034981
     6  Br   0.000000   0.000000   0.000000   0.000000   0.004654  -0.002617
     7  C    0.000000   0.000000   0.000000   0.000000   0.003146  -0.001566
     8  O    0.000000   0.000000   0.000000   0.000000   0.000449   0.010979
     9  N   -0.000001   0.000000   0.000000   0.000000  -0.000104   0.000622
    10  C    0.000000   0.000000   0.000000   0.000000   0.000000  -0.000001
    11  F    0.000000   0.000000   0.000000   0.000000   0.000000   0.000000
    12  F    0.000000   0.000000   0.000000   0.000000   0.000000   0.000000
    13  C    0.000000   0.000000   0.000000   0.000000   0.000000   0.000000
    14  F    0.000000   0.000000   0.000000   0.000000   0.000000   0.000002
    15  O    0.000000   0.000000   0.000000   0.000000   0.000000   0.000000
    16  C    0.000000   0.000000   0.000000   0.000000   0.000000   0.000000
    17  F    0.000000   0.000000   0.000000   0.000000   0.000000   0.000000
    18  F    0.000000   0.000000   0.000000   0.000000   0.000000   0.000000
    19  F    0.000000   0.000000   0.000000   0.000000   0.000000   0.000000
    20  C    0.000000   0.000000   0.000000   0.000000   0.000000   0.000000
    21  F    0.000000   0.000000   0.000000   0.000000   0.000000   0.000000
    22  F    0.000000   0.000000   0.000000   0.000000   0.000000   0.000000
    23  F    0.000000   0.000000   0.000000   0.000000   0.000000   0.000000
    24  C    0.000004   0.000000   0.000002   0.000002  -0.000008  -0.000021
    25  O   -0.000023   0.000000  -0.000001   0.000000   0.000000   0.000000
    26  N    0.003096  -0.000013  -0.000024   0.000044   0.000238  -0.000067
    27  C   -0.030459   0.001347   0.000533   0.005697   0.000008   0.000001
    28  F    0.006954   0.000000  -0.000730  -0.000764   0.000000   0.000000
    29  F   -0.000768  -0.000002  -0.000184  -0.002664   0.000001   0.000000
    30  C    0.208737  -0.031620  -0.032610  -0.028554   0.000001   0.000000
    31  F   -0.015101  -0.000057   0.000310  -0.000270  -0.000002   0.000000
    32  O   -0.026832  -0.001507   0.000309   0.000541   0.000000   0.000000
    33  C   -0.003452   0.012123  -0.000393   0.000058   0.000000   0.000000
    34  F   -0.004263  -0.002013   0.000014   0.000001   0.000000   0.000000
    35  F   -0.000025  -0.000004   0.000000   0.000000   0.000000   0.000000
    36  F    0.017763  -0.006739  -0.000470   0.000000   0.000000   0.000000
    37  C    4.192161   0.281428   0.267877   0.287681   0.000000   0.000000
    38  F    0.281428   9.084566  -0.038774  -0.040035   0.000000   0.000000
    39  F    0.267877  -0.038774   9.086816  -0.037936   0.000000   0.000000
    40  F    0.287681  -0.040035  -0.037936   9.059863   0.000000   0.000000
    41  H    0.000000   0.000000   0.000000   0.000000   0.533743  -0.024315
    42  H    0.000000   0.000000   0.000000   0.000000  -0.024315   0.500726
    43  H    0.000000   0.000000   0.000000   0.000000  -0.003094   0.003846
    44  H    0.000000   0.000000   0.000000   0.000000  -0.000631  -0.002319
              43         44
     1  O    0.006805   0.000061
     2  C    0.004485  -0.000065
     3  N   -0.007123   0.003478
     4  C   -0.029725  -0.030667
     5  C    0.383700   0.385373
     6  Br  -0.042495  -0.038211
     7  C   -0.000220   0.000068
     8  O   -0.000024  -0.000021
     9  N    0.000002   0.000001
    10  C    0.000000   0.000000
    11  F    0.000000   0.000000
    12  F    0.000000   0.000000
    13  C    0.000000   0.000000
    14  F    0.000000   0.000000
    15  O    0.000000   0.000000
    16  C    0.000000   0.000000
    17  F    0.000000   0.000000
    18  F    0.000000   0.000000
    19  F    0.000000   0.000000
    20  C    0.000000   0.000000
    21  F    0.000000   0.000000
    22  F    0.000000   0.000000
    23  F    0.000000   0.000000
    24  C    0.000000   0.000000
    25  O    0.000000   0.000000
    26  N   -0.000058  -0.000001
    27  C    0.000003   0.000000
    28  F    0.000000   0.000000
    29  F    0.000001   0.000000
    30  C    0.000000   0.000000
    31  F    0.000000   0.000000
    32  O    0.000000   0.000000
    33  C    0.000000   0.000000
    34  F    0.000000   0.000000
    35  F    0.000000   0.000000
    36  F    0.000000   0.000000
    37  C    0.000000   0.000000
    38  F    0.000000   0.000000
    39  F    0.000000   0.000000
    40  F    0.000000   0.000000
    41  H   -0.003094  -0.000631
    42  H    0.003846  -0.002319
    43  H    0.526777  -0.025474
    44  H   -0.025474   0.526511
 Mulliken charges:
               1
     1  O   -0.498605
     2  C    0.838241
     3  N   -0.582329
     4  C   -0.063384
     5  C   -0.213506
     6  Br  -0.157451
     7  C    0.852598
     8  O   -0.494721
     9  N   -0.652832
    10  C    0.746974
    11  F   -0.245221
    12  F   -0.266024
    13  C    0.437457
    14  F   -0.252228
    15  O   -0.512555
    16  C    0.996812
    17  F   -0.242457
    18  F   -0.238597
    19  F   -0.245455
    20  C    0.815965
    21  F   -0.234352
    22  F   -0.252482
    23  F   -0.250041
    24  C    0.866929
    25  O   -0.493616
    26  N   -0.653984
    27  C    0.760460
    28  F   -0.249602
    29  F   -0.255727
    30  C    0.436780
    31  F   -0.255320
    32  O   -0.508960
    33  C    0.997988
    34  F   -0.242806
    35  F   -0.238185
    36  F   -0.241807
    37  C    0.814907
    38  F   -0.258700
    39  F   -0.244737
    40  F   -0.243657
    41  H    0.173527
    42  H    0.186218
    43  H    0.182592
    44  H    0.181898
 Sum of Mulliken charges =   0.00000
 Mulliken charges with hydrogens summed into heavy atoms:
               1
     1  O   -0.498605
     2  C    0.838241
     3  N   -0.582329
     4  C    0.296360
     5  C    0.150983
     6  Br  -0.157451
     7  C    0.852598
     8  O   -0.494721
     9  N   -0.652832
    10  C    0.746974
    11  F   -0.245221
    12  F   -0.266024
    13  C    0.437457
    14  F   -0.252228
    15  O   -0.512555
    16  C    0.996812
    17  F   -0.242457
    18  F   -0.238597
    19  F   -0.245455
    20  C    0.815965
    21  F   -0.234352
    22  F   -0.252482
    23  F   -0.250041
    24  C    0.866929
    25  O   -0.493616
    26  N   -0.653984
    27  C    0.760460
    28  F   -0.249602
    29  F   -0.255727
    30  C    0.436780
    31  F   -0.255320
    32  O   -0.508960
    33  C    0.997988
    34  F   -0.242806
    35  F   -0.238185
    36  F   -0.241807
    37  C    0.814907
    38  F   -0.258700
    39  F   -0.244737
    40  F   -0.243657
 Electronic spatial extent (au):  <R**2>=          21985.3162
 Charge=              0.0000 electrons
 Dipole moment (field-independent basis, Debye):
    X=             -1.5718    Y=              2.8495    Z=              1.5060  Tot=              3.5859
 Quadrupole moment (field-independent basis, Debye-Ang):
   XX=           -237.0423   YY=           -219.1580   ZZ=           -225.4720
   XY=             -5.3097   XZ=             -4.6576   YZ=              5.0942
 Traceless Quadrupole moment (field-independent basis, Debye-Ang):
   XX=             -9.8182   YY=              8.0661   ZZ=              1.7521
   XY=             -5.3097   XZ=             -4.6576   YZ=              5.0942
 Octapole moment (field-independent basis, Debye-Ang**2):
  XXX=            -60.0966  YYY=            133.0492  ZZZ=             84.7392  XYY=            -49.8890
  XXY=            -15.3638  XXZ=             16.9444  XZZ=            -33.9714  YZZ=             20.6157
  YYZ=             62.9320  XYZ=              5.4340
 Hexadecapole moment (field-independent basis, Debye-Ang**3):
 XXXX=         -13934.2933 YYYY=          -6269.7097 ZZZZ=          -2065.0325 XXXY=           -232.5314
 XXXZ=             21.6568 YYYX=           -352.6389 YYYZ=            441.6434 ZZZX=             65.9188
 ZZZY=            316.3701 XXYY=          -3508.1396 XXZZ=          -2673.6744 YYZZ=          -1459.8921
 XXYZ=             75.8527 YYXZ=             41.3467 ZZXY=            -78.9573
 N-N= 6.818939727684D+03 E-N=-2.647078068184D+04  KE= 5.369883177003D+03
 No NMR shielding tensors so no spin-rotation constants.
 Leave Link  601 at Sun Mar  3 18:17:07 2024, MaxMem=  5368709120 cpu:         3.0
 (Enter /home/k0335/k033513/app/g09/l9999.exe)
 1\1\GINC-C18U05N1\SP\RCAM-B3LYP\6-31G(d,p)\C13H4Br1F18N3O5\K033513\03-
 Mar-2024\0\\#p CAM-B3LYP/6-31G(d,p) SCRF=(PCM,Solvent=Generic,Read) No
 Symm out=wfn\\Title A154147350_0\\0,1\O,0,-2.228769,2.321557,0.086799\
 C,0,-1.186517,1.670873,0.061264\N,0,-0.010674,2.180032,0.570496\C,0,0.
 032556,3.606865,0.917569\C,0,-0.028788,4.530621,-0.295644\Br,0,1.53400
 9,4.298676,-1.436848\C,0,1.093923,1.393857,0.826005\O,0,2.15267,1.8721
 49,1.22382\N,0,0.930338,0.045217,0.621987\C,0,2.040131,-0.825363,0.989
 268\F,0,1.594581,-2.100077,1.202281\F,0,2.444406,-0.44785,2.24837\C,0,
 3.295921,-0.87725,0.075162\F,0,3.787561,0.382932,-0.10172\O,0,4.312223
 ,-1.605563,0.786608\C,0,5.457846,-1.860892,0.01983\F,0,5.803823,-0.797
 439,-0.721017\F,0,6.472496,-2.163071,0.850658\F,0,5.22438,-2.919913,-0
 .773501\C,0,2.875168,-1.447402,-1.280583\F,0,2.4189,-2.711837,-1.18705
 6\F,0,3.901875,-1.4623,-2.162762\F,0,1.9091,-0.692024,-1.856246\C,0,-0
 .122918,-0.469747,-0.092486\O,0,-0.17085,-1.659867,-0.39223\N,0,-1.111
 318,0.407403,-0.461791\C,0,-2.308185,-0.126501,-1.102004\F,0,-1.940042
 ,-1.073082,-2.012208\F,0,-2.857328,0.853727,-1.874911\C,0,-3.365656,-0
 .709113,-0.130424\F,0,-3.833229,0.290937,0.673266\O,0,-2.733681,-1.639
 144,0.757691\C,0,-3.646836,-2.397418,1.506831\F,0,-4.623039,-1.622493,
 2.003214\F,0,-2.985732,-2.968975,2.529836\F,0,-4.165902,-3.362149,0.73
 2087\C,0,-4.496298,-1.237028,-1.024862\F,0,-5.557574,-1.650293,-0.2903
 91\F,0,-4.101094,-2.297021,-1.764356\F,0,-4.971883,-0.303518,-1.877255
 \H,0,-0.832026,3.816518,1.559524\H,0,0.924376,3.831392,1.512949\H,0,-0
 .899141,4.34482,-0.92972\H,0,-0.028804,5.579751,0.012502\\Version=ES64
 L-G09RevD.01\HF=-5406.3105308\RMSD=7.553e-09\Dipole=-0.6184061,1.12107
 46,0.5925195\Quadrupole=-7.2995843,5.9969437,1.3026406,-3.9476412,-3.4
 628157,3.7874113\PG=C01 [X(C13H4Br1F18N3O5)]\\@

 Writing a WFN file to "A154147350/A154147350_0.wfn"


 TO SEE A WORLD IN A GRAIN OF SAND
 AND A HEAVEN IN A WILD FLOWER
 HOLD INFINITY IN THE PALM OF YOUR HAND
 AND ETERNITY IN AN HOUR

                       -- WILLIAM BLAKE
 Job cpu time:       0 days  0 hours 24 minutes 24.7 seconds.
 File lengths (MBytes):  RWF=    446 Int=      0 D2E=      0 Chk=     16 Scr=      1
 Normal termination of Gaussian 09 at Sun Mar  3 18:17:07 2024.
