 Entering Gaussian System, Link 0=g09
 Initial command:
 /home/k0335/k033513/app/g09/l1.exe "/home/k0335/k033513/app/g09/scratch/Gau-363769.inp" -scrdir="/home/k0335/k033513/app/g09/scratch/"
 Default is to use a total of  36 processors:
                               36 via shared-memory
                                1 via Linda
 Entering Link 1 = /home/k0335/k033513/app/g09/l1.exe PID=    363770.
  
 Copyright (c) 1988,1990,1992,1993,1995,1998,2003,2009,2013,
            Gaussian, Inc.  All Rights Reserved.
  
 This is part of the Gaussian(R) 09 program.  It is based on
 the Gaussian(R) 03 system (copyright 2003, Gaussian, Inc.),
 the Gaussian(R) 98 system (copyright 1998, Gaussian, Inc.),
 the Gaussian(R) 94 system (copyright 1995, Gaussian, Inc.),
 the Gaussian 92(TM) system (copyright 1992, Gaussian, Inc.),
 the Gaussian 90(TM) system (copyright 1990, Gaussian, Inc.),
 the Gaussian 88(TM) system (copyright 1988, Gaussian, Inc.),
 the Gaussian 86(TM) system (copyright 1986, Carnegie Mellon
 University), and the Gaussian 82(TM) system (copyright 1983,
 Carnegie Mellon University). Gaussian is a federally registered
 trademark of Gaussian, Inc.
  
 This software contains proprietary and confidential information,
 including trade secrets, belonging to Gaussian, Inc.
  
 This software is provided under written license and may be
 used, copied, transmitted, or stored only in accord with that
 written license.
  
 The following legend is applicable only to US Government
 contracts under FAR:
  
                    RESTRICTED RIGHTS LEGEND
  
 Use, reproduction and disclosure by the US Government is
 subject to restrictions as set forth in subparagraphs (a)
 and (c) of the Commercial Computer Software - Restricted
 Rights clause in FAR 52.227-19.
  
 Gaussian, Inc.
 340 Quinnipiac St., Bldg. 40, Wallingford CT 06492
  
  
 ---------------------------------------------------------------
 Warning -- This program may not be used in any manner that
 competes with the business of Gaussian, Inc. or will provide
 assistance to any competitor of Gaussian, Inc.  The licensee
 of this program is prohibited from giving any competitor of
 Gaussian, Inc. access to this program.  By using this program,
 the user acknowledges that Gaussian, Inc. is engaged in the
 business of creating and licensing software in the field of
 computational chemistry and represents and warrants to the
 licensee that it is not a competitor of Gaussian, Inc. and that
 it will not use this program in any manner prohibited above.
 ---------------------------------------------------------------
  

 Cite this work as:
 Gaussian 09, Revision D.01,
 M. J. Frisch, G. W. Trucks, H. B. Schlegel, G. E. Scuseria, 
 M. A. Robb, J. R. Cheeseman, G. Scalmani, V. Barone, B. Mennucci, 
 G. A. Petersson, H. Nakatsuji, M. Caricato, X. Li, H. P. Hratchian, 
 A. F. Izmaylov, J. Bloino, G. Zheng, J. L. Sonnenberg, M. Hada, 
 M. Ehara, K. Toyota, R. Fukuda, J. Hasegawa, M. Ishida, T. Nakajima, 
 Y. Honda, O. Kitao, H. Nakai, T. Vreven, J. A. Montgomery, Jr., 
 J. E. Peralta, F. Ogliaro, M. Bearpark, J. J. Heyd, E. Brothers, 
 K. N. Kudin, V. N. Staroverov, T. Keith, R. Kobayashi, J. Normand, 
 K. Raghavachari, A. Rendell, J. C. Burant, S. S. Iyengar, J. Tomasi, 
 M. Cossi, N. Rega, J. M. Millam, M. Klene, J. E. Knox, J. B. Cross, 
 V. Bakken, C. Adamo, J. Jaramillo, R. Gomperts, R. E. Stratmann, 
 O. Yazyev, A. J. Austin, R. Cammi, C. Pomelli, J. W. Ochterski, 
 R. L. Martin, K. Morokuma, V. G. Zakrzewski, G. A. Voth, 
 P. Salvador, J. J. Dannenberg, S. Dapprich, A. D. Daniels, 
 O. Farkas, J. B. Foresman, J. V. Ortiz, J. Cioslowski, 
 and D. J. Fox, Gaussian, Inc., Wallingford CT, 2013.
 
 ******************************************
 Gaussian 09:  ES64L-G09RevD.01 24-Apr-2013
                 6-Feb-2025 
 ******************************************
 %nprocshared=24
 Will use up to   24 processors via shared memory.
 %mem=40GB
 %rwf=cytopopt/EHOPA2/EHOPA2_neu.rwf
 %nosave
 %chk=cytopopt/EHOPA2/EHOPA2_neu.chk
 ----------------------------------------------------------------------
 #p CAM-B3LYP/6-31G(d,p) opt SCRF=(PCM,Solvent=Generic,Read) NoSymm out
 =wfn
 ----------------------------------------------------------------------
 1/14=-1,18=20,19=15,26=3,38=1,40=2/1,3;
 2/9=110,12=2,15=1,17=6,18=5,40=1/2;
 3/5=1,6=6,7=101,11=2,16=1,25=1,30=1,70=2203,71=1,72=-2,74=-40/1,2,3;
 4//1;
 5/5=2,38=5/2;
 6/7=2,8=2,9=2,10=2,28=1/1;
 7/30=1/1,2,3,16;
 1/14=-1,18=20,19=15,26=3/3(2);
 2/9=110,15=1/2;
 99/6=100/99;
 2/9=110,15=1/2;
 3/5=1,6=6,7=101,11=2,16=1,25=1,30=1,70=2205,71=1,72=-2,74=-40/1,2,3;
 4/5=5,16=3,69=1/1;
 5/5=2,38=5/2;
 7/30=1/1,2,3,16;
 1/14=-1,18=20,19=15,26=3/3(-5);
 2/9=110,15=1/2;
 6/7=2,8=2,9=2,10=2,19=2,28=1/1;
 99/6=100,9=1/99;
 Leave Link    1 at Thu Feb  6 06:51:18 2025, MaxMem=  5368709120 cpu:         1.1
 (Enter /home/k0335/k033513/app/g09/l101.exe)
 ----------------
 Title EHOPA2_neu
 ----------------
 Symbolic Z-matrix:
 Charge =  0 Multiplicity = 1
 C                    -6.47801   1.54836   2.08072 
 C                    -5.26794   2.23558   1.46696 
 C                    -4.19123   1.25865   0.98446 
 C                    -4.66525   0.3562   -0.16006 
 C                    -3.54003  -0.43523  -0.87191 
 C                    -4.11021  -1.29611  -2.0213 
 C                    -4.75625  -0.49075  -3.14031 
 C                    -2.75982  -1.3508    0.09126 
 O                    -1.88103  -0.56589   0.89687 
 C                    -1.14309  -1.36641   1.81709 
 C                    -0.29139  -0.46424   2.70349 
 C                     0.62474   0.47505   1.92034 
 N                     1.56362  -0.22396   1.06351 
 C                     2.70453  -0.833     1.55768 
 C                     3.5571   -1.56814   0.50921 
 F                     4.51026  -2.3644    1.06886 
 F                     2.75477  -2.42865  -0.20233 
 C                     4.21703  -0.60212  -0.49952 
 F                     3.22304   0.07661  -1.13326 
 O                     4.88198  -1.37876  -1.52087 
 C                     6.28192  -1.21905  -1.31928 
 F                     6.73064  -0.56051  -2.40832 
 F                     6.87348  -2.4272   -1.31561 
 C                     6.50791  -0.42257  -0.04611 
 F                     6.6091   -1.27651   1.00772 
 F                     7.62375   0.32292  -0.04024 
 C                     5.23737   0.36449   0.08163 
 C                     5.26846   1.73251  -0.58497 
 F                     6.13016   2.51577   0.14139 
 C                     5.65959   1.79066  -2.06026 
 O                     4.69509   1.38026  -2.90635 
 O                     6.74352   2.13588  -2.50457 
 F                     4.04286   2.31843  -0.39343 
 F                     4.97537   0.59748   1.40362 
 O                     3.00522  -0.78802   2.74908 
 H                    -7.02597   0.96224   1.33707 
 H                    -7.16751   2.29494   2.48782 
 H                    -6.17994   0.88213   2.89643 
 H                    -5.59292   2.87325   0.63662 
 H                    -4.82351   2.8981    2.21932 
 H                    -3.32522   1.84286   0.65075 
 H                    -3.86701   0.64939   1.8353 
 H                    -5.17346   0.98998  -0.89556 
 H                    -5.4137   -0.35037   0.21898 
 H                    -2.83714   0.29383  -1.29731 
 H                    -4.83935  -2.0145   -1.62696 
 H                    -3.29682  -1.88461  -2.46421 
 H                    -5.00672  -1.14989  -3.97804 
 H                    -4.07752   0.28377  -3.51075 
 H                    -5.68446  -0.0147   -2.81218 
 H                    -2.15074  -2.06501  -0.47538 
 H                    -3.45151  -1.91309   0.72998 
 H                    -0.51093  -2.0704    1.26413 
 H                    -1.8351   -1.93992   2.44453 
 H                    -0.95581   0.15585   3.31776 
 H                     0.29556  -1.08766   3.38743 
 H                     1.1956    1.09237   2.62329 
 H                     0.04518   1.1507    1.28276 
 H                     1.26561  -0.41357   0.11036 
 H                     5.07613   1.48777  -3.80691 
 
 NAtoms=     60 NQM=       60 NQMF=       0 NMMI=      0 NMMIF=      0
                NMic=       0 NMicF=      0.
                    Isotopes and Nuclear Properties:
 (Nuclear quadrupole moments (NQMom) in fm**2, nuclear magnetic moments (NMagM)
  in nuclear magnetons)

  Atom         1           2           3           4           5           6           7           8           9          10
 IAtWgt=          12          12          12          12          12          12          12          12          16          12
 AtmWgt=  12.0000000  12.0000000  12.0000000  12.0000000  12.0000000  12.0000000  12.0000000  12.0000000  15.9949146  12.0000000
 NucSpn=           0           0           0           0           0           0           0           0           0           0
 AtZEff=   0.0000000   0.0000000   0.0000000   0.0000000   0.0000000   0.0000000   0.0000000   0.0000000   0.0000000   0.0000000
 NQMom=    0.0000000   0.0000000   0.0000000   0.0000000   0.0000000   0.0000000   0.0000000   0.0000000   0.0000000   0.0000000
 NMagM=    0.0000000   0.0000000   0.0000000   0.0000000   0.0000000   0.0000000   0.0000000   0.0000000   0.0000000   0.0000000
 AtZNuc=   6.0000000   6.0000000   6.0000000   6.0000000   6.0000000   6.0000000   6.0000000   6.0000000   8.0000000   6.0000000

  Atom        11          12          13          14          15          16          17          18          19          20
 IAtWgt=          12          12          14          12          12          19          19          12          19          16
 AtmWgt=  12.0000000  12.0000000  14.0030740  12.0000000  12.0000000  18.9984033  18.9984033  12.0000000  18.9984033  15.9949146
 NucSpn=           0           0           2           0           0           1           1           0           1           0
 AtZEff=   0.0000000   0.0000000   0.0000000   0.0000000   0.0000000   0.0000000   0.0000000   0.0000000   0.0000000   0.0000000
 NQMom=    0.0000000   0.0000000   2.0440000   0.0000000   0.0000000   0.0000000   0.0000000   0.0000000   0.0000000   0.0000000
 NMagM=    0.0000000   0.0000000   0.4037610   0.0000000   0.0000000   2.6288670   2.6288670   0.0000000   2.6288670   0.0000000
 AtZNuc=   6.0000000   6.0000000   7.0000000   6.0000000   6.0000000   9.0000000   9.0000000   6.0000000   9.0000000   8.0000000

  Atom        21          22          23          24          25          26          27          28          29          30
 IAtWgt=          12          19          19          12          19          19          12          12          19          12
 AtmWgt=  12.0000000  18.9984033  18.9984033  12.0000000  18.9984033  18.9984033  12.0000000  12.0000000  18.9984033  12.0000000
 NucSpn=           0           1           1           0           1           1           0           0           1           0
 AtZEff=   0.0000000   0.0000000   0.0000000   0.0000000   0.0000000   0.0000000   0.0000000   0.0000000   0.0000000   0.0000000
 NQMom=    0.0000000   0.0000000   0.0000000   0.0000000   0.0000000   0.0000000   0.0000000   0.0000000   0.0000000   0.0000000
 NMagM=    0.0000000   2.6288670   2.6288670   0.0000000   2.6288670   2.6288670   0.0000000   0.0000000   2.6288670   0.0000000
 AtZNuc=   6.0000000   9.0000000   9.0000000   6.0000000   9.0000000   9.0000000   6.0000000   6.0000000   9.0000000   6.0000000

  Atom        31          32          33          34          35          36          37          38          39          40
 IAtWgt=          16          16          19          19          16           1           1           1           1           1
 AtmWgt=  15.9949146  15.9949146  18.9984033  18.9984033  15.9949146   1.0078250   1.0078250   1.0078250   1.0078250   1.0078250
 NucSpn=           0           0           1           1           0           1           1           1           1           1
 AtZEff=   0.0000000   0.0000000   0.0000000   0.0000000   0.0000000   0.0000000   0.0000000   0.0000000   0.0000000   0.0000000
 NQMom=    0.0000000   0.0000000   0.0000000   0.0000000   0.0000000   0.0000000   0.0000000   0.0000000   0.0000000   0.0000000
 NMagM=    0.0000000   0.0000000   2.6288670   2.6288670   0.0000000   2.7928460   2.7928460   2.7928460   2.7928460   2.7928460
 AtZNuc=   8.0000000   8.0000000   9.0000000   9.0000000   8.0000000   1.0000000   1.0000000   1.0000000   1.0000000   1.0000000

  Atom        41          42          43          44          45          46          47          48          49          50
 IAtWgt=           1           1           1           1           1           1           1           1           1           1
 AtmWgt=   1.0078250   1.0078250   1.0078250   1.0078250   1.0078250   1.0078250   1.0078250   1.0078250   1.0078250   1.0078250
 NucSpn=           1           1           1           1           1           1           1           1           1           1
 AtZEff=   0.0000000   0.0000000   0.0000000   0.0000000   0.0000000   0.0000000   0.0000000   0.0000000   0.0000000   0.0000000
 NQMom=    0.0000000   0.0000000   0.0000000   0.0000000   0.0000000   0.0000000   0.0000000   0.0000000   0.0000000   0.0000000
 NMagM=    2.7928460   2.7928460   2.7928460   2.7928460   2.7928460   2.7928460   2.7928460   2.7928460   2.7928460   2.7928460
 AtZNuc=   1.0000000   1.0000000   1.0000000   1.0000000   1.0000000   1.0000000   1.0000000   1.0000000   1.0000000   1.0000000

  Atom        51          52          53          54          55          56          57          58          59          60
 IAtWgt=           1           1           1           1           1           1           1           1           1           1
 AtmWgt=   1.0078250   1.0078250   1.0078250   1.0078250   1.0078250   1.0078250   1.0078250   1.0078250   1.0078250   1.0078250
 NucSpn=           1           1           1           1           1           1           1           1           1           1
 AtZEff=   0.0000000   0.0000000   0.0000000   0.0000000   0.0000000   0.0000000   0.0000000   0.0000000   0.0000000   0.0000000
 NQMom=    0.0000000   0.0000000   0.0000000   0.0000000   0.0000000   0.0000000   0.0000000   0.0000000   0.0000000   0.0000000
 NMagM=    2.7928460   2.7928460   2.7928460   2.7928460   2.7928460   2.7928460   2.7928460   2.7928460   2.7928460   2.7928460
 AtZNuc=   1.0000000   1.0000000   1.0000000   1.0000000   1.0000000   1.0000000   1.0000000   1.0000000   1.0000000   1.0000000
 Leave Link  101 at Thu Feb  6 06:51:18 2025, MaxMem=  5368709120 cpu:         3.4
 (Enter /home/k0335/k033513/app/g09/l103.exe)

 GradGradGradGradGradGradGradGradGradGradGradGradGradGradGradGradGradGrad
 Berny optimization.
 Initialization pass.
                           ----------------------------
                           !    Initial Parameters    !
                           ! (Angstroms and Degrees)  !
 --------------------------                            --------------------------
 ! Name  Definition              Value          Derivative Info.                !
 --------------------------------------------------------------------------------
 ! R1    R(1,2)                  1.5209         estimate D2E/DX2                !
 ! R2    R(1,36)                 1.094          estimate D2E/DX2                !
 ! R3    R(1,37)                 1.0948         estimate D2E/DX2                !
 ! R4    R(1,38)                 1.0946         estimate D2E/DX2                !
 ! R5    R(2,3)                  1.5318         estimate D2E/DX2                !
 ! R6    R(2,39)                 1.0962         estimate D2E/DX2                !
 ! R7    R(2,40)                 1.0966         estimate D2E/DX2                !
 ! R8    R(3,4)                  1.5327         estimate D2E/DX2                !
 ! R9    R(3,41)                 1.0967         estimate D2E/DX2                !
 ! R10   R(3,42)                 1.0956         estimate D2E/DX2                !
 ! R11   R(4,5)                  1.5489         estimate D2E/DX2                !
 ! R12   R(4,43)                 1.0959         estimate D2E/DX2                !
 ! R13   R(4,44)                 1.0969         estimate D2E/DX2                !
 ! R14   R(5,6)                  1.5451         estimate D2E/DX2                !
 ! R15   R(5,8)                  1.541          estimate D2E/DX2                !
 ! R16   R(5,45)                 1.0984         estimate D2E/DX2                !
 ! R17   R(6,7)                  1.5225         estimate D2E/DX2                !
 ! R18   R(6,46)                 1.0969         estimate D2E/DX2                !
 ! R19   R(6,47)                 1.0973         estimate D2E/DX2                !
 ! R20   R(7,48)                 1.095          estimate D2E/DX2                !
 ! R21   R(7,49)                 1.0944         estimate D2E/DX2                !
 ! R22   R(7,50)                 1.0936         estimate D2E/DX2                !
 ! R23   R(8,9)                  1.4274         estimate D2E/DX2                !
 ! R24   R(8,51)                 1.0964         estimate D2E/DX2                !
 ! R25   R(8,52)                 1.0966         estimate D2E/DX2                !
 ! R26   R(9,10)                 1.4256         estimate D2E/DX2                !
 ! R27   R(10,11)                1.5248         estimate D2E/DX2                !
 ! R28   R(10,53)                1.0959         estimate D2E/DX2                !
 ! R29   R(10,54)                1.0961         estimate D2E/DX2                !
 ! R30   R(11,12)                1.528          estimate D2E/DX2                !
 ! R31   R(11,55)                1.0969         estimate D2E/DX2                !
 ! R32   R(11,56)                1.0959         estimate D2E/DX2                !
 ! R33   R(12,13)                1.4506         estimate D2E/DX2                !
 ! R34   R(12,57)                1.0959         estimate D2E/DX2                !
 ! R35   R(12,58)                1.0949         estimate D2E/DX2                !
 ! R36   R(13,14)                1.3845         estimate D2E/DX2                !
 ! R37   R(13,59)                1.0165         estimate D2E/DX2                !
 ! R38   R(14,15)                1.5384         estimate D2E/DX2                !
 ! R39   R(14,35)                1.2296         estimate D2E/DX2                !
 ! R40   R(15,16)                1.3623         estimate D2E/DX2                !
 ! R41   R(15,17)                1.3749         estimate D2E/DX2                !
 ! R42   R(15,18)                1.5447         estimate D2E/DX2                !
 ! R43   R(18,19)                1.3603         estimate D2E/DX2                !
 ! R44   R(18,20)                1.4452         estimate D2E/DX2                !
 ! R45   R(18,27)                1.5209         estimate D2E/DX2                !
 ! R46   R(20,21)                1.4234         estimate D2E/DX2                !
 ! R47   R(21,22)                1.3495         estimate D2E/DX2                !
 ! R48   R(21,23)                1.3452         estimate D2E/DX2                !
 ! R49   R(21,24)                1.5187         estimate D2E/DX2                !
 ! R50   R(24,25)                1.3602         estimate D2E/DX2                !
 ! R51   R(24,26)                1.342          estimate D2E/DX2                !
 ! R52   R(24,27)                1.5            estimate D2E/DX2                !
 ! R53   R(27,28)                1.5221         estimate D2E/DX2                !
 ! R54   R(27,34)                1.3677         estimate D2E/DX2                !
 ! R55   R(28,29)                1.3725         estimate D2E/DX2                !
 ! R56   R(28,30)                1.5274         estimate D2E/DX2                !
 ! R57   R(28,33)                1.3719         estimate D2E/DX2                !
 ! R58   R(30,31)                1.3471         estimate D2E/DX2                !
 ! R59   R(30,32)                1.2213         estimate D2E/DX2                !
 ! R60   R(31,60)                0.9837         estimate D2E/DX2                !
 ! A1    A(2,1,36)             111.4866         estimate D2E/DX2                !
 ! A2    A(2,1,37)             110.0605         estimate D2E/DX2                !
 ! A3    A(2,1,38)             111.0445         estimate D2E/DX2                !
 ! A4    A(36,1,37)            107.6183         estimate D2E/DX2                !
 ! A5    A(36,1,38)            108.4738         estimate D2E/DX2                !
 ! A6    A(37,1,38)            108.0272         estimate D2E/DX2                !
 ! A7    A(1,2,3)              113.4636         estimate D2E/DX2                !
 ! A8    A(1,2,39)             109.4287         estimate D2E/DX2                !
 ! A9    A(1,2,40)             108.5763         estimate D2E/DX2                !
 ! A10   A(3,2,39)             109.9243         estimate D2E/DX2                !
 ! A11   A(3,2,40)             108.4542         estimate D2E/DX2                !
 ! A12   A(39,2,40)            106.7621         estimate D2E/DX2                !
 ! A13   A(2,3,4)              113.1632         estimate D2E/DX2                !
 ! A14   A(2,3,41)             108.1296         estimate D2E/DX2                !
 ! A15   A(2,3,42)             108.5458         estimate D2E/DX2                !
 ! A16   A(4,3,41)             109.3091         estimate D2E/DX2                !
 ! A17   A(4,3,42)             110.1224         estimate D2E/DX2                !
 ! A18   A(41,3,42)            107.3905         estimate D2E/DX2                !
 ! A19   A(3,4,5)              114.795          estimate D2E/DX2                !
 ! A20   A(3,4,43)             107.7029         estimate D2E/DX2                !
 ! A21   A(3,4,44)             109.4073         estimate D2E/DX2                !
 ! A22   A(5,4,43)             108.902          estimate D2E/DX2                !
 ! A23   A(5,4,44)             108.9882         estimate D2E/DX2                !
 ! A24   A(43,4,44)            106.7405         estimate D2E/DX2                !
 ! A25   A(4,5,6)              111.0069         estimate D2E/DX2                !
 ! A26   A(4,5,8)              112.5898         estimate D2E/DX2                !
 ! A27   A(4,5,45)             107.681          estimate D2E/DX2                !
 ! A28   A(6,5,8)              108.7086         estimate D2E/DX2                !
 ! A29   A(6,5,45)             108.533          estimate D2E/DX2                !
 ! A30   A(8,5,45)             108.2052         estimate D2E/DX2                !
 ! A31   A(5,6,7)              114.117          estimate D2E/DX2                !
 ! A32   A(5,6,46)             110.0457         estimate D2E/DX2                !
 ! A33   A(5,6,47)             108.9981         estimate D2E/DX2                !
 ! A34   A(7,6,46)             109.1832         estimate D2E/DX2                !
 ! A35   A(7,6,47)             107.5508         estimate D2E/DX2                !
 ! A36   A(46,6,47)            106.6535         estimate D2E/DX2                !
 ! A37   A(6,7,48)             109.9343         estimate D2E/DX2                !
 ! A38   A(6,7,49)             111.0979         estimate D2E/DX2                !
 ! A39   A(6,7,50)             111.7087         estimate D2E/DX2                !
 ! A40   A(48,7,49)            107.9932         estimate D2E/DX2                !
 ! A41   A(48,7,50)            107.3047         estimate D2E/DX2                !
 ! A42   A(49,7,50)            108.6559         estimate D2E/DX2                !
 ! A43   A(5,8,9)              109.7409         estimate D2E/DX2                !
 ! A44   A(5,8,51)             110.1983         estimate D2E/DX2                !
 ! A45   A(5,8,52)             110.4467         estimate D2E/DX2                !
 ! A46   A(9,8,51)             107.9312         estimate D2E/DX2                !
 ! A47   A(9,8,52)             109.9721         estimate D2E/DX2                !
 ! A48   A(51,8,52)            108.5052         estimate D2E/DX2                !
 ! A49   A(8,9,10)             111.9779         estimate D2E/DX2                !
 ! A50   A(9,10,11)            109.3994         estimate D2E/DX2                !
 ! A51   A(9,10,53)            109.4883         estimate D2E/DX2                !
 ! A52   A(9,10,54)            109.6645         estimate D2E/DX2                !
 ! A53   A(11,10,53)           110.5607         estimate D2E/DX2                !
 ! A54   A(11,10,54)           109.2355         estimate D2E/DX2                !
 ! A55   A(53,10,54)           108.4752         estimate D2E/DX2                !
 ! A56   A(10,11,12)           113.6187         estimate D2E/DX2                !
 ! A57   A(10,11,55)           108.7636         estimate D2E/DX2                !
 ! A58   A(10,11,56)           108.9886         estimate D2E/DX2                !
 ! A59   A(12,11,55)           107.618          estimate D2E/DX2                !
 ! A60   A(12,11,56)           110.392          estimate D2E/DX2                !
 ! A61   A(55,11,56)           107.2484         estimate D2E/DX2                !
 ! A62   A(11,12,13)           113.2392         estimate D2E/DX2                !
 ! A63   A(11,12,57)           109.257          estimate D2E/DX2                !
 ! A64   A(11,12,58)           111.1249         estimate D2E/DX2                !
 ! A65   A(13,12,57)           108.2496         estimate D2E/DX2                !
 ! A66   A(13,12,58)           107.2167         estimate D2E/DX2                !
 ! A67   A(57,12,58)           107.5548         estimate D2E/DX2                !
 ! A68   A(12,13,14)           122.311          estimate D2E/DX2                !
 ! A69   A(12,13,59)           117.0004         estimate D2E/DX2                !
 ! A70   A(14,13,59)           119.6184         estimate D2E/DX2                !
 ! A71   A(13,14,15)           115.0657         estimate D2E/DX2                !
 ! A72   A(13,14,35)           122.0916         estimate D2E/DX2                !
 ! A73   A(15,14,35)           122.8425         estimate D2E/DX2                !
 ! A74   A(14,15,16)           112.774          estimate D2E/DX2                !
 ! A75   A(14,15,17)           109.1705         estimate D2E/DX2                !
 ! A76   A(14,15,18)           112.518          estimate D2E/DX2                !
 ! A77   A(16,15,17)           104.7783         estimate D2E/DX2                !
 ! A78   A(16,15,18)           109.5655         estimate D2E/DX2                !
 ! A79   A(17,15,18)           107.6219         estimate D2E/DX2                !
 ! A80   A(15,18,19)           107.7034         estimate D2E/DX2                !
 ! A81   A(15,18,20)           108.7844         estimate D2E/DX2                !
 ! A82   A(15,18,27)           115.7555         estimate D2E/DX2                !
 ! A83   A(19,18,20)           105.9686         estimate D2E/DX2                !
 ! A84   A(19,18,27)           110.5565         estimate D2E/DX2                !
 ! A85   A(20,18,27)           107.6325         estimate D2E/DX2                !
 ! A86   A(18,20,21)           106.9871         estimate D2E/DX2                !
 ! A87   A(20,21,22)           105.5157         estimate D2E/DX2                !
 ! A88   A(20,21,23)           109.3983         estimate D2E/DX2                !
 ! A89   A(20,21,24)           108.9014         estimate D2E/DX2                !
 ! A90   A(22,21,23)           107.1129         estimate D2E/DX2                !
 ! A91   A(22,21,24)           111.7855         estimate D2E/DX2                !
 ! A92   A(23,21,24)           113.7843         estimate D2E/DX2                !
 ! A93   A(21,24,25)           109.3496         estimate D2E/DX2                !
 ! A94   A(21,24,26)           114.7551         estimate D2E/DX2                !
 ! A95   A(21,24,27)           102.7398         estimate D2E/DX2                !
 ! A96   A(25,24,26)           106.4711         estimate D2E/DX2                !
 ! A97   A(25,24,27)           109.0537         estimate D2E/DX2                !
 ! A98   A(26,24,27)           114.3582         estimate D2E/DX2                !
 ! A99   A(18,27,24)           101.6677         estimate D2E/DX2                !
 ! A100  A(18,27,28)           114.6815         estimate D2E/DX2                !
 ! A101  A(18,27,34)           110.432          estimate D2E/DX2                !
 ! A102  A(24,27,28)           114.6445         estimate D2E/DX2                !
 ! A103  A(24,27,34)           109.5086         estimate D2E/DX2                !
 ! A104  A(28,27,34)           105.9091         estimate D2E/DX2                !
 ! A105  A(27,28,29)           107.0961         estimate D2E/DX2                !
 ! A106  A(27,28,30)           117.5463         estimate D2E/DX2                !
 ! A107  A(27,28,33)           107.7262         estimate D2E/DX2                !
 ! A108  A(29,28,30)           109.1887         estimate D2E/DX2                !
 ! A109  A(29,28,33)           104.0796         estimate D2E/DX2                !
 ! A110  A(30,28,33)           110.3265         estimate D2E/DX2                !
 ! A111  A(28,30,31)           114.3134         estimate D2E/DX2                !
 ! A112  A(28,30,32)           126.1185         estimate D2E/DX2                !
 ! A113  A(31,30,32)           119.5445         estimate D2E/DX2                !
 ! A114  A(30,31,60)           105.3287         estimate D2E/DX2                !
 ! D1    D(36,1,2,3)           -65.8237         estimate D2E/DX2                !
 ! D2    D(36,1,2,39)           57.3396         estimate D2E/DX2                !
 ! D3    D(36,1,2,40)          173.5176         estimate D2E/DX2                !
 ! D4    D(37,1,2,3)           174.8335         estimate D2E/DX2                !
 ! D5    D(37,1,2,39)          -62.0032         estimate D2E/DX2                !
 ! D6    D(37,1,2,40)           54.1748         estimate D2E/DX2                !
 ! D7    D(38,1,2,3)            55.2625         estimate D2E/DX2                !
 ! D8    D(38,1,2,39)          178.4259         estimate D2E/DX2                !
 ! D9    D(38,1,2,40)          -65.3961         estimate D2E/DX2                !
 ! D10   D(1,2,3,4)             64.1754         estimate D2E/DX2                !
 ! D11   D(1,2,3,41)          -174.591          estimate D2E/DX2                !
 ! D12   D(1,2,3,42)           -58.3872         estimate D2E/DX2                !
 ! D13   D(39,2,3,4)           -58.7153         estimate D2E/DX2                !
 ! D14   D(39,2,3,41)           62.5182         estimate D2E/DX2                !
 ! D15   D(39,2,3,42)          178.7221         estimate D2E/DX2                !
 ! D16   D(40,2,3,4)          -175.097          estimate D2E/DX2                !
 ! D17   D(40,2,3,41)          -53.8635         estimate D2E/DX2                !
 ! D18   D(40,2,3,42)           62.3404         estimate D2E/DX2                !
 ! D19   D(2,3,4,5)            167.958          estimate D2E/DX2                !
 ! D20   D(2,3,4,43)            46.4888         estimate D2E/DX2                !
 ! D21   D(2,3,4,44)           -69.1708         estimate D2E/DX2                !
 ! D22   D(41,3,4,5)            47.3923         estimate D2E/DX2                !
 ! D23   D(41,3,4,43)          -74.0769         estimate D2E/DX2                !
 ! D24   D(41,3,4,44)          170.2635         estimate D2E/DX2                !
 ! D25   D(42,3,4,5)           -70.3605         estimate D2E/DX2                !
 ! D26   D(42,3,4,43)          168.1702         estimate D2E/DX2                !
 ! D27   D(42,3,4,44)           52.5107         estimate D2E/DX2                !
 ! D28   D(3,4,5,6)           -179.0967         estimate D2E/DX2                !
 ! D29   D(3,4,5,8)             58.7689         estimate D2E/DX2                !
 ! D30   D(3,4,5,45)           -60.4262         estimate D2E/DX2                !
 ! D31   D(43,4,5,6)           -58.2839         estimate D2E/DX2                !
 ! D32   D(43,4,5,8)           179.5817         estimate D2E/DX2                !
 ! D33   D(43,4,5,45)           60.3866         estimate D2E/DX2                !
 ! D34   D(44,4,5,6)            57.8072         estimate D2E/DX2                !
 ! D35   D(44,4,5,8)           -64.3272         estimate D2E/DX2                !
 ! D36   D(44,4,5,45)          176.4777         estimate D2E/DX2                !
 ! D37   D(4,5,6,7)             62.9706         estimate D2E/DX2                !
 ! D38   D(4,5,6,46)           -60.1619         estimate D2E/DX2                !
 ! D39   D(4,5,6,47)          -176.794          estimate D2E/DX2                !
 ! D40   D(8,5,6,7)           -172.6636         estimate D2E/DX2                !
 ! D41   D(8,5,6,46)            64.204          estimate D2E/DX2                !
 ! D42   D(8,5,6,47)           -52.4281         estimate D2E/DX2                !
 ! D43   D(45,5,6,7)           -55.1849         estimate D2E/DX2                !
 ! D44   D(45,5,6,46)         -178.3174         estimate D2E/DX2                !
 ! D45   D(45,5,6,47)           65.0505         estimate D2E/DX2                !
 ! D46   D(4,5,8,9)            -75.1411         estimate D2E/DX2                !
 ! D47   D(4,5,8,51)           166.1373         estimate D2E/DX2                !
 ! D48   D(4,5,8,52)            46.2637         estimate D2E/DX2                !
 ! D49   D(6,5,8,9)            161.4353         estimate D2E/DX2                !
 ! D50   D(6,5,8,51)            42.7137         estimate D2E/DX2                !
 ! D51   D(6,5,8,52)           -77.1598         estimate D2E/DX2                !
 ! D52   D(45,5,8,9)            43.7483         estimate D2E/DX2                !
 ! D53   D(45,5,8,51)          -74.9733         estimate D2E/DX2                !
 ! D54   D(45,5,8,52)          165.1532         estimate D2E/DX2                !
 ! D55   D(5,6,7,48)           171.9747         estimate D2E/DX2                !
 ! D56   D(5,6,7,49)            52.4941         estimate D2E/DX2                !
 ! D57   D(5,6,7,50)           -69.0159         estimate D2E/DX2                !
 ! D58   D(46,6,7,48)          -64.4261         estimate D2E/DX2                !
 ! D59   D(46,6,7,49)          176.0934         estimate D2E/DX2                !
 ! D60   D(46,6,7,50)           54.5834         estimate D2E/DX2                !
 ! D61   D(47,6,7,48)           50.9323         estimate D2E/DX2                !
 ! D62   D(47,6,7,49)          -68.5483         estimate D2E/DX2                !
 ! D63   D(47,6,7,50)          169.9418         estimate D2E/DX2                !
 ! D64   D(5,8,9,10)           179.4272         estimate D2E/DX2                !
 ! D65   D(51,8,9,10)          -60.4616         estimate D2E/DX2                !
 ! D66   D(52,8,9,10)           57.7378         estimate D2E/DX2                !
 ! D67   D(8,9,10,11)         -176.4978         estimate D2E/DX2                !
 ! D68   D(8,9,10,53)           62.1977         estimate D2E/DX2                !
 ! D69   D(8,9,10,54)          -56.7123         estimate D2E/DX2                !
 ! D70   D(9,10,11,12)         -54.7526         estimate D2E/DX2                !
 ! D71   D(9,10,11,55)          65.0777         estimate D2E/DX2                !
 ! D72   D(9,10,11,56)        -178.3018         estimate D2E/DX2                !
 ! D73   D(53,10,11,12)         65.9009         estimate D2E/DX2                !
 ! D74   D(53,10,11,55)       -174.2687         estimate D2E/DX2                !
 ! D75   D(53,10,11,56)        -57.6482         estimate D2E/DX2                !
 ! D76   D(54,10,11,12)       -174.8014         estimate D2E/DX2                !
 ! D77   D(54,10,11,55)        -54.971          estimate D2E/DX2                !
 ! D78   D(54,10,11,56)         61.6495         estimate D2E/DX2                !
 ! D79   D(10,11,12,13)        -59.6778         estimate D2E/DX2                !
 ! D80   D(10,11,12,57)        179.5902         estimate D2E/DX2                !
 ! D81   D(10,11,12,58)         61.0686         estimate D2E/DX2                !
 ! D82   D(55,11,12,13)        179.8438         estimate D2E/DX2                !
 ! D83   D(55,11,12,57)         59.1118         estimate D2E/DX2                !
 ! D84   D(55,11,12,58)        -59.4098         estimate D2E/DX2                !
 ! D85   D(56,11,12,13)         63.1029         estimate D2E/DX2                !
 ! D86   D(56,11,12,57)        -57.6292         estimate D2E/DX2                !
 ! D87   D(56,11,12,58)       -176.1508         estimate D2E/DX2                !
 ! D88   D(11,12,13,14)        -77.3417         estimate D2E/DX2                !
 ! D89   D(11,12,13,59)         90.7705         estimate D2E/DX2                !
 ! D90   D(57,12,13,14)         43.9592         estimate D2E/DX2                !
 ! D91   D(57,12,13,59)       -147.9286         estimate D2E/DX2                !
 ! D92   D(58,12,13,14)        159.7234         estimate D2E/DX2                !
 ! D93   D(58,12,13,59)        -32.1644         estimate D2E/DX2                !
 ! D94   D(12,13,14,15)        177.9722         estimate D2E/DX2                !
 ! D95   D(12,13,14,35)         -1.8388         estimate D2E/DX2                !
 ! D96   D(59,13,14,15)         10.1608         estimate D2E/DX2                !
 ! D97   D(59,13,14,35)       -169.6502         estimate D2E/DX2                !
 ! D98   D(13,14,15,16)       -167.8064         estimate D2E/DX2                !
 ! D99   D(13,14,15,17)        -51.7761         estimate D2E/DX2                !
 ! D100  D(13,14,15,18)         67.6364         estimate D2E/DX2                !
 ! D101  D(35,14,15,16)         12.003          estimate D2E/DX2                !
 ! D102  D(35,14,15,17)        128.0333         estimate D2E/DX2                !
 ! D103  D(35,14,15,18)       -112.5542         estimate D2E/DX2                !
 ! D104  D(14,15,18,19)        -59.8238         estimate D2E/DX2                !
 ! D105  D(14,15,18,20)       -174.2552         estimate D2E/DX2                !
 ! D106  D(14,15,18,27)         64.4568         estimate D2E/DX2                !
 ! D107  D(16,15,18,19)        173.8722         estimate D2E/DX2                !
 ! D108  D(16,15,18,20)         59.4408         estimate D2E/DX2                !
 ! D109  D(16,15,18,27)        -61.8472         estimate D2E/DX2                !
 ! D110  D(17,15,18,19)         60.4858         estimate D2E/DX2                !
 ! D111  D(17,15,18,20)        -53.9456         estimate D2E/DX2                !
 ! D112  D(17,15,18,27)       -175.2337         estimate D2E/DX2                !
 ! D113  D(15,18,20,21)       -109.6037         estimate D2E/DX2                !
 ! D114  D(19,18,20,21)        134.8388         estimate D2E/DX2                !
 ! D115  D(27,18,20,21)         16.5328         estimate D2E/DX2                !
 ! D116  D(15,18,27,24)         90.0951         estimate D2E/DX2                !
 ! D117  D(15,18,27,28)       -145.6072         estimate D2E/DX2                !
 ! D118  D(15,18,27,34)        -26.0609         estimate D2E/DX2                !
 ! D119  D(19,18,27,24)       -147.1178         estimate D2E/DX2                !
 ! D120  D(19,18,27,28)        -22.8201         estimate D2E/DX2                !
 ! D121  D(19,18,27,34)         96.7262         estimate D2E/DX2                !
 ! D122  D(20,18,27,24)        -31.809          estimate D2E/DX2                !
 ! D123  D(20,18,27,28)         92.4888         estimate D2E/DX2                !
 ! D124  D(20,18,27,34)       -147.9649         estimate D2E/DX2                !
 ! D125  D(18,20,21,22)       -114.5545         estimate D2E/DX2                !
 ! D126  D(18,20,21,23)        130.5149         estimate D2E/DX2                !
 ! D127  D(18,20,21,24)          5.5899         estimate D2E/DX2                !
 ! D128  D(20,21,24,25)         90.3289         estimate D2E/DX2                !
 ! D129  D(20,21,24,26)       -150.1434         estimate D2E/DX2                !
 ! D130  D(20,21,24,27)        -25.4008         estimate D2E/DX2                !
 ! D131  D(22,21,24,25)       -153.4812         estimate D2E/DX2                !
 ! D132  D(22,21,24,26)        -33.9536         estimate D2E/DX2                !
 ! D133  D(22,21,24,27)         90.7891         estimate D2E/DX2                !
 ! D134  D(23,21,24,25)        -31.9846         estimate D2E/DX2                !
 ! D135  D(23,21,24,26)         87.543          estimate D2E/DX2                !
 ! D136  D(23,21,24,27)       -147.7143         estimate D2E/DX2                !
 ! D137  D(21,24,27,18)         33.3336         estimate D2E/DX2                !
 ! D138  D(21,24,27,28)        -90.9891         estimate D2E/DX2                !
 ! D139  D(21,24,27,34)        150.1628         estimate D2E/DX2                !
 ! D140  D(25,24,27,18)        -82.6089         estimate D2E/DX2                !
 ! D141  D(25,24,27,28)        153.0684         estimate D2E/DX2                !
 ! D142  D(25,24,27,34)         34.2203         estimate D2E/DX2                !
 ! D143  D(26,24,27,18)        158.3365         estimate D2E/DX2                !
 ! D144  D(26,24,27,28)         34.0138         estimate D2E/DX2                !
 ! D145  D(26,24,27,34)        -84.8343         estimate D2E/DX2                !
 ! D146  D(18,27,28,29)        173.7869         estimate D2E/DX2                !
 ! D147  D(18,27,28,30)        -62.9649         estimate D2E/DX2                !
 ! D148  D(18,27,28,33)         62.3476         estimate D2E/DX2                !
 ! D149  D(24,27,28,29)        -69.1027         estimate D2E/DX2                !
 ! D150  D(24,27,28,30)         54.1455         estimate D2E/DX2                !
 ! D151  D(24,27,28,33)        179.458          estimate D2E/DX2                !
 ! D152  D(34,27,28,29)         51.7487         estimate D2E/DX2                !
 ! D153  D(34,27,28,30)        174.997          estimate D2E/DX2                !
 ! D154  D(34,27,28,33)        -59.6906         estimate D2E/DX2                !
 ! D155  D(27,28,30,31)         75.3917         estimate D2E/DX2                !
 ! D156  D(27,28,30,32)       -102.8191         estimate D2E/DX2                !
 ! D157  D(29,28,30,31)       -162.4276         estimate D2E/DX2                !
 ! D158  D(29,28,30,32)         19.3616         estimate D2E/DX2                !
 ! D159  D(33,28,30,31)        -48.6239         estimate D2E/DX2                !
 ! D160  D(33,28,30,32)        133.1653         estimate D2E/DX2                !
 ! D161  D(28,30,31,60)        178.9325         estimate D2E/DX2                !
 ! D162  D(32,30,31,60)         -2.7288         estimate D2E/DX2                !
 --------------------------------------------------------------------------------
 Trust Radius=3.00D-01 FncErr=1.00D-07 GrdErr=1.00D-06
 Number of steps in this run=    346 maximum allowed number of steps=    360.
 GradGradGradGradGradGradGradGradGradGradGradGradGradGradGradGradGradGrad

 Leave Link  103 at Thu Feb  6 06:51:18 2025, MaxMem=  5368709120 cpu:         0.2
 (Enter /home/k0335/k033513/app/g09/l202.exe)
 Symmetry turned off by external request.
 Stoichiometry    C19H25F10NO5
 Framework group  C1[X(C19H25F10NO5)]
 Deg. of freedom   174
 Full point group                 C1      NOp   1
                          Input orientation:                          
 ---------------------------------------------------------------------
 Center     Atomic      Atomic             Coordinates (Angstroms)
 Number     Number       Type             X           Y           Z
 ---------------------------------------------------------------------
      1          6           0       -6.478010    1.548360    2.080716
      2          6           0       -5.267938    2.235584    1.466956
      3          6           0       -4.191235    1.258649    0.984460
      4          6           0       -4.665246    0.356196   -0.160061
      5          6           0       -3.540030   -0.435225   -0.871910
      6          6           0       -4.110212   -1.296105   -2.021299
      7          6           0       -4.756247   -0.490752   -3.140311
      8          6           0       -2.759816   -1.350796    0.091255
      9          8           0       -1.881032   -0.565892    0.896865
     10          6           0       -1.143087   -1.366408    1.817094
     11          6           0       -0.291389   -0.464235    2.703493
     12          6           0        0.624744    0.475052    1.920343
     13          7           0        1.563621   -0.223955    1.063514
     14          6           0        2.704531   -0.833001    1.557675
     15          6           0        3.557097   -1.568142    0.509212
     16          9           0        4.510258   -2.364400    1.068862
     17          9           0        2.754774   -2.428646   -0.202326
     18          6           0        4.217030   -0.602124   -0.499519
     19          9           0        3.223040    0.076606   -1.133259
     20          8           0        4.881984   -1.378758   -1.520870
     21          6           0        6.281918   -1.219051   -1.319277
     22          9           0        6.730639   -0.560507   -2.408318
     23          9           0        6.873484   -2.427199   -1.315611
     24          6           0        6.507913   -0.422565   -0.046105
     25          9           0        6.609097   -1.276513    1.007725
     26          9           0        7.623747    0.322923   -0.040243
     27          6           0        5.237367    0.364489    0.081629
     28          6           0        5.268456    1.732507   -0.584968
     29          9           0        6.130157    2.515768    0.141389
     30          6           0        5.659591    1.790664   -2.060256
     31          8           0        4.695085    1.380260   -2.906348
     32          8           0        6.743519    2.135882   -2.504566
     33          9           0        4.042859    2.318433   -0.393432
     34          9           0        4.975374    0.597484    1.403619
     35          8           0        3.005222   -0.788023    2.749079
     36          1           0       -7.025973    0.962239    1.337073
     37          1           0       -7.167509    2.294935    2.487817
     38          1           0       -6.179936    0.882127    2.896426
     39          1           0       -5.592922    2.873253    0.636622
     40          1           0       -4.823508    2.898098    2.219319
     41          1           0       -3.325221    1.842857    0.650745
     42          1           0       -3.867010    0.649386    1.835303
     43          1           0       -5.173463    0.989981   -0.895559
     44          1           0       -5.413695   -0.350374    0.218981
     45          1           0       -2.837139    0.293827   -1.297314
     46          1           0       -4.839349   -2.014495   -1.626961
     47          1           0       -3.296823   -1.884614   -2.464214
     48          1           0       -5.006719   -1.149888   -3.978039
     49          1           0       -4.077524    0.283765   -3.510754
     50          1           0       -5.684464   -0.014697   -2.812175
     51          1           0       -2.150735   -2.065008   -0.475376
     52          1           0       -3.451513   -1.913092    0.729977
     53          1           0       -0.510931   -2.070396    1.264128
     54          1           0       -1.835101   -1.939923    2.444534
     55          1           0       -0.955812    0.155851    3.317759
     56          1           0        0.295562   -1.087661    3.387427
     57          1           0        1.195601    1.092372    2.623293
     58          1           0        0.045182    1.150700    1.282764
     59          1           0        1.265608   -0.413571    0.110360
     60          1           0        5.076128    1.487768   -3.806909
 ---------------------------------------------------------------------
 Rotational constants (GHZ):      0.2125507      0.0470875      0.0461649
 Leave Link  202 at Thu Feb  6 06:51:19 2025, MaxMem=  5368709120 cpu:         0.0
 (Enter /home/k0335/k033513/app/g09/l301.exe)
 Standard basis: 6-31G(d,p) (6D, 7F)
 Ernie: Thresh=  0.10000D-02 Tol=  0.10000D-05 Strict=F.
   650 basis functions,  1155 primitive gaussians,   650 cartesian basis functions
   138 alpha electrons      138 beta electrons
       nuclear repulsion energy      4514.8860669486 Hartrees.
 IExCor=20419 DFT=T Ex+Corr=CAM-B3LYP ExCW=0 ScaHFX=  1.000000
 ScaDFX=  1.000000  1.000000  1.000000  0.810000 ScalE2=  1.000000  1.000000
 IRadAn=      0 IRanWt=     -1 IRanGd=            0 ICorTp=0 IEmpDi=  4
  HFx wShort=  0.000000 wLong=  0.330000 cFull=  0.190000 cShort=  0.000000 cLong=  0.460000
  DFx wShort=  0.000000 wLong=  0.330000 cFull=  0.190000 cShort=  0.000000 cLong=  0.460000
 NAtoms=   60 NActive=   60 NUniq=   60 SFac= 1.00D+00 NAtFMM=   60 NAOKFM=T Big=T
 Integral buffers will be    131072 words long.
 Raffenetti 2 integral format.
 Two-electron integral symmetry is turned off.
 Using the following non-standard input for PCM:
 eps=2.05
 --- end of non-standard input.
 ------------------------------------------------------------------------------
 Polarizable Continuum Model (PCM)
 =================================
 Model                : PCM (using non-symmetric T matrix).
 Atomic radii         : UFF (Universal Force Field).
 Polarization charges : Total charges.
 Charge compensation  : None.
 Solution method      : On-the-fly selection.
 Cavity type          : Scaled VdW (van der Waals Surface) (Alpha=1.100).
 Cavity algorithm     : GePol (No added spheres)
                        Default sphere list used, NSphG=   60.
                        Lebedev-Laikov grids with approx.  5.0 points / Ang**2.
                        Smoothing algorithm: Karplus/York (Gamma=1.0000).
                        Polarization charges: spherical gaussians, with
                                              point-specific exponents (IZeta= 3).
                        Self-potential: point-specific (ISelfS= 7).
                        Self-field    : sphere-specific E.n sum rule (ISelfD= 2).
 1st derivatives      : Analytical E(r).r(x)/FMM algorithm (CHGder, D1EAlg=3).
                        Cavity 1st derivative terms included.
 Solvent              : Generic,
                        Eps                           =   2.050000
                        Eps(infinity)                 =   0.000000
                        RSolv                         =   0.000000 Ang.
                        Molar volume                  =   0.000000 cm**3/mol
                        Thermal expansion coefficient =   0.000000 K**-1
                        Absolute temperature          = 298.150000 K
                        Numeral density               =   0.000000 Ang**-3
                        Hydrogen bond acidity         =   0.000000
                        Hydrogen bond basicity        =   0.000000
                        Surface tension at interface  =   0.000000 (cal/mol)*Ang**-2
                        Carbon aromaticity            =   0.000000
                        Electronegative halogenicity  =   0.000000
 ------------------------------------------------------------------------------
 GePol: Number of generator spheres                  =      60
 GePol: Total number of spheres                      =      60
 GePol: Number of exposed spheres                    =      60 (100.00%)
 GePol: Number of points                             =    4207
 GePol: Average weight of points                     =       0.13
 GePol: Minimum weight of points                     =   0.16D-10
 GePol: Maximum weight of points                     =    0.20577
 GePol: Number of points with low weight             =     258
 GePol: Fraction of low-weight points (<1% of avg)   =       6.13%
 GePol: Cavity surface area                          =    542.567 Ang**2
 GePol: Cavity volume                                =    608.925 Ang**3
 Leave Link  301 at Thu Feb  6 06:51:19 2025, MaxMem=  5368709120 cpu:         0.8
 (Enter /home/k0335/k033513/app/g09/l302.exe)
 NPDir=0 NMtPBC=     1 NCelOv=     1 NCel=       1 NClECP=     1 NCelD=      1
         NCelK=      1 NCelE2=     1 NClLst=     1 CellRange=     0.0.
 One-electron integrals computed using PRISM.
 NBasis=   650 RedAO= T EigKep=  8.48D-04  NBF=   650
 NBsUse=   650 1.00D-06 EigRej= -1.00D+00 NBFU=   650
 Precomputing XC quadrature grid using
 IXCGrd= 4 IRadAn=           0 IRanWt=          -1 IRanGd=           0 AccXCQ= 0.00D+00.
 Generated NRdTot=       0 NPtTot=           0 NUsed=           0 NTot=          32
 NSgBfM=   621   622   622   622   622 MxSgAt=    60 MxSgA2=    60.
 Leave Link  302 at Thu Feb  6 06:51:20 2025, MaxMem=  5368709120 cpu:        14.8
 (Enter /home/k0335/k033513/app/g09/l303.exe)
 DipDrv:  MaxL=1.
 Leave Link  303 at Thu Feb  6 06:51:20 2025, MaxMem=  5368709120 cpu:         1.4
 (Enter /home/k0335/k033513/app/g09/l401.exe)
 ExpMin= 1.61D-01 ExpMax= 7.00D+03 ExpMxC= 1.05D+03 IAcc=1 IRadAn=         1 AccDes= 0.00D+00
 Harris functional with IExCor=20419 and IRadAn=       1 diagonalized for initial guess.
 HarFok:  IExCor=20419 AccDes= 0.00D+00 IRadAn=         1 IDoV= 1 UseB2=F ITyADJ=14
 ICtDFT=  3500011 ScaDFX=  1.000000  1.000000  1.000000  1.000000
 FoFCou: FMM=F IPFlag=           0 FMFlag=      100000 FMFlg1=        2001
         NFxFlg=           0 DoJE=T BraDBF=F KetDBF=T FulRan=T
         wScrn=  0.000000 ICntrl=     500 IOpCl=  0 I1Cent=   200000004 NGrid=           0
         NMat0=    1 NMatS0=      1 NMatT0=    0 NMatD0=    1 NMtDS0=    0 NMtDT0=    0
 Symmetry not used in FoFCou.
 Harris En= -2096.17629045172    
 JPrj=0 DoOrth=F DoCkMO=F.
 Leave Link  401 at Thu Feb  6 06:51:21 2025, MaxMem=  5368709120 cpu:        16.5
 (Enter /home/k0335/k033513/app/g09/l502.exe)
 Closed shell SCF:
 Using DIIS extrapolation, IDIIS=  1040.
 Two-electron integral symmetry not used.
 IVT=     1305670 IEndB=     1305670 NGot=  5368709120 MDV=  5367843241
 LenX=  5367843241 LenY=  5367420091
 Requested convergence on RMS density matrix=1.00D-08 within 128 cycles.
 Requested convergence on MAX density matrix=1.00D-06.
 Requested convergence on             energy=1.00D-06.
 No special actions if energy rises.
 Fock matrices will be formed incrementally for  20 cycles.

 Cycle   1  Pass 1  IDiag  1:
 FoFJK:  IHMeth= 1 ICntrl=       0 DoSepK=T KAlg= 0 I1Cent=   0 FoldK=F
 IRaf=         1 NMat=   1 IRICut=       1 DoRegI=T DoRafI=F ISym2E= 0.
 FoFCou: FMM=T IPFlag=           0 FMFlag=      100000 FMFlg1=        2001
         NFxFlg=           0 DoJE=T BraDBF=F KetDBF=F FulRan=T
         wScrn=  0.000000 ICntrl=     500 IOpCl=  0 I1Cent=           0 NGrid=           0
         NMat0=    1 NMatS0=      1 NMatT0=    0 NMatD0=    1 NMtDS0=    0 NMtDT0=    0
 Symmetry not used in FoFCou.
 FMM levels:  10  Number of levels for PrismC:   9
 Inv3:  Mode=1 IEnd=    53096547.
 Iteration    1 A*A^-1 deviation from unit magnitude is 7.33D-15 for   4196.
 Iteration    1 A*A^-1 deviation from orthogonality  is 4.75D-15 for   4203   1071.
 Iteration    1 A^-1*A deviation from unit magnitude is 7.11D-15 for   4196.
 Iteration    1 A^-1*A deviation from orthogonality  is 2.20D-15 for   3857   3840.
 E= -2166.93079562416    
 DIIS: error= 5.33D-02 at cycle   1 NSaved=   1.
 NSaved= 1 IEnMin= 1 EnMin= -2166.93079562416     IErMin= 1 ErrMin= 5.33D-02
 ErrMax= 5.33D-02  0.00D+00 EMaxC= 1.00D-01 BMatC= 1.76D+00 BMatP= 1.76D+00
 IDIUse=3 WtCom= 4.67D-01 WtEn= 5.33D-01
 Coeff-Com:  0.100D+01
 Coeff-En:   0.100D+01
 Coeff:      0.100D+01
 Gap=     0.436 Goal=   None    Shift=    0.000
 GapD=    0.436 DampG=2.000 DampE=0.500 DampFc=1.0000 IDamp=-1.
 RMSDP=2.43D-03 MaxDP=1.33D-01              OVMax= 1.36D-01

 Cycle   2  Pass 1  IDiag  1:
 RMSU=  2.43D-03    CP:  9.91D-01
 E= -2167.17673174635     Delta-E=       -0.245936122185 Rises=F Damp=F
 DIIS: error= 1.67D-02 at cycle   2 NSaved=   2.
 NSaved= 2 IEnMin= 2 EnMin= -2167.17673174635     IErMin= 2 ErrMin= 1.67D-02
 ErrMax= 1.67D-02  0.00D+00 EMaxC= 1.00D-01 BMatC= 6.62D-01 BMatP= 1.76D+00
 IDIUse=3 WtCom= 8.33D-01 WtEn= 1.67D-01
 Coeff-Com:  0.356D+00 0.644D+00
 Coeff-En:   0.353D+00 0.647D+00
 Coeff:      0.355D+00 0.645D+00
 Gap=     0.364 Goal=   None    Shift=    0.000
 RMSDP=1.18D-03 MaxDP=7.96D-02 DE=-2.46D-01 OVMax= 8.99D-02

 Cycle   3  Pass 1  IDiag  1:
 RMSU=  7.21D-04    CP:  9.99D-01  6.16D-01
 E= -2167.50724867148     Delta-E=       -0.330516925132 Rises=F Damp=F
 DIIS: error= 7.00D-03 at cycle   3 NSaved=   3.
 NSaved= 3 IEnMin= 3 EnMin= -2167.50724867148     IErMin= 3 ErrMin= 7.00D-03
 ErrMax= 7.00D-03  0.00D+00 EMaxC= 1.00D-01 BMatC= 1.24D-01 BMatP= 6.62D-01
 IDIUse=3 WtCom= 9.30D-01 WtEn= 7.00D-02
 Coeff-Com:  0.674D-01 0.316D+00 0.617D+00
 Coeff-En:   0.000D+00 0.120D+00 0.880D+00
 Coeff:      0.627D-01 0.302D+00 0.635D+00
 Gap=     0.332 Goal=   None    Shift=    0.000
 RMSDP=5.26D-04 MaxDP=4.62D-02 DE=-3.31D-01 OVMax= 7.14D-02

 Cycle   4  Pass 1  IDiag  1:
 RMSU=  2.77D-04    CP:  9.94D-01  7.13D-01  4.81D-01
 E= -2167.58072381603     Delta-E=       -0.073475144550 Rises=F Damp=F
 DIIS: error= 2.66D-03 at cycle   4 NSaved=   4.
 NSaved= 4 IEnMin= 4 EnMin= -2167.58072381603     IErMin= 4 ErrMin= 2.66D-03
 ErrMax= 2.66D-03  0.00D+00 EMaxC= 1.00D-01 BMatC= 1.21D-02 BMatP= 1.24D-01
 IDIUse=3 WtCom= 9.73D-01 WtEn= 2.66D-02
 Coeff-Com:  0.645D-02 0.100D+00 0.326D+00 0.568D+00
 Coeff-En:   0.000D+00 0.000D+00 0.316D-01 0.968D+00
 Coeff:      0.628D-02 0.973D-01 0.318D+00 0.578D+00
 Gap=     0.324 Goal=   None    Shift=    0.000
 RMSDP=1.56D-04 MaxDP=1.64D-02 DE=-7.35D-02 OVMax= 2.50D-02

 Cycle   5  Pass 1  IDiag  1:
 RMSU=  7.20D-05    CP:  9.95D-01  7.13D-01  6.12D-01  6.34D-01
 E= -2167.58916830909     Delta-E=       -0.008444493059 Rises=F Damp=F
 DIIS: error= 6.81D-04 at cycle   5 NSaved=   5.
 NSaved= 5 IEnMin= 5 EnMin= -2167.58916830909     IErMin= 5 ErrMin= 6.81D-04
 ErrMax= 6.81D-04  0.00D+00 EMaxC= 1.00D-01 BMatC= 6.98D-04 BMatP= 1.21D-02
 IDIUse=3 WtCom= 9.93D-01 WtEn= 6.81D-03
 Coeff-Com:  0.636D-03 0.404D-01 0.152D+00 0.322D+00 0.485D+00
 Coeff-En:   0.000D+00 0.000D+00 0.000D+00 0.000D+00 0.100D+01
 Coeff:      0.632D-03 0.401D-01 0.151D+00 0.320D+00 0.489D+00
 Gap=     0.311 Goal=   None    Shift=    0.000
 RMSDP=3.57D-05 MaxDP=3.95D-03 DE=-8.44D-03 OVMax= 6.92D-03

 Cycle   6  Pass 1  IDiag  1:
 RMSU=  2.10D-05    CP:  9.95D-01  7.14D-01  6.12D-01  6.52D-01  6.10D-01
 E= -2167.58967308304     Delta-E=       -0.000504773951 Rises=F Damp=F
 DIIS: error= 1.36D-04 at cycle   6 NSaved=   6.
 NSaved= 6 IEnMin= 6 EnMin= -2167.58967308304     IErMin= 6 ErrMin= 1.36D-04
 ErrMax= 1.36D-04  0.00D+00 EMaxC= 1.00D-01 BMatC= 3.25D-05 BMatP= 6.98D-04
 IDIUse=3 WtCom= 9.99D-01 WtEn= 1.36D-03
 Coeff-Com: -0.543D-03 0.431D-02 0.227D-01 0.580D-01 0.202D+00 0.714D+00
 Coeff-En:   0.000D+00 0.000D+00 0.000D+00 0.000D+00 0.000D+00 0.100D+01
 Coeff:     -0.543D-03 0.431D-02 0.227D-01 0.579D-01 0.202D+00 0.714D+00
 Gap=     0.311 Goal=   None    Shift=    0.000
 RMSDP=1.09D-05 MaxDP=7.66D-04 DE=-5.05D-04 OVMax= 1.09D-03

 Cycle   7  Pass 1  IDiag  1:
 RMSU=  7.19D-06    CP:  9.95D-01  7.14D-01  6.15D-01  6.68D-01  6.95D-01
                    CP:  8.78D-01
 E= -2167.58969707500     Delta-E=       -0.000023991958 Rises=F Damp=F
 DIIS: error= 4.46D-05 at cycle   7 NSaved=   7.
 NSaved= 7 IEnMin= 7 EnMin= -2167.58969707500     IErMin= 7 ErrMin= 4.46D-05
 ErrMax= 4.46D-05  0.00D+00 EMaxC= 1.00D-01 BMatC= 4.45D-06 BMatP= 3.25D-05
 IDIUse=1 WtCom= 1.00D+00 WtEn= 0.00D+00
 Coeff-Com: -0.237D-03-0.375D-02-0.107D-01-0.187D-01 0.313D-01 0.321D+00
 Coeff-Com:  0.681D+00
 Coeff:     -0.237D-03-0.375D-02-0.107D-01-0.187D-01 0.313D-01 0.321D+00
 Coeff:      0.681D+00
 Gap=     0.312 Goal=   None    Shift=    0.000
 RMSDP=3.38D-06 MaxDP=2.80D-04 DE=-2.40D-05 OVMax= 4.49D-04

 Cycle   8  Pass 1  IDiag  1:
 RMSU=  2.15D-06    CP:  9.95D-01  7.14D-01  6.16D-01  6.67D-01  7.12D-01
                    CP:  9.70D-01  8.53D-01
 E= -2167.58970093613     Delta-E=       -0.000003861134 Rises=F Damp=F
 DIIS: error= 1.22D-05 at cycle   8 NSaved=   8.
 NSaved= 8 IEnMin= 8 EnMin= -2167.58970093613     IErMin= 8 ErrMin= 1.22D-05
 ErrMax= 1.22D-05  0.00D+00 EMaxC= 1.00D-01 BMatC= 2.73D-07 BMatP= 4.45D-06
 IDIUse=1 WtCom= 1.00D+00 WtEn= 0.00D+00
 Coeff-Com: -0.493D-04-0.172D-02-0.548D-02-0.114D-01 0.624D-03 0.707D-01
 Coeff-Com:  0.260D+00 0.687D+00
 Coeff:     -0.493D-04-0.172D-02-0.548D-02-0.114D-01 0.624D-03 0.707D-01
 Coeff:      0.260D+00 0.687D+00
 Gap=     0.311 Goal=   None    Shift=    0.000
 RMSDP=1.01D-06 MaxDP=8.02D-05 DE=-3.86D-06 OVMax= 1.32D-04

 Cycle   9  Pass 1  IDiag  1:
 RMSU=  7.62D-07    CP:  9.95D-01  7.14D-01  6.16D-01  6.67D-01  7.18D-01
                    CP:  9.83D-01  9.07D-01  1.01D+00
 E= -2167.58970118090     Delta-E=       -0.000000244763 Rises=F Damp=F
 DIIS: error= 4.45D-06 at cycle   9 NSaved=   9.
 NSaved= 9 IEnMin= 9 EnMin= -2167.58970118090     IErMin= 9 ErrMin= 4.45D-06
 ErrMax= 4.45D-06  0.00D+00 EMaxC= 1.00D-01 BMatC= 4.17D-08 BMatP= 2.73D-07
 IDIUse=1 WtCom= 1.00D+00 WtEn= 0.00D+00
 Coeff-Com:  0.921D-05-0.182D-03-0.694D-03-0.221D-02-0.360D-02-0.231D-01
 Coeff-Com:  0.449D-02 0.268D+00 0.757D+00
 Coeff:      0.921D-05-0.182D-03-0.694D-03-0.221D-02-0.360D-02-0.231D-01
 Coeff:      0.449D-02 0.268D+00 0.757D+00
 Gap=     0.311 Goal=   None    Shift=    0.000
 RMSDP=5.17D-07 MaxDP=5.34D-05 DE=-2.45D-07 OVMax= 7.01D-05

 Cycle  10  Pass 1  IDiag  1:
 RMSU=  2.91D-07    CP:  9.95D-01  7.14D-01  6.16D-01  6.67D-01  7.21D-01
                    CP:  9.91D-01  9.34D-01  1.11D+00  9.74D-01
 E= -2167.58970122800     Delta-E=       -0.000000047102 Rises=F Damp=F
 DIIS: error= 1.72D-06 at cycle  10 NSaved=  10.
 NSaved=10 IEnMin=10 EnMin= -2167.58970122800     IErMin=10 ErrMin= 1.72D-06
 ErrMax= 1.72D-06  0.00D+00 EMaxC= 1.00D-01 BMatC= 4.71D-09 BMatP= 4.17D-08
 IDIUse=1 WtCom= 1.00D+00 WtEn= 0.00D+00
 Coeff-Com:  0.107D-04 0.169D-03 0.495D-03 0.667D-03-0.884D-03-0.188D-01
 Coeff-Com: -0.324D-01-0.135D-02 0.269D+00 0.783D+00
 Coeff:      0.107D-04 0.169D-03 0.495D-03 0.667D-03-0.884D-03-0.188D-01
 Coeff:     -0.324D-01-0.135D-02 0.269D+00 0.783D+00
 Gap=     0.311 Goal=   None    Shift=    0.000
 RMSDP=1.89D-07 MaxDP=1.70D-05 DE=-4.71D-08 OVMax= 3.51D-05

 Cycle  11  Pass 1  IDiag  1:
 RMSU=  9.92D-08    CP:  9.95D-01  7.14D-01  6.16D-01  6.67D-01  7.22D-01
                    CP:  9.92D-01  9.45D-01  1.15D+00  1.09D+00  9.80D-01
 E= -2167.58970123294     Delta-E=       -0.000000004940 Rises=F Damp=F
 DIIS: error= 1.10D-06 at cycle  11 NSaved=  11.
 NSaved=11 IEnMin=11 EnMin= -2167.58970123294     IErMin=11 ErrMin= 1.10D-06
 ErrMax= 1.10D-06  0.00D+00 EMaxC= 1.00D-01 BMatC= 1.13D-09 BMatP= 4.71D-09
 IDIUse=1 WtCom= 1.00D+00 WtEn= 0.00D+00
 Coeff-Com:  0.515D-05 0.112D-03 0.344D-03 0.584D-03 0.582D-04-0.781D-02
 Coeff-Com: -0.173D-01-0.280D-01 0.688D-01 0.421D+00 0.562D+00
 Coeff:      0.515D-05 0.112D-03 0.344D-03 0.584D-03 0.582D-04-0.781D-02
 Coeff:     -0.173D-01-0.280D-01 0.688D-01 0.421D+00 0.562D+00
 Gap=     0.311 Goal=   None    Shift=    0.000
 RMSDP=5.98D-08 MaxDP=6.60D-06 DE=-4.94D-09 OVMax= 1.16D-05

 Cycle  12  Pass 1  IDiag  1:
 RMSU=  3.88D-08    CP:  9.95D-01  7.14D-01  6.16D-01  6.67D-01  7.22D-01
                    CP:  9.92D-01  9.46D-01  1.16D+00  1.12D+00  1.06D+00
                    CP:  8.27D-01
 E= -2167.58970123410     Delta-E=       -0.000000001158 Rises=F Damp=F
 DIIS: error= 2.87D-07 at cycle  12 NSaved=  12.
 NSaved=12 IEnMin=12 EnMin= -2167.58970123410     IErMin=12 ErrMin= 2.87D-07
 ErrMax= 2.87D-07  0.00D+00 EMaxC= 1.00D-01 BMatC= 9.92D-11 BMatP= 1.13D-09
 IDIUse=1 WtCom= 1.00D+00 WtEn= 0.00D+00
 Coeff-Com:  0.225D-06 0.179D-04 0.594D-04 0.125D-03 0.279D-03 0.457D-04
 Coeff-Com: -0.128D-02-0.114D-01-0.181D-01 0.345D-01 0.225D+00 0.771D+00
 Coeff:      0.225D-06 0.179D-04 0.594D-04 0.125D-03 0.279D-03 0.457D-04
 Coeff:     -0.128D-02-0.114D-01-0.181D-01 0.345D-01 0.225D+00 0.771D+00
 Gap=     0.311 Goal=   None    Shift=    0.000
 RMSDP=2.20D-08 MaxDP=2.04D-06 DE=-1.16D-09 OVMax= 5.11D-06

 Cycle  13  Pass 1  IDiag  1:
 RMSU=  1.25D-08    CP:  9.95D-01  7.14D-01  6.16D-01  6.67D-01  7.22D-01
                    CP:  9.91D-01  9.47D-01  1.16D+00  1.13D+00  1.09D+00
                    CP:  9.41D-01  9.31D-01
 E= -2167.58970123402     Delta-E=        0.000000000080 Rises=F Damp=F
 DIIS: error= 1.08D-07 at cycle  13 NSaved=  13.
 NSaved=13 IEnMin=12 EnMin= -2167.58970123410     IErMin=13 ErrMin= 1.08D-07
 ErrMax= 1.08D-07  0.00D+00 EMaxC= 1.00D-01 BMatC= 1.92D-11 BMatP= 9.92D-11
 IDIUse=1 WtCom= 1.00D+00 WtEn= 0.00D+00
 Coeff-Com: -0.545D-06-0.386D-05-0.941D-05-0.601D-05 0.148D-03 0.912D-03
 Coeff-Com:  0.141D-02-0.260D-02-0.178D-01-0.336D-01 0.449D-01 0.393D+00
 Coeff-Com:  0.613D+00
 Coeff:     -0.545D-06-0.386D-05-0.941D-05-0.601D-05 0.148D-03 0.912D-03
 Coeff:      0.141D-02-0.260D-02-0.178D-01-0.336D-01 0.449D-01 0.393D+00
 Coeff:      0.613D+00
 Gap=     0.311 Goal=   None    Shift=    0.000
 RMSDP=8.04D-09 MaxDP=8.07D-07 DE= 8.00D-11 OVMax= 1.16D-06

 Error on total polarization charges =  0.00485
 SCF Done:  E(RCAM-B3LYP) =  -2167.58970123     A.U. after   13 cycles
            NFock= 13  Conv=0.80D-08     -V/T= 2.0078
 KE= 2.150837621208D+03 PE=-1.413072393851D+04 EE= 5.297410549117D+03
 Leave Link  502 at Thu Feb  6 06:52:18 2025, MaxMem=  5368709120 cpu:      1199.5
 (Enter /home/k0335/k033513/app/g09/l601.exe)
 Copying SCF densities to generalized density rwf, IOpCl= 0 IROHF=0.

 **********************************************************************

            Population analysis using the SCF density.

 **********************************************************************

 Alpha  occ. eigenvalues --  -24.83628 -24.83376 -24.83141 -24.83071 -24.82830
 Alpha  occ. eigenvalues --  -24.82710 -24.82097 -24.81942 -24.81565 -24.81554
 Alpha  occ. eigenvalues --  -19.32093 -19.30435 -19.25540 -19.22172 -19.21531
 Alpha  occ. eigenvalues --  -14.45222 -10.53162 -10.49475 -10.49154 -10.47476
 Alpha  occ. eigenvalues --  -10.47395 -10.44643 -10.43024 -10.39723 -10.30560
 Alpha  occ. eigenvalues --  -10.30202 -10.29958 -10.26093 -10.26026 -10.25400
 Alpha  occ. eigenvalues --  -10.24653 -10.24570 -10.24414 -10.23980 -10.23972
 Alpha  occ. eigenvalues --   -1.40816  -1.38662  -1.37797  -1.37145  -1.35500
 Alpha  occ. eigenvalues --   -1.34466  -1.33093  -1.31942  -1.30611  -1.30181
 Alpha  occ. eigenvalues --   -1.22515  -1.20462  -1.13587  -1.12523  -1.11086
 Alpha  occ. eigenvalues --   -1.01706  -0.97939  -0.90733  -0.90058  -0.88199
 Alpha  occ. eigenvalues --   -0.86717  -0.86040  -0.82923  -0.81037  -0.79157
 Alpha  occ. eigenvalues --   -0.77915  -0.76965  -0.75694  -0.74458  -0.71969
 Alpha  occ. eigenvalues --   -0.71234  -0.70675  -0.70122  -0.69547  -0.69015
 Alpha  occ. eigenvalues --   -0.68176  -0.67184  -0.66597  -0.65707  -0.65652
 Alpha  occ. eigenvalues --   -0.65410  -0.64378  -0.64331  -0.63918  -0.63545
 Alpha  occ. eigenvalues --   -0.62721  -0.61862  -0.58691  -0.57989  -0.57306
 Alpha  occ. eigenvalues --   -0.56933  -0.56569  -0.56186  -0.55696  -0.55413
 Alpha  occ. eigenvalues --   -0.55054  -0.54673  -0.54190  -0.53675  -0.53598
 Alpha  occ. eigenvalues --   -0.53055  -0.52846  -0.52522  -0.52359  -0.52235
 Alpha  occ. eigenvalues --   -0.52001  -0.51850  -0.51641  -0.50894  -0.50411
 Alpha  occ. eigenvalues --   -0.50365  -0.50201  -0.49790  -0.49621  -0.49097
 Alpha  occ. eigenvalues --   -0.48725  -0.48417  -0.48086  -0.47758  -0.46910
 Alpha  occ. eigenvalues --   -0.46371  -0.46058  -0.45836  -0.44521  -0.44041
 Alpha  occ. eigenvalues --   -0.43955  -0.43026  -0.42495  -0.42220  -0.41453
 Alpha  occ. eigenvalues --   -0.41390  -0.41280  -0.40577  -0.39350  -0.38698
 Alpha  occ. eigenvalues --   -0.38568  -0.38020  -0.37284  -0.36164  -0.35758
 Alpha  occ. eigenvalues --   -0.34443  -0.32634  -0.31918
 Alpha virt. eigenvalues --   -0.00771   0.02611   0.04350   0.07590   0.09623
 Alpha virt. eigenvalues --    0.10924   0.11638   0.13383   0.13871   0.14545
 Alpha virt. eigenvalues --    0.14615   0.14695   0.16420   0.17084   0.17367
 Alpha virt. eigenvalues --    0.17959   0.18580   0.18633   0.19009   0.19914
 Alpha virt. eigenvalues --    0.20322   0.21029   0.21147   0.21797   0.22201
 Alpha virt. eigenvalues --    0.22562   0.23098   0.23259   0.23462   0.24284
 Alpha virt. eigenvalues --    0.24380   0.24757   0.25091   0.25171   0.25311
 Alpha virt. eigenvalues --    0.26235   0.26732   0.26867   0.27240   0.27863
 Alpha virt. eigenvalues --    0.28258   0.28456   0.28541   0.29059   0.29390
 Alpha virt. eigenvalues --    0.29979   0.31017   0.31384   0.31895   0.32318
 Alpha virt. eigenvalues --    0.32845   0.32892   0.33834   0.34541   0.35193
 Alpha virt. eigenvalues --    0.35808   0.36574   0.37207   0.38288   0.39330
 Alpha virt. eigenvalues --    0.41962   0.45027   0.47869   0.49671   0.50406
 Alpha virt. eigenvalues --    0.51497   0.53535   0.54501   0.54951   0.56010
 Alpha virt. eigenvalues --    0.56425   0.56683   0.57074   0.57275   0.57548
 Alpha virt. eigenvalues --    0.58315   0.58695   0.59450   0.59901   0.60717
 Alpha virt. eigenvalues --    0.61217   0.61902   0.62559   0.63411   0.63545
 Alpha virt. eigenvalues --    0.63980   0.64808   0.65843   0.66483   0.67015
 Alpha virt. eigenvalues --    0.67797   0.68333   0.68792   0.69491   0.69965
 Alpha virt. eigenvalues --    0.70764   0.71220   0.71715   0.72409   0.73136
 Alpha virt. eigenvalues --    0.73955   0.74576   0.74947   0.75177   0.76160
 Alpha virt. eigenvalues --    0.77441   0.77684   0.78193   0.78803   0.79890
 Alpha virt. eigenvalues --    0.80434   0.81755   0.83053   0.83308   0.85120
 Alpha virt. eigenvalues --    0.86161   0.86694   0.86974   0.87280   0.88282
 Alpha virt. eigenvalues --    0.89445   0.89949   0.90396   0.90640   0.90873
 Alpha virt. eigenvalues --    0.91714   0.92270   0.92809   0.93117   0.93766
 Alpha virt. eigenvalues --    0.94161   0.94321   0.94842   0.95559   0.95806
 Alpha virt. eigenvalues --    0.96543   0.97112   0.97650   0.98364   0.98948
 Alpha virt. eigenvalues --    0.99063   0.99942   1.00294   1.01037   1.01172
 Alpha virt. eigenvalues --    1.01382   1.02029   1.02320   1.03236   1.03564
 Alpha virt. eigenvalues --    1.04814   1.05931   1.06209   1.06651   1.07065
 Alpha virt. eigenvalues --    1.07959   1.08003   1.09377   1.10044   1.10498
 Alpha virt. eigenvalues --    1.11730   1.12635   1.13842   1.14315   1.15909
 Alpha virt. eigenvalues --    1.16368   1.17224   1.17338   1.18300   1.18628
 Alpha virt. eigenvalues --    1.20125   1.20939   1.21520   1.23033   1.24175
 Alpha virt. eigenvalues --    1.24777   1.26482   1.27536   1.29577   1.29907
 Alpha virt. eigenvalues --    1.30475   1.30836   1.31670   1.33282   1.34177
 Alpha virt. eigenvalues --    1.34525   1.35345   1.35825   1.36667   1.36970
 Alpha virt. eigenvalues --    1.37743   1.38171   1.38442   1.39708   1.40188
 Alpha virt. eigenvalues --    1.40388   1.41616   1.41913   1.42560   1.42986
 Alpha virt. eigenvalues --    1.43653   1.44189   1.44793   1.45139   1.45367
 Alpha virt. eigenvalues --    1.46661   1.47010   1.47729   1.49394   1.50853
 Alpha virt. eigenvalues --    1.51312   1.51812   1.52571   1.53244   1.53387
 Alpha virt. eigenvalues --    1.54130   1.55202   1.56309   1.56510   1.57058
 Alpha virt. eigenvalues --    1.58797   1.59876   1.60561   1.60893   1.61971
 Alpha virt. eigenvalues --    1.62761   1.62907   1.63909   1.64239   1.64786
 Alpha virt. eigenvalues --    1.66453   1.66835   1.67169   1.68138   1.69157
 Alpha virt. eigenvalues --    1.70286   1.71068   1.71271   1.72161   1.73231
 Alpha virt. eigenvalues --    1.74341   1.74728   1.75277   1.75846   1.77145
 Alpha virt. eigenvalues --    1.77303   1.78051   1.79073   1.79905   1.80018
 Alpha virt. eigenvalues --    1.80944   1.81475   1.82472   1.83454   1.83885
 Alpha virt. eigenvalues --    1.84351   1.85623   1.85708   1.87077   1.87439
 Alpha virt. eigenvalues --    1.88110   1.88502   1.88832   1.89472   1.89991
 Alpha virt. eigenvalues --    1.90075   1.90673   1.91276   1.91879   1.92204
 Alpha virt. eigenvalues --    1.92386   1.92617   1.93066   1.93638   1.94455
 Alpha virt. eigenvalues --    1.94898   1.95864   1.96455   1.96659   1.97162
 Alpha virt. eigenvalues --    1.97816   1.98421   1.98867   1.99638   2.00167
 Alpha virt. eigenvalues --    2.00463   2.01094   2.01397   2.01736   2.02564
 Alpha virt. eigenvalues --    2.03215   2.03992   2.04673   2.05319   2.06258
 Alpha virt. eigenvalues --    2.06700   2.07263   2.08079   2.08833   2.09022
 Alpha virt. eigenvalues --    2.09199   2.09559   2.10171   2.10384   2.11508
 Alpha virt. eigenvalues --    2.12172   2.12554   2.13163   2.13276   2.13339
 Alpha virt. eigenvalues --    2.13597   2.14546   2.15186   2.15755   2.15920
 Alpha virt. eigenvalues --    2.16234   2.17581   2.18390   2.18711   2.19317
 Alpha virt. eigenvalues --    2.19522   2.19755   2.20924   2.21074   2.22121
 Alpha virt. eigenvalues --    2.22487   2.24321   2.24583   2.25455   2.26387
 Alpha virt. eigenvalues --    2.26444   2.27068   2.27581   2.29265   2.29741
 Alpha virt. eigenvalues --    2.31526   2.32738   2.33013   2.33208   2.33528
 Alpha virt. eigenvalues --    2.34362   2.34495   2.34814   2.35069   2.35995
 Alpha virt. eigenvalues --    2.36257   2.36840   2.37568   2.37936   2.38287
 Alpha virt. eigenvalues --    2.39342   2.40508   2.40676   2.41193   2.41839
 Alpha virt. eigenvalues --    2.42988   2.43442   2.44708   2.45353   2.45951
 Alpha virt. eigenvalues --    2.46981   2.47713   2.48532   2.49203   2.49710
 Alpha virt. eigenvalues --    2.50218   2.52923   2.55223   2.56049   2.56622
 Alpha virt. eigenvalues --    2.57436   2.57864   2.58971   2.59111   2.59711
 Alpha virt. eigenvalues --    2.60568   2.62053   2.62918   2.63598   2.64787
 Alpha virt. eigenvalues --    2.65627   2.66900   2.67173   2.67439   2.67679
 Alpha virt. eigenvalues --    2.67897   2.68437   2.69588   2.70858   2.73536
 Alpha virt. eigenvalues --    2.73733   2.75553   2.76039   2.76673   2.77156
 Alpha virt. eigenvalues --    2.77667   2.78313   2.78557   2.78825   2.79324
 Alpha virt. eigenvalues --    2.80998   2.81682   2.82021   2.82448   2.83163
 Alpha virt. eigenvalues --    2.83923   2.85398   2.85864   2.86476   2.87230
 Alpha virt. eigenvalues --    2.87588   2.89221   2.89758   2.90052   2.90565
 Alpha virt. eigenvalues --    2.91542   2.91842   2.93786   2.93965   2.94755
 Alpha virt. eigenvalues --    2.95480   2.95871   2.96894   2.97900   2.98651
 Alpha virt. eigenvalues --    2.98898   2.99151   3.00008   3.00901   3.01195
 Alpha virt. eigenvalues --    3.01253   3.01730   3.02033   3.02880   3.03630
 Alpha virt. eigenvalues --    3.06313   3.07632   3.08735   3.08901   3.11067
 Alpha virt. eigenvalues --    3.12314   3.15035   3.16707   3.17663   3.19078
 Alpha virt. eigenvalues --    3.21577   3.23155   3.26137   3.27201   3.28549
 Alpha virt. eigenvalues --    3.29167   3.31145   3.32271   3.34312   3.34863
 Alpha virt. eigenvalues --    3.35170   3.36677   3.37118   3.38829   3.39196
 Alpha virt. eigenvalues --    3.40620   3.43055   3.43478   3.47324   3.47461
 Alpha virt. eigenvalues --    3.48949   3.51479   3.53379   3.54590   3.56021
 Alpha virt. eigenvalues --    3.56441   3.57928   3.60858   3.62840   3.63479
 Alpha virt. eigenvalues --    3.64642   3.67361   4.06204   4.12530   4.14579
 Alpha virt. eigenvalues --    4.16182   4.23174   4.27547   4.33132   4.34017
 Alpha virt. eigenvalues --    4.40532   4.44438   4.47080   4.48025   4.50999
 Alpha virt. eigenvalues --    4.54172   4.58155   4.61987   4.63701   4.66375
 Alpha virt. eigenvalues --    4.69619   4.70872   4.74573   4.77823   4.81415
 Alpha virt. eigenvalues --    4.85487   4.86634   5.01203   5.11306   5.30360
 Alpha virt. eigenvalues --    5.37277   5.45970   5.66542   5.82981   5.96119
 Alpha virt. eigenvalues --    6.55015   6.99752
          Condensed to atoms (all electrons):
 Mulliken charges:
               1
     1  C   -0.317013
     2  C   -0.182841
     3  C   -0.160063
     4  C   -0.176534
     5  C   -0.085704
     6  C   -0.181387
     7  C   -0.322396
     8  C    0.088082
     9  O   -0.517435
    10  C    0.070572
    11  C   -0.211359
    12  C   -0.052871
    13  N   -0.533782
    14  C    0.541513
    15  C    0.569183
    16  F   -0.265214
    17  F   -0.281461
    18  C    0.456683
    19  F   -0.271225
    20  O   -0.494270
    21  C    0.745884
    22  F   -0.241673
    23  F   -0.240200
    24  C    0.537229
    25  F   -0.256637
    26  F   -0.244274
    27  C    0.181685
    28  C    0.633627
    29  F   -0.270736
    30  C    0.507709
    31  O   -0.472317
    32  O   -0.441977
    33  F   -0.274095
    34  F   -0.281763
    35  O   -0.508748
    36  H    0.103801
    37  H    0.099672
    38  H    0.100079
    39  H    0.088337
    40  H    0.089077
    41  H    0.087056
    42  H    0.095482
    43  H    0.091940
    44  H    0.088956
    45  H    0.090849
    46  H    0.095091
    47  H    0.091936
    48  H    0.102686
    49  H    0.104205
    50  H    0.109744
    51  H    0.081444
    52  H    0.086267
    53  H    0.085696
    54  H    0.094391
    55  H    0.115461
    56  H    0.127527
    57  H    0.138422
    58  H    0.136125
    59  H    0.287288
    60  H    0.362273
 Sum of Mulliken charges =   0.00000
 Mulliken charges with hydrogens summed into heavy atoms:
               1
     1  C   -0.013460
     2  C   -0.005427
     3  C    0.022475
     4  C    0.004362
     5  C    0.005145
     6  C    0.005639
     7  C   -0.005760
     8  C    0.255794
     9  O   -0.517435
    10  C    0.250659
    11  C    0.031628
    12  C    0.221677
    13  N   -0.246494
    14  C    0.541513
    15  C    0.569183
    16  F   -0.265214
    17  F   -0.281461
    18  C    0.456683
    19  F   -0.271225
    20  O   -0.494270
    21  C    0.745884
    22  F   -0.241673
    23  F   -0.240200
    24  C    0.537229
    25  F   -0.256637
    26  F   -0.244274
    27  C    0.181685
    28  C    0.633627
    29  F   -0.270736
    30  C    0.507709
    31  O   -0.110044
    32  O   -0.441977
    33  F   -0.274095
    34  F   -0.281763
    35  O   -0.508748
 Electronic spatial extent (au):  <R**2>=          27839.8940
 Charge=              0.0000 electrons
 Dipole moment (field-independent basis, Debye):
    X=             -4.1654    Y=             -0.2267    Z=             -3.2916  Tot=              5.3138
 Quadrupole moment (field-independent basis, Debye-Ang):
   XX=           -223.4792   YY=           -203.0252   ZZ=           -197.2776
   XY=              2.3410   XZ=            -12.9824   YZ=             -0.5830
 Traceless Quadrupole moment (field-independent basis, Debye-Ang):
   XX=            -15.5519   YY=              4.9021   ZZ=             10.6497
   XY=              2.3410   XZ=            -12.9824   YZ=             -0.5830
 Octapole moment (field-independent basis, Debye-Ang**2):
  XXX=          -1204.6870  YYY=             38.5701  ZZZ=            -56.7489  XYY=           -377.9435
  XXY=            -36.3894  XXZ=            -36.0572  XZZ=           -339.9588  YZZ=             33.2985
  YYZ=              6.3600  XYZ=              8.5420
 Hexadecapole moment (field-independent basis, Debye-Ang**3):
 XXXX=         -28388.6088 YYYY=          -2514.6203 ZZZZ=          -3166.5630 XXXY=           -108.1148
 XXXZ=           1162.9373 YYYX=            309.0420 YYYZ=             22.9878 ZZZX=            653.8883
 ZZZY=            -15.8207 XXYY=          -5121.0109 XXZZ=          -5059.7477 YYZZ=           -951.5990
 XXYZ=            102.3988 YYXZ=            347.6557 ZZXY=            197.4931
 N-N= 4.514886066949D+03 E-N=-1.413072394798D+04  KE= 2.150837621208D+03
[...]
     41          1           0       -2.635703    2.128124   -0.014946
     42          1           0       -2.904096    1.156365    1.418641
     43          1           0       -4.458994    0.862926   -1.183417
     44          1           0       -4.613454   -0.200210    0.197433
     45          1           0       -1.950007    0.119807   -1.237593
     46          1           0       -4.268081   -1.742909   -1.917209
     47          1           0       -2.614314   -2.076907   -2.391545
     48          1           0       -3.826826   -0.999722   -4.254990
     49          1           0       -2.520976    0.052607   -3.699488
     50          1           0       -4.193464    0.409149   -3.262981
     51          1           0       -1.574950   -2.194175   -0.392015
     52          1           0       -3.120135   -2.117247    0.471908
     53          1           0       -0.390061   -2.407599    1.673516
     54          1           0       -1.936501   -2.379784    2.537094
     55          1           0       -1.265006   -0.457922    3.866503
     56          1           0        0.063653   -1.618000    3.903516
     57          1           0        1.046797    0.565208    3.534888
     58          1           0       -0.140046    0.966732    2.284503
     59          1           0        0.986914   -0.377967    0.750912
     60          1           0        3.830667    1.301970   -3.699323
 ---------------------------------------------------------------------
 Rotational constants (GHZ):      0.1831737      0.0626310      0.0592281
 Leave Link  202 at Thu Feb  6 07:53:59 2025, MaxMem=  5368709120 cpu:         0.4
 (Enter /home/k0335/k033513/app/g09/l601.exe)
 Copying SCF densities to generalized density rwf, IOpCl= 0 IROHF=0.

 **********************************************************************

            Population analysis using the SCF density.

 **********************************************************************

 Alpha  occ. eigenvalues --  -24.83695 -24.82777 -24.82534 -24.82343 -24.82167
 Alpha  occ. eigenvalues --  -24.82159 -24.82012 -24.81980 -24.81400 -24.81306
 Alpha  occ. eigenvalues --  -19.31562 -19.31518 -19.25699 -19.22855 -19.20819
 Alpha  occ. eigenvalues --  -14.44890 -10.52088 -10.48287 -10.48232 -10.46855
 Alpha  occ. eigenvalues --  -10.46260 -10.44296 -10.42222 -10.38726 -10.30849
 Alpha  occ. eigenvalues --  -10.30392 -10.29848 -10.26267 -10.25953 -10.25530
 Alpha  occ. eigenvalues --  -10.24708 -10.24627 -10.24575 -10.24039 -10.23982
 Alpha  occ. eigenvalues --   -1.40504  -1.38576  -1.37922  -1.37448  -1.35769
 Alpha  occ. eigenvalues --   -1.34139  -1.32766  -1.31585  -1.31324  -1.30731
 Alpha  occ. eigenvalues --   -1.23669  -1.21938  -1.14595  -1.13944  -1.12295
 Alpha  occ. eigenvalues --   -1.02542  -0.94990  -0.90586  -0.90119  -0.87355
 Alpha  occ. eigenvalues --   -0.86501  -0.86072  -0.82579  -0.81035  -0.79065
 Alpha  occ. eigenvalues --   -0.78214  -0.76573  -0.75430  -0.74485  -0.72137
 Alpha  occ. eigenvalues --   -0.71206  -0.70978  -0.69894  -0.69288  -0.68542
 Alpha  occ. eigenvalues --   -0.68365  -0.67493  -0.66671  -0.66255  -0.65983
 Alpha  occ. eigenvalues --   -0.65638  -0.64534  -0.64255  -0.64022  -0.63386
 Alpha  occ. eigenvalues --   -0.63303  -0.62266  -0.59358  -0.57679  -0.57369
 Alpha  occ. eigenvalues --   -0.56736  -0.56629  -0.56425  -0.55648  -0.55250
 Alpha  occ. eigenvalues --   -0.55026  -0.54550  -0.54100  -0.53927  -0.53413
 Alpha  occ. eigenvalues --   -0.53082  -0.52891  -0.52825  -0.52536  -0.52260
 Alpha  occ. eigenvalues --   -0.52004  -0.51315  -0.50950  -0.50848  -0.50414
 Alpha  occ. eigenvalues --   -0.50261  -0.49849  -0.49772  -0.49402  -0.49222
 Alpha  occ. eigenvalues --   -0.48938  -0.48435  -0.48131  -0.47715  -0.46718
 Alpha  occ. eigenvalues --   -0.46501  -0.45988  -0.45330  -0.44939  -0.43914
 Alpha  occ. eigenvalues --   -0.43258  -0.43154  -0.42490  -0.42333  -0.41832
 Alpha  occ. eigenvalues --   -0.41345  -0.41132  -0.40815  -0.39666  -0.38728
 Alpha  occ. eigenvalues --   -0.38661  -0.38229  -0.37288  -0.36397  -0.35976
 Alpha  occ. eigenvalues --   -0.34033  -0.32838  -0.32378
 Alpha virt. eigenvalues --    0.01255   0.04381   0.05036   0.09665   0.10835
 Alpha virt. eigenvalues --    0.11493   0.12014   0.13780   0.14315   0.14551
 Alpha virt. eigenvalues --    0.15041   0.16570   0.16707   0.16984   0.17603
 Alpha virt. eigenvalues --    0.18782   0.19015   0.19700   0.20115   0.20705
 Alpha virt. eigenvalues --    0.20944   0.21168   0.21356   0.21475   0.22298
 Alpha virt. eigenvalues --    0.22444   0.22747   0.23008   0.23752   0.24234
 Alpha virt. eigenvalues --    0.24442   0.24942   0.25019   0.25335   0.25604
 Alpha virt. eigenvalues --    0.25717   0.26819   0.27407   0.27812   0.28297
 Alpha virt. eigenvalues --    0.28767   0.29050   0.30023   0.30617   0.31223
 Alpha virt. eigenvalues --    0.31421   0.31701   0.32248   0.32503   0.32715
 Alpha virt. eigenvalues --    0.33180   0.33872   0.34610   0.34873   0.35972
 Alpha virt. eigenvalues --    0.36364   0.37199   0.38590   0.38886   0.39877
 Alpha virt. eigenvalues --    0.43573   0.47406   0.48061   0.50193   0.50752
 Alpha virt. eigenvalues --    0.51324   0.53058   0.54378   0.55635   0.55970
 Alpha virt. eigenvalues --    0.56576   0.56801   0.57035   0.57626   0.57983
 Alpha virt. eigenvalues --    0.58589   0.59231   0.59610   0.60301   0.60961
 Alpha virt. eigenvalues --    0.61516   0.61838   0.62564   0.63057   0.63987
 Alpha virt. eigenvalues --    0.64382   0.64532   0.65620   0.66921   0.67040
 Alpha virt. eigenvalues --    0.67621   0.68354   0.68873   0.69289   0.69588
 Alpha virt. eigenvalues --    0.70562   0.70970   0.71489   0.72697   0.72828
 Alpha virt. eigenvalues --    0.73733   0.74611   0.75618   0.75684   0.76722
 Alpha virt. eigenvalues --    0.77026   0.77565   0.78283   0.78800   0.79773
 Alpha virt. eigenvalues --    0.80243   0.80697   0.82316   0.83102   0.83924
 Alpha virt. eigenvalues --    0.84714   0.86169   0.86961   0.87693   0.87986
 Alpha virt. eigenvalues --    0.88801   0.89408   0.89656   0.90294   0.90803
 Alpha virt. eigenvalues --    0.91048   0.91717   0.92545   0.92783   0.93691
 Alpha virt. eigenvalues --    0.94092   0.94566   0.94689   0.95464   0.95943
 Alpha virt. eigenvalues --    0.96719   0.97546   0.97948   0.98299   0.99233
 Alpha virt. eigenvalues --    0.99462   0.99922   1.00551   1.00785   1.01323
 Alpha virt. eigenvalues --    1.02120   1.02413   1.02857   1.03737   1.04360
 Alpha virt. eigenvalues --    1.05320   1.05851   1.06290   1.07806   1.07900
 Alpha virt. eigenvalues --    1.08429   1.09646   1.09801   1.11188   1.11598
 Alpha virt. eigenvalues --    1.12111   1.13244   1.14198   1.14882   1.14961
 Alpha virt. eigenvalues --    1.16386   1.16802   1.17578   1.18491   1.18635
 Alpha virt. eigenvalues --    1.20233   1.21653   1.22520   1.23298   1.23584
 Alpha virt. eigenvalues --    1.24461   1.26985   1.28165   1.28848   1.30156
 Alpha virt. eigenvalues --    1.30518   1.31586   1.33542   1.33976   1.34512
 Alpha virt. eigenvalues --    1.34880   1.35969   1.36953   1.37212   1.37555
 Alpha virt. eigenvalues --    1.38441   1.38782   1.39565   1.40187   1.40881
 Alpha virt. eigenvalues --    1.41269   1.41654   1.41905   1.43009   1.43943
 Alpha virt. eigenvalues --    1.44629   1.44762   1.45641   1.46107   1.46652
 Alpha virt. eigenvalues --    1.47392   1.48289   1.48757   1.49596   1.50410
 Alpha virt. eigenvalues --    1.51161   1.51536   1.52143   1.53355   1.53765
 Alpha virt. eigenvalues --    1.53957   1.55531   1.56140   1.56706   1.57724
 Alpha virt. eigenvalues --    1.58094   1.58521   1.59985   1.60505   1.61714
 Alpha virt. eigenvalues --    1.62372   1.63368   1.64081   1.64231   1.65396
 Alpha virt. eigenvalues --    1.66699   1.67092   1.67448   1.67882   1.68943
 Alpha virt. eigenvalues --    1.69194   1.70670   1.71332   1.71740   1.72959
 Alpha virt. eigenvalues --    1.73961   1.74723   1.75127   1.75812   1.76265
 Alpha virt. eigenvalues --    1.77670   1.78541   1.79359   1.80076   1.80667
 Alpha virt. eigenvalues --    1.81182   1.82207   1.83122   1.83305   1.83749
 Alpha virt. eigenvalues --    1.84232   1.84620   1.85941   1.86391   1.86626
 Alpha virt. eigenvalues --    1.87258   1.87433   1.88266   1.88498   1.90139
 Alpha virt. eigenvalues --    1.90421   1.90495   1.90870   1.91785   1.91974
 Alpha virt. eigenvalues --    1.92475   1.92835   1.93001   1.93757   1.93997
 Alpha virt. eigenvalues --    1.94813   1.95292   1.96204   1.96919   1.97660
 Alpha virt. eigenvalues --    1.97787   1.98734   1.99103   1.99573   2.00338
 Alpha virt. eigenvalues --    2.00834   2.01259   2.02079   2.02299   2.02637
 Alpha virt. eigenvalues --    2.02930   2.03654   2.03958   2.04497   2.05454
 Alpha virt. eigenvalues --    2.05765   2.06773   2.07140   2.07706   2.08138
 Alpha virt. eigenvalues --    2.09021   2.09511   2.09593   2.09837   2.11247
 Alpha virt. eigenvalues --    2.11746   2.12476   2.13106   2.13243   2.13603
 Alpha virt. eigenvalues --    2.14570   2.15233   2.15653   2.16018   2.16380
 Alpha virt. eigenvalues --    2.16495   2.17318   2.18141   2.19049   2.19588
 Alpha virt. eigenvalues --    2.19738   2.20398   2.20583   2.22106   2.23043
 Alpha virt. eigenvalues --    2.23748   2.24452   2.25526   2.25904   2.26205
 Alpha virt. eigenvalues --    2.27212   2.27982   2.28041   2.29685   2.30886
 Alpha virt. eigenvalues --    2.31567   2.32367   2.32695   2.33316   2.33873
 Alpha virt. eigenvalues --    2.34096   2.34262   2.34767   2.35766   2.36639
 Alpha virt. eigenvalues --    2.36952   2.37303   2.38018   2.39040   2.39996
 Alpha virt. eigenvalues --    2.40101   2.40456   2.41299   2.41377   2.42605
 Alpha virt. eigenvalues --    2.43810   2.44412   2.45083   2.45800   2.47834
 Alpha virt. eigenvalues --    2.48244   2.48759   2.49397   2.50568   2.51830
 Alpha virt. eigenvalues --    2.54080   2.54843   2.55089   2.55674   2.56360
 Alpha virt. eigenvalues --    2.57407   2.58248   2.58955   2.59424   2.61497
 Alpha virt. eigenvalues --    2.62429   2.62929   2.63650   2.64198   2.65080
 Alpha virt. eigenvalues --    2.65756   2.66330   2.67289   2.67827   2.68402
 Alpha virt. eigenvalues --    2.68986   2.69887   2.70808   2.71538   2.74098
 Alpha virt. eigenvalues --    2.74331   2.75693   2.76807   2.77374   2.77419
 Alpha virt. eigenvalues --    2.78043   2.79137   2.79559   2.79969   2.80422
 Alpha virt. eigenvalues --    2.81606   2.82301   2.82782   2.83235   2.83881
 Alpha virt. eigenvalues --    2.84909   2.86612   2.87021   2.88168   2.88328
 Alpha virt. eigenvalues --    2.89010   2.89801   2.91370   2.91881   2.91990
 Alpha virt. eigenvalues --    2.93416   2.94173   2.94908   2.94973   2.95754
 Alpha virt. eigenvalues --    2.96560   2.96772   2.97827   2.97971   2.98661
 Alpha virt. eigenvalues --    2.99049   2.99159   3.00428   3.00542   3.01342
 Alpha virt. eigenvalues --    3.02153   3.02957   3.03335   3.03724   3.04327
 Alpha virt. eigenvalues --    3.06327   3.09955   3.10228   3.10817   3.14280
 Alpha virt. eigenvalues --    3.15285   3.15693   3.18249   3.20138   3.20466
 Alpha virt. eigenvalues --    3.21949   3.22639   3.24412   3.27149   3.27598
 Alpha virt. eigenvalues --    3.28481   3.31922   3.32621   3.34286   3.35776
 Alpha virt. eigenvalues --    3.36848   3.37467   3.38273   3.40241   3.40797
 Alpha virt. eigenvalues --    3.42026   3.43295   3.43886   3.47410   3.48426
 Alpha virt. eigenvalues --    3.49629   3.51364   3.53870   3.54798   3.55844
 Alpha virt. eigenvalues --    3.57819   3.59070   3.61357   3.63577   3.64554
 Alpha virt. eigenvalues --    3.65580   3.68775   3.99682   4.14552   4.17945
 Alpha virt. eigenvalues --    4.18898   4.22044   4.25292   4.30785   4.33459
 Alpha virt. eigenvalues --    4.37784   4.43079   4.45612   4.46344   4.50698
 Alpha virt. eigenvalues --    4.52179   4.57531   4.59587   4.63802   4.67769
 Alpha virt. eigenvalues --    4.69783   4.70431   4.72149   4.77325   4.80113
 Alpha virt. eigenvalues --    4.83587   4.84035   4.98658   5.02667   5.17437
 Alpha virt. eigenvalues --    5.37430   5.45671   5.86255   5.95711   6.04964
 Alpha virt. eigenvalues --    6.69607   7.31866
          Condensed to atoms (all electrons):
 Mulliken charges:
               1
     1  C   -0.317919
     2  C   -0.179826
     3  C   -0.175619
     4  C   -0.169625
     5  C   -0.087900
     6  C   -0.184094
     7  C   -0.321934
     8  C    0.091030
     9  O   -0.513107
    10  C    0.070772
    11  C   -0.217607
    12  C   -0.054826
    13  N   -0.529677
    14  C    0.550897
    15  C    0.554825
    16  F   -0.264810
    17  F   -0.279745
    18  C    0.464282
    19  F   -0.286575
    20  O   -0.487986
    21  C    0.769540
    22  F   -0.246739
    23  F   -0.246293
    24  C    0.531338
    25  F   -0.251071
    26  F   -0.254407
    27  C    0.156346
    28  C    0.604645
    29  F   -0.266163
    30  C    0.548641
    31  O   -0.485640
    32  O   -0.429997
    33  F   -0.262605
    34  F   -0.285153
    35  O   -0.513236
    36  H    0.103727
    37  H    0.100777
    38  H    0.100864
    39  H    0.088446
    40  H    0.090611
    41  H    0.083093
    42  H    0.108725
    43  H    0.088413
    44  H    0.089124
    45  H    0.086143
    46  H    0.096345
    47  H    0.091677
    48  H    0.105242
    49  H    0.104730
    50  H    0.109471
    51  H    0.080945
    52  H    0.083540
    53  H    0.087910
    54  H    0.097298
    55  H    0.117195
    56  H    0.125692
    57  H    0.143375
    58  H    0.137332
    59  H    0.286486
    60  H    0.363079
 Sum of Mulliken charges =   0.00000
 Mulliken charges with hydrogens summed into heavy atoms:
               1
     1  C   -0.012551
     2  C   -0.000769
     3  C    0.016199
     4  C    0.007911
     5  C   -0.001757
     6  C    0.003927
     7  C   -0.002491
     8  C    0.255515
     9  O   -0.513107
    10  C    0.255980
    11  C    0.025279
    12  C    0.225882
    13  N   -0.243191
    14  C    0.550897
    15  C    0.554825
    16  F   -0.264810
    17  F   -0.279745
    18  C    0.464282
    19  F   -0.286575
    20  O   -0.487986
    21  C    0.769540
    22  F   -0.246739
    23  F   -0.246293
    24  C    0.531338
    25  F   -0.251071
    26  F   -0.254407
    27  C    0.156346
    28  C    0.604645
    29  F   -0.266163
    30  C    0.548641
    31  O   -0.122561
    32  O   -0.429997
    33  F   -0.262605
    34  F   -0.285153
    35  O   -0.513236
 Electronic spatial extent (au):  <R**2>=          21986.2047
 Charge=              0.0000 electrons
 Dipole moment (field-independent basis, Debye):
    X=             -3.3669    Y=             -0.4163    Z=             -3.6845  Tot=              5.0085
 Quadrupole moment (field-independent basis, Debye-Ang):
   XX=           -210.3618   YY=           -207.8159   ZZ=           -194.1355
   XY=              9.7330   XZ=            -19.5102   YZ=              1.3039
 Traceless Quadrupole moment (field-independent basis, Debye-Ang):
   XX=             -6.2574   YY=             -3.7115   ZZ=              9.9689
   XY=              9.7330   XZ=            -19.5102   YZ=              1.3039
 Octapole moment (field-independent basis, Debye-Ang**2):
  XXX=           -905.7064  YYY=             10.2210  ZZZ=            -62.5802  XYY=           -316.7662
  XXY=             40.1519  XXZ=            -78.7081  XZZ=           -286.3478  YZZ=             32.5115
  YYZ=             16.5812  XYZ=              2.5602
 Hexadecapole moment (field-independent basis, Debye-Ang**3):
 XXXX=         -19164.7787 YYYY=          -3011.0677 ZZZZ=          -3726.2969 XXXY=            653.7585
 XXXZ=            545.2826 YYYX=            453.8525 YYYZ=            206.3539 ZZZX=            414.6617
 ZZZY=            144.2574 XXYY=          -3706.4537 XXZZ=          -3788.4853 YYZZ=          -1146.8502
 XXYZ=             30.8815 YYXZ=            248.8911 ZZXY=            286.5294
 N-N= 4.645350999263D+03 E-N=-1.439212618891D+04  KE= 2.151324681440D+03
 No NMR shielding tensors so no spin-rotation constants.
 Leave Link  601 at Thu Feb  6 07:53:59 2025, MaxMem=  5368709120 cpu:         4.4
 (Enter /home/k0335/k033513/app/g09/l9999.exe)
 1\1\GINC-C18U01N2\FOpt\RCAM-B3LYP\6-31G(d,p)\C19H25F10N1O5\K033513\06-
 Feb-2025\0\\#p CAM-B3LYP/6-31G(d,p) opt SCRF=(PCM,Solvent=Generic,Read
 ) NoSymm out=wfn\\Title EHOPA2_neu\\0,1\C,-5.5599016059,1.9140411599,1
 .8818409157\C,-4.506811761,2.5344459111,0.9658879122\C,-3.4013249274,1
 .5670567025,0.5357740247\C,-3.895729212,0.4225727522,-0.3518374639\C,-
 2.8051688655,-0.4974800484,-0.9269041675\C,-3.3119798337,-1.2627866255
 ,-2.1618621376\C,-3.47446782,-0.4007618439,-3.4110527865\C,-2.28530704
 48,-1.5054124714,0.0923815283\O,-1.6427185557,-0.8495754976,1.16782132
 01\C,-1.1342454291,-1.7423360389,2.1383930348\C,-0.4927385064,-0.93468
 8267,3.2548526688\C,0.4411041662,0.1566974843,2.7251461966\N,1.3432370
 862,-0.3334722522,1.6942427882\C,2.4920338691,-0.9591587461,2.00014066
 33\C,3.1942092265,-1.6121446978,0.785104812\F,4.3439897784,-2.18192319
 58,1.1853039615\F,2.3699742765,-2.5805088037,0.2999538582\C,3.55588373
 65,-0.7189084786,-0.4184208872\F,2.391330342,-0.2296292191,-0.94541641
 62\O,4.1477472365,-1.5055729996,-1.4046519652\C,5.5027886755,-1.300460
 3491,-1.54761178\F,5.7884569816,-1.1252111117,-2.8387540594\F,6.172651
 6759,-2.3775509133,-1.1260427022\C,5.8800689282,-0.0530786511,-0.69737
 71698\F,6.7149152865,-0.4118229275,0.2837588799\F,6.4812987611,0.87239
 12606,-1.4583759416\C,4.5404440145,0.4263473606,-0.078721514\C,4.02929
 19061,1.8161764073,-0.5184247099\F,5.0133116092,2.7102716127,-0.271044
 2408\C,3.560830371,2.0119941616,-1.9708436931\O,4.1401341795,1.1417581
 761,-2.7918682756\O,2.7887649385,2.8728848845,-2.279108572\F,2.9868719
 099,2.1116466656,0.2813303235\F,4.694305647,0.5232680259,1.2753517178\
 O,2.9632970457,-1.0839257498,3.1122019597\H,-6.1177039505,1.1176228491
 ,1.3814520311\H,-6.2853359259,2.6619807239,2.213707652\H,-5.0959821158
 ,1.4813711338,2.7743950839\H,-4.9962857605,2.9473677332,0.0743831763\H
 ,-4.0466599141,3.3860682972,1.4799217314\H,-2.6357033039,2.1281236251,
 -0.0149462702\H,-2.9040964525,1.1563651336,1.4186411826\H,-4.458993535
 9,0.8629260413,-1.1834172999\H,-4.6134537814,-0.2002104377,0.197432628
 \H,-1.9500069594,0.1198069306,-1.237593489\H,-4.268081143,-1.742908864
 9,-1.9172091614\H,-2.6143140856,-2.0769074967,-2.3915454387\H,-3.82682
 60351,-0.9997218729,-4.2549899268\H,-2.5209757487,0.0526074768,-3.6994
 879614\H,-4.1934636348,0.4091487795,-3.2629808102\H,-1.5749499532,-2.1
 941754205,-0.3920149704\H,-3.1201349091,-2.1172467893,0.4719077111\H,-
 0.3900605125,-2.4075985622,1.6735160084\H,-1.9365005116,-2.3797838543,
 2.5370944431\H,-1.2650056179,-0.457922048,3.8665032691\H,0.0636532736,
 -1.617999952,3.9035164815\H,1.0467972346,0.5652079309,3.5348876154\H,-
 0.1400463909,0.9667322069,2.2845029238\H,0.9869135817,-0.3779670054,0.
 750912029\H,3.8306670657,1.3019697654,-3.6993227217\\Version=ES64L-G09
 RevD.01\HF=-2167.6200838\RMSD=5.508e-09\RMSF=3.344e-06\Dipole=-1.32464
 3,-0.1637855,-1.4495993\Quadrupole=-4.6522205,-2.7593863,7.4116068,7.2
 362388,-14.5053379,0.9693999\PG=C01 [X(C19H25F10N1O5)]\\@

 Writing a WFN file to "cytopopt/EHOPA2/EHOPA2_neu.wfn"


 BUT 'GLORY' DOESN'T MEAN 'A NICE KNOCK DOWN ARGUMENT', ALICE OBJECTED.
 WHEN I USE A WORD, HUMPTY DUMPTY SAID, IN A RATHER SCORNFUL TONE,
 IT MEANS JUST WHAT I CHOOSE IT TO MEAN....
 NEITHER MORE NOR LESS....
 THE QUESTION IS, SAID ALICE,
 WHETHER YOU CAN MAKE WORDS MEAN SO MANY DIFFERENT THINGS...
 THE QUESTION IS, SAID HUMPTY DUMPTY,
 WHICH IS TO BE MASTER....
 THAT IS ALL.....

 ALICE THROUGH THE LOOKING GLASS
 Job cpu time:       0 days 22 hours 10 minutes  6.4 seconds.
 File lengths (MBytes):  RWF=    829 Int=      0 D2E=      0 Chk=     35 Scr=      1
 Normal termination of Gaussian 09 at Thu Feb  6 07:54:00 2025.
