 Entering Gaussian System, Link 0=g09
 Initial command:
 /home/k0335/k033513/app/g09/l1.exe "/home/k0335/k033513/app/g09/scratch/Gau-652144.inp" -scrdir="/home/k0335/k033513/app/g09/scratch/"
 Default is to use a total of  36 processors:
                               36 via shared-memory
                                1 via Linda
 Entering Link 1 = /home/k0335/k033513/app/g09/l1.exe PID=    652145.
  
 Copyright (c) 1988,1990,1992,1993,1995,1998,2003,2009,2013,
            Gaussian, Inc.  All Rights Reserved.
  
 This is part of the Gaussian(R) 09 program.  It is based on
 the Gaussian(R) 03 system (copyright 2003, Gaussian, Inc.),
 the Gaussian(R) 98 system (copyright 1998, Gaussian, Inc.),
 the Gaussian(R) 94 system (copyright 1995, Gaussian, Inc.),
 the Gaussian 92(TM) system (copyright 1992, Gaussian, Inc.),
 the Gaussian 90(TM) system (copyright 1990, Gaussian, Inc.),
 the Gaussian 88(TM) system (copyright 1988, Gaussian, Inc.),
 the Gaussian 86(TM) system (copyright 1986, Carnegie Mellon
 University), and the Gaussian 82(TM) system (copyright 1983,
 Carnegie Mellon University). Gaussian is a federally registered
 trademark of Gaussian, Inc.
  
 This software contains proprietary and confidential information,
 including trade secrets, belonging to Gaussian, Inc.
  
 This software is provided under written license and may be
 used, copied, transmitted, or stored only in accord with that
 written license.
  
 The following legend is applicable only to US Government
 contracts under FAR:
  
                    RESTRICTED RIGHTS LEGEND
  
 Use, reproduction and disclosure by the US Government is
 subject to restrictions as set forth in subparagraphs (a)
 and (c) of the Commercial Computer Software - Restricted
 Rights clause in FAR 52.227-19.
  
 Gaussian, Inc.
 340 Quinnipiac St., Bldg. 40, Wallingford CT 06492
  
  
 ---------------------------------------------------------------
 Warning -- This program may not be used in any manner that
 competes with the business of Gaussian, Inc. or will provide
 assistance to any competitor of Gaussian, Inc.  The licensee
 of this program is prohibited from giving any competitor of
 Gaussian, Inc. access to this program.  By using this program,
 the user acknowledges that Gaussian, Inc. is engaged in the
 business of creating and licensing software in the field of
 computational chemistry and represents and warrants to the
 licensee that it is not a competitor of Gaussian, Inc. and that
 it will not use this program in any manner prohibited above.
 ---------------------------------------------------------------
  

 Cite this work as:
 Gaussian 09, Revision D.01,
 M. J. Frisch, G. W. Trucks, H. B. Schlegel, G. E. Scuseria, 
 M. A. Robb, J. R. Cheeseman, G. Scalmani, V. Barone, B. Mennucci, 
 G. A. Petersson, H. Nakatsuji, M. Caricato, X. Li, H. P. Hratchian, 
 A. F. Izmaylov, J. Bloino, G. Zheng, J. L. Sonnenberg, M. Hada, 
 M. Ehara, K. Toyota, R. Fukuda, J. Hasegawa, M. Ishida, T. Nakajima, 
 Y. Honda, O. Kitao, H. Nakai, T. Vreven, J. A. Montgomery, Jr., 
 J. E. Peralta, F. Ogliaro, M. Bearpark, J. J. Heyd, E. Brothers, 
 K. N. Kudin, V. N. Staroverov, T. Keith, R. Kobayashi, J. Normand, 
 K. Raghavachari, A. Rendell, J. C. Burant, S. S. Iyengar, J. Tomasi, 
 M. Cossi, N. Rega, J. M. Millam, M. Klene, J. E. Knox, J. B. Cross, 
 V. Bakken, C. Adamo, J. Jaramillo, R. Gomperts, R. E. Stratmann, 
 O. Yazyev, A. J. Austin, R. Cammi, C. Pomelli, J. W. Ochterski, 
 R. L. Martin, K. Morokuma, V. G. Zakrzewski, G. A. Voth, 
 P. Salvador, J. J. Dannenberg, S. Dapprich, A. D. Daniels, 
 O. Farkas, J. B. Foresman, J. V. Ortiz, J. Cioslowski, 
 and D. J. Fox, Gaussian, Inc., Wallingford CT, 2013.
 
 ******************************************
 Gaussian 09:  ES64L-G09RevD.01 24-Apr-2013
                 6-Feb-2025 
 ******************************************
 %nprocshared=24
 Will use up to   24 processors via shared memory.
 %mem=40GB
 %rwf=cytopopt/mXD1/mXD1_neu.rwf
 %nosave
 %chk=cytopopt/mXD1/mXD1_neu.chk
 ----------------------------------------------------------------------
 #p CAM-B3LYP/6-31G(d,p) opt SCRF=(PCM,Solvent=Generic,Read) NoSymm out
 =wfn
 ----------------------------------------------------------------------
 1/14=-1,18=20,19=15,26=3,38=1,40=2/1,3;
 2/9=110,12=2,15=1,17=6,18=5,40=1/2;
 3/5=1,6=6,7=101,11=2,16=1,25=1,30=1,70=2203,71=1,72=-2,74=-40/1,2,3;
 4//1;
 5/5=2,38=5/2;
 6/7=2,8=2,9=2,10=2,28=1/1;
 7/30=1/1,2,3,16;
 1/14=-1,18=20,19=15,26=3/3(2);
 2/9=110,15=1/2;
 99/6=100/99;
 2/9=110,15=1/2;
 3/5=1,6=6,7=101,11=2,16=1,25=1,30=1,70=2205,71=1,72=-2,74=-40/1,2,3;
 4/5=5,16=3,69=1/1;
 5/5=2,38=5/2;
 7/30=1/1,2,3,16;
 1/14=-1,18=20,19=15,26=3/3(-5);
 2/9=110,15=1/2;
 6/7=2,8=2,9=2,10=2,19=2,28=1/1;
 99/6=100,9=1/99;
 Leave Link    1 at Thu Feb  6 01:50:58 2025, MaxMem=  5368709120 cpu:         1.3
 (Enter /home/k0335/k033513/app/g09/l101.exe)
 --------------
 Title mXD1_neu
 --------------
 Symbolic Z-matrix:
 Charge =  0 Multiplicity = 1
 F                    -3.44611   4.07718   1.29086 
 C                    -3.38476   2.73323   1.34578 
 F                    -3.34066   2.38757   2.65029 
 C                    -4.52257   2.04144   0.61976 
 F                    -5.67351   1.97299   1.30774 
 F                    -4.81805   2.72295  -0.52635 
 C                    -3.89544   0.71549   0.26049 
 F                    -4.565     0.16703  -0.79334 
 C                    -3.90516  -0.25917   1.4328 
 F                    -2.96475   0.09311   2.3477 
 C                    -3.73847  -1.71388   0.97484 
 O                    -4.86997  -2.26076   0.47427 
 O                    -2.72215  -2.39018   1.02782 
 F                    -5.09618  -0.15216   2.09522 
 C                    -2.52479   1.25139  -0.16929 
 F                    -2.70643   1.90513  -1.36071 
 C                    -1.4348    0.20568  -0.3832 
 F                    -1.96471  -0.82436  -1.11498 
 C                    -0.20116   0.78943  -1.0901 
 N                     0.4059   -0.09091  -1.97308 
 C                     1.65897   0.21303  -2.62693 
 C                     2.80364  -0.47059  -1.92695 
 C                     3.31696   0.05769  -0.73138 
 C                     4.36853  -0.57646  -0.05358 
 C                     4.91155  -0.00753   1.23179 
 N                     4.54179  -0.83429   2.37426 
 C                     4.89851  -1.76054  -0.58389 
 C                     4.39358  -2.2961   -1.76807 
 C                     3.35029  -1.6557   -2.43674 
 O                     0.25408   1.90671  -0.85824 
 F                    -1.08653  -0.33959   0.81418 
 O                    -2.16147   2.28596   0.76453 
 H                    -4.63414  -3.18895   0.25803 
 H                     0.09189  -1.05607  -1.98578 
 H                     1.82886   1.29434  -2.66528 
 H                     1.57518  -0.1399   -3.66069 
 H                     2.88692   0.97295  -0.32538 
 H                     4.53839   1.01192   1.38476 
 H                     6.00358   0.0631    1.16212 
 H                     4.81693  -0.35892   3.23121 
 H                     3.52599  -0.91161   2.40334 
 H                     5.70358  -2.27396  -0.06181 
 H                     4.81318  -3.21655  -2.16645 
 H                     2.96849  -2.09014  -3.35738 
 
 NAtoms=     44 NQM=       44 NQMF=       0 NMMI=      0 NMMIF=      0
                NMic=       0 NMicF=      0.
                    Isotopes and Nuclear Properties:
 (Nuclear quadrupole moments (NQMom) in fm**2, nuclear magnetic moments (NMagM)
  in nuclear magnetons)

  Atom         1           2           3           4           5           6           7           8           9          10
 IAtWgt=          19          12          19          12          19          19          12          19          12          19
 AtmWgt=  18.9984033  12.0000000  18.9984033  12.0000000  18.9984033  18.9984033  12.0000000  18.9984033  12.0000000  18.9984033
 NucSpn=           1           0           1           0           1           1           0           1           0           1
 AtZEff=   0.0000000   0.0000000   0.0000000   0.0000000   0.0000000   0.0000000   0.0000000   0.0000000   0.0000000   0.0000000
 NQMom=    0.0000000   0.0000000   0.0000000   0.0000000   0.0000000   0.0000000   0.0000000   0.0000000   0.0000000   0.0000000
 NMagM=    2.6288670   0.0000000   2.6288670   0.0000000   2.6288670   2.6288670   0.0000000   2.6288670   0.0000000   2.6288670
 AtZNuc=   9.0000000   6.0000000   9.0000000   6.0000000   9.0000000   9.0000000   6.0000000   9.0000000   6.0000000   9.0000000

  Atom        11          12          13          14          15          16          17          18          19          20
 IAtWgt=          12          16          16          19          12          19          12          19          12          14
 AtmWgt=  12.0000000  15.9949146  15.9949146  18.9984033  12.0000000  18.9984033  12.0000000  18.9984033  12.0000000  14.0030740
 NucSpn=           0           0           0           1           0           1           0           1           0           2
 AtZEff=   0.0000000   0.0000000   0.0000000   0.0000000   0.0000000   0.0000000   0.0000000   0.0000000   0.0000000   0.0000000
 NQMom=    0.0000000   0.0000000   0.0000000   0.0000000   0.0000000   0.0000000   0.0000000   0.0000000   0.0000000   2.0440000
 NMagM=    0.0000000   0.0000000   0.0000000   2.6288670   0.0000000   2.6288670   0.0000000   2.6288670   0.0000000   0.4037610
 AtZNuc=   6.0000000   8.0000000   8.0000000   9.0000000   6.0000000   9.0000000   6.0000000   9.0000000   6.0000000   7.0000000

  Atom        21          22          23          24          25          26          27          28          29          30
 IAtWgt=          12          12          12          12          12          14          12          12          12          16
 AtmWgt=  12.0000000  12.0000000  12.0000000  12.0000000  12.0000000  14.0030740  12.0000000  12.0000000  12.0000000  15.9949146
 NucSpn=           0           0           0           0           0           2           0           0           0           0
 AtZEff=   0.0000000   0.0000000   0.0000000   0.0000000   0.0000000   0.0000000   0.0000000   0.0000000   0.0000000   0.0000000
 NQMom=    0.0000000   0.0000000   0.0000000   0.0000000   0.0000000   2.0440000   0.0000000   0.0000000   0.0000000   0.0000000
 NMagM=    0.0000000   0.0000000   0.0000000   0.0000000   0.0000000   0.4037610   0.0000000   0.0000000   0.0000000   0.0000000
 AtZNuc=   6.0000000   6.0000000   6.0000000   6.0000000   6.0000000   7.0000000   6.0000000   6.0000000   6.0000000   8.0000000

  Atom        31          32          33          34          35          36          37          38          39          40
 IAtWgt=          19          16           1           1           1           1           1           1           1           1
 AtmWgt=  18.9984033  15.9949146   1.0078250   1.0078250   1.0078250   1.0078250   1.0078250   1.0078250   1.0078250   1.0078250
 NucSpn=           1           0           1           1           1           1           1           1           1           1
 AtZEff=   0.0000000   0.0000000   0.0000000   0.0000000   0.0000000   0.0000000   0.0000000   0.0000000   0.0000000   0.0000000
 NQMom=    0.0000000   0.0000000   0.0000000   0.0000000   0.0000000   0.0000000   0.0000000   0.0000000   0.0000000   0.0000000
 NMagM=    2.6288670   0.0000000   2.7928460   2.7928460   2.7928460   2.7928460   2.7928460   2.7928460   2.7928460   2.7928460
 AtZNuc=   9.0000000   8.0000000   1.0000000   1.0000000   1.0000000   1.0000000   1.0000000   1.0000000   1.0000000   1.0000000

  Atom        41          42          43          44
 IAtWgt=           1           1           1           1
 AtmWgt=   1.0078250   1.0078250   1.0078250   1.0078250
 NucSpn=           1           1           1           1
 AtZEff=   0.0000000   0.0000000   0.0000000   0.0000000
 NQMom=    0.0000000   0.0000000   0.0000000   0.0000000
 NMagM=    2.7928460   2.7928460   2.7928460   2.7928460
 AtZNuc=   1.0000000   1.0000000   1.0000000   1.0000000
 Leave Link  101 at Thu Feb  6 01:50:58 2025, MaxMem=  5368709120 cpu:         3.3
 (Enter /home/k0335/k033513/app/g09/l103.exe)

 GradGradGradGradGradGradGradGradGradGradGradGradGradGradGradGradGradGrad
 Berny optimization.
 Initialization pass.
                           ----------------------------
                           !    Initial Parameters    !
                           ! (Angstroms and Degrees)  !
 --------------------------                            --------------------------
 ! Name  Definition              Value          Derivative Info.                !
 --------------------------------------------------------------------------------
 ! R1    R(1,2)                  1.3465         estimate D2E/DX2                !
 ! R2    R(2,3)                  1.3503         estimate D2E/DX2                !
 ! R3    R(2,4)                  1.5167         estimate D2E/DX2                !
 ! R4    R(2,32)                 1.4263         estimate D2E/DX2                !
 ! R5    R(4,5)                  1.3426         estimate D2E/DX2                !
 ! R6    R(4,6)                  1.3658         estimate D2E/DX2                !
 ! R7    R(4,7)                  1.5101         estimate D2E/DX2                !
 ! R8    R(7,8)                  1.3637         estimate D2E/DX2                !
 ! R9    R(7,9)                  1.5246         estimate D2E/DX2                !
 ! R10   R(7,15)                 1.5332         estimate D2E/DX2                !
 ! R11   R(9,10)                 1.3585         estimate D2E/DX2                !
 ! R12   R(9,11)                 1.5342         estimate D2E/DX2                !
 ! R13   R(9,14)                 1.367          estimate D2E/DX2                !
 ! R14   R(11,12)                1.3528         estimate D2E/DX2                !
 ! R15   R(11,13)                1.2219         estimate D2E/DX2                !
 ! R16   R(12,33)                0.9818         estimate D2E/DX2                !
 ! R17   R(15,16)                1.3711         estimate D2E/DX2                !
 ! R18   R(15,17)                1.5256         estimate D2E/DX2                !
 ! R19   R(15,32)                1.4403         estimate D2E/DX2                !
 ! R20   R(17,18)                1.3701         estimate D2E/DX2                !
 ! R21   R(17,19)                1.537          estimate D2E/DX2                !
 ! R22   R(17,31)                1.361          estimate D2E/DX2                !
 ! R23   R(19,20)                1.3868         estimate D2E/DX2                !
 ! R24   R(19,30)                1.2285         estimate D2E/DX2                !
 ! R25   R(20,21)                1.4457         estimate D2E/DX2                !
 ! R26   R(20,34)                1.015          estimate D2E/DX2                !
 ! R27   R(21,22)                1.5058         estimate D2E/DX2                !
 ! R28   R(21,35)                1.0952         estimate D2E/DX2                !
 ! R29   R(21,36)                1.0956         estimate D2E/DX2                !
 ! R30   R(22,23)                1.4043         estimate D2E/DX2                !
 ! R31   R(22,29)                1.4011         estimate D2E/DX2                !
 ! R32   R(23,24)                1.4026         estimate D2E/DX2                !
 ! R33   R(23,37)                1.0897         estimate D2E/DX2                !
 ! R34   R(24,25)                1.5069         estimate D2E/DX2                !
 ! R35   R(24,27)                1.4015         estimate D2E/DX2                !
 ! R36   R(25,26)                1.4579         estimate D2E/DX2                !
 ! R37   R(25,38)                1.0963         estimate D2E/DX2                !
 ! R38   R(25,39)                1.0965         estimate D2E/DX2                !
 ! R39   R(26,40)                1.0179         estimate D2E/DX2                !
 ! R40   R(26,41)                1.0192         estimate D2E/DX2                !
 ! R41   R(27,28)                1.3943         estimate D2E/DX2                !
 ! R42   R(27,42)                1.0883         estimate D2E/DX2                !
 ! R43   R(28,29)                1.3949         estimate D2E/DX2                !
 ! R44   R(28,43)                1.0872         estimate D2E/DX2                !
 ! R45   R(29,44)                1.0872         estimate D2E/DX2                !
 ! A1    A(1,2,3)              107.2422         estimate D2E/DX2                !
 ! A2    A(1,2,4)              113.6762         estimate D2E/DX2                !
 ! A3    A(1,2,32)             109.5997         estimate D2E/DX2                !
 ! A4    A(3,2,4)              111.7287         estimate D2E/DX2                !
 ! A5    A(3,2,32)             106.5843         estimate D2E/DX2                !
 ! A6    A(4,2,32)             107.7773         estimate D2E/DX2                !
 ! A7    A(2,4,5)              114.9018         estimate D2E/DX2                !
 ! A8    A(2,4,6)              109.658          estimate D2E/DX2                !
 ! A9    A(2,4,7)              101.7023         estimate D2E/DX2                !
 ! A10   A(5,4,6)              105.6633         estimate D2E/DX2                !
 ! A11   A(5,4,7)              115.6665         estimate D2E/DX2                !
 ! A12   A(6,4,7)              109.1674         estimate D2E/DX2                !
 ! A13   A(4,7,8)              109.4555         estimate D2E/DX2                !
 ! A14   A(4,7,9)              112.0697         estimate D2E/DX2                !
 ! A15   A(4,7,15)              97.53           estimate D2E/DX2                !
 ! A16   A(8,7,9)              109.51           estimate D2E/DX2                !
 ! A17   A(8,7,15)             111.2785         estimate D2E/DX2                !
 ! A18   A(9,7,15)             116.4049         estimate D2E/DX2                !
 ! A19   A(7,9,10)             110.3445         estimate D2E/DX2                !
 ! A20   A(7,9,11)             112.0832         estimate D2E/DX2                !
 ! A21   A(7,9,14)             109.1546         estimate D2E/DX2                !
 ! A22   A(10,9,11)            111.8205         estimate D2E/DX2                !
 ! A23   A(10,9,14)            104.8612         estimate D2E/DX2                !
 ! A24   A(11,9,14)            108.2718         estimate D2E/DX2                !
 ! A25   A(9,11,12)            113.7605         estimate D2E/DX2                !
 ! A26   A(9,11,13)            127.0297         estimate D2E/DX2                !
 ! A27   A(12,11,13)           119.2086         estimate D2E/DX2                !
 ! A28   A(11,12,33)           105.2358         estimate D2E/DX2                !
 ! A29   A(7,15,16)            106.9667         estimate D2E/DX2                !
 ! A30   A(7,15,17)            116.0054         estimate D2E/DX2                !
 ! A31   A(7,15,32)            107.149          estimate D2E/DX2                !
 ! A32   A(16,15,17)           107.4361         estimate D2E/DX2                !
 ! A33   A(16,15,32)           104.7337         estimate D2E/DX2                !
 ! A34   A(17,15,32)           113.7694         estimate D2E/DX2                !
 ! A35   A(15,17,18)           108.2926         estimate D2E/DX2                !
 ! A36   A(15,17,19)           112.1862         estimate D2E/DX2                !
 ! A37   A(15,17,31)           109.5175         estimate D2E/DX2                !
 ! A38   A(18,17,19)           110.5062         estimate D2E/DX2                !
 ! A39   A(18,17,31)           105.5253         estimate D2E/DX2                !
 ! A40   A(19,17,31)           110.5729         estimate D2E/DX2                !
 ! A41   A(17,19,20)           113.7714         estimate D2E/DX2                !
 ! A42   A(17,19,30)           123.7811         estimate D2E/DX2                !
 ! A43   A(20,19,30)           122.3624         estimate D2E/DX2                !
 ! A44   A(19,20,21)           122.2709         estimate D2E/DX2                !
 ! A45   A(19,20,34)           118.4347         estimate D2E/DX2                !
 ! A46   A(21,20,34)           117.541          estimate D2E/DX2                !
 ! A47   A(20,21,22)           110.6821         estimate D2E/DX2                !
 ! A48   A(20,21,35)           110.9676         estimate D2E/DX2                !
 ! A49   A(20,21,36)           107.0222         estimate D2E/DX2                !
 ! A50   A(22,21,35)           110.2772         estimate D2E/DX2                !
 ! A51   A(22,21,36)           110.5188         estimate D2E/DX2                !
 ! A52   A(35,21,36)           107.27           estimate D2E/DX2                !
 ! A53   A(21,22,23)           120.1884         estimate D2E/DX2                !
 ! A54   A(21,22,29)           120.7583         estimate D2E/DX2                !
 ! A55   A(23,22,29)           119.0352         estimate D2E/DX2                !
 ! A56   A(22,23,24)           121.0236         estimate D2E/DX2                !
 ! A57   A(22,23,37)           119.2698         estimate D2E/DX2                !
 ! A58   A(24,23,37)           119.7063         estimate D2E/DX2                !
 ! A59   A(23,24,25)           120.775          estimate D2E/DX2                !
 ! A60   A(23,24,27)           118.8581         estimate D2E/DX2                !
 ! A61   A(25,24,27)           120.3628         estimate D2E/DX2                !
 ! A62   A(24,25,26)           111.2809         estimate D2E/DX2                !
 ! A63   A(24,25,38)           110.3307         estimate D2E/DX2                !
 ! A64   A(24,25,39)           109.2082         estimate D2E/DX2                !
 ! A65   A(26,25,38)           109.3692         estimate D2E/DX2                !
 ! A66   A(26,25,39)           109.8096         estimate D2E/DX2                !
 ! A67   A(38,25,39)           106.7355         estimate D2E/DX2                !
 ! A68   A(25,26,40)           109.0477         estimate D2E/DX2                !
 ! A69   A(25,26,41)           108.5517         estimate D2E/DX2                !
 ! A70   A(40,26,41)           106.31           estimate D2E/DX2                !
 ! A71   A(24,27,28)           120.5935         estimate D2E/DX2                !
 ! A72   A(24,27,42)           119.7902         estimate D2E/DX2                !
 ! A73   A(28,27,42)           119.6125         estimate D2E/DX2                !
 ! A74   A(27,28,29)           120.1096         estimate D2E/DX2                !
 ! A75   A(27,28,43)           119.7783         estimate D2E/DX2                !
 ! A76   A(29,28,43)           120.1118         estimate D2E/DX2                !
 ! A77   A(22,29,28)           120.3781         estimate D2E/DX2                !
 ! A78   A(22,29,44)           120.6009         estimate D2E/DX2                !
 ! A79   A(28,29,44)           119.0209         estimate D2E/DX2                !
 ! A80   A(2,32,15)            105.8498         estimate D2E/DX2                !
 ! D1    D(1,2,4,5)            -80.5526         estimate D2E/DX2                !
 ! D2    D(1,2,4,6)             38.2576         estimate D2E/DX2                !
 ! D3    D(1,2,4,7)            153.7278         estimate D2E/DX2                !
 ! D4    D(3,2,4,5)             40.9914         estimate D2E/DX2                !
 ! D5    D(3,2,4,6)            159.8017         estimate D2E/DX2                !
 ! D6    D(3,2,4,7)            -84.7281         estimate D2E/DX2                !
 ! D7    D(32,2,4,5)           157.7636         estimate D2E/DX2                !
 ! D8    D(32,2,4,6)           -83.4262         estimate D2E/DX2                !
 ! D9    D(32,2,4,7)            32.0441         estimate D2E/DX2                !
 ! D10   D(1,2,32,15)         -130.4059         estimate D2E/DX2                !
 ! D11   D(3,2,32,15)          113.8505         estimate D2E/DX2                !
 ! D12   D(4,2,32,15)           -6.2249         estimate D2E/DX2                !
 ! D13   D(2,4,7,8)           -157.6841         estimate D2E/DX2                !
 ! D14   D(2,4,7,9)             80.6193         estimate D2E/DX2                !
 ! D15   D(2,4,7,15)           -41.9039         estimate D2E/DX2                !
 ! D16   D(5,4,7,8)             77.1034         estimate D2E/DX2                !
 ! D17   D(5,4,7,9)            -44.5932         estimate D2E/DX2                !
 ! D18   D(5,4,7,15)          -167.1164         estimate D2E/DX2                !
 ! D19   D(6,4,7,8)            -41.8539         estimate D2E/DX2                !
 ! D20   D(6,4,7,9)           -163.5504         estimate D2E/DX2                !
 ! D21   D(6,4,7,15)            73.9263         estimate D2E/DX2                !
 ! D22   D(4,7,9,10)           -74.5789         estimate D2E/DX2                !
 ! D23   D(4,7,9,11)           160.0934         estimate D2E/DX2                !
 ! D24   D(4,7,9,14)            40.1528         estimate D2E/DX2                !
 ! D25   D(8,7,9,10)           163.7558         estimate D2E/DX2                !
 ! D26   D(8,7,9,11)            38.4281         estimate D2E/DX2                !
 ! D27   D(8,7,9,14)           -81.5125         estimate D2E/DX2                !
 ! D28   D(15,7,9,10)           36.4712         estimate D2E/DX2                !
 ! D29   D(15,7,9,11)          -88.8565         estimate D2E/DX2                !
 ! D30   D(15,7,9,14)          151.2029         estimate D2E/DX2                !
 ! D31   D(4,7,15,16)          -71.2258         estimate D2E/DX2                !
 ! D32   D(4,7,15,17)          168.9454         estimate D2E/DX2                !
 ! D33   D(4,7,15,32)           40.639          estimate D2E/DX2                !
 ! D34   D(8,7,15,16)           43.1067         estimate D2E/DX2                !
 ! D35   D(8,7,15,17)          -76.7221         estimate D2E/DX2                !
 ! D36   D(8,7,15,32)          154.9715         estimate D2E/DX2                !
 ! D37   D(9,7,15,16)          169.5138         estimate D2E/DX2                !
 ! D38   D(9,7,15,17)           49.685          estimate D2E/DX2                !
 ! D39   D(9,7,15,32)          -78.6214         estimate D2E/DX2                !
 ! D40   D(7,9,11,12)          -78.2829         estimate D2E/DX2                !
 ! D41   D(7,9,11,13)          102.1303         estimate D2E/DX2                !
 ! D42   D(10,9,11,12)         157.2045         estimate D2E/DX2                !
 ! D43   D(10,9,11,13)         -22.3823         estimate D2E/DX2                !
 ! D44   D(14,9,11,12)          42.1715         estimate D2E/DX2                !
 ! D45   D(14,9,11,13)        -137.4152         estimate D2E/DX2                !
 ! D46   D(9,11,12,33)        -177.7672         estimate D2E/DX2                !
 ! D47   D(13,11,12,33)          1.8548         estimate D2E/DX2                !
 ! D48   D(7,15,17,18)          45.6572         estimate D2E/DX2                !
 ! D49   D(7,15,17,19)         167.8835         estimate D2E/DX2                !
 ! D50   D(7,15,17,31)         -68.9423         estimate D2E/DX2                !
 ! D51   D(16,15,17,18)        -73.9169         estimate D2E/DX2                !
 ! D52   D(16,15,17,19)         48.3095         estimate D2E/DX2                !
 ! D53   D(16,15,17,31)        171.4836         estimate D2E/DX2                !
 ! D54   D(32,15,17,18)        170.6405         estimate D2E/DX2                !
 ! D55   D(32,15,17,19)        -67.1331         estimate D2E/DX2                !
 ! D56   D(32,15,17,31)         56.041          estimate D2E/DX2                !
 ! D57   D(7,15,32,2)          -22.0607         estimate D2E/DX2                !
 ! D58   D(16,15,32,2)          91.3254         estimate D2E/DX2                !
 ! D59   D(17,15,32,2)        -151.6506         estimate D2E/DX2                !
 ! D60   D(15,17,19,20)       -143.9305         estimate D2E/DX2                !
 ! D61   D(15,17,19,30)         39.3603         estimate D2E/DX2                !
 ! D62   D(18,17,19,20)        -22.9716         estimate D2E/DX2                !
 ! D63   D(18,17,19,30)        160.3192         estimate D2E/DX2                !
 ! D64   D(31,17,19,20)         93.4912         estimate D2E/DX2                !
 ! D65   D(31,17,19,30)        -83.218          estimate D2E/DX2                !
 ! D66   D(17,19,20,21)       -173.1782         estimate D2E/DX2                !
 ! D67   D(17,19,20,34)         -8.641          estimate D2E/DX2                !
 ! D68   D(30,19,20,21)          3.5837         estimate D2E/DX2                !
 ! D69   D(30,19,20,34)        168.1209         estimate D2E/DX2                !
 ! D70   D(19,20,21,22)         99.9287         estimate D2E/DX2                !
 ! D71   D(19,20,21,35)        -22.8483         estimate D2E/DX2                !
 ! D72   D(19,20,21,36)       -139.5803         estimate D2E/DX2                !
 ! D73   D(34,20,21,22)        -64.7393         estimate D2E/DX2                !
 ! D74   D(34,20,21,35)        172.4837         estimate D2E/DX2                !
 ! D75   D(34,20,21,36)         55.7517         estimate D2E/DX2                !
 ! D76   D(20,21,22,23)        -78.102          estimate D2E/DX2                !
 ! D77   D(20,21,22,29)        100.3375         estimate D2E/DX2                !
 ! D78   D(35,21,22,23)         45.0755         estimate D2E/DX2                !
 ! D79   D(35,21,22,29)       -136.485          estimate D2E/DX2                !
 ! D80   D(36,21,22,23)        163.5132         estimate D2E/DX2                !
 ! D81   D(36,21,22,29)        -18.0473         estimate D2E/DX2                !
 ! D82   D(21,22,23,24)        178.9723         estimate D2E/DX2                !
 ! D83   D(21,22,23,37)         -0.8309         estimate D2E/DX2                !
 ! D84   D(29,22,23,24)          0.506          estimate D2E/DX2                !
 ! D85   D(29,22,23,37)       -179.2972         estimate D2E/DX2                !
 ! D86   D(21,22,29,28)       -178.7684         estimate D2E/DX2                !
 ! D87   D(21,22,29,44)          1.1931         estimate D2E/DX2                !
 ! D88   D(23,22,29,28)         -0.3111         estimate D2E/DX2                !
 ! D89   D(23,22,29,44)        179.6503         estimate D2E/DX2                !
 ! D90   D(22,23,24,25)       -179.7638         estimate D2E/DX2                !
 ! D91   D(22,23,24,27)         -0.4939         estimate D2E/DX2                !
 ! D92   D(37,23,24,25)          0.0386         estimate D2E/DX2                !
 ! D93   D(37,23,24,27)        179.3085         estimate D2E/DX2                !
 ! D94   D(23,24,25,26)        108.8924         estimate D2E/DX2                !
 ! D95   D(23,24,25,38)        -12.7008         estimate D2E/DX2                !
 ! D96   D(23,24,25,39)       -129.7192         estimate D2E/DX2                !
 ! D97   D(27,24,25,26)        -70.3665         estimate D2E/DX2                !
 ! D98   D(27,24,25,38)        168.0402         estimate D2E/DX2                !
 ! D99   D(27,24,25,39)         51.0218         estimate D2E/DX2                !
 ! D100  D(23,24,27,28)          0.2883         estimate D2E/DX2                !
 ! D101  D(23,24,27,42)       -178.9967         estimate D2E/DX2                !
 ! D102  D(25,24,27,28)        179.5613         estimate D2E/DX2                !
 ! D103  D(25,24,27,42)          0.2763         estimate D2E/DX2                !
 ! D104  D(24,25,26,40)       -172.5882         estimate D2E/DX2                !
 ! D105  D(24,25,26,41)        -57.1679         estimate D2E/DX2                !
 ! D106  D(38,25,26,40)        -50.4366         estimate D2E/DX2                !
 ! D107  D(38,25,26,41)         64.9837         estimate D2E/DX2                !
 ! D108  D(39,25,26,40)         66.3751         estimate D2E/DX2                !
 ! D109  D(39,25,26,41)       -178.2045         estimate D2E/DX2                !
 ! D110  D(24,27,28,29)         -0.1017         estimate D2E/DX2                !
 ! D111  D(24,27,28,43)       -179.8666         estimate D2E/DX2                !
 ! D112  D(42,27,28,29)        179.1846         estimate D2E/DX2                !
 ! D113  D(42,27,28,43)         -0.5802         estimate D2E/DX2                !
 ! D114  D(27,28,29,22)          0.1131         estimate D2E/DX2                !
 ! D115  D(27,28,29,44)       -179.849          estimate D2E/DX2                !
 ! D116  D(43,28,29,22)        179.8772         estimate D2E/DX2                !
 ! D117  D(43,28,29,44)         -0.0849         estimate D2E/DX2                !
 --------------------------------------------------------------------------------
 Trust Radius=3.00D-01 FncErr=1.00D-07 GrdErr=1.00D-06
 Number of steps in this run=    252 maximum allowed number of steps=    264.
 GradGradGradGradGradGradGradGradGradGradGradGradGradGradGradGradGradGrad

 Leave Link  103 at Thu Feb  6 01:50:58 2025, MaxMem=  5368709120 cpu:         0.2
 (Enter /home/k0335/k033513/app/g09/l202.exe)
                          Input orientation:                          
 ---------------------------------------------------------------------
 Center     Atomic      Atomic             Coordinates (Angstroms)
 Number     Number       Type             X           Y           Z
 ---------------------------------------------------------------------
      1          9           0       -3.446106    4.077183    1.290857
      2          6           0       -3.384764    2.733227    1.345776
      3          9           0       -3.340661    2.387566    2.650289
      4          6           0       -4.522574    2.041440    0.619763
      5          9           0       -5.673505    1.972987    1.307738
      6          9           0       -4.818052    2.722945   -0.526352
      7          6           0       -3.895435    0.715486    0.260491
      8          9           0       -4.565002    0.167029   -0.793342
      9          6           0       -3.905160   -0.259167    1.432803
     10          9           0       -2.964750    0.093105    2.347704
     11          6           0       -3.738473   -1.713878    0.974843
     12          8           0       -4.869969   -2.260759    0.474271
     13          8           0       -2.722148   -2.390177    1.027818
     14          9           0       -5.096181   -0.152164    2.095219
     15          6           0       -2.524789    1.251390   -0.169287
     16          9           0       -2.706431    1.905129   -1.360712
     17          6           0       -1.434802    0.205676   -0.383198
     18          9           0       -1.964711   -0.824355   -1.114976
     19          6           0       -0.201157    0.789429   -1.090097
     20          7           0        0.405902   -0.090908   -1.973078
     21          6           0        1.658974    0.213031   -2.626930
     22          6           0        2.803643   -0.470586   -1.926946
     23          6           0        3.316964    0.057694   -0.731384
     24          6           0        4.368527   -0.576455   -0.053581
     25          6           0        4.911548   -0.007527    1.231786
     26          7           0        4.541791   -0.834290    2.374264
     27          6           0        4.898509   -1.760539   -0.583885
     28          6           0        4.393581   -2.296095   -1.768065
     29          6           0        3.350292   -1.655703   -2.436741
     30          8           0        0.254080    1.906706   -0.858237
     31          9           0       -1.086526   -0.339589    0.814175
     32          8           0       -2.161465    2.285962    0.764526
     33          1           0       -4.634141   -3.188951    0.258025
     34          1           0        0.091889   -1.056066   -1.985780
     35          1           0        1.828863    1.294335   -2.665275
     36          1           0        1.575184   -0.139898   -3.660688
     37          1           0        2.886922    0.972954   -0.325376
     38          1           0        4.538387    1.011916    1.384756
     39          1           0        6.003582    0.063098    1.162116
     40          1           0        4.816927   -0.358923    3.231212
     41          1           0        3.525987   -0.911607    2.403335
     42          1           0        5.703582   -2.273963   -0.061805
     43          1           0        4.813176   -3.216547   -2.166454
     44          1           0        2.968489   -2.090142   -3.357384
 ---------------------------------------------------------------------
                    Distance matrix (angstroms):
                    1          2          3          4          5
     1  F    0.000000
     2  C    1.346476   0.000000
     3  F    2.171170   1.350252   0.000000
     4  C    2.398625   1.516666   2.374817   0.000000
     5  F    3.064185   2.412001   2.723322   1.342623   0.000000
     6  F    2.649235   2.357813   3.519405   1.365773   2.158269
     7  C    3.544652   2.347319   2.968966   1.510144   2.416520
     8  F    4.570024   3.543185   4.276493   2.347782   2.984091
     9  C    4.362890   3.038554   2.967512   2.516948   2.850473
    10  F    4.149880   2.854911   2.344657   3.034568   3.457288
    11  C    5.807041   4.476544   4.448282   3.852702   4.177097
    12  O    6.547038   5.282542   5.355442   4.318653   4.389185
    13  O    6.513068   5.175850   5.083483   4.800757   5.275042
    14  F    4.610545   3.437455   3.136906   2.705161   2.338738
    15  C    3.311488   2.287097   3.147468   2.288651   3.552002
    16  F    3.506530   2.910491   4.089391   2.690583   3.991085
    17  C    4.672940   3.630457   4.194638   3.729651   4.893798
    18  F    5.657529   4.552828   5.136818   4.214827   5.239257
    19  C    5.196919   4.455018   5.138192   4.813086   6.090732
    20  N    6.547077   5.775784   6.446324   5.963188   7.209896
    21  C    7.506169   6.897324   7.587753   7.217730   8.505546
    22  C    8.372325   7.698799   8.177566   8.152880   9.396609
    23  C    8.123107   7.509076   7.822275   8.198732   9.415673
    24  C    9.194148   8.545509   8.690680   9.292924  10.449653
    25  C    9.302619   8.738050   8.709051   9.673443  10.769009
    26  N    9.439430   8.753013   8.519953   9.670099  10.647561
    27  C   10.355011   9.619259   9.774998  10.230377  11.370353
    28  C   10.556343   9.772039  10.063649  10.198713  11.359219
    29  C    9.641161   8.884319   9.327098   9.219170  10.421968
    30  O    4.798015   4.333820   5.046102   5.001906   6.311268
    31  F    5.030181   3.873848   3.986203   4.184916   5.160619
    32  O    2.266230   1.426309   2.226416   2.378147   3.567556
    33  H    7.434707   6.149499   6.204318   5.244072   5.369151
    34  H    7.043011   6.127408   6.718194   6.138132   7.298095
    35  H    7.156851   6.733561   7.494955   7.189603   8.516509
    36  H    8.216747   7.610559   8.389400   7.762934   9.038420
    37  H    7.235723   6.724980   7.045459   7.545567   8.772003
    38  H    8.553175   8.108067   8.097739   9.151292  10.257306
    39  H   10.267719   9.762395   9.743341  10.724176  11.833142
    40  H    9.577146   8.965712   8.627104   9.990380  10.917267
    41  H    8.644982   7.884271   7.622098   8.756766   9.703189
    42  H   11.219783  10.471450  10.530130  11.120319  12.220898
    43  H   11.548473  10.721091  11.004188  11.070938  12.205398
    44  H   10.039376   9.260045   9.795273   9.434177  10.628097
                    6          7          8          9         10
     6  F    0.000000
     7  C    2.345258   0.000000
     8  F    2.582252   1.363704   0.000000
     9  C    3.683022   1.524585   2.360669   0.000000
    10  F    4.314045   2.368542   3.525967   1.358496   0.000000
    11  C    4.806712   2.537074   2.710616   1.534176   2.397620
    12  O    5.083429   3.139021   2.755722   2.419920   3.560939
    13  O    5.740407   3.407424   3.640335   2.470776   2.822702
    14  F    3.900800   2.358142   2.954288   1.367032   2.160302
    15  C    2.748095   1.533158   2.393272   2.598826   2.805429
    16  F    2.413281   2.336082   2.607141   3.731602   4.135518
    17  C    4.219421   2.594023   3.157192   3.101066   3.132290
    18  F    4.590356   2.826785   2.801393   3.252070   3.719135
    19  C    5.037064   3.934113   4.417985   4.602631   4.465511
    20  N    6.107412   4.913309   5.115486   5.496689   5.483093
    21  C    7.256994   6.280217   6.488608   6.903911   6.792657
    22  C    8.381559   7.146278   7.482549   7.506041   7.201718
    23  C    8.562948   7.309939   7.882968   7.546071   6.995854
    24  C    9.772553   8.370234   8.994885   8.412128   7.745414
    25  C   10.257273   8.889832   9.692090   8.822589   7.955594
    26  N   10.424690   8.834966   9.693815   8.518691   7.563658
    27  C   10.701238   9.174809   9.660095   9.155640   8.594245
    28  C   10.563465   9.049445   9.342017   9.124896   8.763154
    29  C    9.462769   8.086913   8.287038   8.340580   8.113507
    30  O    5.148098   4.459712   5.123889   5.219114   4.891633
    31  F    5.010031   3.051183   3.865303   2.886844   2.463059
    32  O    2.985762   2.393136   3.562839   3.156699   2.821408
    33  H    5.966539   3.973704   3.517493   3.239622   4.233854
    34  H    6.365405   4.907431   4.960293   5.319601   5.426115
    35  H    7.127229   6.454670   6.756957   7.217107   7.039292
    36  H    7.674203   6.784910   6.783639   7.482783   7.534326
    37  H    7.903764   6.812481   7.509972   7.123320   6.493193
    38  H    9.701696   8.513589   9.398385   8.538820   7.620272
    39  H   11.270913   9.961379  10.748469   9.917676   9.046408
    40  H   10.791201   9.267405  10.222243   8.906123   7.844706
    41  H    9.561173   7.894094   8.766202   7.522603   6.568273
    42  H   11.657173  10.058917  10.580048   9.930820   9.303157
    43  H   11.433637   9.858542  10.064007   9.884843   9.582669
    44  H    9.581794   8.250698   8.271797   8.575862   8.515746
                   11         12         13         14         15
    11  C    0.000000
    12  O    1.352751   0.000000
    13  O    1.221926   2.221778   0.000000
    14  F    2.353203   2.669235   3.432795   0.000000
    15  C    3.402187   4.271911   3.838362   3.702703   0.000000
    16  F    4.429124   5.040107   4.914771   4.678335   1.371081
    17  C    3.291787   4.314965   3.222837   4.435797   1.525565
    18  F    2.881810   3.609638   2.759905   4.534677   2.348773
    19  C    4.800326   5.792124   4.577210   5.915581   2.541764
    20  N    5.338550   6.207462   4.906803   6.843078   3.693829
    21  C    6.768913   7.639645   6.271212   8.250102   4.962063
    22  C    7.263982   8.237408   6.553612   8.870537   5.869136
    23  C    7.471872   8.593876   6.749647   8.877766   5.988902
    24  C    8.250748   9.405600   7.398424   9.714837   7.132476
    25  C    8.820460  10.066229   7.999496  10.045948   7.671179
    26  N    8.443626   9.707008   7.549736   9.666109   7.794631
    27  C    8.776632   9.838347   7.814630  10.471786   8.021780
    28  C    8.601908   9.531143   7.645876  10.467903   7.937543
    29  C    7.867203   8.741440   7.029733   9.702690   6.936073
    30  O    5.692916   6.737894   5.556828   6.448809   2.937040
    31  F    2.991205   4.256862   2.631694   4.213494   2.359452
    32  O    4.304638   5.300275   4.716987   4.040762   1.440260
    33  H    1.868660   0.981793   2.210506   3.579223   4.934429
    34  H    4.885660   5.667731   4.333639   6.662407   3.933320
    35  H    7.300345   8.207910   6.922880   8.527068   5.018574
    36  H    7.224992   7.945812   6.746325   8.811227   5.561955
    37  H    7.266739   8.441901   6.678581   8.417547   5.421117
    38  H    8.723783  10.002827   8.026021   9.730608   7.236080
    39  H    9.904562  11.140357   9.065040  11.140994   8.713081
    40  H    8.951088  10.249569   8.112866   9.980127   8.249685
    41  H    7.446919   8.719723   6.566385   8.661032   6.921620
    42  H    9.515290  10.587140   8.496688  11.215599   8.952416
    43  H    9.233443  10.082175   8.226018  11.213726   8.820253
    44  H    7.993316   8.726518   7.190505   9.926003   7.176761
                   16         17         18         19         20
    16  F    0.000000
    17  C    2.336817   0.000000
    18  F    2.839123   1.370134   0.000000
    19  C    2.755797   1.536995   2.390615   0.000000
    20  N    3.747769   2.450280   2.625660   1.386784   0.000000
    21  C    4.850079   3.821758   4.061190   2.480762   1.445715
    22  C    6.027069   4.561239   4.849912   3.364042   2.428054
    23  C    6.331695   4.766803   5.368542   3.611272   3.168307
    24  C    7.610643   5.865066   6.426346   4.880780   4.429743
    25  C    8.271209   6.552083   7.311459   5.671511   5.529824
    26  N    8.601813   6.663692   7.383052   6.093752   6.046286
    27  C    8.477953   6.634539   6.947106   5.724088   4.990094
    28  C    8.259927   6.492054   6.558995   5.575995   4.561410
    29  C    7.107831   5.529819   5.539626   4.517179   3.366452
    30  O    3.002850   2.443663   3.528122   1.228539   2.292680
    31  F    3.520367   1.360997   2.174358   2.384284   3.171429
    32  O    2.226804   2.484532   3.639411   3.085781   4.442450
    33  H    5.682079   4.708549   3.821296   6.107069   6.322794
    34  H    4.121890   2.547753   2.245349   2.072191   1.015035
    35  H    4.758555   4.128506   4.613402   2.618606   2.103058
    36  H    5.272974   4.463337   4.413614   3.259904   2.053691
    37  H    5.764241   4.389688   5.233749   3.186646   3.162623
    38  H    7.798898   6.281295   7.204917   5.351418   5.437711
    39  H    9.253219   7.598545   8.334651   6.640693   6.417724
    40  H    9.100144   7.243400   8.068246   6.721130   6.827416
    41  H    7.806733   5.798492   6.521801   5.384161   5.437046
    42  H    9.480522   7.563625   7.874849   6.731099   6.040208
    43  H    9.133744   7.343626   7.264155   6.507682   5.406577
    44  H    7.221745   5.788397   5.564807   4.845531   3.532717
                   21         22         23         24         25
    21  C    0.000000
    22  C    1.505848   0.000000
    23  C    2.523124   1.404260   0.000000
    24  C    3.819305   2.443270   1.402621   0.000000
    25  C    5.051492   3.825608   2.530017   1.506891   0.000000
    26  N    5.866810   4.653369   3.455559   2.447638   1.457914
    27  C    4.308549   2.802901   2.414335   1.401484   2.523863
    28  C    3.809388   2.426032   2.788213   2.428424   3.808535
    29  C    2.527626   1.401149   2.417661   2.807317   4.314174
    30  O    2.823214   3.646084   3.579971   4.872600   5.452017
    31  F    4.436706   4.760706   4.683728   5.528717   6.021757
    32  O    5.513145   6.284495   6.100501   7.176596   7.450231
    33  H    7.713608   8.214879   8.645213   9.379246  10.108899
    34  H    2.115995   2.774862   3.635255   4.717314   5.889081
    35  H    1.095240   2.147154   2.735628   4.095204   5.136621
    36  H    1.095552   2.150425   3.413746   4.583074   5.923272
    37  H    2.717074   2.157723   1.089715   2.160948   2.735911
    38  H    5.002286   4.021756   2.623064   2.149555   1.096318
    39  H    5.766712   4.479591   3.286836   2.135498   1.096531
    40  H    6.679643   5.538265   4.257420   3.322386   2.032274
    41  H    5.482163   4.412212   3.287811   2.618900   2.027231
    42  H    5.396653   3.891088   3.403073   2.159623   2.727165
    43  H    4.682204   3.411142   3.875401   3.410576   4.674989
    44  H    2.748272   2.167092   3.410353   3.894415   5.401226
                   26         27         28         29         30
    26  N    0.000000
    27  C    3.120229   0.000000
    28  C    4.395194   1.394294   0.000000
    29  C    5.023958   2.416825   1.394877   0.000000
    30  O    6.028813   5.924076   5.968818   4.976843   0.000000
    31  F    5.861447   6.308274   6.366117   5.655614   3.104839
    32  O    7.567091   8.248370   8.389153   7.494284   2.934630
    33  H    9.706731   9.675773   9.295267   8.565266   7.148879
    34  H    6.233843   5.056203   4.482145   3.343669   3.174221
    35  H    6.106388   4.804911   4.502661   3.327116   2.473929
    36  H    6.760443   4.810165   4.021762   2.635663   3.713171
    37  H    3.645926   3.403718   3.877893   3.403294   2.843887
    38  H    2.094663   3.419319   4.572110   4.809532   4.918023
    39  H    2.100343   2.755968   4.091926   4.790198   6.366906
    40  H    1.017857   4.065237   5.378162   5.996528   6.532705
    41  H    1.019157   3.395289   4.479967   4.900090   5.411665
    42  H    3.058897   1.088262   2.151259   3.400079   6.914432
    43  H    5.134873   2.152154   1.087201   2.156228   6.981727
    44  H    6.074885   3.394983   2.144584   1.087242   5.439535
                   31         32         33         34         35
    31  F    0.000000
    32  O    2.837512   0.000000
    33  H    4.584074   6.028710   0.000000
    34  H    3.121178   4.879645   5.649710   0.000000
    35  H    4.824497   5.354398   8.391422   3.000529   0.000000
    36  H    5.210468   6.279320   7.950393   2.417611   1.764150
    37  H    4.337008   5.328986   8.615579   3.832241   2.588031
    38  H    5.813069   6.848058  10.151457   5.950496   4.880987
    39  H    7.110053   8.471552  11.160392   6.790426   5.795959
    40  H    6.379122   7.859893  10.303960   7.073118   6.813982
    41  H    4.912017   6.727351   8.739356   5.574785   5.782492
    42  H    7.114402   9.128784  10.383064   6.056076   5.875734
    43  H    7.208850   9.354885   9.753495   5.195274   5.431667
    44  H    6.075318   7.902965   8.489909   3.350439   3.637643
                   36         37         38         39         40
    36  H    0.000000
    37  H    3.752786   0.000000
    38  H    5.963535   2.377689   0.000000
    39  H    6.550676   3.571280   1.759722   0.000000
    40  H    7.619393   4.260063   2.316503   2.422274   0.000000
    41  H    6.416661   3.377253   2.400499   2.937542   1.630143
    42  H    5.877913   4.306450   3.774549   2.655153   3.911201
    43  H    4.709893   4.965072   5.528698   4.822086   6.107440
    44  H    2.415935   4.310717   5.880071   5.854410   7.058572
                   41         42         43         44
    41  H    0.000000
    42  H    3.560175   0.000000
    43  H    5.277554   2.472010   0.000000
    44  H    5.906406   4.286650   2.467787   0.000000
 Symmetry turned off by external request.
 Stoichiometry    C16H12F10N2O4
 Framework group  C1[X(C16H12F10N2O4)]
 Deg. of freedom   126
 Full point group                 C1      NOp   1
 Rotational constants (GHZ):      0.2585100      0.0750993      0.0727525
 Leave Link  202 at Thu Feb  6 01:50:58 2025, MaxMem=  5368709120 cpu:         0.1
 (Enter /home/k0335/k033513/app/g09/l301.exe)
 Standard basis: 6-31G(d,p) (6D, 7F)
 Ernie: Thresh=  0.10000D-02 Tol=  0.10000D-05 Strict=F.
   540 basis functions,   980 primitive gaussians,   540 cartesian basis functions
   122 alpha electrons      122 beta electrons
       nuclear repulsion energy      3879.2038875799 Hartrees.
 IExCor=20419 DFT=T Ex+Corr=CAM-B3LYP ExCW=0 ScaHFX=  1.000000
 ScaDFX=  1.000000  1.000000  1.000000  0.810000 ScalE2=  1.000000  1.000000
 IRadAn=      0 IRanWt=     -1 IRanGd=            0 ICorTp=0 IEmpDi=  4
  HFx wShort=  0.000000 wLong=  0.330000 cFull=  0.190000 cShort=  0.000000 cLong=  0.460000
  DFx wShort=  0.000000 wLong=  0.330000 cFull=  0.190000 cShort=  0.000000 cLong=  0.460000
 NAtoms=   44 NActive=   44 NUniq=   44 SFac= 1.00D+00 NAtFMM=   60 NAOKFM=F Big=F
 Integral buffers will be    131072 words long.
 Raffenetti 2 integral format.
 Two-electron integral symmetry is turned off.
 Using the following non-standard input for PCM:
 eps=2.05
 --- end of non-standard input.
 ------------------------------------------------------------------------------
 Polarizable Continuum Model (PCM)
 =================================
 Model                : PCM (using non-symmetric T matrix).
 Atomic radii         : UFF (Universal Force Field).
 Polarization charges : Total charges.
 Charge compensation  : None.
 Solution method      : On-the-fly selection.
 Cavity type          : Scaled VdW (van der Waals Surface) (Alpha=1.100).
 Cavity algorithm     : GePol (No added spheres)
                        Default sphere list used, NSphG=   44.
                        Lebedev-Laikov grids with approx.  5.0 points / Ang**2.
                        Smoothing algorithm: Karplus/York (Gamma=1.0000).
                        Polarization charges: spherical gaussians, with
                                              point-specific exponents (IZeta= 3).
                        Self-potential: point-specific (ISelfS= 7).
                        Self-field    : sphere-specific E.n sum rule (ISelfD= 2).
 1st derivatives      : Analytical E(r).r(x)/FMM algorithm (CHGder, D1EAlg=3).
                        Cavity 1st derivative terms included.
 Solvent              : Generic,
                        Eps                           =   2.050000
                        Eps(infinity)                 =   0.000000
                        RSolv                         =   0.000000 Ang.
                        Molar volume                  =   0.000000 cm**3/mol
                        Thermal expansion coefficient =   0.000000 K**-1
                        Absolute temperature          = 298.150000 K
                        Numeral density               =   0.000000 Ang**-3
                        Hydrogen bond acidity         =   0.000000
                        Hydrogen bond basicity        =   0.000000
                        Surface tension at interface  =   0.000000 (cal/mol)*Ang**-2
                        Carbon aromaticity            =   0.000000
                        Electronegative halogenicity  =   0.000000
 ------------------------------------------------------------------------------
 GePol: Number of generator spheres                  =      44
 GePol: Total number of spheres                      =      44
 GePol: Number of exposed spheres                    =      44 (100.00%)
 GePol: Number of points                             =    3373
 GePol: Average weight of points                     =       0.13
 GePol: Minimum weight of points                     =   0.27D-11
 GePol: Maximum weight of points                     =    0.20577
 GePol: Number of points with low weight             =     161
 GePol: Fraction of low-weight points (<1% of avg)   =       4.77%
 GePol: Cavity surface area                          =    437.437 Ang**2
 GePol: Cavity volume                                =    493.944 Ang**3
 Leave Link  301 at Thu Feb  6 01:50:58 2025, MaxMem=  5368709120 cpu:         0.8
 (Enter /home/k0335/k033513/app/g09/l302.exe)
 NPDir=0 NMtPBC=     1 NCelOv=     1 NCel=       1 NClECP=     1 NCelD=      1
         NCelK=      1 NCelE2=     1 NClLst=     1 CellRange=     0.0.
 One-electron integrals computed using PRISM.
 NBasis=   540 RedAO= T EigKep=  4.32D-04  NBF=   540
 NBsUse=   540 1.00D-06 EigRej= -1.00D+00 NBFU=   540
 Precomputing XC quadrature grid using
 IXCGrd= 4 IRadAn=           0 IRanWt=          -1 IRanGd=           0 AccXCQ= 0.00D+00.
 Generated NRdTot=       0 NPtTot=           0 NUsed=           0 NTot=          32
 NSgBfM=   523   523   523   523   523 MxSgAt=    44 MxSgA2=    44.
 Leave Link  302 at Thu Feb  6 01:50:59 2025, MaxMem=  5368709120 cpu:         9.8
 (Enter /home/k0335/k033513/app/g09/l303.exe)
 DipDrv:  MaxL=1.
 Leave Link  303 at Thu Feb  6 01:50:59 2025, MaxMem=  5368709120 cpu:         0.8
 (Enter /home/k0335/k033513/app/g09/l401.exe)
 ExpMin= 1.61D-01 ExpMax= 7.00D+03 ExpMxC= 1.05D+03 IAcc=1 IRadAn=         1 AccDes= 0.00D+00
 Harris functional with IExCor=20419 and IRadAn=       1 diagonalized for initial guess.
 HarFok:  IExCor=20419 AccDes= 0.00D+00 IRadAn=         1 IDoV= 1 UseB2=F ITyADJ=14
 ICtDFT=  3500011 ScaDFX=  1.000000  1.000000  1.000000  1.000000
 FoFCou: FMM=F IPFlag=           0 FMFlag=      100000 FMFlg1=           0
         NFxFlg=           0 DoJE=T BraDBF=F KetDBF=T FulRan=T
         wScrn=  0.000000 ICntrl=     500 IOpCl=  0 I1Cent=   200000004 NGrid=           0
         NMat0=    1 NMatS0=      1 NMatT0=    0 NMatD0=    1 NMtDS0=    0 NMtDT0=    0
 Symmetry not used in FoFCou.
 Harris En= -1960.21478108557    
 JPrj=0 DoOrth=F DoCkMO=F.
 Leave Link  401 at Thu Feb  6 01:51:00 2025, MaxMem=  5368709120 cpu:        11.6
 (Enter /home/k0335/k033513/app/g09/l502.exe)
 Closed shell SCF:
 Using DIIS extrapolation, IDIIS=  1040.
 Two-electron integral symmetry not used.
 IVT=      909638 IEndB=      909638 NGot=  5368709120 MDV=  5368108263
 LenX=  5368108263 LenY=  5367816123
 Requested convergence on RMS density matrix=1.00D-08 within 128 cycles.
 Requested convergence on MAX density matrix=1.00D-06.
 Requested convergence on             energy=1.00D-06.
 No special actions if energy rises.
 Fock matrices will be formed incrementally for  20 cycles.

 Cycle   1  Pass 1  IDiag  1:
 FoFJK:  IHMeth= 1 ICntrl=       0 DoSepK=T KAlg= 0 I1Cent=   0 FoldK=F
 IRaf=         1 NMat=   1 IRICut=       1 DoRegI=T DoRafI=F ISym2E= 0.
 FoFCou: FMM=F IPFlag=           0 FMFlag=      100000 FMFlg1=           0
         NFxFlg=           0 DoJE=T BraDBF=F KetDBF=F FulRan=T
         wScrn=  0.000000 ICntrl=     500 IOpCl=  0 I1Cent=           0 NGrid=           0
         NMat0=    1 NMatS0=      1 NMatT0=    0 NMatD0=    1 NMtDS0=    0 NMtDT0=    0
 Symmetry not used in FoFCou.
 Inv3:  Mode=1 IEnd=    34131387.
 Iteration    1 A*A^-1 deviation from unit magnitude is 7.11D-15 for    982.
 Iteration    1 A*A^-1 deviation from orthogonality  is 4.17D-15 for   3351   1456.
 Iteration    1 A^-1*A deviation from unit magnitude is 6.22D-15 for   3357.
 Iteration    1 A^-1*A deviation from orthogonality  is 7.98D-15 for   3108   3105.
 E= -2024.46187717955    
 DIIS: error= 6.80D-02 at cycle   1 NSaved=   1.
 NSaved= 1 IEnMin= 1 EnMin= -2024.46187717955     IErMin= 1 ErrMin= 6.80D-02
 ErrMax= 6.80D-02  0.00D+00 EMaxC= 1.00D-01 BMatC= 1.60D+00 BMatP= 1.60D+00
 IDIUse=3 WtCom= 3.20D-01 WtEn= 6.80D-01
 Coeff-Com:  0.100D+01
 Coeff-En:   0.100D+01
 Coeff:      0.100D+01
 Gap=     0.581 Goal=   None    Shift=    0.000
 GapD=    0.581 DampG=2.000 DampE=0.500 DampFc=1.0000 IDamp=-1.
 RMSDP=2.75D-03 MaxDP=1.14D-01              OVMax= 1.24D-01

 Cycle   2  Pass 1  IDiag  1:
 RMSU=  2.75D-03    CP:  9.94D-01
 E= -2024.69842468212     Delta-E=       -0.236547502565 Rises=F Damp=F
 DIIS: error= 1.76D-02 at cycle   2 NSaved=   2.
 NSaved= 2 IEnMin= 2 EnMin= -2024.69842468212     IErMin= 2 ErrMin= 1.76D-02
 ErrMax= 1.76D-02  0.00D+00 EMaxC= 1.00D-01 BMatC= 5.56D-01 BMatP= 1.60D+00
 IDIUse=3 WtCom= 8.24D-01 WtEn= 1.76D-01
 Coeff-Com:  0.345D+00 0.655D+00
 Coeff-En:   0.324D+00 0.676D+00
 Coeff:      0.342D+00 0.658D+00
 Gap=     0.298 Goal=   None    Shift=    0.000
 RMSDP=1.30D-03 MaxDP=7.02D-02 DE=-2.37D-01 OVMax= 8.35D-02

 Cycle   3  Pass 1  IDiag  1:
 RMSU=  8.35D-04    CP:  9.99D-01  6.39D-01
 E= -2024.94820215471     Delta-E=       -0.249777472595 Rises=F Damp=F
 DIIS: error= 6.41D-03 at cycle   3 NSaved=   3.
 NSaved= 3 IEnMin= 3 EnMin= -2024.94820215471     IErMin= 3 ErrMin= 6.41D-03
 ErrMax= 6.41D-03  0.00D+00 EMaxC= 1.00D-01 BMatC= 1.19D-01 BMatP= 5.56D-01
 IDIUse=3 WtCom= 9.36D-01 WtEn= 6.41D-02
 Coeff-Com:  0.706D-01 0.332D+00 0.598D+00
 Coeff-En:   0.000D+00 0.156D+00 0.844D+00
 Coeff:      0.661D-01 0.320D+00 0.613D+00
 Gap=     0.301 Goal=   None    Shift=    0.000
 RMSDP=6.10D-04 MaxDP=4.27D-02 DE=-2.50D-01 OVMax= 5.02D-02

 Cycle   4  Pass 1  IDiag  1:
 RMSU=  3.31D-04    CP:  9.95D-01  7.30D-01  4.70D-01
 E= -2025.01784176241     Delta-E=       -0.069639607696 Rises=F Damp=F
 DIIS: error= 2.43D-03 at cycle   4 NSaved=   4.
 NSaved= 4 IEnMin= 4 EnMin= -2025.01784176241     IErMin= 4 ErrMin= 2.43D-03
 ErrMax= 2.43D-03  0.00D+00 EMaxC= 1.00D-01 BMatC= 1.06D-02 BMatP= 1.19D-01
 IDIUse=3 WtCom= 9.76D-01 WtEn= 2.43D-02
 Coeff-Com:  0.566D-02 0.103D+00 0.313D+00 0.578D+00
 Coeff-En:   0.000D+00 0.000D+00 0.285D-01 0.971D+00
 Coeff:      0.552D-02 0.100D+00 0.306D+00 0.588D+00
 Gap=     0.290 Goal=   None    Shift=    0.000
 RMSDP=1.82D-04 MaxDP=1.44D-02 DE=-6.96D-02 OVMax= 1.88D-02

 Cycle   5  Pass 1  IDiag  1:
 RMSU=  8.22D-05    CP:  9.95D-01  7.30D-01  6.09D-01  6.56D-01
 E= -2025.02526090989     Delta-E=       -0.007419147481 Rises=F Damp=F
 DIIS: error= 5.07D-04 at cycle   5 NSaved=   5.
 NSaved= 5 IEnMin= 5 EnMin= -2025.02526090989     IErMin= 5 ErrMin= 5.07D-04
 ErrMax= 5.07D-04  0.00D+00 EMaxC= 1.00D-01 BMatC= 6.25D-04 BMatP= 1.06D-02
 IDIUse=3 WtCom= 9.95D-01 WtEn= 5.07D-03
 Coeff-Com:  0.395D-03 0.428D-01 0.149D+00 0.331D+00 0.477D+00
 Coeff-En:   0.000D+00 0.000D+00 0.000D+00 0.000D+00 0.100D+01
 Coeff:      0.393D-03 0.426D-01 0.148D+00 0.329D+00 0.480D+00
 Gap=     0.289 Goal=   None    Shift=    0.000
 RMSDP=3.89D-05 MaxDP=3.23D-03 DE=-7.42D-03 OVMax= 5.53D-03

 Cycle   6  Pass 1  IDiag  1:
 RMSU=  2.40D-05    CP:  9.95D-01  7.32D-01  6.06D-01  6.68D-01  6.40D-01
 E= -2025.02570561561     Delta-E=       -0.000444705719 Rises=F Damp=F
 DIIS: error= 9.29D-05 at cycle   6 NSaved=   6.
 NSaved= 6 IEnMin= 6 EnMin= -2025.02570561561     IErMin= 6 ErrMin= 9.29D-05
 ErrMax= 9.29D-05  0.00D+00 EMaxC= 1.00D-01 BMatC= 1.95D-05 BMatP= 6.25D-04
 IDIUse=1 WtCom= 1.00D+00 WtEn= 0.00D+00
 Coeff-Com: -0.538D-03 0.148D-02 0.109D-01 0.346D-01 0.161D+00 0.793D+00
 Coeff:     -0.538D-03 0.148D-02 0.109D-01 0.346D-01 0.161D+00 0.793D+00
 Gap=     0.289 Goal=   None    Shift=    0.000
 RMSDP=1.19D-05 MaxDP=6.33D-04 DE=-4.45D-04 OVMax= 1.07D-03

 Cycle   7  Pass 1  IDiag  1:
 RMSU=  8.01D-06    CP:  9.95D-01  7.33D-01  6.09D-01  6.83D-01  7.19D-01
                    CP:  9.39D-01
 E= -2025.02572146572     Delta-E=       -0.000015850117 Rises=F Damp=F
 DIIS: error= 3.27D-05 at cycle   7 NSaved=   7.
 NSaved= 7 IEnMin= 7 EnMin= -2025.02572146572     IErMin= 7 ErrMin= 3.27D-05
 ErrMax= 3.27D-05  0.00D+00 EMaxC= 1.00D-01 BMatC= 3.71D-06 BMatP= 1.95D-05
 IDIUse=1 WtCom= 1.00D+00 WtEn= 0.00D+00
 Coeff-Com: -0.240D-03-0.414D-02-0.112D-01-0.206D-01 0.292D-01 0.373D+00
 Coeff-Com:  0.634D+00
 Coeff:     -0.240D-03-0.414D-02-0.112D-01-0.206D-01 0.292D-01 0.373D+00
 Coeff:      0.634D+00
 Gap=     0.289 Goal=   None    Shift=    0.000
 RMSDP=3.74D-06 MaxDP=2.59D-04 DE=-1.59D-05 OVMax= 3.81D-04

 Cycle   8  Pass 1  IDiag  1:
 RMSU=  2.55D-06    CP:  9.95D-01  7.33D-01  6.10D-01  6.82D-01  7.33D-01
                    CP:  1.02D+00  8.41D-01
 E= -2025.02572441770     Delta-E=       -0.000002951976 Rises=F Damp=F
 DIIS: error= 1.15D-05 at cycle   8 NSaved=   8.
 NSaved= 8 IEnMin= 8 EnMin= -2025.02572441770     IErMin= 8 ErrMin= 1.15D-05
 ErrMax= 1.15D-05  0.00D+00 EMaxC= 1.00D-01 BMatC= 2.73D-07 BMatP= 3.71D-06
 IDIUse=1 WtCom= 1.00D+00 WtEn= 0.00D+00
 Coeff-Com: -0.355D-04-0.177D-02-0.534D-02-0.119D-01-0.199D-02 0.623D-01
 Coeff-Com:  0.244D+00 0.715D+00
 Coeff:     -0.355D-04-0.177D-02-0.534D-02-0.119D-01-0.199D-02 0.623D-01
 Coeff:      0.244D+00 0.715D+00
 Gap=     0.289 Goal=   None    Shift=    0.000
 RMSDP=1.33D-06 MaxDP=6.63D-05 DE=-2.95D-06 OVMax= 1.46D-04

 Cycle   9  Pass 1  IDiag  1:
 RMSU=  8.96D-07    CP:  9.95D-01  7.33D-01  6.10D-01  6.82D-01  7.41D-01
                    CP:  1.04D+00  9.12D-01  1.04D+00
 E= -2025.02572469362     Delta-E=       -0.000000275918 Rises=F Damp=F
 DIIS: error= 2.84D-06 at cycle   9 NSaved=   9.
 NSaved= 9 IEnMin= 9 EnMin= -2025.02572469362     IErMin= 9 ErrMin= 2.84D-06
 ErrMax= 2.84D-06  0.00D+00 EMaxC= 1.00D-01 BMatC= 2.83D-08 BMatP= 2.73D-07
 IDIUse=1 WtCom= 1.00D+00 WtEn= 0.00D+00
 Coeff-Com:  0.170D-04-0.136D-05-0.113D-03-0.114D-02-0.368D-02-0.369D-01
 Coeff-Com: -0.112D-01 0.203D+00 0.850D+00
 Coeff:      0.170D-04-0.136D-05-0.113D-03-0.114D-02-0.368D-02-0.369D-01
 Coeff:     -0.112D-01 0.203D+00 0.850D+00
 Gap=     0.289 Goal=   None    Shift=    0.000
 RMSDP=6.45D-07 MaxDP=5.39D-05 DE=-2.76D-07 OVMax= 7.58D-05

 Cycle  10  Pass 1  IDiag  1:
 RMSU=  3.20D-07    CP:  9.95D-01  7.33D-01  6.10D-01  6.83D-01  7.44D-01
                    CP:  1.05D+00  9.48D-01  1.17D+00  1.05D+00
 E= -2025.02572473442     Delta-E=       -0.000000040805 Rises=F Damp=F
 DIIS: error= 1.98D-06 at cycle  10 NSaved=  10.
 NSaved=10 IEnMin=10 EnMin= -2025.02572473442     IErMin=10 ErrMin= 1.98D-06
 ErrMax= 1.98D-06  0.00D+00 EMaxC= 1.00D-01 BMatC= 4.81D-09 BMatP= 2.83D-08
 IDIUse=1 WtCom= 1.00D+00 WtEn= 0.00D+00
 Coeff-Com:  0.116D-04 0.197D-03 0.551D-03 0.804D-03-0.946D-03-0.230D-01
 Coeff-Com: -0.306D-01 0.968D-03 0.357D+00 0.695D+00
 Coeff:      0.116D-04 0.197D-03 0.551D-03 0.804D-03-0.946D-03-0.230D-01
 Coeff:     -0.306D-01 0.968D-03 0.357D+00 0.695D+00
 Gap=     0.289 Goal=   None    Shift=    0.000
 RMSDP=2.03D-07 MaxDP=1.37D-05 DE=-4.08D-08 OVMax= 3.44D-05

 Cycle  11  Pass 1  IDiag  1:
 RMSU=  1.30D-07    CP:  9.95D-01  7.33D-01  6.10D-01  6.83D-01  7.44D-01
                    CP:  1.05D+00  9.58D-01  1.20D+00  1.16D+00  9.39D-01
 E= -2025.02572473894     Delta-E=       -0.000000004519 Rises=F Damp=F
 DIIS: error= 9.38D-07 at cycle  11 NSaved=  11.
 NSaved=11 IEnMin=11 EnMin= -2025.02572473894     IErMin=11 ErrMin= 9.38D-07
 ErrMax= 9.38D-07  0.00D+00 EMaxC= 1.00D-01 BMatC= 1.35D-09 BMatP= 4.81D-09
 IDIUse=1 WtCom= 1.00D+00 WtEn= 0.00D+00
 Coeff-Com:  0.421D-05 0.115D-03 0.339D-03 0.639D-03 0.199D-03-0.733D-02
 Coeff-Com: -0.148D-01-0.310D-01 0.715D-01 0.401D+00 0.580D+00
 Coeff:      0.421D-05 0.115D-03 0.339D-03 0.639D-03 0.199D-03-0.733D-02
 Coeff:     -0.148D-01-0.310D-01 0.715D-01 0.401D+00 0.580D+00
 Gap=     0.289 Goal=   None    Shift=    0.000
 RMSDP=8.09D-08 MaxDP=7.78D-06 DE=-4.52D-09 OVMax= 1.17D-05

 Cycle  12  Pass 1  IDiag  1:
 RMSU=  4.92D-08    CP:  9.95D-01  7.33D-01  6.10D-01  6.82D-01  7.45D-01
                    CP:  1.05D+00  9.60D-01  1.21D+00  1.19D+00  1.05D+00
                    CP:  7.98D-01
 E= -2025.02572474025     Delta-E=       -0.000000001311 Rises=F Damp=F
 DIIS: error= 2.04D-07 at cycle  12 NSaved=  12.
 NSaved=12 IEnMin=12 EnMin= -2025.02572474025     IErMin=12 ErrMin= 2.04D-07
 ErrMax= 2.04D-07  0.00D+00 EMaxC= 1.00D-01 BMatC= 7.24D-11 BMatP= 1.35D-09
 IDIUse=1 WtCom= 1.00D+00 WtEn= 0.00D+00
 Coeff-Com: -0.275D-06 0.111D-04 0.370D-04 0.100D-03 0.282D-03 0.905D-03
 Coeff-Com: -0.222D-03-0.105D-01-0.286D-01 0.281D-01 0.181D+00 0.828D+00
 Coeff:     -0.275D-06 0.111D-04 0.370D-04 0.100D-03 0.282D-03 0.905D-03
 Coeff:     -0.222D-03-0.105D-01-0.286D-01 0.281D-01 0.181D+00 0.828D+00
 Gap=     0.289 Goal=   None    Shift=    0.000
 RMSDP=2.93D-08 MaxDP=1.97D-06 DE=-1.31D-09 OVMax= 5.45D-06

 Cycle  13  Pass 1  IDiag  1:
 RMSU=  1.77D-08    CP:  9.95D-01  7.33D-01  6.10D-01  6.82D-01  7.45D-01
                    CP:  1.05D+00  9.60D-01  1.21D+00  1.20D+00  1.09D+00
                    CP:  9.10D-01  1.03D+00
 E= -2025.02572474019     Delta-E=        0.000000000060 Rises=F Damp=F
 DIIS: error= 8.30D-08 at cycle  13 NSaved=  13.
 NSaved=13 IEnMin=12 EnMin= -2025.02572474025     IErMin=13 ErrMin= 8.30D-08
 ErrMax= 8.30D-08  0.00D+00 EMaxC= 1.00D-01 BMatC= 1.91D-11 BMatP= 7.24D-11
 IDIUse=1 WtCom= 1.00D+00 WtEn= 0.00D+00
 Coeff-Com: -0.722D-06-0.928D-05-0.247D-04-0.323D-04 0.120D-03 0.138D-02
 Coeff-Com:  0.181D-02-0.144D-02-0.238D-01-0.387D-01 0.138D-01 0.419D+00
 Coeff-Com:  0.628D+00
 Coeff:     -0.722D-06-0.928D-05-0.247D-04-0.323D-04 0.120D-03 0.138D-02
 Coeff:      0.181D-02-0.144D-02-0.238D-01-0.387D-01 0.138D-01 0.419D+00
 Coeff:      0.628D+00
 Gap=     0.289 Goal=   None    Shift=    0.000
 RMSDP=1.07D-08 MaxDP=8.52D-07 DE= 6.00D-11 OVMax= 2.24D-06

 Cycle  14  Pass 1  IDiag  1:
 RMSU=  7.08D-09    CP:  9.95D-01  7.33D-01  6.10D-01  6.82D-01  7.45D-01
                    CP:  1.05D+00  9.60D-01  1.21D+00  1.20D+00  1.10D+00
                    CP:  9.35D-01  1.13D+00  9.30D-01
 E= -2025.02572474020     Delta-E=       -0.000000000007 Rises=F Damp=F
 DIIS: error= 3.13D-08 at cycle  14 NSaved=  14.
 NSaved=14 IEnMin=12 EnMin= -2025.02572474025     IErMin=14 ErrMin= 3.13D-08
 ErrMax= 3.13D-08  0.00D+00 EMaxC= 1.00D-01 BMatC= 1.08D-12 BMatP= 1.91D-11
 IDIUse=1 WtCom= 1.00D+00 WtEn= 0.00D+00
 Coeff-Com: -0.132D-06-0.389D-05-0.110D-04-0.229D-04-0.161D-04 0.195D-03
 Coeff-Com:  0.477D-03 0.114D-02-0.146D-02-0.122D-01-0.215D-01-0.209D-01
 Coeff-Com:  0.144D+00 0.911D+00
 Coeff:     -0.132D-06-0.389D-05-0.110D-04-0.229D-04-0.161D-04 0.195D-03
 Coeff:      0.477D-03 0.114D-02-0.146D-02-0.122D-01-0.215D-01-0.209D-01
 Coeff:      0.144D+00 0.911D+00
 Gap=     0.289 Goal=   None    Shift=    0.000
 RMSDP=4.85D-09 MaxDP=3.64D-07 DE=-7.28D-12 OVMax= 1.29D-06

 Error on total polarization charges =  0.00338
 SCF Done:  E(RCAM-B3LYP) =  -2025.02572474     A.U. after   14 cycles
            NFock= 14  Conv=0.48D-08     -V/T= 2.0076
 KE= 2.009703487841D+03 PE=-1.252983332073D+04 EE= 4.615900220573D+03
 Leave Link  502 at Thu Feb  6 01:51:44 2025, MaxMem=  5368709120 cpu:      1000.3
 (Enter /home/k0335/k033513/app/g09/l601.exe)
 Copying SCF densities to generalized density rwf, IOpCl= 0 IROHF=0.

 **********************************************************************

            Population analysis using the SCF density.

 **********************************************************************

 Alpha  occ. eigenvalues --  -24.83138 -24.82765 -24.82676 -24.82529 -24.82359
 Alpha  occ. eigenvalues --  -24.82066 -24.81993 -24.81937 -24.81927 -24.81464
 Alpha  occ. eigenvalues --  -19.31245 -19.30042 -19.25285 -19.22243 -14.45740
 Alpha  occ. eigenvalues --  -14.38133 -10.52165 -10.49460 -10.48346 -10.48034
 Alpha  occ. eigenvalues --  -10.46885 -10.44376 -10.42724 -10.40326 -10.30805
 Alpha  occ. eigenvalues --  -10.28092 -10.27458 -10.26979 -10.26676 -10.26537
 Alpha  occ. eigenvalues --  -10.26398 -10.26211  -1.40061  -1.38276  -1.37868
 Alpha  occ. eigenvalues --   -1.37488  -1.35297  -1.33738  -1.31916  -1.31768
 Alpha  occ. eigenvalues --   -1.31257  -1.30638  -1.21997  -1.19453  -1.14319
 Alpha  occ. eigenvalues --   -1.12167  -1.02486  -0.97094  -0.96729  -0.93504
 Alpha  occ. eigenvalues --   -0.90914  -0.87724  -0.86011  -0.83477  -0.82681
 Alpha  occ. eigenvalues --   -0.78916  -0.76577  -0.75819  -0.73796  -0.73585
 Alpha  occ. eigenvalues --   -0.71099  -0.70546  -0.69905  -0.68194  -0.67757
 Alpha  occ. eigenvalues --   -0.67486  -0.66911  -0.65958  -0.65478  -0.65105
 Alpha  occ. eigenvalues --   -0.64863  -0.64174  -0.63624  -0.63488  -0.62211
 Alpha  occ. eigenvalues --   -0.58360  -0.58259  -0.57577  -0.56593  -0.56175
 Alpha  occ. eigenvalues --   -0.56038  -0.55338  -0.55248  -0.55047  -0.54569
 Alpha  occ. eigenvalues --   -0.54303  -0.53976  -0.53716  -0.53121  -0.52633
 Alpha  occ. eigenvalues --   -0.52541  -0.52457  -0.51920  -0.51544  -0.51224
 Alpha  occ. eigenvalues --   -0.50853  -0.50279  -0.50205  -0.49826  -0.49626
 Alpha  occ. eigenvalues --   -0.49300  -0.49115  -0.48631  -0.47975  -0.47252
 Alpha  occ. eigenvalues --   -0.46533  -0.45982  -0.45529  -0.44856  -0.44627
 Alpha  occ. eigenvalues --   -0.43180  -0.42437  -0.42139  -0.40883  -0.40765
 Alpha  occ. eigenvalues --   -0.39698  -0.37526  -0.35275  -0.33396  -0.30435
 Alpha  occ. eigenvalues --   -0.30222  -0.29187
 Alpha virt. eigenvalues --   -0.00267   0.01786   0.04089   0.04214   0.05829
 Alpha virt. eigenvalues --    0.08066   0.10138   0.12677   0.12813   0.13684
 Alpha virt. eigenvalues --    0.14483   0.15400   0.15912   0.16725   0.18313
 Alpha virt. eigenvalues --    0.18733   0.19175   0.20170   0.21235   0.21991
 Alpha virt. eigenvalues --    0.22185   0.22669   0.22708   0.24274   0.24599
 Alpha virt. eigenvalues --    0.24914   0.25032   0.26529   0.27963   0.28276
 Alpha virt. eigenvalues --    0.29240   0.29836   0.29863   0.30254   0.31028
 Alpha virt. eigenvalues --    0.31675   0.32750   0.33085   0.34545   0.36588
 Alpha virt. eigenvalues --    0.36872   0.37885   0.38310   0.39129   0.40017
 Alpha virt. eigenvalues --    0.41918   0.43028   0.44211   0.47169   0.49880
 Alpha virt. eigenvalues --    0.51218   0.51849   0.52532   0.54954   0.55537
 Alpha virt. eigenvalues --    0.56087   0.56516   0.57291   0.58333   0.59427
 Alpha virt. eigenvalues --    0.59762   0.60287   0.60661   0.61575   0.62348
 Alpha virt. eigenvalues --    0.62664   0.63138   0.63512   0.64007   0.64731
 Alpha virt. eigenvalues --    0.66086   0.66505   0.67058   0.67510   0.67637
 Alpha virt. eigenvalues --    0.68567   0.68772   0.69377   0.70115   0.70666
 Alpha virt. eigenvalues --    0.71764   0.72510   0.73036   0.74999   0.76621
 Alpha virt. eigenvalues --    0.77303   0.77399   0.78221   0.79786   0.80178
 Alpha virt. eigenvalues --    0.80726   0.81724   0.82625   0.83417   0.83796
 Alpha virt. eigenvalues --    0.85716   0.87377   0.87837   0.88359   0.88473
 Alpha virt. eigenvalues --    0.88997   0.89641   0.90193   0.92344   0.92776
 Alpha virt. eigenvalues --    0.92973   0.93279   0.94916   0.95827   0.95992
 Alpha virt. eigenvalues --    0.96759   0.97788   0.98669   0.99210   1.00589
 Alpha virt. eigenvalues --    1.01036   1.02241   1.02885   1.04030   1.04658
 Alpha virt. eigenvalues --    1.05545   1.05714   1.07252   1.07658   1.08563
 Alpha virt. eigenvalues --    1.09663   1.10538   1.11839   1.13015   1.13446
 Alpha virt. eigenvalues --    1.14320   1.15132   1.15848   1.16407   1.17600
 Alpha virt. eigenvalues --    1.17968   1.20224   1.20474   1.21949   1.22178
 Alpha virt. eigenvalues --    1.22778   1.24122   1.25937   1.26640   1.27608
 Alpha virt. eigenvalues --    1.28051   1.29089   1.30936   1.31674   1.32654
 Alpha virt. eigenvalues --    1.32799   1.33363   1.34354   1.34859   1.35722
 Alpha virt. eigenvalues --    1.35995   1.37134   1.37190   1.37947   1.38386
 Alpha virt. eigenvalues --    1.39313   1.39696   1.40709   1.41441   1.42368
 Alpha virt. eigenvalues --    1.42622   1.43742   1.44541   1.44987   1.45798
 Alpha virt. eigenvalues --    1.47188   1.47798   1.48020   1.48308   1.48631
 Alpha virt. eigenvalues --    1.48855   1.50147   1.50516   1.52178   1.52944
 Alpha virt. eigenvalues --    1.53142   1.54169   1.54924   1.55722   1.57134
 Alpha virt. eigenvalues --    1.57420   1.58763   1.59634   1.60770   1.61654
 Alpha virt. eigenvalues --    1.62810   1.63942   1.65566   1.66612   1.67235
 Alpha virt. eigenvalues --    1.68415   1.69466   1.70415   1.71168   1.72510
 Alpha virt. eigenvalues --    1.73694   1.74412   1.75399   1.76656   1.77204
 Alpha virt. eigenvalues --    1.78126   1.78717   1.79615   1.81291   1.81436
 Alpha virt. eigenvalues --    1.82559   1.83518   1.83587   1.84627   1.85291
 Alpha virt. eigenvalues --    1.85859   1.86155   1.86682   1.87052   1.88130
 Alpha virt. eigenvalues --    1.89034   1.89521   1.90317   1.90864   1.91126
 Alpha virt. eigenvalues --    1.92281   1.93069   1.93358   1.94221   1.95383
 Alpha virt. eigenvalues --    1.95595   1.96449   1.97053   1.97291   1.97806
 Alpha virt. eigenvalues --    1.98519   1.99853   2.01204   2.01825   2.02076
 Alpha virt. eigenvalues --    2.02449   2.03000   2.03334   2.04115   2.04467
 Alpha virt. eigenvalues --    2.05175   2.05743   2.06571   2.06764   2.07527
 Alpha virt. eigenvalues --    2.08196   2.08629   2.09066   2.09961   2.10387
 Alpha virt. eigenvalues --    2.10836   2.11183   2.12117   2.13559   2.13923
 Alpha virt. eigenvalues --    2.14551   2.15243   2.15558   2.17593   2.17888
 Alpha virt. eigenvalues --    2.18885   2.20698   2.20858   2.21921   2.22533
 Alpha virt. eigenvalues --    2.22908   2.23460   2.24983   2.25687   2.26318
 Alpha virt. eigenvalues --    2.26924   2.27955   2.28638   2.29568   2.30535
 Alpha virt. eigenvalues --    2.31233   2.32994   2.33708   2.34737   2.35988
 Alpha virt. eigenvalues --    2.36579   2.37102   2.37570   2.38082   2.39202
 Alpha virt. eigenvalues --    2.40561   2.40899   2.41859   2.42406   2.42830
 Alpha virt. eigenvalues --    2.44018   2.44403   2.46129   2.47263   2.48578
 Alpha virt. eigenvalues --    2.48927   2.49520   2.50005   2.50462   2.51631
 Alpha virt. eigenvalues --    2.53589   2.55060   2.55976   2.56182   2.58575
 Alpha virt. eigenvalues --    2.59720   2.59977   2.60827   2.61259   2.61654
 Alpha virt. eigenvalues --    2.62766   2.63126   2.63591   2.65850   2.67135
 Alpha virt. eigenvalues --    2.67734   2.69468   2.69605   2.71928   2.72066
 Alpha virt. eigenvalues --    2.72872   2.73623   2.75062   2.76109   2.77651
 Alpha virt. eigenvalues --    2.78313   2.79311   2.80310   2.80902   2.81551
 Alpha virt. eigenvalues --    2.81849   2.83111   2.84966   2.86419   2.87282
 Alpha virt. eigenvalues --    2.87559   2.88317   2.90824   2.92426   2.93164
 Alpha virt. eigenvalues --    2.94215   2.94642   2.95445   2.95812   2.97775
 Alpha virt. eigenvalues --    2.99288   3.00612   3.00684   3.01975   3.04376
 Alpha virt. eigenvalues --    3.05680   3.08161   3.10285   3.10766   3.12301
 Alpha virt. eigenvalues --    3.13943   3.15311   3.15787   3.17525   3.18162
 Alpha virt. eigenvalues --    3.21007   3.21183   3.25743   3.27019   3.30301
 Alpha virt. eigenvalues --    3.30713   3.31488   3.34372   3.34817   3.34912
 Alpha virt. eigenvalues --    3.36704   3.37915   3.39915   3.47411   3.48171
 Alpha virt. eigenvalues --    3.50646   3.52363   3.54766   3.58567   3.63077
 Alpha virt. eigenvalues --    3.90746   4.00044   4.04788   4.11261   4.19678
 Alpha virt. eigenvalues --    4.21795   4.23381   4.25456   4.28265   4.29886
 Alpha virt. eigenvalues --    4.36874   4.41989   4.43595   4.50255   4.51796
 Alpha virt. eigenvalues --    4.52911   4.59348   4.66237   4.69829   4.72600
 Alpha virt. eigenvalues --    4.85204   4.88460   4.91910   5.02474   5.08577
 Alpha virt. eigenvalues --    5.23127   5.37991   5.44895   5.66115   5.87266
 Alpha virt. eigenvalues --    6.15623   6.89889   7.21240
          Condensed to atoms (all electrons):
               1          2          3          4          5          6
     1  F    9.039258   0.306808  -0.041439  -0.021347  -0.000134  -0.000340
     2  C    0.306808   4.437848   0.267697   0.187208  -0.022028  -0.020968
     3  F   -0.041439   0.267697   9.091865  -0.029152  -0.000001   0.000340
     4  C   -0.021347   0.187208  -0.029152   4.743891   0.285218   0.243280
     5  F   -0.000134  -0.022028  -0.000001   0.285218   9.066009  -0.041869
     6  F   -0.000340  -0.020968   0.000340   0.243280  -0.041869   9.118708
     7  C    0.002519  -0.102419  -0.002490   0.171174  -0.032201  -0.031333
     8  F   -0.000001   0.002083  -0.000001  -0.008526  -0.000311  -0.001157
     9  C    0.000060   0.000327   0.015198  -0.029133   0.002026   0.001880
    10  F   -0.000001   0.010095  -0.008459  -0.003360  -0.000100  -0.000001
    11  C    0.000000  -0.000234   0.000115   0.002771  -0.000022  -0.000026
    12  O    0.000000   0.000003   0.000000  -0.000252   0.000002   0.000000
    13  O    0.000000   0.000000   0.000000  -0.000065   0.000000   0.000000
    14  F    0.000000  -0.001742  -0.000357   0.005675  -0.006209   0.000002
    15  C    0.000175  -0.013071  -0.001115  -0.031313   0.001493   0.006621
    16  F   -0.000029   0.003205  -0.000005  -0.003094   0.000000  -0.002348
    17  C   -0.000043  -0.002355  -0.000031   0.002995  -0.000025   0.000110
    18  F    0.000000   0.000011   0.000000   0.000187   0.000000   0.000000
    19  C   -0.000001   0.000203   0.000000  -0.000313   0.000000   0.000004
    20  N    0.000000   0.000003   0.000000   0.000000   0.000000   0.000000
    21  C    0.000000   0.000000   0.000000   0.000000   0.000000   0.000000
    22  C    0.000000   0.000000   0.000000   0.000000   0.000000   0.000000
    23  C    0.000000   0.000000   0.000000   0.000000   0.000000   0.000000
    24  C    0.000000   0.000000   0.000000   0.000000   0.000000   0.000000
    25  C    0.000000   0.000000   0.000000   0.000000   0.000000   0.000000
[...]
    20  N    0.234188   7.039906   0.241828  -0.064116  -0.002401  -0.000125
    21  C   -0.023199   0.241828   4.918508   0.350885  -0.049701   0.004716
    22  C   -0.004853  -0.064116   0.350885   4.762398   0.519871  -0.024739
    23  C    0.003578  -0.002401  -0.049701   0.519871   4.992810   0.520091
    24  C    0.000036  -0.000125   0.004716  -0.024739   0.520091   4.799382
    25  C    0.000000   0.000006  -0.000193   0.006239  -0.046869   0.343531
    26  N    0.000000   0.000000   0.000001  -0.000103   0.002218  -0.057911
    27  C    0.000001  -0.000007   0.000680  -0.040299  -0.038927   0.538999
    28  C   -0.000002  -0.000034   0.005718  -0.023134  -0.052436  -0.022241
    29  C   -0.000168  -0.001165  -0.050361   0.563613  -0.049715  -0.038550
    30  O    0.562331  -0.095971   0.001240  -0.002986  -0.002190   0.000126
    31  F   -0.024917   0.000966  -0.000028   0.000005   0.000000   0.000000
    32  O   -0.002762   0.000151   0.000001   0.000000   0.000000   0.000000
    33  H    0.000000   0.000000   0.000000   0.000000   0.000000   0.000000
    34  H   -0.028718   0.343410  -0.023412   0.001226   0.000145   0.000014
    35  H   -0.002033  -0.043131   0.387153  -0.030504  -0.004615   0.000021
    36  H    0.004672  -0.037650   0.381257  -0.039263   0.004745  -0.000121
    37  H    0.002979  -0.003308  -0.006153  -0.043993   0.363468  -0.038278
    38  H   -0.000002  -0.000001  -0.000003   0.000277  -0.002998  -0.055031
    39  H    0.000000   0.000000   0.000004  -0.000339  -0.001217  -0.021828
    40  H    0.000000   0.000000   0.000000   0.000003  -0.000185   0.005337
    41  H    0.000000   0.000000   0.000000  -0.000021   0.000349   0.001419
    42  H    0.000000   0.000000   0.000007   0.000371   0.006242  -0.041300
    43  H    0.000000   0.000001  -0.000175   0.003551   0.001119   0.003261
    44  H    0.000002   0.000160  -0.009664  -0.043128   0.005492   0.000475
              25         26         27         28         29         30
     1  F    0.000000   0.000000   0.000000   0.000000   0.000000   0.000000
     2  C    0.000000   0.000000   0.000000   0.000000   0.000000   0.000197
     3  F    0.000000   0.000000   0.000000   0.000000   0.000000   0.000000
     4  C    0.000000   0.000000   0.000000   0.000000   0.000000  -0.000011
     5  F    0.000000   0.000000   0.000000   0.000000   0.000000   0.000000
     6  F    0.000000   0.000000   0.000000   0.000000   0.000000   0.000000
     7  C    0.000000   0.000000   0.000000   0.000000   0.000000   0.000042
     8  F    0.000000   0.000000   0.000000   0.000000   0.000000   0.000000
     9  C    0.000000   0.000000   0.000000   0.000000   0.000000  -0.000002
    10  F    0.000000   0.000000   0.000000   0.000000   0.000000   0.000000
    11  C    0.000000   0.000000   0.000000   0.000000   0.000000  -0.000002
    12  O    0.000000   0.000000   0.000000   0.000000   0.000000   0.000000
    13  O    0.000000   0.000000   0.000000   0.000000   0.000000   0.000000
    14  F    0.000000   0.000000   0.000000   0.000000   0.000000   0.000000
    15  C    0.000000   0.000000   0.000000   0.000000   0.000000   0.005561
    16  F    0.000000   0.000000   0.000000   0.000000   0.000000  -0.000895
    17  C    0.000000   0.000000   0.000000   0.000000   0.000001  -0.066570
    18  F    0.000000   0.000000   0.000000   0.000000   0.000000   0.000844
    19  C    0.000000   0.000000   0.000001  -0.000002  -0.000168   0.562331
    20  N    0.000006   0.000000  -0.000007  -0.000034  -0.001165  -0.095971
    21  C   -0.000193   0.000001   0.000680   0.005718  -0.050361   0.001240
    22  C    0.006239  -0.000103  -0.040299  -0.023134   0.563613  -0.002986
    23  C   -0.046869   0.002218  -0.038927  -0.052436  -0.049715  -0.002190
    24  C    0.343531  -0.057911   0.538999  -0.022241  -0.038550   0.000126
    25  C    4.881682   0.299254  -0.063653   0.006048   0.000640  -0.000006
    26  N    0.299254   6.764053  -0.005660   0.000301   0.000004   0.000000
    27  C   -0.063653  -0.005660   4.889033   0.521832  -0.043452   0.000001
    28  C    0.006048   0.000301   0.521832   4.847061   0.525525   0.000000
    29  C    0.000640   0.000004  -0.043452   0.525525   4.889773  -0.000033
    30  O   -0.000006   0.000000   0.000001   0.000000  -0.000033   8.088878
    31  F    0.000000   0.000000   0.000000   0.000000   0.000000  -0.001409
    32  O    0.000000   0.000000   0.000000   0.000000   0.000000   0.000966
    33  H    0.000000   0.000000   0.000000   0.000000   0.000000   0.000000
    34  H    0.000000   0.000000  -0.000006  -0.000014   0.000914   0.002664
    35  H    0.000004   0.000000   0.000010  -0.000193   0.002507   0.010892
    36  H    0.000002   0.000000  -0.000009   0.000192  -0.005773   0.000494
    37  H   -0.009466   0.000063   0.006197   0.000053   0.005137   0.010103
    38  H    0.386386  -0.044048   0.006788  -0.000135   0.000011  -0.000005
    39  H    0.378628  -0.040569  -0.005095  -0.000186   0.000040   0.000000
    40  H   -0.030498   0.341987   0.000437   0.000006   0.000000   0.000000
    41  H   -0.042288   0.345075  -0.000269  -0.000139  -0.000008   0.000000
    42  H   -0.011580   0.017180   0.374281  -0.042844   0.004507   0.000000
    43  H   -0.000179  -0.000001  -0.035796   0.370334  -0.036985   0.000000
    44  H    0.000009   0.000000   0.004279  -0.038898   0.370878   0.000000
              31         32         33         34         35         36
     1  F    0.000000  -0.046961   0.000000   0.000000   0.000000   0.000000
     2  C    0.000038   0.190511   0.000000   0.000000   0.000000   0.000000
     3  F    0.000000  -0.045101   0.000000   0.000000   0.000000   0.000000
     4  C   -0.000014  -0.036426   0.000011   0.000000   0.000000   0.000000
     5  F    0.000000   0.000911   0.000000   0.000000   0.000000   0.000000
     6  F    0.000000  -0.000150   0.000000   0.000000   0.000000   0.000000
     7  C   -0.005920  -0.030205  -0.000475  -0.000041   0.000000   0.000000
     8  F    0.000004   0.000853   0.000176   0.000001   0.000000   0.000000
     9  C    0.007560   0.000123   0.008330   0.000004   0.000000   0.000000
    10  F    0.000146  -0.001848  -0.000045   0.000000   0.000000   0.000000
    11  C    0.004104   0.000185  -0.011406  -0.000007   0.000000   0.000000
    12  O    0.000026  -0.000001   0.284965   0.000001   0.000000   0.000000
    13  O   -0.001637   0.000001   0.004643   0.000001   0.000000   0.000000
    14  F    0.000002  -0.000011  -0.000225   0.000000   0.000000   0.000000
    15  C   -0.033902   0.155936  -0.000028   0.001215   0.000012   0.000015
    16  F    0.000390  -0.045147   0.000000   0.000050  -0.000005   0.000003
    17  C    0.251956  -0.042653   0.000038  -0.004633   0.000740  -0.000164
    18  F   -0.033400   0.000913   0.000082   0.016780  -0.000015  -0.000005
    19  C   -0.024917  -0.002762   0.000000  -0.028718  -0.002033   0.004672
    20  N    0.000966   0.000151   0.000000   0.343410  -0.043131  -0.037650
    21  C   -0.000028   0.000001   0.000000  -0.023412   0.387153   0.381257
    22  C    0.000005   0.000000   0.000000   0.001226  -0.030504  -0.039263
    23  C    0.000000   0.000000   0.000000   0.000145  -0.004615   0.004745
    24  C    0.000000   0.000000   0.000000   0.000014   0.000021  -0.000121
    25  C    0.000000   0.000000   0.000000   0.000000   0.000004   0.000002
    26  N    0.000000   0.000000   0.000000   0.000000   0.000000   0.000000
    27  C    0.000000   0.000000   0.000000  -0.000006   0.000010  -0.000009
    28  C    0.000000   0.000000   0.000000  -0.000014  -0.000193   0.000192
    29  C    0.000000   0.000000   0.000000   0.000914   0.002507  -0.005773
    30  O   -0.001409   0.000966   0.000000   0.002664   0.010892   0.000494
    31  F    9.088508   0.002413   0.000002   0.000257  -0.000001   0.000000
    32  O    0.002413   8.369800   0.000000  -0.000007  -0.000001   0.000000
    33  H    0.000002   0.000000   0.358637   0.000000   0.000000   0.000000
    34  H    0.000257  -0.000007   0.000000   0.397742   0.003865  -0.003274
    35  H   -0.000001  -0.000001   0.000000   0.003865   0.537369  -0.025747
    36  H    0.000000   0.000000   0.000000  -0.003274  -0.025747   0.586991
    37  H   -0.000014   0.000000   0.000000  -0.000035   0.001934   0.000026
    38  H    0.000000   0.000000   0.000000   0.000000   0.000004   0.000000
    39  H    0.000000   0.000000   0.000000   0.000000  -0.000001   0.000000
    40  H    0.000000   0.000000   0.000000   0.000000   0.000000   0.000000
    41  H    0.000000   0.000000   0.000000   0.000000   0.000000   0.000000
    42  H    0.000000   0.000000   0.000000   0.000000   0.000000   0.000000
    43  H    0.000000   0.000000   0.000000   0.000000   0.000003  -0.000005
    44  H    0.000000   0.000000   0.000000   0.000064   0.000138   0.005784
              37         38         39         40         41         42
     1  F    0.000000   0.000000   0.000000   0.000000   0.000000   0.000000
     2  C    0.000000   0.000000   0.000000   0.000000   0.000000   0.000000
     3  F    0.000000   0.000000   0.000000   0.000000   0.000000   0.000000
     4  C    0.000000   0.000000   0.000000   0.000000   0.000000   0.000000
     5  F    0.000000   0.000000   0.000000   0.000000   0.000000   0.000000
     6  F    0.000000   0.000000   0.000000   0.000000   0.000000   0.000000
     7  C    0.000000   0.000000   0.000000   0.000000   0.000000   0.000000
     8  F    0.000000   0.000000   0.000000   0.000000   0.000000   0.000000
     9  C    0.000000   0.000000   0.000000   0.000000   0.000000   0.000000
    10  F    0.000000   0.000000   0.000000   0.000000   0.000000   0.000000
    11  C    0.000000   0.000000   0.000000   0.000000   0.000000   0.000000
    12  O    0.000000   0.000000   0.000000   0.000000   0.000000   0.000000
    13  O    0.000000   0.000000   0.000000   0.000000   0.000000   0.000000
    14  F    0.000000   0.000000   0.000000   0.000000   0.000000   0.000000
    15  C   -0.000003   0.000000   0.000000   0.000000   0.000000   0.000000
    16  F    0.000000   0.000000   0.000000   0.000000   0.000000   0.000000
    17  C    0.000240   0.000000   0.000000   0.000000   0.000000   0.000000
    18  F   -0.000002   0.000000   0.000000   0.000000   0.000000   0.000000
    19  C    0.002979  -0.000002   0.000000   0.000000   0.000000   0.000000
    20  N   -0.003308  -0.000001   0.000000   0.000000   0.000000   0.000000
    21  C   -0.006153  -0.000003   0.000004   0.000000   0.000000   0.000007
    22  C   -0.043993   0.000277  -0.000339   0.000003  -0.000021   0.000371
    23  C    0.363468  -0.002998  -0.001217  -0.000185   0.000349   0.006242
    24  C   -0.038278  -0.055031  -0.021828   0.005337   0.001419  -0.041300
    25  C   -0.009466   0.386386   0.378628  -0.030498  -0.042288  -0.011580
    26  N    0.000063  -0.044048  -0.040569   0.341987   0.345075   0.017180
    27  C    0.006197   0.006788  -0.005095   0.000437  -0.000269   0.374281
    28  C    0.000053  -0.000135  -0.000186   0.000006  -0.000139  -0.042844
    29  C    0.005137   0.000011   0.000040   0.000000  -0.000008   0.004507
    30  O    0.010103  -0.000005   0.000000   0.000000   0.000000   0.000000
    31  F   -0.000014   0.000000   0.000000   0.000000   0.000000   0.000000
    32  O    0.000000   0.000000   0.000000   0.000000   0.000000   0.000000
    33  H    0.000000   0.000000   0.000000   0.000000   0.000000   0.000000
    34  H   -0.000035   0.000000   0.000000   0.000000   0.000000   0.000000
    35  H    0.001934   0.000004  -0.000001   0.000000   0.000000   0.000000
    36  H    0.000026   0.000000   0.000000   0.000000   0.000000   0.000000
    37  H    0.596432   0.006560   0.000349  -0.000011  -0.000012  -0.000136
    38  H    0.006560   0.658540  -0.043036  -0.002375  -0.006005   0.000485
    39  H    0.000349  -0.043036   0.604539  -0.004981   0.006613   0.000221
    40  H   -0.000011  -0.002375  -0.004981   0.471286  -0.031418  -0.000371
    41  H   -0.000012  -0.006005   0.006613  -0.031418   0.478461  -0.000569
    42  H   -0.000136   0.000485   0.000221  -0.000371  -0.000569   0.587764
    43  H    0.000015   0.000002   0.000002   0.000000   0.000002  -0.005063
    44  H   -0.000163   0.000000   0.000000   0.000000   0.000000  -0.000151
              43         44
     1  F    0.000000   0.000000
     2  C    0.000000   0.000000
     3  F    0.000000   0.000000
     4  C    0.000000   0.000000
     5  F    0.000000   0.000000
     6  F    0.000000   0.000000
     7  C    0.000000   0.000000
     8  F    0.000000   0.000000
     9  C    0.000000   0.000000
    10  F    0.000000   0.000000
    11  C    0.000000   0.000000
    12  O    0.000000   0.000000
    13  O    0.000000   0.000000
    14  F    0.000000   0.000000
    15  C    0.000000   0.000000
    16  F    0.000000   0.000000
    17  C    0.000000   0.000000
    18  F    0.000000   0.000000
    19  C    0.000000   0.000002
    20  N    0.000001   0.000160
    21  C   -0.000175  -0.009664
    22  C    0.003551  -0.043128
    23  C    0.001119   0.005492
    24  C    0.003261   0.000475
    25  C   -0.000179   0.000009
    26  N   -0.000001   0.000000
    27  C   -0.035796   0.004279
    28  C    0.370334  -0.038898
    29  C   -0.036985   0.370878
    30  O    0.000000   0.000000
    31  F    0.000000   0.000000
    32  O    0.000000   0.000000
    33  H    0.000000   0.000000
    34  H    0.000000   0.000064
    35  H    0.000003   0.000138
    36  H   -0.000005   0.005784
    37  H    0.000015  -0.000163
    38  H    0.000002   0.000000
    39  H    0.000002   0.000000
    40  H    0.000000   0.000000
    41  H    0.000002   0.000000
    42  H   -0.005063  -0.000151
    43  H    0.608791  -0.005380
    44  H   -0.005380   0.622345
 Mulliken charges:
               1
     1  F   -0.244455
     2  C    0.780286
     3  F   -0.240729
     4  C    0.491752
     5  F   -0.251999
     6  F   -0.262637
     7  C    0.186231
     8  F   -0.285860
     9  C    0.591969
    10  F   -0.260734
    11  C    0.535608
    12  O   -0.470187
    13  O   -0.433584
    14  F   -0.274458
    15  C    0.482715
    16  F   -0.289770
    17  C    0.556791
    18  F   -0.299600
    19  C    0.558125
    20  N   -0.516277
    21  C   -0.133365
    22  C    0.109373
    23  C   -0.168754
    24  C    0.082718
    25  C   -0.097697
    26  N   -0.621842
    27  C   -0.109365
    28  C   -0.096814
    29  C   -0.137338
    30  O   -0.514258
    31  F   -0.255134
    32  O   -0.471491
    33  H    0.355295
    34  H    0.291790
    35  H    0.161596
    36  H    0.127828
    37  H    0.108015
    38  H    0.094587
    39  H    0.126856
    40  H    0.250783
    41  H    0.248810
    42  H    0.110957
    43  H    0.096503
    44  H    0.087758
 Sum of Mulliken charges =   0.00000
 Mulliken charges with hydrogens summed into heavy atoms:
               1
     1  F   -0.244455
     2  C    0.780286
     3  F   -0.240729
     4  C    0.491752
     5  F   -0.251999
     6  F   -0.262637
     7  C    0.186231
     8  F   -0.285860
     9  C    0.591969
    10  F   -0.260734
    11  C    0.535608
    12  O   -0.114892
    13  O   -0.433584
    14  F   -0.274458
    15  C    0.482715
    16  F   -0.289770
    17  C    0.556791
    18  F   -0.299600
    19  C    0.558125
    20  N   -0.224487
    21  C    0.156059
    22  C    0.109373
    23  C   -0.060738
    24  C    0.082718
    25  C    0.123745
    26  N   -0.122248
    27  C    0.001592
    28  C   -0.000311
    29  C   -0.049579
    30  O   -0.514258
    31  F   -0.255134
    32  O   -0.471491
 Electronic spatial extent (au):  <R**2>=          17218.6989
 Charge=              0.0000 electrons
 Dipole moment (field-independent basis, Debye):
    X=              1.0380    Y=             -4.3901    Z=             -2.2111  Tot=              5.0239
 Quadrupole moment (field-independent basis, Debye-Ang):
   XX=           -179.8305   YY=           -172.1058   ZZ=           -168.9328
   XY=              9.7731   XZ=              7.2149   YZ=              1.6324
 Traceless Quadrupole moment (field-independent basis, Debye-Ang):
   XX=             -6.2075   YY=              1.5172   ZZ=              4.6903
   XY=              9.7731   XZ=              7.2149   YZ=              1.6324
 Octapole moment (field-independent basis, Debye-Ang**2):
  XXX=            504.8772  YYY=           -214.8379  ZZZ=            -48.0389  XYY=            133.6627
  XXY=            -65.3845  XXZ=             35.9259  XZZ=            225.0424  YZZ=            -62.5679
  YYZ=            -12.0896  XYZ=              4.7200
 Hexadecapole moment (field-independent basis, Debye-Ang**3):
 XXXX=         -15168.2526 YYYY=          -2964.5996 ZZZZ=          -2085.3070 XXXY=           1897.7089
 XXXZ=           1098.0358 YYYX=           1825.4479 YYYZ=            -84.9401 ZZZX=           1021.8081
 ZZZY=            -48.1261 XXYY=          -2875.3298 XXZZ=          -2695.1424 YYZZ=           -860.0363
 XXYZ=            -13.1998 YYXZ=            259.0443 ZZXY=            487.6005
 N-N= 3.846352277821D+03 E-N=-1.246460368681D+04  KE= 2.010172311598D+03
 No NMR shielding tensors so no spin-rotation constants.
 Leave Link  601 at Thu Feb  6 02:09:52 2025, MaxMem=  5368709120 cpu:         3.5
 (Enter /home/k0335/k033513/app/g09/l9999.exe)
 1\1\GINC-C18U05N1\FOpt\RCAM-B3LYP\6-31G(d,p)\C16H12F10N2O4\K033513\06-
 Feb-2025\0\\#p CAM-B3LYP/6-31G(d,p) opt SCRF=(PCM,Solvent=Generic,Read
 ) NoSymm out=wfn\\Title mXD1_neu\\0,1\F,-3.7499377485,4.1665176643,-0.
 0314146234\C,-3.7168516414,3.0281574083,0.664402167\F,-3.8704977279,3.
 325349525,1.9548129589\C,-4.8070204611,2.0398811887,0.1830309944\F,-5.
 8692172535,2.0785441608,0.9940824288\F,-5.1939142814,2.3703372272,-1.0
 5927807\C,-4.0701287858,0.6710080811,0.1060179606\F,-4.5392133195,-0.0
 571761035,-0.9372091997\C,-4.2655920925,-0.1561150138,1.3945137135\F,-
 3.8283459061,0.5814975552,2.4310807326\C,-3.6330780648,-1.5621064481,1
 .4841518353\O,-4.1037858026,-2.3521623689,0.5250970442\O,-2.8884379369
 ,-1.8833417091,2.3652427744\F,-5.5993265623,-0.3654285365,1.5292981403
 \C,-2.6372575554,1.2025938284,-0.2067434697\F,-2.6148491388,1.43187950
 58,-1.5562662864\C,-1.4245478681,0.314189426,0.087827524\F,-1.73845448
 17,-0.932910282,-0.3880092472\C,-0.1258553124,0.8372866266,-0.56210379
 32\N,0.3234091821,0.0980218853,-1.586536115\C,1.5538317653,0.436474803
 2,-2.296398516\C,2.7553059204,-0.3378162196,-1.8052137032\C,3.29341548
 77,-0.0631901783,-0.5469025134\C,4.3903319254,-0.7688650773,-0.0632157
 267\C,4.9857629116,-0.4218761836,1.283969981\N,5.5505598613,-1.5927721
 009,1.9478181361\C,4.9487067911,-1.7735977124,-0.8559767475\C,4.420242
 3853,-2.0548443896,-2.1078389237\C,3.3260847456,-1.3388166421,-2.58451
 36247\O,0.3777042074,1.8536852548,-0.1218730132\F,-1.2520612157,0.2240
 427499,1.415762889\O,-2.5023241872,2.391059608,0.4879220983\H,-3.72436
 43887,-3.2370564304,0.6578929068\H,-0.1422313869,-0.7723700366,-1.7942
 220514\H,1.7017093863,1.5086222553,-2.1568230985\H,1.3893856915,0.2525
 312465,-3.3605222177\H,2.8427660731,0.7178681726,0.0605870753\H,4.2242
 578451,0.1079236598,1.8767260783\H,5.8036011753,0.2931413793,1.1320592
 777\H,6.0318962046,-1.3107439255,2.7954549383\H,4.8054055063,-2.222987
 3859,2.2299363776\H,5.7954887587,-2.3296169385,-0.470141143\H,4.861734
 9046,-2.8361658195,-2.7184748098\H,2.9156893903,-1.5606547097,-3.56581
 71391\\Version=ES64L-G09RevD.01\HF=-2025.0625718\RMSD=8.070e-09\RMSF=4
 .567e-06\Dipole=0.4083701,-1.7272043,-0.8699025\Quadrupole=-4.6151249,
 1.128027,3.487098,7.2660657,5.3641264,1.213636\PG=C01 [X(C16H12F10N2O4
 )]\\@

 Writing a WFN file to "cytopopt/mXD1/mXD1_neu.wfn"


 PICNIC:  A SNACK IN THE GRASS.
 Job cpu time:       0 days  7 hours  2 minutes 56.8 seconds.
 File lengths (MBytes):  RWF=    544 Int=      0 D2E=      0 Chk=     25 Scr=      1
 Normal termination of Gaussian 09 at Thu Feb  6 02:09:53 2025.
