 Entering Gaussian System, Link 0=g09
 Initial command:
 /home/k0335/k033513/app/g09/l1.exe "/home/k0335/k033513/app/g09/scratch/Gau-417679.inp" -scrdir="/home/k0335/k033513/app/g09/scratch/"
 Default is to use a total of  36 processors:
                               36 via shared-memory
                                1 via Linda
 Entering Link 1 = /home/k0335/k033513/app/g09/l1.exe PID=    417680.
  
 Copyright (c) 1988,1990,1992,1993,1995,1998,2003,2009,2013,
            Gaussian, Inc.  All Rights Reserved.
  
 This is part of the Gaussian(R) 09 program.  It is based on
 the Gaussian(R) 03 system (copyright 2003, Gaussian, Inc.),
 the Gaussian(R) 98 system (copyright 1998, Gaussian, Inc.),
 the Gaussian(R) 94 system (copyright 1995, Gaussian, Inc.),
 the Gaussian 92(TM) system (copyright 1992, Gaussian, Inc.),
 the Gaussian 90(TM) system (copyright 1990, Gaussian, Inc.),
 the Gaussian 88(TM) system (copyright 1988, Gaussian, Inc.),
 the Gaussian 86(TM) system (copyright 1986, Carnegie Mellon
 University), and the Gaussian 82(TM) system (copyright 1983,
 Carnegie Mellon University). Gaussian is a federally registered
 trademark of Gaussian, Inc.
  
 This software contains proprietary and confidential information,
 including trade secrets, belonging to Gaussian, Inc.
  
 This software is provided under written license and may be
 used, copied, transmitted, or stored only in accord with that
 written license.
  
 The following legend is applicable only to US Government
 contracts under FAR:
  
                    RESTRICTED RIGHTS LEGEND
  
 Use, reproduction and disclosure by the US Government is
 subject to restrictions as set forth in subparagraphs (a)
 and (c) of the Commercial Computer Software - Restricted
 Rights clause in FAR 52.227-19.
  
 Gaussian, Inc.
 340 Quinnipiac St., Bldg. 40, Wallingford CT 06492
  
  
 ---------------------------------------------------------------
 Warning -- This program may not be used in any manner that
 competes with the business of Gaussian, Inc. or will provide
 assistance to any competitor of Gaussian, Inc.  The licensee
 of this program is prohibited from giving any competitor of
 Gaussian, Inc. access to this program.  By using this program,
 the user acknowledges that Gaussian, Inc. is engaged in the
 business of creating and licensing software in the field of
 computational chemistry and represents and warrants to the
 licensee that it is not a competitor of Gaussian, Inc. and that
 it will not use this program in any manner prohibited above.
 ---------------------------------------------------------------
  

 Cite this work as:
 Gaussian 09, Revision D.01,
 M. J. Frisch, G. W. Trucks, H. B. Schlegel, G. E. Scuseria, 
 M. A. Robb, J. R. Cheeseman, G. Scalmani, V. Barone, B. Mennucci, 
 G. A. Petersson, H. Nakatsuji, M. Caricato, X. Li, H. P. Hratchian, 
 A. F. Izmaylov, J. Bloino, G. Zheng, J. L. Sonnenberg, M. Hada, 
 M. Ehara, K. Toyota, R. Fukuda, J. Hasegawa, M. Ishida, T. Nakajima, 
 Y. Honda, O. Kitao, H. Nakai, T. Vreven, J. A. Montgomery, Jr., 
 J. E. Peralta, F. Ogliaro, M. Bearpark, J. J. Heyd, E. Brothers, 
 K. N. Kudin, V. N. Staroverov, T. Keith, R. Kobayashi, J. Normand, 
 K. Raghavachari, A. Rendell, J. C. Burant, S. S. Iyengar, J. Tomasi, 
 M. Cossi, N. Rega, J. M. Millam, M. Klene, J. E. Knox, J. B. Cross, 
 V. Bakken, C. Adamo, J. Jaramillo, R. Gomperts, R. E. Stratmann, 
 O. Yazyev, A. J. Austin, R. Cammi, C. Pomelli, J. W. Ochterski, 
 R. L. Martin, K. Morokuma, V. G. Zakrzewski, G. A. Voth, 
 P. Salvador, J. J. Dannenberg, S. Dapprich, A. D. Daniels, 
 O. Farkas, J. B. Foresman, J. V. Ortiz, J. Cioslowski, 
 and D. J. Fox, Gaussian, Inc., Wallingford CT, 2013.
 
 ******************************************
 Gaussian 09:  ES64L-G09RevD.01 24-Apr-2013
                 3-Mar-2024 
 ******************************************
 %nprocshared=24
 Will use up to   24 processors via shared memory.
 %mem=40GB
 %rwf=A1374950790/A1374950790_p1.rwf
 %nosave
 %chk=A1374950790/A1374950790_p1.chk
 ----------------------------------------------------------------------
 #p CAM-B3LYP/6-31G(d,p) SCRF=(PCM,Solvent=Generic,Read) NoSymm out=wfn
 ----------------------------------------------------------------------
 1/38=1,40=2/1;
 2/12=2,15=1,17=6,18=5,40=1/2;
 3/5=1,6=6,7=101,11=2,16=1,25=1,30=1,70=2203,72=-2,74=-40/1,2,3;
 4//1;
 5/5=2,38=5/2;
 6/7=2,8=2,9=2,10=2,28=1/1;
 99/5=1,6=100,9=1/99;
 Leave Link    1 at Sun Mar  3 18:26:03 2024, MaxMem=  5368709120 cpu:         1.3
 (Enter /home/k0335/k033513/app/g09/l101.exe)
 --------------------
 Title A1374950790_p1
 --------------------
 Symbolic Z-matrix:
 Charge =  1 Multiplicity = 2
 O                     1.72297  -2.91981   1.3607 
 C                     0.69629  -2.37088   0.9635 
 N                    -0.47974  -2.3661    1.69095 
 Cl                   -0.47372  -3.15693   3.25043 
 C                    -1.627    -1.69108   1.31708 
 O                    -2.6029   -1.57585   2.05662 
 N                    -1.59239  -1.11268   0.06616 
 C                    -2.75832  -0.33062  -0.33664 
 F                    -3.87749  -1.05949  -0.06524 
 F                    -2.76654  -0.24061  -1.69802 
 C                    -2.86322   1.08545   0.28981 
 F                    -3.03674   0.9672    1.63816 
 O                    -1.61343   1.76644   0.13484 
 C                    -1.68517   3.13519   0.43797 
 F                    -0.43324   3.60338   0.59071 
 F                    -2.27082   3.7855   -0.57917 
 F                    -2.36559   3.34008   1.57562 
 C                    -4.10698   1.72197  -0.34642 
 F                    -3.93288   1.95452  -1.6666 
 F                    -4.40053   2.91574   0.22283 
 F                    -5.21309   0.95873  -0.21304 
 C                    -0.41075  -0.89969  -0.60224 
 O                    -0.29448  -0.02785  -1.45814 
 N                     0.65644  -1.68185  -0.23338 
 C                     1.90678  -1.55926  -0.97603 
 F                     1.63697  -1.28888  -2.28097 
 F                     2.46538  -2.81079  -1.03768 
 C                     2.98097  -0.57978  -0.41434 
 F                     2.9414   -0.64955   0.96361 
 O                     4.33497  -0.96446  -0.70029 
 C                     4.73399  -0.75306  -2.02946 
 F                     5.93551  -1.32637  -2.21633 
 F                     4.83964   0.56217  -2.26839 
 F                     3.85603  -1.29991  -2.87863 
 C                     2.61049   0.8597   -0.76754 
 F                     2.4422    1.05435  -2.08881 
 F                     1.47196   1.23552  -0.13765 
 F                     3.57307   1.71955  -0.35263 
 
 NAtoms=     38 NQM=       38 NQMF=       0 NMMI=      0 NMMIF=      0
                NMic=       0 NMicF=      0.
                    Isotopes and Nuclear Properties:
 (Nuclear quadrupole moments (NQMom) in fm**2, nuclear magnetic moments (NMagM)
  in nuclear magnetons)

  Atom         1           2           3           4           5           6           7           8           9          10
 IAtWgt=          16          12          14          35          12          16          14          12          19          19
 AtmWgt=  15.9949146  12.0000000  14.0030740  34.9688527  12.0000000  15.9949146  14.0030740  12.0000000  18.9984033  18.9984033
 NucSpn=           0           0           2           3           0           0           2           0           1           1
 AtZEff=   0.0000000   0.0000000   0.0000000   0.0000000   0.0000000   0.0000000   0.0000000   0.0000000   0.0000000   0.0000000
 NQMom=    0.0000000   0.0000000   2.0440000  -8.1650000   0.0000000   0.0000000   2.0440000   0.0000000   0.0000000   0.0000000
 NMagM=    0.0000000   0.0000000   0.4037610   0.8218740   0.0000000   0.0000000   0.4037610   0.0000000   2.6288670   2.6288670
 AtZNuc=   8.0000000   6.0000000   7.0000000  17.0000000   6.0000000   8.0000000   7.0000000   6.0000000   9.0000000   9.0000000

  Atom        11          12          13          14          15          16          17          18          19          20
 IAtWgt=          12          19          16          12          19          19          19          12          19          19
 AtmWgt=  12.0000000  18.9984033  15.9949146  12.0000000  18.9984033  18.9984033  18.9984033  12.0000000  18.9984033  18.9984033
 NucSpn=           0           1           0           0           1           1           1           0           1           1
 AtZEff=   0.0000000   0.0000000   0.0000000   0.0000000   0.0000000   0.0000000   0.0000000   0.0000000   0.0000000   0.0000000
 NQMom=    0.0000000   0.0000000   0.0000000   0.0000000   0.0000000   0.0000000   0.0000000   0.0000000   0.0000000   0.0000000
 NMagM=    0.0000000   2.6288670   0.0000000   0.0000000   2.6288670   2.6288670   2.6288670   0.0000000   2.6288670   2.6288670
 AtZNuc=   6.0000000   9.0000000   8.0000000   6.0000000   9.0000000   9.0000000   9.0000000   6.0000000   9.0000000   9.0000000

  Atom        21          22          23          24          25          26          27          28          29          30
 IAtWgt=          19          12          16          14          12          19          19          12          19          16
 AtmWgt=  18.9984033  12.0000000  15.9949146  14.0030740  12.0000000  18.9984033  18.9984033  12.0000000  18.9984033  15.9949146
 NucSpn=           1           0           0           2           0           1           1           0           1           0
 AtZEff=   0.0000000   0.0000000   0.0000000   0.0000000   0.0000000   0.0000000   0.0000000   0.0000000   0.0000000   0.0000000
 NQMom=    0.0000000   0.0000000   0.0000000   2.0440000   0.0000000   0.0000000   0.0000000   0.0000000   0.0000000   0.0000000
 NMagM=    2.6288670   0.0000000   0.0000000   0.4037610   0.0000000   2.6288670   2.6288670   0.0000000   2.6288670   0.0000000
 AtZNuc=   9.0000000   6.0000000   8.0000000   7.0000000   6.0000000   9.0000000   9.0000000   6.0000000   9.0000000   8.0000000

  Atom        31          32          33          34          35          36          37          38
 IAtWgt=          12          19          19          19          12          19          19          19
 AtmWgt=  12.0000000  18.9984033  18.9984033  18.9984033  12.0000000  18.9984033  18.9984033  18.9984033
 NucSpn=           0           1           1           1           0           1           1           1
 AtZEff=   0.0000000   0.0000000   0.0000000   0.0000000   0.0000000   0.0000000   0.0000000   0.0000000
 NQMom=    0.0000000   0.0000000   0.0000000   0.0000000   0.0000000   0.0000000   0.0000000   0.0000000
 NMagM=    0.0000000   2.6288670   2.6288670   2.6288670   0.0000000   2.6288670   2.6288670   2.6288670
 AtZNuc=   6.0000000   9.0000000   9.0000000   9.0000000   6.0000000   9.0000000   9.0000000   9.0000000
 Leave Link  101 at Sun Mar  3 18:26:03 2024, MaxMem=  5368709120 cpu:         0.8
 (Enter /home/k0335/k033513/app/g09/l202.exe)
                          Input orientation:                          
 ---------------------------------------------------------------------
 Center     Atomic      Atomic             Coordinates (Angstroms)
 Number     Number       Type             X           Y           Z
 ---------------------------------------------------------------------
      1          8           0        1.722965   -2.919805    1.360704
      2          6           0        0.696289   -2.370875    0.963497
      3          7           0       -0.479737   -2.366097    1.690946
      4         17           0       -0.473723   -3.156935    3.250431
      5          6           0       -1.627003   -1.691081    1.317076
      6          8           0       -2.602902   -1.575847    2.056618
      7          7           0       -1.592394   -1.112682    0.066163
      8          6           0       -2.758316   -0.330620   -0.336637
      9          9           0       -3.877486   -1.059487   -0.065241
     10          9           0       -2.766544   -0.240610   -1.698016
     11          6           0       -2.863220    1.085454    0.289812
     12          9           0       -3.036737    0.967199    1.638159
     13          8           0       -1.613428    1.766443    0.134837
     14          6           0       -1.685172    3.135187    0.437973
     15          9           0       -0.433236    3.603382    0.590705
     16          9           0       -2.270818    3.785502   -0.579171
     17          9           0       -2.365595    3.340078    1.575619
     18          6           0       -4.106985    1.721971   -0.346420
     19          9           0       -3.932881    1.954515   -1.666602
     20          9           0       -4.400533    2.915741    0.222826
     21          9           0       -5.213092    0.958733   -0.213040
     22          6           0       -0.410751   -0.899687   -0.602240
     23          8           0       -0.294479   -0.027854   -1.458138
     24          7           0        0.656437   -1.681847   -0.233382
     25          6           0        1.906777   -1.559255   -0.976025
     26          9           0        1.636973   -1.288882   -2.280971
     27          9           0        2.465376   -2.810791   -1.037682
     28          6           0        2.980968   -0.579781   -0.414337
     29          9           0        2.941401   -0.649553    0.963607
     30          8           0        4.334967   -0.964459   -0.700289
     31          6           0        4.733985   -0.753061   -2.029459
     32          9           0        5.935511   -1.326370   -2.216327
     33          9           0        4.839636    0.562174   -2.268388
     34          9           0        3.856029   -1.299913   -2.878631
     35          6           0        2.610493    0.859695   -0.767540
     36          9           0        2.442195    1.054347   -2.088806
     37          9           0        1.471957    1.235525   -0.137651
     38          9           0        3.573073    1.719548   -0.352626
 ---------------------------------------------------------------------
                    Distance matrix (angstroms):
                    1          2          3          4          5
     1  O    0.000000
     2  C    1.230106   0.000000
     3  N    2.295114   1.382838   0.000000
     4  Cl   2.907359   2.686426   1.748558   0.000000
     5  C    3.568466   2.446390   1.382622   2.686381   0.000000
     6  O    4.582973   3.565339   2.294786   2.908338   1.229870
     7  N    3.991633   2.761581   2.334304   3.945879   1.378596
     8  C    5.446717   4.217497   3.666904   5.106318   2.421877
     9  F    6.071174   4.868004   4.041797   5.194090   2.715582
    10  F    6.057190   4.859310   4.607846   6.184586   3.534572
    11  C    6.182395   5.007012   4.422372   5.698493   3.208216
    12  F    6.151467   5.053057   4.201416   5.116341   3.026036
    13  O    5.881767   4.810288   4.559015   5.936792   3.654086
    14  C    7.009262   6.021981   5.769501   6.997737   4.906024
    15  F    6.913326   6.091514   6.070204   7.264824   5.475768
    16  F    8.042049   7.006035   6.797321   8.129750   5.831227
    17  F    7.479883   6.508826   6.010840   6.971037   5.091652
    18  C    7.645173   6.445053   5.832674   7.066941   4.535025
    19  F    8.056809   6.859711   6.470318   7.891128   5.244976
    20  F    8.534963   7.380684   6.739869   7.839874   5.487500
    21  F    8.101149   6.884135   6.089689   7.169098   4.714107
    22  C    3.533662   2.416912   2.722833   4.465670   2.406106
    23  O    4.514347   3.512219   3.926631   5.656315   3.499108
    24  N    2.282790   1.381618   2.337120   3.948430   2.760091
    25  C    2.710200   2.426057   3.668675   5.107083   4.214652
    26  F    3.991128   3.547135   4.627848   6.208145   4.874551
    27  F    2.513029   2.707012   4.039413   5.210185   4.852443
    28  C    3.195161   3.213441   4.427146   5.657485   5.046402
    29  F    2.606975   2.829042   3.896117   4.814520   4.698940
    30  O    3.859226   4.241010   5.555535   6.598382   6.335837
    31  C    5.025358   5.279971   6.605013   7.795901   7.248541
    32  F    5.751498   6.217051   7.583088   8.620597   8.355212
    33  F    5.916766   6.017905   7.248919   8.515921   7.729821
    34  F    5.014576   5.088503   6.388791   7.730503   6.915245
    35  C    4.427386   4.134882   5.098962   6.464503   5.367351
    36  F    5.311336   4.908858   5.875683   7.398981   5.974595
    37  F    4.424346   3.849715   4.486040   5.878646   4.503866
    38  F    5.280340   5.171037   6.106877   7.289627   6.439028
                    6          7          8          9         10
     6  O    0.000000
     7  N    2.279816   0.000000
     8  C    2.702298   1.460563   0.000000
     9  F    2.528533   2.289485   1.362881   0.000000
    10  F    3.988347   2.291608   1.364376   2.137921   0.000000
    11  C    3.204979   2.548886   1.552002   2.399077   2.391496
    12  F    2.613504   2.980470   2.379427   2.777748   3.558352
    13  O    3.980352   2.880021   2.435309   3.626551   2.952505
    14  C    5.065183   4.265119   3.709916   4.759701   4.138577
    15  F    5.803513   4.884675   4.662867   5.833993   5.045676
    16  F    5.983454   4.986875   4.151980   5.130246   4.207985
    17  F    4.945098   4.764805   4.157520   4.932992   4.868139
    18  C    4.348846   3.811647   2.456040   2.805038   2.734103
    19  F    5.300440   4.229427   2.893139   3.413449   2.485941
    20  F    5.173841   4.913083   3.680861   4.019826   4.040063
    21  F    4.288186   4.180690   2.775542   2.424644   3.103091
    22  C    3.511730   1.374194   2.430112   3.511717   2.680460
    23  O    4.480916   2.277044   2.723954   3.980247   2.492772
    24  N    3.984799   2.338999   3.673828   4.579526   3.992382
    25  C    5.434556   3.678285   4.866359   5.876818   4.909178
    26  F    6.072361   3.996110   4.900741   5.947381   4.563954
    27  F    6.065247   4.535146   5.824918   6.651662   5.866418
    28  C    6.186871   4.629309   5.745215   6.884067   5.898878
    29  F    5.726429   4.644910   5.854838   6.908241   6.311268
    30  O    7.490551   5.978547   7.130825   8.237518   7.207696
    31  C    8.438182   6.674131   7.692768   8.837957   7.525317
    32  F    9.551167   7.869230   8.950273  10.049543   8.784833
    33  F    8.869509   7.044592   7.890350   9.136293   7.669665
    34  F    8.133303   6.196142   7.151980   8.232874   6.809879
    35  C    6.409931   4.716947   5.516035   6.802232   5.566775
    36  F    7.039564   5.061404   5.659818   6.964300   5.381505
    37  F    5.415081   3.865988   4.515265   5.821414   4.751695
    38  F    7.403158   5.905841   6.655068   7.957164   6.770749
                   11         12         13         14         15
    11  C    0.000000
    12  F    1.364600   0.000000
    13  O    1.431692   2.219139   0.000000
    14  C    2.368787   2.822649   1.403745   0.000000
    15  F    3.512167   3.850304   2.230474   1.345317   0.000000
    16  F    2.897642   3.666881   2.240216   1.341817   2.185975
    17  F    2.642775   2.466759   2.262285   1.341340   2.184810
    18  C    1.535219   2.377744   2.539963   2.911637   4.232534
    19  F    2.393115   3.563609   2.942858   3.297790   4.479030
    20  F    2.391186   2.767657   3.016054   2.732696   4.043220
    21  F    2.406412   2.857189   3.705536   4.196068   5.521521
    22  C    3.278894   3.924341   3.016283   4.357339   4.658460
    23  O    3.300487   4.254076   2.738010   3.941331   4.171677
    24  N    4.507735   4.915246   4.144705   5.397932   5.458952
    25  C    5.599080   6.136388   4.968513   6.077769   5.880742
    26  F    5.700713   6.503310   5.073090   6.164551   6.038753
    27  F    6.733268   7.190729   6.241996   7.399950   7.224625
    28  C    6.117464   6.543597   5.187951   6.024972   5.492336
    29  F    6.095726   6.229530   5.222103   6.000477   5.441938
    30  O    7.549592   7.971302   6.598383   7.371893   6.728120
    31  C    8.153323   8.763266   7.163919   7.900144   7.248726
    32  F    9.461252  10.030890   8.489991   9.220933   8.528940
    33  F    8.133400   8.801273   6.990550   7.517839   6.725068
    34  F    7.802392   8.547012   6.956902   7.834212   7.380812
    35  C    5.579471   6.139231   4.413387   5.008379   4.317052
    36  F    5.814312   6.626957   4.679717   5.267795   4.684598
    37  F    4.358785   4.853228   3.142567   3.729279   3.125222
    38  F    6.499282   6.943979   5.209569   5.502565   4.526501
                   16         17         18         19         20
    16  F    0.000000
    17  F    2.202386   0.000000
    18  C    2.771974   3.056950   0.000000
    19  F    2.701384   3.858519   1.351765   0.000000
    20  F    2.436261   2.480138   1.354732   2.170851   0.000000
    21  F    4.096541   4.120479   1.350480   2.177927   2.163357
    22  C    5.040970   5.151708   4.538797   4.656687   5.581808
    23  O    4.384083   4.983590   4.339701   4.148640   5.324478
    24  N    6.211304   6.133913   5.855676   6.028191   6.849736
    25  C    6.795309   6.983374   6.879548   6.850188   7.825918
    26  F    6.626939   7.233333   6.767627   6.474592   7.771701
    27  F    8.133440   8.246261   8.013720   8.002585   9.028995
    28  C    6.831114   6.921774   7.452634   7.469413   8.192143
    29  F    7.015490   6.667527   7.551162   7.807363   8.195369
    30  O    8.137149   8.282894   8.866154   8.821082   9.602971
    31  C    8.471668   8.952900   9.333871   9.087200  10.098134
    32  F    9.805883  10.250022  10.660237  10.414008  11.435855
    33  F    7.987606   8.626036   9.223943   8.902686   9.855260
    34  F    8.287775   8.948657   8.885576   8.528038   9.775561
    35  C    5.694122   6.033585   6.785674   6.694975   7.373102
    36  F    5.652495   6.462772   6.809801   6.452143   7.458643
    37  F    4.550350   4.700132   5.603999   5.662765   6.118759
    38  F    6.202463   6.450738   7.680061   7.623719   8.083342
                   21         22         23         24         25
    21  F    0.000000
    22  C    5.164076   0.000000
    23  O    5.168789   1.227263   0.000000
    24  N    6.436183   1.373580   2.267148   0.000000
    25  C    7.590451   2.438377   2.724546   1.459417   0.000000
    26  F    7.500100   2.676338   2.449031   2.304017   1.359698
    27  F    8.593498   3.480522   3.941868   2.278963   1.371924
    28  C    8.339674   3.411950   3.481766   2.578903   1.558444
    29  F    8.394453   3.708284   4.089288   2.778394   2.379113
    30  O    9.752000   4.747173   4.783653   3.776802   2.515138
    31  C   10.255436   5.341045   5.112512   4.551366   3.122944
    32  F   11.555354   6.562193   6.408882   5.650403   4.221763
    33  F   10.268352   5.699092   5.231040   5.164885   3.843478
    34  F    9.718838   4.852582   4.567565   4.169005   2.736193
    35  C    7.843836   3.500095   3.115049   3.250092   2.527845
    36  F    7.882326   3.763964   3.009699   3.757431   2.890652
    37  F    6.691201   2.884365   2.541674   3.030725   2.950040
    38  F    8.820148   4.774259   4.385605   4.482240   3.730378
                   26         27         28         29         30
    26  F    0.000000
    27  F    2.132657   0.000000
    28  C    2.406963   2.373141   0.000000
    29  F    3.554935   2.983740   1.380277   0.000000
    30  O    3.143720   2.649178   1.436335   2.193112   0.000000
    31  C    3.153069   3.219388   2.389919   3.490346   1.403780
    32  F    4.299187   3.954054   3.540323   4.419814   2.234075
    33  F    3.699137   4.304491   2.862903   3.939209   2.245937
    34  F    2.298158   2.757854   2.712391   4.002787   2.255457
    35  C    2.802606   3.683273   1.527775   2.320388   2.511149
    36  F    2.485162   4.005582   2.400937   3.531247   3.096150
    37  F    3.315672   4.262583   2.376764   2.631645   3.654219
    38  F    4.064191   4.713838   2.375144   2.782826   2.811627
                   31         32         33         34         35
    31  C    0.000000
    32  F    1.344347   0.000000
    33  F    1.340930   2.184090   0.000000
    34  F    1.338263   2.182565   2.192544   0.000000
    35  C    2.950024   4.234809   2.703727   3.266798   0.000000
    36  F    2.919340   4.229342   2.454019   2.857497   1.346090
    37  F    4.263125   5.550452   4.041621   4.430036   1.354353
    38  F    3.205196   4.281601   2.571739   3.946886   1.355751
                   36         37         38
    36  F    0.000000
    37  F    2.186594   0.000000
    38  F    2.176166   2.166837   0.000000
 Symmetry turned off by external request.
 Stoichiometry    C11ClF18N3O5(1+,2)
 Framework group  C1[X(C11ClF18N3O5)]
 Deg. of freedom   108
 Full point group                 C1      NOp   1
 Rotational constants (GHZ):      0.1562305      0.0705316      0.0585689
 Leave Link  202 at Sun Mar  3 18:26:03 2024, MaxMem=  5368709120 cpu:         0.1
 (Enter /home/k0335/k033513/app/g09/l301.exe)
 Standard basis: 6-31G(d,p) (6D, 7F)
 Ernie: Thresh=  0.10000D-02 Tol=  0.10000D-05 Strict=F.
   574 basis functions,  1088 primitive gaussians,   574 cartesian basis functions
   153 alpha electrons      152 beta electrons
       nuclear repulsion energy      5962.6724812548 Hartrees.
 IExCor=20419 DFT=T Ex+Corr=CAM-B3LYP ExCW=0 ScaHFX=  1.000000
 ScaDFX=  1.000000  1.000000  1.000000  0.810000 ScalE2=  1.000000  1.000000
 IRadAn=      0 IRanWt=     -1 IRanGd=            0 ICorTp=0 IEmpDi=  4
  HFx wShort=  0.000000 wLong=  0.330000 cFull=  0.190000 cShort=  0.000000 cLong=  0.460000
  DFx wShort=  0.000000 wLong=  0.330000 cFull=  0.190000 cShort=  0.000000 cLong=  0.460000
 NAtoms=   38 NActive=   38 NUniq=   38 SFac= 1.00D+00 NAtFMM=   60 NAOKFM=F Big=F
 Integral buffers will be    131072 words long.
 Raffenetti 2 integral format.
 Two-electron integral symmetry is turned off.
 Using the following non-standard input for PCM:
 eps=4.9
 --- end of non-standard input.
 ------------------------------------------------------------------------------
 Polarizable Continuum Model (PCM)
 =================================
 Model                : PCM (using non-symmetric T matrix).
 Atomic radii         : UFF (Universal Force Field).
 Polarization charges : Total charges.
 Charge compensation  : None.
 Solution method      : On-the-fly selection.
 Cavity type          : Scaled VdW (van der Waals Surface) (Alpha=1.100).
 Cavity algorithm     : GePol (No added spheres)
                        Default sphere list used, NSphG=   38.
                        Lebedev-Laikov grids with approx.  5.0 points / Ang**2.
                        Smoothing algorithm: Karplus/York (Gamma=1.0000).
                        Polarization charges: spherical gaussians, with
                                              point-specific exponents (IZeta= 3).
                        Self-potential: point-specific (ISelfS= 7).
                        Self-field    : sphere-specific E.n sum rule (ISelfD= 2).
 Solvent              : Generic,
                        Eps                           =   4.900000
                        Eps(infinity)                 =   0.000000
                        RSolv                         =   0.000000 Ang.
                        Molar volume                  =   0.000000 cm**3/mol
                        Thermal expansion coefficient =   0.000000 K**-1
                        Absolute temperature          = 298.150000 K
                        Numeral density               =   0.000000 Ang**-3
                        Hydrogen bond acidity         =   0.000000
                        Hydrogen bond basicity        =   0.000000
                        Surface tension at interface  =   0.000000 (cal/mol)*Ang**-2
                        Carbon aromaticity            =   0.000000
                        Electronegative halogenicity  =   0.000000
 ------------------------------------------------------------------------------
 GePol: Number of generator spheres                  =      38
 GePol: Total number of spheres                      =      38
 GePol: Number of exposed spheres                    =      38 (100.00%)
 GePol: Number of points                             =    3251
 GePol: Average weight of points                     =       0.13
 GePol: Minimum weight of points                     =   0.46D-10
 GePol: Maximum weight of points                     =    0.21616
 GePol: Number of points with low weight             =     126
 GePol: Fraction of low-weight points (<1% of avg)   =       3.88%
 GePol: Cavity surface area                          =    414.040 Ang**2
 GePol: Cavity volume                                =    493.895 Ang**3
 Leave Link  301 at Sun Mar  3 18:26:03 2024, MaxMem=  5368709120 cpu:         0.8
 (Enter /home/k0335/k033513/app/g09/l302.exe)
 NPDir=0 NMtPBC=     1 NCelOv=     1 NCel=       1 NClECP=     1 NCelD=      1
         NCelK=      1 NCelE2=     1 NClLst=     1 CellRange=     0.0.
 One-electron integrals computed using PRISM.
 NBasis=   574 RedAO= T EigKep=  1.08D-03  NBF=   574
 NBsUse=   574 1.00D-06 EigRej= -1.00D+00 NBFU=   574
 Precomputing XC quadrature grid using
 IXCGrd= 4 IRadAn=           0 IRanWt=          -1 IRanGd=           0 AccXCQ= 0.00D+00.
 Generated NRdTot=       0 NPtTot=           0 NUsed=           0 NTot=          32
 NSgBfM=   561   561   561   561   561 MxSgAt=    38 MxSgA2=    38.
 Leave Link  302 at Sun Mar  3 18:26:03 2024, MaxMem=  5368709120 cpu:        11.6
 (Enter /home/k0335/k033513/app/g09/l303.exe)
 DipDrv:  MaxL=1.
 Leave Link  303 at Sun Mar  3 18:26:03 2024, MaxMem=  5368709120 cpu:         0.9
 (Enter /home/k0335/k033513/app/g09/l401.exe)
 ExpMin= 1.43D-01 ExpMax= 2.52D+04 ExpMxC= 3.78D+03 IAcc=1 IRadAn=         1 AccDes= 0.00D+00
 Harris functional with IExCor=20419 and IRadAn=       1 diagonalized for initial guess.
 HarFok:  IExCor=20419 AccDes= 0.00D+00 IRadAn=         1 IDoV= 1 UseB2=F ITyADJ=14
 ICtDFT=  3500011 ScaDFX=  1.000000  1.000000  1.000000  1.000000
 FoFCou: FMM=F IPFlag=           0 FMFlag=      100000 FMFlg1=           0
         NFxFlg=           0 DoJE=T BraDBF=F KetDBF=T FulRan=T
         wScrn=  0.000000 ICntrl=     500 IOpCl=  0 I1Cent=   200000004 NGrid=           0
         NMat0=    1 NMatS0=      1 NMatT0=    0 NMatD0=    1 NMtDS0=    0 NMtDT0=    0
 Symmetry not used in FoFCou.
 Harris En= -3128.03899797408    
 JPrj=0 DoOrth=F DoCkMO=F.
 Initial guess <Sx>= 0.0000 <Sy>= 0.0000 <Sz>= 0.5000 <S**2>= 0.7500 S= 0.5000
 Leave Link  401 at Sun Mar  3 18:26:04 2024, MaxMem=  5368709120 cpu:        13.8
 (Enter /home/k0335/k033513/app/g09/l502.exe)
 UHF open shell SCF:
 Using DIIS extrapolation, IDIIS=  1040.
 Two-electron integral symmetry not used.
 IVT=     1024274 IEndB=     1024274 NGot=  5368709120 MDV=  5368031537
 LenX=  5368031537 LenY=  5367701487
 Requested convergence on RMS density matrix=1.00D-08 within 128 cycles.
 Requested convergence on MAX density matrix=1.00D-06.
 Requested convergence on             energy=1.00D-06.
 No special actions if energy rises.
 Fock matrices will be formed incrementally for  20 cycles.

 Cycle   1  Pass 1  IDiag  1:
 FoFJK:  IHMeth= 1 ICntrl=       0 DoSepK=T KAlg= 0 I1Cent=   0 FoldK=F
 IRaf=         1 NMat=   1 IRICut=       1 DoRegI=T DoRafI=F ISym2E= 0.
 FoFCou: FMM=F IPFlag=           0 FMFlag=      100000 FMFlg1=           0
         NFxFlg=           0 DoJE=T BraDBF=F KetDBF=F FulRan=T
         wScrn=  0.000000 ICntrl=     500 IOpCl=  0 I1Cent=           0 NGrid=           0
         NMat0=    1 NMatS0=      1 NMatT0=    0 NMatD0=    1 NMtDS0=    0 NMtDT0=    0
 Symmetry not used in FoFCou.
 Inv3:  Mode=1 IEnd=    31707003.
 Iteration    1 A*A^-1 deviation from unit magnitude is 5.77D-15 for   3206.
 Iteration    1 A*A^-1 deviation from orthogonality  is 3.49D-15 for   3230   2755.
 Iteration    1 A^-1*A deviation from unit magnitude is 6.44D-15 for   3206.
 Iteration    1 A^-1*A deviation from orthogonality  is 1.93D-13 for   2856   2847.
 E= -3214.53215733260    
 DIIS: error= 1.25D-01 at cycle   1 NSaved=   1.
 NSaved= 1 IEnMin= 1 EnMin= -3214.53215733260     IErMin= 1 ErrMin= 1.25D-01
 ErrMax= 1.25D-01  0.00D+00 EMaxC= 1.00D-01 BMatC= 1.05D+01 BMatP= 1.05D+01
 IDIUse=3 WtCom= 0.00D+00 WtEn= 1.00D+00
 Coeff-Com:  0.100D+01
 Coeff-En:   0.100D+01
 Coeff:      0.100D+01
 Gap=     0.478 Goal=   None    Shift=    0.000
 Gap=     0.120 Goal=   None    Shift=    0.000
 GapD=    0.120 DampG=1.000 DampE=0.250 DampFc=0.2500 IDamp=-1.
 Damping current iteration by 2.50D-01
 RMSDP=4.67D-03 MaxDP=6.26D-01              OVMax= 9.67D-01

 Cycle   2  Pass 1  IDiag  1:
 RMSU=  1.17D-03    CP:  1.00D+00
 E= -3214.84067189748     Delta-E=       -0.308514564878 Rises=F Damp=T
 DIIS: error= 8.20D-02 at cycle   2 NSaved=   2.
 NSaved= 2 IEnMin= 2 EnMin= -3214.84067189748     IErMin= 2 ErrMin= 8.20D-02
 ErrMax= 8.20D-02  0.00D+00 EMaxC= 1.00D-01 BMatC= 4.38D+00 BMatP= 1.05D+01
 IDIUse=3 WtCom= 1.80D-01 WtEn= 8.20D-01
 Coeff-Com: -0.109D+01 0.209D+01
 Coeff-En:   0.000D+00 0.100D+01
 Coeff:     -0.196D+00 0.120D+01
 Gap=    -0.331 Goal=   None    Shift=    0.000
 Gap=     0.004 Goal=   None    Shift=    0.000
 RMSDP=2.15D-03 MaxDP=1.60D-01 DE=-3.09D-01 OVMax= 5.52D-01

 Cycle   3  Pass 1  IDiag  1:
 RMSU=  1.92D-03    CP:  1.01D+00  1.82D+00
 E= -3215.47719477166     Delta-E=       -0.636522874180 Rises=F Damp=F
 DIIS: error= 1.37D-02 at cycle   3 NSaved=   3.
 NSaved= 3 IEnMin= 3 EnMin= -3215.47719477166     IErMin= 3 ErrMin= 1.37D-02
 ErrMax= 1.37D-02  0.00D+00 EMaxC= 1.00D-01 BMatC= 1.27D+00 BMatP= 4.38D+00
 IDIUse=3 WtCom= 8.63D-01 WtEn= 1.37D-01
 Coeff-Com: -0.432D+00 0.858D+00 0.574D+00
 Coeff-En:   0.000D+00 0.000D+00 0.100D+01
 Coeff:     -0.373D+00 0.741D+00 0.632D+00
 Gap=     0.279 Goal=   None    Shift=    0.000
 Gap=     0.129 Goal=   None    Shift=    0.000
 RMSDP=9.05D-04 MaxDP=9.83D-02 DE=-6.37D-01 OVMax= 1.69D-01

 Cycle   4  Pass 1  IDiag  1:
 RMSU=  7.30D-04    CP:  1.01D+00  1.60D+00  7.56D-01
 E= -3215.68003399811     Delta-E=       -0.202839226455 Rises=F Damp=F
 DIIS: error= 4.80D-03 at cycle   4 NSaved=   4.
 NSaved= 4 IEnMin= 4 EnMin= -3215.68003399811     IErMin= 4 ErrMin= 4.80D-03
 ErrMax= 4.80D-03  0.00D+00 EMaxC= 1.00D-01 BMatC= 1.65D-01 BMatP= 1.27D+00
 IDIUse=3 WtCom= 9.52D-01 WtEn= 4.80D-02
 Coeff-Com: -0.236D+00 0.375D+00 0.236D+00 0.625D+00
 Coeff-En:   0.000D+00 0.000D+00 0.000D+00 0.100D+01
 Coeff:     -0.225D+00 0.357D+00 0.225D+00 0.643D+00
 Gap=     0.249 Goal=   None    Shift=    0.000
 Gap=     0.107 Goal=   None    Shift=    0.000
 RMSDP=3.81D-04 MaxDP=4.93D-02 DE=-2.03D-01 OVMax= 5.03D-02

 Cycle   5  Pass 1  IDiag  1:
 RMSU=  3.02D-04    CP:  1.01D+00  1.71D+00  8.00D-01  7.61D-01
 E= -3215.70070802536     Delta-E=       -0.020674027244 Rises=F Damp=F
 DIIS: error= 2.79D-03 at cycle   5 NSaved=   5.
 NSaved= 5 IEnMin= 5 EnMin= -3215.70070802536     IErMin= 5 ErrMin= 2.79D-03
 ErrMax= 2.79D-03  0.00D+00 EMaxC= 1.00D-01 BMatC= 5.19D-02 BMatP= 1.65D-01
 IDIUse=3 WtCom= 9.72D-01 WtEn= 2.79D-02
 Coeff-Com: -0.132D+00 0.177D+00 0.221D-01 0.369D+00 0.564D+00
 Coeff-En:   0.000D+00 0.000D+00 0.000D+00 0.165D+00 0.835D+00
 Coeff:     -0.128D+00 0.172D+00 0.215D-01 0.363D+00 0.572D+00
 Gap=     0.253 Goal=   None    Shift=    0.000
 Gap=     0.109 Goal=   None    Shift=    0.000
 RMSDP=1.55D-04 MaxDP=1.57D-02 DE=-2.07D-02 OVMax= 2.84D-02

 Cycle   6  Pass 1  IDiag  1:
 RMSU=  8.79D-05    CP:  1.01D+00  1.72D+00  7.98D-01  9.13D-01  7.96D-01
 E= -3215.71091202216     Delta-E=       -0.010203996801 Rises=F Damp=F
 DIIS: error= 1.25D-03 at cycle   6 NSaved=   6.
 NSaved= 6 IEnMin= 6 EnMin= -3215.71091202216     IErMin= 6 ErrMin= 1.25D-03
 ErrMax= 1.25D-03  0.00D+00 EMaxC= 1.00D-01 BMatC= 3.87D-03 BMatP= 5.19D-02
 IDIUse=3 WtCom= 9.87D-01 WtEn= 1.25D-02
 Coeff-Com: -0.546D-01 0.715D-01-0.235D-01 0.814D-01 0.147D+00 0.779D+00
 Coeff-En:   0.000D+00 0.000D+00 0.000D+00 0.000D+00 0.000D+00 0.100D+01
 Coeff:     -0.540D-01 0.706D-01-0.232D-01 0.804D-01 0.145D+00 0.781D+00
 Gap=     0.256 Goal=   None    Shift=    0.000
 Gap=     0.112 Goal=   None    Shift=    0.000
 RMSDP=6.63D-05 MaxDP=1.04D-02 DE=-1.02D-02 OVMax= 1.49D-02

 Cycle   7  Pass 1  IDiag  1:
 RMSU=  4.24D-05    CP:  1.01D+00  1.73D+00  7.94D-01  9.47D-01  8.90D-01
                    CP:  1.34D+00
 E= -3215.71234046486     Delta-E=       -0.001428442705 Rises=F Damp=F
 DIIS: error= 9.17D-04 at cycle   7 NSaved=   7.
 NSaved= 7 IEnMin= 7 EnMin= -3215.71234046486     IErMin= 7 ErrMin= 9.17D-04
 ErrMax= 9.17D-04  0.00D+00 EMaxC= 1.00D-01 BMatC= 1.04D-03 BMatP= 3.87D-03
 IDIUse=3 WtCom= 9.91D-01 WtEn= 9.17D-03
 Coeff-Com:  0.403D-02-0.567D-02-0.239D-01-0.713D-01-0.136D+00 0.450D+00
 Coeff-Com:  0.783D+00
 Coeff-En:   0.000D+00 0.000D+00 0.000D+00 0.000D+00 0.000D+00 0.000D+00
 Coeff-En:   0.100D+01
 Coeff:      0.399D-02-0.561D-02-0.237D-01-0.706D-01-0.135D+00 0.446D+00
 Coeff:      0.785D+00
 Gap=     0.260 Goal=   None    Shift=    0.000
 Gap=     0.116 Goal=   None    Shift=    0.000
 RMSDP=6.51D-05 MaxDP=1.33D-02 DE=-1.43D-03 OVMax= 1.57D-02

 Cycle   8  Pass 1  IDiag  1:
 RMSU=  3.02D-05    CP:  1.01D+00  1.74D+00  7.90D-01  9.77D-01  9.64D-01
                    CP:  1.83D+00  1.45D+00
 E= -3215.71312946550     Delta-E=       -0.000789000642 Rises=F Damp=F
 DIIS: error= 4.73D-04 at cycle   8 NSaved=   8.
 NSaved= 8 IEnMin= 8 EnMin= -3215.71312946550     IErMin= 8 ErrMin= 4.73D-04
 ErrMax= 4.73D-04  0.00D+00 EMaxC= 1.00D-01 BMatC= 2.50D-04 BMatP= 1.04D-03
 IDIUse=3 WtCom= 9.95D-01 WtEn= 4.73D-03
 Coeff-Com:  0.118D-01-0.148D-01 0.266D-02-0.244D-01-0.752D-01-0.191D-01
 Coeff-Com:  0.248D+00 0.871D+00
 Coeff-En:   0.000D+00 0.000D+00 0.000D+00 0.000D+00 0.000D+00 0.000D+00
 Coeff-En:   0.000D+00 0.100D+01
 Coeff:      0.117D-01-0.147D-01 0.265D-02-0.243D-01-0.749D-01-0.190D-01
 Coeff:      0.247D+00 0.872D+00
 Gap=     0.264 Goal=   None    Shift=    0.000
 Gap=     0.119 Goal=   None    Shift=    0.000
 RMSDP=4.55D-05 MaxDP=7.42D-03 DE=-7.89D-04 OVMax= 1.60D-02

 Cycle   9  Pass 1  IDiag  1:
 RMSU=  1.65D-05    CP:  1.01D+00  1.74D+00  7.89D-01  9.77D-01  9.91D-01
                    CP:  2.12D+00  2.11D+00  1.58D+00
 E= -3215.71349801700     Delta-E=       -0.000368551491 Rises=F Damp=F
 DIIS: error= 3.60D-04 at cycle   9 NSaved=   9.
 NSaved= 9 IEnMin= 9 EnMin= -3215.71349801700     IErMin= 9 ErrMin= 3.60D-04
 ErrMax= 3.60D-04  0.00D+00 EMaxC= 1.00D-01 BMatC= 2.12D-04 BMatP= 2.50D-04
 IDIUse=3 WtCom= 9.96D-01 WtEn= 3.60D-03
 Coeff-Com:  0.841D-02-0.108D-01 0.214D-01 0.450D-01 0.408D-01-0.259D+00
 Coeff-Com: -0.409D+00 0.415D+00 0.115D+01
 Coeff-En:   0.000D+00 0.000D+00 0.000D+00 0.000D+00 0.000D+00 0.000D+00
 Coeff-En:   0.000D+00 0.000D+00 0.100D+01
 Coeff:      0.838D-02-0.108D-01 0.213D-01 0.448D-01 0.406D-01-0.258D+00
 Coeff:     -0.407D+00 0.414D+00 0.115D+01
 Gap=     0.266 Goal=   None    Shift=    0.000
 Gap=     0.120 Goal=   None    Shift=    0.000
 RMSDP=6.33D-05 MaxDP=1.17D-02 DE=-3.69D-04 OVMax= 2.26D-02

 Cycle  10  Pass 1  IDiag  1:
 RMSU=  1.24D-05    CP:  1.01D+00  1.74D+00  7.88D-01  9.74D-01  1.02D+00
                    CP:  2.50D+00  2.94D+00  2.73D+00  1.85D+00
 E= -3215.71389570615     Delta-E=       -0.000397689157 Rises=F Damp=F
 DIIS: error= 2.38D-04 at cycle  10 NSaved=  10.
 NSaved=10 IEnMin=10 EnMin= -3215.71389570615     IErMin=10 ErrMin= 2.38D-04
 ErrMax= 2.38D-04  0.00D+00 EMaxC= 1.00D-01 BMatC= 7.95D-05 BMatP= 2.12D-04
 IDIUse=3 WtCom= 9.98D-01 WtEn= 2.38D-03
 Coeff-Com:  0.799D-03-0.130D-02 0.663D-02 0.256D-01 0.310D-01-0.216D-01
 Coeff-Com: -0.260D+00-0.295D+00 0.188D+00 0.133D+01
 Coeff-En:   0.000D+00 0.000D+00 0.000D+00 0.000D+00 0.000D+00 0.000D+00
 Coeff-En:   0.000D+00 0.000D+00 0.000D+00 0.100D+01
 Coeff:      0.798D-03-0.129D-02 0.662D-02 0.255D-01 0.310D-01-0.216D-01
 Coeff:     -0.260D+00-0.294D+00 0.188D+00 0.133D+01
 Gap=     0.268 Goal=   None    Shift=    0.000
 Gap=     0.121 Goal=   None    Shift=    0.000
 RMSDP=6.30D-05 MaxDP=9.65D-03 DE=-3.98D-04 OVMax= 2.71D-02

 Cycle  11  Pass 1  IDiag  1:
 RMSU=  4.16D-05    CP:  1.01D+00  1.74D+00  7.88D-01  9.70D-01  1.05D+00
                    CP:  2.84D+00  3.00D+00  3.00D+00  3.00D+00  2.05D+00
 E= -3215.71413427015     Delta-E=       -0.000238563998 Rises=F Damp=F
 DIIS: error= 1.56D-04 at cycle  11 NSaved=  11.
 NSaved=11 IEnMin=11 EnMin= -3215.71413427015     IErMin=11 ErrMin= 1.56D-04
 ErrMax= 1.56D-04  0.00D+00 EMaxC= 1.00D-01 BMatC= 3.38D-05 BMatP= 7.95D-05
 IDIUse=3 WtCom= 9.98D-01 WtEn= 1.56D-03
 Coeff-Com:  0.187D-03-0.474D-03-0.402D-02-0.631D-02-0.129D-01 0.905D-01
 Coeff-Com:  0.331D-02-0.149D+00-0.431D+00 0.612D+00 0.898D+00
 Coeff-En:   0.000D+00 0.000D+00 0.000D+00 0.000D+00 0.000D+00 0.000D+00
 Coeff-En:   0.000D+00 0.000D+00 0.000D+00 0.000D+00 0.100D+01
 Coeff:      0.187D-03-0.473D-03-0.401D-02-0.630D-02-0.129D-01 0.904D-01
 Coeff:      0.331D-02-0.149D+00-0.430D+00 0.611D+00 0.898D+00
 Gap=     0.268 Goal=   None    Shift=    0.000
 Gap=     0.122 Goal=   None    Shift=    0.000
 RMSDP=3.28D-05 MaxDP=4.31D-03 DE=-2.39D-04 OVMax= 1.62D-02

 Cycle  12  Pass 1  IDiag  1:
 RMSU=  1.19D-05    CP:  1.01D+00  1.74D+00  7.87D-01  9.69D-01  1.06D+00
                    CP:  3.00D+00  3.00D+00  3.00D+00  3.00D+00  3.00D+00
                    CP:  1.57D+00
 E= -3215.71420963824     Delta-E=       -0.000075368092 Rises=F Damp=F
 DIIS: error= 1.11D-04 at cycle  12 NSaved=  12.
 NSaved=12 IEnMin=12 EnMin= -3215.71420963824     IErMin=12 ErrMin= 1.11D-04
 ErrMax= 1.11D-04  0.00D+00 EMaxC= 1.00D-01 BMatC= 1.41D-05 BMatP= 3.38D-05
 IDIUse=3 WtCom= 9.99D-01 WtEn= 1.11D-03
 Coeff-Com:  0.825D-03-0.105D-02-0.356D-02-0.118D-01-0.209D-01 0.474D-01
 Coeff-Com:  0.742D-01 0.189D+00-0.314D+00-0.308D+00 0.224D+00 0.112D+01
 Coeff-En:   0.000D+00 0.000D+00 0.000D+00 0.000D+00 0.000D+00 0.000D+00
 Coeff-En:   0.000D+00 0.000D+00 0.000D+00 0.000D+00 0.000D+00 0.100D+01
 Coeff:      0.824D-03-0.105D-02-0.355D-02-0.118D-01-0.208D-01 0.473D-01
 Coeff:      0.741D-01 0.189D+00-0.314D+00-0.308D+00 0.224D+00 0.112D+01
 Gap=     0.268 Goal=   None    Shift=    0.000
 Gap=     0.121 Goal=   None    Shift=    0.000
 RMSDP=2.20D-05 MaxDP=2.07D-03 DE=-7.54D-05 OVMax= 1.24D-02

 Cycle  13  Pass 1  IDiag  1:
 RMSU=  1.37D-05    CP:  1.01D+00  1.74D+00  7.87D-01  9.69D-01  1.07D+00
                    CP:  3.00D+00  3.00D+00  3.00D+00  3.00D+00  3.00D+00
                    CP:  1.90D+00  1.84D+00
 E= -3215.71424632957     Delta-E=       -0.000036691325 Rises=F Damp=F
 DIIS: error= 7.72D-05 at cycle  13 NSaved=  13.
 NSaved=13 IEnMin=13 EnMin= -3215.71424632957     IErMin=13 ErrMin= 7.72D-05
 ErrMax= 7.72D-05  0.00D+00 EMaxC= 1.00D-01 BMatC= 6.33D-06 BMatP= 1.41D-05
 IDIUse=1 WtCom= 1.00D+00 WtEn= 0.00D+00
 Coeff-Com:  0.140D-02-0.175D-02 0.172D-02-0.274D-03-0.971D-03-0.339D-01
 Coeff-Com: -0.499D-02 0.208D+00 0.530D-01-0.427D+00-0.422D+00 0.363D+00
 Coeff-Com:  0.126D+01
 Coeff:      0.140D-02-0.175D-02 0.172D-02-0.274D-03-0.971D-03-0.339D-01
 Coeff:     -0.499D-02 0.208D+00 0.530D-01-0.427D+00-0.422D+00 0.363D+00
 Coeff:      0.126D+01
 Gap=     0.268 Goal=   None    Shift=    0.000
 Gap=     0.121 Goal=   None    Shift=    0.000
 RMSDP=2.55D-05 MaxDP=2.44D-03 DE=-3.67D-05 OVMax= 1.44D-02

 Cycle  14  Pass 1  IDiag  1:
 RMSU=  3.12D-06    CP:  1.01D+00  1.74D+00  7.87D-01  9.68D-01  1.07D+00
                    CP:  3.00D+00  3.00D+00  3.00D+00  3.00D+00  3.00D+00
                    CP:  2.29D+00  2.83D+00  2.11D+00
 E= -3215.71427023677     Delta-E=       -0.000023907203 Rises=F Damp=F
 DIIS: error= 3.58D-05 at cycle  14 NSaved=  14.
 NSaved=14 IEnMin=14 EnMin= -3215.71427023677     IErMin=14 ErrMin= 3.58D-05
 ErrMax= 3.58D-05  0.00D+00 EMaxC= 1.00D-01 BMatC= 3.59D-06 BMatP= 6.33D-06
 IDIUse=1 WtCom= 1.00D+00 WtEn= 0.00D+00
 Coeff-Com:  0.105D-02-0.137D-02 0.259D-02 0.452D-02 0.760D-02-0.313D-01
 Coeff-Com: -0.305D-01 0.658D-01 0.140D+00-0.114D+00-0.321D+00-0.259D+00
 Coeff-Com:  0.713D+00 0.823D+00
 Coeff:      0.105D-02-0.137D-02 0.259D-02 0.452D-02 0.760D-02-0.313D-01
 Coeff:     -0.305D-01 0.658D-01 0.140D+00-0.114D+00-0.321D+00-0.259D+00
 Coeff:      0.713D+00 0.823D+00
 Gap=     0.268 Goal=   None    Shift=    0.000
 Gap=     0.121 Goal=   None    Shift=    0.000
 RMSDP=9.36D-06 MaxDP=8.20D-04 DE=-2.39D-05 OVMax= 5.29D-03

 Cycle  15  Pass 1  IDiag  1:
 RMSU=  4.45D-06    CP:  1.01D+00  1.74D+00  7.87D-01  9.67D-01  1.07D+00
                    CP:  3.00D+00  3.00D+00  3.00D+00  3.00D+00  3.00D+00
                    CP:  2.38D+00  3.00D+00  2.54D+00  1.40D+00
 E= -3215.71427534582     Delta-E=       -0.000005109052 Rises=F Damp=F
 DIIS: error= 1.84D-05 at cycle  15 NSaved=  15.
 NSaved=15 IEnMin=15 EnMin= -3215.71427534582     IErMin=15 ErrMin= 1.84D-05
 ErrMax= 1.84D-05  0.00D+00 EMaxC= 1.00D-01 BMatC= 1.20D-06 BMatP= 3.59D-06
 IDIUse=1 WtCom= 1.00D+00 WtEn= 0.00D+00
 Coeff-Com:  0.520D-03-0.719D-03 0.553D-03 0.944D-03 0.242D-02 0.138D-02
 Coeff-Com: -0.696D-02-0.387D-01 0.115D-01 0.830D-01 0.226D-01-0.194D+00
 Coeff-Com: -0.114D+00 0.318D+00 0.914D+00
 Coeff:      0.520D-03-0.719D-03 0.553D-03 0.944D-03 0.242D-02 0.138D-02
 Coeff:     -0.696D-02-0.387D-01 0.115D-01 0.830D-01 0.226D-01-0.194D+00
 Coeff:     -0.114D+00 0.318D+00 0.914D+00
 Gap=     0.269 Goal=   None    Shift=    0.000
 Gap=     0.122 Goal=   None    Shift=    0.000
 RMSDP=6.08D-06 MaxDP=6.42D-04 DE=-5.11D-06 OVMax= 3.20D-03

 Cycle  16  Pass 1  IDiag  1:
 RMSU=  2.22D-06    CP:  1.01D+00  1.74D+00  7.87D-01  9.66D-01  1.08D+00
                    CP:  3.00D+00  3.00D+00  3.00D+00  3.00D+00  3.00D+00
                    CP:  2.47D+00  3.00D+00  2.79D+00  1.85D+00  1.53D+00
 E= -3215.71427704006     Delta-E=       -0.000001694234 Rises=F Damp=F
 DIIS: error= 1.14D-05 at cycle  16 NSaved=  16.
 NSaved=16 IEnMin=16 EnMin= -3215.71427704006     IErMin=16 ErrMin= 1.14D-05
 ErrMax= 1.14D-05  0.00D+00 EMaxC= 1.00D-01 BMatC= 3.47D-07 BMatP= 1.20D-06
 IDIUse=1 WtCom= 1.00D+00 WtEn= 0.00D+00
 Coeff-Com:  0.834D-04-0.127D-03-0.267D-03-0.547D-03-0.315D-03 0.971D-02
 Coeff-Com:  0.500D-02-0.347D-01-0.326D-01 0.702D-01 0.903D-01-0.431D-01
 Coeff-Com: -0.225D+00-0.307D-01 0.458D+00 0.733D+00
 Coeff:      0.834D-04-0.127D-03-0.267D-03-0.547D-03-0.315D-03 0.971D-02
 Coeff:      0.500D-02-0.347D-01-0.326D-01 0.702D-01 0.903D-01-0.431D-01
 Coeff:     -0.225D+00-0.307D-01 0.458D+00 0.733D+00
 Gap=     0.269 Goal=   None    Shift=    0.000
 Gap=     0.122 Goal=   None    Shift=    0.000
 RMSDP=2.40D-06 MaxDP=2.32D-04 DE=-1.69D-06 OVMax= 9.13D-04

 Cycle  17  Pass 1  IDiag  1:
 RMSU=  9.11D-07    CP:  1.01D+00  1.74D+00  7.87D-01  9.65D-01  1.08D+00
                    CP:  3.00D+00  3.00D+00  3.00D+00  3.00D+00  3.00D+00
                    CP:  2.49D+00  3.00D+00  2.86D+00  2.08D+00  1.82D+00
                    CP:  1.38D+00
 E= -3215.71427762300     Delta-E=       -0.000000582946 Rises=F Damp=F
 DIIS: error= 9.03D-06 at cycle  17 NSaved=  17.
 NSaved=17 IEnMin=17 EnMin= -3215.71427762300     IErMin=17 ErrMin= 9.03D-06
 ErrMax= 9.03D-06  0.00D+00 EMaxC= 1.00D-01 BMatC= 1.06D-07 BMatP= 3.47D-07
 IDIUse=1 WtCom= 1.00D+00 WtEn= 0.00D+00
 Coeff-Com: -0.204D-04 0.266D-04-0.194D-03-0.471D-03-0.812D-03 0.222D-02
 Coeff-Com:  0.359D-02 0.336D-02-0.130D-01-0.421D-02 0.176D-01 0.351D-01
 Coeff-Com: -0.268D-01-0.864D-01-0.120D+00 0.196D+00 0.993D+00
 Coeff:     -0.204D-04 0.266D-04-0.194D-03-0.471D-03-0.812D-03 0.222D-02
 Coeff:      0.359D-02 0.336D-02-0.130D-01-0.421D-02 0.176D-01 0.351D-01
 Coeff:     -0.268D-01-0.864D-01-0.120D+00 0.196D+00 0.993D+00
 Gap=     0.269 Goal=   None    Shift=    0.000
 Gap=     0.122 Goal=   None    Shift=    0.000
 RMSDP=2.07D-06 MaxDP=2.28D-04 DE=-5.83D-07 OVMax= 7.84D-04

 Cycle  18  Pass 1  IDiag  1:
 RMSU=  4.80D-07    CP:  1.01D+00  1.74D+00  7.87D-01  9.65D-01  1.08D+00
                    CP:  3.00D+00  3.00D+00  3.00D+00  3.00D+00  3.00D+00
                    CP:  2.50D+00  3.00D+00  2.90D+00  2.28D+00  2.03D+00
                    CP:  1.71D+00  2.47D+00
 E= -3215.71427811694     Delta-E=       -0.000000493941 Rises=F Damp=F
 DIIS: error= 8.29D-06 at cycle  18 NSaved=  18.
 NSaved=18 IEnMin=18 EnMin= -3215.71427811694     IErMin=18 ErrMin= 8.29D-06
 ErrMax= 8.29D-06  0.00D+00 EMaxC= 1.00D-01 BMatC= 8.21D-08 BMatP= 1.06D-07
 IDIUse=1 WtCom= 1.00D+00 WtEn= 0.00D+00
 Coeff-Com: -0.687D-04 0.987D-04 0.526D-04 0.139D-03-0.167D-03-0.378D-02
 Coeff-Com: -0.121D-02 0.173D-01 0.105D-01-0.342D-01-0.351D-01 0.304D-01
 Coeff-Com:  0.877D-01 0.107D-01-0.268D+00-0.247D+00 0.182D+00 0.125D+01
 Coeff:     -0.687D-04 0.987D-04 0.526D-04 0.139D-03-0.167D-03-0.378D-02
 Coeff:     -0.121D-02 0.173D-01 0.105D-01-0.342D-01-0.351D-01 0.304D-01
 Coeff:      0.877D-01 0.107D-01-0.268D+00-0.247D+00 0.182D+00 0.125D+01
 Gap=     0.269 Goal=   None    Shift=    0.000
 Gap=     0.122 Goal=   None    Shift=    0.000
 RMSDP=2.77D-06 MaxDP=3.17D-04 DE=-4.94D-07 OVMax= 1.08D-03

 Cycle  19  Pass 1  IDiag  1:
 RMSU=  1.51D-06    CP:  1.01D+00  1.74D+00  7.87D-01  9.65D-01  1.08D+00
                    CP:  3.00D+00  3.00D+00  3.00D+00  3.00D+00  3.00D+00
                    CP:  2.50D+00  3.00D+00  2.94D+00  2.53D+00  2.27D+00
                    CP:  2.19D+00  3.00D+00  2.37D+00
 E= -3215.71427873468     Delta-E=       -0.000000617734 Rises=F Damp=F
 DIIS: error= 7.45D-06 at cycle  19 NSaved=  19.
 NSaved=19 IEnMin=19 EnMin= -3215.71427873468     IErMin=19 ErrMin= 7.45D-06
 ErrMax= 7.45D-06  0.00D+00 EMaxC= 1.00D-01 BMatC= 7.78D-08 BMatP= 8.21D-08
 IDIUse=1 WtCom= 1.00D+00 WtEn= 0.00D+00
 Coeff-Com: -0.117D-03 0.165D-03 0.229D-03 0.727D-03 0.735D-03-0.517D-02
 Coeff-Com: -0.487D-02 0.104D-01 0.233D-01-0.241D-01-0.454D-01-0.910D-02
 Coeff-Com:  0.864D-01 0.122D+00-0.122D+00-0.358D+00-0.100D+01 0.104D+01
 Coeff-Com:  0.128D+01
 Coeff:     -0.117D-03 0.165D-03 0.229D-03 0.727D-03 0.735D-03-0.517D-02
 Coeff:     -0.487D-02 0.104D-01 0.233D-01-0.241D-01-0.454D-01-0.910D-02
 Coeff:      0.864D-01 0.122D+00-0.122D+00-0.358D+00-0.100D+01 0.104D+01
 Coeff:      0.128D+01
 Gap=     0.269 Goal=   None    Shift=    0.000
 Gap=     0.122 Goal=   None    Shift=    0.000
 RMSDP=4.75D-06 MaxDP=5.22D-04 DE=-6.18D-07 OVMax= 1.85D-03

 Cycle  20  Pass 1  IDiag  1:
 RMSU=  1.17D-06    CP:  1.01D+00  1.74D+00  7.87D-01  9.65D-01  1.08D+00
                    CP:  3.00D+00  3.00D+00  3.00D+00  3.00D+00  3.00D+00
                    CP:  2.51D+00  3.00D+00  3.00D+00  2.95D+00  2.65D+00
                    CP:  2.96D+00  3.00D+00  3.00D+00  3.00D+00
 E= -3215.71427969376     Delta-E=       -0.000000959082 Rises=F Damp=F
 DIIS: error= 6.54D-06 at cycle  20 NSaved=  20.
 NSaved=20 IEnMin=20 EnMin= -3215.71427969376     IErMin=20 ErrMin= 6.54D-06
 ErrMax= 6.54D-06  0.00D+00 EMaxC= 1.00D-01 BMatC= 5.73D-08 BMatP= 7.78D-08
 IDIUse=1 WtCom= 1.00D+00 WtEn= 0.00D+00
 Coeff-Com: -0.530D-05 0.581D-05 0.813D-04 0.284D-03 0.467D-03 0.289D-04
 Coeff-Com: -0.242D-02-0.942D-02 0.562D-02 0.158D-01 0.569D-02-0.281D-01
 Coeff-Com: -0.345D-01 0.653D-01 0.139D+00 0.468D-01-0.679D+00-0.313D+00
 Coeff-Com:  0.474D+00 0.131D+01
 Coeff:     -0.530D-05 0.581D-05 0.813D-04 0.284D-03 0.467D-03 0.289D-04
 Coeff:     -0.242D-02-0.942D-02 0.562D-02 0.158D-01 0.569D-02-0.281D-01
 Coeff:     -0.345D-01 0.653D-01 0.139D+00 0.468D-01-0.679D+00-0.313D+00
 Coeff:      0.474D+00 0.131D+01
 Gap=     0.269 Goal=   None    Shift=    0.000
 Gap=     0.122 Goal=   None    Shift=    0.000
 RMSDP=4.99D-06 MaxDP=5.31D-04 DE=-9.59D-07 OVMax= 1.97D-03

 Cycle  21  Pass 1  IDiag  1:
 Restarting incremental Fock formation.
 E= -3215.71428058088     Delta-E=       -0.000000887123 Rises=F Damp=F
 DIIS: error= 5.79D-06 at cycle  21 NSaved=  20.
 NSaved=20 IEnMin=20 EnMin= -3215.71428058088     IErMin=20 ErrMin= 5.79D-06
 ErrMax= 5.79D-06  0.00D+00 EMaxC= 1.00D-01 BMatC= 4.83D-08 BMatP= 5.73D-08
 IDIUse=1 WtCom= 1.00D+00 WtEn= 0.00D+00
 Coeff-Com: -0.336D-05-0.698D-04-0.108D-03 0.199D-04 0.276D-02 0.120D-02
 Coeff-Com: -0.818D-02-0.834D-02 0.168D-01 0.223D-01-0.489D-02-0.503D-01
 Coeff-Com: -0.346D-01 0.888D-01 0.176D+00 0.196D+00-0.462D+00-0.641D+00
 Coeff-Com:  0.678D+00 0.103D+01
 Coeff:     -0.336D-05-0.698D-04-0.108D-03 0.199D-04 0.276D-02 0.120D-02
 Coeff:     -0.818D-02-0.834D-02 0.168D-01 0.223D-01-0.489D-02-0.503D-01
 Coeff:     -0.346D-01 0.888D-01 0.176D+00 0.196D+00-0.462D+00-0.641D+00
 Coeff:      0.678D+00 0.103D+01
 Gap=     0.269 Goal=   None    Shift=    0.000
 Gap=     0.122 Goal=   None    Shift=    0.000
 RMSDP=3.63D-06 MaxDP=3.63D-04 DE=-8.87D-07 OVMax= 1.43D-03

 Cycle  22  Pass 1  IDiag  1:
 RMSU=  3.63D-06    CP:  1.00D+00
 E= -3215.71428117211     Delta-E=       -0.000000591232 Rises=F Damp=F
 DIIS: error= 5.43D-06 at cycle  22 NSaved=  20.
 NSaved=20 IEnMin=20 EnMin= -3215.71428117211     IErMin=20 ErrMin= 5.43D-06
 ErrMax= 5.43D-06  0.00D+00 EMaxC= 1.00D-01 BMatC= 3.94D-08 BMatP= 4.83D-08
 IDIUse=1 WtCom= 1.00D+00 WtEn= 0.00D+00
 Coeff-Com: -0.130D-03-0.376D-03-0.479D-03 0.191D-02 0.379D-02 0.459D-02
 Coeff-Com: -0.145D-01-0.553D-02 0.885D-02 0.261D-01 0.560D-02-0.815D-01
 Coeff-Com: -0.108D+00 0.723D-01 0.840D+00 0.417D+00-0.119D+01-0.128D+01
 Coeff-Com:  0.160D+00 0.214D+01
 Coeff:     -0.130D-03-0.376D-03-0.479D-03 0.191D-02 0.379D-02 0.459D-02
 Coeff:     -0.145D-01-0.553D-02 0.885D-02 0.261D-01 0.560D-02-0.815D-01
 Coeff:     -0.108D+00 0.723D-01 0.840D+00 0.417D+00-0.119D+01-0.128D+01
 Coeff:      0.160D+00 0.214D+01
 Gap=     0.269 Goal=   None    Shift=    0.000
 Gap=     0.122 Goal=   None    Shift=    0.000
 RMSDP=7.42D-06 MaxDP=6.99D-04 DE=-5.91D-07 OVMax= 2.94D-03

 Cycle  23  Pass 1  IDiag  1:
 RMSU=  7.56D-07    CP:  1.00D+00  3.00D+00
 E= -3215.71428224582     Delta-E=       -0.000001073702 Rises=F Damp=F
 DIIS: error= 4.53D-06 at cycle  23 NSaved=  20.
 NSaved=20 IEnMin=20 EnMin= -3215.71428224582     IErMin=20 ErrMin= 4.53D-06
 ErrMax= 4.53D-06  0.00D+00 EMaxC= 1.00D-01 BMatC= 2.98D-08 BMatP= 3.94D-08
 IDIUse=1 WtCom= 1.00D+00 WtEn= 0.00D+00
 Coeff-Com: -0.169D-04-0.395D-03-0.209D-02 0.972D-03 0.127D-01 0.174D-02
 Coeff-Com: -0.214D-01-0.216D-01 0.125D-01 0.549D-01 0.446D-01-0.193D+00
 Coeff-Com: -0.174D+00-0.258D-01 0.103D+01 0.196D+00-0.129D+01-0.164D+01
 Coeff-Com:  0.827D+00 0.218D+01
 Coeff:     -0.169D-04-0.395D-03-0.209D-02 0.972D-03 0.127D-01 0.174D-02
 Coeff:     -0.214D-01-0.216D-01 0.125D-01 0.549D-01 0.446D-01-0.193D+00
 Coeff:     -0.174D+00-0.258D-01 0.103D+01 0.196D+00-0.129D+01-0.164D+01
 Coeff:      0.827D+00 0.218D+01
 Gap=     0.269 Goal=   None    Shift=    0.000
 Gap=     0.122 Goal=   None    Shift=    0.000
 RMSDP=1.34D-05 MaxDP=1.28D-03 DE=-1.07D-06 OVMax= 5.31D-03

 Cycle  24  Pass 1  IDiag  1:
 RMSU=  1.30D-05    CP:  1.00D+00  3.00D+00  3.00D+00
 E= -3215.71428366282     Delta-E=       -0.000001417000 Rises=F Damp=F
 DIIS: error= 2.72D-06 at cycle  24 NSaved=  20.
 NSaved=20 IEnMin=20 EnMin= -3215.71428366282     IErMin=20 ErrMin= 2.72D-06
 ErrMax= 2.72D-06  0.00D+00 EMaxC= 1.00D-01 BMatC= 1.92D-08 BMatP= 2.98D-08
 IDIUse=1 WtCom= 1.00D+00 WtEn= 0.00D+00
 Coeff-Com: -0.433D-03-0.255D-03-0.499D-03 0.502D-02 0.164D-02-0.773D-02
 Coeff-Com: -0.707D-02-0.625D-02 0.823D-02 0.813D-01-0.485D-01-0.119D+00
 Coeff-Com: -0.487D+00 0.191D+00 0.685D+00 0.421D+00-0.629D+00-0.125D+01
 Coeff-Com:  0.859D+00 0.130D+01
 Coeff:     -0.433D-03-0.255D-03-0.499D-03 0.502D-02 0.164D-02-0.773D-02
 Coeff:     -0.707D-02-0.625D-02 0.823D-02 0.813D-01-0.485D-01-0.119D+00
 Coeff:     -0.487D+00 0.191D+00 0.685D+00 0.421D+00-0.629D+00-0.125D+01
 Coeff:      0.859D+00 0.130D+01
 Gap=     0.269 Goal=   None    Shift=    0.000
 Gap=     0.122 Goal=   None    Shift=    0.000
 RMSDP=9.81D-06 MaxDP=9.49D-04 DE=-1.42D-06 OVMax= 3.93D-03

 Cycle  25  Pass 1  IDiag  1:
 RMSU=  1.46D-06    CP:  1.00D+00  3.00D+00  3.00D+00  1.75D+00
 E= -3215.71428426997     Delta-E=       -0.000000607157 Rises=F Damp=F
 DIIS: error= 1.61D-06 at cycle  25 NSaved=  20.
 NSaved=20 IEnMin=20 EnMin= -3215.71428426997     IErMin=20 ErrMin= 1.61D-06
 ErrMax= 1.61D-06  0.00D+00 EMaxC= 1.00D-01 BMatC= 1.08D-08 BMatP= 1.92D-08
 IDIUse=1 WtCom= 1.00D+00 WtEn= 0.00D+00
 Coeff-Com:  0.204D-02-0.614D-03-0.340D-02-0.460D-02 0.877D-02 0.119D-01
 Coeff-Com: -0.101D-01-0.281D-01 0.117D-01 0.669D-01 0.350D-01-0.372D-01
 Coeff-Com: -0.402D+00-0.602D-01 0.724D+00 0.726D+00-0.813D+00-0.768D+00
 Coeff-Com:  0.290D+00 0.125D+01
 Coeff:      0.204D-02-0.614D-03-0.340D-02-0.460D-02 0.877D-02 0.119D-01
 Coeff:     -0.101D-01-0.281D-01 0.117D-01 0.669D-01 0.350D-01-0.372D-01
 Coeff:     -0.402D+00-0.602D-01 0.724D+00 0.726D+00-0.813D+00-0.768D+00
 Coeff:      0.290D+00 0.125D+01
 Gap=     0.269 Goal=   None    Shift=    0.000
 Gap=     0.122 Goal=   None    Shift=    0.000
 RMSDP=5.37D-06 MaxDP=5.38D-04 DE=-6.07D-07 OVMax= 2.16D-03

 Cycle  26  Pass 1  IDiag  1:
 RMSU=  1.60D-07    CP:  1.00D+00  3.00D+00  3.00D+00  2.15D+00  1.66D+00
 E= -3215.71428444723     Delta-E=       -0.000000177259 Rises=F Damp=F
 DIIS: error= 1.01D-06 at cycle  26 NSaved=  20.
 NSaved=20 IEnMin=20 EnMin= -3215.71428444723     IErMin=20 ErrMin= 1.01D-06
 ErrMax= 1.01D-06  0.00D+00 EMaxC= 1.00D-01 BMatC= 3.44D-09 BMatP= 1.08D-08
 IDIUse=1 WtCom= 1.00D+00 WtEn= 0.00D+00
 Coeff-Com: -0.104D-03 0.135D-02-0.138D-03-0.135D-02 0.867D-03 0.550D-02
 Coeff-Com:  0.354D-02-0.957D-02-0.313D-01-0.388D-01 0.770D-01 0.292D-01
 Coeff-Com: -0.795D-01 0.381D-01 0.214D+00-0.427D-01-0.300D+00-0.250D+00
 Coeff-Com:  0.511D+00 0.873D+00
 Coeff:     -0.104D-03 0.135D-02-0.138D-03-0.135D-02 0.867D-03 0.550D-02
 Coeff:      0.354D-02-0.957D-02-0.313D-01-0.388D-01 0.770D-01 0.292D-01
 Coeff:     -0.795D-01 0.381D-01 0.214D+00-0.427D-01-0.300D+00-0.250D+00
 Coeff:      0.511D+00 0.873D+00
 Gap=     0.269 Goal=   None    Shift=    0.000
 Gap=     0.122 Goal=   None    Shift=    0.000
 RMSDP=3.19D-06 MaxDP=3.28D-04 DE=-1.77D-07 OVMax= 1.27D-03

 Cycle  27  Pass 1  IDiag  1:
 RMSU=  2.18D-07    CP:  1.00D+00  3.00D+00  3.00D+00  2.39D+00  1.97D+00
                    CP:  1.40D+00
 E= -3215.71428449699     Delta-E=       -0.000000049762 Rises=F Damp=F
 DIIS: error= 5.36D-07 at cycle  27 NSaved=  20.
 NSaved=20 IEnMin=20 EnMin= -3215.71428449699     IErMin=20 ErrMin= 5.36D-07
 ErrMax= 5.36D-07  0.00D+00 EMaxC= 1.00D-01 BMatC= 1.39D-09 BMatP= 3.44D-09
 IDIUse=1 WtCom= 1.00D+00 WtEn= 0.00D+00
 Coeff-Com: -0.121D-02 0.319D-03 0.116D-02 0.154D-02 0.847D-03-0.358D-02
 Coeff-Com: -0.538D-02 0.104D-03 0.118D-01 0.386D-01-0.219D-01-0.658D-01
 Coeff-Com: -0.203D-01 0.733D-01 0.117D+00-0.579D-01-0.216D+00-0.163D+00
 Coeff-Com:  0.311D+00 0.999D+00
 Coeff:     -0.121D-02 0.319D-03 0.116D-02 0.154D-02 0.847D-03-0.358D-02
 Coeff:     -0.538D-02 0.104D-03 0.118D-01 0.386D-01-0.219D-01-0.658D-01
 Coeff:     -0.203D-01 0.733D-01 0.117D+00-0.579D-01-0.216D+00-0.163D+00
 Coeff:      0.311D+00 0.999D+00
 Gap=     0.269 Goal=   None    Shift=    0.000
 Gap=     0.122 Goal=   None    Shift=    0.000
 RMSDP=1.63D-06 MaxDP=1.58D-04 DE=-4.98D-08 OVMax= 6.61D-04

 Cycle  28  Pass 1  IDiag  1:
 RMSU=  6.84D-08    CP:  1.00D+00  3.00D+00  3.00D+00  2.51D+00  2.21D+00
                    CP:  1.89D+00  7.11D-01
 E= -3215.71428450748     Delta-E=       -0.000000010481 Rises=F Damp=F
 DIIS: error= 2.12D-07 at cycle  28 NSaved=  20.
 NSaved=20 IEnMin=20 EnMin= -3215.71428450748     IErMin=20 ErrMin= 2.12D-07
 ErrMax= 2.12D-07  0.00D+00 EMaxC= 1.00D-01 BMatC= 2.64D-10 BMatP= 1.39D-09
 IDIUse=1 WtCom= 1.00D+00 WtEn= 0.00D+00
 Coeff-Com:  0.701D-03-0.115D-02-0.132D-02-0.165D-03 0.190D-02-0.182D-02
 Coeff-Com:  0.296D-02 0.132D-01 0.360D-01 0.604D-02-0.557D-01-0.647D-01
 Coeff-Com: -0.537D-01 0.102D+00 0.922D-01-0.660D-02-0.204D+00-0.142D+00
 Coeff-Com:  0.267D+00 0.101D+01
 Coeff:      0.701D-03-0.115D-02-0.132D-02-0.165D-03 0.190D-02-0.182D-02
 Coeff:      0.296D-02 0.132D-01 0.360D-01 0.604D-02-0.557D-01-0.647D-01
 Coeff:     -0.537D-01 0.102D+00 0.922D-01-0.660D-02-0.204D+00-0.142D+00
 Coeff:      0.267D+00 0.101D+01
 Gap=     0.269 Goal=   None    Shift=    0.000
 Gap=     0.122 Goal=   None    Shift=    0.000
 RMSDP=5.11D-07 MaxDP=5.24D-05 DE=-1.05D-08 OVMax= 2.06D-04

 Cycle  29  Pass 1  IDiag  1:
 RMSU=  2.82D-08    CP:  1.00D+00  3.00D+00  3.00D+00  2.55D+00  2.28D+00
                    CP:  2.07D+00  7.72D-01  1.35D+00
 E= -3215.71428450860     Delta-E=       -0.000000001122 Rises=F Damp=F
 DIIS: error= 9.74D-08 at cycle  29 NSaved=  20.
 NSaved=20 IEnMin=20 EnMin= -3215.71428450860     IErMin=20 ErrMin= 9.74D-08
 ErrMax= 9.74D-08  0.00D+00 EMaxC= 1.00D-01 BMatC= 5.06D-11 BMatP= 2.64D-10
 IDIUse=1 WtCom= 1.00D+00 WtEn= 0.00D+00
 Coeff-Com: -0.138D-03 0.714D-04 0.415D-03-0.163D-03-0.153D-02 0.295D-03
 Coeff-Com:  0.291D-02 0.789D-02 0.145D-02-0.114D-01-0.381D-02-0.720D-02
 Coeff-Com:  0.114D-02 0.100D-01 0.313D-01-0.114D-01-0.828D-01-0.820D-01
 Coeff-Com:  0.203D+00 0.942D+00
 Coeff:     -0.138D-03 0.714D-04 0.415D-03-0.163D-03-0.153D-02 0.295D-03
 Coeff:      0.291D-02 0.789D-02 0.145D-02-0.114D-01-0.381D-02-0.720D-02
 Coeff:      0.114D-02 0.100D-01 0.313D-01-0.114D-01-0.828D-01-0.820D-01
 Coeff:      0.203D+00 0.942D+00
 Gap=     0.269 Goal=   None    Shift=    0.000
 Gap=     0.122 Goal=   None    Shift=    0.000
 RMSDP=8.71D-08 MaxDP=1.00D-05 DE=-1.12D-09 OVMax= 3.31D-05

 Cycle  30  Pass 1  IDiag  1:
 RMSU=  1.24D-08    CP:  1.00D+00  3.00D+00  3.00D+00  2.56D+00  2.29D+00
                    CP:  2.10D+00  8.20D-01  1.48D+00  1.20D+00
 E= -3215.71428450870     Delta-E=       -0.000000000100 Rises=F Damp=F
 DIIS: error= 5.05D-08 at cycle  30 NSaved=  20.
 NSaved=20 IEnMin=20 EnMin= -3215.71428450870     IErMin=20 ErrMin= 5.05D-08
 ErrMax= 5.05D-08  0.00D+00 EMaxC= 1.00D-01 BMatC= 2.49D-11 BMatP= 5.06D-11
 IDIUse=1 WtCom= 1.00D+00 WtEn= 0.00D+00
 Coeff-Com:  0.133D-03 0.271D-03-0.284D-03 0.694D-03 0.554D-03-0.279D-02
 Coeff-Com: -0.166D-01-0.877D-02 0.189D-01 0.407D-01 0.243D-01-0.527D-01
 Coeff-Com: -0.392D-01 0.312D-01 0.656D-01-0.195D-01-0.131D+00-0.181D+00
 Coeff-Com:  0.473D+00 0.797D+00
 Coeff:      0.133D-03 0.271D-03-0.284D-03 0.694D-03 0.554D-03-0.279D-02
 Coeff:     -0.166D-01-0.877D-02 0.189D-01 0.407D-01 0.243D-01-0.527D-01
 Coeff:     -0.392D-01 0.312D-01 0.656D-01-0.195D-01-0.131D+00-0.181D+00
 Coeff:      0.473D+00 0.797D+00
 Gap=     0.269 Goal=   None    Shift=    0.000
 Gap=     0.122 Goal=   None    Shift=    0.000
 RMSDP=3.54D-08 MaxDP=4.66D-06 DE=-1.00D-10 OVMax= 1.14D-05

 Cycle  31  Pass 1  IDiag  1:
 RMSU=  5.97D-09    CP:  1.00D+00  3.00D+00  3.00D+00  2.56D+00  2.30D+00
                    CP:  2.11D+00  8.71D-01  1.53D+00  1.41D+00  1.55D+00
 E= -3215.71428450862     Delta-E=        0.000000000078 Rises=F Damp=F
 DIIS: error= 3.33D-08 at cycle  31 NSaved=  20.
 NSaved=20 IEnMin=19 EnMin= -3215.71428450870     IErMin=20 ErrMin= 3.33D-08
 ErrMax= 3.33D-08  0.00D+00 EMaxC= 1.00D-01 BMatC= 5.42D-12 BMatP= 2.49D-11
 IDIUse=1 WtCom= 1.00D+00 WtEn= 0.00D+00
 Coeff-Com:  0.337D-03 0.149D-03-0.291D-03-0.933D-03-0.320D-03 0.142D-03
 Coeff-Com:  0.104D-02 0.107D-02-0.123D-02 0.565D-02-0.416D-03-0.129D-01
 Coeff-Com:  0.171D-02 0.209D-01 0.886D-02-0.119D-01-0.987D-01-0.148D+00
 Coeff-Com:  0.117D+00 0.112D+01
 Coeff:      0.337D-03 0.149D-03-0.291D-03-0.933D-03-0.320D-03 0.142D-03
 Coeff:      0.104D-02 0.107D-02-0.123D-02 0.565D-02-0.416D-03-0.129D-01
 Coeff:      0.171D-02 0.209D-01 0.886D-02-0.119D-01-0.987D-01-0.148D+00
 Coeff:      0.117D+00 0.112D+01
 Gap=     0.269 Goal=   None    Shift=    0.000
 Gap=     0.122 Goal=   None    Shift=    0.000
 RMSDP=2.17D-08 MaxDP=1.95D-06 DE= 7.82D-11 OVMax= 1.15D-05

 Cycle  32  Pass 1  IDiag  1:
 RMSU=  4.55D-09    CP:  1.00D+00  3.00D+00  3.00D+00  2.56D+00  2.30D+00
                    CP:  2.09D+00  9.46D-01  1.53D+00  1.58D+00  2.12D+00
                    CP:  1.73D+00
 E= -3215.71428450874     Delta-E=       -0.000000000122 Rises=F Damp=F
 DIIS: error= 1.48D-08 at cycle  32 NSaved=  20.
 NSaved=20 IEnMin=20 EnMin= -3215.71428450874     IErMin=20 ErrMin= 1.48D-08
 ErrMax= 1.48D-08  0.00D+00 EMaxC= 1.00D-01 BMatC= 1.11D-12 BMatP= 5.42D-12
 IDIUse=1 WtCom= 1.00D+00 WtEn= 0.00D+00
 Coeff-Com: -0.111D-03-0.298D-03 0.242D-03 0.119D-02 0.203D-02 0.612D-03
 Coeff-Com: -0.293D-02-0.632D-02-0.202D-02 0.111D-01 0.877D-03-0.529D-02
 Coeff-Com: -0.855D-02 0.224D-02 0.293D-01 0.155D-01-0.146D+00-0.105D+00
 Coeff-Com:  0.370D+00 0.844D+00
 Coeff:     -0.111D-03-0.298D-03 0.242D-03 0.119D-02 0.203D-02 0.612D-03
 Coeff:     -0.293D-02-0.632D-02-0.202D-02 0.111D-01 0.877D-03-0.529D-02
 Coeff:     -0.855D-02 0.224D-02 0.293D-01 0.155D-01-0.146D+00-0.105D+00
 Coeff:      0.370D+00 0.844D+00
 Gap=     0.269 Goal=   None    Shift=    0.000
 Gap=     0.122 Goal=   None    Shift=    0.000
 RMSDP=5.25D-09 MaxDP=5.37D-07 DE=-1.22D-10 OVMax= 1.84D-06

 Error on total polarization charges =  0.00189
 SCF Done:  E(UCAM-B3LYP) =  -3215.71428451     A.U. after   32 cycles
            NFock= 32  Conv=0.53D-08     -V/T= 2.0068
 <Sx>= 0.0000 <Sy>= 0.0000 <Sz>= 0.5000 <S**2>= 0.7826 S= 0.5162
 <L.S>= 0.000000000000E+00
 KE= 3.194060071125D+03 PE=-1.949479475328D+04 EE= 7.122347916391D+03
 Annihilation of the first spin contaminant:
 S**2 before annihilation     0.7826,   after     0.7507
 Leave Link  502 at Sun Mar  3 18:28:20 2024, MaxMem=  5368709120 cpu:      3189.0
 (Enter /home/k0335/k033513/app/g09/l601.exe)
 Copying SCF densities to generalized density rwf, IOpCl= 1 IROHF=0.

 **********************************************************************

            Population analysis using the SCF density.

 **********************************************************************

 Alpha  occ. eigenvalues -- -101.84165 -24.87487 -24.87181 -24.87080 -24.87018
 Alpha  occ. eigenvalues --  -24.86594 -24.86521 -24.86465 -24.86258 -24.85948
 Alpha  occ. eigenvalues --  -24.85915 -24.85768 -24.85745 -24.85690 -24.85573
 Alpha  occ. eigenvalues --  -24.85564 -24.85339 -24.85179 -24.85057 -19.36990
 Alpha  occ. eigenvalues --  -19.36978 -19.36132 -19.36065 -19.30661 -14.73002
 Alpha  occ. eigenvalues --  -14.60813 -14.60657 -10.62026 -10.61963 -10.58319
 Alpha  occ. eigenvalues --  -10.58200 -10.58161 -10.58041 -10.56923 -10.56921
 Alpha  occ. eigenvalues --  -10.53174 -10.52770 -10.52629  -9.75031  -7.51943
 Alpha  occ. eigenvalues --   -7.50852  -7.50100  -1.45807  -1.45612  -1.44493
 Alpha  occ. eigenvalues --   -1.44405  -1.43201  -1.43096  -1.39248  -1.39203
 Alpha  occ. eigenvalues --   -1.36368  -1.36270  -1.35975  -1.35824  -1.35531
 Alpha  occ. eigenvalues --   -1.35503  -1.35204  -1.34786  -1.34746  -1.34473
 Alpha  occ. eigenvalues --   -1.34419  -1.29101  -1.26414  -1.23633  -1.23429
 Alpha  occ. eigenvalues --   -1.22851  -1.17338  -1.16408  -1.06890  -0.97554
 Alpha  occ. eigenvalues --   -0.97048  -0.93715  -0.91208  -0.87285  -0.85908
 Alpha  occ. eigenvalues --   -0.85149  -0.84569  -0.83673  -0.80785  -0.79091
 Alpha  occ. eigenvalues --   -0.77453  -0.76417  -0.75703  -0.75408  -0.74862
 Alpha  occ. eigenvalues --   -0.73919  -0.73746  -0.73108  -0.72449  -0.72335
 Alpha  occ. eigenvalues --   -0.71811  -0.71412  -0.71222  -0.70914  -0.70619
 Alpha  occ. eigenvalues --   -0.69997  -0.69409  -0.68762  -0.68558  -0.67683
 Alpha  occ. eigenvalues --   -0.65996  -0.64923  -0.64222  -0.63539  -0.62866
 Alpha  occ. eigenvalues --   -0.61717  -0.61186  -0.60335  -0.60109  -0.59973
 Alpha  occ. eigenvalues --   -0.59762  -0.59522  -0.59296  -0.59068  -0.58570
 Alpha  occ. eigenvalues --   -0.58512  -0.58362  -0.57893  -0.57790  -0.57580
 Alpha  occ. eigenvalues --   -0.57429  -0.56978  -0.56564  -0.56302  -0.55578
 Alpha  occ. eigenvalues --   -0.55365  -0.55288  -0.54944  -0.54736  -0.54539
 Alpha  occ. eigenvalues --   -0.54351  -0.54269  -0.54007  -0.53422  -0.53283
 Alpha  occ. eigenvalues --   -0.53098  -0.52990  -0.52391  -0.52315  -0.52071
 Alpha  occ. eigenvalues --   -0.51826  -0.51786  -0.51457  -0.51328  -0.50886
 Alpha  occ. eigenvalues --   -0.50616  -0.50078  -0.49129  -0.48187  -0.47668
 Alpha  occ. eigenvalues --   -0.46088  -0.45007  -0.43503
 Alpha virt. eigenvalues --   -0.16618  -0.09893  -0.07624  -0.00275   0.01298
 Alpha virt. eigenvalues --    0.02403   0.03242   0.05733   0.08924   0.10048
 Alpha virt. eigenvalues --    0.11049   0.12362   0.13957   0.14960   0.15848
 Alpha virt. eigenvalues --    0.16296   0.16746   0.17718   0.18559   0.18735
 Alpha virt. eigenvalues --    0.19994   0.20363   0.20435   0.20903   0.21389
 Alpha virt. eigenvalues --    0.21750   0.22466   0.23062   0.23321   0.24478
 Alpha virt. eigenvalues --    0.25388   0.26154   0.26645   0.26934   0.28891
 Alpha virt. eigenvalues --    0.29054   0.29654   0.30387   0.30731   0.32064
 Alpha virt. eigenvalues --    0.33544   0.36026   0.37096   0.40804   0.41760
 Alpha virt. eigenvalues --    0.42609   0.43274   0.45561   0.45648   0.46500
 Alpha virt. eigenvalues --    0.46977   0.47897   0.49042   0.49323   0.49705
 Alpha virt. eigenvalues --    0.50057   0.50424   0.51289   0.51876   0.52305
 Alpha virt. eigenvalues --    0.53232   0.53785   0.53970   0.54645   0.55579
 Alpha virt. eigenvalues --    0.56096   0.57572   0.57755   0.58159   0.58776
 Alpha virt. eigenvalues --    0.60318   0.62969   0.63430   0.64287   0.64778
 Alpha virt. eigenvalues --    0.67111   0.69244   0.69660   0.71018   0.72187
 Alpha virt. eigenvalues --    0.73201   0.74780   0.75045   0.76595   0.77092
 Alpha virt. eigenvalues --    0.78246   0.79562   0.81006   0.82784   0.83573
 Alpha virt. eigenvalues --    0.85066   0.85392   0.87176   0.88169   0.89527
 Alpha virt. eigenvalues --    0.89944   0.90937   0.92723   0.93110   0.94160
 Alpha virt. eigenvalues --    0.94842   0.96146   0.97634   0.98992   0.99676
 Alpha virt. eigenvalues --    1.01261   1.01548   1.02024   1.03650   1.04029
 Alpha virt. eigenvalues --    1.04152   1.05871   1.06508   1.06886   1.07538
 Alpha virt. eigenvalues --    1.08499   1.09194   1.09827   1.12084   1.12290
 Alpha virt. eigenvalues --    1.12417   1.13168   1.13583   1.14140   1.14329
 Alpha virt. eigenvalues --    1.15204   1.16213   1.16949   1.17258   1.18692
 Alpha virt. eigenvalues --    1.19442   1.20309   1.20996   1.21706   1.23976
 Alpha virt. eigenvalues --    1.24031   1.25934   1.26149   1.26818   1.27281
 Alpha virt. eigenvalues --    1.28030   1.28189   1.28824   1.29718   1.30445
 Alpha virt. eigenvalues --    1.30887   1.31466   1.31816   1.32007   1.32386
 Alpha virt. eigenvalues --    1.32693   1.33964   1.34614   1.34905   1.35212
 Alpha virt. eigenvalues --    1.35749   1.36353   1.37386   1.37493   1.37971
 Alpha virt. eigenvalues --    1.38181   1.38540   1.38856   1.39228   1.39623
 Alpha virt. eigenvalues --    1.40514   1.41049   1.42536   1.42659   1.43506
 Alpha virt. eigenvalues --    1.43823   1.44124   1.45153   1.45984   1.46478
 Alpha virt. eigenvalues --    1.47520   1.47924   1.48279   1.48519   1.49341
 Alpha virt. eigenvalues --    1.50042   1.51183   1.51753   1.52412   1.53387
 Alpha virt. eigenvalues --    1.54751   1.55313   1.55918   1.57050   1.58477
 Alpha virt. eigenvalues --    1.58715   1.59241   1.60611   1.62144   1.62600
 Alpha virt. eigenvalues --    1.63861   1.64816   1.66096   1.66190   1.67779
 Alpha virt. eigenvalues --    1.68181   1.69523   1.70465   1.71017   1.71146
 Alpha virt. eigenvalues --    1.72035   1.72645   1.73064   1.74144   1.74407
 Alpha virt. eigenvalues --    1.75095   1.76123   1.76393   1.77408   1.78076
 Alpha virt. eigenvalues --    1.78868   1.79139   1.79825   1.79994   1.80394
 Alpha virt. eigenvalues --    1.81186   1.81688   1.81870   1.82407   1.83189
 Alpha virt. eigenvalues --    1.83533   1.84189   1.84797   1.85005   1.85342
 Alpha virt. eigenvalues --    1.85551   1.85695   1.86593   1.86923   1.87284
 Alpha virt. eigenvalues --    1.88007   1.88732   1.88865   1.89068   1.89529
 Alpha virt. eigenvalues --    1.89955   1.90725   1.90955   1.91648   1.91934
 Alpha virt. eigenvalues --    1.92438   1.92595   1.93175   1.93922   1.94495
 Alpha virt. eigenvalues --    1.94744   1.96165   1.96899   1.97785   1.97878
 Alpha virt. eigenvalues --    1.98306   1.98588   1.99124   2.00104   2.00340
 Alpha virt. eigenvalues --    2.00642   2.00742   2.01202   2.01840   2.01975
 Alpha virt. eigenvalues --    2.02145   2.02554   2.02854   2.04248   2.04819
 Alpha virt. eigenvalues --    2.05716   2.06402   2.06650   2.06922   2.07170
 Alpha virt. eigenvalues --    2.08710   2.09344   2.09793   2.09978   2.10337
 Alpha virt. eigenvalues --    2.11449   2.11698   2.12743   2.13622   2.14217
 Alpha virt. eigenvalues --    2.15315   2.16081   2.16461   2.17829   2.18994
 Alpha virt. eigenvalues --    2.19607   2.20306   2.21634   2.23002   2.23906
 Alpha virt. eigenvalues --    2.23978   2.25206   2.25341   2.27070   2.28631
 Alpha virt. eigenvalues --    2.30449   2.31040   2.32817   2.32975   2.34246
 Alpha virt. eigenvalues --    2.34955   2.36658   2.37889   2.39534   2.40334
 Alpha virt. eigenvalues --    2.41260   2.42669   2.43699   2.44511   2.44679
 Alpha virt. eigenvalues --    2.46255   2.47156   2.49458   2.50808   2.51045
 Alpha virt. eigenvalues --    2.52877   2.53548   2.54482   2.56217   2.57722
 Alpha virt. eigenvalues --    2.59081   2.60642   2.61350   2.61997   2.64525
 Alpha virt. eigenvalues --    2.64838   2.67186   2.67392   2.68842   2.70188
 Alpha virt. eigenvalues --    2.72017   2.73802   2.76049   2.77651   2.78868
 Alpha virt. eigenvalues --    2.80882   2.81463   2.82274   2.82900   2.84351
 Alpha virt. eigenvalues --    2.85097   2.85792   2.86762   2.88009   2.88858
 Alpha virt. eigenvalues --    2.89247   2.90381   2.92207   2.93076   2.93812
 Alpha virt. eigenvalues --    2.95161   2.96153   2.96546   2.97684   3.02460
 Alpha virt. eigenvalues --    3.02965   3.03604   3.04418   3.04554   3.05019
 Alpha virt. eigenvalues --    3.05537   3.09099   3.09648   3.10685   3.13417
 Alpha virt. eigenvalues --    3.15332   3.16110   3.16622   3.19431   3.20556
 Alpha virt. eigenvalues --    3.23021   3.25684   3.26784   3.29119   3.29484
 Alpha virt. eigenvalues --    3.31822   3.37760   3.38743   3.90911   3.96532
 Alpha virt. eigenvalues --    4.01134   4.07225   4.09771   4.15167   4.19307
 Alpha virt. eigenvalues --    4.22485   4.27021   4.32094   4.35520   4.36039
 Alpha virt. eigenvalues --    4.40474   4.43103   4.44860   4.47213   4.57744
 Alpha virt. eigenvalues --    4.58503   4.60925   4.67351   4.70626   4.77509
 Alpha virt. eigenvalues --    4.83216   4.96033   4.99045   5.05830   5.10569
 Alpha virt. eigenvalues --    5.21635   5.28438   5.40229   5.43561   5.60853
 Alpha virt. eigenvalues --    5.65075   5.72194   6.19776   6.24011   6.60147
 Alpha virt. eigenvalues --    6.71150
  Beta  occ. eigenvalues -- -101.83949 -24.87480 -24.87180 -24.87070 -24.87019
  Beta  occ. eigenvalues --  -24.86594 -24.86517 -24.86461 -24.86258 -24.85948
  Beta  occ. eigenvalues --  -24.85915 -24.85768 -24.85745 -24.85690 -24.85573
  Beta  occ. eigenvalues --  -24.85564 -24.85339 -24.85179 -24.85057 -19.36349
  Beta  occ. eigenvalues --  -19.36342 -19.36131 -19.36064 -19.30683 -14.71842
  Beta  occ. eigenvalues --  -14.60857 -14.60699 -10.62026 -10.61963 -10.58319
  Beta  occ. eigenvalues --  -10.58200 -10.58160 -10.58041 -10.57142 -10.57134
  Beta  occ. eigenvalues --  -10.53170 -10.52772 -10.52630  -9.74825  -7.51861
  Beta  occ. eigenvalues --   -7.50134  -7.49975  -1.45807  -1.45612  -1.44492
  Beta  occ. eigenvalues --   -1.44402  -1.43196  -1.43093  -1.39241  -1.39184
  Beta  occ. eigenvalues --   -1.36356  -1.36268  -1.35967  -1.35824  -1.35526
  Beta  occ. eigenvalues --   -1.35498  -1.35203  -1.34772  -1.34737  -1.34453
  Beta  occ. eigenvalues --   -1.33434  -1.28157  -1.26168  -1.23629  -1.23419
  Beta  occ. eigenvalues --   -1.20907  -1.17175  -1.16242  -1.05553  -0.97496
  Beta  occ. eigenvalues --   -0.96993  -0.93371  -0.91179  -0.86978  -0.85798
  Beta  occ. eigenvalues --   -0.85145  -0.84523  -0.83653  -0.80695  -0.79089
  Beta  occ. eigenvalues --   -0.77351  -0.76326  -0.75639  -0.75309  -0.74549
  Beta  occ. eigenvalues --   -0.73809  -0.73185  -0.72433  -0.72332  -0.71608
  Beta  occ. eigenvalues --   -0.71562  -0.71304  -0.71187  -0.70848  -0.70258
  Beta  occ. eigenvalues --   -0.69972  -0.69251  -0.68539  -0.68477  -0.67623
  Beta  occ. eigenvalues --   -0.65364  -0.64212  -0.63040  -0.62924  -0.62394
  Beta  occ. eigenvalues --   -0.61525  -0.61110  -0.60229  -0.60073  -0.59843
  Beta  occ. eigenvalues --   -0.59601  -0.59421  -0.59261  -0.59047  -0.58508
  Beta  occ. eigenvalues --   -0.58389  -0.58064  -0.57851  -0.57762  -0.57483
  Beta  occ. eigenvalues --   -0.57141  -0.56729  -0.56385  -0.55742  -0.55448
  Beta  occ. eigenvalues --   -0.55248  -0.54917  -0.54745  -0.54502  -0.54317
  Beta  occ. eigenvalues --   -0.54163  -0.53917  -0.53496  -0.53287  -0.53172
  Beta  occ. eigenvalues --   -0.53045  -0.52712  -0.52348  -0.52182  -0.51859
  Beta  occ. eigenvalues --   -0.51779  -0.51486  -0.51317  -0.50898  -0.49828
  Beta  occ. eigenvalues --   -0.49328  -0.48624  -0.47828  -0.47449  -0.45533
  Beta  occ. eigenvalues --   -0.44486  -0.43313
  Beta virt. eigenvalues --   -0.31146  -0.15508  -0.08636  -0.06427   0.00248
  Beta virt. eigenvalues --    0.01342   0.02417   0.03424   0.05763   0.08983
  Beta virt. eigenvalues --    0.10172   0.11090   0.12541   0.13982   0.14962
  Beta virt. eigenvalues --    0.15918   0.16305   0.16720   0.17709   0.18591
  Beta virt. eigenvalues --    0.18740   0.19997   0.20363   0.20434   0.20902
  Beta virt. eigenvalues --    0.21393   0.21750   0.22474   0.23087   0.23332
  Beta virt. eigenvalues --    0.24480   0.25395   0.26217   0.26736   0.27009
  Beta virt. eigenvalues --    0.28957   0.29078   0.29684   0.30433   0.30750
  Beta virt. eigenvalues --    0.32038   0.33848   0.36648   0.37301   0.40958
  Beta virt. eigenvalues --    0.41968   0.42712   0.43320   0.45581   0.45656
  Beta virt. eigenvalues --    0.46545   0.46980   0.47950   0.49067   0.49321
  Beta virt. eigenvalues --    0.49761   0.50072   0.50440   0.51473   0.51876
  Beta virt. eigenvalues --    0.52448   0.53289   0.53815   0.53990   0.54740
  Beta virt. eigenvalues --    0.55610   0.56416   0.57587   0.58033   0.58391
  Beta virt. eigenvalues --    0.59505   0.61181   0.63248   0.63990   0.64374
  Beta virt. eigenvalues --    0.64872   0.67332   0.69374   0.69834   0.71125
  Beta virt. eigenvalues --    0.72405   0.73604   0.74937   0.75387   0.77141
  Beta virt. eigenvalues --    0.78096   0.78618   0.79953   0.81406   0.82903
  Beta virt. eigenvalues --    0.84088   0.85571   0.85628   0.87527   0.88334
  Beta virt. eigenvalues --    0.89918   0.90176   0.91330   0.92981   0.93399
  Beta virt. eigenvalues --    0.94345   0.95295   0.96281   0.97821   0.99211
  Beta virt. eigenvalues --    0.99879   1.01344   1.02000   1.02304   1.03775
  Beta virt. eigenvalues --    1.04133   1.04260   1.05970   1.06607   1.06915
  Beta virt. eigenvalues --    1.07639   1.08678   1.09251   1.09977   1.12264
  Beta virt. eigenvalues --    1.12415   1.12498   1.13205   1.13616   1.14243
  Beta virt. eigenvalues --    1.14501   1.15284   1.16242   1.16978   1.17306
  Beta virt. eigenvalues --    1.18713   1.19508   1.20368   1.21060   1.21775
  Beta virt. eigenvalues --    1.23994   1.24051   1.25937   1.26229   1.26865
  Beta virt. eigenvalues --    1.27336   1.28092   1.28265   1.28885   1.29982
  Beta virt. eigenvalues --    1.30536   1.31022   1.31491   1.31881   1.32101
  Beta virt. eigenvalues --    1.32397   1.32782   1.33986   1.34706   1.34973
  Beta virt. eigenvalues --    1.35346   1.35783   1.36505   1.37452   1.37780
  Beta virt. eigenvalues --    1.38010   1.38251   1.38667   1.38939   1.39558
  Beta virt. eigenvalues --    1.39749   1.40609   1.41322   1.42617   1.42967
  Beta virt. eigenvalues --    1.43540   1.43881   1.44208   1.45250   1.45998
  Beta virt. eigenvalues --    1.46503   1.47560   1.48161   1.48333   1.48585
  Beta virt. eigenvalues --    1.49378   1.50267   1.51249   1.51788   1.52469
[...]
     2  C(13)             -0.02574     -28.93729     -10.32554      -9.65244
     3  N(14)              0.09861      31.86002      11.36845      10.62736
     4  Cl(35)             0.02941      12.89598       4.60161       4.30164
     5  C(13)             -0.02514     -28.26334     -10.08506      -9.42764
     6  O(17)              0.02536     -15.37146      -5.48492      -5.12737
     7  N(14)             -0.00694      -2.24209      -0.80003      -0.74788
     8  C(13)              0.00014       0.16174       0.05771       0.05395
     9  F(19)              0.00127       5.34569       1.90747       1.78313
    10  F(19)             -0.00024      -1.01427      -0.36192      -0.33832
    11  C(13)             -0.00051      -0.57663      -0.20576      -0.19234
    12  F(19)              0.00086       3.61802       1.29100       1.20684
    13  O(17)              0.00005      -0.02886      -0.01030      -0.00963
    14  C(13)              0.00001       0.01012       0.00361       0.00338
    15  F(19)              0.00000      -0.00225      -0.00080      -0.00075
    16  F(19)              0.00000      -0.00952      -0.00340      -0.00317
    17  F(19)              0.00000      -0.01571      -0.00561      -0.00524
    18  C(13)             -0.00019      -0.20878      -0.07450      -0.06964
    19  F(19)             -0.00001      -0.02243      -0.00800      -0.00748
    20  F(19)             -0.00004      -0.16846      -0.06011      -0.05619
    21  F(19)              0.00003       0.11151       0.03979       0.03720
    22  C(13)              0.00027       0.30755       0.10974       0.10259
    23  O(17)             -0.00138       0.83888       0.29933       0.27982
    24  N(14)             -0.00584      -1.88813      -0.67373      -0.62981
    25  C(13)              0.00030       0.33691       0.12022       0.11238
    26  F(19)             -0.00022      -0.92456      -0.32990      -0.30840
    27  F(19)              0.00030       1.28039       0.45688       0.42709
    28  C(13)             -0.00095      -1.07065      -0.38203      -0.35713
    29  F(19)              0.00187       7.85880       2.80421       2.62141
    30  O(17)             -0.00014       0.08665       0.03092       0.02890
    31  C(13)              0.00000       0.00468       0.00167       0.00156
    32  F(19)             -0.00001      -0.03897      -0.01391      -0.01300
    33  F(19)             -0.00001      -0.02782      -0.00993      -0.00928
    34  F(19)             -0.00001      -0.05625      -0.02007      -0.01876
    35  C(13)              0.00002       0.02123       0.00758       0.00708
    36  F(19)              0.00002       0.07850       0.02801       0.02619
    37  F(19)              0.00004       0.18537       0.06614       0.06183
    38  F(19)             -0.00001      -0.05970      -0.02130      -0.01991
 --------------------------------------------------------
       Center         ----  Spin Dipole Couplings  ----
                      3XX-RR        3YY-RR        3ZZ-RR
 --------------------------------------------------------
     1   Atom       -0.361534      0.549173     -0.187640
     2   Atom        0.075352     -0.085799      0.010447
     3   Atom       -0.455427      0.693928     -0.238502
     4   Atom       -0.616664      1.144414     -0.527749
     5   Atom        0.055111     -0.073101      0.017990
     6   Atom       -0.124730      0.249431     -0.124702
     7   Atom        0.014901     -0.031706      0.016805
     8   Atom       -0.002197     -0.000237      0.002435
     9   Atom        0.000709     -0.004626      0.003917
    10   Atom       -0.000474     -0.001720      0.002194
    11   Atom       -0.000674      0.000596      0.000078
    12   Atom       -0.003237      0.007853     -0.004616
    13   Atom       -0.000964      0.000843      0.000121
    14   Atom       -0.000516      0.000971     -0.000455
    15   Atom       -0.000433      0.000857     -0.000425
    16   Atom       -0.000303      0.000478     -0.000174
    17   Atom       -0.000430      0.001064     -0.000634
    18   Atom       -0.000394      0.000535     -0.000141
    19   Atom       -0.000253      0.000177      0.000076
    20   Atom       -0.000138      0.000293     -0.000155
    21   Atom        0.000176      0.000233     -0.000409
    22   Atom       -0.004846      0.001790      0.003056
    23   Atom        0.012929     -0.000171     -0.012758
    24   Atom        0.016766     -0.025886      0.009120
    25   Atom       -0.002586     -0.000332      0.002918
    26   Atom       -0.000903     -0.000582      0.001485
    27   Atom        0.004722     -0.010663      0.005941
    28   Atom       -0.000215     -0.000434      0.000649
    29   Atom       -0.001537      0.012209     -0.010673
    30   Atom       -0.000758      0.000484      0.000274
    31   Atom        0.000141     -0.000302      0.000161
    32   Atom        0.000264     -0.000258     -0.000006
    33   Atom        0.000042     -0.000091      0.000049
    34   Atom       -0.000105     -0.000392      0.000497
    35   Atom       -0.000365      0.000376     -0.000011
    36   Atom       -0.000465      0.000339      0.000126
    37   Atom       -0.000285      0.000396     -0.000110
    38   Atom       -0.000099      0.000321     -0.000222
 --------------------------------------------------------
                        XY            XZ            YZ
 --------------------------------------------------------
     1   Atom        0.330191      0.176914      0.547049
     2   Atom       -0.057455     -0.032097     -0.076231
     3   Atom        0.444570      0.233740      0.676166
     4   Atom        0.831776      0.430099      1.179000
     5   Atom       -0.075826     -0.037141     -0.062367
     6   Atom        0.485601      0.332791      0.496816
     7   Atom       -0.020524     -0.005422     -0.026505
     8   Atom       -0.000359      0.001073     -0.002689
     9   Atom       -0.009766      0.014964     -0.007437
    10   Atom        0.001156     -0.002508     -0.000742
    11   Atom       -0.000814      0.000669     -0.002214
    12   Atom       -0.005182      0.001799     -0.004249
    13   Atom       -0.000227     -0.000154     -0.001439
    14   Atom       -0.000160      0.000053     -0.000593
    15   Atom        0.000065     -0.000030     -0.000430
    16   Atom       -0.000172      0.000084     -0.000442
    17   Atom       -0.000298      0.000002     -0.000262
    18   Atom       -0.000638      0.000356     -0.000754
    19   Atom       -0.000391      0.000306     -0.000641
    20   Atom       -0.000394      0.000410     -0.000505
    21   Atom       -0.001050      0.000581     -0.000413
    22   Atom        0.001575      0.001073     -0.003243
    23   Atom        0.000233     -0.000652     -0.023744
    24   Atom       -0.018428     -0.015030     -0.032600
    25   Atom        0.000757     -0.000849     -0.002376
    26   Atom       -0.000657      0.000892     -0.000922
    27   Atom        0.005568     -0.011721     -0.002053
    28   Atom        0.000720     -0.001741     -0.002076
    29   Atom        0.014924     -0.003335     -0.004672
    30   Atom        0.001204     -0.000788      0.000140
    31   Atom        0.000339     -0.000678     -0.000357
    32   Atom        0.000209     -0.000445     -0.000184
    33   Atom        0.000306     -0.000416     -0.000314
    34   Atom        0.000249     -0.000552     -0.000299
    35   Atom        0.000600     -0.000643     -0.001004
    36   Atom        0.000262     -0.000390     -0.000791
    37   Atom        0.000901     -0.000295     -0.000967
    38   Atom        0.000515     -0.000322     -0.000563
 --------------------------------------------------------


 ---------------------------------------------------------------------------------
              Anisotropic Spin Dipole Couplings in Principal Axis System
 ---------------------------------------------------------------------------------

       Atom             a.u.   MegaHertz   Gauss  10(-4) cm-1        Axes

              Baa    -0.4789    34.651    12.364    11.558 -0.0956 -0.4435  0.8912
     1 O(17)  Bbb    -0.4686    33.910    12.100    11.311  0.9566 -0.2884 -0.0409
              Bcc     0.9475   -68.560   -24.464   -22.869  0.2751  0.8486  0.4518
 
              Baa    -0.1473   -19.764    -7.052    -6.592  0.2835  0.8396  0.4635
     2 C(13)  Bbb     0.0525     7.041     2.512     2.349  0.0079 -0.4853  0.8743
              Bcc     0.0948    12.722     4.540     4.244  0.9589 -0.2442 -0.1442
 
              Baa    -0.6077   -23.438    -8.363    -7.818  0.9569 -0.2494 -0.1491
     3 N(14)  Bbb    -0.5936   -22.894    -8.169    -7.637  0.0153 -0.4690  0.8830
              Bcc     1.2013    46.332    16.532    15.455  0.2901  0.8472  0.4450
 
              Baa    -1.1370   -59.510   -21.234   -19.850 -0.0010 -0.4588  0.8885
     4 Cl(35) Bbb    -0.9419   -49.299   -17.591   -16.444  0.9446 -0.2920 -0.1497
              Bcc     2.0790   108.809    38.826    36.295  0.3281  0.8392  0.4337
 
              Baa    -0.1411   -18.935    -6.757    -6.316  0.3952  0.8201  0.4138
     5 C(13)  Bbb     0.0496     6.661     2.377     2.222 -0.0238 -0.4411  0.8971
              Bcc     0.0915    12.274     4.380     4.094  0.9183 -0.3644 -0.1549
 
              Baa    -0.4689    33.929    12.107    11.318  0.1472 -0.6280  0.7642
     6 O(17)  Bbb    -0.4549    32.913    11.744    10.979  0.8595 -0.3012 -0.4131
              Bcc     0.9238   -66.843   -23.851   -22.296  0.4896  0.7176  0.4954
 
              Baa    -0.0502    -1.934    -0.690    -0.645  0.3074  0.8760  0.3717
     7 N(14)  Bbb     0.0204     0.788     0.281     0.263  0.8849 -0.1194 -0.4503
              Bcc     0.0297     1.146     0.409     0.382  0.3500 -0.4673  0.8119
 
              Baa    -0.0025    -0.335    -0.119    -0.112  0.9048 -0.2588 -0.3381
     8 C(13)  Bbb    -0.0018    -0.241    -0.086    -0.080  0.3914  0.8182  0.4211
              Bcc     0.0043     0.576     0.205     0.192  0.1677 -0.5134  0.8416
 
              Baa    -0.0139    -6.971    -2.487    -2.325  0.7695  0.4397 -0.4632
     9 F(19)  Bbb    -0.0088    -4.435    -1.583    -1.479 -0.1034  0.8015  0.5890
              Bcc     0.0227    11.406     4.070     3.805  0.6303 -0.4053  0.6622
 
              Baa    -0.0026    -1.296    -0.462    -0.432 -0.6755  0.6948 -0.2469
    10 F(19)  Bbb    -0.0014    -0.698    -0.249    -0.233  0.5211  0.6867  0.5069
              Bcc     0.0040     1.994     0.712     0.665 -0.5217 -0.2137  0.8259
 
              Baa    -0.0019    -0.254    -0.091    -0.085  0.0421  0.6716  0.7397
    11 C(13)  Bbb    -0.0010    -0.132    -0.047    -0.044  0.9578  0.1834 -0.2211
              Bcc     0.0029     0.386     0.138     0.129 -0.2842  0.7178 -0.6356
 
              Baa    -0.0060    -3.001    -1.071    -1.001 -0.2462  0.1992  0.9485
    12 F(19)  Bbb    -0.0053    -2.644    -0.943    -0.882  0.9022  0.4047  0.1492
              Bcc     0.0112     5.645     2.014     1.883 -0.3542  0.8925 -0.2793
 
              Baa    -0.0012     0.090     0.032     0.030  0.6831  0.4631  0.5646
    13 O(17)  Bbb    -0.0007     0.052     0.019     0.017  0.7297 -0.4022 -0.5529
              Bcc     0.0020    -0.142    -0.051    -0.047 -0.0290  0.7897 -0.6128
 
              Baa    -0.0007    -0.090    -0.032    -0.030  0.0365  0.3428  0.9387
    14 C(13)  Bbb    -0.0005    -0.071    -0.026    -0.024  0.9945  0.0795 -0.0677
              Bcc     0.0012     0.161     0.058     0.054 -0.0978  0.9360 -0.3381
 
              Baa    -0.0006    -0.279    -0.100    -0.093  0.0779  0.2869  0.9548
    15 F(19)  Bbb    -0.0004    -0.219    -0.078    -0.073  0.9957 -0.0699 -0.0603
              Bcc     0.0010     0.498     0.178     0.166  0.0494  0.9554 -0.2912
 
              Baa    -0.0004    -0.200    -0.071    -0.067  0.0415  0.4570  0.8885
    16 F(19)  Bbb    -0.0003    -0.170    -0.061    -0.057  0.9826  0.1425 -0.1192
              Bcc     0.0007     0.370     0.132     0.123 -0.1811  0.8780 -0.4432
 
              Baa    -0.0007    -0.342    -0.122    -0.114  0.2031  0.1791  0.9627
    17 F(19)  Bbb    -0.0005    -0.239    -0.085    -0.080  0.9619  0.1472 -0.2303
              Bcc     0.0012     0.582     0.208     0.194 -0.1830  0.9728 -0.1423
 
              Baa    -0.0007    -0.097    -0.035    -0.032  0.8356  0.5235  0.1666
    18 C(13)  Bbb    -0.0006    -0.082    -0.029    -0.027 -0.3875  0.3467  0.8542
              Bcc     0.0013     0.179     0.064     0.060 -0.3894  0.7783 -0.4926
 
              Baa    -0.0005    -0.268    -0.096    -0.089  0.3918  0.7255  0.5659
    19 F(19)  Bbb    -0.0004    -0.219    -0.078    -0.073  0.8401 -0.0313 -0.5415
              Bcc     0.0010     0.487     0.174     0.163 -0.3751  0.6875 -0.6218
 
              Baa    -0.0006    -0.289    -0.103    -0.096 -0.5598  0.2120  0.8010
    20 F(19)  Bbb    -0.0003    -0.171    -0.061    -0.057  0.6833  0.6649  0.3015
              Bcc     0.0009     0.460     0.164     0.153 -0.4687  0.7162 -0.5171
 
              Baa    -0.0009    -0.456    -0.163    -0.152  0.7374  0.5254 -0.4245
    21 F(19)  Bbb    -0.0006    -0.304    -0.108    -0.101  0.0993  0.5373  0.8375
              Bcc     0.0015     0.759     0.271     0.253  0.6681 -0.6597  0.3441
 
              Baa    -0.0056    -0.753    -0.269    -0.251  0.9279 -0.2965 -0.2259
    22 C(13)  Bbb    -0.0001    -0.016    -0.006    -0.005  0.3723  0.7093  0.5985
              Bcc     0.0057     0.769     0.274     0.256 -0.0173 -0.6395  0.7686
 
              Baa    -0.0310     2.245     0.801     0.749  0.0085  0.6097  0.7926
    23 O(17)  Bbb     0.0129    -0.931    -0.332    -0.311  0.9938 -0.0929  0.0608
              Bcc     0.0182    -1.314    -0.469    -0.438  0.1107  0.7871 -0.6068
 
              Baa    -0.0533    -2.056    -0.734    -0.686  0.3189  0.8064  0.4979
    24 N(14)  Bbb     0.0228     0.881     0.314     0.294  0.8240 -0.4955  0.2748
              Bcc     0.0305     1.175     0.419     0.392 -0.4683 -0.3227  0.8225
 
              Baa    -0.0028    -0.378    -0.135    -0.126  0.9650 -0.2599  0.0352
    25 C(13)  Bbb    -0.0015    -0.205    -0.073    -0.068  0.2097  0.8451  0.4918
              Bcc     0.0043     0.583     0.208     0.195 -0.1576 -0.4672  0.8700
 
              Baa    -0.0014    -0.718    -0.256    -0.239  0.8265  0.5578 -0.0766
    26 F(19)  Bbb    -0.0008    -0.390    -0.139    -0.130 -0.4581  0.7453  0.4843
              Bcc     0.0022     1.108     0.395     0.370  0.3272 -0.3652  0.8715
 
              Baa    -0.0127    -6.382    -2.277    -2.129 -0.3872  0.9108 -0.1431
    27 F(19)  Bbb    -0.0054    -2.690    -0.960    -0.897  0.6105  0.3696  0.7005
              Bcc     0.0181     9.072     3.237     3.026 -0.6909 -0.1839  0.6991
 
              Baa    -0.0022    -0.299    -0.107    -0.100  0.3572  0.6416  0.6788
    28 C(13)  Bbb    -0.0010    -0.134    -0.048    -0.045  0.8063 -0.5787  0.1226
              Bcc     0.0032     0.433     0.154     0.144 -0.4715 -0.5035  0.7240
 
              Baa    -0.0118    -5.914    -2.110    -1.973  0.4086 -0.0771  0.9094
    29 F(19)  Bbb    -0.0110    -5.512    -1.967    -1.839  0.7411 -0.5536 -0.3799
              Bcc     0.0228    11.426     4.077     3.811  0.5328  0.8292 -0.1691
 
              Baa    -0.0018     0.128     0.046     0.043  0.8180 -0.4588  0.3470
    30 O(17)  Bbb     0.0005    -0.033    -0.012    -0.011 -0.1152  0.4605  0.8802
              Bcc     0.0013    -0.095    -0.034    -0.032  0.5636  0.7600 -0.3238
 
              Baa    -0.0005    -0.071    -0.025    -0.024  0.6540  0.1777  0.7353
    31 C(13)  Bbb    -0.0005    -0.065    -0.023    -0.022 -0.3766  0.9195  0.1127
              Bcc     0.0010     0.136     0.049     0.045 -0.6561 -0.3506  0.6683
 
              Baa    -0.0004    -0.181    -0.065    -0.060  0.2307  0.7149  0.6601
    32 F(19)  Bbb    -0.0003    -0.159    -0.057    -0.053 -0.5996  0.6388 -0.4822
              Bcc     0.0007     0.340     0.121     0.113  0.7663  0.2845 -0.5760
 
              Baa    -0.0004    -0.186    -0.066    -0.062  0.6775  0.0793  0.7312
    33 F(19)  Bbb    -0.0003    -0.167    -0.060    -0.056 -0.4026  0.8720  0.2785
              Bcc     0.0007     0.353     0.126     0.118 -0.6155 -0.4831  0.6227
 
              Baa    -0.0005    -0.270    -0.096    -0.090 -0.5433  0.8382 -0.0473
    34 F(19)  Bbb    -0.0004    -0.200    -0.071    -0.067  0.6736  0.4688  0.5714
              Bcc     0.0009     0.470     0.168     0.157 -0.5011 -0.2786  0.8193
 
              Baa    -0.0009    -0.122    -0.044    -0.041  0.5111  0.3680  0.7768
    35 C(13)  Bbb    -0.0007    -0.092    -0.033    -0.031  0.7567 -0.6212 -0.2036
              Bcc     0.0016     0.214     0.076     0.071  0.4076  0.6919 -0.5959
 
              Baa    -0.0007    -0.350    -0.125    -0.117  0.7211  0.2957  0.6265
    36 F(19)  Bbb    -0.0005    -0.232    -0.083    -0.077  0.6376 -0.6370 -0.4332
              Bcc     0.0012     0.582     0.208     0.194  0.2710  0.7119 -0.6479
 
              Baa    -0.0011    -0.545    -0.194    -0.182 -0.5685  0.6636  0.4863
    37 F(19)  Bbb    -0.0005    -0.248    -0.089    -0.083  0.6956  0.0721  0.7148
              Bcc     0.0016     0.793     0.283     0.265  0.4393  0.7446 -0.5025
 
              Baa    -0.0006    -0.289    -0.103    -0.096 -0.0077  0.5352  0.8447
    38 F(19)  Bbb    -0.0004    -0.217    -0.077    -0.072  0.8767 -0.4026  0.2631
              Bcc     0.0010     0.506     0.181     0.169  0.4809  0.7426 -0.4661
 

 ---------------------------------------------------------------------------------

 No NMR shielding tensors so no spin-rotation constants.
 Leave Link  601 at Sun Mar  3 18:28:21 2024, MaxMem=  5368709120 cpu:         6.8
 (Enter /home/k0335/k033513/app/g09/l9999.exe)
 1\1\GINC-C18U03N3\SP\UCAM-B3LYP\6-31G(d,p)\C11Cl1F18N3O5(1+,2)\K033513
 \03-Mar-2024\0\\#p CAM-B3LYP/6-31G(d,p) SCRF=(PCM,Solvent=Generic,Read
 ) NoSymm out=wfn\\Title A1374950790_p1\\1,2\O,0,1.722965,-2.919805,1.3
 60704\C,0,0.696289,-2.370875,0.963497\N,0,-0.479737,-2.366097,1.690946
 \Cl,0,-0.473723,-3.156935,3.250431\C,0,-1.627003,-1.691081,1.317076\O,
 0,-2.602902,-1.575847,2.056618\N,0,-1.592394,-1.112682,0.066163\C,0,-2
 .758316,-0.33062,-0.336637\F,0,-3.877486,-1.059487,-0.065241\F,0,-2.76
 6544,-0.24061,-1.698016\C,0,-2.86322,1.085454,0.289812\F,0,-3.036737,0
 .967199,1.638159\O,0,-1.613428,1.766443,0.134837\C,0,-1.685172,3.13518
 7,0.437973\F,0,-0.433236,3.603382,0.590705\F,0,-2.270818,3.785502,-0.5
 79171\F,0,-2.365595,3.340078,1.575619\C,0,-4.106985,1.721971,-0.34642\
 F,0,-3.932881,1.954515,-1.666602\F,0,-4.400533,2.915741,0.222826\F,0,-
 5.213092,0.958733,-0.21304\C,0,-0.410751,-0.899687,-0.60224\O,0,-0.294
 479,-0.027854,-1.458138\N,0,0.656437,-1.681847,-0.233382\C,0,1.906777,
 -1.559255,-0.976025\F,0,1.636973,-1.288882,-2.280971\F,0,2.465376,-2.8
 10791,-1.037682\C,0,2.980968,-0.579781,-0.414337\F,0,2.941401,-0.64955
 3,0.963607\O,0,4.334967,-0.964459,-0.700289\C,0,4.733985,-0.753061,-2.
 029459\F,0,5.935511,-1.32637,-2.216327\F,0,4.839636,0.562174,-2.268388
 \F,0,3.856029,-1.299913,-2.878631\C,0,2.610493,0.859695,-0.76754\F,0,2
 .442195,1.054347,-2.088806\F,0,1.471957,1.235525,-0.137651\F,0,3.57307
 3,1.719548,-0.352626\\Version=ES64L-G09RevD.01\HF=-3215.7142845\S2=0.7
 82609\S2-1=0.\S2A=0.750667\RMSD=5.252e-09\Dipole=-0.806086,-4.3935912,
 3.6209046\Quadrupole=-12.8467154,9.5713339,3.2753815,4.9669308,-4.6016
 612,-17.1506334\PG=C01 [X(C11Cl1F18N3O5)]\\@

 Writing a WFN file to "A1374950790/A1374950790_p1.wfn"


 THAT'S WHAT MAKES US A GREAT COUNTRY.
 THE LITTLE THINGS ARE SERIOUS AND THE BIG ONES ARE NOT.
           WILL ROGERS
 Job cpu time:       0 days  0 hours 53 minutes 52.2 seconds.
 File lengths (MBytes):  RWF=    483 Int=      0 D2E=      0 Chk=     17 Scr=      1
 Normal termination of Gaussian 09 at Sun Mar  3 18:28:21 2024.
