 Entering Gaussian System, Link 0=g09
 Initial command:
 /home/k0335/k033513/app/g09/l1.exe "/home/k0335/k033513/app/g09/scratch/Gau-3711201.inp" -scrdir="/home/k0335/k033513/app/g09/scratch/"
 Default is to use a total of  36 processors:
                               36 via shared-memory
                                1 via Linda
 Entering Link 1 = /home/k0335/k033513/app/g09/l1.exe PID=   3711202.
  
 Copyright (c) 1988,1990,1992,1993,1995,1998,2003,2009,2013,
            Gaussian, Inc.  All Rights Reserved.
  
 This is part of the Gaussian(R) 09 program.  It is based on
 the Gaussian(R) 03 system (copyright 2003, Gaussian, Inc.),
 the Gaussian(R) 98 system (copyright 1998, Gaussian, Inc.),
 the Gaussian(R) 94 system (copyright 1995, Gaussian, Inc.),
 the Gaussian 92(TM) system (copyright 1992, Gaussian, Inc.),
 the Gaussian 90(TM) system (copyright 1990, Gaussian, Inc.),
 the Gaussian 88(TM) system (copyright 1988, Gaussian, Inc.),
 the Gaussian 86(TM) system (copyright 1986, Carnegie Mellon
 University), and the Gaussian 82(TM) system (copyright 1983,
 Carnegie Mellon University). Gaussian is a federally registered
 trademark of Gaussian, Inc.
  
 This software contains proprietary and confidential information,
 including trade secrets, belonging to Gaussian, Inc.
  
 This software is provided under written license and may be
 used, copied, transmitted, or stored only in accord with that
 written license.
  
 The following legend is applicable only to US Government
 contracts under FAR:
  
                    RESTRICTED RIGHTS LEGEND
  
 Use, reproduction and disclosure by the US Government is
 subject to restrictions as set forth in subparagraphs (a)
 and (c) of the Commercial Computer Software - Restricted
 Rights clause in FAR 52.227-19.
  
 Gaussian, Inc.
 340 Quinnipiac St., Bldg. 40, Wallingford CT 06492
  
  
 ---------------------------------------------------------------
 Warning -- This program may not be used in any manner that
 competes with the business of Gaussian, Inc. or will provide
 assistance to any competitor of Gaussian, Inc.  The licensee
 of this program is prohibited from giving any competitor of
 Gaussian, Inc. access to this program.  By using this program,
 the user acknowledges that Gaussian, Inc. is engaged in the
 business of creating and licensing software in the field of
 computational chemistry and represents and warrants to the
 licensee that it is not a competitor of Gaussian, Inc. and that
 it will not use this program in any manner prohibited above.
 ---------------------------------------------------------------
  

 Cite this work as:
 Gaussian 09, Revision D.01,
 M. J. Frisch, G. W. Trucks, H. B. Schlegel, G. E. Scuseria, 
 M. A. Robb, J. R. Cheeseman, G. Scalmani, V. Barone, B. Mennucci, 
 G. A. Petersson, H. Nakatsuji, M. Caricato, X. Li, H. P. Hratchian, 
 A. F. Izmaylov, J. Bloino, G. Zheng, J. L. Sonnenberg, M. Hada, 
 M. Ehara, K. Toyota, R. Fukuda, J. Hasegawa, M. Ishida, T. Nakajima, 
 Y. Honda, O. Kitao, H. Nakai, T. Vreven, J. A. Montgomery, Jr., 
 J. E. Peralta, F. Ogliaro, M. Bearpark, J. J. Heyd, E. Brothers, 
 K. N. Kudin, V. N. Staroverov, T. Keith, R. Kobayashi, J. Normand, 
 K. Raghavachari, A. Rendell, J. C. Burant, S. S. Iyengar, J. Tomasi, 
 M. Cossi, N. Rega, J. M. Millam, M. Klene, J. E. Knox, J. B. Cross, 
 V. Bakken, C. Adamo, J. Jaramillo, R. Gomperts, R. E. Stratmann, 
 O. Yazyev, A. J. Austin, R. Cammi, C. Pomelli, J. W. Ochterski, 
 R. L. Martin, K. Morokuma, V. G. Zakrzewski, G. A. Voth, 
 P. Salvador, J. J. Dannenberg, S. Dapprich, A. D. Daniels, 
 O. Farkas, J. B. Foresman, J. V. Ortiz, J. Cioslowski, 
 and D. J. Fox, Gaussian, Inc., Wallingford CT, 2013.
 
 ******************************************
 Gaussian 09:  ES64L-G09RevD.01 24-Apr-2013
                 2-Feb-2025 
 ******************************************
 %nprocshared=24
 Will use up to   24 processors via shared memory.
 %mem=40GB
 %rwf=opt/FFKM0/FFKM0_neu.rwf
 %nosave
 %chk=opt/FFKM0/FFKM0_neu.chk
 ----------------------------------------------------------------------
 #p CAM-B3LYP/6-31G(d,p) SCRF=(PCM,Solvent=Generic,Read) NoSymm out=wfn
 ----------------------------------------------------------------------
 1/38=1,40=2/1;
 2/12=2,15=1,17=6,18=5,40=1/2;
 3/5=1,6=6,7=101,11=2,16=1,25=1,30=1,70=2203,72=-2,74=-40/1,2,3;
 4//1;
 5/5=2,38=5/2;
 6/7=2,8=2,9=2,10=2,28=1/1;
 99/5=1,6=100,9=1/99;
 Leave Link    1 at Sun Feb  2 23:12:10 2025, MaxMem=  5368709120 cpu:         2.0
 (Enter /home/k0335/k033513/app/g09/l101.exe)
 ---------------
 Title FFKM0_neu
 ---------------
 Symbolic Z-matrix:
 Charge =  0 Multiplicity = 1
 F                     2.36154  -0.21335   2.07963 
 C                     2.43984  -0.74474   0.87213 
 F                     3.49383  -0.26255   0.24493 
 F                     2.50789  -2.05117   0.94423 
 O                     1.27285  -0.46252   0.13772 
 C                     0.76805   0.78982   0.15435 
 F                     1.67869   1.73615  -0.07422 
 F                     0.10626   1.09089   1.26694 
 C                    -0.23804   0.89312  -1.04217 
 F                     0.27086   0.68664  -2.20431 
 F                    -1.05263   1.88282  -0.98893 
 C                    -1.48759  -0.67536  -0.98935 
 F                    -0.72339  -1.65932  -1.29025 
 F                    -2.2798   -0.31284  -1.93604 
 C                    -2.14338  -0.72439   0.43563 
 F                    -3.18865  -1.51982   0.31924 
 F                    -2.51735   0.48861   0.78712 
 F                    -1.26898  -1.22134   1.28336 
 
 NAtoms=     18 NQM=       18 NQMF=       0 NMMI=      0 NMMIF=      0
                NMic=       0 NMicF=      0.
                    Isotopes and Nuclear Properties:
 (Nuclear quadrupole moments (NQMom) in fm**2, nuclear magnetic moments (NMagM)
  in nuclear magnetons)

  Atom         1           2           3           4           5           6           7           8           9          10
 IAtWgt=          19          12          19          19          16          12          19          19          12          19
 AtmWgt=  18.9984033  12.0000000  18.9984033  18.9984033  15.9949146  12.0000000  18.9984033  18.9984033  12.0000000  18.9984033
 NucSpn=           1           0           1           1           0           0           1           1           0           1
 AtZEff=   0.0000000   0.0000000   0.0000000   0.0000000   0.0000000   0.0000000   0.0000000   0.0000000   0.0000000   0.0000000
 NQMom=    0.0000000   0.0000000   0.0000000   0.0000000   0.0000000   0.0000000   0.0000000   0.0000000   0.0000000   0.0000000
 NMagM=    2.6288670   0.0000000   2.6288670   2.6288670   0.0000000   0.0000000   2.6288670   2.6288670   0.0000000   2.6288670
 AtZNuc=   9.0000000   6.0000000   9.0000000   9.0000000   8.0000000   6.0000000   9.0000000   9.0000000   6.0000000   9.0000000

  Atom        11          12          13          14          15          16          17          18
 IAtWgt=          19          12          19          19          12          19          19          19
 AtmWgt=  18.9984033  12.0000000  18.9984033  18.9984033  12.0000000  18.9984033  18.9984033  18.9984033
 NucSpn=           1           0           1           1           0           1           1           1
 AtZEff=   0.0000000   0.0000000   0.0000000   0.0000000   0.0000000   0.0000000   0.0000000   0.0000000
 NQMom=    0.0000000   0.0000000   0.0000000   0.0000000   0.0000000   0.0000000   0.0000000   0.0000000
 NMagM=    2.6288670   0.0000000   2.6288670   2.6288670   0.0000000   2.6288670   2.6288670   2.6288670
 AtZNuc=   9.0000000   6.0000000   9.0000000   9.0000000   6.0000000   9.0000000   9.0000000   9.0000000
 Leave Link  101 at Sun Feb  2 23:12:10 2025, MaxMem=  5368709120 cpu:         0.6
 (Enter /home/k0335/k033513/app/g09/l202.exe)
                          Input orientation:                          
 ---------------------------------------------------------------------
 Center     Atomic      Atomic             Coordinates (Angstroms)
 Number     Number       Type             X           Y           Z
 ---------------------------------------------------------------------
      1          9           0        2.361540   -0.213350    2.079630
      2          6           0        2.439840   -0.744740    0.872130
      3          9           0        3.493830   -0.262550    0.244930
      4          9           0        2.507890   -2.051170    0.944230
      5          8           0        1.272850   -0.462520    0.137720
      6          6           0        0.768050    0.789820    0.154350
      7          9           0        1.678690    1.736150   -0.074220
      8          9           0        0.106260    1.090890    1.266940
      9          6           0       -0.238040    0.893120   -1.042170
     10          9           0        0.270860    0.686640   -2.204310
     11          9           0       -1.052630    1.882820   -0.988930
     12          6           0       -1.487590   -0.675360   -0.989350
     13          9           0       -0.723390   -1.659320   -1.290250
     14          9           0       -2.279800   -0.312840   -1.936040
     15          6           0       -2.143380   -0.724390    0.435630
     16          9           0       -3.188650   -1.519820    0.319240
     17          9           0       -2.517350    0.488610    0.787120
     18          9           0       -1.268980   -1.221340    1.283360
 ---------------------------------------------------------------------
                    Distance matrix (angstroms):
                    1          2          3          4          5
     1  F    0.000000
     2  C    1.321576   0.000000
     3  F    2.156531   1.317870   0.000000
     4  F    2.165210   1.310186   2.158763   0.000000
     5  O    2.240167   1.407434   2.232540   2.167854   0.000000
     6  C    2.693003   2.380119   2.923280   3.423767   1.350354
     7  F    2.984276   2.762199   2.718711   4.008567   2.245835
     8  F    2.729065   2.995164   3.788395   3.967935   2.247032
     9  C    4.210431   3.676707   4.113278   4.489405   2.347912
    10  F    4.851089   4.027134   4.157797   4.734259   2.794576
    11  F    5.046439   4.750259   5.176420   5.647184   3.489673
    12  C    4.944481   4.346795   5.148631   4.647090   2.989250
    13  F    4.792047   3.939336   4.700286   3.948116   2.730641
    14  F    6.138203   5.508844   6.172031   5.851472   4.116334
    15  C    4.822676   4.604004   5.659311   4.863469   3.439179
    16  F    5.967449   5.708444   6.800132   5.755303   4.588662
    17  F    5.095773   5.109023   6.082146   5.632779   3.961311
    18  F    3.851073   3.761862   4.968096   3.881800   2.889498
                    6          7          8          9         10
     6  C    0.000000
     7  F    1.333060   0.000000
     8  F    1.329085   2.165088   0.000000
     9  C    1.566700   2.306833   2.342999   0.000000
    10  F    2.412700   2.760569   3.498584   1.285373   0.000000
    11  F    2.411766   2.884149   2.656902   1.282925   2.158616
    12  C    2.922792   4.083892   3.278848   2.006064   2.534427
    13  F    3.210849   4.333351   3.845932   2.609992   2.706948
    14  F    3.856809   4.830567   4.233535   2.534192   2.752598
    15  C    3.293687   4.574104   3.007856   2.903541   3.845627
    16  F    4.584441   5.869169   4.309336   4.047446   4.817155
    17  F    3.359312   4.461504   2.734282   2.950455   4.094140
    18  F    3.077161   4.390732   2.690346   3.307849   4.263254
                   11         12         13         14         15
    11  F    0.000000
    12  C    2.594894   0.000000
    13  F    3.570147   1.281686   0.000000
    14  F    2.687729   1.286561   2.156957   0.000000
    15  C    3.164909   1.569405   2.422628   2.410975   0.000000
    16  F    4.225145   2.306323   2.947444   2.714608   1.318653
    17  F    2.691390   2.360313   3.485307   2.848570   1.317106
    18  F    3.853040   2.347572   2.667014   3.494519   1.315363
                   16         17         18
    16  F    0.000000
    17  F    2.168720   0.000000
    18  F    2.168813   2.174537   0.000000
 Symmetry turned off by external request.
 Stoichiometry    C5F12O
 Framework group  C1[X(C5F12O)]
 Deg. of freedom    48
 Full point group                 C1      NOp   1
 Rotational constants (GHZ):      0.6552918      0.3306847      0.2962630
 Leave Link  202 at Sun Feb  2 23:12:10 2025, MaxMem=  5368709120 cpu:         0.0
 (Enter /home/k0335/k033513/app/g09/l301.exe)
 Standard basis: 6-31G(d,p) (6D, 7F)
 Ernie: Thresh=  0.10000D-02 Tol=  0.10000D-05 Strict=F.
   270 basis functions,   504 primitive gaussians,   270 cartesian basis functions
    73 alpha electrons       73 beta electrons
       nuclear repulsion energy      1791.5580124630 Hartrees.
 IExCor=20419 DFT=T Ex+Corr=CAM-B3LYP ExCW=0 ScaHFX=  1.000000
 ScaDFX=  1.000000  1.000000  1.000000  0.810000 ScalE2=  1.000000  1.000000
 IRadAn=      0 IRanWt=     -1 IRanGd=            0 ICorTp=0 IEmpDi=  4
  HFx wShort=  0.000000 wLong=  0.330000 cFull=  0.190000 cShort=  0.000000 cLong=  0.460000
  DFx wShort=  0.000000 wLong=  0.330000 cFull=  0.190000 cShort=  0.000000 cLong=  0.460000
 NAtoms=   18 NActive=   18 NUniq=   18 SFac= 1.00D+00 NAtFMM=   60 NAOKFM=F Big=F
 Integral buffers will be    131072 words long.
 Raffenetti 2 integral format.
 Two-electron integral symmetry is turned off.
 Using the following non-standard input for PCM:
 eps=4.9
 --- end of non-standard input.
 ------------------------------------------------------------------------------
 Polarizable Continuum Model (PCM)
 =================================
 Model                : PCM (using non-symmetric T matrix).
 Atomic radii         : UFF (Universal Force Field).
 Polarization charges : Total charges.
 Charge compensation  : None.
 Solution method      : On-the-fly selection.
 Cavity type          : Scaled VdW (van der Waals Surface) (Alpha=1.100).
 Cavity algorithm     : GePol (No added spheres)
                        Default sphere list used, NSphG=   18.
                        Lebedev-Laikov grids with approx.  5.0 points / Ang**2.
                        Smoothing algorithm: Karplus/York (Gamma=1.0000).
                        Polarization charges: spherical gaussians, with
                                              point-specific exponents (IZeta= 3).
                        Self-potential: point-specific (ISelfS= 7).
                        Self-field    : sphere-specific E.n sum rule (ISelfD= 2).
 Solvent              : Generic,
                        Eps                           =   4.900000
                        Eps(infinity)                 =   0.000000
                        RSolv                         =   0.000000 Ang.
                        Molar volume                  =   0.000000 cm**3/mol
                        Thermal expansion coefficient =   0.000000 K**-1
                        Absolute temperature          = 298.150000 K
                        Numeral density               =   0.000000 Ang**-3
                        Hydrogen bond acidity         =   0.000000
                        Hydrogen bond basicity        =   0.000000
                        Surface tension at interface  =   0.000000 (cal/mol)*Ang**-2
                        Carbon aromaticity            =   0.000000
                        Electronegative halogenicity  =   0.000000
 ------------------------------------------------------------------------------
 Spheres list:
 ISph  on   Nord     Re0    Alpha      Xe            Ye            Ze
    1   F      1    1.6820  1.100      2.361540     -0.213350      2.079630
    2   C      2    1.9255  1.100      2.439840     -0.744740      0.872130
    3   F      3    1.6820  1.100      3.493830     -0.262550      0.244930
    4   F      4    1.6820  1.100      2.507890     -2.051170      0.944230
    5   O      5    1.7500  1.100      1.272850     -0.462520      0.137720
    6   C      6    1.9255  1.100      0.768050      0.789820      0.154350
    7   F      7    1.6820  1.100      1.678690      1.736150     -0.074220
    8   F      8    1.6820  1.100      0.106260      1.090890      1.266940
    9   C      9    1.9255  1.100     -0.238040      0.893120     -1.042170
   10   F     10    1.6820  1.100      0.270860      0.686640     -2.204310
   11   F     11    1.6820  1.100     -1.052630      1.882820     -0.988930
   12   C     12    1.9255  1.100     -1.487590     -0.675360     -0.989350
   13   F     13    1.6820  1.100     -0.723390     -1.659320     -1.290250
   14   F     14    1.6820  1.100     -2.279800     -0.312840     -1.936040
   15   C     15    1.9255  1.100     -2.143380     -0.724390      0.435630
   16   F     16    1.6820  1.100     -3.188650     -1.519820      0.319240
   17   F     17    1.6820  1.100     -2.517350      0.488610      0.787120
   18   F     18    1.6820  1.100     -1.268980     -1.221340      1.283360
 ------------------------------------------------------------------------------
 GePol: Number of generator spheres                  =      18
 GePol: Total number of spheres                      =      18
 GePol: Number of exposed spheres                    =      18 (100.00%)
 GePol: Number of points                             =    1879
 GePol: Average weight of points                     =       0.13
 GePol: Minimum weight of points                     =   0.60D-08
 GePol: Maximum weight of points                     =    0.20299
 GePol: Number of points with low weight             =      53
 GePol: Fraction of low-weight points (<1% of avg)   =       2.82%
 GePol: Cavity surface area                          =    235.988 Ang**2
 GePol: Cavity volume                                =    244.450 Ang**3
 Leave Link  301 at Sun Feb  2 23:12:10 2025, MaxMem=  5368709120 cpu:         0.6
 (Enter /home/k0335/k033513/app/g09/l302.exe)
 NPDir=0 NMtPBC=     1 NCelOv=     1 NCel=       1 NClECP=     1 NCelD=      1
         NCelK=      1 NCelE2=     1 NClLst=     1 CellRange=     0.0.
 One-electron integrals computed using PRISM.
 NBasis=   270 RedAO= T EigKep=  1.44D-03  NBF=   270
 NBsUse=   270 1.00D-06 EigRej= -1.00D+00 NBFU=   270
 Precomputing XC quadrature grid using
 IXCGrd= 4 IRadAn=           0 IRanWt=          -1 IRanGd=           0 AccXCQ= 0.00D+00.
 Generated NRdTot=       0 NPtTot=           0 NUsed=           0 NTot=          32
 NSgBfM=   267   267   267   267   267 MxSgAt=    18 MxSgA2=    18.
 Leave Link  302 at Sun Feb  2 23:12:10 2025, MaxMem=  5368709120 cpu:         3.1
 (Enter /home/k0335/k033513/app/g09/l303.exe)
 DipDrv:  MaxL=1.
 Leave Link  303 at Sun Feb  2 23:12:10 2025, MaxMem=  5368709120 cpu:         0.3
 (Enter /home/k0335/k033513/app/g09/l401.exe)
 ExpMin= 1.69D-01 ExpMax= 7.00D+03 ExpMxC= 1.05D+03 IAcc=1 IRadAn=         1 AccDes= 0.00D+00
 Harris functional with IExCor=20419 and IRadAn=       1 diagonalized for initial guess.
 HarFok:  IExCor=20419 AccDes= 0.00D+00 IRadAn=         1 IDoV= 1 UseB2=F ITyADJ=14
 ICtDFT=  3500011 ScaDFX=  1.000000  1.000000  1.000000  1.000000
 FoFCou: FMM=F IPFlag=           0 FMFlag=      100000 FMFlg1=           0
         NFxFlg=           0 DoJE=T BraDBF=F KetDBF=T FulRan=T
         wScrn=  0.000000 ICntrl=     500 IOpCl=  0 I1Cent=   200000004 NGrid=           0
         NMat0=    1 NMatS0=      1 NMatT0=    0 NMatD0=    1 NMtDS0=    0 NMtDT0=    0
 Symmetry not used in FoFCou.
 Harris En= -1421.48967146021    
 JPrj=0 DoOrth=F DoCkMO=F.
 Leave Link  401 at Sun Feb  2 23:12:11 2025, MaxMem=  5368709120 cpu:         3.7
 (Enter /home/k0335/k033513/app/g09/l502.exe)
 Closed shell SCF:
 Using DIIS extrapolation, IDIIS=  1040.
 Two-electron integral symmetry not used.
 Keep R1 ints in memory in canonical form, NReq=1348695316.
 IVT=      245386 IEndB=      245386 NGot=  5368709120 MDV=  4029964925
 LenX=  4029964925 LenY=  4029891584
 Requested convergence on RMS density matrix=1.00D-08 within 128 cycles.
 Requested convergence on MAX density matrix=1.00D-06.
 Requested convergence on             energy=1.00D-06.
 No special actions if energy rises.
 FoFCou: FMM=F IPFlag=           0 FMFlag=           0 FMFlg1=           0
         NFxFlg=           0 DoJE=F BraDBF=F KetDBF=F FulRan=T
         wScrn=  0.000000 ICntrl=     600 IOpCl=  0 I1Cent=           0 NGrid=           0
         NMat0=    1 NMatS0=  36585 NMatT0=    0 NMatD0=    1 NMtDS0=    0 NMtDT0=    0
 Symmetry not used in FoFCou.

 Cycle   1  Pass 1  IDiag  1:
 Inv3:  Mode=1 IEnd=    10591923.
 Iteration    1 A*A^-1 deviation from unit magnitude is 3.55D-15 for   1878.
 Iteration    1 A*A^-1 deviation from orthogonality  is 3.93D-15 for   1855   1532.
 Iteration    1 A^-1*A deviation from unit magnitude is 3.66D-15 for   1864.
 Iteration    1 A^-1*A deviation from orthogonality  is 6.27D-15 for   1879   1847.
 E= -1462.95031023775    
 DIIS: error= 5.19D-02 at cycle   1 NSaved=   1.
 NSaved= 1 IEnMin= 1 EnMin= -1462.95031023775     IErMin= 1 ErrMin= 5.19D-02
 ErrMax= 5.19D-02  0.00D+00 EMaxC= 1.00D-01 BMatC= 1.18D+00 BMatP= 1.18D+00
 IDIUse=3 WtCom= 4.81D-01 WtEn= 5.19D-01
 Coeff-Com:  0.100D+01
 Coeff-En:   0.100D+01
 Coeff:      0.100D+01
 Gap=     0.396 Goal=   None    Shift=    0.000
 GapD=    0.396 DampG=1.000 DampE=0.500 DampFc=0.5000 IDamp=-1.
 Damping current iteration by 5.00D-01
 RMSDP=4.15D-03 MaxDP=8.34D-02              OVMax= 9.23D-02

 Cycle   2  Pass 1  IDiag  1:
 E= -1463.18493351560     Delta-E=       -0.234623277841 Rises=F Damp=T
 DIIS: error= 2.54D-02 at cycle   2 NSaved=   2.
 NSaved= 2 IEnMin= 2 EnMin= -1463.18493351560     IErMin= 2 ErrMin= 2.54D-02
 ErrMax= 2.54D-02  0.00D+00 EMaxC= 1.00D-01 BMatC= 1.31D-01 BMatP= 1.18D+00
 IDIUse=3 WtCom= 7.46D-01 WtEn= 2.54D-01
 Coeff-Com: -0.254D+00 0.125D+01
 Coeff-En:   0.000D+00 0.100D+01
 Coeff:     -0.190D+00 0.119D+01
 Gap=     0.385 Goal=   None    Shift=    0.000
 RMSDP=1.18D-03 MaxDP=2.78D-02 DE=-2.35D-01 OVMax= 5.66D-02

 Cycle   3  Pass 1  IDiag  1:
 E= -1463.37801666952     Delta-E=       -0.193083153922 Rises=F Damp=F
 DIIS: error= 6.36D-03 at cycle   3 NSaved=   3.
 NSaved= 3 IEnMin= 3 EnMin= -1463.37801666952     IErMin= 3 ErrMin= 6.36D-03
 ErrMax= 6.36D-03  0.00D+00 EMaxC= 1.00D-01 BMatC= 3.55D-02 BMatP= 1.31D-01
 IDIUse=3 WtCom= 9.36D-01 WtEn= 6.36D-02
 Coeff-Com: -0.164D+00 0.497D+00 0.667D+00
 Coeff-En:   0.000D+00 0.000D+00 0.100D+01
 Coeff:     -0.154D+00 0.465D+00 0.688D+00
 Gap=     0.387 Goal=   None    Shift=    0.000
 RMSDP=5.98D-04 MaxDP=1.70D-02 DE=-1.93D-01 OVMax= 2.37D-02

 Cycle   4  Pass 1  IDiag  1:
 E= -1463.39871221341     Delta-E=       -0.020695543890 Rises=F Damp=F
 DIIS: error= 1.92D-03 at cycle   4 NSaved=   4.
 NSaved= 4 IEnMin= 4 EnMin= -1463.39871221341     IErMin= 4 ErrMin= 1.92D-03
 ErrMax= 1.92D-03  0.00D+00 EMaxC= 1.00D-01 BMatC= 3.35D-03 BMatP= 3.55D-02
 IDIUse=3 WtCom= 9.81D-01 WtEn= 1.92D-02
 Coeff-Com: -0.315D-01 0.665D-01 0.282D+00 0.683D+00
 Coeff-En:   0.000D+00 0.000D+00 0.160D-01 0.984D+00
 Coeff:     -0.309D-01 0.652D-01 0.277D+00 0.689D+00
 Gap=     0.383 Goal=   None    Shift=    0.000
 RMSDP=1.61D-04 MaxDP=6.88D-03 DE=-2.07D-02 OVMax= 6.74D-03

 Cycle   5  Pass 1  IDiag  1:
 E= -1463.40102908389     Delta-E=       -0.002316870487 Rises=F Damp=F
 DIIS: error= 2.53D-04 at cycle   5 NSaved=   5.
 NSaved= 5 IEnMin= 5 EnMin= -1463.40102908389     IErMin= 5 ErrMin= 2.53D-04
 ErrMax= 2.53D-04  0.00D+00 EMaxC= 1.00D-01 BMatC= 5.72D-05 BMatP= 3.35D-03
 IDIUse=3 WtCom= 9.97D-01 WtEn= 2.53D-03
 Coeff-Com: -0.114D-01 0.218D-01 0.117D+00 0.310D+00 0.562D+00
 Coeff-En:   0.000D+00 0.000D+00 0.000D+00 0.000D+00 0.100D+01
 Coeff:     -0.113D-01 0.218D-01 0.117D+00 0.310D+00 0.563D+00
 Gap=     0.383 Goal=   None    Shift=    0.000
 RMSDP=2.19D-05 MaxDP=1.38D-03 DE=-2.32D-03 OVMax= 1.18D-03

 Cycle   6  Pass 1  IDiag  1:
 E= -1463.40106565461     Delta-E=       -0.000036570711 Rises=F Damp=F
 DIIS: error= 5.35D-05 at cycle   6 NSaved=   6.
 NSaved= 6 IEnMin= 6 EnMin= -1463.40106565461     IErMin= 6 ErrMin= 5.35D-05
 ErrMax= 5.35D-05  0.00D+00 EMaxC= 1.00D-01 BMatC= 3.13D-06 BMatP= 5.72D-05
 IDIUse=1 WtCom= 1.00D+00 WtEn= 0.00D+00
 Coeff-Com:  0.153D-02-0.373D-02-0.554D-02-0.919D-02 0.162D+00 0.855D+00
 Coeff:      0.153D-02-0.373D-02-0.554D-02-0.919D-02 0.162D+00 0.855D+00
 Gap=     0.383 Goal=   None    Shift=    0.000
 RMSDP=7.15D-06 MaxDP=3.21D-04 DE=-3.66D-05 OVMax= 3.55D-04

 Cycle   7  Pass 1  IDiag  1:
 E= -1463.40106817583     Delta-E=       -0.000002521220 Rises=F Damp=F
 DIIS: error= 2.45D-05 at cycle   7 NSaved=   7.
 NSaved= 7 IEnMin= 7 EnMin= -1463.40106817583     IErMin= 7 ErrMin= 2.45D-05
 ErrMax= 2.45D-05  0.00D+00 EMaxC= 1.00D-01 BMatC= 3.08D-07 BMatP= 3.13D-06
 IDIUse=1 WtCom= 1.00D+00 WtEn= 0.00D+00
 Coeff-Com:  0.137D-02-0.293D-02-0.979D-02-0.243D-01 0.249D-01 0.332D+00
 Coeff-Com:  0.678D+00
 Coeff:      0.137D-02-0.293D-02-0.979D-02-0.243D-01 0.249D-01 0.332D+00
 Coeff:      0.678D+00
 Gap=     0.383 Goal=   None    Shift=    0.000
 RMSDP=2.21D-06 MaxDP=7.49D-05 DE=-2.52D-06 OVMax= 1.00D-04

 Cycle   8  Pass 1  IDiag  1:
 E= -1463.40106840703     Delta-E=       -0.000000231207 Rises=F Damp=F
 DIIS: error= 7.02D-06 at cycle   8 NSaved=   8.
 NSaved= 8 IEnMin= 8 EnMin= -1463.40106840703     IErMin= 8 ErrMin= 7.02D-06
 ErrMax= 7.02D-06  0.00D+00 EMaxC= 1.00D-01 BMatC= 1.52D-08 BMatP= 3.08D-07
 IDIUse=1 WtCom= 1.00D+00 WtEn= 0.00D+00
 Coeff-Com:  0.365D-03-0.740D-03-0.301D-02-0.795D-02-0.398D-02 0.491D-01
 Coeff-Com:  0.219D+00 0.747D+00
 Coeff:      0.365D-03-0.740D-03-0.301D-02-0.795D-02-0.398D-02 0.491D-01
 Coeff:      0.219D+00 0.747D+00
 Gap=     0.383 Goal=   None    Shift=    0.000
 RMSDP=5.26D-07 MaxDP=1.73D-05 DE=-2.31D-07 OVMax= 3.23D-05

 Cycle   9  Pass 1  IDiag  1:
 E= -1463.40106841873     Delta-E=       -0.000000011696 Rises=F Damp=F
 DIIS: error= 3.22D-06 at cycle   9 NSaved=   9.
 NSaved= 9 IEnMin= 9 EnMin= -1463.40106841873     IErMin= 9 ErrMin= 3.22D-06
 ErrMax= 3.22D-06  0.00D+00 EMaxC= 1.00D-01 BMatC= 2.35D-09 BMatP= 1.52D-08
 IDIUse=1 WtCom= 1.00D+00 WtEn= 0.00D+00
 Coeff-Com:  0.156D-04-0.151D-04-0.318D-03-0.102D-02-0.426D-02-0.129D-01
 Coeff-Com:  0.255D-01 0.321D+00 0.672D+00
 Coeff:      0.156D-04-0.151D-04-0.318D-03-0.102D-02-0.426D-02-0.129D-01
 Coeff:      0.255D-01 0.321D+00 0.672D+00
 Gap=     0.383 Goal=   None    Shift=    0.000
 RMSDP=1.78D-07 MaxDP=6.54D-06 DE=-1.17D-08 OVMax= 1.11D-05

 Cycle  10  Pass 1  IDiag  1:
 E= -1463.40106842046     Delta-E=       -0.000000001731 Rises=F Damp=F
 DIIS: error= 3.85D-07 at cycle  10 NSaved=  10.
 NSaved=10 IEnMin=10 EnMin= -1463.40106842046     IErMin=10 ErrMin= 3.85D-07
 ErrMax= 3.85D-07  0.00D+00 EMaxC= 1.00D-01 BMatC= 1.02D-10 BMatP= 2.35D-09
 IDIUse=1 WtCom= 1.00D+00 WtEn= 0.00D+00
 Coeff-Com: -0.328D-04 0.715D-04 0.203D-03 0.494D-03-0.806D-03-0.876D-02
 Coeff-Com: -0.133D-01 0.245D-01 0.196D+00 0.801D+00
 Coeff:     -0.328D-04 0.715D-04 0.203D-03 0.494D-03-0.806D-03-0.876D-02
 Coeff:     -0.133D-01 0.245D-01 0.196D+00 0.801D+00
 Gap=     0.383 Goal=   None    Shift=    0.000
 RMSDP=4.85D-08 MaxDP=2.09D-06 DE=-1.73D-09 OVMax= 2.90D-06

 Cycle  11  Pass 1  IDiag  1:
 E= -1463.40106842064     Delta-E=       -0.000000000181 Rises=F Damp=F
 DIIS: error= 6.81D-08 at cycle  11 NSaved=  11.
 NSaved=11 IEnMin=11 EnMin= -1463.40106842064     IErMin=11 ErrMin= 6.81D-08
 ErrMax= 6.81D-08  0.00D+00 EMaxC= 1.00D-01 BMatC= 5.03D-12 BMatP= 1.02D-10
 IDIUse=1 WtCom= 1.00D+00 WtEn= 0.00D+00
 Coeff-Com: -0.974D-05 0.203D-04 0.693D-04 0.185D-03-0.220D-04-0.186D-02
 Coeff-Com: -0.442D-02-0.555D-02 0.270D-01 0.221D+00 0.764D+00
 Coeff:     -0.974D-05 0.203D-04 0.693D-04 0.185D-03-0.220D-04-0.186D-02
 Coeff:     -0.442D-02-0.555D-02 0.270D-01 0.221D+00 0.764D+00
 Gap=     0.383 Goal=   None    Shift=    0.000
 RMSDP=1.11D-08 MaxDP=3.37D-07 DE=-1.81D-10 OVMax= 8.16D-07

 Cycle  12  Pass 1  IDiag  1:
 E= -1463.40106842063     Delta-E=        0.000000000008 Rises=F Damp=F
 DIIS: error= 3.22D-08 at cycle  12 NSaved=  12.
 NSaved=12 IEnMin=11 EnMin= -1463.40106842064     IErMin=12 ErrMin= 3.22D-08
 ErrMax= 3.22D-08  0.00D+00 EMaxC= 1.00D-01 BMatC= 1.11D-12 BMatP= 5.03D-12
 IDIUse=1 WtCom= 1.00D+00 WtEn= 0.00D+00
 Coeff-Com: -0.128D-05 0.234D-05 0.125D-04 0.388D-04 0.760D-04 0.719D-05
 Coeff-Com: -0.753D-03-0.492D-02-0.742D-02 0.185D-01 0.339D+00 0.655D+00
 Coeff:     -0.128D-05 0.234D-05 0.125D-04 0.388D-04 0.760D-04 0.719D-05
 Coeff:     -0.753D-03-0.492D-02-0.742D-02 0.185D-01 0.339D+00 0.655D+00
 Gap=     0.383 Goal=   None    Shift=    0.000
 RMSDP=4.11D-09 MaxDP=1.45D-07 DE= 8.19D-12 OVMax= 2.82D-07

 Error on total polarization charges =  0.00058
 SCF Done:  E(RCAM-B3LYP) =  -1463.40106842     A.U. after   12 cycles
            NFock= 12  Conv=0.41D-08     -V/T= 2.0064
 KE= 1.454084055475D+03 PE=-7.055977866902D+03 EE= 2.346934730544D+03
 Leave Link  502 at Sun Feb  2 23:12:24 2025, MaxMem=  5368709120 cpu:       158.0
 (Enter /home/k0335/k033513/app/g09/l601.exe)
 Copying SCF densities to generalized density rwf, IOpCl= 0 IROHF=0.

 **********************************************************************

            Population analysis using the SCF density.

 **********************************************************************

 Alpha  occ. eigenvalues --  -24.83997 -24.83986 -24.83644 -24.83031 -24.82952
 Alpha  occ. eigenvalues --  -24.82661 -24.82656 -24.82610 -24.82547 -24.82456
 Alpha  occ. eigenvalues --  -24.82295 -24.82183 -19.31555 -10.59419 -10.53304
 Alpha  occ. eigenvalues --  -10.51958 -10.45784 -10.45702  -1.44798  -1.42946
 Alpha  occ. eigenvalues --   -1.41078  -1.39861  -1.38845  -1.34785  -1.34438
 Alpha  occ. eigenvalues --   -1.34381  -1.33887  -1.33273  -1.33104  -1.32423
 Alpha  occ. eigenvalues --   -1.21208  -0.88684  -0.84982  -0.80334  -0.76654
 Alpha  occ. eigenvalues --   -0.75637  -0.72763  -0.71840  -0.71200  -0.70526
 Alpha  occ. eigenvalues --   -0.69753  -0.69485  -0.68731  -0.67938  -0.66436
 Alpha  occ. eigenvalues --   -0.66220  -0.65249  -0.60869  -0.58390  -0.57461
 Alpha  occ. eigenvalues --   -0.57355  -0.56952  -0.56718  -0.56027  -0.55532
 Alpha  occ. eigenvalues --   -0.54770  -0.54127  -0.53857  -0.53410  -0.53350
 Alpha  occ. eigenvalues --   -0.52867  -0.52304  -0.51939  -0.50995  -0.50691
 Alpha  occ. eigenvalues --   -0.50600  -0.50269  -0.49719  -0.48489  -0.46646
 Alpha  occ. eigenvalues --   -0.45195  -0.44558  -0.31686
 Alpha virt. eigenvalues --    0.06639   0.16211   0.16976   0.18751   0.22431
 Alpha virt. eigenvalues --    0.22535   0.23287   0.24407   0.25041   0.26781
 Alpha virt. eigenvalues --    0.28579   0.29628   0.30429   0.32528   0.36895
 Alpha virt. eigenvalues --    0.37041   0.40534   0.48298   0.49327   0.51248
 Alpha virt. eigenvalues --    0.51957   0.52888   0.54178   0.54715   0.55484
 Alpha virt. eigenvalues --    0.57423   0.58922   0.62067   0.64739   0.67738
 Alpha virt. eigenvalues --    0.71942   0.72705   0.74920   0.86001   0.88854
 Alpha virt. eigenvalues --    0.91217   0.95287   1.02117   1.03423   1.05270
 Alpha virt. eigenvalues --    1.07554   1.09159   1.09732   1.09919   1.12464
 Alpha virt. eigenvalues --    1.12988   1.13743   1.14306   1.16661   1.17415
 Alpha virt. eigenvalues --    1.18680   1.20599   1.22987   1.25602   1.27403
 Alpha virt. eigenvalues --    1.30653   1.32830   1.33275   1.33617   1.34761
 Alpha virt. eigenvalues --    1.35660   1.36120   1.36884   1.37513   1.38029
 Alpha virt. eigenvalues --    1.39210   1.39477   1.40197   1.40529   1.41146
 Alpha virt. eigenvalues --    1.41484   1.42556   1.43430   1.45572   1.46730
 Alpha virt. eigenvalues --    1.46999   1.48604   1.49340   1.50664   1.51497
 Alpha virt. eigenvalues --    1.52539   1.53514   1.54332   1.55995   1.59404
 Alpha virt. eigenvalues --    1.64315   1.66107   1.66984   1.67664   1.71139
 Alpha virt. eigenvalues --    1.72202   1.72743   1.75280   1.75739   1.78283
 Alpha virt. eigenvalues --    1.78890   1.80853   1.84022   1.84367   1.85190
 Alpha virt. eigenvalues --    1.85946   1.86387   1.86967   1.87249   1.88320
 Alpha virt. eigenvalues --    1.88469   1.89112   1.90150   1.91000   1.93208
 Alpha virt. eigenvalues --    1.94021   1.96245   1.97961   1.99458   2.00272
 Alpha virt. eigenvalues --    2.02350   2.02591   2.03323   2.04525   2.04871
 Alpha virt. eigenvalues --    2.05055   2.05797   2.06152   2.08079   2.09030
 Alpha virt. eigenvalues --    2.10484   2.10818   2.13571   2.16716   2.17237
 Alpha virt. eigenvalues --    2.18343   2.19151   2.22720   2.23487   2.27297
 Alpha virt. eigenvalues --    2.28544   2.31963   2.34814   2.37716   2.40058
 Alpha virt. eigenvalues --    2.40457   2.42344   2.45307   2.49041   2.50001
 Alpha virt. eigenvalues --    2.52284   2.53473   2.55140   2.57672   2.59659
 Alpha virt. eigenvalues --    2.62373   2.64655   2.65455   2.70986   2.73482
 Alpha virt. eigenvalues --    2.78700   2.81645   2.84268   2.85038   2.90423
 Alpha virt. eigenvalues --    2.91717   2.95613   2.98839   2.99232   3.04496
 Alpha virt. eigenvalues --    3.06197   3.08195   3.08827   3.11252   3.12284
 Alpha virt. eigenvalues --    3.12554   3.14372   3.15490   3.17302   3.19242
 Alpha virt. eigenvalues --    3.22422   3.24761   3.26235   3.27765   4.07972
 Alpha virt. eigenvalues --    4.16205   4.33769   4.38290   4.43742   4.47417
 Alpha virt. eigenvalues --    4.59913   4.71868   4.74593   4.84179   4.96348
 Alpha virt. eigenvalues --    5.33898   5.43664   5.52127   5.61409   5.86626
 Alpha virt. eigenvalues --    5.93922   6.03686
          Condensed to atoms (all electrons):
               1          2          3          4          5          6
     1  F    9.032026   0.314072  -0.040326  -0.037798  -0.049899   0.014982
     2  C    0.314072   3.782945   0.338300   0.354122   0.235551   0.005441
     3  F   -0.040326   0.338300   9.016241  -0.039938  -0.049919  -0.000535
     4  F   -0.037798   0.354122  -0.039938   8.987672  -0.046601  -0.000040
     5  O   -0.049899   0.235551  -0.049919  -0.046601   8.384591   0.169190
     6  C    0.014982   0.005441  -0.000535  -0.000040   0.169190   4.424652
     7  F   -0.001327   0.009658  -0.000087  -0.000005  -0.047375   0.249840
     8  F   -0.000261  -0.002113  -0.000003  -0.000007  -0.043577   0.272031
     9  C    0.000211  -0.000001  -0.000335  -0.000052  -0.044578   0.205863
    10  F    0.000000  -0.000082   0.000003   0.000000   0.001801  -0.027748
    11  F    0.000000   0.000000   0.000000   0.000000   0.000726  -0.021650
    12  C   -0.000002  -0.000163   0.000003  -0.000006   0.001097  -0.044745
    13  F    0.000000   0.000213   0.000000  -0.000002   0.001849   0.000151
    14  F    0.000000   0.000000   0.000000   0.000000   0.000010   0.001301
    15  C    0.000001   0.000035   0.000000   0.000001  -0.000441   0.004230
    16  F    0.000000   0.000000   0.000000   0.000000   0.000000  -0.000019
    17  F    0.000000   0.000000   0.000000   0.000000   0.000012  -0.002443
    18  F   -0.000011   0.000686   0.000000  -0.000010  -0.000744   0.007858
               7          8          9         10         11         12
     1  F   -0.001327  -0.000261   0.000211   0.000000   0.000000  -0.000002
     2  C    0.009658  -0.002113  -0.000001  -0.000082   0.000000  -0.000163
     3  F   -0.000087  -0.000003  -0.000335   0.000003   0.000000   0.000003
     4  F   -0.000005  -0.000007  -0.000052   0.000000   0.000000  -0.000006
     5  O   -0.047375  -0.043577  -0.044578   0.001801   0.000726   0.001097
     6  C    0.249840   0.272031   0.205863  -0.027748  -0.021650  -0.044745
     7  F    9.100655  -0.038491  -0.016731   0.000532  -0.000293   0.000770
     8  F   -0.038491   9.082028  -0.030281   0.000348   0.000606  -0.002549
     9  C   -0.016731  -0.030281   4.761540   0.251584   0.248229   0.303246
    10  F    0.000532   0.000348   0.251584   9.042896  -0.033039  -0.023056
    11  F   -0.000293   0.000606   0.248229  -0.033039   9.044641  -0.030194
    12  C    0.000770  -0.002549   0.303246  -0.023056  -0.030194   4.811952
    13  F   -0.000003   0.000004  -0.029244   0.002624   0.000296   0.239344
    14  F    0.000000   0.000002  -0.021457   0.001541   0.002639   0.244139
    15  C    0.000001   0.009432  -0.044436   0.001185   0.001634   0.216217
    16  F    0.000000   0.000001   0.000866   0.000000  -0.000005  -0.027086
    17  F    0.000000   0.000037   0.006672   0.000006   0.000637  -0.037937
    18  F    0.000000  -0.001263  -0.002575   0.000001   0.000002  -0.032269
              13         14         15         16         17         18
     1  F    0.000000   0.000000   0.000001   0.000000   0.000000  -0.000011
     2  C    0.000213   0.000000   0.000035   0.000000   0.000000   0.000686
     3  F    0.000000   0.000000   0.000000   0.000000   0.000000   0.000000
     4  F   -0.000002   0.000000   0.000001   0.000000   0.000000  -0.000010
     5  O    0.001849   0.000010  -0.000441   0.000000   0.000012  -0.000744
     6  C    0.000151   0.001301   0.004230  -0.000019  -0.002443   0.007858
     7  F   -0.000003   0.000000   0.000001   0.000000   0.000000   0.000000
     8  F    0.000004   0.000002   0.009432   0.000001   0.000037  -0.001263
     9  C   -0.029244  -0.021457  -0.044436   0.000866   0.006672  -0.002575
    10  F    0.002624   0.001541   0.001185   0.000000   0.000006   0.000001
    11  F    0.000296   0.002639   0.001634  -0.000005   0.000637   0.000002
    12  C    0.239344   0.244139   0.216217  -0.027086  -0.037937  -0.032269
    13  F    9.043754  -0.033321  -0.019420  -0.000070   0.000365   0.000762
    14  F   -0.033321   9.046979  -0.021946   0.000835   0.000339   0.000361
    15  C   -0.019420  -0.021946   4.265536   0.270174   0.286576   0.273200
    16  F   -0.000070   0.000835   0.270174   9.068388  -0.036929  -0.035854
    17  F    0.000365   0.000339   0.286576  -0.036929   9.050292  -0.034864
    18  F    0.000762   0.000361   0.273200  -0.035854  -0.034864   9.056640
 Mulliken charges:
               1
     1  F   -0.231667
     2  C    0.961336
     3  F   -0.223403
     4  F   -0.217334
     5  O   -0.511692
     6  C    0.741641
     7  F   -0.257145
     8  F   -0.245941
     9  C    0.411479
    10  F   -0.218596
    11  F   -0.214230
    12  C    0.381241
    13  F   -0.207303
    14  F   -0.221422
    15  C    0.758021
    16  F   -0.240301
    17  F   -0.232764
    18  F   -0.231920
 Sum of Mulliken charges =   0.00000
 Mulliken charges with hydrogens summed into heavy atoms:
               1
     1  F   -0.231667
     2  C    0.961336
     3  F   -0.223403
     4  F   -0.217334
     5  O   -0.511692
     6  C    0.741641
     7  F   -0.257145
     8  F   -0.245941
     9  C    0.411479
    10  F   -0.218596
    11  F   -0.214230
    12  C    0.381241
    13  F   -0.207303
    14  F   -0.221422
    15  C    0.758021
    16  F   -0.240301
    17  F   -0.232764
    18  F   -0.231920
 Electronic spatial extent (au):  <R**2>=           3623.5862
 Charge=              0.0000 electrons
 Dipole moment (field-independent basis, Debye):
    X=              0.4536    Y=             -0.3023    Z=              0.2475  Tot=              0.5987
 Quadrupole moment (field-independent basis, Debye-Ang):
   XX=            -89.9943   YY=            -91.1825   ZZ=            -91.3422
   XY=             -0.0619   XZ=              0.6011   YZ=             -0.5393
 Traceless Quadrupole moment (field-independent basis, Debye-Ang):
   XX=              0.8454   YY=             -0.3428   ZZ=             -0.5026
   XY=             -0.0619   XZ=              0.6011   YZ=             -0.5393
 Octapole moment (field-independent basis, Debye-Ang**2):
  XXX=              5.3470  YYY=             34.0478  ZZZ=              2.8879  XYY=              0.1551
  XXY=              7.9446  XXZ=              3.2242  XZZ=              1.1407  YZZ=             10.4373
  YYZ=             -0.6530  XYZ=             -1.4530
 Hexadecapole moment (field-independent basis, Debye-Ang**3):
 XXXX=          -2030.4298 YYYY=           -706.3024 ZZZZ=           -736.5166 XXXY=            -48.8772
 XXXZ=           -177.3713 YYYX=            -34.5435 YYYZ=             68.9969 ZZZX=           -188.7819
 ZZZY=             67.4694 XXYY=           -458.3152 XXZZ=           -455.1413 YYZZ=           -238.5938
 XXYZ=             22.0351 YYXZ=            -60.3893 ZZXY=            -12.2145
 N-N= 1.791558012463D+03 E-N=-7.055977868157D+03  KE= 1.454084055475D+03
 No NMR shielding tensors so no spin-rotation constants.
 Leave Link  601 at Sun Feb  2 23:12:24 2025, MaxMem=  5368709120 cpu:         2.5
 (Enter /home/k0335/k033513/app/g09/l9999.exe)
 1\1\GINC-C15U05N3\SP\RCAM-B3LYP\6-31G(d,p)\C5F12O1\K033513\02-Feb-2025
 \0\\#p CAM-B3LYP/6-31G(d,p) SCRF=(PCM,Solvent=Generic,Read) NoSymm out
 =wfn\\Title FFKM0_neu\\0,1\F,0,2.36154,-0.21335,2.07963\C,0,2.43984,-0
 .74474,0.87213\F,0,3.49383,-0.26255,0.24493\F,0,2.50789,-2.05117,0.944
 23\O,0,1.27285,-0.46252,0.13772\C,0,0.76805,0.78982,0.15435\F,0,1.6786
 9,1.73615,-0.07422\F,0,0.10626,1.09089,1.26694\C,0,-0.23804,0.89312,-1
 .04217\F,0,0.27086,0.68664,-2.20431\F,0,-1.05263,1.88282,-0.98893\C,0,
 -1.48759,-0.67536,-0.98935\F,0,-0.72339,-1.65932,-1.29025\F,0,-2.2798,
 -0.31284,-1.93604\C,0,-2.14338,-0.72439,0.43563\F,0,-3.18865,-1.51982,
 0.31924\F,0,-2.51735,0.48861,0.78712\F,0,-1.26898,-1.22134,1.28336\\Ve
 rsion=ES64L-G09RevD.01\HF=-1463.4010684\RMSD=4.112e-09\Dipole=0.178457
 1,-0.1189379,0.0973674\Quadrupole=0.6285229,-0.2548891,-0.3736338,-0.0
 460213,0.4469335,-0.4009686\PG=C01 [X(C5F12O1)]\\@

 Writing a WFN file to "opt/FFKM0/FFKM0_neu.wfn"


 WE TEND TO MEET ANY NEW SITUATION BY REORGANIZING. IT CAN BE A
 WONDERFUL METHOD FOR CREATING THE ILLUSION OF PROGRESS WHILE PRODUCING
 CONFUSION, INEFFICIENCY, AND DEMORALIZATION.
     -- PETRONIUS ARBITER, 210 B.C.
 Job cpu time:       0 days  0 hours  2 minutes 53.0 seconds.
 File lengths (MBytes):  RWF=     88 Int=      0 D2E=      0 Chk=      4 Scr=      1
 Normal termination of Gaussian 09 at Sun Feb  2 23:12:24 2025.
