 Entering Gaussian System, Link 0=g09
 Initial command:
 /home/k0335/k033513/app/g09/l1.exe "/home/k0335/k033513/app/g09/scratch/Gau-735966.inp" -scrdir="/home/k0335/k033513/app/g09/scratch/"
 Default is to use a total of  36 processors:
                               36 via shared-memory
                                1 via Linda
 Entering Link 1 = /home/k0335/k033513/app/g09/l1.exe PID=    735967.
  
 Copyright (c) 1988,1990,1992,1993,1995,1998,2003,2009,2013,
            Gaussian, Inc.  All Rights Reserved.
  
 This is part of the Gaussian(R) 09 program.  It is based on
 the Gaussian(R) 03 system (copyright 2003, Gaussian, Inc.),
 the Gaussian(R) 98 system (copyright 1998, Gaussian, Inc.),
 the Gaussian(R) 94 system (copyright 1995, Gaussian, Inc.),
 the Gaussian 92(TM) system (copyright 1992, Gaussian, Inc.),
 the Gaussian 90(TM) system (copyright 1990, Gaussian, Inc.),
 the Gaussian 88(TM) system (copyright 1988, Gaussian, Inc.),
 the Gaussian 86(TM) system (copyright 1986, Carnegie Mellon
 University), and the Gaussian 82(TM) system (copyright 1983,
 Carnegie Mellon University). Gaussian is a federally registered
 trademark of Gaussian, Inc.
  
 This software contains proprietary and confidential information,
 including trade secrets, belonging to Gaussian, Inc.
  
 This software is provided under written license and may be
 used, copied, transmitted, or stored only in accord with that
 written license.
  
 The following legend is applicable only to US Government
 contracts under FAR:
  
                    RESTRICTED RIGHTS LEGEND
  
 Use, reproduction and disclosure by the US Government is
 subject to restrictions as set forth in subparagraphs (a)
 and (c) of the Commercial Computer Software - Restricted
 Rights clause in FAR 52.227-19.
  
 Gaussian, Inc.
 340 Quinnipiac St., Bldg. 40, Wallingford CT 06492
  
  
 ---------------------------------------------------------------
 Warning -- This program may not be used in any manner that
 competes with the business of Gaussian, Inc. or will provide
 assistance to any competitor of Gaussian, Inc.  The licensee
 of this program is prohibited from giving any competitor of
 Gaussian, Inc. access to this program.  By using this program,
 the user acknowledges that Gaussian, Inc. is engaged in the
 business of creating and licensing software in the field of
 computational chemistry and represents and warrants to the
 licensee that it is not a competitor of Gaussian, Inc. and that
 it will not use this program in any manner prohibited above.
 ---------------------------------------------------------------
  

 Cite this work as:
 Gaussian 09, Revision D.01,
 M. J. Frisch, G. W. Trucks, H. B. Schlegel, G. E. Scuseria, 
 M. A. Robb, J. R. Cheeseman, G. Scalmani, V. Barone, B. Mennucci, 
 G. A. Petersson, H. Nakatsuji, M. Caricato, X. Li, H. P. Hratchian, 
 A. F. Izmaylov, J. Bloino, G. Zheng, J. L. Sonnenberg, M. Hada, 
 M. Ehara, K. Toyota, R. Fukuda, J. Hasegawa, M. Ishida, T. Nakajima, 
 Y. Honda, O. Kitao, H. Nakai, T. Vreven, J. A. Montgomery, Jr., 
 J. E. Peralta, F. Ogliaro, M. Bearpark, J. J. Heyd, E. Brothers, 
 K. N. Kudin, V. N. Staroverov, T. Keith, R. Kobayashi, J. Normand, 
 K. Raghavachari, A. Rendell, J. C. Burant, S. S. Iyengar, J. Tomasi, 
 M. Cossi, N. Rega, J. M. Millam, M. Klene, J. E. Knox, J. B. Cross, 
 V. Bakken, C. Adamo, J. Jaramillo, R. Gomperts, R. E. Stratmann, 
 O. Yazyev, A. J. Austin, R. Cammi, C. Pomelli, J. W. Ochterski, 
 R. L. Martin, K. Morokuma, V. G. Zakrzewski, G. A. Voth, 
 P. Salvador, J. J. Dannenberg, S. Dapprich, A. D. Daniels, 
 O. Farkas, J. B. Foresman, J. V. Ortiz, J. Cioslowski, 
 and D. J. Fox, Gaussian, Inc., Wallingford CT, 2013.
 
 ******************************************
 Gaussian 09:  ES64L-G09RevD.01 24-Apr-2013
                 2-Feb-2025 
 ******************************************
 %nprocshared=24
 Will use up to   24 processors via shared memory.
 %mem=40GB
 %rwf=opt/FFKM0/FFKM0_pos.rwf
 %nosave
 %chk=opt/FFKM0/FFKM0_pos.chk
 ----------------------------------------------------------------------
 #p CAM-B3LYP/6-31G(d,p) opt SCRF=(PCM,Solvent=Generic,Read) NoSymm out
 =wfn
 ----------------------------------------------------------------------
 1/14=-1,18=20,19=15,26=3,38=1,40=2/1,3;
 2/9=110,12=2,15=1,17=6,18=5,40=1/2;
 3/5=1,6=6,7=101,11=2,16=1,25=1,30=1,70=2203,71=1,72=-2,74=-40/1,2,3;
 4//1;
 5/5=2,38=5/2;
 6/7=2,8=2,9=2,10=2,28=1/1;
 7/30=1/1,2,3,16;
 1/14=-1,18=20,19=15,26=3/3(2);
 2/9=110,15=1/2;
 99/6=100/99;
 2/9=110,15=1/2;
 3/5=1,6=6,7=101,11=2,16=1,25=1,30=1,70=2205,71=1,72=-2,74=-40/1,2,3;
 4/5=5,16=3,69=1/1;
 5/5=2,38=5/2;
 7/30=1/1,2,3,16;
 1/14=-1,18=20,19=15,26=3/3(-5);
 2/9=110,15=1/2;
 6/7=2,8=2,9=2,10=2,19=2,28=1/1;
 99/6=100,9=1/99;
 Leave Link    1 at Sun Feb  2 17:24:14 2025, MaxMem=  5368709120 cpu:         1.3
 (Enter /home/k0335/k033513/app/g09/l101.exe)
 ---------------
 Title FFKM0_pos
 ---------------
 Symbolic Z-matrix:
 Charge =  1 Multiplicity = 2
 F                     2.35495   0.00912   2.0127 
 C                     2.49515  -0.67627   0.8653 
 F                     3.46167  -0.1225    0.11121 
 F                     2.86627  -1.93739   1.16655 
 O                     1.29701  -0.73709   0.14089 
 C                     0.69453   0.53038   0.11216 
 F                     1.64006   1.48694  -0.06211 
 F                     0.14059   0.75559   1.32835 
 C                    -0.37592   0.65938  -0.97031 
 F                     0.23948   0.69293  -2.19659 
 F                    -0.99824   1.86983  -0.85294 
 C                    -1.40175  -0.45034  -0.98376 
 F                    -0.81598  -1.63835  -1.3164 
 F                    -2.30028  -0.20219  -1.98907 
 C                    -2.13986  -0.58689   0.33176 
 F                    -3.15411  -1.48113   0.23953 
 F                    -2.6741    0.58273   0.74439 
 F                    -1.32945  -1.03412   1.31834 
 
 NAtoms=     18 NQM=       18 NQMF=       0 NMMI=      0 NMMIF=      0
                NMic=       0 NMicF=      0.
                    Isotopes and Nuclear Properties:
 (Nuclear quadrupole moments (NQMom) in fm**2, nuclear magnetic moments (NMagM)
  in nuclear magnetons)

  Atom         1           2           3           4           5           6           7           8           9          10
 IAtWgt=          19          12          19          19          16          12          19          19          12          19
 AtmWgt=  18.9984033  12.0000000  18.9984033  18.9984033  15.9949146  12.0000000  18.9984033  18.9984033  12.0000000  18.9984033
 NucSpn=           1           0           1           1           0           0           1           1           0           1
 AtZEff=   0.0000000   0.0000000   0.0000000   0.0000000   0.0000000   0.0000000   0.0000000   0.0000000   0.0000000   0.0000000
 NQMom=    0.0000000   0.0000000   0.0000000   0.0000000   0.0000000   0.0000000   0.0000000   0.0000000   0.0000000   0.0000000
 NMagM=    2.6288670   0.0000000   2.6288670   2.6288670   0.0000000   0.0000000   2.6288670   2.6288670   0.0000000   2.6288670
 AtZNuc=   9.0000000   6.0000000   9.0000000   9.0000000   8.0000000   6.0000000   9.0000000   9.0000000   6.0000000   9.0000000

  Atom        11          12          13          14          15          16          17          18
 IAtWgt=          19          12          19          19          12          19          19          19
 AtmWgt=  18.9984033  12.0000000  18.9984033  18.9984033  12.0000000  18.9984033  18.9984033  18.9984033
 NucSpn=           1           0           1           1           0           1           1           1
 AtZEff=   0.0000000   0.0000000   0.0000000   0.0000000   0.0000000   0.0000000   0.0000000   0.0000000
 NQMom=    0.0000000   0.0000000   0.0000000   0.0000000   0.0000000   0.0000000   0.0000000   0.0000000
 NMagM=    2.6288670   0.0000000   2.6288670   2.6288670   0.0000000   2.6288670   2.6288670   2.6288670
 AtZNuc=   9.0000000   6.0000000   9.0000000   9.0000000   6.0000000   9.0000000   9.0000000   9.0000000
 Leave Link  101 at Sun Feb  2 17:24:14 2025, MaxMem=  5368709120 cpu:         2.9
 (Enter /home/k0335/k033513/app/g09/l103.exe)

 GradGradGradGradGradGradGradGradGradGradGradGradGradGradGradGradGradGrad
 Berny optimization.
 Initialization pass.
                           ----------------------------
                           !    Initial Parameters    !
                           ! (Angstroms and Degrees)  !
 --------------------------                            --------------------------
 ! Name  Definition              Value          Derivative Info.                !
 --------------------------------------------------------------------------------
 ! R1    R(1,2)                  1.3438         estimate D2E/DX2                !
 ! R2    R(2,3)                  1.3452         estimate D2E/DX2                !
 ! R3    R(2,4)                  1.3487         estimate D2E/DX2                !
 ! R4    R(2,5)                  1.4014         estimate D2E/DX2                !
 ! R5    R(5,6)                  1.4037         estimate D2E/DX2                !
 ! R6    R(6,7)                  1.3562         estimate D2E/DX2                !
 ! R7    R(6,8)                  1.3552         estimate D2E/DX2                !
 ! R8    R(6,9)                  1.5278         estimate D2E/DX2                !
 ! R9    R(9,10)                 1.3724         estimate D2E/DX2                !
 ! R10   R(9,11)                 1.3661         estimate D2E/DX2                !
 ! R11   R(9,12)                 1.5113         estimate D2E/DX2                !
 ! R12   R(12,13)                1.3657         estimate D2E/DX2                !
 ! R13   R(12,14)                1.371          estimate D2E/DX2                !
 ! R14   R(12,15)                1.5146         estimate D2E/DX2                !
 ! R15   R(15,16)                1.3553         estimate D2E/DX2                !
 ! R16   R(15,17)                1.3504         estimate D2E/DX2                !
 ! R17   R(15,18)                1.3528         estimate D2E/DX2                !
 ! A1    A(1,2,3)              110.0992         estimate D2E/DX2                !
 ! A2    A(1,2,4)              108.355          estimate D2E/DX2                !
 ! A3    A(1,2,5)              111.9802         estimate D2E/DX2                !
 ! A4    A(3,2,4)              108.207          estimate D2E/DX2                !
 ! A5    A(3,2,5)              110.0216         estimate D2E/DX2                !
 ! A6    A(4,2,5)              108.0672         estimate D2E/DX2                !
 ! A7    A(2,5,6)              109.7759         estimate D2E/DX2                !
 ! A8    A(5,6,7)              109.8921         estimate D2E/DX2                !
 ! A9    A(5,6,8)              107.8864         estimate D2E/DX2                !
 ! A10   A(5,6,9)              113.0459         estimate D2E/DX2                !
 ! A11   A(7,6,8)              106.4433         estimate D2E/DX2                !
 ! A12   A(7,6,9)              109.747          estimate D2E/DX2                !
 ! A13   A(8,6,9)              109.597          estimate D2E/DX2                !
 ! A14   A(6,9,10)             108.7206         estimate D2E/DX2                !
 ! A15   A(6,9,11)             109.4576         estimate D2E/DX2                !
 ! A16   A(6,9,12)             114.827          estimate D2E/DX2                !
 ! A17   A(10,9,11)            105.0324         estimate D2E/DX2                !
 ! A18   A(10,9,12)            108.3225         estimate D2E/DX2                !
 ! A19   A(11,9,12)            110.0095         estimate D2E/DX2                !
 ! A20   A(9,12,13)            110.4736         estimate D2E/DX2                !
 ! A21   A(9,12,14)            108.5711         estimate D2E/DX2                !
 ! A22   A(9,12,15)            112.9087         estimate D2E/DX2                !
 ! A23   A(13,12,14)           105.0673         estimate D2E/DX2                !
 ! A24   A(13,12,15)           110.008          estimate D2E/DX2                !
 ! A25   A(14,12,15)           109.5007         estimate D2E/DX2                !
 ! A26   A(12,15,16)           111.4121         estimate D2E/DX2                !
 ! A27   A(12,15,17)           112.3396         estimate D2E/DX2                !
 ! A28   A(12,15,18)           111.7947         estimate D2E/DX2                !
 ! A29   A(16,15,17)           107.23           estimate D2E/DX2                !
 ! A30   A(16,15,18)           106.2482         estimate D2E/DX2                !
 ! A31   A(17,15,18)           107.4863         estimate D2E/DX2                !
 ! D1    D(1,2,5,6)             45.2375         estimate D2E/DX2                !
 ! D2    D(3,2,5,6)            -77.5482         estimate D2E/DX2                !
 ! D3    D(4,2,5,6)            164.5038         estimate D2E/DX2                !
 ! D4    D(2,5,6,7)             40.2518         estimate D2E/DX2                !
 ! D5    D(2,5,6,8)            -75.4121         estimate D2E/DX2                !
 ! D6    D(2,5,6,9)            163.2357         estimate D2E/DX2                !
 ! D7    D(5,6,9,10)           -71.416          estimate D2E/DX2                !
 ! D8    D(5,6,9,11)           174.3689         estimate D2E/DX2                !
 ! D9    D(5,6,9,12)            50.0845         estimate D2E/DX2                !
 ! D10   D(7,6,9,10)            51.6483         estimate D2E/DX2                !
 ! D11   D(7,6,9,11)           -62.5668         estimate D2E/DX2                !
 ! D12   D(7,6,9,12)           173.1488         estimate D2E/DX2                !
 ! D13   D(8,6,9,10)           168.2029         estimate D2E/DX2                !
 ! D14   D(8,6,9,11)            53.9877         estimate D2E/DX2                !
 ! D15   D(8,6,9,12)           -70.2966         estimate D2E/DX2                !
 ! D16   D(6,9,12,13)          -65.8209         estimate D2E/DX2                !
 ! D17   D(6,9,12,14)          179.4604         estimate D2E/DX2                !
 ! D18   D(6,9,12,15)           57.8399         estimate D2E/DX2                !
 ! D19   D(10,9,12,13)          55.8963         estimate D2E/DX2                !
 ! D20   D(10,9,12,14)         -58.8224         estimate D2E/DX2                !
 ! D21   D(10,9,12,15)         179.5571         estimate D2E/DX2                !
 ! D22   D(11,9,12,13)         170.1867         estimate D2E/DX2                !
 ! D23   D(11,9,12,14)          55.468          estimate D2E/DX2                !
 ! D24   D(11,9,12,15)         -66.1525         estimate D2E/DX2                !
 ! D25   D(9,12,15,16)         172.886          estimate D2E/DX2                !
 ! D26   D(9,12,15,17)          52.546          estimate D2E/DX2                !
 ! D27   D(9,12,15,18)         -68.3971         estimate D2E/DX2                !
 ! D28   D(13,12,15,16)        -63.1966         estimate D2E/DX2                !
 ! D29   D(13,12,15,17)        176.4633         estimate D2E/DX2                !
 ! D30   D(13,12,15,18)         55.5202         estimate D2E/DX2                !
 ! D31   D(14,12,15,16)         51.7918         estimate D2E/DX2                !
 ! D32   D(14,12,15,17)        -68.5482         estimate D2E/DX2                !
 ! D33   D(14,12,15,18)        170.5087         estimate D2E/DX2                !
 --------------------------------------------------------------------------------
 Trust Radius=3.00D-01 FncErr=1.00D-07 GrdErr=1.00D-06
 Number of steps in this run=     91 maximum allowed number of steps=    108.
 GradGradGradGradGradGradGradGradGradGradGradGradGradGradGradGradGradGrad

 Leave Link  103 at Sun Feb  2 17:24:15 2025, MaxMem=  5368709120 cpu:         0.1
 (Enter /home/k0335/k033513/app/g09/l202.exe)
                          Input orientation:                          
 ---------------------------------------------------------------------
 Center     Atomic      Atomic             Coordinates (Angstroms)
 Number     Number       Type             X           Y           Z
 ---------------------------------------------------------------------
      1          9           0        2.354945    0.009116    2.012700
      2          6           0        2.495150   -0.676267    0.865303
      3          9           0        3.461671   -0.122495    0.111209
      4          9           0        2.866270   -1.937385    1.166550
      5          8           0        1.297012   -0.737094    0.140886
      6          6           0        0.694526    0.530377    0.112163
      7          9           0        1.640060    1.486935   -0.062110
      8          9           0        0.140585    0.755590    1.328352
      9          6           0       -0.375922    0.659380   -0.970311
     10          9           0        0.239478    0.692933   -2.196594
     11          9           0       -0.998235    1.869830   -0.852941
     12          6           0       -1.401753   -0.450337   -0.983755
     13          9           0       -0.815983   -1.638349   -1.316401
     14          9           0       -2.300282   -0.202185   -1.989068
     15          6           0       -2.139865   -0.586886    0.331757
     16          9           0       -3.154109   -1.481133    0.239531
     17          9           0       -2.674097    0.582728    0.744389
     18          9           0       -1.329451   -1.034117    1.318340
 ---------------------------------------------------------------------
                    Distance matrix (angstroms):
                    1          2          3          4          5
     1  F    0.000000
     2  C    1.343848   0.000000
     3  F    2.204049   1.345171   0.000000
     4  F    2.183183   1.348665   2.182217   0.000000
     5  O    2.275904   1.401433   2.250414   2.226040   0.000000
     6  C    2.576964   2.294658   2.843121   3.452253   1.403673
     7  F    2.645722   2.504140   2.436918   3.839162   2.259468
     8  F    2.434943   2.794388   3.644459   3.835056   2.230584
     9  C    4.096197   3.660121   4.063020   4.671314   2.446141
    10  F    4.760353   4.042026   4.046406   5.012918   2.937204
    11  F    4.787272   4.651743   4.978926   5.788577   3.612742
    12  C    4.827279   4.319249   4.995930   5.005112   2.937751
    13  F    4.883834   4.080323   4.757542   4.451231   2.720422
    14  F    6.142470   5.600746   6.133320   6.297786   4.214660
    15  C    4.835711   4.666479   5.625078   5.251868   3.445449
    16  F    5.976173   5.740516   6.755065   6.108395   4.513956
    17  F    5.218133   5.321729   6.208535   6.101218   4.227984
    18  F    3.891689   3.867929   5.024248   4.294532   2.893601
                    6          7          8          9         10
     6  C    0.000000
     7  F    1.356248   0.000000
     8  F    1.355244   2.171791   0.000000
     9  C    1.527825   2.360902   2.357941   0.000000
    10  F    2.358782   2.673591   3.526890   1.372448   0.000000
    11  F    2.364530   2.780759   2.701200   1.366103   2.173114
    12  C    2.560707   3.722241   3.029671   1.511285   2.339163
    13  F    3.004298   4.168068   3.693330   2.364950   2.706218
    14  F    3.731045   4.700275   4.228527   2.341649   2.700867
    15  C    3.054549   4.329399   2.827701   2.521915   3.700239
    16  F    4.344466   5.646634   4.128374   3.709964   4.709321
    17  F    3.427838   4.481069   2.879814   2.868393   4.141310
    18  F    2.828248   4.132716   2.316065   3.002511   4.218886
                   11         12         13         14         15
    11  F    0.000000
    12  C    2.358625   0.000000
    13  F    3.543350   1.365706   0.000000
    14  F    2.698028   1.370981   2.172140   0.000000
    15  C    2.956735   1.514604   2.361072   2.357956   0.000000
    16  F    4.131615   2.372703   2.812912   2.707652   1.355313
    17  F    2.648888   2.381715   3.554241   2.868382   1.350432
    18  F    3.641026   2.376061   2.751473   3.545923   1.352824
                   16         17         18
    16  F    0.000000
    17  F    2.178260   0.000000
    18  F    2.166340   2.179835   0.000000
 Symmetry turned off by external request.
 Stoichiometry    C5F12O(1+,2)
 Framework group  C1[X(C5F12O)]
 Deg. of freedom    48
 Full point group                 C1      NOp   1
 Rotational constants (GHZ):      0.7117992      0.3230268      0.2951936
 Leave Link  202 at Sun Feb  2 17:24:15 2025, MaxMem=  5368709120 cpu:         0.0
 (Enter /home/k0335/k033513/app/g09/l301.exe)
 Standard basis: 6-31G(d,p) (6D, 7F)
 Ernie: Thresh=  0.10000D-02 Tol=  0.10000D-05 Strict=F.
   270 basis functions,   504 primitive gaussians,   270 cartesian basis functions
    73 alpha electrons       72 beta electrons
       nuclear repulsion energy      1805.3913107122 Hartrees.
 IExCor=20419 DFT=T Ex+Corr=CAM-B3LYP ExCW=0 ScaHFX=  1.000000
 ScaDFX=  1.000000  1.000000  1.000000  0.810000 ScalE2=  1.000000  1.000000
 IRadAn=      0 IRanWt=     -1 IRanGd=            0 ICorTp=0 IEmpDi=  4
  HFx wShort=  0.000000 wLong=  0.330000 cFull=  0.190000 cShort=  0.000000 cLong=  0.460000
  DFx wShort=  0.000000 wLong=  0.330000 cFull=  0.190000 cShort=  0.000000 cLong=  0.460000
 NAtoms=   18 NActive=   18 NUniq=   18 SFac= 1.00D+00 NAtFMM=   60 NAOKFM=F Big=F
 Integral buffers will be    131072 words long.
 Raffenetti 2 integral format.
 Two-electron integral symmetry is turned off.
 Using the following non-standard input for PCM:
 eps=4.9
 --- end of non-standard input.
 ------------------------------------------------------------------------------
 Polarizable Continuum Model (PCM)
 =================================
 Model                : PCM (using non-symmetric T matrix).
 Atomic radii         : UFF (Universal Force Field).
 Polarization charges : Total charges.
 Charge compensation  : None.
 Solution method      : On-the-fly selection.
 Cavity type          : Scaled VdW (van der Waals Surface) (Alpha=1.100).
 Cavity algorithm     : GePol (No added spheres)
                        Default sphere list used, NSphG=   18.
                        Lebedev-Laikov grids with approx.  5.0 points / Ang**2.
                        Smoothing algorithm: Karplus/York (Gamma=1.0000).
                        Polarization charges: spherical gaussians, with
                                              point-specific exponents (IZeta= 3).
                        Self-potential: point-specific (ISelfS= 7).
                        Self-field    : sphere-specific E.n sum rule (ISelfD= 2).
 1st derivatives      : Analytical E(r).r(x)/FMM algorithm (CHGder, D1EAlg=3).
                        Cavity 1st derivative terms included.
 Solvent              : Generic,
                        Eps                           =   4.900000
                        Eps(infinity)                 =   0.000000
                        RSolv                         =   0.000000 Ang.
                        Molar volume                  =   0.000000 cm**3/mol
                        Thermal expansion coefficient =   0.000000 K**-1
                        Absolute temperature          = 298.150000 K
                        Numeral density               =   0.000000 Ang**-3
                        Hydrogen bond acidity         =   0.000000
                        Hydrogen bond basicity        =   0.000000
                        Surface tension at interface  =   0.000000 (cal/mol)*Ang**-2
                        Carbon aromaticity            =   0.000000
                        Electronegative halogenicity  =   0.000000
 ------------------------------------------------------------------------------
 Spheres list:
 ISph  on   Nord     Re0    Alpha      Xe            Ye            Ze
    1   F      1    1.6820  1.100      2.354945      0.009116      2.012700
    2   C      2    1.9255  1.100      2.495150     -0.676267      0.865303
    3   F      3    1.6820  1.100      3.461671     -0.122495      0.111209
    4   F      4    1.6820  1.100      2.866270     -1.937385      1.166550
    5   O      5    1.7500  1.100      1.297012     -0.737094      0.140886
    6   C      6    1.9255  1.100      0.694526      0.530377      0.112163
    7   F      7    1.6820  1.100      1.640060      1.486935     -0.062110
    8   F      8    1.6820  1.100      0.140585      0.755590      1.328352
    9   C      9    1.9255  1.100     -0.375922      0.659380     -0.970311
   10   F     10    1.6820  1.100      0.239478      0.692933     -2.196594
   11   F     11    1.6820  1.100     -0.998235      1.869830     -0.852941
   12   C     12    1.9255  1.100     -1.401753     -0.450337     -0.983755
   13   F     13    1.6820  1.100     -0.815983     -1.638349     -1.316401
   14   F     14    1.6820  1.100     -2.300282     -0.202185     -1.989068
   15   C     15    1.9255  1.100     -2.139865     -0.586886      0.331757
   16   F     16    1.6820  1.100     -3.154109     -1.481133      0.239531
   17   F     17    1.6820  1.100     -2.674097      0.582728      0.744389
   18   F     18    1.6820  1.100     -1.329451     -1.034117      1.318340
 ------------------------------------------------------------------------------
 GePol: Number of generator spheres                  =      18
 GePol: Total number of spheres                      =      18
 GePol: Number of exposed spheres                    =      18 (100.00%)
 GePol: Number of points                             =    1844
 GePol: Average weight of points                     =       0.13
 GePol: Minimum weight of points                     =   0.23D-08
 GePol: Maximum weight of points                     =    0.20299
 GePol: Number of points with low weight             =      63
 GePol: Fraction of low-weight points (<1% of avg)   =       3.42%
 GePol: Cavity surface area                          =    231.939 Ang**2
 GePol: Cavity volume                                =    241.227 Ang**3
 Leave Link  301 at Sun Feb  2 17:24:15 2025, MaxMem=  5368709120 cpu:         0.6
 (Enter /home/k0335/k033513/app/g09/l302.exe)
 NPDir=0 NMtPBC=     1 NCelOv=     1 NCel=       1 NClECP=     1 NCelD=      1
         NCelK=      1 NCelE2=     1 NClLst=     1 CellRange=     0.0.
 One-electron integrals computed using PRISM.
 NBasis=   270 RedAO= T EigKep=  1.36D-03  NBF=   270
 NBsUse=   270 1.00D-06 EigRej= -1.00D+00 NBFU=   270
 Precomputing XC quadrature grid using
 IXCGrd= 4 IRadAn=           0 IRanWt=          -1 IRanGd=           0 AccXCQ= 0.00D+00.
 Generated NRdTot=       0 NPtTot=           0 NUsed=           0 NTot=          32
 NSgBfM=   268   268   268   268   268 MxSgAt=    18 MxSgA2=    18.
 Leave Link  302 at Sun Feb  2 17:24:16 2025, MaxMem=  5368709120 cpu:         3.5
 (Enter /home/k0335/k033513/app/g09/l303.exe)
 DipDrv:  MaxL=1.
 Leave Link  303 at Sun Feb  2 17:24:17 2025, MaxMem=  5368709120 cpu:         0.3
 (Enter /home/k0335/k033513/app/g09/l401.exe)
 ExpMin= 1.69D-01 ExpMax= 7.00D+03 ExpMxC= 1.05D+03 IAcc=1 IRadAn=         1 AccDes= 0.00D+00
 Harris functional with IExCor=20419 and IRadAn=       1 diagonalized for initial guess.
 HarFok:  IExCor=20419 AccDes= 0.00D+00 IRadAn=         1 IDoV= 1 UseB2=F ITyADJ=14
 ICtDFT=  3500011 ScaDFX=  1.000000  1.000000  1.000000  1.000000
 FoFCou: FMM=F IPFlag=           0 FMFlag=      100000 FMFlg1=           0
         NFxFlg=           0 DoJE=T BraDBF=F KetDBF=T FulRan=T
         wScrn=  0.000000 ICntrl=     500 IOpCl=  0 I1Cent=   200000004 NGrid=           0
         NMat0=    1 NMatS0=      1 NMatT0=    0 NMatD0=    1 NMtDS0=    0 NMtDT0=    0
 Symmetry not used in FoFCou.
 Harris En= -1421.50364675246    
 JPrj=0 DoOrth=F DoCkMO=F.
 Initial guess <Sx>= 0.0000 <Sy>= 0.0000 <Sz>= 0.5000 <S**2>= 0.7500 S= 0.5000
 Leave Link  401 at Sun Feb  2 17:24:17 2025, MaxMem=  5368709120 cpu:         3.7
 (Enter /home/k0335/k033513/app/g09/l502.exe)
 UHF open shell SCF:
 Using DIIS extrapolation, IDIIS=  1040.
 Two-electron integral symmetry not used.
 Keep R1 and R2 ints in memory in canonical form, NReq=2687194126.
 IVT=      245386 IEndB=      245386 NGot=  5368709120 MDV=  2691466115
 LenX=  2691466115 LenY=  2691392774
 Requested convergence on RMS density matrix=1.00D-08 within 128 cycles.
 Requested convergence on MAX density matrix=1.00D-06.
 Requested convergence on             energy=1.00D-06.
 No special actions if energy rises.
 FoFCou: FMM=F IPFlag=           0 FMFlag=           0 FMFlg1=           0
         NFxFlg=           0 DoJE=F BraDBF=F KetDBF=F FulRan=T
         wScrn=  0.000000 ICntrl=     600 IOpCl=  0 I1Cent=           0 NGrid=           0
         NMat0=    1 NMatS0=  36585 NMatT0=    0 NMatD0=    1 NMtDS0=    0 NMtDT0=    0
 Symmetry not used in FoFCou.

 Cycle   1  Pass 1  IDiag  1:
 Inv3:  Mode=1 IEnd=    10201008.
 Iteration    1 A*A^-1 deviation from unit magnitude is 6.99D-15 for    450.
 Iteration    1 A*A^-1 deviation from orthogonality  is 2.72D-15 for   1474   1069.
 Iteration    1 A^-1*A deviation from unit magnitude is 6.22D-15 for    448.
 Iteration    1 A^-1*A deviation from orthogonality  is 1.17D-14 for   1787   1781.
 E= -1462.44439118441    
 DIIS: error= 5.28D-02 at cycle   1 NSaved=   1.
 NSaved= 1 IEnMin= 1 EnMin= -1462.44439118441     IErMin= 1 ErrMin= 5.28D-02
 ErrMax= 5.28D-02  0.00D+00 EMaxC= 1.00D-01 BMatC= 5.60D+00 BMatP= 5.60D+00
 IDIUse=3 WtCom= 4.72D-01 WtEn= 5.28D-01
 Coeff-Com:  0.100D+01
 Coeff-En:   0.100D+01
 Coeff:      0.100D+01
 Gap=     0.505 Goal=   None    Shift=    0.000
 Gap=     0.112 Goal=   None    Shift=    0.000
 GapD=    0.112 DampG=1.000 DampE=0.500 DampFc=0.5000 IDamp=-1.
 Damping current iteration by 5.00D-01
 RMSDP=4.63D-03 MaxDP=1.06D-01              OVMax= 1.82D-01

 Cycle   2  Pass 1  IDiag  1:
 E= -1462.76347602578     Delta-E=       -0.319084841364 Rises=F Damp=T
 DIIS: error= 2.43D-02 at cycle   2 NSaved=   2.
 NSaved= 2 IEnMin= 2 EnMin= -1462.76347602578     IErMin= 2 ErrMin= 2.43D-02
 ErrMax= 2.43D-02  0.00D+00 EMaxC= 1.00D-01 BMatC= 5.83D-01 BMatP= 5.60D+00
 IDIUse=3 WtCom= 7.57D-01 WtEn= 2.43D-01
 Coeff-Com: -0.311D+00 0.131D+01
 Coeff-En:   0.000D+00 0.100D+01
 Coeff:     -0.235D+00 0.124D+01
 Gap=     0.489 Goal=   None    Shift=    0.000
 Gap=     0.139 Goal=   None    Shift=    0.000
 RMSDP=1.34D-03 MaxDP=3.36D-02 DE=-3.19D-01 OVMax= 7.45D-02

 Cycle   3  Pass 1  IDiag  1:
 E= -1463.00575583906     Delta-E=       -0.242279813282 Rises=F Damp=F
 DIIS: error= 6.08D-03 at cycle   3 NSaved=   3.
 NSaved= 3 IEnMin= 3 EnMin= -1463.00575583906     IErMin= 3 ErrMin= 6.08D-03
 ErrMax= 6.08D-03  0.00D+00 EMaxC= 1.00D-01 BMatC= 1.69D-01 BMatP= 5.83D-01
 IDIUse=3 WtCom= 9.39D-01 WtEn= 6.08D-02
 Coeff-Com: -0.176D+00 0.579D+00 0.597D+00
 Coeff-En:   0.000D+00 0.000D+00 0.100D+01
 Coeff:     -0.165D+00 0.544D+00 0.622D+00
 Gap=     0.495 Goal=   None    Shift=    0.000
 Gap=     0.150 Goal=   None    Shift=    0.000
 RMSDP=7.43D-04 MaxDP=3.18D-02 DE=-2.42D-01 OVMax= 5.25D-02

 Cycle   4  Pass 1  IDiag  1:
 E= -1463.02946772625     Delta-E=       -0.023711887189 Rises=F Damp=F
 DIIS: error= 2.95D-03 at cycle   4 NSaved=   4.
 NSaved= 4 IEnMin= 4 EnMin= -1463.02946772625     IErMin= 4 ErrMin= 2.95D-03
 ErrMax= 2.95D-03  0.00D+00 EMaxC= 1.00D-01 BMatC= 2.87D-02 BMatP= 1.69D-01
 IDIUse=3 WtCom= 9.71D-01 WtEn= 2.95D-02
 Coeff-Com: -0.230D-01 0.478D-01 0.310D+00 0.665D+00
 Coeff-En:   0.000D+00 0.000D+00 0.150D+00 0.850D+00
 Coeff:     -0.224D-01 0.464D-01 0.306D+00 0.670D+00
 Gap=     0.473 Goal=   None    Shift=    0.000
 Gap=     0.124 Goal=   None    Shift=    0.000
 RMSDP=2.28D-04 MaxDP=8.95D-03 DE=-2.37D-02 OVMax= 9.51D-03

 Cycle   5  Pass 1  IDiag  1:
 E= -1463.03458769385     Delta-E=       -0.005119967602 Rises=F Damp=F
 DIIS: error= 2.78D-04 at cycle   5 NSaved=   5.
 NSaved= 5 IEnMin= 5 EnMin= -1463.03458769385     IErMin= 5 ErrMin= 2.78D-04
 ErrMax= 2.78D-04  0.00D+00 EMaxC= 1.00D-01 BMatC= 2.54D-04 BMatP= 2.87D-02
 IDIUse=3 WtCom= 9.97D-01 WtEn= 2.78D-03
 Coeff-Com: -0.725D-02 0.129D-01 0.124D+00 0.281D+00 0.589D+00
 Coeff-En:   0.000D+00 0.000D+00 0.000D+00 0.000D+00 0.100D+01
 Coeff:     -0.723D-02 0.129D-01 0.124D+00 0.280D+00 0.590D+00
 Gap=     0.473 Goal=   None    Shift=    0.000
 Gap=     0.123 Goal=   None    Shift=    0.000
 RMSDP=3.60D-05 MaxDP=1.83D-03 DE=-5.12D-03 OVMax= 7.48D-03

 Cycle   6  Pass 1  IDiag  1:
 E= -1463.03466115723     Delta-E=       -0.000073463381 Rises=F Damp=F
 DIIS: error= 1.66D-04 at cycle   6 NSaved=   6.
 NSaved= 6 IEnMin= 6 EnMin= -1463.03466115723     IErMin= 6 ErrMin= 1.66D-04
 ErrMax= 1.66D-04  0.00D+00 EMaxC= 1.00D-01 BMatC= 5.23D-05 BMatP= 2.54D-04
 IDIUse=3 WtCom= 9.98D-01 WtEn= 1.66D-03
 Coeff-Com:  0.237D-02-0.559D-02-0.136D-01-0.352D-01 0.234D+00 0.818D+00
 Coeff-En:   0.000D+00 0.000D+00 0.000D+00 0.000D+00 0.000D+00 0.100D+01
 Coeff:      0.237D-02-0.558D-02-0.136D-01-0.352D-01 0.233D+00 0.818D+00
 Gap=     0.475 Goal=   None    Shift=    0.000
 Gap=     0.124 Goal=   None    Shift=    0.000
 RMSDP=3.77D-05 MaxDP=1.85D-03 DE=-7.35D-05 OVMax= 9.97D-03

 Cycle   7  Pass 1  IDiag  1:
 E= -1463.03471157789     Delta-E=       -0.000050420665 Rises=F Damp=F
 DIIS: error= 1.47D-04 at cycle   7 NSaved=   7.
 NSaved= 7 IEnMin= 7 EnMin= -1463.03471157789     IErMin= 7 ErrMin= 1.47D-04
 ErrMax= 1.47D-04  0.00D+00 EMaxC= 1.00D-01 BMatC= 1.61D-05 BMatP= 5.23D-05
 IDIUse=3 WtCom= 9.99D-01 WtEn= 1.47D-03
 Coeff-Com:  0.154D-02-0.311D-02-0.130D-01-0.383D-01 0.233D-01 0.206D+00
 Coeff-Com:  0.824D+00
 Coeff-En:   0.000D+00 0.000D+00 0.000D+00 0.000D+00 0.000D+00 0.000D+00
 Coeff-En:   0.100D+01
 Coeff:      0.153D-02-0.311D-02-0.129D-01-0.383D-01 0.232D-01 0.206D+00
 Coeff:      0.824D+00
 Gap=     0.476 Goal=   None    Shift=    0.000
 Gap=     0.124 Goal=   None    Shift=    0.000
 RMSDP=3.10D-05 MaxDP=1.63D-03 DE=-5.04D-05 OVMax= 9.04D-03

 Cycle   8  Pass 1  IDiag  1:
 E= -1463.03474439579     Delta-E=       -0.000032817896 Rises=F Damp=F
 DIIS: error= 1.33D-04 at cycle   8 NSaved=   8.
 NSaved= 8 IEnMin= 8 EnMin= -1463.03474439579     IErMin= 8 ErrMin= 1.33D-04
 ErrMax= 1.33D-04  0.00D+00 EMaxC= 1.00D-01 BMatC= 1.18D-05 BMatP= 1.61D-05
 IDIUse=3 WtCom= 9.99D-01 WtEn= 1.33D-03
 Coeff-Com: -0.587D-03 0.153D-02 0.844D-02 0.992D-02-0.795D-01-0.364D+00
 Coeff-Com:  0.308D+00 0.112D+01
 Coeff-En:   0.000D+00 0.000D+00 0.000D+00 0.000D+00 0.000D+00 0.000D+00
 Coeff-En:   0.000D+00 0.100D+01
 Coeff:     -0.586D-03 0.153D-02 0.843D-02 0.991D-02-0.794D-01-0.363D+00
 Coeff:      0.307D+00 0.112D+01
 Gap=     0.478 Goal=   None    Shift=    0.000
 Gap=     0.124 Goal=   None    Shift=    0.000
 RMSDP=4.73D-05 MaxDP=2.68D-03 DE=-3.28D-05 OVMax= 1.40D-02

 Cycle   9  Pass 1  IDiag  1:
 E= -1463.03478701091     Delta-E=       -0.000042615120 Rises=F Damp=F
 DIIS: error= 1.06D-04 at cycle   9 NSaved=   9.
 NSaved= 9 IEnMin= 9 EnMin= -1463.03478701091     IErMin= 9 ErrMin= 1.06D-04
 ErrMax= 1.06D-04  0.00D+00 EMaxC= 1.00D-01 BMatC= 9.20D-06 BMatP= 1.18D-05
 IDIUse=3 WtCom= 9.99D-01 WtEn= 1.06D-03
 Coeff-Com: -0.157D-02 0.338D-02 0.214D-01 0.428D-01-0.515D-01-0.441D+00
 Coeff-Com: -0.300D+00 0.690D+00 0.104D+01
 Coeff-En:   0.000D+00 0.000D+00 0.000D+00 0.000D+00 0.000D+00 0.000D+00
 Coeff-En:   0.000D+00 0.000D+00 0.100D+01
 Coeff:     -0.157D-02 0.338D-02 0.214D-01 0.427D-01-0.514D-01-0.440D+00
 Coeff:     -0.300D+00 0.690D+00 0.104D+01
 Gap=     0.480 Goal=   None    Shift=    0.000
 Gap=     0.124 Goal=   None    Shift=    0.000
 RMSDP=5.67D-05 MaxDP=3.29D-03 DE=-4.26D-05 OVMax= 1.69D-02

 Cycle  10  Pass 1  IDiag  1:
 E= -1463.03482791314     Delta-E=       -0.000040902230 Rises=F Damp=F
 DIIS: error= 7.75D-05 at cycle  10 NSaved=  10.
 NSaved=10 IEnMin=10 EnMin= -1463.03482791314     IErMin=10 ErrMin= 7.75D-05
 ErrMax= 7.75D-05  0.00D+00 EMaxC= 1.00D-01 BMatC= 5.61D-06 BMatP= 9.20D-06
 IDIUse=1 WtCom= 1.00D+00 WtEn= 0.00D+00
 Coeff-Com:  0.270D-03-0.818D-03 0.426D-02 0.982D-02 0.864D-01 0.163D+00
 Coeff-Com: -0.138D+00-0.102D+01-0.512D+00 0.241D+01
 Coeff:      0.270D-03-0.818D-03 0.426D-02 0.982D-02 0.864D-01 0.163D+00
 Coeff:     -0.138D+00-0.102D+01-0.512D+00 0.241D+01
 Gap=     0.485 Goal=   None    Shift=    0.000
 Gap=     0.124 Goal=   None    Shift=    0.000
 RMSDP=1.14D-04 MaxDP=6.85D-03 DE=-4.09D-05 OVMax= 3.42D-02

 Cycle  11  Pass 1  IDiag  1:
 E= -1463.03487815308     Delta-E=       -0.000050239934 Rises=F Damp=F
 DIIS: error= 3.46D-05 at cycle  11 NSaved=  11.
 NSaved=11 IEnMin=11 EnMin= -1463.03487815308     IErMin=11 ErrMin= 3.46D-05
 ErrMax= 3.46D-05  0.00D+00 EMaxC= 1.00D-01 BMatC= 2.68D-06 BMatP= 5.61D-06
 IDIUse=1 WtCom= 1.00D+00 WtEn= 0.00D+00
 Coeff-Com:  0.127D-02-0.269D-02-0.107D-01-0.258D-01 0.502D-01 0.249D+00
 Coeff-Com:  0.446D+00-0.554D+00-0.123D+01 0.883D+00 0.120D+01
 Coeff:      0.127D-02-0.269D-02-0.107D-01-0.258D-01 0.502D-01 0.249D+00
 Coeff:      0.446D+00-0.554D+00-0.123D+01 0.883D+00 0.120D+01
 Gap=     0.487 Goal=   None    Shift=    0.000
 Gap=     0.124 Goal=   None    Shift=    0.000
 RMSDP=5.10D-05 MaxDP=3.21D-03 DE=-5.02D-05 OVMax= 1.51D-02

 Cycle  12  Pass 1  IDiag  1:
 E= -1463.03488822453     Delta-E=       -0.000010071450 Rises=F Damp=F
 DIIS: error= 1.91D-05 at cycle  12 NSaved=  12.
 NSaved=12 IEnMin=12 EnMin= -1463.03488822453     IErMin=12 ErrMin= 1.91D-05
 ErrMax= 1.91D-05  0.00D+00 EMaxC= 1.00D-01 BMatC= 6.58D-07 BMatP= 2.68D-06
 IDIUse=1 WtCom= 1.00D+00 WtEn= 0.00D+00
 Coeff-Com:  0.496D-03-0.947D-03-0.580D-02-0.150D-01-0.737D-02 0.343D-01
 Coeff-Com:  0.311D+00 0.971D-01-0.483D+00-0.314D+00 0.492D+00 0.891D+00
 Coeff:      0.496D-03-0.947D-03-0.580D-02-0.150D-01-0.737D-02 0.343D-01
 Coeff:      0.311D+00 0.971D-01-0.483D+00-0.314D+00 0.492D+00 0.891D+00
 Gap=     0.488 Goal=   None    Shift=    0.000
 Gap=     0.124 Goal=   None    Shift=    0.000
 RMSDP=1.72D-05 MaxDP=1.09D-03 DE=-1.01D-05 OVMax= 4.93D-03

 Cycle  13  Pass 1  IDiag  1:
 E= -1463.03489001837     Delta-E=       -0.000001793841 Rises=F Damp=F
 DIIS: error= 1.40D-05 at cycle  13 NSaved=  13.
 NSaved=13 IEnMin=13 EnMin= -1463.03489001837     IErMin=13 ErrMin= 1.40D-05
 ErrMax= 1.40D-05  0.00D+00 EMaxC= 1.00D-01 BMatC= 2.07D-07 BMatP= 6.58D-07
 IDIUse=1 WtCom= 1.00D+00 WtEn= 0.00D+00
 Coeff-Com: -0.302D-03 0.679D-03 0.204D-02 0.427D-02-0.191D-01-0.868D-01
 Coeff-Com: -0.331D-01 0.220D+00 0.265D+00-0.394D+00-0.298D+00 0.367D+00
 Coeff-Com:  0.972D+00
 Coeff:     -0.302D-03 0.679D-03 0.204D-02 0.427D-02-0.191D-01-0.868D-01
 Coeff:     -0.331D-01 0.220D+00 0.265D+00-0.394D+00-0.298D+00 0.367D+00
 Coeff:      0.972D+00
 Gap=     0.489 Goal=   None    Shift=    0.000
 Gap=     0.124 Goal=   None    Shift=    0.000
 RMSDP=7.14D-06 MaxDP=4.28D-04 DE=-1.79D-06 OVMax= 1.81D-03

 Cycle  14  Pass 1  IDiag  1:
 E= -1463.03489052652     Delta-E=       -0.000000508151 Rises=F Damp=F
 DIIS: error= 6.29D-06 at cycle  14 NSaved=  14.
 NSaved=14 IEnMin=14 EnMin= -1463.03489052652     IErMin=14 ErrMin= 6.29D-06
 ErrMax= 6.29D-06  0.00D+00 EMaxC= 1.00D-01 BMatC= 3.54D-08 BMatP= 2.07D-07
 IDIUse=1 WtCom= 1.00D+00 WtEn= 0.00D+00
 Coeff-Com: -0.143D-03 0.296D-03 0.130D-02 0.315D-02-0.301D-02-0.274D-01
 Coeff-Com: -0.459D-01 0.322D-01 0.140D+00-0.713D-01-0.158D+00-0.311D-01
 Coeff-Com:  0.121D+00 0.104D+01
 Coeff:     -0.143D-03 0.296D-03 0.130D-02 0.315D-02-0.301D-02-0.274D-01
 Coeff:     -0.459D-01 0.322D-01 0.140D+00-0.713D-01-0.158D+00-0.311D-01
 Coeff:      0.121D+00 0.104D+01
 Gap=     0.489 Goal=   None    Shift=    0.000
 Gap=     0.124 Goal=   None    Shift=    0.000
 RMSDP=5.92D-06 MaxDP=3.80D-04 DE=-5.08D-07 OVMax= 1.64D-03

 Cycle  15  Pass 1  IDiag  1:
 E= -1463.03489071729     Delta-E=       -0.000000190772 Rises=F Damp=F
 DIIS: error= 3.47D-06 at cycle  15 NSaved=  15.
 NSaved=15 IEnMin=15 EnMin= -1463.03489071729     IErMin=15 ErrMin= 3.47D-06
 ErrMax= 3.47D-06  0.00D+00 EMaxC= 1.00D-01 BMatC= 2.46D-08 BMatP= 3.54D-08
 IDIUse=1 WtCom= 1.00D+00 WtEn= 0.00D+00
 Coeff-Com: -0.185D-04 0.340D-04 0.254D-03 0.630D-03 0.102D-02-0.380D-03
 Coeff-Com: -0.937D-02-0.996D-02 0.217D-01-0.824D-02-0.237D-01-0.734D-01
 Coeff-Com: -0.185D+00 0.550D+00 0.737D+00
 Coeff:     -0.185D-04 0.340D-04 0.254D-03 0.630D-03 0.102D-02-0.380D-03
 Coeff:     -0.937D-02-0.996D-02 0.217D-01-0.824D-02-0.237D-01-0.734D-01
 Coeff:     -0.185D+00 0.550D+00 0.737D+00
 Gap=     0.489 Goal=   None    Shift=    0.000
 Gap=     0.124 Goal=   None    Shift=    0.000
 RMSDP=4.65D-06 MaxDP=2.82D-04 DE=-1.91D-07 OVMax= 1.30D-03

 Cycle  16  Pass 1  IDiag  1:
 E= -1463.03489076737     Delta-E=       -0.000000050076 Rises=F Damp=F
 DIIS: error= 1.96D-06 at cycle  16 NSaved=  16.
 NSaved=16 IEnMin=16 EnMin= -1463.03489076737     IErMin=16 ErrMin= 1.96D-06
 ErrMax= 1.96D-06  0.00D+00 EMaxC= 1.00D-01 BMatC= 3.29D-09 BMatP= 2.46D-08
 IDIUse=1 WtCom= 1.00D+00 WtEn= 0.00D+00
 Coeff-Com:  0.223D-04-0.510D-04-0.219D-04-0.140D-03 0.195D-02 0.577D-02
 Coeff-Com:  0.110D-02-0.209D-01-0.182D-01 0.442D-01 0.211D-01-0.261D-01
 Coeff-Com: -0.100D+00-0.490D-01 0.188D+00 0.953D+00
 Coeff:      0.223D-04-0.510D-04-0.219D-04-0.140D-03 0.195D-02 0.577D-02
 Coeff:      0.110D-02-0.209D-01-0.182D-01 0.442D-01 0.211D-01-0.261D-01
 Coeff:     -0.100D+00-0.490D-01 0.188D+00 0.953D+00
 Gap=     0.489 Goal=   None    Shift=    0.000
 Gap=     0.124 Goal=   None    Shift=    0.000
 RMSDP=8.28D-07 MaxDP=3.58D-05 DE=-5.01D-08 OVMax= 1.95D-04

 Cycle  17  Pass 1  IDiag  1:
 E= -1463.03489077505     Delta-E=       -0.000000007681 Rises=F Damp=F
 DIIS: error= 1.10D-06 at cycle  17 NSaved=  17.
 NSaved=17 IEnMin=17 EnMin= -1463.03489077505     IErMin=17 ErrMin= 1.10D-06
 ErrMax= 1.10D-06  0.00D+00 EMaxC= 1.00D-01 BMatC= 1.32D-09 BMatP= 3.29D-09
 IDIUse=1 WtCom= 1.00D+00 WtEn= 0.00D+00
 Coeff-Com:  0.157D-04-0.368D-04-0.473D-04-0.128D-03 0.145D-02 0.493D-02
 Coeff-Com: -0.101D-02-0.156D-01-0.865D-02 0.315D-01 0.115D-01-0.154D-01
 Coeff-Com: -0.350D-01-0.492D-01-0.416D-01 0.343D+00 0.775D+00
 Coeff:      0.157D-04-0.368D-04-0.473D-04-0.128D-03 0.145D-02 0.493D-02
 Coeff:     -0.101D-02-0.156D-01-0.865D-02 0.315D-01 0.115D-01-0.154D-01
 Coeff:     -0.350D-01-0.492D-01-0.416D-01 0.343D+00 0.775D+00
 Gap=     0.489 Goal=   None    Shift=    0.000
 Gap=     0.124 Goal=   None    Shift=    0.000
 RMSDP=4.17D-07 MaxDP=1.97D-05 DE=-7.68D-09 OVMax= 1.01D-04

 Cycle  18  Pass 1  IDiag  1:
 E= -1463.03489077697     Delta-E=       -0.000000001926 Rises=F Damp=F
 DIIS: error= 7.04D-07 at cycle  18 NSaved=  18.
 NSaved=18 IEnMin=18 EnMin= -1463.03489077697     IErMin=18 ErrMin= 7.04D-07
 ErrMax= 7.04D-07  0.00D+00 EMaxC= 1.00D-01 BMatC= 4.77D-10 BMatP= 1.32D-09
 IDIUse=1 WtCom= 1.00D+00 WtEn= 0.00D+00
 Coeff-Com:  0.424D-05-0.940D-05-0.777D-04-0.138D-03 0.214D-03 0.179D-02
 Coeff-Com: -0.644D-03-0.288D-02 0.112D-02-0.255D-02 0.117D-02 0.854D-03
 Coeff-Com:  0.163D-01 0.183D-01-0.104D+00-0.264D+00 0.176D+00 0.116D+01
 Coeff:      0.424D-05-0.940D-05-0.777D-04-0.138D-03 0.214D-03 0.179D-02
 Coeff:     -0.644D-03-0.288D-02 0.112D-02-0.255D-02 0.117D-02 0.854D-03
 Coeff:      0.163D-01 0.183D-01-0.104D+00-0.264D+00 0.176D+00 0.116D+01
 Gap=     0.489 Goal=   None    Shift=    0.000
 Gap=     0.124 Goal=   None    Shift=    0.000
 RMSDP=4.66D-07 MaxDP=1.81D-05 DE=-1.93D-09 OVMax= 8.54D-05

 Cycle  19  Pass 1  IDiag  1:
 E= -1463.03489077893     Delta-E=       -0.000000001956 Rises=F Damp=F
 DIIS: error= 4.72D-07 at cycle  19 NSaved=  19.
 NSaved=19 IEnMin=19 EnMin= -1463.03489077893     IErMin=19 ErrMin= 4.72D-07
 ErrMax= 4.72D-07  0.00D+00 EMaxC= 1.00D-01 BMatC= 1.76D-10 BMatP= 4.77D-10
 IDIUse=1 WtCom= 1.00D+00 WtEn= 0.00D+00
 Coeff-Com: -0.337D-05 0.803D-05 0.584D-05 0.186D-04-0.297D-03-0.112D-02
 Coeff-Com: -0.363D-03 0.337D-02 0.364D-02-0.893D-02-0.443D-02 0.272D-02
 Coeff-Com:  0.134D-01 0.305D-01-0.277D-01-0.643D-01-0.285D+00 0.177D+00
 Coeff-Com:  0.116D+01
 Coeff:     -0.337D-05 0.803D-05 0.584D-05 0.186D-04-0.297D-03-0.112D-02
 Coeff:     -0.363D-03 0.337D-02 0.364D-02-0.893D-02-0.443D-02 0.272D-02
 Coeff:      0.134D-01 0.305D-01-0.277D-01-0.643D-01-0.285D+00 0.177D+00
 Coeff:      0.116D+01
 Gap=     0.489 Goal=   None    Shift=    0.000
 Gap=     0.124 Goal=   None    Shift=    0.000
 RMSDP=3.22D-07 MaxDP=1.39D-05 DE=-1.96D-09 OVMax= 6.14D-05

 Cycle  20  Pass 1  IDiag  1:
 E= -1463.03489077960     Delta-E=       -0.000000000672 Rises=F Damp=F
 DIIS: error= 1.97D-07 at cycle  20 NSaved=  20.
 NSaved=20 IEnMin=20 EnMin= -1463.03489077960     IErMin=20 ErrMin= 1.97D-07
 ErrMax= 1.97D-07  0.00D+00 EMaxC= 1.00D-01 BMatC= 1.09D-10 BMatP= 1.76D-10
 IDIUse=1 WtCom= 1.00D+00 WtEn= 0.00D+00
 Coeff-Com: -0.320D-05 0.681D-05 0.436D-04 0.911D-04-0.565D-04-0.967D-03
 Coeff-Com: -0.519D-03 0.130D-02 0.151D-02 0.144D-03-0.360D-02-0.292D-02
 Coeff-Com: -0.255D-02 0.214D-01 0.218D-01 0.848D-01-0.275D+00-0.396D+00
 Coeff-Com:  0.679D+00 0.871D+00
 Coeff:     -0.320D-05 0.681D-05 0.436D-04 0.911D-04-0.565D-04-0.967D-03
 Coeff:     -0.519D-03 0.130D-02 0.151D-02 0.144D-03-0.360D-02-0.292D-02
 Coeff:     -0.255D-02 0.214D-01 0.218D-01 0.848D-01-0.275D+00-0.396D+00
 Coeff:      0.679D+00 0.871D+00
 Gap=     0.489 Goal=   None    Shift=    0.000
 Gap=     0.124 Goal=   None    Shift=    0.000
 RMSDP=1.51D-07 MaxDP=3.02D-06 DE=-6.72D-10 OVMax= 3.04D-05

 Cycle  21  Pass 1  IDiag  1:
 E= -1463.03489077980     Delta-E=       -0.000000000196 Rises=F Damp=F
 DIIS: error= 1.16D-07 at cycle  21 NSaved=  20.
 NSaved=20 IEnMin=20 EnMin= -1463.03489077980     IErMin=20 ErrMin= 1.16D-07
 ErrMax= 1.16D-07  0.00D+00 EMaxC= 1.00D-01 BMatC= 2.88D-11 BMatP= 1.09D-10
 IDIUse=1 WtCom= 1.00D+00 WtEn= 0.00D+00
 Coeff-Com: -0.517D-06 0.175D-04 0.394D-04 0.163D-03 0.150D-03-0.274D-03
 Coeff-Com: -0.150D-02-0.982D-03 0.457D-02-0.149D-03-0.414D-02-0.835D-02
 Coeff-Com:  0.101D-01 0.264D-01 0.515D-01-0.115D+00-0.186D+00 0.156D+00
 Coeff-Com:  0.157D+00 0.910D+00
 Coeff:     -0.517D-06 0.175D-04 0.394D-04 0.163D-03 0.150D-03-0.274D-03
 Coeff:     -0.150D-02-0.982D-03 0.457D-02-0.149D-03-0.414D-02-0.835D-02
 Coeff:      0.101D-01 0.264D-01 0.515D-01-0.115D+00-0.186D+00 0.156D+00
 Coeff:      0.157D+00 0.910D+00
 Gap=     0.489 Goal=   None    Shift=    0.000
 Gap=     0.124 Goal=   None    Shift=    0.000
 RMSDP=8.61D-08 MaxDP=3.86D-06 DE=-1.96D-10 OVMax= 2.14D-05

 Cycle  22  Pass 1  IDiag  1:
 E= -1463.03489077986     Delta-E=       -0.000000000066 Rises=F Damp=F
 DIIS: error= 1.10D-07 at cycle  22 NSaved=  20.
 NSaved=20 IEnMin=20 EnMin= -1463.03489077986     IErMin=20 ErrMin= 1.10D-07
 ErrMax= 1.10D-07  0.00D+00 EMaxC= 1.00D-01 BMatC= 9.25D-12 BMatP= 2.88D-11
 IDIUse=1 WtCom= 1.00D+00 WtEn= 0.00D+00
 Coeff-Com: -0.724D-06-0.273D-05 0.190D-04 0.131D-03-0.236D-04-0.414D-03
 Coeff-Com: -0.498D-03 0.557D-03 0.511D-03 0.559D-03 0.286D-03-0.618D-02
 Coeff-Com: -0.277D-02 0.695D-03 0.452D-01 0.907D-01-0.114D+00-0.443D+00
 Coeff-Com:  0.223D+00 0.121D+01
 Coeff:     -0.724D-06-0.273D-05 0.190D-04 0.131D-03-0.236D-04-0.414D-03
 Coeff:     -0.498D-03 0.557D-03 0.511D-03 0.559D-03 0.286D-03-0.618D-02
 Coeff:     -0.277D-02 0.695D-03 0.452D-01 0.907D-01-0.114D+00-0.443D+00
 Coeff:      0.223D+00 0.121D+01
 Gap=     0.489 Goal=   None    Shift=    0.000
 Gap=     0.124 Goal=   None    Shift=    0.000
 RMSDP=6.10D-08 MaxDP=2.52D-06 DE=-6.64D-11 OVMax= 1.26D-05

 Cycle  23  Pass 1  IDiag  1:
 E= -1463.03489077988     Delta-E=       -0.000000000012 Rises=F Damp=F
 DIIS: error= 4.93D-08 at cycle  23 NSaved=  20.
 NSaved=20 IEnMin=20 EnMin= -1463.03489077988     IErMin=20 ErrMin= 4.93D-08
 ErrMax= 4.93D-08  0.00D+00 EMaxC= 1.00D-01 BMatC= 4.48D-12 BMatP= 9.25D-12
 IDIUse=1 WtCom= 1.00D+00 WtEn= 0.00D+00
 Coeff-Com: -0.373D-05-0.256D-04-0.182D-04 0.843D-04 0.288D-03-0.455D-04
 Coeff-Com: -0.610D-03 0.482D-04 0.131D-02 0.216D-02-0.759D-02-0.100D-01
 Coeff-Com:  0.517D-02 0.475D-01 0.565D-01-0.730D-01-0.256D+00-0.806D-01
 Coeff-Com:  0.539D+00 0.776D+00
 Coeff:     -0.373D-05-0.256D-04-0.182D-04 0.843D-04 0.288D-03-0.455D-04
 Coeff:     -0.610D-03 0.482D-04 0.131D-02 0.216D-02-0.759D-02-0.100D-01
 Coeff:      0.517D-02 0.475D-01 0.565D-01-0.730D-01-0.256D+00-0.806D-01
 Coeff:      0.539D+00 0.776D+00
 Gap=     0.489 Goal=   None    Shift=    0.000
 Gap=     0.124 Goal=   None    Shift=    0.000
 RMSDP=2.31D-08 MaxDP=5.76D-07 DE=-1.23D-11 OVMax= 4.98D-06

 Cycle  24  Pass 1  IDiag  1:
 E= -1463.03489077989     Delta-E=       -0.000000000012 Rises=F Damp=F
 DIIS: error= 3.39D-08 at cycle  24 NSaved=  20.
 NSaved=20 IEnMin=20 EnMin= -1463.03489077989     IErMin=20 ErrMin= 3.39D-08
 ErrMax= 3.39D-08  0.00D+00 EMaxC= 1.00D-01 BMatC= 1.30D-12 BMatP= 4.48D-12
 IDIUse=1 WtCom= 1.00D+00 WtEn= 0.00D+00
 Coeff-Com: -0.920D-05-0.369D-04-0.586D-04 0.936D-04 0.279D-03-0.305D-03
 Coeff-Com: -0.382D-03 0.194D-03 0.796D-03 0.226D-02-0.177D-02-0.761D-02
 Coeff-Com: -0.144D-01 0.102D-01 0.482D-01 0.242D-01-0.164D+00-0.242D+00
 Coeff-Com:  0.213D+00 0.113D+01
 Coeff:     -0.920D-05-0.369D-04-0.586D-04 0.936D-04 0.279D-03-0.305D-03
 Coeff:     -0.382D-03 0.194D-03 0.796D-03 0.226D-02-0.177D-02-0.761D-02
 Coeff:     -0.144D-01 0.102D-01 0.482D-01 0.242D-01-0.164D+00-0.242D+00
 Coeff:      0.213D+00 0.113D+01
 Gap=     0.489 Goal=   None    Shift=    0.000
 Gap=     0.124 Goal=   None    Shift=    0.000
 RMSDP=2.14D-08 MaxDP=6.21D-07 DE=-1.23D-11 OVMax= 4.05D-06

 Cycle  25  Pass 1  IDiag  1:
 E= -1463.03489077988     Delta-E=        0.000000000009 Rises=F Damp=F
 DIIS: error= 1.36D-08 at cycle  25 NSaved=  20.
 NSaved=20 IEnMin=19 EnMin= -1463.03489077989     IErMin=20 ErrMin= 1.36D-08
 ErrMax= 1.36D-08  0.00D+00 EMaxC= 1.00D-01 BMatC= 1.08D-13 BMatP= 1.30D-12
 IDIUse=1 WtCom= 1.00D+00 WtEn= 0.00D+00
 Coeff-Com: -0.128D-04 0.301D-05 0.277D-04-0.104D-04 0.644D-05-0.470D-04
 Coeff-Com: -0.929D-04-0.316D-03 0.974D-03 0.168D-02 0.160D-02-0.122D-01
 Coeff-Com: -0.114D-01 0.266D-01 0.384D-01 0.235D-03-0.820D-01-0.111D+00
 Coeff-Com:  0.182D-01 0.113D+01
 Coeff:     -0.128D-04 0.301D-05 0.277D-04-0.104D-04 0.644D-05-0.470D-04
 Coeff:     -0.929D-04-0.316D-03 0.974D-03 0.168D-02 0.160D-02-0.122D-01
 Coeff:     -0.114D-01 0.266D-01 0.384D-01 0.235D-03-0.820D-01-0.111D+00
 Coeff:      0.182D-01 0.113D+01
 Gap=     0.489 Goal=   None    Shift=    0.000
 Gap=     0.124 Goal=   None    Shift=    0.000
 RMSDP=4.72D-09 MaxDP=1.75D-07 DE= 9.09D-12 OVMax= 7.17D-07

 Error on total polarization charges =  0.00065
 SCF Done:  E(UCAM-B3LYP) =  -1463.03489078     A.U. after   25 cycles
            NFock= 25  Conv=0.47D-08     -V/T= 2.0072
 <Sx>= 0.0000 <Sy>= 0.0000 <Sz>= 0.5000 <S**2>= 0.7531 S= 0.5015
 <L.S>= 0.000000000000E+00
 KE= 1.452582961114D+03 PE=-7.052524207436D+03 EE= 2.331515044829D+03
 Annihilation of the first spin contaminant:
 S**2 before annihilation     0.7531,   after     0.7500
 Leave Link  502 at Sun Feb  2 17:24:54 2025, MaxMem=  5368709120 cpu:       343.7
 (Enter /home/k0335/k033513/app/g09/l601.exe)
 Copying SCF densities to generalized density rwf, IOpCl= 1 IROHF=0.

 **********************************************************************

            Population analysis using the SCF density.

 **********************************************************************

 Alpha  occ. eigenvalues --  -24.95928 -24.95679 -24.95256 -24.94909 -24.92878
 Alpha  occ. eigenvalues --  -24.92581 -24.91461 -24.91460 -24.90792 -24.89734
 Alpha  occ. eigenvalues --  -24.88345 -24.88296 -19.43876 -10.65879 -10.65226
 Alpha  occ. eigenvalues --  -10.64830 -10.63726 -10.63101  -1.52052  -1.50298
 Alpha  occ. eigenvalues --   -1.49386  -1.48298  -1.47022  -1.43688  -1.43081
 Alpha  occ. eigenvalues --   -1.41914  -1.40476  -1.39879  -1.38868  -1.37740
 Alpha  occ. eigenvalues --   -1.31031  -1.07497  -0.98841  -0.92294  -0.88144
 Alpha  occ. eigenvalues --   -0.83980  -0.82251  -0.81387  -0.80680  -0.79283
 Alpha  occ. eigenvalues --   -0.77970  -0.77568  -0.75960  -0.75417  -0.74689
 Alpha  occ. eigenvalues --   -0.74376  -0.73733  -0.69496  -0.67759  -0.67158
 Alpha  occ. eigenvalues --   -0.66540  -0.65085  -0.64969  -0.64541  -0.63543
 Alpha  occ. eigenvalues --   -0.63264  -0.62977  -0.61931  -0.61838  -0.61333
 Alpha  occ. eigenvalues --   -0.61119  -0.60293  -0.59994  -0.59009  -0.58657
 Alpha  occ. eigenvalues --   -0.58220  -0.57832  -0.57219  -0.56766  -0.56178
 Alpha  occ. eigenvalues --   -0.55668  -0.54872  -0.54631
 Alpha virt. eigenvalues --   -0.05737  -0.04500   0.03113   0.04029   0.10316
 Alpha virt. eigenvalues --    0.11762   0.13026   0.14612   0.14694   0.16343
 Alpha virt. eigenvalues --    0.17865   0.18105   0.18515   0.19082   0.21725
 Alpha virt. eigenvalues --    0.22901   0.24097   0.39934   0.42720   0.42952
 Alpha virt. eigenvalues --    0.44221   0.46077   0.46812   0.48160   0.48716
 Alpha virt. eigenvalues --    0.49505   0.51776   0.54649   0.55326   0.58035
 Alpha virt. eigenvalues --    0.63510   0.64396   0.65413   0.78453   0.80255
 Alpha virt. eigenvalues --    0.84692   0.86355   0.93521   0.93932   0.95986
 Alpha virt. eigenvalues --    0.98560   1.00962   1.02162   1.04491   1.06241
 Alpha virt. eigenvalues --    1.06986   1.07647   1.07970   1.09030   1.10806
 Alpha virt. eigenvalues --    1.12091   1.14196   1.17655   1.17793   1.20448
 Alpha virt. eigenvalues --    1.21941   1.22128   1.22858   1.24058   1.26377
 Alpha virt. eigenvalues --    1.26808   1.27723   1.28916   1.29304   1.30395
 Alpha virt. eigenvalues --    1.31244   1.31893   1.32861   1.33329   1.33636
 Alpha virt. eigenvalues --    1.34252   1.35447   1.36013   1.36598   1.37374
 Alpha virt. eigenvalues --    1.37952   1.38328   1.40339   1.41677   1.43026
 Alpha virt. eigenvalues --    1.46303   1.46769   1.48778   1.52867   1.53985
 Alpha virt. eigenvalues --    1.55566   1.56888   1.59773   1.62541   1.63370
 Alpha virt. eigenvalues --    1.64544   1.64857   1.66194   1.68106   1.69576
 Alpha virt. eigenvalues --    1.72011   1.72700   1.74198   1.75528   1.75875
 Alpha virt. eigenvalues --    1.77961   1.78301   1.79354   1.80031   1.81672
 Alpha virt. eigenvalues --    1.82782   1.84293   1.84955   1.85282   1.86223
 Alpha virt. eigenvalues --    1.86854   1.88178   1.89689   1.90811   1.91269
 Alpha virt. eigenvalues --    1.93298   1.94883   1.95639   1.96446   1.97324
 Alpha virt. eigenvalues --    1.97597   1.98166   1.98922   1.99200   1.99565
 Alpha virt. eigenvalues --    2.00833   2.01531   2.04303   2.04634   2.05660
 Alpha virt. eigenvalues --    2.08323   2.10067   2.10517   2.12921   2.14038
 Alpha virt. eigenvalues --    2.17226   2.19791   2.21736   2.27130   2.27791
 Alpha virt. eigenvalues --    2.31336   2.31720   2.32648   2.33686   2.35820
 Alpha virt. eigenvalues --    2.39653   2.41198   2.44708   2.46390   2.48459
 Alpha virt. eigenvalues --    2.51802   2.54715   2.55897   2.62081   2.63413
 Alpha virt. eigenvalues --    2.68426   2.69537   2.75451   2.75694   2.77388
 Alpha virt. eigenvalues --    2.80510   2.81219   2.81716   2.84430   2.88325
 Alpha virt. eigenvalues --    2.90346   2.95672   2.98251   2.99871   3.00763
 Alpha virt. eigenvalues --    3.01510   3.04039   3.05598   3.08542   3.11851
 Alpha virt. eigenvalues --    3.13494   3.16463   3.20429   3.21409   3.97551
 Alpha virt. eigenvalues --    4.09502   4.23622   4.30822   4.33251   4.42885
 Alpha virt. eigenvalues --    4.49595   4.55381   4.72202   4.83208   4.98819
 Alpha virt. eigenvalues --    5.06544   5.37094   5.48838   5.75570   5.87772
 Alpha virt. eigenvalues --    6.21848   6.58973
  Beta  occ. eigenvalues --  -24.95599 -24.95342 -24.94936 -24.94602 -24.92739
  Beta  occ. eigenvalues --  -24.92412 -24.91370 -24.91359 -24.90671 -24.89657
  Beta  occ. eigenvalues --  -24.88328 -24.88266 -19.43471 -10.65889 -10.65118
  Beta  occ. eigenvalues --  -10.64722 -10.63479 -10.62866  -1.51494  -1.49929
  Beta  occ. eigenvalues --   -1.48979  -1.47818  -1.46752  -1.42966  -1.42377
  Beta  occ. eigenvalues --   -1.41510  -1.40219  -1.39598  -1.38734  -1.37675
  Beta  occ. eigenvalues --   -1.30196  -1.06267  -0.97734  -0.90994  -0.87252
  Beta  occ. eigenvalues --   -0.83667  -0.81614  -0.80905  -0.80291  -0.78922
  Beta  occ. eigenvalues --   -0.77613  -0.77166  -0.75588  -0.75060  -0.74425
  Beta  occ. eigenvalues --   -0.74118  -0.73397  -0.69045  -0.67030  -0.66129
  Beta  occ. eigenvalues --   -0.64741  -0.63806  -0.63546  -0.62917  -0.62563
  Beta  occ. eigenvalues --   -0.62458  -0.61881  -0.61606  -0.61126  -0.60876
  Beta  occ. eigenvalues --   -0.60139  -0.59853  -0.59240  -0.58588  -0.58094
  Beta  occ. eigenvalues --   -0.57866  -0.57294  -0.56597  -0.56340  -0.55138
  Beta  occ. eigenvalues --   -0.54717  -0.52152
  Beta virt. eigenvalues --   -0.39767  -0.05251  -0.03847   0.03702   0.04617
  Beta virt. eigenvalues --    0.10858   0.12379   0.13337   0.14894   0.15331
  Beta virt. eigenvalues --    0.16633   0.18150   0.18459   0.18867   0.19380
  Beta virt. eigenvalues --    0.22130   0.23772   0.24555   0.40118   0.42932
  Beta virt. eigenvalues --    0.43120   0.44462   0.46205   0.46999   0.48336
  Beta virt. eigenvalues --    0.48814   0.49672   0.52027   0.54935   0.55690
  Beta virt. eigenvalues --    0.58360   0.63927   0.64795   0.65651   0.78730
  Beta virt. eigenvalues --    0.80510   0.85064   0.86652   0.93822   0.94287
  Beta virt. eigenvalues --    0.96288   0.98824   1.01172   1.02357   1.04639
  Beta virt. eigenvalues --    1.06370   1.07153   1.07832   1.08212   1.09164
  Beta virt. eigenvalues --    1.10934   1.12231   1.14520   1.17781   1.17987
  Beta virt. eigenvalues --    1.20628   1.22312   1.22536   1.23179   1.24245
  Beta virt. eigenvalues --    1.26850   1.27106   1.28196   1.29328   1.29803
  Beta virt. eigenvalues --    1.30652   1.31475   1.32137   1.33008   1.33501
  Beta virt. eigenvalues --    1.33835   1.34517   1.35670   1.36175   1.36960
  Beta virt. eigenvalues --    1.37525   1.38215   1.38503   1.40670   1.41880
  Beta virt. eigenvalues --    1.43322   1.46529   1.46920   1.48999   1.53054
  Beta virt. eigenvalues --    1.54177   1.55794   1.57145   1.60251   1.62932
  Beta virt. eigenvalues --    1.63719   1.64820   1.65150   1.66460   1.68373
  Beta virt. eigenvalues --    1.69822   1.72236   1.73071   1.74527   1.75808
  Beta virt. eigenvalues --    1.76220   1.78214   1.78456   1.79661   1.80364
  Beta virt. eigenvalues --    1.81877   1.83026   1.84647   1.85265   1.85535
  Beta virt. eigenvalues --    1.86424   1.87172   1.88489   1.90040   1.91256
  Beta virt. eigenvalues --    1.91582   1.93504   1.95211   1.95799   1.96599
  Beta virt. eigenvalues --    1.97416   1.97786   1.98346   1.99151   1.99437
  Beta virt. eigenvalues --    1.99790   2.01167   2.01718   2.04367   2.04660
  Beta virt. eigenvalues --    2.05860   2.08612   2.10432   2.10775   2.13270
  Beta virt. eigenvalues --    2.14204   2.17467   2.20190   2.22099   2.27442
  Beta virt. eigenvalues --    2.28102   2.31662   2.31995   2.32948   2.33970
  Beta virt. eigenvalues --    2.36099   2.39976   2.41619   2.44961   2.46686
  Beta virt. eigenvalues --    2.48756   2.52173   2.54960   2.56321   2.62492
  Beta virt. eigenvalues --    2.63708   2.68855   2.69768   2.75605   2.75934
  Beta virt. eigenvalues --    2.77628   2.80721   2.81530   2.82062   2.84720
  Beta virt. eigenvalues --    2.88569   2.90579   2.95863   2.98468   3.00045
  Beta virt. eigenvalues --    3.00849   3.01701   3.04357   3.05885   3.08742
  Beta virt. eigenvalues --    3.12059   3.13709   3.16644   3.20591   3.21651
  Beta virt. eigenvalues --    3.97976   4.09952   4.23875   4.30975   4.33385
  Beta virt. eigenvalues --    4.42969   4.49869   4.55614   4.72500   4.83316
  Beta virt. eigenvalues --    4.98888   5.06711   5.37274   5.48995   5.75772
  Beta virt. eigenvalues --    5.87936   6.21954   6.59096
          Condensed to atoms (all electrons):
               1          2          3          4          5          6
     1  F    9.010620   0.300743  -0.034391  -0.037423  -0.039769   0.016804
     2  C    0.300743   3.808935   0.321825   0.345236   0.189738   0.005784
     3  F   -0.034391   0.321825   9.017958  -0.038564  -0.042332  -0.002210
     4  F   -0.037423   0.345236  -0.038564   8.981741  -0.035593  -0.000461
     5  O   -0.039769   0.189738  -0.042332  -0.035593   8.318027   0.165791
     6  C    0.016804   0.005784  -0.002210  -0.000461   0.165791   4.406882
     7  F   -0.002707   0.010468  -0.002424  -0.000009  -0.044359   0.269751
     8  F   -0.002612  -0.001850  -0.000016  -0.000016  -0.046480   0.258358
     9  C    0.000356  -0.001241  -0.000525  -0.000042  -0.031643   0.149970
    10  F    0.000000  -0.000113   0.000005   0.000000  -0.000307  -0.021050
    11  F    0.000000   0.000011   0.000000   0.000000   0.000552  -0.014608
    12  C   -0.000014  -0.000069   0.000013  -0.000003   0.001719  -0.040651
    13  F    0.000000   0.000212   0.000000   0.000000   0.003076  -0.002363
    14  F    0.000000   0.000000   0.000000   0.000000   0.000006   0.001762
    15  C    0.000011   0.000012   0.000000   0.000000  -0.001300  -0.004857
    16  F    0.000000   0.000000   0.000000   0.000000   0.000002   0.000003
    17  F    0.000000   0.000000   0.000000   0.000000   0.000014  -0.002852
    18  F   -0.000009   0.000167   0.000000  -0.000001  -0.000744   0.018777
               7          8          9         10         11         12
     1  F   -0.002707  -0.002612   0.000356   0.000000   0.000000  -0.000014
     2  C    0.010468  -0.001850  -0.001241  -0.000113   0.000011  -0.000069
     3  F   -0.002424  -0.000016  -0.000525   0.000005   0.000000   0.000013
     4  F   -0.000009  -0.000016  -0.000042   0.000000   0.000000  -0.000003
     5  O   -0.044359  -0.046480  -0.031643  -0.000307   0.000552   0.001719
     6  C    0.269751   0.258358   0.149970  -0.021050  -0.014608  -0.040651
     7  F    9.012920  -0.038200  -0.008392  -0.001584  -0.001929   0.001640
     8  F   -0.038200   9.051591  -0.027156   0.000291  -0.000675  -0.007032
     9  C   -0.008392  -0.027156   4.862685   0.249017   0.252681   0.079150
    10  F   -0.001584   0.000291   0.249017   8.986276  -0.039096  -0.009166
    11  F   -0.001929  -0.000675   0.252681  -0.039096   8.978410  -0.021631
    12  C    0.001640  -0.007032   0.079150  -0.009166  -0.021631   4.908042
    13  F    0.000001   0.000021  -0.017620  -0.001865   0.000271   0.242222
    14  F   -0.000001   0.000001  -0.006489  -0.002861  -0.001884   0.242970
    15  C    0.000026   0.017108  -0.041555   0.001563   0.000607   0.157245
    16  F    0.000000  -0.000002   0.001830  -0.000001   0.000002  -0.012446
    17  F    0.000000  -0.000561   0.008153   0.000003   0.000829  -0.032745
    18  F   -0.000001  -0.011841  -0.008462   0.000001   0.000002  -0.022769
              13         14         15         16         17         18
     1  F    0.000000   0.000000   0.000011   0.000000   0.000000  -0.000009
     2  C    0.000212   0.000000   0.000012   0.000000   0.000000   0.000167
     3  F    0.000000   0.000000   0.000000   0.000000   0.000000   0.000000
     4  F    0.000000   0.000000   0.000000   0.000000   0.000000  -0.000001
     5  O    0.003076   0.000006  -0.001300   0.000002   0.000014  -0.000744
     6  C   -0.002363   0.001762  -0.004857   0.000003  -0.002852   0.018777
     7  F    0.000001  -0.000001   0.000026   0.000000   0.000000  -0.000001
     8  F    0.000021   0.000001   0.017108  -0.000002  -0.000561  -0.011841
     9  C   -0.017620  -0.006489  -0.041555   0.001830   0.008153  -0.008462
    10  F   -0.001865  -0.002861   0.001563  -0.000001   0.000003   0.000001
    11  F    0.000271  -0.001884   0.000607   0.000002   0.000829   0.000002
    12  C    0.242222   0.242970   0.157245  -0.012446  -0.032745  -0.022769
    13  F    8.986152  -0.039294  -0.015038  -0.001511   0.000277  -0.000700
    14  F   -0.039294   8.986990  -0.016496  -0.001580  -0.000495   0.000286
    15  C   -0.015038  -0.016496   4.228269   0.300061   0.288539   0.269200
    16  F   -0.001511  -0.001580   0.300061   8.986626  -0.039160  -0.040360
    17  F    0.000277  -0.000495   0.288539  -0.039160   9.009760  -0.037438
    18  F   -0.000700   0.000286   0.269200  -0.040360  -0.037438   9.031083
          Atomic-Atomic Spin Densities.
               1          2          3          4          5          6
     1  F    0.024777  -0.001790   0.000073   0.000296  -0.001483   0.000054
     2  C   -0.001790  -0.005653   0.000705  -0.000582   0.000702  -0.000041
     3  F    0.000073   0.000705   0.005069  -0.000062  -0.000545   0.000215
     4  F    0.000296  -0.000582  -0.000062   0.010089  -0.000994  -0.000010
     5  O   -0.001483   0.000702  -0.000545  -0.000994   0.160052  -0.012995
     6  C    0.000054  -0.000041   0.000215  -0.000010  -0.012995   0.052407
     7  F   -0.000261   0.000073  -0.000030  -0.000003   0.000393  -0.006620
     8  F   -0.000603   0.000271   0.000000   0.000000   0.000087  -0.014470
     9  C    0.000029   0.000033  -0.000006   0.000002   0.000925   0.022287
    10  F    0.000000   0.000015  -0.000002   0.000000   0.000790  -0.002362
    11  F    0.000000  -0.000001   0.000000   0.000000   0.000011  -0.002914
    12  C    0.000003   0.000028  -0.000001   0.000001   0.000368  -0.000451
    13  F    0.000000  -0.000015   0.000000   0.000000  -0.001189   0.001531
    14  F    0.000000   0.000000   0.000000   0.000000  -0.000005   0.000164
    15  C   -0.000003  -0.000006   0.000000   0.000000   0.000198   0.002487
    16  F    0.000000   0.000000   0.000000   0.000000  -0.000001  -0.000036
    17  F    0.000000   0.000000   0.000000   0.000000  -0.000001  -0.000477
    18  F    0.000002  -0.000007   0.000000   0.000000  -0.000458  -0.001864
               7          8          9         10         11         12
     1  F   -0.000261  -0.000603   0.000029   0.000000   0.000000   0.000003
     2  C    0.000073   0.000271   0.000033   0.000015  -0.000001   0.000028
     3  F   -0.000030   0.000000  -0.000006  -0.000002   0.000000  -0.000001
     4  F   -0.000003   0.000000   0.000002   0.000000   0.000000   0.000001
     5  O    0.000393   0.000087   0.000925   0.000790   0.000011   0.000368
     6  C   -0.006620  -0.014470   0.022287  -0.002362  -0.002914  -0.000451
     7  F    0.047001   0.000998  -0.001704   0.000970   0.000948   0.000014
     8  F    0.000998   0.059139   0.003049   0.000017   0.000395   0.000575
     9  C   -0.001704   0.003049   0.052038  -0.014865  -0.015833   0.056754
    10  F    0.000970   0.000017  -0.014865   0.110248   0.001762  -0.004040
    11  F    0.000948   0.000395  -0.015833   0.001762   0.111199  -0.001768
    12  C    0.000014   0.000575   0.056754  -0.004040  -0.001768   0.040875
    13  F   -0.000001  -0.000015  -0.002510   0.001199   0.000014  -0.014964
    14  F    0.000000  -0.000001  -0.004614   0.001895   0.001227  -0.014058
    15  C   -0.000008  -0.001740  -0.001546   0.000042   0.000925   0.029064
    16  F    0.000000   0.000002   0.000162   0.000000  -0.000003  -0.002570
    17  F    0.000000   0.000211   0.001156  -0.000002  -0.000791   0.000477
    18  F    0.000001   0.001076   0.000795  -0.000001  -0.000011   0.000216
              13         14         15         16         17         18
     1  F    0.000000   0.000000  -0.000003   0.000000   0.000000   0.000002
     2  C   -0.000015   0.000000  -0.000006   0.000000   0.000000  -0.000007
     3  F    0.000000   0.000000   0.000000   0.000000   0.000000   0.000000
     4  F    0.000000   0.000000   0.000000   0.000000   0.000000   0.000000
     5  O   -0.001189  -0.000005   0.000198  -0.000001  -0.000001  -0.000458
     6  C    0.001531   0.000164   0.002487  -0.000036  -0.000477  -0.001864
     7  F   -0.000001   0.000000  -0.000008   0.000000   0.000000   0.000001
     8  F   -0.000015  -0.000001  -0.001740   0.000002   0.000211   0.001076
     9  C   -0.002510  -0.004614  -0.001546   0.000162   0.001156   0.000795
    10  F    0.001199   0.001895   0.000042   0.000000  -0.000002  -0.000001
    11  F    0.000014   0.001227   0.000925  -0.000003  -0.000791  -0.000011
    12  C   -0.014964  -0.014058   0.029064  -0.002570   0.000477   0.000216
    13  F    0.113327   0.001707  -0.002431   0.000784   0.000007   0.000427
    14  F    0.001707   0.105416  -0.002066   0.001047   0.000193   0.000007
    15  C   -0.002431  -0.002066   0.037489  -0.008319  -0.006358  -0.006908
    16  F    0.000784   0.001047  -0.008319   0.042520   0.000729   0.000804
    17  F    0.000007   0.000193  -0.006358   0.000729   0.029957   0.000516
    18  F    0.000427   0.000007  -0.006908   0.000804   0.000516   0.035063
 Mulliken charges and spin densities:
               1          2
     1  F   -0.211609   0.021094
     2  C    1.020144  -0.006266
     3  F   -0.219338   0.005416
     4  F   -0.214865   0.008737
     5  O   -0.436400   0.145857
     6  C    0.795172   0.036905
     7  F   -0.195201   0.041770
     8  F   -0.190928   0.048992
     9  C    0.539284   0.096151
    10  F   -0.161113   0.095667
    11  F   -0.153541   0.095159
    12  C    0.513523   0.090522
    13  F   -0.153840   0.097870
    14  F   -0.162916   0.090913
    15  C    0.816606   0.040819
    16  F   -0.193464   0.035119
    17  F   -0.194322   0.025618
    18  F   -0.197191   0.029659
 Sum of Mulliken charges =   1.00000   1.00000
 Mulliken charges and spin densities with hydrogens summed into heavy atoms:
               1          2
     1  F   -0.211609   0.021094
     2  C    1.020144  -0.006266
     3  F   -0.219338   0.005416
     4  F   -0.214865   0.008737
     5  O   -0.436400   0.145857
     6  C    0.795172   0.036905
     7  F   -0.195201   0.041770
     8  F   -0.190928   0.048992
     9  C    0.539284   0.096151
    10  F   -0.161113   0.095667
    11  F   -0.153541   0.095159
    12  C    0.513523   0.090522
    13  F   -0.153840   0.097870
    14  F   -0.162916   0.090913
    15  C    0.816606   0.040819
    16  F   -0.193464   0.035119
    17  F   -0.194322   0.025618
    18  F   -0.197191   0.029659
 Electronic spatial extent (au):  <R**2>=           3584.1662
 Charge=              1.0000 electrons
 Dipole moment (field-independent basis, Debye):
    X=             -1.7925    Y=              0.0453    Z=             -2.0804  Tot=              2.7465
 Quadrupole moment (field-independent basis, Debye-Ang):
   XX=            -75.6672   YY=            -84.7339   ZZ=            -82.6703
   XY=              0.9715   XZ=              3.8365   YZ=             -0.8817
 Traceless Quadrupole moment (field-independent basis, Debye-Ang):
   XX=              5.3566   YY=             -3.7101   ZZ=             -1.6465
   XY=              0.9715   XZ=              3.8365   YZ=             -0.8817
 Octapole moment (field-independent basis, Debye-Ang**2):
  XXX=             -7.2555  YYY=             36.3981  ZZZ=             -5.2498  XYY=             -2.6337
  XXY=              5.7368  XXZ=              1.4327  XZZ=             -3.0142  YZZ=             11.3072
  YYZ=             -2.3695  XYZ=             -1.0562
 Hexadecapole moment (field-independent basis, Debye-Ang**3):
 XXXX=          -1981.6504 YYYY=           -574.8922 ZZZZ=           -693.0204 XXXY=             -4.0348
 XXXZ=           -176.5302 YYYX=             -4.1146 YYYZ=             61.0154 ZZZX=           -188.4519
 ZZZY=             58.8361 XXYY=           -431.3557 XXZZ=           -442.3052 YYZZ=           -212.3798
 XXYZ=             17.5611 YYXZ=            -63.6215 ZZXY=             -1.5760
 N-N= 1.805391310712D+03 E-N=-7.052524207156D+03  KE= 1.452582961114D+03
                          Isotropic Fermi Contact Couplings
        Atom                 a.u.       MegaHertz       Gauss      10(-4) cm-1
     1  F(19)              0.00206       8.67835       3.09665       2.89479
     2  C(13)             -0.00321      -3.61082      -1.28843      -1.20444
     3  F(19)             -0.00173      -7.27208      -2.59486      -2.42571
     4  F(19)              0.00017       0.70531       0.25167       0.23527
     5  O(17)              0.03055     -18.51882      -6.60798      -6.17722
     6  C(13)              0.02558      28.76155      10.26283       9.59382
     7  F(19)              0.00008       0.32688       0.11664       0.10904
     8  F(19)             -0.00115      -4.82773      -1.72265      -1.61036
     9  C(13)             -0.02777     -31.22410     -11.14154     -10.41524
    10  F(19)              0.01087      45.73492      16.31936      15.25553
    11  F(19)              0.01255      52.81321      18.84506      17.61659
    12  C(13)             -0.02356     -26.48551      -9.45069      -8.83462
    13  F(19)              0.01271      53.48790      19.08581      17.84164
    14  F(19)              0.01017      42.80616      15.27430      14.27860
    15  C(13)              0.02588      29.09470      10.38171       9.70495
    16  F(19)              0.00075       3.14811       1.12332       1.05010
    17  F(19)              0.00194       8.16561       2.91369       2.72375
    18  F(19)              0.00190       7.98367       2.84877       2.66307
 --------------------------------------------------------
       Center         ----  Spin Dipole Couplings  ----
                      3XX-RR        3YY-RR        3ZZ-RR
 --------------------------------------------------------
     1   Atom        0.109722     -0.080749     -0.028973
     2   Atom        0.009864     -0.007549     -0.002315
     3   Atom       -0.004063      0.008546     -0.004483
     4   Atom        0.052100     -0.019192     -0.032909
     5   Atom       -0.254813     -0.241672      0.496485
     6   Atom        0.025227     -0.046122      0.020895
     7   Atom        0.197380     -0.131079     -0.066301
     8   Atom       -0.076856     -0.112305      0.189161
     9   Atom        0.139512     -0.052752     -0.086760
    10   Atom        0.390237     -0.126552     -0.263685
    11   Atom        0.365361     -0.121903     -0.243458
    12   Atom        0.072734     -0.001086     -0.071647
    13   Atom        0.237381     -0.051136     -0.186245
    14   Atom        0.288835     -0.078965     -0.209870
    15   Atom       -0.015538     -0.050397      0.065935
    16   Atom        0.027519     -0.098394      0.070875
    17   Atom       -0.033732     -0.100116      0.133848
    18   Atom       -0.062966     -0.110548      0.173514
 --------------------------------------------------------
                        XY            XZ            YZ
 --------------------------------------------------------
     1   Atom        0.008295      0.097130      0.002213
     2   Atom       -0.000227      0.010138      0.000137
     3   Atom        0.021990      0.018318      0.022731
     4   Atom       -0.035410      0.011880     -0.004765
     5   Atom        0.059763     -0.196845     -0.229332
     6   Atom       -0.009915      0.086025     -0.010654
     7   Atom       -0.110573      0.168303     -0.057614
     8   Atom        0.085064      0.206618      0.152469
     9   Atom        0.154630      0.123906      0.076366
    10   Atom        0.384624      0.222045      0.121643
    11   Atom        0.382300      0.255818      0.142806
    12   Atom        0.159112     -0.115560     -0.095934
    13   Atom        0.407623     -0.303407     -0.214471
    14   Atom        0.378800     -0.257625     -0.162480
    15   Atom        0.005337     -0.063538     -0.010190
    16   Atom        0.067587     -0.178721     -0.081424
    17   Atom        0.000068     -0.119799      0.002995
    18   Atom        0.001517     -0.116606      0.001790
 --------------------------------------------------------


 ---------------------------------------------------------------------------------
              Anisotropic Spin Dipole Couplings in Principal Axis System
 ---------------------------------------------------------------------------------

       Atom             a.u.   MegaHertz   Gauss  10(-4) cm-1        Axes

              Baa    -0.0821   -41.236   -14.714   -13.755 -0.2571  0.8634  0.4340
     1 F(19)  Bbb    -0.0779   -39.126   -13.961   -13.051 -0.3796 -0.5033  0.7763
              Bcc     0.1600    80.362    28.675    26.806  0.8887  0.0348  0.4572
 
              Baa    -0.0081    -1.093    -0.390    -0.364 -0.4605 -0.3635  0.8098
     2 C(13)  Bbb    -0.0075    -1.001    -0.357    -0.334 -0.1745  0.9316  0.3190
              Bcc     0.0156     2.094     0.747     0.698  0.8703 -0.0056  0.4924
 
              Baa    -0.0227   -11.408    -4.071    -3.805 -0.5817 -0.1693  0.7956
     3 F(19)  Bbb    -0.0203   -10.207    -3.642    -3.405 -0.6262  0.7174 -0.3053
              Bcc     0.0430    21.615     7.713     7.210  0.5190  0.6758  0.5233
 
              Baa    -0.0345   -17.350    -6.191    -5.787 -0.1751 -0.0999  0.9795
     4 F(19)  Bbb    -0.0338   -16.960    -6.052    -5.657  0.3577  0.9204  0.1578
              Bcc     0.0683    34.310    12.243    11.445  0.9173 -0.3780  0.1254
 
              Baa    -0.3092    22.372     7.983     7.462 -0.5080  0.8531  0.1187
     5 O(17)  Bbb    -0.3016    21.826     7.788     7.280  0.8297  0.4477  0.3333
              Bcc     0.6108   -44.198   -15.771   -14.743 -0.2312 -0.2678  0.9353
 
              Baa    -0.0630    -8.457    -3.018    -2.821 -0.6947  0.0449  0.7179
     6 C(13)  Bbb    -0.0474    -6.366    -2.272    -2.123  0.0976  0.9947  0.0322
              Bcc     0.1105    14.823     5.289     4.944  0.7126 -0.0924  0.6954
 
              Baa    -0.1665   -83.644   -29.846   -27.901  0.1613  0.9481  0.2740
     7 F(19)  Bbb    -0.1477   -74.165   -26.464   -24.739 -0.4753 -0.1687  0.8635
              Bcc     0.3142   157.810    56.310    52.640  0.8649 -0.2695  0.4234
 
              Baa    -0.1898   -95.299   -34.005   -31.788  0.8903 -0.1064 -0.4427
     8 F(19)  Bbb    -0.1759   -88.341   -31.522   -29.467 -0.0642  0.9332 -0.3535
              Bcc     0.3657   183.640    65.527    61.256  0.4507  0.3431  0.8241
 
              Baa    -0.1480   -19.859    -7.086    -6.624  0.0017 -0.6272  0.7788
     9 C(13)  Bbb    -0.1347   -18.076    -6.450    -6.029 -0.5857  0.6306  0.5092
              Bcc     0.2827    37.935    13.536    12.654  0.8105  0.4570  0.3663
 
              Baa    -0.3350  -168.258   -60.039   -56.125  0.1144 -0.6496  0.7516
    10 F(19)  Bbb    -0.3292  -165.356   -59.003   -55.157 -0.5125  0.6095  0.6048
              Bcc     0.6643   333.615   119.042   111.282  0.8510  0.4544  0.2632
 
              Baa    -0.3382  -169.836   -60.602   -56.651 -0.1105 -0.4043  0.9079
    11 F(19)  Bbb    -0.3309  -166.211   -59.308   -55.442 -0.5399  0.7914  0.2867
              Bcc     0.6691   336.047   119.910   112.093  0.8345  0.4585  0.3057
 
              Baa    -0.1392   -18.676    -6.664    -6.230  0.1558  0.4362  0.8863
    12 C(13)  Bbb    -0.1268   -17.012    -6.070    -5.675 -0.6833  0.6955 -0.2222
              Bcc     0.2660    35.688    12.734    11.904  0.7133  0.5710 -0.4064
 
              Baa    -0.3449  -173.197   -61.801   -57.772  0.3206  0.2267  0.9197
    13 F(19)  Bbb    -0.3393  -170.392   -60.800   -56.837 -0.5772  0.8166 -0.0001
              Bcc     0.6841   343.589   122.601   114.609  0.7510  0.5309 -0.3926
 
              Baa    -0.3198  -160.620   -57.313   -53.577  0.1474  0.3832  0.9118
    14 F(19)  Bbb    -0.3159  -158.657   -56.613   -52.922 -0.5854  0.7769 -0.2319
              Bcc     0.6357   319.277   113.926   106.499  0.7972  0.4996 -0.3389
 
              Baa    -0.0513    -6.885    -2.457    -2.297  0.1357  0.9780  0.1585
    15 C(13)  Bbb    -0.0502    -6.741    -2.405    -2.249  0.8677 -0.1946  0.4575
              Bcc     0.1015    13.626     4.862     4.545 -0.4783 -0.0755  0.8750
 
              Baa    -0.1335   -67.066   -23.931   -22.371  0.4592  0.6110  0.6449
    16 F(19)  Bbb    -0.1269   -63.718   -22.736   -21.254 -0.6220  0.7394 -0.2577
              Bcc     0.2604   130.783    46.667    43.625 -0.6343 -0.2828  0.7196
 
              Baa    -0.1006   -50.526   -18.029   -16.854 -0.2687  0.9516 -0.1494
    17 F(19)  Bbb    -0.0957   -48.048   -17.145   -16.027  0.8452  0.3073  0.4372
              Bcc     0.1963    98.574    35.174    32.881 -0.4619  0.0089  0.8869
 
[...]
   R15        2.52697  -0.02212  -0.06841   0.00000  -0.06841   2.45855
   R16        2.52399  -0.01984  -0.05591   0.00000  -0.05591   2.46808
   R17        2.52828  -0.01912  -0.05637   0.00000  -0.05637   2.47191
    A1        1.92528   0.00070   0.00738   0.00000   0.00718   1.93246
    A2        1.90350   0.00896   0.02469   0.00000   0.02387   1.92736
    A3        1.95213  -0.01032  -0.00459   0.00000  -0.00502   1.94712
    A4        1.90243   0.00815   0.02772   0.00000   0.02765   1.93008
    A5        1.92811  -0.00215   0.01574   0.00000   0.01560   1.94371
    A6        1.85026  -0.00484  -0.07173   0.00000  -0.07216   1.77811
    A7        2.04272   0.00285   0.25354   0.00000   0.25354   2.29626
    A8        1.96952   0.00765   0.10308   0.00000   0.08533   2.05484
    A9        1.94159   0.00950   0.11724   0.00000   0.10846   2.05005
   A10        1.91100  -0.01281  -0.12404   0.00000  -0.12237   1.78863
   A11        1.87089   0.00762   0.02620   0.00000   0.01293   1.88381
   A12        1.87062  -0.00512  -0.08965   0.00000  -0.08763   1.78300
   A13        1.89752  -0.00752  -0.03062   0.00000  -0.02598   1.87154
   A14        1.88018   0.00811  -0.03470   0.00000  -0.03053   1.84966
   A15        1.88877   0.00705  -0.04326   0.00000  -0.04340   1.84536
   A16        2.06520  -0.01930   0.12218   0.00000   0.12422   2.18942
   A17        1.86603   0.00458   0.06574   0.00000   0.06336   1.92939
   A18        1.84948   0.00128  -0.08221   0.00000  -0.08031   1.76917
   A19        1.90471   0.00035  -0.03063   0.00000  -0.03089   1.87383
   A20        1.90132   0.00084  -0.05362   0.00000  -0.05493   1.84639
   A21        1.84889   0.00131  -0.09207   0.00000  -0.09016   1.75873
   A22        2.04843  -0.01885   0.15561   0.00000   0.15845   2.20688
   A23        1.86748   0.00446   0.06741   0.00000   0.06290   1.93038
   A24        1.89963   0.00735  -0.04074   0.00000  -0.03987   1.85976
   A25        1.88990   0.00664  -0.04249   0.00000  -0.03664   1.85326
   A26        1.89168  -0.01435  -0.10566   0.00000  -0.11133   1.78035
   A27        1.92747  -0.01226  -0.06645   0.00000  -0.06998   1.85749
   A28        1.93091  -0.01496  -0.04056   0.00000  -0.04333   1.88758
   A29        1.90989   0.01338   0.07675   0.00000   0.06890   1.97879
   A30        1.88162   0.01701   0.05448   0.00000   0.04857   1.93019
   A31        1.92135   0.01180   0.09072   0.00000   0.08936   2.01072
    D1        0.78454  -0.00354  -0.01001   0.00000  -0.01057   0.77397
    D2       -1.36728   0.00444  -0.02761   0.00000  -0.02771  -1.39499
    D3        2.85729  -0.00134  -0.02768   0.00000  -0.02703   2.83026
    D4        0.72551   0.00903   0.04597   0.00000   0.05891   0.78442
    D5       -1.37808  -0.01297  -0.12378   0.00000  -0.13618  -1.51426
    D6        2.80737  -0.00124  -0.08326   0.00000  -0.08380   2.72357
    D7       -1.24498   0.00618   0.00293   0.00000   0.00022  -1.24476
    D8        3.02646  -0.00693  -0.03370   0.00000  -0.03673   2.98973
    D9        0.84988   0.00129  -0.04853   0.00000  -0.05097   0.79890
   D10        0.89685   0.00470  -0.00916   0.00000  -0.00601   0.89085
   D11       -1.11489  -0.00842  -0.04579   0.00000  -0.04296  -1.15785
   D12        2.99171  -0.00020  -0.06062   0.00000  -0.05720   2.93450
   D13        2.91375   0.00714  -0.04389   0.00000  -0.04428   2.86947
   D14        0.90200  -0.00598  -0.08052   0.00000  -0.08123   0.82078
   D15       -1.27458   0.00224  -0.09534   0.00000  -0.09547  -1.37005
   D16       -1.14489   0.00211   0.00780   0.00000   0.01078  -1.13411
   D17        3.13473  -0.00412   0.00512   0.00000   0.00346   3.13819
   D18        1.02276  -0.00161   0.02654   0.00000   0.02894   1.05170
   D19        0.96576   0.00110  -0.01963   0.00000  -0.01959   0.94617
   D20       -1.03780  -0.00513  -0.02231   0.00000  -0.02692  -1.06472
   D21        3.13342  -0.00262  -0.00089   0.00000  -0.00144   3.13198
   D22        2.96956   0.00724  -0.00152   0.00000   0.00069   2.97024
   D23        0.96600   0.00101  -0.00420   0.00000  -0.00664   0.95936
   D24       -1.14597   0.00352   0.01721   0.00000   0.01884  -1.12713
   D25        2.99027  -0.00059  -0.05433   0.00000  -0.05380   2.93647
   D26        0.89828  -0.00073  -0.03764   0.00000  -0.03966   0.85862
   D27       -1.23336   0.00279  -0.07921   0.00000  -0.07790  -1.31126
   D28       -1.12441  -0.00756  -0.04285   0.00000  -0.04202  -1.16643
   D29        3.06678  -0.00771  -0.02616   0.00000  -0.02788   3.03891
   D30        0.93514  -0.00419  -0.06773   0.00000  -0.06611   0.86903
   D31        0.89983   0.00524  -0.00822   0.00000  -0.00783   0.89200
   D32       -1.19216   0.00509   0.00846   0.00000   0.00631  -1.18585
   D33        2.95938   0.00861  -0.03311   0.00000  -0.03192   2.92746
         Item               Value     Threshold  Converged?
 Maximum Force            0.033589     0.000450     NO 
 RMS     Force            0.012490     0.000300     NO 
 Maximum Displacement     0.921318     0.001800     NO 
 RMS     Displacement     0.271257     0.001200     NO 
 Predicted change in Energy=-4.050312D-02
 Lowest energy point so far.  Saving SCF results.
 GradGradGradGradGradGradGradGradGradGradGradGradGradGradGradGradGradGrad

 Leave Link  103 at Sun Feb  2 17:25:39 2025, MaxMem=  5368709120 cpu:        10.5
 (Enter /home/k0335/k033513/app/g09/l202.exe)
                          Input orientation:                          
 ---------------------------------------------------------------------
 Center     Atomic      Atomic             Coordinates (Angstroms)
 Number     Number       Type             X           Y           Z
 ---------------------------------------------------------------------
      1          9           0        3.077659   -0.130517    1.879698
      2          6           0        2.676439   -0.760218    0.810363
      3          9           0        3.556518   -0.652297   -0.146302
      4          9           0        2.446494   -2.005162    1.078796
      5          8           0        1.391768   -0.309029    0.387655
      6          6           0        0.859773    0.960676    0.267316
      7          9           0        1.599536    1.879145   -0.295532
      8          9           0        0.300333    1.489655    1.338128
      9          6           0       -0.304697    0.747988   -0.823233
     10          9           0        0.297199    0.552781   -1.954399
     11          9           0       -0.967731    1.855660   -0.847954
     12          6           0       -1.419782   -0.502203   -0.822542
     13          9           0       -0.734063   -1.586825   -1.010639
     14          9           0       -2.110539   -0.210881   -1.878524
     15          6           0       -2.483292   -0.828575    0.330863
     16          9           0       -3.256262   -1.697838   -0.251827
     17          9           0       -3.085314    0.296983    0.607379
     18          9           0       -1.844037   -1.378701    1.330754
 ---------------------------------------------------------------------
                    Distance matrix (angstroms):
                    1          2          3          4          5
     1  F    0.000000
     2  C    1.304216   0.000000
     3  F    2.146214   1.304375   0.000000
     4  F    2.134035   1.294146   2.136179   0.000000
     5  O    2.258382   1.425705   2.255900   2.113525   0.000000
     6  C    2.951185   2.560596   3.169415   3.460111   1.381901
     7  F    3.309866   3.057607   3.203161   4.206417   2.301742
     8  F    3.260644   3.314565   4.170639   4.109379   2.308656
     9  C    4.417911   3.718936   4.162692   4.332042   2.336990
    10  F    4.785201   3.876681   3.917217   4.512517   2.725071
    11  F    5.267843   4.782553   5.220248   5.502294   3.432177
    12  C    5.259965   4.417236   5.024280   4.563119   3.067035
    13  F    5.000411   3.953587   4.475433   3.828405   2.847305
    14  F    6.406879   5.517884   5.942304   5.721165   4.172692
    15  C    5.814667   5.182414   6.061192   5.123138   3.910145
    16  F    6.864288   6.099534   6.893349   5.863994   4.893047
    17  F    6.307440   5.861457   6.751526   6.010241   4.523250
    18  F    5.107093   4.592171   5.645826   4.343339   3.536109
                    6          7          8          9         10
     6  C    0.000000
     7  F    1.306764   0.000000
     8  F    1.318874   2.123318   0.000000
     9  C    1.609510   2.276859   2.363812   0.000000
    10  F    2.327850   2.491418   3.423225   1.296118   0.000000
    11  F    2.320473   2.626135   2.553605   1.291187   2.126443
    12  C    2.919619   3.881345   3.405111   1.675229   2.311302
    13  F    3.265462   4.239105   4.006420   2.381350   2.555797
    14  F    3.847068   4.542988   4.364742   2.300899   2.527082
    15  C    3.792299   4.938988   3.759964   2.926390   3.855087
    16  F    4.927367   6.031210   5.033630   3.875604   4.537744
    17  F    4.014953   5.026561   3.663204   3.159413   4.250827
    18  F    3.730171   5.011643   3.581318   3.395884   4.371241
                   11         12         13         14         15
    11  F    0.000000
    12  C    2.400940   0.000000
    13  F    3.454240   1.296918   0.000000
    14  F    2.576563   1.295034   2.130994   0.000000
    15  C    3.300250   1.602471   2.331174   2.324195   0.000000
    16  F    4.268499   2.264490   2.636210   2.483921   1.301011
    17  F    3.005266   2.336101   3.419809   2.718056   1.306052
    18  F    3.996970   2.363244   2.599515   3.425535   1.308077
                   16         17         18
    16  F    0.000000
    17  F    2.178708   0.000000
    18  F    2.144945   2.207251   0.000000
 Symmetry turned off by external request.
 Stoichiometry    C5F12O(1+,2)
 Framework group  C1[X(C5F12O)]
 Deg. of freedom    48
 Full point group                 C1      NOp   1
 Rotational constants (GHZ):      0.6664745      0.2966423      0.2668154
 Leave Link  202 at Sun Feb  2 17:25:39 2025, MaxMem=  5368709120 cpu:         0.9
 (Enter /home/k0335/k033513/app/g09/l301.exe)
 Standard basis: 6-31G(d,p) (6D, 7F)
 Ernie: Thresh=  0.10000D-02 Tol=  0.10000D-05 Strict=F.
   270 basis functions,   504 primitive gaussians,   270 cartesian basis functions
    73 alpha electrons       72 beta electrons
       nuclear repulsion energy      1761.0032309868 Hartrees.
 IExCor=20419 DFT=T Ex+Corr=CAM-B3LYP ExCW=0 ScaHFX=  1.000000
 ScaDFX=  1.000000  1.000000  1.000000  0.810000 ScalE2=  1.000000  1.000000
 IRadAn=      0 IRanWt=     -1 IRanGd=            0 ICorTp=0 IEmpDi=  4
  HFx wShort=  0.000000 wLong=  0.330000 cFull=  0.190000 cShort=  0.000000 cLong=  0.460000
  DFx wShort=  0.000000 wLong=  0.330000 cFull=  0.190000 cShort=  0.000000 cLong=  0.460000
 NAtoms=   18 NActive=   18 NUniq=   18 SFac= 1.00D+00 NAtFMM=   60 NAOKFM=F Big=F
 Integral buffers will be    131072 words long.
 Raffenetti 2 integral format.
 Two-electron integral symmetry is turned off.
 ------------------------------------------------------------------------------
 Polarizable Continuum Model (PCM)
 =================================
 Model                : PCM (using non-symmetric T matrix).
 Atomic radii         : UFF (Universal Force Field).
 Polarization charges : Total charges.
 Charge compensation  : None.
 Solution method      : On-the-fly selection.
 Cavity type          : Scaled VdW (van der Waals Surface) (Alpha=1.100).
 Cavity algorithm     : GePol (No added spheres)
                        Default sphere list used, NSphG=   18.
                        Lebedev-Laikov grids with approx.  5.0 points / Ang**2.
                        Smoothing algorithm: Karplus/York (Gamma=1.0000).
                        Polarization charges: spherical gaussians, with
                                              point-specific exponents (IZeta= 3).
                        Self-potential: point-specific (ISelfS= 7).
                        Self-field    : sphere-specific E.n sum rule (ISelfD= 2).
 1st derivatives      : Analytical E(r).r(x)/FMM algorithm (CHGder, D1EAlg=3).
                        Cavity 1st derivative terms included.
 Solvent              : Generic,
                        Eps                           =   4.900000
                        Eps(infinity)                 =   0.000000
                        RSolv                         =   0.000000 Ang.
                        Molar volume                  =   0.000000 cm**3/mol
                        Thermal expansion coefficient =   0.000000 K**-1
                        Absolute temperature          = 298.150000 K
                        Numeral density               =   0.000000 Ang**-3
                        Hydrogen bond acidity         =   0.000000
                        Hydrogen bond basicity        =   0.000000
                        Surface tension at interface  =   0.000000 (cal/mol)*Ang**-2
                        Carbon aromaticity            =   0.000000
                        Electronegative halogenicity  =   0.000000
 ------------------------------------------------------------------------------
 Spheres list:
 ISph  on   Nord     Re0    Alpha      Xe            Ye            Ze
    1   F      1    1.6820  1.100      3.077659     -0.130517      1.879698
    2   C      2    1.9255  1.100      2.676439     -0.760218      0.810363
    3   F      3    1.6820  1.100      3.556518     -0.652297     -0.146302
    4   F      4    1.6820  1.100      2.446494     -2.005162      1.078796
    5   O      5    1.7500  1.100      1.391768     -0.309029      0.387655
    6   C      6    1.9255  1.100      0.859773      0.960676      0.267316
    7   F      7    1.6820  1.100      1.599536      1.879145     -0.295532
    8   F      8    1.6820  1.100      0.300333      1.489655      1.338128
    9   C      9    1.9255  1.100     -0.304697      0.747988     -0.823233
   10   F     10    1.6820  1.100      0.297199      0.552781     -1.954399
   11   F     11    1.6820  1.100     -0.967731      1.855660     -0.847954
   12   C     12    1.9255  1.100     -1.419782     -0.502203     -0.822542
   13   F     13    1.6820  1.100     -0.734063     -1.586825     -1.010639
   14   F     14    1.6820  1.100     -2.110539     -0.210881     -1.878524
   15   C     15    1.9255  1.100     -2.483292     -0.828575      0.330863
   16   F     16    1.6820  1.100     -3.256262     -1.697838     -0.251827
   17   F     17    1.6820  1.100     -3.085314      0.296983      0.607379
   18   F     18    1.6820  1.100     -1.844037     -1.378701      1.330754
 ------------------------------------------------------------------------------
 GePol: Number of generator spheres                  =      18
 GePol: Total number of spheres                      =      18
 GePol: Number of exposed spheres                    =      18 (100.00%)
 GePol: Number of points                             =    1992
 GePol: Average weight of points                     =       0.12
 GePol: Minimum weight of points                     =   0.20D-10
 GePol: Maximum weight of points                     =    0.20577
 GePol: Number of points with low weight             =      80
 GePol: Fraction of low-weight points (<1% of avg)   =       4.02%
 GePol: Cavity surface area                          =    246.423 Ang**2
 GePol: Cavity volume                                =    247.006 Ang**3
 Leave Link  301 at Sun Feb  2 17:25:39 2025, MaxMem=  5368709120 cpu:         0.5
 (Enter /home/k0335/k033513/app/g09/l302.exe)
 NPDir=0 NMtPBC=     1 NCelOv=     1 NCel=       1 NClECP=     1 NCelD=      1
         NCelK=      1 NCelE2=     1 NClLst=     1 CellRange=     0.0.
 One-electron integrals computed using PRISM.
 NBasis=   270 RedAO= T EigKep=  1.56D-03  NBF=   270
 NBsUse=   270 1.00D-06 EigRej= -1.00D+00 NBFU=   270
 Precomputing XC quadrature grid using
 IXCGrd= 4 IRadAn=           0 IRanWt=          -1 IRanGd=           0 AccXCQ= 0.00D+00.
 Generated NRdTot=       0 NPtTot=           0 NUsed=           0 NTot=          32
 NSgBfM=   267   267   267   267   267 MxSgAt=    18 MxSgA2=    18.
 Leave Link  302 at Sun Feb  2 17:25:39 2025, MaxMem=  5368709120 cpu:         3.1
 (Enter /home/k0335/k033513/app/g09/l303.exe)
 DipDrv:  MaxL=1.
 Leave Link  303 at Sun Feb  2 17:25:39 2025, MaxMem=  5368709120 cpu:         1.0
 (Enter /home/k0335/k033513/app/g09/l401.exe)
 Initial guess from the checkpoint file:  "opt/FFKM0/FFKM0_pos.chk"
 B after Tr=    -0.002263   -0.007494   -0.012400
         Rot=    1.000000    0.000115    0.000365    0.000614 Ang=   0.08 deg.
 Guess basis will be translated and rotated to current coordinates.
 JPrj=2 DoOrth=T DoCkMO=T.
 Initial guess <Sx>= 0.0000 <Sy>= 0.0000 <Sz>= 0.5000 <S**2>= 0.7536 S= 0.5018
 Generating alternative initial guess.
 ExpMin= 1.69D-01 ExpMax= 7.00D+03 ExpMxC= 1.05D+03 IAcc=1 IRadAn=         1 AccDes= 0.00D+00
 Harris functional with IExCor=20419 and IRadAn=       1 diagonalized for initial guess.
 HarFok:  IExCor=20419 AccDes= 0.00D+00 IRadAn=         1 IDoV= 1 UseB2=F ITyADJ=14
 ICtDFT=  3500011 ScaDFX=  1.000000  1.000000  1.000000  1.000000
 FoFCou: FMM=F IPFlag=           0 FMFlag=      100000 FMFlg1=           0
         NFxFlg=           0 DoJE=T BraDBF=F KetDBF=T FulRan=T
         wScrn=  0.000000 ICntrl=     500 IOpCl=  0 I1Cent=   200000004 NGrid=           0
         NMat0=    1 NMatS0=      1 NMatT0=    0 NMatD0=    1 NMtDS0=    0 NMtDT0=    0
 Symmetry not used in FoFCou.
 Harris En= -1421.40962310520    
 Leave Link  401 at Sun Feb  2 17:25:40 2025, MaxMem=  5368709120 cpu:        14.1
 (Enter /home/k0335/k033513/app/g09/l502.exe)
 UHF open shell SCF:
 Using DIIS extrapolation, IDIIS=  1040.
 Two-electron integral symmetry not used.
 Keep R1 and R2 ints in memory in canonical form, NReq=2687194126.
 IVT=      245386 IEndB=      245386 NGot=  5368709120 MDV=  2691466115
 LenX=  2691466115 LenY=  2691392774
 Requested convergence on RMS density matrix=1.00D-08 within 128 cycles.
 Requested convergence on MAX density matrix=1.00D-06.
 Requested convergence on             energy=1.00D-06.
 No special actions if energy rises.
 FoFCou: FMM=F IPFlag=           0 FMFlag=           0 FMFlg1=           0
         NFxFlg=           0 DoJE=F BraDBF=F KetDBF=F FulRan=T
         wScrn=  0.000000 ICntrl=     600 IOpCl=  0 I1Cent=           0 NGrid=           0
         NMat0=    1 NMatS0=  36585 NMatT0=    0 NMatD0=    1 NMtDS0=    0 NMtDT0=    0
 Symmetry not used in FoFCou.

 Cycle   1  Pass 1  IDiag  1:
 Inv3:  Mode=1 IEnd=    11904192.
 Iteration    1 A*A^-1 deviation from unit magnitude is 7.88D-15 for   1992.
 Iteration    1 A*A^-1 deviation from orthogonality  is 3.61D-15 for   1992    387.
 Iteration    1 A^-1*A deviation from unit magnitude is 7.88D-15 for   1992.
 Iteration    1 A^-1*A deviation from orthogonality  is 1.17D-14 for   1961   1953.
 E= -1462.81252795894    
 DIIS: error= 1.35D-02 at cycle   1 NSaved=   1.
 NSaved= 1 IEnMin= 1 EnMin= -1462.81252795894     IErMin= 1 ErrMin= 1.35D-02
 ErrMax= 1.35D-02  0.00D+00 EMaxC= 1.00D-01 BMatC= 6.25D-01 BMatP= 6.25D-01
 IDIUse=3 WtCom= 8.65D-01 WtEn= 1.35D-01
 Coeff-Com:  0.100D+01
 Coeff-En:   0.100D+01
 Coeff:      0.100D+01
 Recover alternate guess density for next cycle.
 RMSDP=4.16D-03 MaxDP=7.21D-02              OVMax= 0.00D+00

 Cycle   2  Pass 1  IDiag  1:
 E= -1462.53011693000     Delta-E=        0.282411028938 Rises=F Damp=F
 Switch densities from cycles 1 and 2 for lowest energy.
 DIIS: error= 4.89D-02 at cycle   2 NSaved=   2.
 NSaved= 2 IEnMin= 1 EnMin= -1462.81252795894     IErMin= 1 ErrMin= 1.35D-02
 ErrMax= 4.89D-02  0.00D+00 EMaxC= 1.00D+00 BMatC= 5.27D+00 BMatP= 6.25D-01
 IDIUse=1 WtCom= 1.00D+00 WtEn= 0.00D+00
 Coeff-Com:  0.903D+00 0.969D-01
 Coeff:      0.903D+00 0.969D-01
 Gap=     0.528 Goal=   None    Shift=    0.000
 Gap=     0.166 Goal=   None    Shift=    0.000
 RMSDP=1.76D-02 MaxDP=1.02D+00 DE= 2.82D-01 OVMax= 9.92D-02

 Cycle   3  Pass 1  IDiag  1:
