 Entering Gaussian System, Link 0=g09
 Initial command:
 /home/k0335/k033513/app/g09/l1.exe "/home/k0335/k033513/app/g09/scratch/Gau-1515968.inp" -scrdir="/home/k0335/k033513/app/g09/scratch/"
 Default is to use a total of  36 processors:
                               36 via shared-memory
                                1 via Linda
 Entering Link 1 = /home/k0335/k033513/app/g09/l1.exe PID=   1515969.
  
 Copyright (c) 1988,1990,1992,1993,1995,1998,2003,2009,2013,
            Gaussian, Inc.  All Rights Reserved.
  
 This is part of the Gaussian(R) 09 program.  It is based on
 the Gaussian(R) 03 system (copyright 2003, Gaussian, Inc.),
 the Gaussian(R) 98 system (copyright 1998, Gaussian, Inc.),
 the Gaussian(R) 94 system (copyright 1995, Gaussian, Inc.),
 the Gaussian 92(TM) system (copyright 1992, Gaussian, Inc.),
 the Gaussian 90(TM) system (copyright 1990, Gaussian, Inc.),
 the Gaussian 88(TM) system (copyright 1988, Gaussian, Inc.),
 the Gaussian 86(TM) system (copyright 1986, Carnegie Mellon
 University), and the Gaussian 82(TM) system (copyright 1983,
 Carnegie Mellon University). Gaussian is a federally registered
 trademark of Gaussian, Inc.
  
 This software contains proprietary and confidential information,
 including trade secrets, belonging to Gaussian, Inc.
  
 This software is provided under written license and may be
 used, copied, transmitted, or stored only in accord with that
 written license.
  
 The following legend is applicable only to US Government
 contracts under FAR:
  
                    RESTRICTED RIGHTS LEGEND
  
 Use, reproduction and disclosure by the US Government is
 subject to restrictions as set forth in subparagraphs (a)
 and (c) of the Commercial Computer Software - Restricted
 Rights clause in FAR 52.227-19.
  
 Gaussian, Inc.
 340 Quinnipiac St., Bldg. 40, Wallingford CT 06492
  
  
 ---------------------------------------------------------------
 Warning -- This program may not be used in any manner that
 competes with the business of Gaussian, Inc. or will provide
 assistance to any competitor of Gaussian, Inc.  The licensee
 of this program is prohibited from giving any competitor of
 Gaussian, Inc. access to this program.  By using this program,
 the user acknowledges that Gaussian, Inc. is engaged in the
 business of creating and licensing software in the field of
 computational chemistry and represents and warrants to the
 licensee that it is not a competitor of Gaussian, Inc. and that
 it will not use this program in any manner prohibited above.
 ---------------------------------------------------------------
  

 Cite this work as:
 Gaussian 09, Revision D.01,
 M. J. Frisch, G. W. Trucks, H. B. Schlegel, G. E. Scuseria, 
 M. A. Robb, J. R. Cheeseman, G. Scalmani, V. Barone, B. Mennucci, 
 G. A. Petersson, H. Nakatsuji, M. Caricato, X. Li, H. P. Hratchian, 
 A. F. Izmaylov, J. Bloino, G. Zheng, J. L. Sonnenberg, M. Hada, 
 M. Ehara, K. Toyota, R. Fukuda, J. Hasegawa, M. Ishida, T. Nakajima, 
 Y. Honda, O. Kitao, H. Nakai, T. Vreven, J. A. Montgomery, Jr., 
 J. E. Peralta, F. Ogliaro, M. Bearpark, J. J. Heyd, E. Brothers, 
 K. N. Kudin, V. N. Staroverov, T. Keith, R. Kobayashi, J. Normand, 
 K. Raghavachari, A. Rendell, J. C. Burant, S. S. Iyengar, J. Tomasi, 
 M. Cossi, N. Rega, J. M. Millam, M. Klene, J. E. Knox, J. B. Cross, 
 V. Bakken, C. Adamo, J. Jaramillo, R. Gomperts, R. E. Stratmann, 
 O. Yazyev, A. J. Austin, R. Cammi, C. Pomelli, J. W. Ochterski, 
 R. L. Martin, K. Morokuma, V. G. Zakrzewski, G. A. Voth, 
 P. Salvador, J. J. Dannenberg, S. Dapprich, A. D. Daniels, 
 O. Farkas, J. B. Foresman, J. V. Ortiz, J. Cioslowski, 
 and D. J. Fox, Gaussian, Inc., Wallingford CT, 2013.
 
 ******************************************
 Gaussian 09:  ES64L-G09RevD.01 24-Apr-2013
                 4-Feb-2025 
 ******************************************
 %nprocshared=24
 Will use up to   24 processors via shared memory.
 %mem=40GB
 %rwf=cytopopt/OA0/OA0_neu.rwf
 %nosave
 %chk=cytopopt/OA0/OA0_neu.chk
 ----------------------------------------------------------------------
 #p CAM-B3LYP/6-31G(d,p) opt SCRF=(PCM,Solvent=Generic,Read) NoSymm out
 =wfn
 ----------------------------------------------------------------------
 1/14=-1,18=20,19=15,26=3,38=1,40=2/1,3;
 2/9=110,12=2,15=1,17=6,18=5,40=1/2;
 3/5=1,6=6,7=101,11=2,16=1,25=1,30=1,70=2203,71=1,72=-2,74=-40/1,2,3;
 4//1;
 5/5=2,38=5/2;
 6/7=2,8=2,9=2,10=2,28=1/1;
 7/30=1/1,2,3,16;
 1/14=-1,18=20,19=15,26=3/3(2);
 2/9=110,15=1/2;
 99/6=100/99;
 2/9=110,15=1/2;
 3/5=1,6=6,7=101,11=2,16=1,25=1,30=1,70=2205,71=1,72=-2,74=-40/1,2,3;
 4/5=5,16=3,69=1/1;
 5/5=2,38=5/2;
 7/30=1/1,2,3,16;
 1/14=-1,18=20,19=15,26=3/3(-5);
 2/9=110,15=1/2;
 6/7=2,8=2,9=2,10=2,19=2,28=1/1;
 99/6=100,9=1/99;
 Leave Link    1 at Tue Feb  4 08:38:28 2025, MaxMem=  5368709120 cpu:         0.9
 (Enter /home/k0335/k033513/app/g09/l101.exe)
 -------------
 Title OA0_neu
 -------------
 Symbolic Z-matrix:
 Charge =  0 Multiplicity = 1
 F                     4.24741   2.78499   2.20629 
 C                     4.33938   2.14819   1.02377 
 F                     4.47551   3.09139   0.06948 
 C                     5.4591    1.13124   0.97799 
 F                     6.68196   1.63533   0.75519 
 F                     5.53458   0.48448   2.173 
 C                     4.98075   0.17075  -0.07033 
 F                     5.53621  -1.05649   0.12824 
 C                     5.27203   0.59626  -1.49966 
 F                     4.59593   1.73646  -1.80254 
 C                     6.76925   0.7638   -1.75752 
 O                     7.453    -0.39832  -1.82452 
 O                     7.36383   1.82273  -1.89424 
 F                     4.75547  -0.3528   -2.34262 
 C                     3.47355   0.17812   0.20757 
 F                     2.78309   0.06949  -0.96372 
 C                     3.02191  -0.98615   1.10939 
 F                     3.36158  -2.16881   0.50664 
 C                     1.50296  -0.91632   1.32492 
 N                     0.75818  -1.71642   0.47145 
 C                    -0.69109  -1.7189    0.48535 
 C                    -1.25275  -0.58571  -0.37136 
 C                    -2.77848  -0.61676  -0.49872 
 C                    -3.49954  -0.31051   0.81664 
 C                    -5.02668  -0.34259   0.69464 
 C                    -5.59339   0.77812  -0.17964 
 C                    -7.12271   0.7744   -0.16072 
 C                    -7.69338   1.87882  -1.0359 
 O                     0.98211  -0.19596   2.17494 
 F                     3.69589  -0.96484   2.28958 
 O                     3.12035   1.46199   0.7598 
 H                     8.38189  -0.1408   -2.01306 
 H                     1.2401   -2.28836  -0.21553 
 H                    -1.01344  -2.69104   0.09771 
 H                    -1.02895  -1.6333    1.5229 
 H                    -0.93396   0.38428   0.0299 
 H                    -0.82114  -0.65586  -1.37844 
 H                    -3.09677  -1.59503  -0.87862 
 H                    -3.06237   0.12475  -1.25378 
 H                    -3.21299  -1.05062   1.57203 
 H                    -3.18153   0.66829   1.19531 
 H                    -5.44994  -0.25626   1.70313 
 H                    -5.34407  -1.31611   0.30191 
 H                    -5.24885   0.66036  -1.21292 
 H                    -5.22479   1.74689   0.17837 
 H                    -7.48323   0.90768   0.86589 
 H                    -7.49706  -0.19369  -0.51329 
 H                    -7.37975   1.75535  -2.0774 
 H                    -7.36183   2.86354  -0.69146 
 H                    -8.78728   1.85897  -1.00605 
 
 NAtoms=     50 NQM=       50 NQMF=       0 NMMI=      0 NMMIF=      0
                NMic=       0 NMicF=      0.
                    Isotopes and Nuclear Properties:
 (Nuclear quadrupole moments (NQMom) in fm**2, nuclear magnetic moments (NMagM)
  in nuclear magnetons)

  Atom         1           2           3           4           5           6           7           8           9          10
 IAtWgt=          19          12          19          12          19          19          12          19          12          19
 AtmWgt=  18.9984033  12.0000000  18.9984033  12.0000000  18.9984033  18.9984033  12.0000000  18.9984033  12.0000000  18.9984033
 NucSpn=           1           0           1           0           1           1           0           1           0           1
 AtZEff=   0.0000000   0.0000000   0.0000000   0.0000000   0.0000000   0.0000000   0.0000000   0.0000000   0.0000000   0.0000000
 NQMom=    0.0000000   0.0000000   0.0000000   0.0000000   0.0000000   0.0000000   0.0000000   0.0000000   0.0000000   0.0000000
 NMagM=    2.6288670   0.0000000   2.6288670   0.0000000   2.6288670   2.6288670   0.0000000   2.6288670   0.0000000   2.6288670
 AtZNuc=   9.0000000   6.0000000   9.0000000   6.0000000   9.0000000   9.0000000   6.0000000   9.0000000   6.0000000   9.0000000

  Atom        11          12          13          14          15          16          17          18          19          20
 IAtWgt=          12          16          16          19          12          19          12          19          12          14
 AtmWgt=  12.0000000  15.9949146  15.9949146  18.9984033  12.0000000  18.9984033  12.0000000  18.9984033  12.0000000  14.0030740
 NucSpn=           0           0           0           1           0           1           0           1           0           2
 AtZEff=   0.0000000   0.0000000   0.0000000   0.0000000   0.0000000   0.0000000   0.0000000   0.0000000   0.0000000   0.0000000
 NQMom=    0.0000000   0.0000000   0.0000000   0.0000000   0.0000000   0.0000000   0.0000000   0.0000000   0.0000000   2.0440000
 NMagM=    0.0000000   0.0000000   0.0000000   2.6288670   0.0000000   2.6288670   0.0000000   2.6288670   0.0000000   0.4037610
 AtZNuc=   6.0000000   8.0000000   8.0000000   9.0000000   6.0000000   9.0000000   6.0000000   9.0000000   6.0000000   7.0000000

  Atom        21          22          23          24          25          26          27          28          29          30
 IAtWgt=          12          12          12          12          12          12          12          12          16          19
 AtmWgt=  12.0000000  12.0000000  12.0000000  12.0000000  12.0000000  12.0000000  12.0000000  12.0000000  15.9949146  18.9984033
 NucSpn=           0           0           0           0           0           0           0           0           0           1
 AtZEff=   0.0000000   0.0000000   0.0000000   0.0000000   0.0000000   0.0000000   0.0000000   0.0000000   0.0000000   0.0000000
 NQMom=    0.0000000   0.0000000   0.0000000   0.0000000   0.0000000   0.0000000   0.0000000   0.0000000   0.0000000   0.0000000
 NMagM=    0.0000000   0.0000000   0.0000000   0.0000000   0.0000000   0.0000000   0.0000000   0.0000000   0.0000000   2.6288670
 AtZNuc=   6.0000000   6.0000000   6.0000000   6.0000000   6.0000000   6.0000000   6.0000000   6.0000000   8.0000000   9.0000000

  Atom        31          32          33          34          35          36          37          38          39          40
 IAtWgt=          16           1           1           1           1           1           1           1           1           1
 AtmWgt=  15.9949146   1.0078250   1.0078250   1.0078250   1.0078250   1.0078250   1.0078250   1.0078250   1.0078250   1.0078250
 NucSpn=           0           1           1           1           1           1           1           1           1           1
 AtZEff=   0.0000000   0.0000000   0.0000000   0.0000000   0.0000000   0.0000000   0.0000000   0.0000000   0.0000000   0.0000000
 NQMom=    0.0000000   0.0000000   0.0000000   0.0000000   0.0000000   0.0000000   0.0000000   0.0000000   0.0000000   0.0000000
 NMagM=    0.0000000   2.7928460   2.7928460   2.7928460   2.7928460   2.7928460   2.7928460   2.7928460   2.7928460   2.7928460
 AtZNuc=   8.0000000   1.0000000   1.0000000   1.0000000   1.0000000   1.0000000   1.0000000   1.0000000   1.0000000   1.0000000

  Atom        41          42          43          44          45          46          47          48          49          50
 IAtWgt=           1           1           1           1           1           1           1           1           1           1
 AtmWgt=   1.0078250   1.0078250   1.0078250   1.0078250   1.0078250   1.0078250   1.0078250   1.0078250   1.0078250   1.0078250
 NucSpn=           1           1           1           1           1           1           1           1           1           1
 AtZEff=   0.0000000   0.0000000   0.0000000   0.0000000   0.0000000   0.0000000   0.0000000   0.0000000   0.0000000   0.0000000
 NQMom=    0.0000000   0.0000000   0.0000000   0.0000000   0.0000000   0.0000000   0.0000000   0.0000000   0.0000000   0.0000000
 NMagM=    2.7928460   2.7928460   2.7928460   2.7928460   2.7928460   2.7928460   2.7928460   2.7928460   2.7928460   2.7928460
 AtZNuc=   1.0000000   1.0000000   1.0000000   1.0000000   1.0000000   1.0000000   1.0000000   1.0000000   1.0000000   1.0000000
 Leave Link  101 at Tue Feb  4 08:38:28 2025, MaxMem=  5368709120 cpu:         4.9
 (Enter /home/k0335/k033513/app/g09/l103.exe)

 GradGradGradGradGradGradGradGradGradGradGradGradGradGradGradGradGradGrad
 Berny optimization.
 Initialization pass.
                           ----------------------------
                           !    Initial Parameters    !
                           ! (Angstroms and Degrees)  !
 --------------------------                            --------------------------
 ! Name  Definition              Value          Derivative Info.                !
 --------------------------------------------------------------------------------
 ! R1    R(1,2)                  1.3462         estimate D2E/DX2                !
 ! R2    R(2,3)                  1.3486         estimate D2E/DX2                !
 ! R3    R(2,4)                  1.5133         estimate D2E/DX2                !
 ! R4    R(2,31)                 1.4236         estimate D2E/DX2                !
 ! R5    R(4,5)                  1.3413         estimate D2E/DX2                !
 ! R6    R(4,6)                  1.3609         estimate D2E/DX2                !
 ! R7    R(4,7)                  1.5001         estimate D2E/DX2                !
 ! R8    R(7,8)                  1.3617         estimate D2E/DX2                !
 ! R9    R(7,9)                  1.5195         estimate D2E/DX2                !
 ! R10   R(7,15)                 1.5326         estimate D2E/DX2                !
 ! R11   R(9,10)                 1.3597         estimate D2E/DX2                !
 ! R12   R(9,11)                 1.5285         estimate D2E/DX2                !
 ! R13   R(9,14)                 1.3705         estimate D2E/DX2                !
 ! R14   R(11,12)                1.35           estimate D2E/DX2                !
 ! R15   R(11,13)                1.2221         estimate D2E/DX2                !
 ! R16   R(12,32)                0.9822         estimate D2E/DX2                !
 ! R17   R(15,16)                1.364          estimate D2E/DX2                !
 ! R18   R(15,17)                1.5404         estimate D2E/DX2                !
 ! R19   R(15,31)                1.4415         estimate D2E/DX2                !
 ! R20   R(17,18)                1.3702         estimate D2E/DX2                !
 ! R21   R(17,19)                1.5357         estimate D2E/DX2                !
 ! R22   R(17,30)                1.3592         estimate D2E/DX2                !
 ! R23   R(19,20)                1.3868         estimate D2E/DX2                !
 ! R24   R(19,29)                1.2299         estimate D2E/DX2                !
 ! R25   R(20,21)                1.4493         estimate D2E/DX2                !
 ! R26   R(20,33)                1.0155         estimate D2E/DX2                !
 ! R27   R(21,22)                1.5276         estimate D2E/DX2                !
 ! R28   R(21,34)                1.0951         estimate D2E/DX2                !
 ! R29   R(21,35)                1.0945         estimate D2E/DX2                !
 ! R30   R(22,23)                1.5314         estimate D2E/DX2                !
 ! R31   R(22,36)                1.0971         estimate D2E/DX2                !
 ! R32   R(22,37)                1.0979         estimate D2E/DX2                !
 ! R33   R(23,24)                1.531          estimate D2E/DX2                !
 ! R34   R(23,38)                1.0966         estimate D2E/DX2                !
 ! R35   R(23,39)                1.0957         estimate D2E/DX2                !
 ! R36   R(24,25)                1.5323         estimate D2E/DX2                !
 ! R37   R(24,40)                1.0957         estimate D2E/DX2                !
 ! R38   R(24,41)                1.0966         estimate D2E/DX2                !
 ! R39   R(25,26)                1.5302         estimate D2E/DX2                !
 ! R40   R(25,42)                1.0971         estimate D2E/DX2                !
 ! R41   R(25,43)                1.0967         estimate D2E/DX2                !
 ! R42   R(26,27)                1.5294         estimate D2E/DX2                !
 ! R43   R(26,44)                1.0956         estimate D2E/DX2                !
 ! R44   R(26,45)                1.0966         estimate D2E/DX2                !
 ! R45   R(27,28)                1.5203         estimate D2E/DX2                !
 ! R46   R(27,46)                1.0962         estimate D2E/DX2                !
 ! R47   R(27,47)                1.0962         estimate D2E/DX2                !
 ! R48   R(28,48)                1.0947         estimate D2E/DX2                !
 ! R49   R(28,49)                1.0946         estimate D2E/DX2                !
 ! R50   R(28,50)                1.0945         estimate D2E/DX2                !
 ! A1    A(1,2,3)              107.3146         estimate D2E/DX2                !
 ! A2    A(1,2,4)              113.2661         estimate D2E/DX2                !
 ! A3    A(1,2,31)             109.4139         estimate D2E/DX2                !
 ! A4    A(3,2,4)              111.9556         estimate D2E/DX2                !
 ! A5    A(3,2,31)             106.9984         estimate D2E/DX2                !
 ! A6    A(4,2,31)             107.7024         estimate D2E/DX2                !
 ! A7    A(2,4,5)              115.2804         estimate D2E/DX2                !
 ! A8    A(2,4,6)              109.5025         estimate D2E/DX2                !
 ! A9    A(2,4,7)              102.4433         estimate D2E/DX2                !
 ! A10   A(5,4,6)              105.8966         estimate D2E/DX2                !
 ! A11   A(5,4,7)              114.5353         estimate D2E/DX2                !
 ! A12   A(6,4,7)              109.0893         estimate D2E/DX2                !
 ! A13   A(4,7,8)              110.1874         estimate D2E/DX2                !
 ! A14   A(4,7,9)              114.6414         estimate D2E/DX2                !
 ! A15   A(4,7,15)             100.5908         estimate D2E/DX2                !
 ! A16   A(8,7,9)              108.1416         estimate D2E/DX2                !
 ! A17   A(8,7,15)             112.2749         estimate D2E/DX2                !
 ! A18   A(9,7,15)             110.9607         estimate D2E/DX2                !
 ! A19   A(7,9,10)             110.4281         estimate D2E/DX2                !
 ! A20   A(7,9,11)             112.1577         estimate D2E/DX2                !
 ! A21   A(7,9,14)             108.205          estimate D2E/DX2                !
 ! A22   A(10,9,11)            110.9512         estimate D2E/DX2                !
 ! A23   A(10,9,14)            104.8488         estimate D2E/DX2                !
 ! A24   A(11,9,14)            109.9597         estimate D2E/DX2                !
 ! A25   A(9,11,12)            114.2134         estimate D2E/DX2                !
 ! A26   A(9,11,13)            126.1869         estimate D2E/DX2                !
 ! A27   A(12,11,13)           119.5987         estimate D2E/DX2                !
 ! A28   A(11,12,32)           105.2375         estimate D2E/DX2                !
 ! A29   A(7,15,16)            109.982          estimate D2E/DX2                !
 ! A30   A(7,15,17)            113.0079         estimate D2E/DX2                !
 ! A31   A(7,15,31)            108.3422         estimate D2E/DX2                !
 ! A32   A(16,15,17)           107.1053         estimate D2E/DX2                !
 ! A33   A(16,15,31)           106.0136         estimate D2E/DX2                !
 ! A34   A(17,15,31)           112.1508         estimate D2E/DX2                !
 ! A35   A(15,17,18)           108.7939         estimate D2E/DX2                !
 ! A36   A(15,17,19)           109.742          estimate D2E/DX2                !
 ! A37   A(15,17,30)           110.5545         estimate D2E/DX2                !
 ! A38   A(18,17,19)           110.2537         estimate D2E/DX2                !
 ! A39   A(18,17,30)           105.8171         estimate D2E/DX2                !
 ! A40   A(19,17,30)           111.5833         estimate D2E/DX2                !
 ! A41   A(17,19,20)           114.7442         estimate D2E/DX2                !
 ! A42   A(17,19,29)           122.8521         estimate D2E/DX2                !
 ! A43   A(20,19,29)           122.3975         estimate D2E/DX2                !
 ! A44   A(19,20,21)           122.1477         estimate D2E/DX2                !
 ! A45   A(19,20,33)           119.1028         estimate D2E/DX2                !
 ! A46   A(21,20,33)           118.6888         estimate D2E/DX2                !
 ! A47   A(20,21,22)           111.1624         estimate D2E/DX2                !
 ! A48   A(20,21,34)           107.0056         estimate D2E/DX2                !
 ! A49   A(20,21,35)           108.5195         estimate D2E/DX2                !
 ! A50   A(22,21,34)           110.5955         estimate D2E/DX2                !
 ! A51   A(22,21,35)           111.1076         estimate D2E/DX2                !
 ! A52   A(34,21,35)           108.308          estimate D2E/DX2                !
 ! A53   A(21,22,23)           113.4488         estimate D2E/DX2                !
 ! A54   A(21,22,36)           110.1159         estimate D2E/DX2                !
 ! A55   A(21,22,37)           108.8134         estimate D2E/DX2                !
 ! A56   A(23,22,36)           109.7471         estimate D2E/DX2                !
 ! A57   A(23,22,37)           108.3065         estimate D2E/DX2                !
 ! A58   A(36,22,37)           106.1265         estimate D2E/DX2                !
 ! A59   A(22,23,24)           113.1875         estimate D2E/DX2                !
 ! A60   A(22,23,38)           109.6375         estimate D2E/DX2                !
 ! A61   A(22,23,39)           107.5617         estimate D2E/DX2                !
 ! A62   A(24,23,38)           109.8388         estimate D2E/DX2                !
 ! A63   A(24,23,39)           109.552          estimate D2E/DX2                !
 ! A64   A(38,23,39)           106.8446         estimate D2E/DX2                !
 ! A65   A(23,24,25)           113.3775         estimate D2E/DX2                !
 ! A66   A(23,24,40)           109.5136         estimate D2E/DX2                !
 ! A67   A(23,24,41)           109.7938         estimate D2E/DX2                !
 ! A68   A(25,24,40)           107.5415         estimate D2E/DX2                !
 ! A69   A(25,24,41)           109.5842         estimate D2E/DX2                !
 ! A70   A(40,24,41)           106.7989         estimate D2E/DX2                !
 ! A71   A(24,25,26)           113.5311         estimate D2E/DX2                !
 ! A72   A(24,25,42)           108.0385         estimate D2E/DX2                !
 ! A73   A(24,25,43)           109.6049         estimate D2E/DX2                !
 ! A74   A(26,25,42)           108.9463         estimate D2E/DX2                !
 ! A75   A(26,25,43)           109.7761         estimate D2E/DX2                !
 ! A76   A(42,25,43)           106.7014         estimate D2E/DX2                !
 ! A77   A(25,26,27)           111.1904         estimate D2E/DX2                !
 ! A78   A(25,26,44)           110.1012         estimate D2E/DX2                !
 ! A79   A(25,26,45)           109.6335         estimate D2E/DX2                !
 ! A80   A(27,26,44)           109.0183         estimate D2E/DX2                !
 ! A81   A(27,26,45)           109.5244         estimate D2E/DX2                !
 ! A82   A(44,26,45)           107.2873         estimate D2E/DX2                !
 ! A83   A(26,27,28)           111.4964         estimate D2E/DX2                !
 ! A84   A(26,27,46)           109.8861         estimate D2E/DX2                !
 ! A85   A(26,27,47)           109.8554         estimate D2E/DX2                !
 ! A86   A(28,27,46)           109.107          estimate D2E/DX2                !
 ! A87   A(28,27,47)           109.1601         estimate D2E/DX2                !
 ! A88   A(46,27,47)           107.2338         estimate D2E/DX2                !
 ! A89   A(27,28,48)           110.9905         estimate D2E/DX2                !
 ! A90   A(27,28,49)           111.0188         estimate D2E/DX2                !
 ! A91   A(27,28,50)           110.26           estimate D2E/DX2                !
 ! A92   A(48,28,49)           108.3043         estimate D2E/DX2                !
 ! A93   A(48,28,50)           108.0742         estimate D2E/DX2                !
 ! A94   A(49,28,50)           108.0866         estimate D2E/DX2                !
 ! A95   A(2,31,15)            106.8895         estimate D2E/DX2                !
 ! D1    D(1,2,4,5)            -80.4189         estimate D2E/DX2                !
 ! D2    D(1,2,4,6)             38.8307         estimate D2E/DX2                !
 ! D3    D(1,2,4,7)            154.5168         estimate D2E/DX2                !
 ! D4    D(3,2,4,5)             41.0896         estimate D2E/DX2                !
 ! D5    D(3,2,4,6)            160.3393         estimate D2E/DX2                !
 ! D6    D(3,2,4,7)            -83.9746         estimate D2E/DX2                !
 ! D7    D(31,2,4,5)           158.4475         estimate D2E/DX2                !
 ! D8    D(31,2,4,6)           -82.3029         estimate D2E/DX2                !
 ! D9    D(31,2,4,7)            33.3833         estimate D2E/DX2                !
 ! D10   D(1,2,31,15)         -138.6976         estimate D2E/DX2                !
 ! D11   D(3,2,31,15)          105.3443         estimate D2E/DX2                !
 ! D12   D(4,2,31,15)          -15.1849         estimate D2E/DX2                !
 ! D13   D(2,4,7,8)           -154.7194         estimate D2E/DX2                !
 ! D14   D(2,4,7,9)             83.0287         estimate D2E/DX2                !
 ! D15   D(2,4,7,15)           -36.0596         estimate D2E/DX2                !
 ! D16   D(5,4,7,8)             79.7278         estimate D2E/DX2                !
 ! D17   D(5,4,7,9)            -42.524          estimate D2E/DX2                !
 ! D18   D(5,4,7,15)          -161.6124         estimate D2E/DX2                !
 ! D19   D(6,4,7,8)            -38.7345         estimate D2E/DX2                !
 ! D20   D(6,4,7,9)           -160.9863         estimate D2E/DX2                !
 ! D21   D(6,4,7,15)            79.9253         estimate D2E/DX2                !
 ! D22   D(4,7,9,10)           -64.3875         estimate D2E/DX2                !
 ! D23   D(4,7,9,11)            59.9225         estimate D2E/DX2                !
 ! D24   D(4,7,9,14)          -178.6157         estimate D2E/DX2                !
 ! D25   D(8,7,9,10)           172.2574         estimate D2E/DX2                !
 ! D26   D(8,7,9,11)           -63.4326         estimate D2E/DX2                !
 ! D27   D(8,7,9,14)            58.0293         estimate D2E/DX2                !
 ! D28   D(15,7,9,10)           48.7076         estimate D2E/DX2                !
 ! D29   D(15,7,9,11)          173.0176         estimate D2E/DX2                !
 ! D30   D(15,7,9,14)          -65.5206         estimate D2E/DX2                !
 ! D31   D(4,7,15,16)          144.2478         estimate D2E/DX2                !
 ! D32   D(4,7,15,17)          -96.1205         estimate D2E/DX2                !
 ! D33   D(4,7,15,31)           28.7931         estimate D2E/DX2                !
 ! D34   D(8,7,15,16)          -98.6246         estimate D2E/DX2                !
 ! D35   D(8,7,15,17)           21.0071         estimate D2E/DX2                !
 ! D36   D(8,7,15,31)          145.9207         estimate D2E/DX2                !
 ! D37   D(9,7,15,16)           22.5225         estimate D2E/DX2                !
 ! D38   D(9,7,15,17)          142.1541         estimate D2E/DX2                !
 ! D39   D(9,7,15,31)          -92.9323         estimate D2E/DX2                !
 ! D40   D(7,9,11,12)           72.6443         estimate D2E/DX2                !
 ! D41   D(7,9,11,13)         -106.993          estimate D2E/DX2                !
 ! D42   D(10,9,11,12)        -163.3368         estimate D2E/DX2                !
 ! D43   D(10,9,11,13)          17.0259         estimate D2E/DX2                !
 ! D44   D(14,9,11,12)         -47.8055         estimate D2E/DX2                !
 ! D45   D(14,9,11,13)         132.5571         estimate D2E/DX2                !
 ! D46   D(9,11,12,32)         178.6731         estimate D2E/DX2                !
 ! D47   D(13,11,12,32)         -1.6636         estimate D2E/DX2                !
 ! D48   D(7,15,17,18)         -58.6285         estimate D2E/DX2                !
 ! D49   D(7,15,17,19)        -179.335          estimate D2E/DX2                !
 ! D50   D(7,15,17,30)          57.163          estimate D2E/DX2                !
 ! D51   D(16,15,17,18)         62.6447         estimate D2E/DX2                !
 ! D52   D(16,15,17,19)        -58.0618         estimate D2E/DX2                !
 ! D53   D(16,15,17,30)        178.4362         estimate D2E/DX2                !
 ! D54   D(31,15,17,18)        178.5517         estimate D2E/DX2                !
 ! D55   D(31,15,17,19)         57.8452         estimate D2E/DX2                !
 ! D56   D(31,15,17,30)        -65.6568         estimate D2E/DX2                !
 ! D57   D(7,15,31,2)           -8.7852         estimate D2E/DX2                !
 ! D58   D(16,15,31,2)        -126.8001         estimate D2E/DX2                !
 ! D59   D(17,15,31,2)         116.6342         estimate D2E/DX2                !
 ! D60   D(15,17,19,20)         96.1684         estimate D2E/DX2                !
 ! D61   D(15,17,19,29)        -82.9429         estimate D2E/DX2                !
 ! D62   D(18,17,19,20)        -23.6509         estimate D2E/DX2                !
 ! D63   D(18,17,19,29)        157.2378         estimate D2E/DX2                !
 ! D64   D(30,17,19,20)       -140.9353         estimate D2E/DX2                !
 ! D65   D(30,17,19,29)         39.9533         estimate D2E/DX2                !
 ! D66   D(17,19,20,21)       -176.5625         estimate D2E/DX2                !
 ! D67   D(17,19,20,33)          0.5674         estimate D2E/DX2                !
 ! D68   D(29,19,20,21)          2.5533         estimate D2E/DX2                !
 ! D69   D(29,19,20,33)        179.6832         estimate D2E/DX2                !
 ! D70   D(19,20,21,22)         84.3689         estimate D2E/DX2                !
 ! D71   D(19,20,21,34)       -154.7773         estimate D2E/DX2                !
 ! D72   D(19,20,21,35)        -38.1058         estimate D2E/DX2                !
 ! D73   D(33,20,21,22)        -92.7725         estimate D2E/DX2                !
 ! D74   D(33,20,21,34)         28.0813         estimate D2E/DX2                !
 ! D75   D(33,20,21,35)        144.7528         estimate D2E/DX2                !
 ! D76   D(20,21,22,23)        174.6805         estimate D2E/DX2                !
 ! D77   D(20,21,22,36)        -61.8787         estimate D2E/DX2                !
 ! D78   D(20,21,22,37)         54.0518         estimate D2E/DX2                !
 ! D79   D(34,21,22,23)         55.9623         estimate D2E/DX2                !
 ! D80   D(34,21,22,36)        179.4032         estimate D2E/DX2                !
 ! D81   D(34,21,22,37)        -64.6663         estimate D2E/DX2                !
 ! D82   D(35,21,22,23)        -64.3536         estimate D2E/DX2                !
 ! D83   D(35,21,22,36)         59.0873         estimate D2E/DX2                !
 ! D84   D(35,21,22,37)        175.0178         estimate D2E/DX2                !
 ! D85   D(21,22,23,24)         67.9225         estimate D2E/DX2                !
 ! D86   D(21,22,23,38)        -55.0913         estimate D2E/DX2                !
 ! D87   D(21,22,23,39)       -170.9173         estimate D2E/DX2                !
 ! D88   D(36,22,23,24)        -55.7201         estimate D2E/DX2                !
 ! D89   D(36,22,23,38)       -178.7338         estimate D2E/DX2                !
 ! D90   D(36,22,23,39)         65.4401         estimate D2E/DX2                !
 ! D91   D(37,22,23,24)       -171.163          estimate D2E/DX2                !
 ! D92   D(37,22,23,38)         65.8233         estimate D2E/DX2                !
 ! D93   D(37,22,23,39)        -50.0028         estimate D2E/DX2                !
 ! D94   D(22,23,24,25)       -179.9093         estimate D2E/DX2                !
 ! D95   D(22,23,24,40)        -59.8066         estimate D2E/DX2                !
 ! D96   D(22,23,24,41)         57.1568         estimate D2E/DX2                !
 ! D97   D(38,23,24,25)        -57.007          estimate D2E/DX2                !
 ! D98   D(38,23,24,40)         63.0956         estimate D2E/DX2                !
 ! D99   D(38,23,24,41)       -179.9409         estimate D2E/DX2                !
 ! D100  D(39,23,24,25)         60.0605         estimate D2E/DX2                !
 ! D101  D(39,23,24,40)       -179.8368         estimate D2E/DX2                !
 ! D102  D(39,23,24,41)        -62.8734         estimate D2E/DX2                !
 ! D103  D(23,24,25,26)        -67.0343         estimate D2E/DX2                !
 ! D104  D(23,24,25,42)        172.0185         estimate D2E/DX2                !
 ! D105  D(23,24,25,43)         56.1165         estimate D2E/DX2                !
 ! D106  D(40,24,25,26)        171.7481         estimate D2E/DX2                !
 ! D107  D(40,24,25,42)         50.8009         estimate D2E/DX2                !
 ! D108  D(40,24,25,43)        -65.1011         estimate D2E/DX2                !
 ! D109  D(41,24,25,26)         56.0152         estimate D2E/DX2                !
 ! D110  D(41,24,25,42)        -64.932          estimate D2E/DX2                !
 ! D111  D(41,24,25,43)        179.166          estimate D2E/DX2                !
 ! D112  D(24,25,26,27)       -174.7593         estimate D2E/DX2                !
 ! D113  D(24,25,26,44)         64.3066         estimate D2E/DX2                !
 ! D114  D(24,25,26,45)        -53.5026         estimate D2E/DX2                !
 ! D115  D(42,25,26,27)        -54.3236         estimate D2E/DX2                !
 ! D116  D(42,25,26,44)       -175.2577         estimate D2E/DX2                !
 ! D117  D(42,25,26,45)         66.9331         estimate D2E/DX2                !
 ! D118  D(43,25,26,27)         62.1839         estimate D2E/DX2                !
 ! D119  D(43,25,26,44)        -58.7502         estimate D2E/DX2                !
 ! D120  D(43,25,26,45)       -176.5594         estimate D2E/DX2                !
 ! D121  D(25,26,27,28)       -179.5626         estimate D2E/DX2                !
 ! D122  D(25,26,27,46)         59.3348         estimate D2E/DX2                !
 ! D123  D(25,26,27,47)        -58.4139         estimate D2E/DX2                !
 ! D124  D(44,26,27,28)        -57.9945         estimate D2E/DX2                !
 ! D125  D(44,26,27,46)       -179.097          estimate D2E/DX2                !
 ! D126  D(44,26,27,47)         63.1543         estimate D2E/DX2                !
 ! D127  D(45,26,27,28)         59.1168         estimate D2E/DX2                !
 ! D128  D(45,26,27,46)        -61.9857         estimate D2E/DX2                !
 ! D129  D(45,26,27,47)       -179.7344         estimate D2E/DX2                !
 ! D130  D(26,27,28,48)         60.3886         estimate D2E/DX2                !
 ! D131  D(26,27,28,49)        -60.1279         estimate D2E/DX2                !
 ! D132  D(26,27,28,50)       -179.8865         estimate D2E/DX2                !
 ! D133  D(46,27,28,48)       -178.0557         estimate D2E/DX2                !
 ! D134  D(46,27,28,49)         61.4278         estimate D2E/DX2                !
 ! D135  D(46,27,28,50)        -58.3308         estimate D2E/DX2                !
 ! D136  D(47,27,28,48)        -61.1645         estimate D2E/DX2                !
 ! D137  D(47,27,28,49)        178.319          estimate D2E/DX2                !
 ! D138  D(47,27,28,50)         58.5604         estimate D2E/DX2                !
 --------------------------------------------------------------------------------
 Trust Radius=3.00D-01 FncErr=1.00D-07 GrdErr=1.00D-06
 Number of steps in this run=    293 maximum allowed number of steps=    300.
 GradGradGradGradGradGradGradGradGradGradGradGradGradGradGradGradGradGrad

 Leave Link  103 at Tue Feb  4 08:38:28 2025, MaxMem=  5368709120 cpu:         0.2
 (Enter /home/k0335/k033513/app/g09/l202.exe)
                          Input orientation:                          
 ---------------------------------------------------------------------
 Center     Atomic      Atomic             Coordinates (Angstroms)
 Number     Number       Type             X           Y           Z
 ---------------------------------------------------------------------
      1          9           0        4.247407    2.784992    2.206294
      2          6           0        4.339375    2.148187    1.023774
      3          9           0        4.475513    3.091395    0.069480
      4          6           0        5.459096    1.131240    0.977994
      5          9           0        6.681955    1.635331    0.755185
      6          9           0        5.534580    0.484478    2.172997
      7          6           0        4.980754    0.170754   -0.070328
      8          9           0        5.536211   -1.056493    0.128239
      9          6           0        5.272032    0.596262   -1.499660
     10          9           0        4.595926    1.736462   -1.802541
     11          6           0        6.769254    0.763799   -1.757515
     12          8           0        7.452997   -0.398320   -1.824522
     13          8           0        7.363835    1.822729   -1.894240
     14          9           0        4.755472   -0.352798   -2.342625
     15          6           0        3.473547    0.178118    0.207569
     16          9           0        2.783087    0.069493   -0.963719
     17          6           0        3.021907   -0.986152    1.109388
     18          9           0        3.361577   -2.168808    0.506642
     19          6           0        1.502962   -0.916318    1.324916
     20          7           0        0.758175   -1.716424    0.471454
     21          6           0       -0.691090   -1.718901    0.485354
     22          6           0       -1.252749   -0.585714   -0.371362
     23          6           0       -2.778484   -0.616760   -0.498719
     24          6           0       -3.499544   -0.310507    0.816644
     25          6           0       -5.026676   -0.342592    0.694643
     26          6           0       -5.593387    0.778119   -0.179641
     27          6           0       -7.122708    0.774397   -0.160717
     28          6           0       -7.693378    1.878821   -1.035899
     29          8           0        0.982105   -0.195958    2.174940
     30          9           0        3.695885   -0.964843    2.289582
     31          8           0        3.120348    1.461992    0.759804
     32          1           0        8.381885   -0.140804   -2.013059
     33          1           0        1.240095   -2.288361   -0.215529
     34          1           0       -1.013438   -2.691038    0.097705
     35          1           0       -1.028952   -1.633299    1.522900
     36          1           0       -0.933955    0.384278    0.029902
     37          1           0       -0.821135   -0.655864   -1.378435
     38          1           0       -3.096773   -1.595030   -0.878615
     39          1           0       -3.062372    0.124752   -1.253783
     40          1           0       -3.212985   -1.050623    1.572031
     41          1           0       -3.181534    0.668286    1.195305
     42          1           0       -5.449941   -0.256256    1.703129
     43          1           0       -5.344074   -1.316110    0.301906
     44          1           0       -5.248850    0.660359   -1.212919
     45          1           0       -5.224791    1.746887    0.178366
     46          1           0       -7.483232    0.907679    0.865885
     47          1           0       -7.497064   -0.193689   -0.513288
     48          1           0       -7.379754    1.755346   -2.077404
     49          1           0       -7.361834    2.863543   -0.691464
     50          1           0       -8.787280    1.858966   -1.006045
 ---------------------------------------------------------------------
                    Distance matrix (angstroms):
                    1          2          3          4          5
     1  F    0.000000
     2  C    1.346229   0.000000
     3  F    2.170689   1.348648   0.000000
     4  C    2.389939   1.513292   2.373824   0.000000
     5  F    3.058506   2.413057   2.731062   1.341319   0.000000
     6  F    2.636340   2.348863   3.513178   1.360893   2.156646
     7  C    3.543310   2.349184   2.967315   1.500108   2.391766
     8  F    4.553717   3.536152   4.281765   2.348235   2.991940
     9  C    4.424307   3.105807   3.053249   2.541646   2.855149
    10  F    4.158322   2.867646   2.314045   2.973673   3.302076
    11  C    5.114364   3.944162   3.743910   3.055247   2.660987
    12  O    6.054483   4.928705   4.962939   3.764212   3.374186
    13  O    5.239509   4.215221   3.715927   3.515098   2.742176
    14  F    5.549461   4.214345   4.214154   3.704587   4.154566
    15  C    3.374841   2.301526   3.083859   2.333324   3.566123
    16  F    4.423477   3.270035   3.614374   3.472547   4.539565
    17  C    4.114193   3.401049   4.452052   3.231177   4.515926
    18  F    5.311652   4.456452   5.394599   3.938537   5.055508
    19  C    4.691322   4.186540   5.145284   4.468092   5.801506
    20  N    5.953751   5.297666   6.090592   5.519459   6.812190
    21  C    6.901843   6.367876   7.071470   6.796380   8.104658
    22  C    6.946775   6.379065   6.821177   7.058155   8.316350
    23  C    8.261486   7.786323   8.166623   8.549498   9.805310
    24  C    8.457452   8.218073   8.702455   9.075346  10.365953
    25  C    9.903307   9.697176  10.122978  10.592633  11.874674
    26  C   10.322861  10.098765  10.334218  11.118552  12.340694
    27  C   11.786634  11.604726  11.829632  12.638267  13.861775
    28  C   12.406261  12.210731  12.279011  13.326748  14.488529
    29  O    4.421453   4.253406   5.238659   4.820538   6.152854
    30  F    3.791092   3.421594   4.689322   3.036896   4.246398
    31  O    2.261178   1.423577   2.228895   2.372076   3.565826
    32  H    6.592202   5.550110   5.481224   4.371177   3.702377
    33  H    6.375583   5.551970   6.284181   5.560408   6.778752
    34  H    7.880961   7.275184   7.972823   7.568250   8.852617
    35  H    6.915800   6.585416   7.398263   7.073497   8.410197
    36  H    6.111188   5.648643   6.049165   6.505992   7.751984
    37  H    7.097879   6.345406   6.647773   6.941743   8.130084
    38  H    9.090558   8.539734   8.955500   9.169648  10.427275
    39  H    8.513629   8.004212   8.208027   8.866187  10.063285
    40  H    8.412591   8.220165   8.861545   8.962053  10.285496
    41  H    7.790488   7.667047   8.109828   8.655752   9.920549
    42  H   10.175506  10.103147  10.601425  11.020801  12.315015
    43  H   10.603878  10.309783  10.765891  11.097527  12.391200
    44  H   10.314261   9.957434  10.105331  10.939924  12.131286
    45  H    9.742314   9.609840   9.793644  10.731443  11.921232
    46  H   11.955287  11.888559  12.182547  12.944744  14.184296
    47  H   12.417780  12.163397  12.428757  13.108831  14.352662
    48  H   12.433870  12.128875  12.121943  13.212155  14.344672
    49  H   11.965686  11.847872  11.863968  13.044700  14.171426
    50  H   13.456586  13.285815  13.363282  14.402265  15.570780
                    6          7          8          9         10
     6  F    0.000000
     7  C    2.331878   0.000000
     8  F    2.560396   1.361652   0.000000
     9  C    3.683726   1.519503   2.334833   0.000000
    10  F    4.272404   2.366452   3.523158   1.359747   0.000000
    11  C    4.129330   2.529236   2.896537   1.528474   2.381482
    12  O    4.521041   3.084320   2.814345   2.418954   3.566600
    13  O    4.656126   3.425602   3.964915   2.456737   2.770771
    14  F    4.658206   2.342689   2.685127   1.370452   2.163828
    15  C    2.864371   1.532630   2.405232   2.514761   2.780056
    16  F    4.193079   2.374477   3.168581   2.599916   2.601690
    17  C    3.099604   2.562663   2.699875   3.791336   4.285965
    18  F    3.812953   2.903133   2.471734   3.914166   4.701816
    19  C    4.351484   3.901726   4.209368   4.946920   5.136600
    20  N    5.527501   4.656731   4.835590   5.441389   5.641082
    21  C    6.816303   6.004115   6.272607   6.697692   6.717629
    22  C    7.327135   6.286448   6.823578   6.726284   6.453509
    23  C    8.801013   7.810856   8.349886   8.202689   7.849811
    24  C    9.169901   8.540128   9.092594   9.117458   8.751391
    25  C   10.696247  10.049744  10.602125  10.571651  10.156420
    26  C   11.377732  10.592134  11.283995  10.946819  10.362158
    27  C   12.873897  12.118843  12.793900  12.468123  11.872133
    28  C   13.682839  12.825110  13.601225  13.036943  12.314016
    29  O    4.603045   4.600533   5.066497   5.703838   5.710893
    30  F    2.344125   2.917129   2.840177   4.390859   4.985238
    31  O    2.963303   2.411955   3.546553   3.237964   2.969558
    32  H    5.101097   3.929245   3.677160   3.236979   4.231067
    33  H    5.642366   4.478935   4.482442   5.121187   5.475346
    34  H    7.567515   6.644428   6.750598   7.270836   7.394502
    35  H    6.927305   6.473758   6.736405   7.335476   7.352081
    36  H    6.815045   5.919411   6.629369   6.395215   5.980454
    37  H    7.369407   6.004695   6.545718   6.221672   5.936972
    38  H    9.388128   8.307693   8.708168   8.673197   8.433866
    39  H    9.261739   8.129856   8.788683   8.351351   7.845271
    40  H    8.901550   8.445500   8.867525   9.172951   8.951797
    41  H    8.772703   8.274800   8.950563   8.873038   8.403390
    42  H   11.019490  10.588998  11.127273  11.222538  10.824975
    43  H   11.184284  10.437979  10.884767  10.936385  10.608982
    44  H   11.303881  10.304854  11.002901  10.524984   9.920951
    45  H   11.015275  10.329530  11.120280  10.692194  10.018512
    46  H   13.090113  12.520803  13.187418  12.976500  12.398122
    47  H   13.322904  12.490996  13.077547  12.831476  12.313735
    48  H   13.655074  12.622260  13.401248  12.717899  11.978849
    49  H   13.423211  12.648178  13.505486  12.861116  12.062041
    50  H   14.734694  13.902676  14.661136  14.124529  13.407446
                   11         12         13         14         15
    11  C    0.000000
    12  O    1.350006   0.000000
    13  O    1.222110   2.223931   0.000000
    14  F    2.375807   2.747207   3.426007   0.000000
    15  C    3.881528   4.505297   4.717699   2.903221   0.000000
    16  F    4.123312   4.771571   4.992290   2.443361   1.363983
    17  C    5.032303   5.346768   5.980295   3.914432   1.540383
    18  F    5.033771   5.030772   6.141227   3.655018   2.368553
    19  C    6.329139   6.752051   7.226007   4.934292   2.515842
    20  N    6.874073   7.199274   7.858553   5.075126   3.321471
    21  C    8.176246   8.567708   9.115231   6.287189   4.584762
    22  C    8.251978   8.828182   9.075532   6.327626   4.822497
    23  C    9.728813  10.319335  10.524506   7.760809   6.341811
    24  C   10.640895  11.266837  11.397920   8.839008   7.016675
    25  C   12.098808  12.731517  12.841951  10.242828   8.530075
    26  C   12.462936  13.202188  13.111852  10.632796   9.095011
    27  C   13.983436  14.717156  14.627509  12.129404  10.619407
    28  C   14.523489  15.336883  15.081762  12.714618  11.363926
    29  O    7.062325   7.609802   7.833250   5.888233   3.196524
    30  F    5.367755   5.600240   6.223245   4.791103   2.385492
    31  O    4.487637   5.376927   5.018094   3.948691   1.441543
    32  H    1.866598   0.982188   2.214950   3.647523   5.396729
    33  H    6.501154   6.690386   7.564346   4.541896   3.354227
    34  H    8.714817   8.979534   9.722173   6.686023   5.327022
    35  H    8.793135   9.201840   9.698446   7.074004   5.028302
    36  H    7.916964   8.625098   8.638564   6.208200   4.415896
    37  H    7.731310   8.290150   8.567567   5.667456   4.653518
    38  H   10.182094  10.659479  11.051556   8.083577   6.891513
    39  H    9.865242  10.543829  10.582963   7.907738   6.697510
    40  H   10.678160  11.212727  11.495230   8.905493   6.934066
    41  H   10.380099  11.106316  11.049110   8.749607   6.745813
    42  H   12.740694  13.377231  13.470564  10.978520   9.058367
    43  H   12.461940  13.004963  13.272766  10.484386   8.943828
    44  H   12.030881  12.760555  12.684444  10.118754   8.850455
    45  H   12.188979  13.013062  12.758329  10.505700   8.838720
    46  H   14.492629  15.232691  15.129144  12.714921  11.000757
    47  H   14.352446  15.008848  15.060521  12.389368  11.000554
    48  H   14.187316  14.990421  14.744881  12.319835  11.202807
    49  H   14.325957  15.211929  14.811323  12.645169  11.199341
    50  H   15.613131  16.416816  16.175559  13.787113  12.434870
                   16         17         18         19         20
    16  F    0.000000
    17  C    2.338631   0.000000
    18  F    2.739818   1.370166   0.000000
    19  C    2.801498   1.535748   2.385949   0.000000
    20  N    3.057694   2.462669   2.642649   1.386822   0.000000
    21  C    4.167502   3.835712   4.077619   2.482512   1.449334
    22  C    4.131362   4.541548   4.956721   3.252784   2.456147
    23  C    5.623010   6.030505   6.412484   4.663278   3.828636
    24  C    6.541066   6.562889   7.115080   5.064624   4.497102
    25  C    7.994522   8.084916   8.586804   6.585027   5.949935
    26  C    8.442881   8.888056   9.452341   7.449361   6.854853
    27  C    9.963256  10.374291  10.909998   8.914472   8.289279
    28  C   10.631801  11.297241  11.873279   9.897420   9.307344
    29  O    3.628385   2.433228   3.512441   1.229940   2.294303
    30  F    3.533698   1.359249   2.177193   2.396215   3.535619
    31  O    2.241279   2.474936   3.647601   2.931151   3.970559
    32  H    5.700165   6.260483   5.972034   7.685251   8.171679
    33  H    2.915491   2.574103   2.244217   2.079560   1.015532
    34  H    4.812562   4.496015   4.425010   3.314807   2.056252
    35  H    4.859467   4.123015   4.538314   2.638910   2.075156
    36  H    3.860411   4.323449   5.019674   3.050766   2.733353
    37  H    3.699804   4.589916   4.830900   3.574545   2.653507
    38  H    6.111516   6.462285   6.630116   5.145266   4.086324
    39  H    5.852912   6.620962   7.044617   5.345633   4.578532
    40  H    6.605874   6.252365   6.753537   4.724326   4.174287
    41  H    6.371549   6.420843   7.164891   4.946946   4.661771
    42  H    8.660308   8.523936   9.095729   6.994397   6.495369
    43  H    8.341010   8.411334   8.749707   6.934572   6.117715
    44  H    8.057496   8.746973   9.224995   7.383325   6.676119
    45  H    8.261000   8.737524   9.442783   7.325974   6.919271
    46  H   10.461707  10.677258  11.278462   9.180924   8.658076
    47  H   10.293379  10.672855  11.083837   9.214209   8.452065
    48  H   10.361744  11.219002  11.724013   9.880092   9.207375
    49  H   10.526170  11.219862  11.905946   9.845697   9.394840
    50  H   11.708006  12.329909  12.888208  10.909842  10.299618
                   21         22         23         24         25
    21  C    0.000000
    22  C    1.527592   0.000000
    23  C    2.557407   1.531356   0.000000
    24  C    3.159231   2.556401   1.530980   0.000000
    25  C    4.553607   3.929122   2.560009   1.532333   0.000000
    26  C    5.541646   4.553892   3.157717   2.561615   1.530205
    27  C    6.928178   6.029153   4.574040   3.906350   2.524412
    28  C    8.018095   6.928004   5.538291   5.080681   3.878241
    29  O    2.823763   3.410299   4.633309   4.684364   6.190172
    30  F    4.803061   5.631460   7.057849   7.373730   8.888987
    31  O    4.971968   4.959497   6.379758   6.853317   8.344745
    32  H    9.542082   9.783623  11.272692  12.214924  13.680712
    33  H    2.131900   3.022840   4.361585   5.238460   6.624715
    34  H    1.095094   2.170180   2.788142   3.516323   4.688029
    35  H    1.094523   2.176177   2.860272   2.890052   4.281791
    36  H    2.165590   1.097054   2.164210   2.771991   4.209583
    37  H    2.149574   1.097911   2.146310   3.480161   4.699188
    38  H    2.768224   2.162510   1.096650   2.164746   2.787161
    39  H    3.470826   2.134986   1.095698   2.160379   2.805934
    40  H    2.826202   2.799186   2.159869   1.095672   2.135554
    41  H    3.522074   2.783374   2.164142   1.096609   2.162657
    42  H    5.125326   4.693450   3.480629   2.143093   1.097110
    43  H    4.673987   4.210191   2.777111   2.162980   1.096686
    44  H    5.414627   4.269630   2.871206   2.849873   2.166579
    45  H    5.714925   4.639003   3.468384   2.759845   2.161415
    46  H    7.292251   6.525329   5.130372   4.166074   2.761733
    47  H    7.045909   6.258218   4.737531   4.214562   2.753922
    48  H    7.960926   6.777266   5.412099   5.263012   4.197924
    49  H    8.178173   7.022874   5.758190   5.221711   4.201614
    50  H    8.976285   7.946599   6.518606   5.999080   4.677749
                   26         27         28         29         30
    26  C    0.000000
    27  C    1.529443   0.000000
    28  C    2.520850   1.520316   0.000000
    29  O    7.051948   8.490281   9.480411   0.000000
    30  F    9.768600  11.228129  12.200843   2.822929   0.000000
    31  O    8.790871  10.307296  10.969730   3.053439   2.925917
    32  H   14.124945  15.641649  16.231075   8.502889   6.414854
    33  H    7.490064   8.906176   9.891681   3.187327   3.749425
    34  H    5.752209   7.028457   8.172531   3.810843   5.473737
    35  H    5.435775   6.765015   7.955942   2.556454   4.833086
    36  H    4.680740   6.203966   7.004241   2.934135   5.325570
    37  H    5.125213   6.575584   7.332781   4.011192   5.826945
    38  H    3.514752   4.726279   5.763780   5.283829   7.521623
    39  H    2.826076   4.254781   4.956859   5.311948   7.708222
    40  H    3.475481   4.649629   5.954567   4.323509   6.946562
    41  H    2.778412   4.169281   5.176911   4.363770   7.152863
    42  H    2.152982   2.708194   4.134469   6.449609   9.191961
    43  H    2.163294   2.783483   4.185276   6.692050   9.262565
    44  H    1.095553   2.152087   2.737098   7.143925   9.742540
    45  H    1.096605   2.159352   2.754227   6.803419   9.559768
    46  H    2.163660   1.096199   2.145707   8.636757  11.423918
    47  H    2.163265   1.096193   2.146383   8.895104  11.564293
    48  H    2.783448   2.168415   1.094687   9.581790  12.212280
    49  H    2.781791   2.168733   1.094639   9.337994  12.075443
    50  H    3.471617   2.159090   1.094489  10.477703  13.216068
                   31         32         33         34         35
    31  O    0.000000
    32  H    6.159667   0.000000
    33  H    4.307177   7.671263   0.000000
    34  H    5.896967   9.961481   2.310557   0.000000
    35  H    5.232574  10.163385   2.932544   1.774890   0.000000
    36  H    4.258121   9.551664   3.453944   3.077090   2.511709
    37  H    4.959100   9.239243   2.875077   2.521488   3.068601
    38  H    7.119157  11.625890   4.441713   2.548474   3.169325
    39  H    6.638431  11.472491   5.041062   3.735415   3.864649
    40  H    6.861782  12.170524   4.955531   3.114901   2.260957
    41  H    6.366580  12.027505   5.503001   4.146134   3.168315
    42  H    8.791592  14.322807   7.250330   5.309247   4.633991
    43  H    8.920424  13.969336   6.675649   4.548245   4.495744
    44  H    8.635840  13.677683   7.196954   5.557725   5.527487
    45  H    8.370220  13.910692   7.631064   6.118593   5.553242
    46  H   10.618589  16.158266   9.353104   7.443057   6.967494
    47  H   10.820882  15.949706   8.989675   6.974774   6.932172
    48  H   10.880623  15.875415   9.701543   8.064205   8.048465
    49  H   10.674580  16.082208  10.038018   8.472207   8.076533
    50  H   12.044394  17.314543  10.879958   9.074879   8.875986
                   36         37         38         39         40
    36  H    0.000000
    37  H    1.754433   0.000000
    38  H    3.069340   2.512047   0.000000
    39  H    2.499072   2.376561   1.760564   0.000000
    40  H    3.103398   3.818643   2.513076   3.064215   0.000000
    41  H    2.547633   3.734835   3.070982   2.511506   1.759989
    42  H    4.858405   5.575085   3.741005   3.819553   2.377431
    43  H    4.734391   4.869954   2.553779   3.114870   2.495043
    44  H    4.498794   4.622175   3.135279   2.251495   3.850734
    45  H    4.504444   5.252526   4.100497   3.059155   3.716951
    46  H    6.623130   7.201748   5.343019   4.964874   4.750642
    47  H    6.610862   6.747601   4.632470   4.507353   4.841097
    48  H    6.918735   7.022676   5.568307   4.687961   6.209171
    49  H    6.927103   7.459149   6.172896   5.128601   6.136534
    50  H    8.057456   8.361968   6.657942   5.986939   6.795951
                   41         42         43         44         45
    41  H    0.000000
    42  H    2.501666   0.000000
    43  H    3.067991   1.760092   0.000000
    44  H    3.173862   3.063324   2.492026   0.000000
    45  H    2.524370   2.527484   3.067807   1.765445   0.000000
    46  H    4.320930   2.487970   3.136767   3.061871   2.505496
    47  H    4.720815   3.017802   2.561198   2.504665   3.067156
    48  H    5.432989   4.697143   4.386223   2.546975   3.119685
    49  H    5.084679   4.372935   4.746329   3.096875   2.563294
    50  H    6.139059   4.790785   4.862871   3.741650   3.755891
                   46         47         48         49         50
    46  H    0.000000
    47  H    1.765027   0.000000
    48  H    3.064669   2.501791   0.000000
    49  H    2.503094   3.065404   1.774613   0.000000
    50  H    2.471763   2.474037   1.771913   1.772014   0.000000
 Symmetry turned off by external request.
 Stoichiometry    C16H19F10NO4
 Framework group  C1[X(C16H19F10NO4)]
 Deg. of freedom   144
 Full point group                 C1      NOp   1
 Rotational constants (GHZ):      0.2911693      0.0552900      0.0545704
 Leave Link  202 at Tue Feb  4 08:38:28 2025, MaxMem=  5368709120 cpu:         0.1
 (Enter /home/k0335/k033513/app/g09/l301.exe)
 Standard basis: 6-31G(d,p) (6D, 7F)
 Ernie: Thresh=  0.10000D-02 Tol=  0.10000D-05 Strict=F.
   560 basis functions,  1001 primitive gaussians,   560 cartesian basis functions
   122 alpha electrons      122 beta electrons
       nuclear repulsion energy      3735.1004469431 Hartrees.
 IExCor=20419 DFT=T Ex+Corr=CAM-B3LYP ExCW=0 ScaHFX=  1.000000
 ScaDFX=  1.000000  1.000000  1.000000  0.810000 ScalE2=  1.000000  1.000000
 IRadAn=      0 IRanWt=     -1 IRanGd=            0 ICorTp=0 IEmpDi=  4
  HFx wShort=  0.000000 wLong=  0.330000 cFull=  0.190000 cShort=  0.000000 cLong=  0.460000
  DFx wShort=  0.000000 wLong=  0.330000 cFull=  0.190000 cShort=  0.000000 cLong=  0.460000
 NAtoms=   50 NActive=   50 NUniq=   50 SFac= 1.00D+00 NAtFMM=   60 NAOKFM=F Big=F
 Integral buffers will be    131072 words long.
 Raffenetti 2 integral format.
 Two-electron integral symmetry is turned off.
 Using the following non-standard input for PCM:
 eps=2.05
 --- end of non-standard input.
 ------------------------------------------------------------------------------
 Polarizable Continuum Model (PCM)
 =================================
 Model                : PCM (using non-symmetric T matrix).
 Atomic radii         : UFF (Universal Force Field).
 Polarization charges : Total charges.
 Charge compensation  : None.
 Solution method      : On-the-fly selection.
 Cavity type          : Scaled VdW (van der Waals Surface) (Alpha=1.100).
 Cavity algorithm     : GePol (No added spheres)
                        Default sphere list used, NSphG=   50.
                        Lebedev-Laikov grids with approx.  5.0 points / Ang**2.
                        Smoothing algorithm: Karplus/York (Gamma=1.0000).
                        Polarization charges: spherical gaussians, with
                                              point-specific exponents (IZeta= 3).
                        Self-potential: point-specific (ISelfS= 7).
                        Self-field    : sphere-specific E.n sum rule (ISelfD= 2).
 1st derivatives      : Analytical E(r).r(x)/FMM algorithm (CHGder, D1EAlg=3).
                        Cavity 1st derivative terms included.
 Solvent              : Generic,
                        Eps                           =   2.050000
                        Eps(infinity)                 =   0.000000
                        RSolv                         =   0.000000 Ang.
                        Molar volume                  =   0.000000 cm**3/mol
                        Thermal expansion coefficient =   0.000000 K**-1
                        Absolute temperature          = 298.150000 K
                        Numeral density               =   0.000000 Ang**-3
                        Hydrogen bond acidity         =   0.000000
                        Hydrogen bond basicity        =   0.000000
                        Surface tension at interface  =   0.000000 (cal/mol)*Ang**-2
                        Carbon aromaticity            =   0.000000
                        Electronegative halogenicity  =   0.000000
 ------------------------------------------------------------------------------
 GePol: Number of generator spheres                  =      50
 GePol: Total number of spheres                      =      50
 GePol: Number of exposed spheres                    =      50 (100.00%)
 GePol: Number of points                             =    3640
 GePol: Average weight of points                     =       0.13
 GePol: Minimum weight of points                     =   0.16D-10
 GePol: Maximum weight of points                     =    0.20577
 GePol: Number of points with low weight             =     177
 GePol: Fraction of low-weight points (<1% of avg)   =       4.86%
 GePol: Cavity surface area                          =    473.475 Ang**2
 GePol: Cavity volume                                =    523.378 Ang**3
 Leave Link  301 at Tue Feb  4 08:38:29 2025, MaxMem=  5368709120 cpu:         0.8
 (Enter /home/k0335/k033513/app/g09/l302.exe)
 NPDir=0 NMtPBC=     1 NCelOv=     1 NCel=       1 NClECP=     1 NCelD=      1
         NCelK=      1 NCelE2=     1 NClLst=     1 CellRange=     0.0.
 One-electron integrals computed using PRISM.
 NBasis=   560 RedAO= T EigKep=  8.26D-04  NBF=   560
 NBsUse=   560 1.00D-06 EigRej= -1.00D+00 NBFU=   560
 Precomputing XC quadrature grid using
 IXCGrd= 4 IRadAn=           0 IRanWt=          -1 IRanGd=           0 AccXCQ= 0.00D+00.
 Generated NRdTot=       0 NPtTot=           0 NUsed=           0 NTot=          32
 NSgBfM=   529   529   529   529   529 MxSgAt=    50 MxSgA2=    50.
 Leave Link  302 at Tue Feb  4 08:38:29 2025, MaxMem=  5368709120 cpu:        11.5
 (Enter /home/k0335/k033513/app/g09/l303.exe)
 DipDrv:  MaxL=1.
 Leave Link  303 at Tue Feb  4 08:38:30 2025, MaxMem=  5368709120 cpu:         0.9
 (Enter /home/k0335/k033513/app/g09/l401.exe)
 ExpMin= 1.61D-01 ExpMax= 7.00D+03 ExpMxC= 1.05D+03 IAcc=1 IRadAn=         1 AccDes= 0.00D+00
 Harris functional with IExCor=20419 and IRadAn=       1 diagonalized for initial guess.
 HarFok:  IExCor=20419 AccDes= 0.00D+00 IRadAn=         1 IDoV= 1 UseB2=F ITyADJ=14
 ICtDFT=  3500011 ScaDFX=  1.000000  1.000000  1.000000  1.000000
 FoFCou: FMM=F IPFlag=           0 FMFlag=      100000 FMFlg1=           0
         NFxFlg=           0 DoJE=T BraDBF=F KetDBF=T FulRan=T
         wScrn=  0.000000 ICntrl=     500 IOpCl=  0 I1Cent=   200000004 NGrid=           0
         NMat0=    1 NMatS0=      1 NMatT0=    0 NMatD0=    1 NMtDS0=    0 NMtDT0=    0
 Symmetry not used in FoFCou.
 Harris En= -1910.60852515504    
 JPrj=0 DoOrth=F DoCkMO=F.
 Leave Link  401 at Tue Feb  4 08:38:30 2025, MaxMem=  5368709120 cpu:        12.7
 (Enter /home/k0335/k033513/app/g09/l502.exe)
 Closed shell SCF:
 Using DIIS extrapolation, IDIIS=  1040.
 Two-electron integral symmetry not used.
 IVT=      976250 IEndB=      976250 NGot=  5368709120 MDV=  5368063671
 LenX=  5368063671 LenY=  5367749511
 Requested convergence on RMS density matrix=1.00D-08 within 128 cycles.
 Requested convergence on MAX density matrix=1.00D-06.
 Requested convergence on             energy=1.00D-06.
 No special actions if energy rises.
 Fock matrices will be formed incrementally for  20 cycles.

 Cycle   1  Pass 1  IDiag  1:
 FoFJK:  IHMeth= 1 ICntrl=       0 DoSepK=T KAlg= 0 I1Cent=   0 FoldK=F
 IRaf=         1 NMat=   1 IRICut=       1 DoRegI=T DoRafI=F ISym2E= 0.
 FoFCou: FMM=F IPFlag=           0 FMFlag=      100000 FMFlg1=           0
         NFxFlg=           0 DoJE=T BraDBF=F KetDBF=F FulRan=T
         wScrn=  0.000000 ICntrl=     500 IOpCl=  0 I1Cent=           0 NGrid=           0
         NMat0=    1 NMatS0=      1 NMatT0=    0 NMatD0=    1 NMtDS0=    0 NMtDT0=    0
 Symmetry not used in FoFCou.
 Inv3:  Mode=1 IEnd=    39748800.
 Iteration    1 A*A^-1 deviation from unit magnitude is 6.55D-15 for   3627.
 Iteration    1 A*A^-1 deviation from orthogonality  is 3.25D-15 for   3639   2393.
 Iteration    1 A^-1*A deviation from unit magnitude is 6.66D-15 for   3626.
 Iteration    1 A^-1*A deviation from orthogonality  is 1.91D-15 for   3591   2553.
 E= -1973.93054946275    
 DIIS: error= 5.16D-02 at cycle   1 NSaved=   1.
 NSaved= 1 IEnMin= 1 EnMin= -1973.93054946275     IErMin= 1 ErrMin= 5.16D-02
 ErrMax= 5.16D-02  0.00D+00 EMaxC= 1.00D-01 BMatC= 1.60D+00 BMatP= 1.60D+00
 IDIUse=3 WtCom= 4.84D-01 WtEn= 5.16D-01
 Coeff-Com:  0.100D+01
 Coeff-En:   0.100D+01
 Coeff:      0.100D+01
 Gap=     0.440 Goal=   None    Shift=    0.000
 GapD=    0.440 DampG=2.000 DampE=0.500 DampFc=1.0000 IDamp=-1.
 RMSDP=2.69D-03 MaxDP=1.30D-01              OVMax= 1.32D-01

 Cycle   2  Pass 1  IDiag  1:
 RMSU=  2.69D-03    CP:  9.94D-01
 E= -1974.16944579646     Delta-E=       -0.238896333704 Rises=F Damp=F
 DIIS: error= 1.71D-02 at cycle   2 NSaved=   2.
 NSaved= 2 IEnMin= 2 EnMin= -1974.16944579646     IErMin= 2 ErrMin= 1.71D-02
 ErrMax= 1.71D-02  0.00D+00 EMaxC= 1.00D-01 BMatC= 5.88D-01 BMatP= 1.60D+00
 IDIUse=3 WtCom= 8.29D-01 WtEn= 1.71D-01
 Coeff-Com:  0.353D+00 0.647D+00
 Coeff-En:   0.339D+00 0.661D+00
 Coeff:      0.351D+00 0.649D+00
 Gap=     0.372 Goal=   None    Shift=    0.000
 RMSDP=1.28D-03 MaxDP=7.49D-02 DE=-2.39D-01 OVMax= 9.35D-02

 Cycle   3  Pass 1  IDiag  1:
 RMSU=  7.85D-04    CP:  1.00D+00  6.26D-01
 E= -1974.45670648164     Delta-E=       -0.287260685182 Rises=F Damp=F
 DIIS: error= 8.64D-03 at cycle   3 NSaved=   3.
 NSaved= 3 IEnMin= 3 EnMin= -1974.45670648164     IErMin= 3 ErrMin= 8.64D-03
 ErrMax= 8.64D-03  0.00D+00 EMaxC= 1.00D-01 BMatC= 1.12D-01 BMatP= 5.88D-01
 IDIUse=3 WtCom= 9.14D-01 WtEn= 8.64D-02
 Coeff-Com:  0.715D-01 0.320D+00 0.609D+00
 Coeff-En:   0.000D+00 0.121D+00 0.879D+00
 Coeff:      0.653D-01 0.302D+00 0.632D+00
 Gap=     0.330 Goal=   None    Shift=    0.000
 RMSDP=5.80D-04 MaxDP=4.65D-02 DE=-2.87D-01 OVMax= 5.66D-02

 Cycle   4  Pass 1  IDiag  1:
 RMSU=  3.16D-04    CP:  9.96D-01  7.17D-01  4.70D-01
 E= -1974.52124170597     Delta-E=       -0.064535224332 Rises=F Damp=F
 DIIS: error= 4.29D-03 at cycle   4 NSaved=   4.
 NSaved= 4 IEnMin= 4 EnMin= -1974.52124170597     IErMin= 4 ErrMin= 4.29D-03
 ErrMax= 4.29D-03  0.00D+00 EMaxC= 1.00D-01 BMatC= 1.26D-02 BMatP= 1.12D-01
 IDIUse=3 WtCom= 9.57D-01 WtEn= 4.29D-02
 Coeff-Com:  0.697D-02 0.100D+00 0.333D+00 0.559D+00
 Coeff-En:   0.000D+00 0.000D+00 0.630D-01 0.937D+00
 Coeff:      0.668D-02 0.961D-01 0.322D+00 0.576D+00
 Gap=     0.323 Goal=   None    Shift=    0.000
 RMSDP=1.86D-04 MaxDP=1.69D-02 DE=-6.45D-02 OVMax= 2.35D-02

 Cycle   5  Pass 1  IDiag  1:
 RMSU=  7.95D-05    CP:  9.96D-01  7.16D-01  6.15D-01  6.12D-01
 E= -1974.53000597848     Delta-E=       -0.008764272506 Rises=F Damp=F
 DIIS: error= 9.01D-04 at cycle   5 NSaved=   5.
 NSaved= 5 IEnMin= 5 EnMin= -1974.53000597848     IErMin= 5 ErrMin= 9.01D-04
 ErrMax= 9.01D-04  0.00D+00 EMaxC= 1.00D-01 BMatC= 6.93D-04 BMatP= 1.26D-02
 IDIUse=3 WtCom= 9.91D-01 WtEn= 9.01D-03
 Coeff-Com:  0.638D-03 0.397D-01 0.154D+00 0.321D+00 0.485D+00
 Coeff-En:   0.000D+00 0.000D+00 0.000D+00 0.000D+00 0.100D+01
 Coeff:      0.632D-03 0.393D-01 0.152D+00 0.318D+00 0.489D+00
 Gap=     0.317 Goal=   None    Shift=    0.000
 RMSDP=3.98D-05 MaxDP=4.02D-03 DE=-8.76D-03 OVMax= 6.04D-03

 Cycle   6  Pass 1  IDiag  1:
 RMSU=  2.27D-05    CP:  9.96D-01  7.17D-01  6.12D-01  6.36D-01  6.08D-01
 E= -1974.53050574413     Delta-E=       -0.000499765655 Rises=F Damp=F
 DIIS: error= 1.82D-04 at cycle   6 NSaved=   6.
 NSaved= 6 IEnMin= 6 EnMin= -1974.53050574413     IErMin= 6 ErrMin= 1.82D-04
 ErrMax= 1.82D-04  0.00D+00 EMaxC= 1.00D-01 BMatC= 2.78D-05 BMatP= 6.93D-04
 IDIUse=3 WtCom= 9.98D-01 WtEn= 1.82D-03
 Coeff-Com: -0.579D-03 0.401D-02 0.220D-01 0.571D-01 0.195D+00 0.722D+00
 Coeff-En:   0.000D+00 0.000D+00 0.000D+00 0.000D+00 0.000D+00 0.100D+01
 Coeff:     -0.578D-03 0.400D-02 0.220D-01 0.570D-01 0.195D+00 0.723D+00
 Gap=     0.318 Goal=   None    Shift=    0.000
 RMSDP=1.16D-05 MaxDP=7.52D-04 DE=-5.00D-04 OVMax= 1.13D-03

 Cycle   7  Pass 1  IDiag  1:
 RMSU=  7.89D-06    CP:  9.96D-01  7.18D-01  6.16D-01  6.50D-01  6.89D-01
                    CP:  9.07D-01
 E= -1974.53052674946     Delta-E=       -0.000021005322 Rises=F Damp=F
 DIIS: error= 4.82D-05 at cycle   7 NSaved=   7.
 NSaved= 7 IEnMin= 7 EnMin= -1974.53052674946     IErMin= 7 ErrMin= 4.82D-05
 ErrMax= 4.82D-05  0.00D+00 EMaxC= 1.00D-01 BMatC= 3.78D-06 BMatP= 2.78D-05
 IDIUse=1 WtCom= 1.00D+00 WtEn= 0.00D+00
 Coeff-Com: -0.232D-03-0.374D-02-0.114D-01-0.194D-01 0.266D-01 0.318D+00
 Coeff-Com:  0.690D+00
 Coeff:     -0.232D-03-0.374D-02-0.114D-01-0.194D-01 0.266D-01 0.318D+00
 Coeff:      0.690D+00
 Gap=     0.318 Goal=   None    Shift=    0.000
 RMSDP=3.66D-06 MaxDP=3.02D-04 DE=-2.10D-05 OVMax= 3.92D-04

 Cycle   8  Pass 1  IDiag  1:
 RMSU=  2.33D-06    CP:  9.96D-01  7.18D-01  6.16D-01  6.49D-01  7.05D-01
                    CP:  1.00D+00  8.64D-01
 E= -1974.53053011669     Delta-E=       -0.000003367234 Rises=F Damp=F
 DIIS: error= 1.38D-05 at cycle   8 NSaved=   8.
 NSaved= 8 IEnMin= 8 EnMin= -1974.53053011669     IErMin= 8 ErrMin= 1.38D-05
 ErrMax= 1.38D-05  0.00D+00 EMaxC= 1.00D-01 BMatC= 2.39D-07 BMatP= 3.78D-06
 IDIUse=1 WtCom= 1.00D+00 WtEn= 0.00D+00
 Coeff-Com: -0.438D-04-0.167D-02-0.561D-02-0.115D-01-0.977D-03 0.653D-01
 Coeff-Com:  0.256D+00 0.699D+00
 Coeff:     -0.438D-04-0.167D-02-0.561D-02-0.115D-01-0.977D-03 0.653D-01
 Coeff:      0.256D+00 0.699D+00
 Gap=     0.318 Goal=   None    Shift=    0.000
 RMSDP=1.15D-06 MaxDP=7.31D-05 DE=-3.37D-06 OVMax= 1.38D-04

 Cycle   9  Pass 1  IDiag  1:
 RMSU=  7.88D-07    CP:  9.96D-01  7.18D-01  6.16D-01  6.49D-01  7.12D-01
                    CP:  1.02D+00  9.22D-01  1.05D+00
 E= -1974.53053034134     Delta-E=       -0.000000224651 Rises=F Damp=F
 DIIS: error= 3.87D-06 at cycle   9 NSaved=   9.
 NSaved= 9 IEnMin= 9 EnMin= -1974.53053034134     IErMin= 9 ErrMin= 3.87D-06
 ErrMax= 3.87D-06  0.00D+00 EMaxC= 1.00D-01 BMatC= 3.52D-08 BMatP= 2.39D-07
 IDIUse=1 WtCom= 1.00D+00 WtEn= 0.00D+00
 Coeff-Com:  0.138D-04-0.797D-04-0.393D-03-0.168D-02-0.384D-02-0.298D-01
 Coeff-Com: -0.122D-01 0.251D+00 0.797D+00
 Coeff:      0.138D-04-0.797D-04-0.393D-03-0.168D-02-0.384D-02-0.298D-01
 Coeff:     -0.122D-01 0.251D+00 0.797D+00
 Gap=     0.318 Goal=   None    Shift=    0.000
 RMSDP=6.04D-07 MaxDP=5.43D-05 DE=-2.25D-07 OVMax= 6.58D-05

 Cycle  10  Pass 1  IDiag  1:
 RMSU=  3.11D-07    CP:  9.96D-01  7.18D-01  6.17D-01  6.49D-01  7.15D-01
                    CP:  1.03D+00  9.54D-01  1.17D+00  9.99D-01
 E= -1974.53053038535     Delta-E=       -0.000000044006 Rises=F Damp=F
 DIIS: error= 2.44D-06 at cycle  10 NSaved=  10.
 NSaved=10 IEnMin=10 EnMin= -1974.53053038535     IErMin=10 ErrMin= 2.44D-06
 ErrMax= 2.44D-06  0.00D+00 EMaxC= 1.00D-01 BMatC= 3.31D-09 BMatP= 3.52D-08
 IDIUse=1 WtCom= 1.00D+00 WtEn= 0.00D+00
 Coeff-Com:  0.103D-04 0.174D-03 0.544D-03 0.774D-03-0.574D-03-0.176D-01
 Coeff-Com: -0.326D-01-0.110D-01 0.245D+00 0.816D+00
 Coeff:      0.103D-04 0.174D-03 0.544D-03 0.774D-03-0.574D-03-0.176D-01
 Coeff:     -0.326D-01-0.110D-01 0.245D+00 0.816D+00
 Gap=     0.318 Goal=   None    Shift=    0.000
 RMSDP=2.02D-07 MaxDP=1.57D-05 DE=-4.40D-08 OVMax= 3.35D-05

 Cycle  11  Pass 1  IDiag  1:
 RMSU=  1.01D-07    CP:  9.96D-01  7.18D-01  6.17D-01  6.49D-01  7.16D-01
                    CP:  1.03D+00  9.63D-01  1.21D+00  1.12D+00  1.01D+00
 E= -1974.53053038937     Delta-E=       -0.000000004024 Rises=F Damp=F
 DIIS: error= 1.11D-06 at cycle  11 NSaved=  11.
 NSaved=11 IEnMin=11 EnMin= -1974.53053038937     IErMin=11 ErrMin= 1.11D-06
 ErrMax= 1.11D-06  0.00D+00 EMaxC= 1.00D-01 BMatC= 9.73D-10 BMatP= 3.31D-09
 IDIUse=1 WtCom= 1.00D+00 WtEn= 0.00D+00
 Coeff-Com:  0.459D-05 0.107D-03 0.349D-03 0.598D-03 0.197D-03-0.698D-02
 Coeff-Com: -0.166D-01-0.299D-01 0.625D-01 0.454D+00 0.536D+00
 Coeff:      0.459D-05 0.107D-03 0.349D-03 0.598D-03 0.197D-03-0.698D-02
 Coeff:     -0.166D-01-0.299D-01 0.625D-01 0.454D+00 0.536D+00
 Gap=     0.318 Goal=   None    Shift=    0.000
 RMSDP=6.10D-08 MaxDP=5.84D-06 DE=-4.02D-09 OVMax= 8.73D-06

 Cycle  12  Pass 1  IDiag  1:
 RMSU=  4.10D-08    CP:  9.96D-01  7.18D-01  6.17D-01  6.49D-01  7.16D-01
                    CP:  1.03D+00  9.65D-01  1.22D+00  1.14D+00  1.09D+00
                    CP:  7.94D-01
 E= -1974.53053039008     Delta-E=       -0.000000000708 Rises=F Damp=F
 DIIS: error= 3.90D-07 at cycle  12 NSaved=  12.
 NSaved=12 IEnMin=12 EnMin= -1974.53053039008     IErMin=12 ErrMin= 3.90D-07
 ErrMax= 3.90D-07  0.00D+00 EMaxC= 1.00D-01 BMatC= 7.73D-11 BMatP= 9.73D-10
 IDIUse=1 WtCom= 1.00D+00 WtEn= 0.00D+00
 Coeff-Com: -0.137D-06 0.114D-04 0.408D-04 0.952D-04 0.283D-03 0.522D-03
 Coeff-Com: -0.280D-03-0.982D-02-0.201D-01 0.258D-01 0.211D+00 0.792D+00
 Coeff:     -0.137D-06 0.114D-04 0.408D-04 0.952D-04 0.283D-03 0.522D-03
 Coeff:     -0.280D-03-0.982D-02-0.201D-01 0.258D-01 0.211D+00 0.792D+00
 Gap=     0.318 Goal=   None    Shift=    0.000
 RMSDP=2.33D-08 MaxDP=1.47D-06 DE=-7.08D-10 OVMax= 4.65D-06

 Cycle  13  Pass 1  IDiag  1:
 RMSU=  1.30D-08    CP:  9.96D-01  7.18D-01  6.17D-01  6.49D-01  7.16D-01
                    CP:  1.03D+00  9.65D-01  1.22D+00  1.15D+00  1.12D+00
                    CP:  9.07D-01  9.23D-01
 E= -1974.53053039010     Delta-E=       -0.000000000019 Rises=F Damp=F
 DIIS: error= 7.95D-08 at cycle  13 NSaved=  13.
 NSaved=13 IEnMin=13 EnMin= -1974.53053039010     IErMin=13 ErrMin= 7.95D-08
 ErrMax= 7.95D-08  0.00D+00 EMaxC= 1.00D-01 BMatC= 1.11D-11 BMatP= 7.73D-11
 IDIUse=1 WtCom= 1.00D+00 WtEn= 0.00D+00
 Coeff-Com: -0.538D-06-0.496D-05-0.139D-04-0.133D-04 0.120D-03 0.891D-03
 Coeff-Com:  0.146D-02-0.189D-02-0.161D-01-0.348D-01 0.400D-01 0.363D+00
 Coeff-Com:  0.648D+00
 Coeff:     -0.538D-06-0.496D-05-0.139D-04-0.133D-04 0.120D-03 0.891D-03
 Coeff:      0.146D-02-0.189D-02-0.161D-01-0.348D-01 0.400D-01 0.363D+00
 Coeff:      0.648D+00
 Gap=     0.318 Goal=   None    Shift=    0.000
 RMSDP=7.95D-09 MaxDP=6.30D-07 DE=-1.91D-11 OVMax= 1.37D-06

 Error on total polarization charges =  0.00430
 SCF Done:  E(RCAM-B3LYP) =  -1974.53053039     A.U. after   13 cycles
            NFock= 13  Conv=0.80D-08     -V/T= 2.0076
 KE= 1.959623840272D+03 PE=-1.212180428344D+04 EE= 4.452549465831D+03
 Leave Link  502 at Tue Feb  4 08:39:15 2025, MaxMem=  5368709120 cpu:       996.0
 (Enter /home/k0335/k033513/app/g09/l601.exe)
 Copying SCF densities to generalized density rwf, IOpCl= 0 IROHF=0.

 **********************************************************************

            Population analysis using the SCF density.

 **********************************************************************

 Alpha  occ. eigenvalues --  -24.84032 -24.82855 -24.82660 -24.82606 -24.82536
 Alpha  occ. eigenvalues --  -24.82232 -24.82064 -24.81986 -24.81862 -24.81391
 Alpha  occ. eigenvalues --  -19.31725 -19.30333 -19.25315 -19.21442 -14.45068
 Alpha  occ. eigenvalues --  -10.52564 -10.49324 -10.48870 -10.47326 -10.47000
 Alpha  occ. eigenvalues --  -10.44421 -10.42716 -10.39472 -10.29947 -10.25504
 Alpha  occ. eigenvalues --  -10.25145 -10.24656 -10.24559 -10.24515 -10.24392
 Alpha  occ. eigenvalues --  -10.23954  -1.40552  -1.38311  -1.38144  -1.37240
 Alpha  occ. eigenvalues --   -1.34917  -1.34689  -1.32729  -1.31740  -1.30961
 Alpha  occ. eigenvalues --   -1.30480  -1.22215  -1.20016  -1.13408  -1.12296
 Alpha  occ. eigenvalues --   -1.01509  -0.97568  -0.90506  -0.89364  -0.88104
 Alpha  occ. eigenvalues --   -0.86908  -0.83956  -0.82064  -0.78378  -0.77656
 Alpha  occ. eigenvalues --   -0.76049  -0.74125  -0.73256  -0.71050  -0.70625
 Alpha  occ. eigenvalues --   -0.69613  -0.68827  -0.68184  -0.67333  -0.66861
 Alpha  occ. eigenvalues --   -0.66075  -0.65908  -0.65352  -0.65200  -0.64493
 Alpha  occ. eigenvalues --   -0.63800  -0.63528  -0.63356  -0.61506  -0.58364
 Alpha  occ. eigenvalues --   -0.57693  -0.57016  -0.56142  -0.56047  -0.55780
 Alpha  occ. eigenvalues --   -0.55486  -0.54403  -0.54096  -0.54065  -0.53837
 Alpha  occ. eigenvalues --   -0.53321  -0.52849  -0.52498  -0.52322  -0.52069
 Alpha  occ. eigenvalues --   -0.51814  -0.51709  -0.51008  -0.50917  -0.50596
 Alpha  occ. eigenvalues --   -0.50168  -0.49916  -0.49537  -0.48962  -0.48453
 Alpha  occ. eigenvalues --   -0.48380  -0.47957  -0.47258  -0.46539  -0.46347
 Alpha  occ. eigenvalues --   -0.45241  -0.44994  -0.43558  -0.43361  -0.43109
 Alpha  occ. eigenvalues --   -0.42113  -0.41089  -0.41012  -0.40367  -0.39658
 Alpha  occ. eigenvalues --   -0.38545  -0.38095  -0.37794  -0.36588  -0.36121
 Alpha  occ. eigenvalues --   -0.34112  -0.32206
 Alpha virt. eigenvalues --   -0.00424   0.02934   0.05103   0.07796   0.10900
 Alpha virt. eigenvalues --    0.11630   0.13170   0.13796   0.14355   0.14936
 Alpha virt. eigenvalues --    0.15965   0.16162   0.16923   0.17557   0.18251
 Alpha virt. eigenvalues --    0.19059   0.19812   0.20767   0.21280   0.21807
 Alpha virt. eigenvalues --    0.22245   0.22476   0.22855   0.23782   0.24154
 Alpha virt. eigenvalues --    0.24731   0.24797   0.25155   0.25236   0.25893
 Alpha virt. eigenvalues --    0.26993   0.27400   0.28074   0.28755   0.28856
 Alpha virt. eigenvalues --    0.29764   0.29999   0.30398   0.31326   0.31520
 Alpha virt. eigenvalues --    0.32394   0.33062   0.33532   0.33989   0.34375
 Alpha virt. eigenvalues --    0.34511   0.35491   0.36323   0.38262   0.40866
 Alpha virt. eigenvalues --    0.42123   0.44831   0.48696   0.50082   0.51029
 Alpha virt. eigenvalues --    0.52826   0.53612   0.54524   0.55128   0.55587
 Alpha virt. eigenvalues --    0.56500   0.57659   0.57765   0.58684   0.59223
 Alpha virt. eigenvalues --    0.59697   0.60493   0.61359   0.61532   0.61996
[...]
     2  C    0.199351   0.000000  -0.000001   0.000000   0.000000   0.000000
     3  F   -0.047677   0.000000   0.000000   0.000000   0.000000   0.000000
     4  C   -0.037453  -0.000091   0.000000   0.000000   0.000000   0.000000
     5  F    0.000880  -0.000016   0.000000   0.000000   0.000000   0.000000
     6  F   -0.000442   0.000001   0.000000   0.000000   0.000000   0.000000
     7  C   -0.031657  -0.000575  -0.000027   0.000000   0.000000   0.000000
     8  F    0.000924   0.000215   0.000002   0.000000   0.000000   0.000000
     9  C   -0.000629   0.008508   0.000004   0.000000   0.000000   0.000000
    10  F   -0.001419  -0.000048   0.000000   0.000000   0.000000   0.000000
    11  C   -0.000063  -0.010763   0.000000   0.000000   0.000000   0.000000
    12  O    0.000000   0.283920   0.000000   0.000000   0.000000   0.000000
    13  O    0.000000   0.005092   0.000000   0.000000   0.000000   0.000000
    14  F    0.000022  -0.000199   0.000000   0.000000   0.000000   0.000000
    15  C    0.156584   0.000015   0.000052   0.000002  -0.000030   0.000044
    16  F   -0.042266   0.000000   0.002619  -0.000001  -0.000001   0.000051
    17  C   -0.041315   0.000000  -0.001724  -0.000175   0.001098  -0.000046
    18  F    0.000852   0.000000   0.014188   0.000009  -0.000021   0.000000
    19  C   -0.000206   0.000000  -0.030787   0.001239  -0.000337   0.000975
    20  N   -0.000185   0.000000   0.344823  -0.041477  -0.041133   0.000501
    21  C    0.000009   0.000000  -0.025844   0.393059   0.392197  -0.040190
    22  C    0.000001   0.000000  -0.001179  -0.046670  -0.030841   0.385898
    23  C    0.000000   0.000000  -0.000058  -0.000671  -0.002753  -0.032149
    24  C    0.000000   0.000000   0.000005  -0.000761   0.002410  -0.006906
    25  C    0.000000   0.000000   0.000000  -0.000027  -0.000107   0.000065
    26  C    0.000000   0.000000   0.000000   0.000000   0.000000  -0.000016
    27  C    0.000000   0.000000   0.000000   0.000000   0.000000   0.000000
    28  C    0.000000   0.000000   0.000000   0.000000   0.000000   0.000000
    29  O    0.000965   0.000000   0.002654   0.000508   0.016798   0.000066
    30  F    0.000898   0.000000   0.000244   0.000001  -0.000002   0.000000
    31  O    8.367335   0.000000   0.000040   0.000000  -0.000002  -0.000001
    32  H    0.000000   0.356091   0.000000   0.000000   0.000000   0.000000
    33  H    0.000040   0.000000   0.403381  -0.001490   0.003930  -0.000205
    34  H    0.000000   0.000000  -0.001490   0.601263  -0.032296   0.005679
    35  H   -0.000002   0.000000   0.003930  -0.032296   0.537810  -0.005777
    36  H   -0.000001   0.000000  -0.000205   0.005679  -0.005777   0.607917
    37  H    0.000000   0.000000   0.003504  -0.004963   0.004702  -0.036322
    38  H    0.000000   0.000000   0.000002   0.005699  -0.000123   0.005579
    39  H    0.000000   0.000000  -0.000003  -0.000025  -0.000044  -0.003097
    40  H    0.000000   0.000000  -0.000001   0.000370   0.001470  -0.000182
    41  H    0.000000   0.000000   0.000000   0.000065   0.000367   0.004900
    42  H    0.000000   0.000000   0.000000   0.000000   0.000005   0.000000
    43  H    0.000000   0.000000   0.000000   0.000000   0.000010   0.000007
    44  H    0.000000   0.000000   0.000000   0.000000   0.000000   0.000011
    45  H    0.000000   0.000000   0.000000   0.000000   0.000000   0.000000
    46  H    0.000000   0.000000   0.000000   0.000000   0.000000   0.000000
    47  H    0.000000   0.000000   0.000000   0.000000   0.000000   0.000000
    48  H    0.000000   0.000000   0.000000   0.000000   0.000000   0.000000
    49  H    0.000000   0.000000   0.000000   0.000000   0.000000   0.000000
    50  H    0.000000   0.000000   0.000000   0.000000   0.000000   0.000000
              37         38         39         40         41         42
     1  F    0.000000   0.000000   0.000000   0.000000   0.000000   0.000000
     2  C    0.000000   0.000000   0.000000   0.000000   0.000000   0.000000
     3  F    0.000000   0.000000   0.000000   0.000000   0.000000   0.000000
     4  C    0.000000   0.000000   0.000000   0.000000   0.000000   0.000000
     5  F    0.000000   0.000000   0.000000   0.000000   0.000000   0.000000
     6  F    0.000000   0.000000   0.000000   0.000000   0.000000   0.000000
     7  C    0.000000   0.000000   0.000000   0.000000   0.000000   0.000000
     8  F    0.000000   0.000000   0.000000   0.000000   0.000000   0.000000
     9  C    0.000000   0.000000   0.000000   0.000000   0.000000   0.000000
    10  F    0.000000   0.000000   0.000000   0.000000   0.000000   0.000000
    11  C    0.000000   0.000000   0.000000   0.000000   0.000000   0.000000
    12  O    0.000000   0.000000   0.000000   0.000000   0.000000   0.000000
    13  O    0.000000   0.000000   0.000000   0.000000   0.000000   0.000000
    14  F    0.000000   0.000000   0.000000   0.000000   0.000000   0.000000
    15  C    0.000000   0.000000   0.000000   0.000000   0.000000   0.000000
    16  F    0.000000   0.000000   0.000000   0.000000   0.000000   0.000000
    17  C   -0.000004   0.000000   0.000000   0.000000   0.000000   0.000000
    18  F   -0.000004   0.000000   0.000000   0.000000   0.000000   0.000000
    19  C    0.000050   0.000000   0.000001  -0.000022  -0.000001   0.000000
    20  N   -0.002811   0.000021  -0.000100   0.000001  -0.000016   0.000000
    21  C   -0.042130  -0.008084   0.004482   0.002544  -0.000748  -0.000004
    22  C    0.383303  -0.039322  -0.030330  -0.005247  -0.003243  -0.000144
    23  C   -0.029472   0.385818   0.386859  -0.041760  -0.042769   0.004618
    24  C    0.004478  -0.042383  -0.039032   0.385206   0.386816  -0.032790
    25  C   -0.000134  -0.003243  -0.004711  -0.030429  -0.037264   0.385038
    26  C   -0.000002  -0.000694   0.002567   0.004409  -0.007362  -0.041577
    27  C    0.000000  -0.000027  -0.000102  -0.000126   0.000033  -0.004805
    28  C    0.000000   0.000000   0.000008   0.000002  -0.000001   0.000087
    29  O   -0.000012   0.000000   0.000000  -0.000029   0.000000   0.000000
    30  F    0.000000   0.000000   0.000000   0.000000   0.000000   0.000000
    31  O    0.000000   0.000000   0.000000   0.000000   0.000000   0.000000
    32  H    0.000000   0.000000   0.000000   0.000000   0.000000   0.000000
    33  H    0.003504   0.000002  -0.000003  -0.000001   0.000000   0.000000
    34  H   -0.004963   0.005699  -0.000025   0.000370   0.000065   0.000000
    35  H    0.004702  -0.000123  -0.000044   0.001470   0.000367   0.000005
    36  H   -0.036322   0.005579  -0.003097  -0.000182   0.004900   0.000000
    37  H    0.633309  -0.002741  -0.005237  -0.000027   0.000031   0.000002
    38  H   -0.002741   0.637712  -0.036905  -0.005293   0.005978   0.000025
    39  H   -0.005237  -0.036905   0.620647   0.005653  -0.005397  -0.000018
    40  H   -0.000027  -0.005293   0.005653   0.632229  -0.037198  -0.004849
    41  H    0.000031   0.005978  -0.005397  -0.037198   0.632082  -0.003060
    42  H    0.000002   0.000025  -0.000018  -0.004849  -0.003060   0.637114
    43  H    0.000001   0.005234  -0.000122  -0.002922   0.005832  -0.037501
    44  H    0.000007   0.000456   0.001723  -0.000049  -0.000155   0.005870
    45  H    0.000000   0.000070   0.000543   0.000064   0.005359  -0.005146
    46  H    0.000000   0.000001  -0.000001  -0.000006   0.000004   0.005334
    47  H    0.000000  -0.000001   0.000013   0.000004   0.000006  -0.000536
    48  H    0.000000   0.000000  -0.000004   0.000000   0.000000   0.000007
    49  H    0.000000   0.000000   0.000001   0.000000  -0.000001   0.000001
    50  H    0.000000   0.000000   0.000000   0.000000   0.000000   0.000001
              43         44         45         46         47         48
     1  F    0.000000   0.000000   0.000000   0.000000   0.000000   0.000000
     2  C    0.000000   0.000000   0.000000   0.000000   0.000000   0.000000
     3  F    0.000000   0.000000   0.000000   0.000000   0.000000   0.000000
     4  C    0.000000   0.000000   0.000000   0.000000   0.000000   0.000000
     5  F    0.000000   0.000000   0.000000   0.000000   0.000000   0.000000
     6  F    0.000000   0.000000   0.000000   0.000000   0.000000   0.000000
     7  C    0.000000   0.000000   0.000000   0.000000   0.000000   0.000000
     8  F    0.000000   0.000000   0.000000   0.000000   0.000000   0.000000
     9  C    0.000000   0.000000   0.000000   0.000000   0.000000   0.000000
    10  F    0.000000   0.000000   0.000000   0.000000   0.000000   0.000000
    11  C    0.000000   0.000000   0.000000   0.000000   0.000000   0.000000
    12  O    0.000000   0.000000   0.000000   0.000000   0.000000   0.000000
    13  O    0.000000   0.000000   0.000000   0.000000   0.000000   0.000000
    14  F    0.000000   0.000000   0.000000   0.000000   0.000000   0.000000
    15  C    0.000000   0.000000   0.000000   0.000000   0.000000   0.000000
    16  F    0.000000   0.000000   0.000000   0.000000   0.000000   0.000000
    17  C    0.000000   0.000000   0.000000   0.000000   0.000000   0.000000
    18  F    0.000000   0.000000   0.000000   0.000000   0.000000   0.000000
    19  C    0.000000   0.000000   0.000000   0.000000   0.000000   0.000000
    20  N    0.000000   0.000000   0.000000   0.000000   0.000000   0.000000
    21  C   -0.000020  -0.000002   0.000000   0.000000   0.000000   0.000000
    22  C    0.000079  -0.000069  -0.000026   0.000000   0.000000   0.000000
    23  C   -0.007711   0.001623  -0.000800   0.000001  -0.000018  -0.000002
    24  C   -0.038289  -0.004094  -0.003326   0.000011   0.000096   0.000001
    25  C    0.384495  -0.038102  -0.041130  -0.004189  -0.003681   0.000055
    26  C   -0.040708   0.387255   0.386862  -0.040350  -0.040769  -0.005214
    27  C   -0.003969  -0.040102  -0.039814   0.390346   0.390157  -0.034967
    28  C    0.000027  -0.003148  -0.003303  -0.037941  -0.038201   0.389459
    29  O    0.000000   0.000000   0.000000   0.000000   0.000000   0.000000
    30  F    0.000000   0.000000   0.000000   0.000000   0.000000   0.000000
    31  O    0.000000   0.000000   0.000000   0.000000   0.000000   0.000000
    32  H    0.000000   0.000000   0.000000   0.000000   0.000000   0.000000
    33  H    0.000000   0.000000   0.000000   0.000000   0.000000   0.000000
    34  H    0.000000   0.000000   0.000000   0.000000   0.000000   0.000000
    35  H    0.000010   0.000000   0.000000   0.000000   0.000000   0.000000
    36  H    0.000007   0.000011   0.000000   0.000000   0.000000   0.000000
    37  H    0.000001   0.000007   0.000000   0.000000   0.000000   0.000000
    38  H    0.005234   0.000456   0.000070   0.000001  -0.000001   0.000000
    39  H   -0.000122   0.001723   0.000543  -0.000001   0.000013  -0.000004
    40  H   -0.002922  -0.000049   0.000064  -0.000006   0.000004   0.000000
    41  H    0.005832  -0.000155   0.005359   0.000004   0.000006   0.000000
    42  H   -0.037501   0.005870  -0.005146   0.005334  -0.000536   0.000007
    43  H    0.642596  -0.006078   0.006012  -0.000471   0.004680   0.000002
    44  H   -0.006078   0.639706  -0.040521   0.005989  -0.005910   0.004867
    45  H    0.006012  -0.040521   0.641550  -0.006033   0.005988  -0.000440
    46  H   -0.000471   0.005989  -0.006033   0.635572  -0.039115   0.005283
    47  H    0.004680  -0.005910   0.005988  -0.039115   0.637728  -0.004915
    48  H    0.000002   0.004867  -0.000440   0.005283  -0.004915   0.607749
    49  H    0.000005  -0.000482   0.004588  -0.004826   0.005298  -0.032816
    50  H    0.000002  -0.000014  -0.000019  -0.003085  -0.003074  -0.031020
              49         50
     1  F    0.000000   0.000000
     2  C    0.000000   0.000000
     3  F    0.000000   0.000000
     4  C    0.000000   0.000000
     5  F    0.000000   0.000000
     6  F    0.000000   0.000000
     7  C    0.000000   0.000000
     8  F    0.000000   0.000000
     9  C    0.000000   0.000000
    10  F    0.000000   0.000000
    11  C    0.000000   0.000000
    12  O    0.000000   0.000000
    13  O    0.000000   0.000000
    14  F    0.000000   0.000000
    15  C    0.000000   0.000000
    16  F    0.000000   0.000000
    17  C    0.000000   0.000000
    18  F    0.000000   0.000000
    19  C    0.000000   0.000000
    20  N    0.000000   0.000000
    21  C    0.000000   0.000000
    22  C    0.000000   0.000000
    23  C    0.000000   0.000000
    24  C    0.000002   0.000001
    25  C    0.000061  -0.000140
    26  C   -0.004994   0.004115
    27  C   -0.035126  -0.027094
    28  C    0.389951   0.383356
    29  O    0.000000   0.000000
    30  F    0.000000   0.000000
    31  O    0.000000   0.000000
    32  H    0.000000   0.000000
    33  H    0.000000   0.000000
    34  H    0.000000   0.000000
    35  H    0.000000   0.000000
    36  H    0.000000   0.000000
    37  H    0.000000   0.000000
    38  H    0.000000   0.000000
    39  H    0.000001   0.000000
    40  H    0.000000   0.000000
    41  H   -0.000001   0.000000
    42  H    0.000001   0.000001
    43  H    0.000005   0.000002
    44  H   -0.000482  -0.000014
    45  H    0.004588  -0.000019
    46  H   -0.004826  -0.003085
    47  H    0.005298  -0.003074
    48  H   -0.032816  -0.031020
    49  H    0.606076  -0.030991
    50  H   -0.030991   0.606189
 Mulliken charges:
               1
     1  F   -0.236619
     2  C    0.758657
     3  F   -0.242459
     4  C    0.525554
     5  F   -0.258184
     6  F   -0.250908
     7  C    0.138124
     8  F   -0.281237
     9  C    0.607882
    10  F   -0.264061
    11  C    0.535891
    12  O   -0.467872
    13  O   -0.431841
    14  F   -0.274650
    15  C    0.483570
    16  F   -0.277509
    17  C    0.559694
    18  F   -0.288211
    19  C    0.536477
    20  N   -0.536781
    21  C   -0.045803
    22  C   -0.189334
    23  C   -0.183456
    24  C   -0.183197
    25  C   -0.181379
    26  C   -0.167936
    27  C   -0.176249
    28  C   -0.320601
    29  O   -0.505296
    30  F   -0.270194
    31  O   -0.478157
    32  H    0.357850
    33  H    0.285872
    34  H    0.120662
    35  H    0.152670
    36  H    0.113198
    37  H    0.094471
    38  H    0.092222
    39  H    0.102631
    40  H    0.096190
    41  H    0.095741
    42  H    0.092326
    43  H    0.088810
    44  H    0.091219
    45  H    0.089521
    46  H    0.093475
    47  H    0.092249
    48  H    0.101954
    49  H    0.103252
    50  H    0.101772
 Sum of Mulliken charges =   0.00000
 Mulliken charges with hydrogens summed into heavy atoms:
               1
     1  F   -0.236619
     2  C    0.758657
     3  F   -0.242459
     4  C    0.525554
     5  F   -0.258184
     6  F   -0.250908
     7  C    0.138124
     8  F   -0.281237
     9  C    0.607882
    10  F   -0.264061
    11  C    0.535891
    12  O   -0.110022
    13  O   -0.431841
    14  F   -0.274650
    15  C    0.483570
    16  F   -0.277509
    17  C    0.559694
    18  F   -0.288211
    19  C    0.536477
    20  N   -0.250909
    21  C    0.227529
    22  C    0.018334
    23  C    0.011396
    24  C    0.008734
    25  C   -0.000243
    26  C    0.012804
    27  C    0.009475
    28  C   -0.013622
    29  O   -0.505296
    30  F   -0.270194
    31  O   -0.478157
 Electronic spatial extent (au):  <R**2>=          24787.1435
 Charge=              0.0000 electrons
 Dipole moment (field-independent basis, Debye):
    X=             -0.5074    Y=             -2.6148    Z=             -2.8822  Tot=              3.9245
 Quadrupole moment (field-independent basis, Debye-Ang):
   XX=           -147.5534   YY=           -178.2233   ZZ=           -186.1380
   XY=             -8.4013   XZ=             -5.7628   YZ=              7.3761
 Traceless Quadrupole moment (field-independent basis, Debye-Ang):
   XX=             23.0848   YY=             -7.5851   ZZ=            -15.4998
   XY=             -8.4013   XZ=             -5.7628   YZ=              7.3761
 Octapole moment (field-independent basis, Debye-Ang**2):
  XXX=           -595.6622  YYY=           -146.9326  ZZZ=            -78.2881  XYY=           -353.5953
  XXY=           -111.6422  XXZ=            -52.0672  XZZ=           -330.7854  YZZ=            -52.8606
  YYZ=             -6.2746  XYZ=             37.9495
 Hexadecapole moment (field-independent basis, Debye-Ang**3):
 XXXX=         -21858.0514 YYYY=          -1866.9630 ZZZZ=          -2032.4564 XXXY=          -1062.5544
 XXXZ=           -479.8587 YYYX=           -625.8314 YYYZ=            106.9665 ZZZX=              5.1084
 ZZZY=            126.0085 XXYY=          -4869.4102 XXZZ=          -4626.7049 YYZZ=           -666.1767
 XXYZ=            328.6652 YYXZ=             97.4463 ZZXY=           -266.8278
 N-N= 3.700910235503D+03 E-N=-1.205377450801D+04  KE= 1.959962902749D+03
 No NMR shielding tensors so no spin-rotation constants.
 Leave Link  601 at Tue Feb  4 09:05:28 2025, MaxMem=  5368709120 cpu:         2.4
 (Enter /home/k0335/k033513/app/g09/l9999.exe)
 1\1\GINC-C18U06N1\FOpt\RCAM-B3LYP\6-31G(d,p)\C16H19F10N1O4\K033513\04-
 Feb-2025\0\\#p CAM-B3LYP/6-31G(d,p) opt SCRF=(PCM,Solvent=Generic,Read
 ) NoSymm out=wfn\\Title OA0_neu\\0,1\F,4.3957434492,2.1729883944,2.726
 3763997\C,4.430511122,1.9160188062,1.4220701727\F,4.4635107662,3.08404
 61174,0.7673158426\C,5.6439831052,1.0458308203,1.0378824974\F,6.686531
 1536,1.8035955223,0.6460930521\F,6.0146621603,0.3054965262,2.089097482
 8\C,5.1121775174,0.1264695051,-0.0778580093\F,5.6437733048,-1.11848358
 14,0.0400067544\C,5.44116655,0.6556067609,-1.487510218\F,4.8199285808,
 1.8385888095,-1.6473637679\C,6.9340175466,0.861996681,-1.8228486897\O,
 7.6618790641,-0.1915256157,-1.4678860971\O,7.3315202606,1.8396827409,-
 2.3887264505\F,4.9586482839,-0.2333824502,-2.3866797522\C,3.5752399675
 ,0.1212195663,0.2112937171\F,2.8434624372,0.286278725,-0.9219690048\C,
 3.0689824553,-1.1742232285,0.871783712\F,3.2450357358,-2.1809611168,-0
 .0277538342\C,1.5823760777,-1.094969597,1.2923761271\N,0.7313479868,-1
 .5021586925,0.3356564046\C,-0.7127753694,-1.4711607756,0.5034782234\C,
 -1.3931600247,-0.6378530483,-0.5799383489\C,-2.9210613627,-0.670984764
 5,-0.5012928463\C,-3.4999035336,-0.009853816,0.7510087292\C,-5.0284451
 694,-0.0458535341,0.8290678871\C,-5.7456337843,0.7691421627,-0.2465285
 593\C,-7.2626989848,0.7868627962,-0.0701209834\C,-7.9808595198,1.59263
 51831,-1.1480455704\O,1.2932305621,-0.6764090836,2.3960546097\F,3.8207
 499932,-1.4143630725,1.9595381337\O,3.3142004111,1.1914147809,1.069939
 3716\H,8.5804585467,-0.0262115961,-1.7402661928\H,1.1178699275,-1.8635
 704182,-0.5235736901\H,-1.1008638655,-2.496596172,0.4904059854\H,-0.89
 3546344,-1.0626358802,1.4977948224\H,-1.034509869,0.3953533056,-0.5102
 343855\H,-1.0774083038,-1.0116245163,-1.5616156984\H,-3.2650755674,-1.
 7128580955,-0.5530009193\H,-3.3182976681,-0.1763152595,-1.3931064953\H
 ,-3.0975849091,-0.500305243,1.6443528656\H,-3.1580939471,1.0325290946,
 0.7970234892\H,-5.3371868896,0.3259092793,1.8136193995\H,-5.3688646464
 ,-1.0888274814,0.780056981\H,-5.5101435629,0.3730634157,-1.2418024273\
 H,-5.3674775601,1.8003053323,-0.2318301472\H,-7.5056935236,1.196359078
 2,0.9181525951\H,-7.6376798645,-0.2442047031,-0.0710896142\H,-7.784774
 8369,1.1822789653,-2.1438005353\H,-7.6456820836,2.6346781807,-1.149924
 1956\H,-9.0635857755,1.5919841919,-0.9956798225\\Version=ES64L-G09RevD
 .01\HF=-1974.5625217\RMSD=9.359e-09\RMSF=2.708e-06\Dipole=-0.1996178,-
 1.0287232,-1.1339587\Quadrupole=17.1630113,-5.6392992,-11.5237121,-6.2
 461876,-4.284495,5.4839238\PG=C01 [X(C16H19F10N1O4)]\\@

 Writing a WFN file to "cytopopt/OA0/OA0_neu.wfn"


 KNOWLEDGE IS OF TWO KINDS:  WE KNOW A SUBJECT OURSELVES OR WE KNOW 
 WHERE WE CAN FIND INFORMATION UPON IT.

                                    -- SAMUEL JOHNSON
 Job cpu time:       0 days  9 hours 59 minutes 50.1 seconds.
 File lengths (MBytes):  RWF=    620 Int=      0 D2E=      0 Chk=     27 Scr=      1
 Normal termination of Gaussian 09 at Tue Feb  4 09:05:29 2025.
