 Entering Gaussian System, Link 0=g09
 Initial command:
 /home/k0335/k033513/app/g09/l1.exe "/home/k0335/k033513/app/g09/scratch/Gau-557459.inp" -scrdir="/home/k0335/k033513/app/g09/scratch/"
 Default is to use a total of  36 processors:
                               36 via shared-memory
                                1 via Linda
 Entering Link 1 = /home/k0335/k033513/app/g09/l1.exe PID=    557460.
  
 Copyright (c) 1988,1990,1992,1993,1995,1998,2003,2009,2013,
            Gaussian, Inc.  All Rights Reserved.
  
 This is part of the Gaussian(R) 09 program.  It is based on
 the Gaussian(R) 03 system (copyright 2003, Gaussian, Inc.),
 the Gaussian(R) 98 system (copyright 1998, Gaussian, Inc.),
 the Gaussian(R) 94 system (copyright 1995, Gaussian, Inc.),
 the Gaussian 92(TM) system (copyright 1992, Gaussian, Inc.),
 the Gaussian 90(TM) system (copyright 1990, Gaussian, Inc.),
 the Gaussian 88(TM) system (copyright 1988, Gaussian, Inc.),
 the Gaussian 86(TM) system (copyright 1986, Carnegie Mellon
 University), and the Gaussian 82(TM) system (copyright 1983,
 Carnegie Mellon University). Gaussian is a federally registered
 trademark of Gaussian, Inc.
  
 This software contains proprietary and confidential information,
 including trade secrets, belonging to Gaussian, Inc.
  
 This software is provided under written license and may be
 used, copied, transmitted, or stored only in accord with that
 written license.
  
 The following legend is applicable only to US Government
 contracts under FAR:
  
                    RESTRICTED RIGHTS LEGEND
  
 Use, reproduction and disclosure by the US Government is
 subject to restrictions as set forth in subparagraphs (a)
 and (c) of the Commercial Computer Software - Restricted
 Rights clause in FAR 52.227-19.
  
 Gaussian, Inc.
 340 Quinnipiac St., Bldg. 40, Wallingford CT 06492
  
  
 ---------------------------------------------------------------
 Warning -- This program may not be used in any manner that
 competes with the business of Gaussian, Inc. or will provide
 assistance to any competitor of Gaussian, Inc.  The licensee
 of this program is prohibited from giving any competitor of
 Gaussian, Inc. access to this program.  By using this program,
 the user acknowledges that Gaussian, Inc. is engaged in the
 business of creating and licensing software in the field of
 computational chemistry and represents and warrants to the
 licensee that it is not a competitor of Gaussian, Inc. and that
 it will not use this program in any manner prohibited above.
 ---------------------------------------------------------------
  

 Cite this work as:
 Gaussian 09, Revision D.01,
 M. J. Frisch, G. W. Trucks, H. B. Schlegel, G. E. Scuseria, 
 M. A. Robb, J. R. Cheeseman, G. Scalmani, V. Barone, B. Mennucci, 
 G. A. Petersson, H. Nakatsuji, M. Caricato, X. Li, H. P. Hratchian, 
 A. F. Izmaylov, J. Bloino, G. Zheng, J. L. Sonnenberg, M. Hada, 
 M. Ehara, K. Toyota, R. Fukuda, J. Hasegawa, M. Ishida, T. Nakajima, 
 Y. Honda, O. Kitao, H. Nakai, T. Vreven, J. A. Montgomery, Jr., 
 J. E. Peralta, F. Ogliaro, M. Bearpark, J. J. Heyd, E. Brothers, 
 K. N. Kudin, V. N. Staroverov, T. Keith, R. Kobayashi, J. Normand, 
 K. Raghavachari, A. Rendell, J. C. Burant, S. S. Iyengar, J. Tomasi, 
 M. Cossi, N. Rega, J. M. Millam, M. Klene, J. E. Knox, J. B. Cross, 
 V. Bakken, C. Adamo, J. Jaramillo, R. Gomperts, R. E. Stratmann, 
 O. Yazyev, A. J. Austin, R. Cammi, C. Pomelli, J. W. Ochterski, 
 R. L. Martin, K. Morokuma, V. G. Zakrzewski, G. A. Voth, 
 P. Salvador, J. J. Dannenberg, S. Dapprich, A. D. Daniels, 
 O. Farkas, J. B. Foresman, J. V. Ortiz, J. Cioslowski, 
 and D. J. Fox, Gaussian, Inc., Wallingford CT, 2013.
 
 ******************************************
 Gaussian 09:  ES64L-G09RevD.01 24-Apr-2013
                 3-Mar-2024 
 ******************************************
 %nprocshared=24
 Will use up to   24 processors via shared memory.
 %mem=40GB
 %rwf=A154147352/A154147352_p1.rwf
 %nosave
 %chk=A154147352/A154147352_p1.chk
 ----------------------------------------------------------------------
 #p CAM-B3LYP/6-31G(d,p) SCRF=(PCM,Solvent=Generic,Read) NoSymm out=wfn
 ----------------------------------------------------------------------
 1/38=1,40=2/1;
 2/12=2,15=1,17=6,18=5,40=1/2;
 3/5=1,6=6,7=101,11=2,16=1,25=1,30=1,70=2203,72=-2,74=-40/1,2,3;
 4//1;
 5/5=2,38=5/2;
 6/7=2,8=2,9=2,10=2,28=1/1;
 99/5=1,6=100,9=1/99;
 Leave Link    1 at Sun Mar  3 18:18:02 2024, MaxMem=  5368709120 cpu:         1.9
 (Enter /home/k0335/k033513/app/g09/l101.exe)
 -------------------
 Title A154147352_p1
 -------------------
 Symbolic Z-matrix:
 Charge =  1 Multiplicity = 2
 O                     1.85617   2.29544  -0.39011 
 C                     0.86362   1.59952  -0.19029 
 N                    -0.34988   2.16261   0.1402 
 C                    -0.4814    3.62371   0.04892 
 C                    -0.43813   4.15831  -1.38021 
 Br                   -1.96037   3.52892  -2.41964 
 C                    -1.43044   1.41886   0.56377 
 O                    -2.53443   1.92506   0.74399 
 N                    -1.20372   0.08134   0.76378 
 C                    -2.27946  -0.73121   1.32969 
 F                    -1.69371  -1.66007   2.15648 
 F                    -3.0174    0.00857   2.2077 
 C                    -3.22369  -1.49418   0.36004 
 F                    -4.04135  -2.28579   1.12607 
 O                    -2.45347  -2.38667  -0.4522 
 C                    -3.20776  -3.07031  -1.41703 
 F                    -3.38442  -2.26089  -2.47555 
 F                    -4.39524  -3.46363  -0.93391 
 F                    -2.51732  -4.15313  -1.8177 
 C                    -4.07612  -0.4711   -0.3923 
 F                    -5.02094  -1.07184  -1.15458 
 F                    -4.73339   0.37412   0.424 
 F                    -3.30779   0.25659  -1.23718 
 C                    -0.08607  -0.55471   0.28137 
 O                     0.05609  -1.7709    0.36346 
 N                     0.88781   0.2323   -0.2795 
 C                     2.11612  -0.38548  -0.76296 
 F                     2.48785   0.30697  -1.89216 
 F                     1.85413  -1.63043  -1.26245 
 C                     3.35279  -0.46618   0.17541 
 F                     3.6668    0.7836    0.626 
 O                     4.46854  -0.89176  -0.62673 
 C                     5.62848  -1.14901   0.11764 
 F                     5.81623  -0.22543   1.07255 
 F                     5.53166  -2.37031   0.6688 
 F                     6.68523  -1.13617  -0.71538 
 C                     2.99656  -1.35255   1.36968 
 F                     2.71182  -2.61755   1.00604 
 F                     1.9358   -0.85557   2.05049 
 F                     4.00739  -1.4168    2.26818 
 H                    -1.39909   3.95753   0.5458 
 H                     0.35345   4.06307   0.60907 
 H                     0.45424   3.84481  -1.9272 
 H                    -0.49519   5.25031  -1.38832 
 
 NAtoms=     44 NQM=       44 NQMF=       0 NMMI=      0 NMMIF=      0
                NMic=       0 NMicF=      0.
                    Isotopes and Nuclear Properties:
 (Nuclear quadrupole moments (NQMom) in fm**2, nuclear magnetic moments (NMagM)
  in nuclear magnetons)

  Atom         1           2           3           4           5           6           7           8           9          10
 IAtWgt=          16          12          14          12          12          79          12          16          14          12
 AtmWgt=  15.9949146  12.0000000  14.0030740  12.0000000  12.0000000  78.9183361  12.0000000  15.9949146  14.0030740  12.0000000
 NucSpn=           0           0           2           0           0           3           0           0           2           0
 AtZEff=   0.0000000   0.0000000   0.0000000   0.0000000   0.0000000   0.0000000   0.0000000   0.0000000   0.0000000   0.0000000
 NQMom=    0.0000000   0.0000000   2.0440000   0.0000000   0.0000000  31.3000000   0.0000000   0.0000000   2.0440000   0.0000000
 NMagM=    0.0000000   0.0000000   0.4037610   0.0000000   0.0000000   2.1063990   0.0000000   0.0000000   0.4037610   0.0000000
 AtZNuc=   8.0000000   6.0000000   7.0000000   6.0000000   6.0000000  35.0000000   6.0000000   8.0000000   7.0000000   6.0000000

  Atom        11          12          13          14          15          16          17          18          19          20
 IAtWgt=          19          19          12          19          16          12          19          19          19          12
 AtmWgt=  18.9984033  18.9984033  12.0000000  18.9984033  15.9949146  12.0000000  18.9984033  18.9984033  18.9984033  12.0000000
 NucSpn=           1           1           0           1           0           0           1           1           1           0
 AtZEff=   0.0000000   0.0000000   0.0000000   0.0000000   0.0000000   0.0000000   0.0000000   0.0000000   0.0000000   0.0000000
 NQMom=    0.0000000   0.0000000   0.0000000   0.0000000   0.0000000   0.0000000   0.0000000   0.0000000   0.0000000   0.0000000
 NMagM=    2.6288670   2.6288670   0.0000000   2.6288670   0.0000000   0.0000000   2.6288670   2.6288670   2.6288670   0.0000000
 AtZNuc=   9.0000000   9.0000000   6.0000000   9.0000000   8.0000000   6.0000000   9.0000000   9.0000000   9.0000000   6.0000000

  Atom        21          22          23          24          25          26          27          28          29          30
 IAtWgt=          19          19          19          12          16          14          12          19          19          12
 AtmWgt=  18.9984033  18.9984033  18.9984033  12.0000000  15.9949146  14.0030740  12.0000000  18.9984033  18.9984033  12.0000000
 NucSpn=           1           1           1           0           0           2           0           1           1           0
 AtZEff=   0.0000000   0.0000000   0.0000000   0.0000000   0.0000000   0.0000000   0.0000000   0.0000000   0.0000000   0.0000000
 NQMom=    0.0000000   0.0000000   0.0000000   0.0000000   0.0000000   2.0440000   0.0000000   0.0000000   0.0000000   0.0000000
 NMagM=    2.6288670   2.6288670   2.6288670   0.0000000   0.0000000   0.4037610   0.0000000   2.6288670   2.6288670   0.0000000
 AtZNuc=   9.0000000   9.0000000   9.0000000   6.0000000   8.0000000   7.0000000   6.0000000   9.0000000   9.0000000   6.0000000

  Atom        31          32          33          34          35          36          37          38          39          40
 IAtWgt=          19          16          12          19          19          19          12          19          19          19
 AtmWgt=  18.9984033  15.9949146  12.0000000  18.9984033  18.9984033  18.9984033  12.0000000  18.9984033  18.9984033  18.9984033
 NucSpn=           1           0           0           1           1           1           0           1           1           1
 AtZEff=   0.0000000   0.0000000   0.0000000   0.0000000   0.0000000   0.0000000   0.0000000   0.0000000   0.0000000   0.0000000
 NQMom=    0.0000000   0.0000000   0.0000000   0.0000000   0.0000000   0.0000000   0.0000000   0.0000000   0.0000000   0.0000000
 NMagM=    2.6288670   0.0000000   0.0000000   2.6288670   2.6288670   2.6288670   0.0000000   2.6288670   2.6288670   2.6288670
 AtZNuc=   9.0000000   8.0000000   6.0000000   9.0000000   9.0000000   9.0000000   6.0000000   9.0000000   9.0000000   9.0000000

  Atom        41          42          43          44
 IAtWgt=           1           1           1           1
 AtmWgt=   1.0078250   1.0078250   1.0078250   1.0078250
 NucSpn=           1           1           1           1
 AtZEff=   0.0000000   0.0000000   0.0000000   0.0000000
 NQMom=    0.0000000   0.0000000   0.0000000   0.0000000
 NMagM=    2.7928460   2.7928460   2.7928460   2.7928460
 AtZNuc=   1.0000000   1.0000000   1.0000000   1.0000000
 Leave Link  101 at Sun Mar  3 18:18:02 2024, MaxMem=  5368709120 cpu:         1.1
 (Enter /home/k0335/k033513/app/g09/l202.exe)
                          Input orientation:                          
 ---------------------------------------------------------------------
 Center     Atomic      Atomic             Coordinates (Angstroms)
 Number     Number       Type             X           Y           Z
 ---------------------------------------------------------------------
      1          8           0        1.856172    2.295444   -0.390111
      2          6           0        0.863621    1.599519   -0.190291
      3          7           0       -0.349881    2.162606    0.140204
      4          6           0       -0.481398    3.623707    0.048922
      5          6           0       -0.438129    4.158312   -1.380205
      6         35           0       -1.960372    3.528921   -2.419643
      7          6           0       -1.430437    1.418862    0.563774
      8          8           0       -2.534428    1.925061    0.743994
      9          7           0       -1.203718    0.081340    0.763781
     10          6           0       -2.279459   -0.731206    1.329692
     11          9           0       -1.693706   -1.660072    2.156483
     12          9           0       -3.017398    0.008572    2.207703
     13          6           0       -3.223694   -1.494175    0.360042
     14          9           0       -4.041351   -2.285792    1.126072
     15          8           0       -2.453470   -2.386669   -0.452199
     16          6           0       -3.207757   -3.070308   -1.417033
     17          9           0       -3.384415   -2.260888   -2.475552
     18          9           0       -4.395243   -3.463628   -0.933907
     19          9           0       -2.517316   -4.153127   -1.817703
     20          6           0       -4.076117   -0.471102   -0.392302
     21          9           0       -5.020936   -1.071840   -1.154581
     22          9           0       -4.733393    0.374120    0.424001
     23          9           0       -3.307791    0.256594   -1.237181
     24          6           0       -0.086072   -0.554710    0.281371
     25          8           0        0.056086   -1.770903    0.363457
     26          7           0        0.887807    0.232301   -0.279503
     27          6           0        2.116116   -0.385481   -0.762964
     28          9           0        2.487851    0.306966   -1.892161
     29          9           0        1.854125   -1.630425   -1.262452
     30          6           0        3.352794   -0.466181    0.175411
     31          9           0        3.666796    0.783597    0.625998
     32          8           0        4.468541   -0.891760   -0.626729
     33          6           0        5.628477   -1.149007    0.117636
     34          9           0        5.816225   -0.225425    1.072554
     35          9           0        5.531658   -2.370313    0.668804
     36          9           0        6.685228   -1.136170   -0.715380
     37          6           0        2.996560   -1.352549    1.369677
     38          9           0        2.711823   -2.617545    1.006044
     39          9           0        1.935799   -0.855569    2.050486
     40          9           0        4.007389   -1.416800    2.268182
     41          1           0       -1.399090    3.957531    0.545804
     42          1           0        0.353451    4.063071    0.609071
     43          1           0        0.454244    3.844813   -1.927203
     44          1           0       -0.495191    5.250310   -1.388319
 ---------------------------------------------------------------------
                    Distance matrix (angstroms):
                    1          2          3          4          5
     1  O    0.000000
     2  C    1.228575   0.000000
     3  N    2.272785   1.377999   0.000000
     4  C    2.724200   2.442056   1.469845   0.000000
     5  C    3.116790   3.107711   2.510433   1.526460   0.000000
     6  Br   4.495161   4.082590   3.318631   2.879264   1.947765
     7  C    3.532717   2.421560   1.378466   2.455013   3.502616
     8  O    4.549807   3.539153   2.278867   2.753807   3.727479
     9  N    3.949259   2.736606   2.334428   3.685259   4.669529
    10  C    5.405717   4.197806   3.675908   4.882485   5.885697
    11  F    5.893461   4.761534   4.525938   5.816341   6.923744
    12  F    5.977466   4.831542   4.003756   4.915367   6.061852
    13  C    6.381926   5.155575   4.656090   5.814611   6.537464
    14  F    7.620191   6.394310   5.864054   6.982528   7.796865
    15  O    6.363886   5.192435   5.046972   6.345456   6.910830
    16  C    7.449110   6.315718   6.162453   7.375086   7.741133
    17  F    7.250723   6.178266   5.968071   7.030571   7.147483
    18  F    8.517207   7.337852   7.012359   8.155639   8.599529
    19  F    7.921457   6.868198   6.958424   8.252781   8.578720
    20  C    6.545673   5.359971   4.593998   5.466639   5.970124
    21  F    7.695299   6.534067   5.827252   6.641083   6.957551
    22  F    6.912064   5.762423   4.742826   5.364696   6.002046
    23  F    5.616133   4.505564   3.778796   4.580394   4.845495
    24  C    3.513770   2.401059   2.733739   4.203509   5.009726
    25  O    4.510361   3.509771   3.960700   5.430436   6.200016
    26  N    2.281781   1.370339   2.331116   3.672087   4.287565
    27  C    2.719182   2.415972   3.659180   4.845599   5.248925
    28  F    2.570840   2.684246   3.953053   4.856440   4.863777
    29  F    4.021620   3.544456   4.605667   5.897480   6.227180
    30  C    3.191593   3.255278   4.541097   5.607514   6.178752
    31  F    2.568369   3.031476   4.274501   5.060312   5.680137
    32  O    4.127800   4.403680   5.756260   6.734081   7.081410
    33  C    5.133453   5.509362   6.834329   7.753328   8.198468
    34  F    4.916929   5.427106   6.677786   7.451422   8.021853
    35  F    6.033224   6.187744   7.444412   8.512894   9.080735
    36  F    5.933090   6.453745   7.817078   8.637194   8.900323
    37  C    4.207754   3.962024   5.006654   6.213188   7.051846
    38  F    5.178692   4.757173   5.742260   7.075731   7.844018
    39  F    3.986444   3.492578   4.240624   5.469279   6.522590
    40  F    5.047278   5.002554   6.027125   7.105001   8.009696
    41  H    3.772957   3.349913   2.118279   1.095668   2.161775
    42  H    2.526072   2.639762   2.079971   1.097169   2.143103
    43  H    2.593954   2.868065   2.783992   2.197586   1.092620
    44  H    3.905965   4.075526   3.448393   2.170643   1.093518
                    6          7          8          9         10
     6  Br   0.000000
     7  C    3.692419   0.000000
     8  O    3.593119   1.227808   0.000000
     9  N    4.753160   1.371266   2.273871   0.000000
    10  C    5.684014   2.435213   2.731997   1.462089   0.000000
    11  F    6.923705   3.476473   3.943998   2.283029   1.374584
    12  F    5.909526   2.685119   2.459397   2.319405   1.364818
    13  C    5.878276   3.426815   3.509086   2.593368   1.553680
    14  F    7.121338   4.567003   4.488662   3.713049   2.358487
    15  O    6.253654   4.069504   4.475315   3.021846   2.438437
    16  C    6.790510   5.218727   5.484261   4.324929   3.725270
    17  F    5.962626   5.157140   5.348843   4.553543   4.247439
    18  F    7.551937   5.905238   5.942723   5.063080   4.131168
    19  F    7.725696   6.156281   6.595980   5.130332   4.655343
    20  C    4.958495   3.389051   3.067502   3.145218   2.502179
    21  F    5.668724   4.695532   4.332289   4.425053   3.715285
    22  F    5.072349   3.467065   2.709845   3.558058   2.839686
    23  F    3.731203   2.849344   2.703133   2.908898   2.936333
    24  C    5.242568   2.404590   3.515357   1.373467   2.437432
    25  O    6.316635   3.524837   4.529428   2.275559   2.733011
    26  N    4.853867   2.737389   3.952806   2.342159   3.680955
    27  C    5.889387   4.194511   5.407133   3.683771   4.880555
    28  F    5.517782   4.756144   5.898375   4.553308   5.846827
    29  F    6.519841   4.839587   5.993889   4.047983   4.961282
    30  C    7.136167   5.155920   6.379711   4.626852   5.755422
    31  F    6.962597   5.137044   6.306508   4.922810   6.176387
    32  O    8.005491   6.446256   7.671697   5.920723   7.027721
    33  C    9.268842   7.524710   8.745012   6.972098   8.011185
    34  F    9.314828   7.448265   8.629365   7.033423   8.115543
    35  F   10.023471   7.927146   9.138798   7.168327   8.008558
    36  F    9.970656   8.603978   9.823592   8.118234   9.203908
    37  C    7.922050   5.284742   6.459569   4.479451   5.312630
    38  F    8.446525   5.800561   6.944573   4.761736   5.345645
    39  F    7.374683   4.326071   5.424182   3.519940   4.278248
    40  F    9.058147   6.365213   7.502437   5.627014   6.393376
    41  H    3.048380   2.538926   2.336494   3.887228   4.834644
    42  H    3.848662   3.190008   3.595711   4.278188   5.516938
    43  H    2.484483   3.955026   4.444424   4.914668   6.246635
    44  H    2.484666   4.400607   4.445506   5.643740   6.808064
                   11         12         13         14         15
    11  F    0.000000
    12  F    2.130530   0.000000
    13  C    2.365499   2.390535   0.000000
    14  F    2.639074   2.735418   1.371868   0.000000
    15  O    2.812544   3.623572   1.431617   2.241089   0.000000
    16  C    4.129302   4.759669   2.375383   2.788858   1.402575
    17  F    4.967416   5.217090   2.941815   3.661131   2.230793
    18  F    4.483484   4.881019   2.631649   2.399177   2.272084
    19  F    4.763172   5.811516   3.508785   3.804660   2.233618
    20  C    3.685897   2.847982   1.529485   2.366383   2.511169
    21  F    4.730710   4.060346   2.387997   2.763086   2.968838
    22  F    4.047114   2.501971   2.402875   2.836716   3.686154
    23  F    4.218511   3.465987   2.371368   3.547788   2.886676
    24  C    2.705985   3.552564   3.276195   4.399363   3.082008
    25  O    2.507787   4.001759   3.291435   4.199486   2.709674
    26  N    4.022352   4.635394   4.504906   5.710782   4.248877
    27  C    4.966135   5.944166   5.568116   6.715210   4.998244
    28  F    6.143792   6.870640   6.398302   7.646084   5.809115
    29  F    4.927180   6.201615   5.332476   6.394622   4.447897
    30  C    5.551323   6.703353   6.658908   7.673860   6.147753
    31  F    6.086779   6.912373   7.262082   8.311844   6.976443
    32  O    6.805135   8.055053   7.778631   8.799653   7.083745
    33  C    7.617903   8.969923   8.862214   9.788503   8.195998
    34  F    7.722187   8.909333   9.156284  10.070739   8.682379
    35  F    7.411040   9.006312   8.804495   9.584296   8.063447
    36  F    8.872914  10.197833   9.973537  10.944043   9.227611
    37  C    4.765735   6.222751   6.303252   7.103695   5.838790
    38  F    4.652843   6.415953   6.075331   6.762383   5.372153
    39  F    3.719108   5.030469   5.466789   6.215014   5.279525
    40  F    5.707376   7.168192   7.479007   8.175682   7.076992
    41  H    5.851372   4.579859   5.751938   6.804215   6.508195
    42  H    6.272137   5.509738   6.613695   7.738839   7.113666
    43  H    7.182892   6.623178   6.874846   8.192508   7.032909
    44  H    7.858463   6.838766   7.482618   8.700014   7.939435
                   16         17         18         19         20
    16  C    0.000000
    17  F    1.344184   0.000000
    18  F    1.340983   2.201142   0.000000
    19  F    1.345267   2.182933   2.187033   0.000000
    20  C    2.925747   2.832263   3.057841   4.244872   0.000000
    21  F    2.711157   2.415989   2.482104   4.025192   1.354488
    22  F    4.192977   4.143720   4.084920   5.516539   1.346389
    23  F    3.333261   2.806626   3.887747   4.517466   1.354137
    24  C    4.354047   4.625012   5.339256   4.823449   4.047380
    25  O    3.938435   4.487439   4.935869   4.129752   4.397244
    26  N    5.382829   5.412070   6.480644   5.761328   5.014782
    27  C    5.998310   6.058544   7.204305   6.064349   6.203908
    28  F    6.638650   6.435661   7.906492   6.704452   6.777953
    29  F    5.264960   5.414000   6.520980   5.077581   6.104831
    30  C    7.235896   7.459126   8.381369   7.212785   7.450573
    31  F    8.141624   8.282999   9.244928   8.281676   7.909735
    32  O    8.018491   8.183005   9.234475   7.801098   8.558218
    33  C    9.172003   9.444211  10.341092   8.895179   9.741598
    34  F    9.783847  10.068959  10.898896   9.655482  10.003229
    35  F    9.012108   9.454909  10.114711   8.610873   9.851004
    36  F   10.104670  10.284012  11.324383   9.746998  10.786716
    37  C    7.014984   7.505179   8.025080   6.957403   7.341953
    38  F    6.412310   7.029426   7.415501   6.138033   7.255255
    39  F    6.586723   7.124929   7.469315   6.757737   6.500628
    40  F    8.268811   8.823506   9.222099   8.170295   8.562452
    41  H    7.517614   7.192972   8.138801   8.521700   5.259212
    42  H    8.226323   7.967371   9.032280   9.035289   6.417363
    43  H    7.841519   7.232951   8.827087   8.532831   6.442609
    44  H    8.751658   8.120824   9.557699   9.627979   6.822729
                   21         22         23         24         25
    21  F    0.000000
    22  F    2.159954   0.000000
    23  F    2.169430   2.192186   0.000000
    24  C    5.165488   4.741378   3.652901   0.000000
    25  O    5.345024   5.248228   4.241280   1.227221   0.000000
    26  N    6.113901   5.666826   4.303578   1.372008   2.262296
    27  C    7.180666   6.992972   5.482327   2.443134   2.726159
    28  F    7.669877   7.583896   5.832753   3.477327   3.913928
    29  F    6.898559   7.089268   5.496076   2.702761   2.428221
    30  C    8.500297   8.133531   6.846986   3.441637   3.550485
    31  F    9.060342   8.412589   7.238372   3.999231   4.430759
    32  O    9.505852   9.347838   7.884333   4.656474   4.606856
    33  C   10.725413  10.477697   9.147028   5.747701   5.612372
    34  F   11.095973  10.586525   9.424165   5.964186   6.005874
    35  F   10.787400  10.628411   9.416437   5.916537   5.516740
    36  F   11.714577  11.574285  10.103093   6.868924   6.746280
    37  C    8.410168   7.976707   7.009272   3.365052   3.135903
    38  F    8.176372   8.044879   7.037648   3.550867   2.860535
    39  F    7.662597   6.973931   6.288155   2.703377   2.686489
    40  F    9.661519   9.110964   8.282492   4.631095   4.400700
    41  H    6.426792   4.896248   4.529802   4.706831   5.913184
    42  H    7.639490   6.286381   5.594873   4.650212   5.846709
    43  H    7.399190   6.669741   5.244459   4.952327   6.077986
    44  H    7.778598   6.709999   5.733303   6.054213   7.257414
                   26         27         28         29         30
    26  N    0.000000
    27  C    1.457440   0.000000
    28  F    2.272968   1.375775   0.000000
    29  F    2.317263   1.366753   2.133454   0.000000
    30  C    2.602112   1.554488   2.370809   2.380950   0.000000
    31  F    2.974330   2.387586   2.821031   3.560832   1.365127
    32  O    3.769050   2.410141   2.638446   2.790151   1.438554
    33  C    4.953754   3.700690   4.002833   4.047486   2.376620
    34  F    5.130972   4.133467   4.488992   4.808796   2.632740
    35  F    5.407239   4.201838   4.794906   4.219174   2.935405
    36  F    5.972670   4.630614   4.591887   4.887037   3.513902
    37  C    3.111010   2.501711   3.694910   2.882790   1.529321
    38  F    3.619570   2.909702   4.123411   2.618420   2.393567
    39  F    2.776796   2.858146   4.147374   3.403326   2.382311
    40  F    4.352244   3.718653   4.752770   4.140961   2.389950
    41  H    4.448412   5.738580   5.863327   6.714049   6.502832
    42  H    3.968614   4.977859   4.992009   6.178229   5.449609
    43  H    3.994138   4.691765   4.080827   5.690324   5.604217
    44  H    5.321895   6.242766   5.795606   7.271839   7.066152
                   31         32         33         34         35
    31  F    0.000000
    32  O    2.240299   0.000000
    33  C    2.800283   1.402037   0.000000
    34  F    2.416109   2.268880   1.341686   0.000000
    35  F    3.664245   2.234892   1.343409   2.201031   0.000000
    36  F    3.820436   2.231882   1.345661   2.186625   2.183987
    37  C    2.359109   2.522834   2.921647   3.051098   2.820246
    38  F    3.553052   2.954715   3.384190   3.919690   2.850671
    39  F    2.777118   3.685590   4.178263   4.051066   4.139287
    40  F    2.766680   2.978059   2.706379   2.474023   2.406365
    41  H    5.978586   7.701919   8.697514   8.356755   9.385734
    42  H    4.661919   6.558317   7.431902   6.960454   8.258682
    43  H    5.119606   6.343574   7.476115   7.369954   8.434879
    44  H    6.428929   7.933705   8.984346   8.710542   9.931191
                   36         37         38         39         40
    36  F    0.000000
    37  C    4.242706   0.000000
    38  F    4.576649   1.346670   0.000000
    39  F    5.503256   1.354882   2.190350   0.000000
    40  F    4.018858   1.353963   2.171007   2.157280   0.000000
    41  H    9.638079   6.942439   7.768079   6.045782   7.815372
    42  H    8.299258   6.074001   7.095783   5.364189   6.792120
    43  H    8.068697   6.659231   7.447326   6.333293   7.609906
    44  H    9.633192   7.962199   8.827290   7.417334   8.837057
                   41         42         43         44
    41  H    0.000000
    42  H    1.756856   0.000000
    43  H    3.092461   2.547642   0.000000
    44  H    2.495825   2.473721   1.779675   0.000000
 Symmetry turned off by external request.
 Stoichiometry    C13H4BrF18N3O5(1+,2)
 Framework group  C1[X(C13H4BrF18N3O5)]
 Deg. of freedom   126
 Full point group                 C1      NOp   1
 Rotational constants (GHZ):      0.1133479      0.0577385      0.0459000
 Leave Link  202 at Sun Mar  3 18:18:02 2024, MaxMem=  5368709120 cpu:         0.1
 (Enter /home/k0335/k033513/app/g09/l301.exe)
 Standard basis: 6-31G(d,p) (6D, 7F)
 Ernie: Thresh=  0.10000D-02 Tol=  0.10000D-05 Strict=F.
   635 basis functions,  1203 primitive gaussians,   635 cartesian basis functions
   170 alpha electrons      169 beta electrons
       nuclear repulsion energy      6883.4418912193 Hartrees.
 IExCor=20419 DFT=T Ex+Corr=CAM-B3LYP ExCW=0 ScaHFX=  1.000000
 ScaDFX=  1.000000  1.000000  1.000000  0.810000 ScalE2=  1.000000  1.000000
 IRadAn=      0 IRanWt=     -1 IRanGd=            0 ICorTp=0 IEmpDi=  4
  HFx wShort=  0.000000 wLong=  0.330000 cFull=  0.190000 cShort=  0.000000 cLong=  0.460000
  DFx wShort=  0.000000 wLong=  0.330000 cFull=  0.190000 cShort=  0.000000 cLong=  0.460000
 NAtoms=   44 NActive=   44 NUniq=   44 SFac= 1.00D+00 NAtFMM=   60 NAOKFM=F Big=F
 Integral buffers will be    131072 words long.
 Raffenetti 2 integral format.
 Two-electron integral symmetry is turned off.
 Using the following non-standard input for PCM:
 eps=4.9
 --- end of non-standard input.
 ------------------------------------------------------------------------------
 Polarizable Continuum Model (PCM)
 =================================
 Model                : PCM (using non-symmetric T matrix).
 Atomic radii         : UFF (Universal Force Field).
 Polarization charges : Total charges.
 Charge compensation  : None.
 Solution method      : On-the-fly selection.
 Cavity type          : Scaled VdW (van der Waals Surface) (Alpha=1.100).
 Cavity algorithm     : GePol (No added spheres)
                        Default sphere list used, NSphG=   44.
                        Lebedev-Laikov grids with approx.  5.0 points / Ang**2.
                        Smoothing algorithm: Karplus/York (Gamma=1.0000).
                        Polarization charges: spherical gaussians, with
                                              point-specific exponents (IZeta= 3).
                        Self-potential: point-specific (ISelfS= 7).
                        Self-field    : sphere-specific E.n sum rule (ISelfD= 2).
 Solvent              : Generic,
                        Eps                           =   4.900000
                        Eps(infinity)                 =   0.000000
                        RSolv                         =   0.000000 Ang.
                        Molar volume                  =   0.000000 cm**3/mol
                        Thermal expansion coefficient =   0.000000 K**-1
                        Absolute temperature          = 298.150000 K
                        Numeral density               =   0.000000 Ang**-3
                        Hydrogen bond acidity         =   0.000000
                        Hydrogen bond basicity        =   0.000000
                        Surface tension at interface  =   0.000000 (cal/mol)*Ang**-2
                        Carbon aromaticity            =   0.000000
                        Electronegative halogenicity  =   0.000000
 ------------------------------------------------------------------------------
 GePol: Number of generator spheres                  =      44
 GePol: Total number of spheres                      =      44
 GePol: Number of exposed spheres                    =      44 (100.00%)
 GePol: Number of points                             =    3719
 GePol: Average weight of points                     =       0.12
 GePol: Minimum weight of points                     =   0.10D-09
 GePol: Maximum weight of points                     =    0.20577
 GePol: Number of points with low weight             =     168
 GePol: Fraction of low-weight points (<1% of avg)   =       4.52%
 GePol: Cavity surface area                          =    462.855 Ang**2
 GePol: Cavity volume                                =    550.118 Ang**3
 Leave Link  301 at Sun Mar  3 18:18:02 2024, MaxMem=  5368709120 cpu:         1.1
 (Enter /home/k0335/k033513/app/g09/l302.exe)
 NPDir=0 NMtPBC=     1 NCelOv=     1 NCel=       1 NClECP=     1 NCelD=      1
         NCelK=      1 NCelE2=     1 NClLst=     1 CellRange=     0.0.
 One-electron integrals computed using PRISM.
 NBasis=   635 RedAO= T EigKep=  7.46D-04  NBF=   635
 NBsUse=   635 1.00D-06 EigRej= -1.00D+00 NBFU=   635
 Precomputing XC quadrature grid using
 IXCGrd= 4 IRadAn=           0 IRanWt=          -1 IRanGd=           0 AccXCQ= 0.00D+00.
 Generated NRdTot=       0 NPtTot=           0 NUsed=           0 NTot=          32
 NSgBfM=   613   613   613   613   613 MxSgAt=    44 MxSgA2=    44.
 Leave Link  302 at Sun Mar  3 18:18:03 2024, MaxMem=  5368709120 cpu:        15.1
 (Enter /home/k0335/k033513/app/g09/l303.exe)
 DipDrv:  MaxL=1.
 Leave Link  303 at Sun Mar  3 18:18:03 2024, MaxMem=  5368709120 cpu:         1.1
 (Enter /home/k0335/k033513/app/g09/l401.exe)
 ExpMin= 1.43D-01 ExpMax= 5.74D+05 ExpMxC= 5.74D+03 IAcc=2 IRadAn=         4 AccDes= 0.00D+00
 Harris functional with IExCor=20419 and IRadAn=       4 diagonalized for initial guess.
 HarFok:  IExCor=20419 AccDes= 0.00D+00 IRadAn=         4 IDoV= 1 UseB2=F ITyADJ=14
 ICtDFT=  3500011 ScaDFX=  1.000000  1.000000  1.000000  1.000000
 FoFCou: FMM=F IPFlag=           0 FMFlag=      100000 FMFlg1=           0
         NFxFlg=           0 DoJE=T BraDBF=F KetDBF=T FulRan=T
         wScrn=  0.000000 ICntrl=     500 IOpCl=  0 I1Cent=   200000004 NGrid=           0
         NMat0=    1 NMatS0=      1 NMatT0=    0 NMatD0=    1 NMtDS0=    0 NMtDT0=    0
 Symmetry not used in FoFCou.
 Harris En= -5301.59720793035    
 JPrj=0 DoOrth=F DoCkMO=F.
 Initial guess <Sx>= 0.0000 <Sy>= 0.0000 <Sz>= 0.5000 <S**2>= 0.7500 S= 0.5000
 Leave Link  401 at Sun Mar  3 18:18:04 2024, MaxMem=  5368709120 cpu:        25.2
 (Enter /home/k0335/k033513/app/g09/l502.exe)
 UHF open shell SCF:
 Using DIIS extrapolation, IDIIS=  1040.
 Two-electron integral symmetry not used.
 IVT=     1247363 IEndB=     1247363 NGot=  5368709120 MDV=  5367882258
 LenX=  5367882258 LenY=  5367478398
 Requested convergence on RMS density matrix=1.00D-08 within 128 cycles.
 Requested convergence on MAX density matrix=1.00D-06.
 Requested convergence on             energy=1.00D-06.
 No special actions if energy rises.
 Fock matrices will be formed incrementally for  20 cycles.

 Cycle   1  Pass 1  IDiag  1:
 FoFJK:  IHMeth= 1 ICntrl=       0 DoSepK=T KAlg= 0 I1Cent=   0 FoldK=F
 IRaf=         1 NMat=   1 IRICut=       1 DoRegI=T DoRafI=F ISym2E= 0.
 FoFCou: FMM=F IPFlag=           0 FMFlag=      100000 FMFlg1=           0
         NFxFlg=           0 DoJE=T BraDBF=F KetDBF=F FulRan=T
         wScrn=  0.000000 ICntrl=     500 IOpCl=  0 I1Cent=           0 NGrid=           0
         NMat0=    1 NMatS0=      1 NMatT0=    0 NMatD0=    1 NMtDS0=    0 NMtDT0=    0
 Symmetry not used in FoFCou.
 Inv3:  Mode=1 IEnd=    41492883.
 Iteration    1 A*A^-1 deviation from unit magnitude is 9.88D-15 for   1055.
 Iteration    1 A*A^-1 deviation from orthogonality  is 5.42D-15 for   3182    599.
 Iteration    1 A^-1*A deviation from unit magnitude is 1.01D-14 for    283.
 Iteration    1 A^-1*A deviation from orthogonality  is 4.16D-15 for   3700   3207.
 E= -5404.72559259253    
 DIIS: error= 2.72D-01 at cycle   1 NSaved=   1.
 NSaved= 1 IEnMin= 1 EnMin= -5404.72559259253     IErMin= 1 ErrMin= 2.72D-01
 ErrMax= 2.72D-01  0.00D+00 EMaxC= 1.00D-01 BMatC= 1.84D+01 BMatP= 1.84D+01
 IDIUse=3 WtCom= 0.00D+00 WtEn= 1.00D+00
 Coeff-Com:  0.100D+01
 Coeff-En:   0.100D+01
 Coeff:      0.100D+01
 Gap=     0.628 Goal=   None    Shift=    0.000
 Gap=     0.062 Goal=   None    Shift=    0.000
 GapD=    0.062 DampG=0.500 DampE=0.250 DampFc=0.2500 IDamp=-1.
 Damping current iteration by 2.50D-01
 RMSDP=3.70D-03 MaxDP=2.78D-01              OVMax= 4.84D-01

 Cycle   2  Pass 1  IDiag  1:
 RMSU=  9.20D-04    CP:  9.95D-01
 E= -5405.12500133358     Delta-E=       -0.399408741052 Rises=F Damp=T
 DIIS: error= 2.00D-01 at cycle   2 NSaved=   2.
 NSaved= 2 IEnMin= 2 EnMin= -5405.12500133358     IErMin= 2 ErrMin= 2.00D-01
 ErrMax= 2.00D-01  0.00D+00 EMaxC= 1.00D-01 BMatC= 8.56D+00 BMatP= 1.84D+01
 IDIUse=3 WtCom= 0.00D+00 WtEn= 1.00D+00
 Coeff-Com: -0.178D+01 0.278D+01
 Coeff-En:   0.000D+00 0.100D+01
 Coeff:      0.000D+00 0.100D+01
 Gap=     0.323 Goal=   None    Shift=    0.000
 Gap=    -0.007 Goal=   None    Shift=    0.000
 RMSDP=2.42D-03 MaxDP=2.11D-01 DE=-3.99D-01 OVMax= 6.86D-01

 Cycle   3  Pass 1  IDiag  1:
 RMSU=  1.18D-03    CP:  9.78D-01  3.00D+00
 E= -5405.82142568825     Delta-E=       -0.696424354670 Rises=F Damp=F
 DIIS: error= 1.24D-02 at cycle   3 NSaved=   3.
 NSaved= 3 IEnMin= 3 EnMin= -5405.82142568825     IErMin= 3 ErrMin= 1.24D-02
 ErrMax= 1.24D-02  0.00D+00 EMaxC= 1.00D-01 BMatC= 1.03D+00 BMatP= 8.56D+00
 IDIUse=3 WtCom= 8.76D-01 WtEn= 1.24D-01
 Coeff-Com:  0.538D+00-0.539D+00 0.100D+01
 Coeff-En:   0.000D+00 0.000D+00 0.100D+01
 Coeff:      0.471D+00-0.472D+00 0.100D+01
 Gap=     0.519 Goal=   None    Shift=    0.000
 Gap=     0.161 Goal=   None    Shift=    0.000
 RMSDP=1.03D-03 MaxDP=8.36D-02 DE=-6.96D-01 OVMax= 1.80D-01

 Cycle   4  Pass 1  IDiag  1:
 RMSU=  8.83D-04    CP:  9.78D-01  2.77D+00  7.09D-01
 E= -5405.92939379723     Delta-E=       -0.107968108980 Rises=F Damp=F
 DIIS: error= 5.86D-03 at cycle   4 NSaved=   4.
 NSaved= 4 IEnMin= 4 EnMin= -5405.92939379723     IErMin= 4 ErrMin= 5.86D-03
 ErrMax= 5.86D-03  0.00D+00 EMaxC= 1.00D-01 BMatC= 3.24D-01 BMatP= 1.03D+00
 IDIUse=3 WtCom= 9.41D-01 WtEn= 5.86D-02
 Coeff-Com:  0.476D+00-0.605D+00 0.555D+00 0.574D+00
 Coeff-En:   0.000D+00 0.000D+00 0.147D+00 0.853D+00
 Coeff:      0.448D+00-0.570D+00 0.532D+00 0.591D+00
 Gap=     0.363 Goal=   None    Shift=    0.000
 Gap=     0.090 Goal=   None    Shift=    0.000
 RMSDP=5.22D-04 MaxDP=7.83D-02 DE=-1.08D-01 OVMax= 2.31D-01

 Cycle   5  Pass 1  IDiag  1:
 RMSU=  3.03D-04    CP:  9.76D-01  2.80D+00  9.51D-01  6.48D-01
 E= -5405.98703705803     Delta-E=       -0.057643260798 Rises=F Damp=F
 DIIS: error= 1.94D-03 at cycle   5 NSaved=   5.
 NSaved= 5 IEnMin= 5 EnMin= -5405.98703705803     IErMin= 5 ErrMin= 1.94D-03
 ErrMax= 1.94D-03  0.00D+00 EMaxC= 1.00D-01 BMatC= 2.84D-02 BMatP= 3.24D-01
 IDIUse=3 WtCom= 9.81D-01 WtEn= 1.94D-02
 Coeff-Com:  0.222D+00-0.291D+00 0.235D+00 0.312D+00 0.522D+00
 Coeff-En:   0.000D+00 0.000D+00 0.000D+00 0.000D+00 0.100D+01
 Coeff:      0.218D+00-0.285D+00 0.231D+00 0.306D+00 0.531D+00
 Gap=     0.361 Goal=   None    Shift=    0.000
 Gap=     0.109 Goal=   None    Shift=    0.000
 RMSDP=1.33D-04 MaxDP=1.84D-02 DE=-5.76D-02 OVMax= 3.11D-02

 Cycle   6  Pass 1  IDiag  1:
 RMSU=  1.15D-04    CP:  9.76D-01  2.80D+00  9.54D-01  6.83D-01  8.06D-01
 E= -5405.99224887650     Delta-E=       -0.005211818467 Rises=F Damp=F
 DIIS: error= 6.34D-04 at cycle   6 NSaved=   6.
 NSaved= 6 IEnMin= 6 EnMin= -5405.99224887650     IErMin= 6 ErrMin= 6.34D-04
 ErrMax= 6.34D-04  0.00D+00 EMaxC= 1.00D-01 BMatC= 1.97D-03 BMatP= 2.84D-02
 IDIUse=3 WtCom= 9.94D-01 WtEn= 6.34D-03
 Coeff-Com:  0.410D-01-0.557D-01 0.387D-01 0.639D-01 0.231D+00 0.681D+00
 Coeff-En:   0.000D+00 0.000D+00 0.000D+00 0.000D+00 0.000D+00 0.100D+01
 Coeff:      0.408D-01-0.553D-01 0.385D-01 0.635D-01 0.229D+00 0.683D+00
 Gap=     0.355 Goal=   None    Shift=    0.000
 Gap=     0.105 Goal=   None    Shift=    0.000
 RMSDP=6.10D-05 MaxDP=6.31D-03 DE=-5.21D-03 OVMax= 3.10D-02

 Cycle   7  Pass 1  IDiag  1:
 RMSU=  4.46D-05    CP:  9.76D-01  2.80D+00  9.69D-01  6.79D-01  9.26D-01
                    CP:  1.07D+00
 E= -5405.99293256849     Delta-E=       -0.000683691991 Rises=F Damp=F
 DIIS: error= 3.22D-04 at cycle   7 NSaved=   7.
 NSaved= 7 IEnMin= 7 EnMin= -5405.99293256849     IErMin= 7 ErrMin= 3.22D-04
 ErrMax= 3.22D-04  0.00D+00 EMaxC= 1.00D-01 BMatC= 5.43D-04 BMatP= 1.97D-03
 IDIUse=3 WtCom= 9.97D-01 WtEn= 3.22D-03
 Coeff-Com: -0.212D-01 0.274D-01-0.176D-01-0.899D-02 0.397D-01 0.360D+00
 Coeff-Com:  0.621D+00
 Coeff-En:   0.000D+00 0.000D+00 0.000D+00 0.000D+00 0.000D+00 0.000D+00
 Coeff-En:   0.100D+01
 Coeff:     -0.211D-01 0.273D-01-0.175D-01-0.896D-02 0.396D-01 0.359D+00
 Coeff:      0.622D+00
 Gap=     0.354 Goal=   None    Shift=    0.000
 Gap=     0.106 Goal=   None    Shift=    0.000
 RMSDP=3.95D-05 MaxDP=3.76D-03 DE=-6.84D-04 OVMax= 2.35D-02

 Cycle   8  Pass 1  IDiag  1:
 RMSU=  2.10D-05    CP:  9.76D-01  2.79D+00  9.77D-01  6.77D-01  9.78D-01
                    CP:  1.29D+00  1.23D+00
 E= -5405.99323359957     Delta-E=       -0.000301031083 Rises=F Damp=F
 DIIS: error= 2.50D-04 at cycle   8 NSaved=   8.
 NSaved= 8 IEnMin= 8 EnMin= -5405.99323359957     IErMin= 8 ErrMin= 2.50D-04
 ErrMax= 2.50D-04  0.00D+00 EMaxC= 1.00D-01 BMatC= 1.65D-04 BMatP= 5.43D-04
 IDIUse=3 WtCom= 9.98D-01 WtEn= 2.50D-03
 Coeff-Com: -0.273D-01 0.366D-01-0.188D-01-0.580D-02-0.327D-01-0.234D-01
 Coeff-Com:  0.127D+00 0.944D+00
 Coeff-En:   0.000D+00 0.000D+00 0.000D+00 0.000D+00 0.000D+00 0.000D+00
 Coeff-En:   0.000D+00 0.100D+01
 Coeff:     -0.273D-01 0.365D-01-0.188D-01-0.578D-02-0.326D-01-0.233D-01
 Coeff:      0.127D+00 0.944D+00
 Gap=     0.353 Goal=   None    Shift=    0.000
 Gap=     0.107 Goal=   None    Shift=    0.000
 RMSDP=4.10D-05 MaxDP=4.00D-03 DE=-3.01D-04 OVMax= 2.67D-02

 Cycle   9  Pass 1  IDiag  1:
 RMSU=  1.21D-05    CP:  9.76D-01  2.79D+00  9.83D-01  6.72D-01  1.03D+00
                    CP:  1.49D+00  1.72D+00  1.64D+00
 E= -5405.99344353713     Delta-E=       -0.000209937560 Rises=F Damp=F
 DIIS: error= 1.89D-04 at cycle   9 NSaved=   9.
 NSaved= 9 IEnMin= 9 EnMin= -5405.99344353713     IErMin= 9 ErrMin= 1.89D-04
 ErrMax= 1.89D-04  0.00D+00 EMaxC= 1.00D-01 BMatC= 1.00D-04 BMatP= 1.65D-04
 IDIUse=3 WtCom= 9.98D-01 WtEn= 1.89D-03
 Coeff-Com: -0.167D-01 0.224D-01-0.946D-02 0.363D-02-0.342D-01-0.109D+00
 Coeff-Com: -0.143D+00 0.526D+00 0.760D+00
 Coeff-En:   0.000D+00 0.000D+00 0.000D+00 0.000D+00 0.000D+00 0.000D+00
 Coeff-En:   0.000D+00 0.000D+00 0.100D+01
 Coeff:     -0.166D-01 0.224D-01-0.945D-02 0.363D-02-0.341D-01-0.109D+00
 Coeff:     -0.143D+00 0.525D+00 0.761D+00
 Gap=     0.351 Goal=   None    Shift=    0.000
 Gap=     0.108 Goal=   None    Shift=    0.000
 RMSDP=3.34D-05 MaxDP=3.24D-03 DE=-2.10D-04 OVMax= 2.07D-02

 Cycle  10  Pass 1  IDiag  1:
 RMSU=  7.02D-06    CP:  9.76D-01  2.78D+00  9.87D-01  6.70D-01  1.07D+00
                    CP:  1.64D+00  2.11D+00  2.33D+00  1.73D+00
 E= -5405.99357634386     Delta-E=       -0.000132806732 Rises=F Damp=F
 DIIS: error= 1.45D-04 at cycle  10 NSaved=  10.
 NSaved=10 IEnMin=10 EnMin= -5405.99357634386     IErMin=10 ErrMin= 1.45D-04
 ErrMax= 1.45D-04  0.00D+00 EMaxC= 1.00D-01 BMatC= 5.00D-05 BMatP= 1.00D-04
 IDIUse=3 WtCom= 9.99D-01 WtEn= 1.45D-03
 Coeff-Com: -0.331D-02 0.435D-02-0.917D-03 0.547D-02 0.293D-02 0.311D-01
 Coeff-Com: -0.703D-01-0.211D+00-0.204D+00 0.145D+01
 Coeff-En:   0.000D+00 0.000D+00 0.000D+00 0.000D+00 0.000D+00 0.000D+00
 Coeff-En:   0.000D+00 0.000D+00 0.000D+00 0.100D+01
 Coeff:     -0.330D-02 0.434D-02-0.915D-03 0.546D-02 0.292D-02 0.311D-01
 Coeff:     -0.702D-01-0.210D+00-0.204D+00 0.144D+01
 Gap=     0.348 Goal=   None    Shift=    0.000
 Gap=     0.109 Goal=   None    Shift=    0.000
 RMSDP=4.00D-05 MaxDP=4.54D-03 DE=-1.33D-04 OVMax= 2.43D-02

 Cycle  11  Pass 1  IDiag  1:
 RMSU=  6.47D-06    CP:  9.76D-01  2.78D+00  9.92D-01  6.65D-01  1.11D+00
                    CP:  1.78D+00  2.53D+00  3.00D+00  3.00D+00  2.50D+00
 E= -5405.99369698819     Delta-E=       -0.000120644327 Rises=F Damp=F
 DIIS: error= 1.45D-04 at cycle  11 NSaved=  11.
 NSaved=11 IEnMin=11 EnMin= -5405.99369698819     IErMin=10 ErrMin= 1.45D-04
 ErrMax= 1.45D-04  0.00D+00 EMaxC= 1.00D-01 BMatC= 2.29D-05 BMatP= 5.00D-05
 IDIUse=3 WtCom= 9.99D-01 WtEn= 1.45D-03
 Coeff-Com: -0.176D-02 0.227D-02-0.146D-02-0.142D-02 0.126D-01 0.971D-01
 Coeff-Com:  0.101D+00-0.171D+00-0.742D+00 0.447D+00 0.126D+01
 Coeff-En:   0.000D+00 0.000D+00 0.000D+00 0.000D+00 0.000D+00 0.000D+00
 Coeff-En:   0.000D+00 0.000D+00 0.000D+00 0.000D+00 0.100D+01
 Coeff:     -0.176D-02 0.226D-02-0.145D-02-0.142D-02 0.126D-01 0.970D-01
 Coeff:      0.101D+00-0.171D+00-0.741D+00 0.446D+00 0.126D+01
 Gap=     0.347 Goal=   None    Shift=    0.000
 Gap=     0.110 Goal=   None    Shift=    0.000
 RMSDP=3.38D-05 MaxDP=4.32D-03 DE=-1.21D-04 OVMax= 1.87D-02

 Cycle  12  Pass 1  IDiag  1:
 RMSU=  1.87D-05    CP:  9.76D-01  2.77D+00  9.95D-01  6.60D-01  1.15D+00
                    CP:  1.87D+00  2.83D+00  3.00D+00  3.00D+00  3.00D+00
                    CP:  3.00D+00
 E= -5405.99377424524     Delta-E=       -0.000077257046 Rises=F Damp=F
 DIIS: error= 1.42D-04 at cycle  12 NSaved=  12.
 NSaved=12 IEnMin=12 EnMin= -5405.99377424524     IErMin=12 ErrMin= 1.42D-04
 ErrMax= 1.42D-04  0.00D+00 EMaxC= 1.00D-01 BMatC= 1.13D-05 BMatP= 2.29D-05
 IDIUse=3 WtCom= 9.99D-01 WtEn= 1.42D-03
 Coeff-Com: -0.336D-02 0.449D-02-0.280D-02-0.353D-02-0.728D-03 0.241D-01
 Coeff-Com:  0.975D-01 0.145D+00-0.375D+00-0.690D+00 0.536D+00 0.127D+01
 Coeff-En:   0.000D+00 0.000D+00 0.000D+00 0.000D+00 0.000D+00 0.000D+00
 Coeff-En:   0.000D+00 0.000D+00 0.000D+00 0.000D+00 0.000D+00 0.100D+01
 Coeff:     -0.335D-02 0.448D-02-0.280D-02-0.352D-02-0.727D-03 0.240D-01
 Coeff:      0.974D-01 0.145D+00-0.374D+00-0.689D+00 0.535D+00 0.127D+01
 Gap=     0.346 Goal=   None    Shift=    0.000
 Gap=     0.110 Goal=   None    Shift=    0.000
 RMSDP=3.86D-05 MaxDP=4.99D-03 DE=-7.73D-05 OVMax= 2.00D-02

 Cycle  13  Pass 1  IDiag  1:
 RMSU=  1.83D-05    CP:  9.76D-01  2.77D+00  9.97D-01  6.53D-01  1.18D+00
                    CP:  1.97D+00  3.00D+00  3.00D+00  3.00D+00  3.00D+00
                    CP:  3.00D+00  2.43D+00
 E= -5405.99383551819     Delta-E=       -0.000061272958 Rises=F Damp=F
 DIIS: error= 1.35D-04 at cycle  13 NSaved=  13.
 NSaved=13 IEnMin=13 EnMin= -5405.99383551819     IErMin=13 ErrMin= 1.35D-04
 ErrMax= 1.35D-04  0.00D+00 EMaxC= 1.00D-01 BMatC= 4.14D-06 BMatP= 1.13D-05
 IDIUse=3 WtCom= 9.99D-01 WtEn= 1.35D-03
 Coeff-Com: -0.233D-02 0.312D-02-0.166D-02-0.959D-03-0.455D-02-0.163D-01
 Coeff-Com:  0.199D-01 0.135D+00 0.233D-02-0.456D+00-0.128D+00 0.592D+00
 Coeff-Com:  0.857D+00
 Coeff-En:   0.000D+00 0.000D+00 0.000D+00 0.000D+00 0.000D+00 0.000D+00
 Coeff-En:   0.000D+00 0.000D+00 0.000D+00 0.000D+00 0.000D+00 0.000D+00
 Coeff-En:   0.100D+01
 Coeff:     -0.232D-02 0.311D-02-0.166D-02-0.957D-03-0.454D-02-0.163D-01
 Coeff:      0.199D-01 0.135D+00 0.233D-02-0.456D+00-0.128D+00 0.591D+00
 Coeff:      0.858D+00
 Gap=     0.345 Goal=   None    Shift=    0.000
 Gap=     0.110 Goal=   None    Shift=    0.000
 RMSDP=1.95D-05 MaxDP=2.88D-03 DE=-6.13D-05 OVMax= 9.01D-03

 Cycle  14  Pass 1  IDiag  1:
 RMSU=  5.03D-06    CP:  9.76D-01  2.77D+00  9.98D-01  6.50D-01  1.19D+00
                    CP:  2.01D+00  3.00D+00  3.00D+00  3.00D+00  3.00D+00
                    CP:  3.00D+00  3.00D+00  1.63D+00
 E= -5405.99385863036     Delta-E=       -0.000023112167 Rises=F Damp=F
 DIIS: error= 1.32D-04 at cycle  14 NSaved=  14.
 NSaved=14 IEnMin=14 EnMin= -5405.99385863036     IErMin=14 ErrMin= 1.32D-04
 ErrMax= 1.32D-04  0.00D+00 EMaxC= 1.00D-01 BMatC= 2.43D-06 BMatP= 4.14D-06
 IDIUse=3 WtCom= 9.99D-01 WtEn= 1.32D-03
 Coeff-Com: -0.491D-03 0.651D-03-0.197D-03 0.865D-03-0.161D-02-0.958D-02
 Coeff-Com: -0.262D-01-0.169D-02 0.112D+00 0.133D+00-0.234D+00-0.321D+00
 Coeff-Com:  0.289D+00 0.106D+01
 Coeff-En:   0.000D+00 0.000D+00 0.000D+00 0.000D+00 0.000D+00 0.000D+00
 Coeff-En:   0.000D+00 0.000D+00 0.000D+00 0.000D+00 0.000D+00 0.000D+00
 Coeff-En:   0.000D+00 0.100D+01
 Coeff:     -0.490D-03 0.650D-03-0.197D-03 0.864D-03-0.161D-02-0.956D-02
 Coeff:     -0.262D-01-0.168D-02 0.112D+00 0.133D+00-0.233D+00-0.320D+00
 Coeff:      0.288D+00 0.106D+01
 Gap=     0.344 Goal=   None    Shift=    0.000
 Gap=     0.110 Goal=   None    Shift=    0.000
 RMSDP=1.34D-05 MaxDP=2.64D-03 DE=-2.31D-05 OVMax= 6.92D-03

 Cycle  15  Pass 1  IDiag  1:
 RMSU=  5.90D-06    CP:  9.76D-01  2.77D+00  9.98D-01  6.49D-01  1.20D+00
                    CP:  2.02D+00  3.00D+00  3.00D+00  3.00D+00  3.00D+00
                    CP:  3.00D+00  3.00D+00  2.08D+00  2.64D+00
 E= -5405.99387492948     Delta-E=       -0.000016299122 Rises=F Damp=F
 DIIS: error= 1.28D-04 at cycle  15 NSaved=  15.
 NSaved=15 IEnMin=15 EnMin= -5405.99387492948     IErMin=15 ErrMin= 1.28D-04
 ErrMax= 1.28D-04  0.00D+00 EMaxC= 1.00D-01 BMatC= 2.17D-06 BMatP= 2.43D-06
 IDIUse=3 WtCom= 9.99D-01 WtEn= 1.28D-03
 Coeff-Com:  0.151D-03-0.209D-03 0.275D-03 0.998D-03 0.111D-02 0.615D-02
 Coeff-Com: -0.199D-01-0.455D-01 0.112D-01 0.269D+00-0.564D-01-0.397D+00
 Coeff-Com: -0.211D+00 0.461D+00 0.980D+00
 Coeff-En:   0.000D+00 0.000D+00 0.000D+00 0.000D+00 0.000D+00 0.000D+00
 Coeff-En:   0.000D+00 0.000D+00 0.000D+00 0.000D+00 0.000D+00 0.000D+00
 Coeff-En:   0.000D+00 0.000D+00 0.100D+01
 Coeff:      0.151D-03-0.209D-03 0.274D-03 0.996D-03 0.111D-02 0.614D-02
 Coeff:     -0.199D-01-0.455D-01 0.112D-01 0.269D+00-0.563D-01-0.396D+00
 Coeff:     -0.211D+00 0.460D+00 0.980D+00
 Gap=     0.344 Goal=   None    Shift=    0.000
 Gap=     0.109 Goal=   None    Shift=    0.000
 RMSDP=1.22D-05 MaxDP=2.61D-03 DE=-1.63D-05 OVMax= 6.99D-03

 Cycle  16  Pass 1  IDiag  1:
 RMSU=  6.53D-06    CP:  9.76D-01  2.77D+00  9.98D-01  6.48D-01  1.20D+00
                    CP:  2.03D+00  3.00D+00  3.00D+00  3.00D+00  3.00D+00
                    CP:  3.00D+00  3.00D+00  2.45D+00  3.00D+00  1.92D+00
 E= -5405.99388962121     Delta-E=       -0.000014691725 Rises=F Damp=F
 DIIS: error= 1.24D-04 at cycle  16 NSaved=  16.
 NSaved=16 IEnMin=16 EnMin= -5405.99388962121     IErMin=16 ErrMin= 1.24D-04
 ErrMax= 1.24D-04  0.00D+00 EMaxC= 1.00D-01 BMatC= 1.87D-06 BMatP= 2.17D-06
 IDIUse=3 WtCom= 9.99D-01 WtEn= 1.24D-03
 Coeff-Com: -0.179D-03 0.238D-03 0.123D-04 0.539D-04 0.274D-02 0.184D-01
 Coeff-Com:  0.209D-01-0.841D-02-0.195D+00 0.211D-01 0.262D+00 0.171D+00
 Coeff-Com: -0.378D+00-0.105D+01 0.361D+00 0.177D+01
 Coeff-En:   0.000D+00 0.000D+00 0.000D+00 0.000D+00 0.000D+00 0.000D+00
 Coeff-En:   0.000D+00 0.000D+00 0.000D+00 0.000D+00 0.000D+00 0.000D+00
 Coeff-En:   0.000D+00 0.000D+00 0.000D+00 0.100D+01
 Coeff:     -0.179D-03 0.237D-03 0.123D-04 0.539D-04 0.273D-02 0.184D-01
 Coeff:      0.209D-01-0.840D-02-0.194D+00 0.210D-01 0.262D+00 0.171D+00
 Coeff:     -0.378D+00-0.105D+01 0.360D+00 0.177D+01
 Gap=     0.344 Goal=   None    Shift=    0.000
 Gap=     0.109 Goal=   None    Shift=    0.000
 RMSDP=2.42D-05 MaxDP=5.35D-03 DE=-1.47D-05 OVMax= 1.48D-02

 Cycle  17  Pass 1  IDiag  1:
 RMSU=  6.95D-06    CP:  9.76D-01  2.77D+00  9.97D-01  6.47D-01  1.21D+00
                    CP:  2.05D+00  3.00D+00  3.00D+00  3.00D+00  3.00D+00
                    CP:  3.00D+00  3.00D+00  3.00D+00  3.00D+00  3.00D+00
                    CP:  3.00D+00
 E= -5405.99391747390     Delta-E=       -0.000027852693 Rises=F Damp=F
 DIIS: error= 1.14D-04 at cycle  17 NSaved=  17.
 NSaved=17 IEnMin=17 EnMin= -5405.99391747390     IErMin=17 ErrMin= 1.14D-04
 ErrMax= 1.14D-04  0.00D+00 EMaxC= 1.00D-01 BMatC= 1.41D-06 BMatP= 1.87D-06
 IDIUse=3 WtCom= 9.99D-01 WtEn= 1.14D-03
 Coeff-Com: -0.334D-03 0.449D-03-0.176D-03-0.351D-03 0.198D-02 0.542D-02
 Coeff-Com:  0.363D-01 0.328D-01-0.138D+00-0.235D+00 0.237D+00 0.464D+00
 Coeff-Com:  0.873D-01-0.112D+01-0.894D+00 0.667D+00 0.186D+01
 Coeff-En:   0.000D+00 0.000D+00 0.000D+00 0.000D+00 0.000D+00 0.000D+00
 Coeff-En:   0.000D+00 0.000D+00 0.000D+00 0.000D+00 0.000D+00 0.000D+00
 Coeff-En:   0.000D+00 0.000D+00 0.000D+00 0.000D+00 0.100D+01
 Coeff:     -0.334D-03 0.449D-03-0.176D-03-0.350D-03 0.198D-02 0.542D-02
 Coeff:      0.362D-01 0.327D-01-0.137D+00-0.235D+00 0.237D+00 0.463D+00
 Coeff:      0.872D-01-0.112D+01-0.893D+00 0.666D+00 0.186D+01
 Gap=     0.343 Goal=   None    Shift=    0.000
 Gap=     0.109 Goal=   None    Shift=    0.000
 RMSDP=4.02D-05 MaxDP=8.88D-03 DE=-2.79D-05 OVMax= 2.56D-02

 Cycle  18  Pass 1  IDiag  1:
 RMSU=  2.70D-05    CP:  9.76D-01  2.76D+00  9.95D-01  6.46D-01  1.21D+00
                    CP:  2.06D+00  3.00D+00  3.00D+00  3.00D+00  3.00D+00
                    CP:  3.00D+00  3.00D+00  3.00D+00  3.00D+00  3.00D+00
                    CP:  3.00D+00  3.00D+00
 E= -5405.99395755817     Delta-E=       -0.000040084265 Rises=F Damp=F
 DIIS: error= 9.68D-05 at cycle  18 NSaved=  18.
 NSaved=18 IEnMin=18 EnMin= -5405.99395755817     IErMin=18 ErrMin= 9.68D-05
 ErrMax= 9.68D-05  0.00D+00 EMaxC= 1.00D-01 BMatC= 1.02D-06 BMatP= 1.41D-06
 IDIUse=1 WtCom= 1.00D+00 WtEn= 0.00D+00
 Coeff-Com:  0.659D-03-0.877D-03 0.448D-03 0.289D-03 0.309D-03-0.106D-01
 Coeff-Com:  0.458D-02 0.891D-02 0.858D-01-0.130D+00-0.849D-01 0.972D-01
 Coeff-Com:  0.404D+00 0.153D+00-0.731D+00-0.127D+01 0.103D+01 0.145D+01
 Coeff:      0.659D-03-0.877D-03 0.448D-03 0.289D-03 0.309D-03-0.106D-01
 Coeff:      0.458D-02 0.891D-02 0.858D-01-0.130D+00-0.849D-01 0.972D-01
 Coeff:      0.404D+00 0.153D+00-0.731D+00-0.127D+01 0.103D+01 0.145D+01
 Gap=     0.342 Goal=   None    Shift=    0.000
 Gap=     0.109 Goal=   None    Shift=    0.000
 RMSDP=4.95D-05 MaxDP=1.08D-02 DE=-4.01D-05 OVMax= 3.22D-02

 Cycle  19  Pass 1  IDiag  1:
 RMSU=  8.19D-06    CP:  9.76D-01  2.76D+00  9.91D-01  6.44D-01  1.22D+00
                    CP:  2.08D+00  3.00D+00  3.00D+00  3.00D+00  3.00D+00
                    CP:  3.00D+00  3.00D+00  3.00D+00  3.00D+00  3.00D+00
                    CP:  3.00D+00  3.00D+00  2.80D+00
 E= -5405.99399523866     Delta-E=       -0.000037680495 Rises=F Damp=F
 DIIS: error= 7.43D-05 at cycle  19 NSaved=  19.
 NSaved=19 IEnMin=19 EnMin= -5405.99399523866     IErMin=19 ErrMin= 7.43D-05
 ErrMax= 7.43D-05  0.00D+00 EMaxC= 1.00D-01 BMatC= 7.18D-07 BMatP= 1.02D-06
 IDIUse=1 WtCom= 1.00D+00 WtEn= 0.00D+00
 Coeff-Com:  0.101D-02-0.134D-02 0.775D-03 0.598D-03 0.125D-02 0.145D-02
 Coeff-Com: -0.349D-02-0.160D-01 0.371D-01 0.260D-01-0.761D-01-0.396D-01
 Coeff-Com:  0.108D+00 0.165D+00-0.114D-01-0.454D+00-0.218D+00 0.524D+00
 Coeff-Com:  0.955D+00
 Coeff:      0.101D-02-0.134D-02 0.775D-03 0.598D-03 0.125D-02 0.145D-02
 Coeff:     -0.349D-02-0.160D-01 0.371D-01 0.260D-01-0.761D-01-0.396D-01
 Coeff:      0.108D+00 0.165D+00-0.114D-01-0.454D+00-0.218D+00 0.524D+00
 Coeff:      0.955D+00
 Gap=     0.342 Goal=   None    Shift=    0.000
 Gap=     0.109 Goal=   None    Shift=    0.000
 RMSDP=2.15D-05 MaxDP=4.57D-03 DE=-3.77D-05 OVMax= 1.41D-02

 Cycle  20  Pass 1  IDiag  1:
 RMSU=  1.53D-05    CP:  9.76D-01  2.76D+00  9.88D-01  6.43D-01  1.22D+00
                    CP:  2.09D+00  3.00D+00  3.00D+00  3.00D+00  3.00D+00
                    CP:  3.00D+00  3.00D+00  3.00D+00  3.00D+00  3.00D+00
                    CP:  3.00D+00  3.00D+00  3.00D+00  1.51D+00
 E= -5405.99400795063     Delta-E=       -0.000012711967 Rises=F Damp=F
 DIIS: error= 6.30D-05 at cycle  20 NSaved=  20.
 NSaved=20 IEnMin=20 EnMin= -5405.99400795063     IErMin=20 ErrMin= 6.30D-05
 ErrMax= 6.30D-05  0.00D+00 EMaxC= 1.00D-01 BMatC= 5.08D-07 BMatP= 7.18D-07
 IDIUse=1 WtCom= 1.00D+00 WtEn= 0.00D+00
 Coeff-Com:  0.798D-03-0.106D-02 0.658D-03 0.280D-03 0.200D-02 0.123D-01
 Coeff-Com:  0.102D-02-0.266D-01-0.547D-01 0.694D-01 0.552D-01-0.737D-02
 Coeff-Com: -0.216D+00-0.181D+00 0.340D+00 0.727D+00-0.539D+00-0.843D+00
 Coeff-Com: -0.469D-01 0.171D+01
 Coeff:      0.798D-03-0.106D-02 0.658D-03 0.280D-03 0.200D-02 0.123D-01
 Coeff:      0.102D-02-0.266D-01-0.547D-01 0.694D-01 0.552D-01-0.737D-02
 Coeff:     -0.216D+00-0.181D+00 0.340D+00 0.727D+00-0.539D+00-0.843D+00
 Coeff:     -0.469D-01 0.171D+01
 Gap=     0.342 Goal=   None    Shift=    0.000
 Gap=     0.109 Goal=   None    Shift=    0.000
 RMSDP=2.99D-05 MaxDP=6.25D-03 DE=-1.27D-05 OVMax= 1.98D-02

 Cycle  21  Pass 1  IDiag  1:
 Restarting incremental Fock formation.
 E= -5405.99402194390     Delta-E=       -0.000013993274 Rises=F Damp=F
 DIIS: error= 4.60D-05 at cycle  21 NSaved=  20.
 NSaved=20 IEnMin=20 EnMin= -5405.99402194390     IErMin=20 ErrMin= 4.60D-05
 ErrMax= 4.60D-05  0.00D+00 EMaxC= 1.00D-01 BMatC= 3.40D-07 BMatP= 5.08D-07
 IDIUse=1 WtCom= 1.00D+00 WtEn= 0.00D+00
 Coeff-Com:  0.418D-05-0.101D-03-0.742D-03-0.126D-02-0.532D-02 0.335D-02
 Coeff-Com:  0.212D-01 0.283D-01-0.155D+00 0.236D-01 0.208D+00 0.243D-03
 Coeff-Com: -0.274D+00-0.613D-01 0.267D+00 0.107D+00-0.431D+00-0.715D+00
 Coeff-Com:  0.469D+00 0.152D+01
 Coeff:      0.418D-05-0.101D-03-0.742D-03-0.126D-02-0.532D-02 0.335D-02
 Coeff:      0.212D-01 0.283D-01-0.155D+00 0.236D-01 0.208D+00 0.243D-03
 Coeff:     -0.274D+00-0.613D-01 0.267D+00 0.107D+00-0.431D+00-0.715D+00
 Coeff:      0.469D+00 0.152D+01
 Gap=     0.341 Goal=   None    Shift=    0.000
 Gap=     0.109 Goal=   None    Shift=    0.000
 RMSDP=4.50D-05 MaxDP=9.19D-03 DE=-1.40D-05 OVMax= 2.97D-02

 Cycle  22  Pass 1  IDiag  1:
 RMSU=  4.50D-05    CP:  1.00D+00
 E= -5405.99403382644     Delta-E=       -0.000011882541 Rises=F Damp=F
 DIIS: error= 2.24D-05 at cycle  22 NSaved=  20.
 NSaved=20 IEnMin=20 EnMin= -5405.99403382644     IErMin=20 ErrMin= 2.24D-05
 ErrMax= 2.24D-05  0.00D+00 EMaxC= 1.00D-01 BMatC= 2.08D-07 BMatP= 3.40D-07
 IDIUse=1 WtCom= 1.00D+00 WtEn= 0.00D+00
 Coeff-Com: -0.303D-05-0.416D-03 0.182D-03 0.359D-03 0.107D-01 0.171D-01
 Coeff-Com: -0.279D-01-0.151D+00 0.952D-01 0.250D+00-0.216D-01-0.536D+00
 Coeff-Com: -0.184D+00 0.443D+00 0.514D+00-0.176D+00-0.661D+00-0.299D+00
 Coeff-Com:  0.757D+00 0.969D+00
 Coeff:     -0.303D-05-0.416D-03 0.182D-03 0.359D-03 0.107D-01 0.171D-01
 Coeff:     -0.279D-01-0.151D+00 0.952D-01 0.250D+00-0.216D-01-0.536D+00
 Coeff:     -0.184D+00 0.443D+00 0.514D+00-0.176D+00-0.661D+00-0.299D+00
 Coeff:      0.757D+00 0.969D+00
 Gap=     0.341 Goal=   None    Shift=    0.000
 Gap=     0.109 Goal=   None    Shift=    0.000
 RMSDP=1.17D-05 MaxDP=2.25D-03 DE=-1.19D-05 OVMax= 7.91D-03

 Cycle  23  Pass 1  IDiag  1:
 RMSU=  2.88D-06    CP:  1.00D+00  1.25D+00
 E= -5405.99403573661     Delta-E=       -0.000001910164 Rises=F Damp=F
 DIIS: error= 1.32D-05 at cycle  23 NSaved=  20.
 NSaved=20 IEnMin=20 EnMin= -5405.99403573661     IErMin=20 ErrMin= 1.32D-05
 ErrMax= 1.32D-05  0.00D+00 EMaxC= 1.00D-01 BMatC= 2.05D-07 BMatP= 2.08D-07
 IDIUse=1 WtCom= 1.00D+00 WtEn= 0.00D+00
 Coeff-Com: -0.661D-04 0.199D-03-0.251D-02 0.320D-02 0.342D-02 0.315D-01
 Coeff-Com: -0.664D-01 0.737D-02 0.608D-01 0.928D-01-0.921D-01-0.218D+00
 Coeff-Com: -0.308D+00 0.585D+00 0.599D+00-0.554D-01-0.122D+01-0.112D+00
 Coeff-Com:  0.907D+00 0.788D+00
 Coeff:     -0.661D-04 0.199D-03-0.251D-02 0.320D-02 0.342D-02 0.315D-01
 Coeff:     -0.664D-01 0.737D-02 0.608D-01 0.928D-01-0.921D-01-0.218D+00
 Coeff:     -0.308D+00 0.585D+00 0.599D+00-0.554D-01-0.122D+01-0.112D+00
 Coeff:      0.907D+00 0.788D+00
 Gap=     0.341 Goal=   None    Shift=    0.000
 Gap=     0.108 Goal=   None    Shift=    0.000
 RMSDP=6.98D-06 MaxDP=1.25D-03 DE=-1.91D-06 OVMax= 4.62D-03

 Cycle  24  Pass 1  IDiag  1:
 RMSU=  1.32D-06    CP:  1.00D+00  1.39D+00  2.03D+00
 E= -5405.99403652772     Delta-E=       -0.000000791115 Rises=F Damp=F
 DIIS: error= 1.09D-05 at cycle  24 NSaved=  20.
 NSaved=20 IEnMin=20 EnMin= -5405.99403652772     IErMin=20 ErrMin= 1.09D-05
 ErrMax= 1.09D-05  0.00D+00 EMaxC= 1.00D-01 BMatC= 1.44D-07 BMatP= 2.05D-07
 IDIUse=1 WtCom= 1.00D+00 WtEn= 0.00D+00
 Coeff-Com: -0.316D-03-0.232D-02-0.457D-02-0.468D-02 0.526D-01 0.802D-02
 Coeff-Com: -0.627D-01-0.608D-01 0.560D-01 0.242D+00-0.422D-01-0.399D+00
 Coeff-Com: -0.281D-01 0.513D+00 0.496D+00-0.880D+00-0.401D+00 0.696D+00
 Coeff-Com: -0.251D+00 0.107D+01
 Coeff:     -0.316D-03-0.232D-02-0.457D-02-0.468D-02 0.526D-01 0.802D-02
 Coeff:     -0.627D-01-0.608D-01 0.560D-01 0.242D+00-0.422D-01-0.399D+00
 Coeff:     -0.281D-01 0.513D+00 0.496D+00-0.880D+00-0.401D+00 0.696D+00
 Coeff:     -0.251D+00 0.107D+01
 Gap=     0.341 Goal=   None    Shift=    0.000
 Gap=     0.109 Goal=   None    Shift=    0.000
 RMSDP=7.05D-06 MaxDP=1.41D-03 DE=-7.91D-07 OVMax= 4.68D-03

 Cycle  25  Pass 1  IDiag  1:
 RMSU=  7.43D-07    CP:  1.00D+00  1.55D+00  2.23D+00  1.25D+00
 E= -5405.99403688078     Delta-E=       -0.000000353053 Rises=F Damp=F
 DIIS: error= 3.28D-06 at cycle  25 NSaved=  20.
 NSaved=20 IEnMin=20 EnMin= -5405.99403688078     IErMin=20 ErrMin= 3.28D-06
 ErrMax= 3.28D-06  0.00D+00 EMaxC= 1.00D-01 BMatC= 1.69D-08 BMatP= 1.44D-07
 IDIUse=1 WtCom= 1.00D+00 WtEn= 0.00D+00
 Coeff-Com:  0.911D-03-0.210D-02-0.572D-02 0.670D-02 0.208D-01-0.261D-01
 Coeff-Com: -0.374D-01-0.761D-02 0.148D+00 0.732D-02-0.521D-01-0.190D+00
 Coeff-Com:  0.789D-01 0.301D+00-0.102D+00-0.273D+00 0.167D+00-0.413D+00
 Coeff-Com:  0.430D+00 0.948D+00
 Coeff:      0.911D-03-0.210D-02-0.572D-02 0.670D-02 0.208D-01-0.261D-01
 Coeff:     -0.374D-01-0.761D-02 0.148D+00 0.732D-02-0.521D-01-0.190D+00
 Coeff:      0.789D-01 0.301D+00-0.102D+00-0.273D+00 0.167D+00-0.413D+00
 Coeff:      0.430D+00 0.948D+00
 Gap=     0.341 Goal=   None    Shift=    0.000
 Gap=     0.109 Goal=   None    Shift=    0.000
 RMSDP=4.28D-06 MaxDP=8.40D-04 DE=-3.53D-07 OVMax= 2.80D-03

 Cycle  26  Pass 1  IDiag  1:
 RMSU=  2.87D-07    CP:  1.00D+00  1.64D+00  2.49D+00  1.02D+00  1.76D+00
 E= -5405.99403694620     Delta-E=       -0.000000065422 Rises=F Damp=F
 DIIS: error= 2.48D-06 at cycle  26 NSaved=  20.
 NSaved=20 IEnMin=20 EnMin= -5405.99403694620     IErMin=20 ErrMin= 2.48D-06
 ErrMax= 2.48D-06  0.00D+00 EMaxC= 1.00D-01 BMatC= 5.21D-09 BMatP= 1.69D-08
 IDIUse=1 WtCom= 1.00D+00 WtEn= 0.00D+00
 Coeff-Com:  0.622D-03 0.193D-02-0.716D-02-0.122D-02 0.105D-01 0.953D-02
 Coeff-Com: -0.116D-01-0.233D-01-0.679D-03 0.702D-01-0.475D-02-0.928D-01
 Coeff-Com: -0.741D-01 0.174D+00 0.576D-01-0.178D+00-0.541D-01-0.905D-01
 Coeff-Com:  0.154D+00 0.106D+01
 Coeff:      0.622D-03 0.193D-02-0.716D-02-0.122D-02 0.105D-01 0.953D-02
 Coeff:     -0.116D-01-0.233D-01-0.679D-03 0.702D-01-0.475D-02-0.928D-01
 Coeff:     -0.741D-01 0.174D+00 0.576D-01-0.178D+00-0.541D-01-0.905D-01
 Coeff:      0.154D+00 0.106D+01
 Gap=     0.341 Goal=   None    Shift=    0.000
 Gap=     0.109 Goal=   None    Shift=    0.000
 RMSDP=1.21D-06 MaxDP=1.36D-04 DE=-6.54D-08 OVMax= 5.23D-04

 Cycle  27  Pass 1  IDiag  1:
 RMSU=  2.16D-07    CP:  1.00D+00  1.62D+00  2.73D+00  1.49D+00  1.68D+00
                    CP:  1.13D+00
 E= -5405.99403696488     Delta-E=       -0.000000018686 Rises=F Damp=F
 DIIS: error= 1.37D-06 at cycle  27 NSaved=  20.
 NSaved=20 IEnMin=20 EnMin= -5405.99403696488     IErMin=20 ErrMin= 1.37D-06
 ErrMax= 1.37D-06  0.00D+00 EMaxC= 1.00D-01 BMatC= 2.11D-09 BMatP= 5.21D-09
 IDIUse=1 WtCom= 1.00D+00 WtEn= 0.00D+00
 Coeff-Com:  0.318D-03-0.283D-02 0.272D-02 0.526D-02 0.159D-02-0.909D-02
 Coeff-Com: -0.185D-01 0.111D-01 0.372D-01 0.304D-02-0.562D-01-0.667D-01
 Coeff-Com:  0.920D-01 0.753D-01-0.705D-01 0.102D-01-0.151D+00-0.767D-01
 Coeff-Com:  0.354D+00 0.860D+00
 Coeff:      0.318D-03-0.283D-02 0.272D-02 0.526D-02 0.159D-02-0.909D-02
 Coeff:     -0.185D-01 0.111D-01 0.372D-01 0.304D-02-0.562D-01-0.667D-01
 Coeff:      0.920D-01 0.753D-01-0.705D-01 0.102D-01-0.151D+00-0.767D-01
 Coeff:      0.354D+00 0.860D+00
 Gap=     0.341 Goal=   None    Shift=    0.000
 Gap=     0.109 Goal=   None    Shift=    0.000
 RMSDP=1.93D-07 MaxDP=2.34D-05 DE=-1.87D-08 OVMax= 9.63D-05

 Cycle  28  Pass 1  IDiag  1:
 RMSU=  3.70D-08    CP:  1.00D+00  1.62D+00  2.74D+00  1.60D+00  1.77D+00
                    CP:  1.22D+00  1.37D+00
 E= -5405.99403696726     Delta-E=       -0.000000002376 Rises=F Damp=F
 DIIS: error= 6.09D-07 at cycle  28 NSaved=  20.
 NSaved=20 IEnMin=20 EnMin= -5405.99403696726     IErMin=20 ErrMin= 6.09D-07
 ErrMax= 6.09D-07  0.00D+00 EMaxC= 1.00D-01 BMatC= 3.76D-10 BMatP= 2.11D-09
 IDIUse=1 WtCom= 1.00D+00 WtEn= 0.00D+00
 Coeff-Com:  0.284D-03-0.681D-03-0.374D-03 0.631D-03 0.149D-02-0.219D-02
 Coeff-Com: -0.188D-02-0.488D-02 0.912D-02 0.473D-02-0.136D-01-0.942D-02
 Coeff-Com:  0.191D-01 0.223D-01 0.374D-01-0.737D-01-0.766D-01-0.104D+00
 Coeff-Com:  0.287D+00 0.905D+00
 Coeff:      0.284D-03-0.681D-03-0.374D-03 0.631D-03 0.149D-02-0.219D-02
 Coeff:     -0.188D-02-0.488D-02 0.912D-02 0.473D-02-0.136D-01-0.942D-02
 Coeff:      0.191D-01 0.223D-01 0.374D-01-0.737D-01-0.766D-01-0.104D+00
 Coeff:      0.287D+00 0.905D+00
 Gap=     0.341 Goal=   None    Shift=    0.000
 Gap=     0.109 Goal=   None    Shift=    0.000
 RMSDP=1.06D-07 MaxDP=1.30D-05 DE=-2.38D-09 OVMax= 4.08D-05

 Cycle  29  Pass 1  IDiag  1:
 RMSU=  2.14D-08    CP:  1.00D+00  1.62D+00  2.73D+00  1.58D+00  1.85D+00
                    CP:  1.31D+00  1.54D+00  1.52D+00
 E= -5405.99403696767     Delta-E=       -0.000000000415 Rises=F Damp=F
 DIIS: error= 2.57D-07 at cycle  29 NSaved=  20.
 NSaved=20 IEnMin=20 EnMin= -5405.99403696767     IErMin=20 ErrMin= 2.57D-07
 ErrMax= 2.57D-07  0.00D+00 EMaxC= 1.00D-01 BMatC= 9.66D-11 BMatP= 3.76D-10
 IDIUse=1 WtCom= 1.00D+00 WtEn= 0.00D+00
 Coeff-Com: -0.574D-03 0.548D-04 0.761D-03 0.123D-02-0.197D-02-0.397D-02
 Coeff-Com: -0.384D-02 0.758D-02 0.998D-02 0.153D-02-0.199D-01-0.502D-02
 Coeff-Com:  0.201D-01 0.225D-01-0.230D-02-0.291D-01-0.111D+00-0.163D-01
 Coeff-Com:  0.398D+00 0.732D+00
 Coeff:     -0.574D-03 0.548D-04 0.761D-03 0.123D-02-0.197D-02-0.397D-02
 Coeff:     -0.384D-02 0.758D-02 0.998D-02 0.153D-02-0.199D-01-0.502D-02
 Coeff:      0.201D-01 0.225D-01-0.230D-02-0.291D-01-0.111D+00-0.163D-01
 Coeff:      0.398D+00 0.732D+00
 Gap=     0.341 Goal=   None    Shift=    0.000
 Gap=     0.109 Goal=   None    Shift=    0.000
 RMSDP=3.62D-08 MaxDP=4.61D-06 DE=-4.15D-10 OVMax= 1.46D-05

 Cycle  30  Pass 1  IDiag  1:
 RMSU=  8.95D-09    CP:  1.00D+00  1.62D+00  2.73D+00  1.59D+00  1.85D+00
                    CP:  1.32D+00  1.60D+00  1.75D+00  1.16D+00
 E= -5405.99403696786     Delta-E=       -0.000000000187 Rises=F Damp=F
 DIIS: error= 1.27D-07 at cycle  30 NSaved=  20.
 NSaved=20 IEnMin=20 EnMin= -5405.99403696786     IErMin=20 ErrMin= 1.27D-07
 ErrMax= 1.27D-07  0.00D+00 EMaxC= 1.00D-01 BMatC= 1.79D-11 BMatP= 9.66D-11
 IDIUse=1 WtCom= 1.00D+00 WtEn= 0.00D+00
 Coeff-Com: -0.105D-03 0.710D-04 0.193D-03 0.657D-03-0.109D-02-0.865D-03
 Coeff-Com: -0.127D-02 0.337D-02 0.673D-02-0.573D-02-0.919D-02 0.264D-02
 Coeff-Com: -0.355D-02 0.255D-01 0.106D-01-0.356D-01-0.805D-01-0.487D-01
 Coeff-Com:  0.251D+00 0.885D+00
 Coeff:     -0.105D-03 0.710D-04 0.193D-03 0.657D-03-0.109D-02-0.865D-03
 Coeff:     -0.127D-02 0.337D-02 0.673D-02-0.573D-02-0.919D-02 0.264D-02
 Coeff:     -0.355D-02 0.255D-01 0.106D-01-0.356D-01-0.805D-01-0.487D-01
 Coeff:      0.251D+00 0.885D+00
 Gap=     0.341 Goal=   None    Shift=    0.000
 Gap=     0.109 Goal=   None    Shift=    0.000
 RMSDP=4.24D-08 MaxDP=7.58D-06 DE=-1.87D-10 OVMax= 2.67D-05

 Cycle  31  Pass 1  IDiag  1:
 RMSU=  5.43D-09    CP:  1.00D+00  1.62D+00  2.73D+00  1.60D+00  1.85D+00
                    CP:  1.30D+00  1.64D+00  1.91D+00  1.32D+00  1.56D+00
 E= -5405.99403696797     Delta-E=       -0.000000000104 Rises=F Damp=F
 DIIS: error= 6.60D-08 at cycle  31 NSaved=  20.
 NSaved=20 IEnMin=20 EnMin= -5405.99403696797     IErMin=20 ErrMin= 6.60D-08
 ErrMax= 6.60D-08  0.00D+00 EMaxC= 1.00D-01 BMatC= 5.69D-12 BMatP= 1.79D-11
 IDIUse=1 WtCom= 1.00D+00 WtEn= 0.00D+00
 Coeff-Com: -0.104D-03-0.622D-03 0.455D-03 0.115D-02 0.242D-02-0.359D-02
 Coeff-Com: -0.422D-02-0.135D-03 0.805D-02 0.126D-02-0.730D-02-0.781D-02
 Coeff-Com:  0.922D-02 0.869D-02 0.167D-01-0.105D-01-0.109D+00-0.111D+00
 Coeff-Com:  0.221D+00 0.985D+00
 Coeff:     -0.104D-03-0.622D-03 0.455D-03 0.115D-02 0.242D-02-0.359D-02
 Coeff:     -0.422D-02-0.135D-03 0.805D-02 0.126D-02-0.730D-02-0.781D-02
 Coeff:      0.922D-02 0.869D-02 0.167D-01-0.105D-01-0.109D+00-0.111D+00
 Coeff:      0.221D+00 0.985D+00
 Gap=     0.341 Goal=   None    Shift=    0.000
 Gap=     0.109 Goal=   None    Shift=    0.000
 RMSDP=3.64D-08 MaxDP=7.14D-06 DE=-1.04D-10 OVMax= 2.18D-05

 Cycle  32  Pass 1  IDiag  1:
 RMSU=  2.84D-09    CP:  1.00D+00  1.62D+00  2.73D+00  1.60D+00  1.86D+00
                    CP:  1.30D+00  1.65D+00  2.00D+00  1.46D+00  1.80D+00
                    CP:  1.29D+00
 E= -5405.99403696782     Delta-E=        0.000000000146 Rises=F Damp=F
 DIIS: error= 8.31D-08 at cycle  32 NSaved=  20.
 NSaved=20 IEnMin=19 EnMin= -5405.99403696797     IErMin=19 ErrMin= 6.60D-08
 ErrMax= 8.31D-08  0.00D+00 EMaxC= 1.00D-01 BMatC= 3.68D-12 BMatP= 5.69D-12
 IDIUse=1 WtCom= 1.00D+00 WtEn= 0.00D+00
 Coeff-Com: -0.900D-04 0.189D-03 0.360D-03 0.289D-03-0.801D-03-0.122D-02
 Coeff-Com: -0.648D-03 0.279D-02 0.154D-02-0.343D-02-0.172D-02 0.235D-02
 Coeff-Com: -0.202D-02 0.726D-02 0.151D-01-0.188D-01-0.811D-01-0.935D-01
 Coeff-Com:  0.227D+00 0.947D+00
 Coeff:     -0.900D-04 0.189D-03 0.360D-03 0.289D-03-0.801D-03-0.122D-02
 Coeff:     -0.648D-03 0.279D-02 0.154D-02-0.343D-02-0.172D-02 0.235D-02
 Coeff:     -0.202D-02 0.726D-02 0.151D-01-0.188D-01-0.811D-01-0.935D-01
 Coeff:      0.227D+00 0.947D+00
 Gap=     0.341 Goal=   None    Shift=    0.000
 Gap=     0.109 Goal=   None    Shift=    0.000
 RMSDP=8.89D-09 MaxDP=1.11D-06 DE= 1.46D-10 OVMax= 3.75D-06

 Cycle  33  Pass 1  IDiag  1:
 RMSU=  1.03D-09    CP:  1.00D+00  1.62D+00  2.73D+00  1.60D+00  1.85D+00
                    CP:  1.29D+00  1.66D+00  2.02D+00  1.49D+00  1.96D+00
                    CP:  1.52D+00  1.33D+00
 E= -5405.99403696753     Delta-E=        0.000000000286 Rises=F Damp=F
 DIIS: error= 1.47D-08 at cycle  33 NSaved=  20.
 NSaved=20 IEnMin=18 EnMin= -5405.99403696797     IErMin=20 ErrMin= 1.47D-08
 ErrMax= 1.47D-08  0.00D+00 EMaxC= 1.00D-01 BMatC= 2.61D-13 BMatP= 3.68D-12
 IDIUse=1 WtCom= 1.00D+00 WtEn= 0.00D+00
 Coeff-Com:  0.380D-04-0.261D-04-0.345D-03 0.319D-03 0.315D-03-0.241D-03
 Coeff-Com: -0.264D-03 0.498D-03-0.253D-03 0.496D-03-0.504D-03-0.274D-02
 Coeff-Com: -0.703D-03 0.977D-02 0.136D-01-0.183D-01-0.882D-01-0.963D-01
 Coeff-Com:  0.375D+00 0.808D+00
 Coeff:      0.380D-04-0.261D-04-0.345D-03 0.319D-03 0.315D-03-0.241D-03
 Coeff:     -0.264D-03 0.498D-03-0.253D-03 0.496D-03-0.504D-03-0.274D-02
 Coeff:     -0.703D-03 0.977D-02 0.136D-01-0.183D-01-0.882D-01-0.963D-01
 Coeff:      0.375D+00 0.808D+00
 Gap=     0.341 Goal=   None    Shift=    0.000
 Gap=     0.109 Goal=   None    Shift=    0.000
 RMSDP=3.00D-09 MaxDP=4.35D-07 DE= 2.86D-10 OVMax= 1.74D-06

 Error on total polarization charges =  0.00233
 SCF Done:  E(UCAM-B3LYP) =  -5405.99403697     A.U. after   33 cycles
            NFock= 33  Conv=0.30D-08     -V/T= 2.0068
 <Sx>= 0.0000 <Sy>= 0.0000 <Sz>= 0.5000 <S**2>= 0.7533 S= 0.5017
 <L.S>= 0.000000000000E+00
 KE= 5.369474143395D+03 PE=-2.655768002455D+04 EE= 8.898769952968D+03
 Annihilation of the first spin contaminant:
 S**2 before annihilation     0.7533,   after     0.7500
 Leave Link  502 at Sun Mar  3 18:21:12 2024, MaxMem=  5368709120 cpu:      4413.1
 (Enter /home/k0335/k033513/app/g09/l601.exe)
 Copying SCF densities to generalized density rwf, IOpCl= 1 IROHF=0.

 **********************************************************************

            Population analysis using the SCF density.

 **********************************************************************

 Alpha  occ. eigenvalues -- -483.15735 -62.11482 -56.63705 -56.63460 -56.63094
 Alpha  occ. eigenvalues --  -24.86668 -24.86208 -24.85864 -24.85750 -24.85303
 Alpha  occ. eigenvalues --  -24.85249 -24.85219 -24.85092 -24.85050 -24.85008
 Alpha  occ. eigenvalues --  -24.84999 -24.84964 -24.84848 -24.84791 -24.84782
 Alpha  occ. eigenvalues --  -24.84724 -24.84550 -24.84429 -19.34941 -19.34663
 Alpha  occ. eigenvalues --  -19.29914 -19.29247 -19.27495 -14.57339 -14.57246
 Alpha  occ. eigenvalues --  -14.57109 -10.61245 -10.60969 -10.57956 -10.57578
 Alpha  occ. eigenvalues --  -10.56406 -10.56263 -10.51418 -10.51291 -10.51075
 Alpha  occ. eigenvalues --  -10.50733 -10.50321 -10.42916 -10.40772  -8.83704
 Alpha  occ. eigenvalues --   -6.79263  -6.78601  -6.77369  -2.91137  -2.91080
 Alpha  occ. eigenvalues --   -2.90106  -2.89678  -2.89467  -1.45134  -1.44783
 Alpha  occ. eigenvalues --   -1.44103  -1.43732  -1.41470  -1.41192  -1.37748
 Alpha  occ. eigenvalues --   -1.37313  -1.35772  -1.35299  -1.35131  -1.35023
 Alpha  occ. eigenvalues --   -1.34847  -1.34654  -1.34347  -1.34049  -1.33682
 Alpha  occ. eigenvalues --   -1.33630  -1.27979  -1.23201  -1.22733  -1.22114
 Alpha  occ. eigenvalues --   -1.22088  -1.14603  -1.12755  -1.12379  -1.04884
 Alpha  occ. eigenvalues --   -0.96762  -0.95690  -0.93970  -0.88551  -0.87709
 Alpha  occ. eigenvalues --   -0.85359  -0.84660  -0.84284  -0.81970  -0.80491
 Alpha  occ. eigenvalues --   -0.79657  -0.78338  -0.78062  -0.75668  -0.75093
 Alpha  occ. eigenvalues --   -0.74402  -0.73983  -0.72966  -0.72504  -0.71947
 Alpha  occ. eigenvalues --   -0.71533  -0.71222  -0.70672  -0.70601  -0.70258
 Alpha  occ. eigenvalues --   -0.69522  -0.68862  -0.68427  -0.67872  -0.67786
 Alpha  occ. eigenvalues --   -0.66887  -0.66642  -0.65668  -0.63179  -0.62186
 Alpha  occ. eigenvalues --   -0.61972  -0.61754  -0.60913  -0.59905  -0.59642
 Alpha  occ. eigenvalues --   -0.59252  -0.59036  -0.58846  -0.58678  -0.58446
 Alpha  occ. eigenvalues --   -0.58219  -0.58152  -0.57756  -0.57684  -0.57480
 Alpha  occ. eigenvalues --   -0.57362  -0.57102  -0.56660  -0.56412  -0.56194
 Alpha  occ. eigenvalues --   -0.55885  -0.55665  -0.55245  -0.54942  -0.54709
 Alpha  occ. eigenvalues --   -0.54460  -0.54275  -0.54022  -0.53728  -0.53606
 Alpha  occ. eigenvalues --   -0.53331  -0.52952  -0.52741  -0.52694  -0.52488
 Alpha  occ. eigenvalues --   -0.52371  -0.51961  -0.51832  -0.51639  -0.51496
 Alpha  occ. eigenvalues --   -0.51265  -0.50974  -0.50744  -0.50689  -0.48583
 Alpha  occ. eigenvalues --   -0.48253  -0.47998  -0.46781  -0.46371  -0.45105
 Alpha  occ. eigenvalues --   -0.43854  -0.43527  -0.43094  -0.42042  -0.40205
 Alpha virt. eigenvalues --   -0.06060  -0.04527  -0.03202   0.03054   0.03861
 Alpha virt. eigenvalues --    0.04006   0.04856   0.06880   0.08447   0.09692
 Alpha virt. eigenvalues --    0.11143   0.11744   0.12463   0.14224   0.14505
 Alpha virt. eigenvalues --    0.14905   0.15709   0.16800   0.17361   0.18234
 Alpha virt. eigenvalues --    0.18411   0.19348   0.19942   0.20369   0.20656
 Alpha virt. eigenvalues --    0.20950   0.21318   0.21508   0.21726   0.22253
 Alpha virt. eigenvalues --    0.22692   0.23092   0.23303   0.23826   0.24751
 Alpha virt. eigenvalues --    0.25098   0.26155   0.26384   0.27044   0.28912
 Alpha virt. eigenvalues --    0.29792   0.31306   0.32048   0.33782   0.33974
 Alpha virt. eigenvalues --    0.34855   0.35305   0.36190   0.36299   0.37789
 Alpha virt. eigenvalues --    0.39235   0.40689   0.41593   0.42948   0.44098
 Alpha virt. eigenvalues --    0.45513   0.46926   0.47233   0.48304   0.48518
 Alpha virt. eigenvalues --    0.49281   0.49615   0.50124   0.50867   0.51378
 Alpha virt. eigenvalues --    0.51459   0.51562   0.51994   0.53356   0.53693
 Alpha virt. eigenvalues --    0.53978   0.54479   0.55384   0.56056   0.56712
 Alpha virt. eigenvalues --    0.57288   0.57543   0.58384   0.59166   0.59651
 Alpha virt. eigenvalues --    0.60019   0.62454   0.63394   0.64361   0.65159
 Alpha virt. eigenvalues --    0.67590   0.68289   0.69373   0.69991   0.70418
 Alpha virt. eigenvalues --    0.70950   0.74513   0.75107   0.76074   0.76895
 Alpha virt. eigenvalues --    0.78059   0.78625   0.80551   0.80907   0.81508
 Alpha virt. eigenvalues --    0.82454   0.83258   0.84478   0.85303   0.85932
 Alpha virt. eigenvalues --    0.86843   0.88200   0.88578   0.89790   0.90379
 Alpha virt. eigenvalues --    0.90632   0.94018   0.95274   0.95984   0.96364
 Alpha virt. eigenvalues --    0.98098   0.99059   0.99603   1.00092   1.01075
 Alpha virt. eigenvalues --    1.02321   1.03112   1.03562   1.04715   1.05652
 Alpha virt. eigenvalues --    1.06852   1.07686   1.07887   1.08448   1.09550
 Alpha virt. eigenvalues --    1.10062   1.10358   1.10912   1.11816   1.12186
 Alpha virt. eigenvalues --    1.12620   1.13455   1.15162   1.15512   1.15933
 Alpha virt. eigenvalues --    1.16645   1.17067   1.17273   1.18118   1.18388
 Alpha virt. eigenvalues --    1.19597   1.19905   1.20931   1.21703   1.23239
 Alpha virt. eigenvalues --    1.23902   1.25213   1.25751   1.26819   1.27053
 Alpha virt. eigenvalues --    1.27890   1.29045   1.29659   1.30119   1.30741
 Alpha virt. eigenvalues --    1.31515   1.31784   1.32222   1.32467   1.33324
 Alpha virt. eigenvalues --    1.33623   1.34023   1.34526   1.35066   1.35355
 Alpha virt. eigenvalues --    1.35803   1.36428   1.36868   1.37818   1.38359
 Alpha virt. eigenvalues --    1.38689   1.38790   1.39046   1.39474   1.39482
 Alpha virt. eigenvalues --    1.41050   1.41531   1.42008   1.42406   1.42613
 Alpha virt. eigenvalues --    1.43103   1.44645   1.44842   1.45467   1.46039
 Alpha virt. eigenvalues --    1.46811   1.47101   1.48071   1.48726   1.48925
 Alpha virt. eigenvalues --    1.50248   1.50769   1.51491   1.51965   1.52668
 Alpha virt. eigenvalues --    1.52990   1.53334   1.54293   1.54570   1.55130
 Alpha virt. eigenvalues --    1.55948   1.56994   1.58029   1.59069   1.60183
 Alpha virt. eigenvalues --    1.61452   1.61600   1.63063   1.64002   1.64959
 Alpha virt. eigenvalues --    1.65789   1.66160   1.67158   1.67292   1.68038
 Alpha virt. eigenvalues --    1.68357   1.69251   1.70015   1.70559   1.71241
 Alpha virt. eigenvalues --    1.71835   1.73373   1.73651   1.74904   1.75267
 Alpha virt. eigenvalues --    1.76111   1.77030   1.77485   1.77864   1.78344
 Alpha virt. eigenvalues --    1.79561   1.80376   1.81339   1.81664   1.81758
 Alpha virt. eigenvalues --    1.82187   1.82391   1.82625   1.82963   1.83955
 Alpha virt. eigenvalues --    1.84209   1.84391   1.84664   1.85010   1.85680
 Alpha virt. eigenvalues --    1.85933   1.86930   1.87313   1.87939   1.88361
 Alpha virt. eigenvalues --    1.88614   1.88888   1.88960   1.89499   1.90427
 Alpha virt. eigenvalues --    1.90909   1.91034   1.91622   1.91981   1.92268
 Alpha virt. eigenvalues --    1.92895   1.93568   1.94274   1.94734   1.95325
 Alpha virt. eigenvalues --    1.95794   1.95991   1.96968   1.97043   1.97516
 Alpha virt. eigenvalues --    1.98086   1.98389   1.98780   1.99059   1.99250
 Alpha virt. eigenvalues --    1.99620   2.00072   2.00254   2.00319   2.00862
 Alpha virt. eigenvalues --    2.01526   2.02036   2.02236   2.02425   2.02490
 Alpha virt. eigenvalues --    2.03188   2.04259   2.04648   2.05405   2.06221
 Alpha virt. eigenvalues --    2.07069   2.07601   2.07871   2.08639   2.08717
 Alpha virt. eigenvalues --    2.09068   2.10167   2.10980   2.11595   2.11982
 Alpha virt. eigenvalues --    2.12164   2.13074   2.15307   2.15968   2.16523
[...]
    38  F(19)              0.00000      -0.01606      -0.00573      -0.00536
    39  F(19)              0.00000      -0.00604      -0.00215      -0.00201
    40  F(19)              0.00000       0.01051       0.00375       0.00351
    41  H(1)               0.00020       0.87205       0.31117       0.29089
    42  H(1)               0.00577      25.78005       9.19896       8.59930
    43  H(1)               0.02107      94.16197      33.59933      31.40905
    44  H(1)               0.00055       2.45786       0.87702       0.81985
 --------------------------------------------------------
       Center         ----  Spin Dipole Couplings  ----
                      3XX-RR        3YY-RR        3ZZ-RR
 --------------------------------------------------------
     1   Atom       -0.042466     -0.045190      0.087656
     2   Atom        0.009346      0.005284     -0.014630
     3   Atom       -0.038550     -0.062356      0.100906
     4   Atom       -0.025098     -0.028994      0.054092
     5   Atom       -0.008079     -0.039187      0.047267
     6   Atom        0.292519     -3.838303      3.545784
     7   Atom        0.013666      0.007913     -0.021580
     8   Atom       -0.152948     -0.058648      0.211596
     9   Atom        0.000418      0.006697     -0.007114
    10   Atom       -0.001211      0.001494     -0.000283
    11   Atom       -0.000124      0.000639     -0.000515
    12   Atom       -0.005878      0.007558     -0.001681
    13   Atom       -0.000744      0.001237     -0.000493
    14   Atom       -0.000412      0.000560     -0.000148
    15   Atom       -0.000594      0.001074     -0.000481
    16   Atom       -0.000404      0.000817     -0.000413
    17   Atom       -0.000514      0.001086     -0.000573
    18   Atom       -0.000226      0.000527     -0.000302
    19   Atom       -0.000303      0.000598     -0.000294
    20   Atom       -0.000517      0.001297     -0.000780
    21   Atom       -0.000070      0.000712     -0.000642
    22   Atom        0.000344      0.000180     -0.000523
    23   Atom       -0.001568      0.002822     -0.001254
    24   Atom       -0.001409      0.001786     -0.000376
    25   Atom       -0.002016      0.002214     -0.000198
    26   Atom        0.001251      0.003090     -0.004341
    27   Atom        0.000075      0.000666     -0.000741
    28   Atom        0.000719      0.000288     -0.001007
    29   Atom        0.000164      0.000262     -0.000426
    30   Atom        0.000257      0.000150     -0.000406
    31   Atom        0.001146     -0.000223     -0.000922
    32   Atom        0.000243      0.000049     -0.000292
    33   Atom        0.000218     -0.000029     -0.000188
    34   Atom        0.000256     -0.000103     -0.000152
    35   Atom        0.000108      0.000027     -0.000135
    36   Atom        0.000203     -0.000047     -0.000156
    37   Atom        0.000025      0.000151     -0.000176
    38   Atom       -0.000061      0.000232     -0.000171
    39   Atom       -0.000074      0.000177     -0.000103
    40   Atom        0.000061      0.000013     -0.000073
    41   Atom       -0.000830     -0.005520      0.006350
    42   Atom        0.003338     -0.003134     -0.000204
    43   Atom        0.014863     -0.008417     -0.006447
    44   Atom       -0.002665      0.006733     -0.004068
 --------------------------------------------------------
                        XY            XZ            YZ
 --------------------------------------------------------
     1   Atom       -0.007921      0.032863     -0.035962
     2   Atom       -0.001621     -0.004447     -0.000844
     3   Atom        0.016620      0.077565      0.039262
     4   Atom       -0.001032      0.017986     -0.007051
     5   Atom       -0.009348     -0.056532      0.009791
     6   Atom       -1.558676     -5.979495      2.141092
     7   Atom       -0.003466     -0.007334     -0.006013
     8   Atom        0.005975     -0.015129     -0.189410
     9   Atom       -0.004810     -0.002205     -0.007821
    10   Atom       -0.000097     -0.000118     -0.001232
    11   Atom       -0.001053      0.000143     -0.000343
    12   Atom        0.003755     -0.002068     -0.008160
    13   Atom        0.000459     -0.000290     -0.000672
    14   Atom        0.000313     -0.000178     -0.000427
    15   Atom        0.000162     -0.000056     -0.000309
    16   Atom        0.000266     -0.000023     -0.000082
    17   Atom        0.000467      0.000026      0.000133
    18   Atom        0.000321     -0.000038     -0.000101
    19   Atom        0.000086     -0.000003     -0.000010
    20   Atom        0.001462     -0.000275     -0.000596
    21   Atom        0.001025     -0.000105     -0.000175
    22   Atom        0.001646     -0.000610     -0.000862
    23   Atom        0.002071     -0.000212     -0.001097
    24   Atom       -0.000852      0.000222     -0.000676
    25   Atom       -0.002149     -0.007805      0.001250
    26   Atom       -0.002644     -0.001158     -0.002370
    27   Atom       -0.001077      0.000294     -0.000235
    28   Atom       -0.001948     -0.000237      0.000863
    29   Atom       -0.000208     -0.000267     -0.000358
    30   Atom       -0.000691      0.000307     -0.000244
    31   Atom       -0.001467      0.000541     -0.000374
    32   Atom       -0.000432      0.000166     -0.000051
    33   Atom       -0.000293      0.000111     -0.000074
    34   Atom       -0.000255      0.000169     -0.000086
    35   Atom       -0.000232      0.000094     -0.000078
    36   Atom       -0.000219      0.000052     -0.000029
    37   Atom       -0.000433      0.000252     -0.000305
    38   Atom       -0.000323      0.000132     -0.000213
    39   Atom       -0.000470      0.000342     -0.000526
    40   Atom       -0.000283      0.000220     -0.000214
    41   Atom       -0.000477      0.001648      0.001864
    42   Atom        0.003738      0.003992      0.001701
    43   Atom       -0.003356     -0.002203      0.003419
    44   Atom        0.006840      0.002158      0.001162
 --------------------------------------------------------


 ---------------------------------------------------------------------------------
              Anisotropic Spin Dipole Couplings in Principal Axis System
 ---------------------------------------------------------------------------------

       Atom             a.u.   MegaHertz   Gauss  10(-4) cm-1        Axes

              Baa    -0.0543     3.932     1.403     1.311 -0.0906  0.9602  0.2642
     1 O(17)  Bbb    -0.0502     3.633     1.296     1.212  0.9704  0.1448 -0.1936
              Bcc     0.1045    -7.564    -2.699    -2.523  0.2241 -0.2388  0.9449
 
              Baa    -0.0155    -2.078    -0.742    -0.693  0.1794  0.0539  0.9823
     2 C(13)  Bbb     0.0049     0.663     0.237     0.221  0.2541  0.9621 -0.0992
              Bcc     0.0105     1.415     0.505     0.472  0.9504 -0.2674 -0.1589
 
              Baa    -0.0734    -2.831    -1.010    -0.944  0.8352  0.3238 -0.4446
     3 N(14)  Bbb    -0.0709    -2.733    -0.975    -0.912 -0.3796  0.9243 -0.0399
              Bcc     0.1443     5.564     1.985     1.856  0.3980  0.2020  0.8948
 
              Baa    -0.0298    -4.005    -1.429    -1.336 -0.4659  0.8678  0.1727
     4 C(13)  Bbb    -0.0287    -3.854    -1.375    -1.286  0.8595  0.4902 -0.1449
              Bcc     0.0586     7.859     2.804     2.621  0.2105 -0.0809  0.9742
 
              Baa    -0.0450    -6.044    -2.156    -2.016  0.7505  0.5228  0.4042
     5 C(13)  Bbb    -0.0389    -5.223    -1.864    -1.742 -0.3971  0.8457 -0.3565
              Bcc     0.0840    11.267     4.020     3.758 -0.5282  0.1071  0.8423
 
              Baa    -4.4235  -593.358  -211.725  -197.923 -0.1883  0.9039 -0.3841
     6 Br(79) Bbb    -4.2526  -570.432  -203.544  -190.276  0.7826  0.3744  0.4973
              Bcc     8.6761  1163.790   415.269   388.199 -0.5933  0.2070  0.7779
 
              Baa    -0.0244    -3.273    -1.168    -1.092  0.2030  0.2002  0.9585
     7 C(13)  Bbb     0.0085     1.145     0.409     0.382  0.2690  0.9298 -0.2512
              Bcc     0.0159     2.127     0.759     0.710  0.9415 -0.3088 -0.1349
 
              Baa    -0.1570    11.357     4.052     3.788  0.4247  0.7980  0.4276
     8 O(17)  Bbb    -0.1528    11.053     3.944     3.687  0.9047 -0.3923 -0.1664
              Bcc     0.3097   -22.410    -7.997    -7.475 -0.0350 -0.4575  0.8885
 
              Baa    -0.0120    -0.462    -0.165    -0.154  0.3184  0.4347  0.8424
     9 N(14)  Bbb     0.0006     0.022     0.008     0.007  0.8922  0.1629 -0.4213
              Bcc     0.0114     0.440     0.157     0.147 -0.3204  0.8857 -0.3360
 
              Baa    -0.0013    -0.171    -0.061    -0.057  0.9236  0.1825  0.3371
    10 C(13)  Bbb    -0.0009    -0.114    -0.041    -0.038 -0.3832  0.4171  0.8241
              Bcc     0.0021     0.285     0.102     0.095 -0.0098  0.8904 -0.4552
 
              Baa    -0.0009    -0.444    -0.158    -0.148  0.7692  0.5883  0.2496
    11 F(19)  Bbb    -0.0006    -0.282    -0.101    -0.094 -0.3091  0.0007  0.9510
              Bcc     0.0014     0.726     0.259     0.242 -0.5593  0.8087 -0.1824
 
              Baa    -0.0069    -3.446    -1.230    -1.149  0.9486 -0.3015 -0.0963
    12 F(19)  Bbb    -0.0064    -3.221    -1.149    -1.074  0.2292  0.4443  0.8661
              Bcc     0.0133     6.667     2.379     2.224  0.2184  0.8436 -0.4905
 
              Baa    -0.0009    -0.125    -0.045    -0.042  0.8450 -0.0134  0.5346
    13 C(13)  Bbb    -0.0007    -0.088    -0.031    -0.029 -0.4867  0.3951  0.7791
              Bcc     0.0016     0.213     0.076     0.071  0.2217  0.9185 -0.3274
 
              Baa    -0.0005    -0.260    -0.093    -0.087  0.9508 -0.1752  0.2554
    14 F(19)  Bbb    -0.0003    -0.173    -0.062    -0.058 -0.1491  0.4638  0.8733
              Bcc     0.0009     0.433     0.154     0.144  0.2715  0.8684 -0.4149
 
              Baa    -0.0006     0.045     0.016     0.015  0.9496 -0.0342  0.3115
    15 O(17)  Bbb    -0.0005     0.039     0.014     0.013 -0.2980  0.2092  0.9314
              Bcc     0.0011    -0.083    -0.030    -0.028  0.0970  0.9773 -0.1884
 
              Baa    -0.0005    -0.062    -0.022    -0.021  0.9723 -0.1944  0.1302
    16 C(13)  Bbb    -0.0004    -0.056    -0.020    -0.019 -0.1144  0.0903  0.9893
              Bcc     0.0009     0.118     0.042     0.039  0.2040  0.9768 -0.0655
 
              Baa    -0.0006    -0.322    -0.115    -0.108  0.9488 -0.2691  0.1657
    17 F(19)  Bbb    -0.0006    -0.292    -0.104    -0.097 -0.1798 -0.0283  0.9833
              Bcc     0.0012     0.614     0.219     0.205  0.2599  0.9627  0.0752
 
              Baa    -0.0003    -0.173    -0.062    -0.058  0.9387 -0.3445  0.0084
    18 F(19)  Bbb    -0.0003    -0.158    -0.056    -0.053  0.0308  0.1081  0.9937
              Bcc     0.0007     0.330     0.118     0.110  0.3432  0.9325 -0.1121
 
              Baa    -0.0003    -0.157    -0.056    -0.052  0.9878 -0.0925  0.1251
    19 F(19)  Bbb    -0.0003    -0.148    -0.053    -0.049 -0.1235  0.0234  0.9921
              Bcc     0.0006     0.304     0.109     0.102  0.0946  0.9954 -0.0117
 
              Baa    -0.0013    -0.179    -0.064    -0.060  0.8574 -0.5019 -0.1140
    20 C(13)  Bbb    -0.0009    -0.123    -0.044    -0.041  0.2034  0.1269  0.9708
              Bcc     0.0023     0.302     0.108     0.101  0.4728  0.8556 -0.2109
 
              Baa    -0.0008    -0.390    -0.139    -0.130  0.8127 -0.5724 -0.1095
    21 F(19)  Bbb    -0.0007    -0.332    -0.118    -0.111  0.1457  0.0176  0.9892
              Bcc     0.0014     0.722     0.258     0.241  0.5642  0.8198 -0.0977
 
              Baa    -0.0015    -0.730    -0.261    -0.244 -0.5802  0.7509  0.3155
    22 F(19)  Bbb    -0.0008    -0.421    -0.150    -0.140  0.4685 -0.0091  0.8834
              Bcc     0.0023     1.151     0.411     0.384  0.6662  0.6604 -0.3465
 
              Baa    -0.0024    -1.223    -0.436    -0.408  0.8948 -0.3956 -0.2070
    23 F(19)  Bbb    -0.0014    -0.726    -0.259    -0.242  0.2715  0.1138  0.9557
              Bcc     0.0039     1.948     0.695     0.650  0.3545  0.9113 -0.2093
 
              Baa    -0.0016    -0.218    -0.078    -0.073  0.9712  0.2336 -0.0460
    24 C(13)  Bbb    -0.0006    -0.076    -0.027    -0.026 -0.0192  0.2693  0.9629
              Bcc     0.0022     0.295     0.105     0.098 -0.2373  0.9343 -0.2660
 
              Baa    -0.0090     0.653     0.233     0.218  0.7520  0.0709  0.6553
    25 O(17)  Bbb     0.0013    -0.091    -0.032    -0.030  0.2103  0.9164 -0.3405
              Bcc     0.0078    -0.562    -0.200    -0.187 -0.6247  0.3939  0.6743
 
              Baa    -0.0056    -0.215    -0.077    -0.072  0.2814  0.3321  0.9003
    26 N(14)  Bbb     0.0004     0.016     0.006     0.005  0.8033  0.4317 -0.4103
              Bcc     0.0052     0.199     0.071     0.066 -0.5249  0.8387 -0.1453
 
              Baa    -0.0009    -0.116    -0.042    -0.039 -0.5506 -0.2654  0.7914
    27 C(13)  Bbb    -0.0007    -0.091    -0.033    -0.030  0.5766  0.5647  0.5905
              Bcc     0.0015     0.207     0.074     0.069 -0.6036  0.7815 -0.1579
 
              Baa    -0.0018    -0.908    -0.324    -0.303  0.4603  0.6684 -0.5842
    28 F(19)  Bbb    -0.0008    -0.409    -0.146    -0.136  0.5296  0.3214  0.7850
              Bcc     0.0026     1.317     0.470     0.439  0.7125 -0.6708 -0.2061
 
              Baa    -0.0007    -0.353    -0.126    -0.118  0.3552  0.3916  0.8488
    29 F(19)  Bbb     0.0002     0.124     0.044     0.042  0.8356  0.2739 -0.4761
              Bcc     0.0005     0.228     0.082     0.076 -0.4190  0.8784 -0.2299
 
              Baa    -0.0005    -0.072    -0.026    -0.024 -0.5368 -0.2566  0.8038
    30 C(13)  Bbb    -0.0005    -0.063    -0.023    -0.021  0.4546  0.7146  0.5317
              Bcc     0.0010     0.135     0.048     0.045  0.7108 -0.6508  0.2669
 
              Baa    -0.0012    -0.585    -0.209    -0.195  0.4841  0.8453  0.2262
    31 F(19)  Bbb    -0.0011    -0.529    -0.189    -0.177 -0.2924 -0.0874  0.9523
              Bcc     0.0022     1.114     0.397     0.372  0.8247 -0.5271  0.2049
 
              Baa    -0.0004     0.027     0.010     0.009 -0.4977 -0.4176  0.7602
    32 O(17)  Bbb    -0.0002     0.018     0.006     0.006  0.3866  0.6777  0.6254
              Bcc     0.0006    -0.045    -0.016    -0.015  0.7764 -0.6052  0.1759
 
              Baa    -0.0002    -0.030    -0.011    -0.010  0.5495  0.8353  0.0190
    33 C(13)  Bbb    -0.0002    -0.029    -0.010    -0.010 -0.1838  0.0987  0.9780
              Bcc     0.0004     0.059     0.021     0.020  0.8150 -0.5409  0.2078
 
              Baa    -0.0002    -0.118    -0.042    -0.039  0.4764  0.8770 -0.0627
    34 F(19)  Bbb    -0.0002    -0.107    -0.038    -0.036 -0.2370  0.1967  0.9514
              Bcc     0.0004     0.225     0.080     0.075  0.8467 -0.4383  0.3016
 
              Baa    -0.0002    -0.085    -0.030    -0.028  0.6712  0.7040 -0.2323
    35 F(19)  Bbb    -0.0002    -0.084    -0.030    -0.028 -0.0321  0.3406  0.9397
              Bcc     0.0003     0.168     0.060     0.056  0.7406 -0.6232  0.2512
 
              Baa    -0.0002    -0.087    -0.031    -0.029  0.5101  0.8514 -0.1224
    36 F(19)  Bbb    -0.0002    -0.082    -0.029    -0.027 -0.0418  0.1666  0.9851
              Bcc     0.0003     0.169     0.060     0.056  0.8591 -0.4974  0.1205
 
              Baa    -0.0004    -0.048    -0.017    -0.016  0.2440  0.6408  0.7279
    37 C(13)  Bbb    -0.0003    -0.046    -0.016    -0.015  0.7664  0.3325 -0.5496
              Bcc     0.0007     0.094     0.034     0.031 -0.5942  0.6920 -0.4100
 
              Baa    -0.0003    -0.136    -0.049    -0.045  0.7344  0.6033  0.3109
    38 F(19)  Bbb    -0.0003    -0.130    -0.046    -0.043 -0.4494  0.0889  0.8889
              Bcc     0.0005     0.266     0.095     0.089 -0.5086  0.7926 -0.3364
 
              Baa    -0.0005    -0.255    -0.091    -0.085  0.1189  0.6540  0.7471
    39 F(19)  Bbb    -0.0004    -0.207    -0.074    -0.069  0.8552  0.3148 -0.4117
              Bcc     0.0009     0.462     0.165     0.154 -0.5044  0.6878 -0.5219
 
              Baa    -0.0003    -0.127    -0.045    -0.042  0.3503  0.7857  0.5099
    40 F(19)  Bbb    -0.0002    -0.118    -0.042    -0.040 -0.6818 -0.1593  0.7140
              Bcc     0.0005     0.245     0.088     0.082  0.6422 -0.5977  0.4799
 
              Baa    -0.0059    -3.155    -1.126    -1.052  0.1459  0.9750 -0.1678
    41 H(1)   Bbb    -0.0010    -0.553    -0.197    -0.185  0.9694 -0.1747 -0.1722
              Bcc     0.0069     3.708     1.323     1.237  0.1972  0.1376  0.9707
 
              Baa    -0.0048    -2.586    -0.923    -0.863 -0.4316  0.9012  0.0410
    42 H(1)   Bbb    -0.0026    -1.411    -0.504    -0.471 -0.4279 -0.2445  0.8702
              Bcc     0.0075     3.997     1.426     1.333  0.7942  0.3580  0.4911
 
              Baa    -0.0111    -5.905    -2.107    -1.970  0.0565  0.8152 -0.5764
    43 H(1)   Bbb    -0.0046    -2.452    -0.875    -0.818  0.1877  0.5583  0.8081
              Bcc     0.0157     8.357     2.982     2.788  0.9806 -0.1539 -0.1215
 
              Baa    -0.0070    -3.718    -1.327    -1.240  0.8109 -0.3661 -0.4565
    44 H(1)   Bbb    -0.0036    -1.946    -0.694    -0.649  0.3471 -0.3271  0.8789
              Bcc     0.0106     5.664     2.021     1.889  0.4711  0.8712  0.1382
 

 ---------------------------------------------------------------------------------

 No NMR shielding tensors so no spin-rotation constants.
 Leave Link  601 at Sun Mar  3 18:21:13 2024, MaxMem=  5368709120 cpu:         6.9
 (Enter /home/k0335/k033513/app/g09/l9999.exe)
 1\1\GINC-C18U05N1\SP\UCAM-B3LYP\6-31G(d,p)\C13H4Br1F18N3O5(1+,2)\K0335
 13\03-Mar-2024\0\\#p CAM-B3LYP/6-31G(d,p) SCRF=(PCM,Solvent=Generic,Re
 ad) NoSymm out=wfn\\Title A154147352_p1\\1,2\O,0,1.856172,2.295444,-0.
 390111\C,0,0.863621,1.599519,-0.190291\N,0,-0.349881,2.162606,0.140204
 \C,0,-0.481398,3.623707,0.048922\C,0,-0.438129,4.158312,-1.380205\Br,0
 ,-1.960372,3.528921,-2.419643\C,0,-1.430437,1.418862,0.563774\O,0,-2.5
 34428,1.925061,0.743994\N,0,-1.203718,0.08134,0.763781\C,0,-2.279459,-
 0.731206,1.329692\F,0,-1.693706,-1.660072,2.156483\F,0,-3.017398,0.008
 572,2.207703\C,0,-3.223694,-1.494175,0.360042\F,0,-4.041351,-2.285792,
 1.126072\O,0,-2.45347,-2.386669,-0.452199\C,0,-3.207757,-3.070308,-1.4
 17033\F,0,-3.384415,-2.260888,-2.475552\F,0,-4.395243,-3.463628,-0.933
 907\F,0,-2.517316,-4.153127,-1.817703\C,0,-4.076117,-0.471102,-0.39230
 2\F,0,-5.020936,-1.07184,-1.154581\F,0,-4.733393,0.37412,0.424001\F,0,
 -3.307791,0.256594,-1.237181\C,0,-0.086072,-0.55471,0.281371\O,0,0.056
 086,-1.770903,0.363457\N,0,0.887807,0.232301,-0.279503\C,0,2.116116,-0
 .385481,-0.762964\F,0,2.487851,0.306966,-1.892161\F,0,1.854125,-1.6304
 25,-1.262452\C,0,3.352794,-0.466181,0.175411\F,0,3.666796,0.783597,0.6
 25998\O,0,4.468541,-0.89176,-0.626729\C,0,5.628477,-1.149007,0.117636\
 F,0,5.816225,-0.225425,1.072554\F,0,5.531658,-2.370313,0.668804\F,0,6.
 685228,-1.13617,-0.71538\C,0,2.99656,-1.352549,1.369677\F,0,2.711823,-
 2.617545,1.006044\F,0,1.935799,-0.855569,2.050486\F,0,4.007389,-1.4168
 ,2.268182\H,0,-1.39909,3.957531,0.545804\H,0,0.353451,4.063071,0.60907
 1\H,0,0.454244,3.844813,-1.927203\H,0,-0.495191,5.25031,-1.388319\\Ver
 sion=ES64L-G09RevD.01\HF=-5405.994037\S2=0.753336\S2-1=0.\S2A=0.750009
 \RMSD=2.999e-09\Dipole=-1.9021186,7.5554015,-2.3649552\Quadrupole=-18.
 8914256,27.2682528,-8.3768272,-13.7363641,11.6240166,-18.9049825\PG=C0
 1 [X(C13H4Br1F18N3O5)]\\@

 Writing a WFN file to "A154147352/A154147352_p1.wfn"


 YOU ARE IN A MAZE OF TWISTY LITTLE PASSAGES.
 Job cpu time:       0 days  1 hours 14 minutes 34.9 seconds.
 File lengths (MBytes):  RWF=    606 Int=      0 D2E=      0 Chk=     21 Scr=      1
 Normal termination of Gaussian 09 at Sun Mar  3 18:21:13 2024.
