 Entering Gaussian System, Link 0=g09
 Initial command:
 /home/k0335/k033513/app/g09/l1.exe "/home/k0335/k033513/app/g09/scratch/Gau-498008.inp" -scrdir="/home/k0335/k033513/app/g09/scratch/"
 Default is to use a total of  36 processors:
                               36 via shared-memory
                                1 via Linda
 Entering Link 1 = /home/k0335/k033513/app/g09/l1.exe PID=    498009.
  
 Copyright (c) 1988,1990,1992,1993,1995,1998,2003,2009,2013,
            Gaussian, Inc.  All Rights Reserved.
  
 This is part of the Gaussian(R) 09 program.  It is based on
 the Gaussian(R) 03 system (copyright 2003, Gaussian, Inc.),
 the Gaussian(R) 98 system (copyright 1998, Gaussian, Inc.),
 the Gaussian(R) 94 system (copyright 1995, Gaussian, Inc.),
 the Gaussian 92(TM) system (copyright 1992, Gaussian, Inc.),
 the Gaussian 90(TM) system (copyright 1990, Gaussian, Inc.),
 the Gaussian 88(TM) system (copyright 1988, Gaussian, Inc.),
 the Gaussian 86(TM) system (copyright 1986, Carnegie Mellon
 University), and the Gaussian 82(TM) system (copyright 1983,
 Carnegie Mellon University). Gaussian is a federally registered
 trademark of Gaussian, Inc.
  
 This software contains proprietary and confidential information,
 including trade secrets, belonging to Gaussian, Inc.
  
 This software is provided under written license and may be
 used, copied, transmitted, or stored only in accord with that
 written license.
  
 The following legend is applicable only to US Government
 contracts under FAR:
  
                    RESTRICTED RIGHTS LEGEND
  
 Use, reproduction and disclosure by the US Government is
 subject to restrictions as set forth in subparagraphs (a)
 and (c) of the Commercial Computer Software - Restricted
 Rights clause in FAR 52.227-19.
  
 Gaussian, Inc.
 340 Quinnipiac St., Bldg. 40, Wallingford CT 06492
  
  
 ---------------------------------------------------------------
 Warning -- This program may not be used in any manner that
 competes with the business of Gaussian, Inc. or will provide
 assistance to any competitor of Gaussian, Inc.  The licensee
 of this program is prohibited from giving any competitor of
 Gaussian, Inc. access to this program.  By using this program,
 the user acknowledges that Gaussian, Inc. is engaged in the
 business of creating and licensing software in the field of
 computational chemistry and represents and warrants to the
 licensee that it is not a competitor of Gaussian, Inc. and that
 it will not use this program in any manner prohibited above.
 ---------------------------------------------------------------
  

 Cite this work as:
 Gaussian 09, Revision D.01,
 M. J. Frisch, G. W. Trucks, H. B. Schlegel, G. E. Scuseria, 
 M. A. Robb, J. R. Cheeseman, G. Scalmani, V. Barone, B. Mennucci, 
 G. A. Petersson, H. Nakatsuji, M. Caricato, X. Li, H. P. Hratchian, 
 A. F. Izmaylov, J. Bloino, G. Zheng, J. L. Sonnenberg, M. Hada, 
 M. Ehara, K. Toyota, R. Fukuda, J. Hasegawa, M. Ishida, T. Nakajima, 
 Y. Honda, O. Kitao, H. Nakai, T. Vreven, J. A. Montgomery, Jr., 
 J. E. Peralta, F. Ogliaro, M. Bearpark, J. J. Heyd, E. Brothers, 
 K. N. Kudin, V. N. Staroverov, T. Keith, R. Kobayashi, J. Normand, 
 K. Raghavachari, A. Rendell, J. C. Burant, S. S. Iyengar, J. Tomasi, 
 M. Cossi, N. Rega, J. M. Millam, M. Klene, J. E. Knox, J. B. Cross, 
 V. Bakken, C. Adamo, J. Jaramillo, R. Gomperts, R. E. Stratmann, 
 O. Yazyev, A. J. Austin, R. Cammi, C. Pomelli, J. W. Ochterski, 
 R. L. Martin, K. Morokuma, V. G. Zakrzewski, G. A. Voth, 
 P. Salvador, J. J. Dannenberg, S. Dapprich, A. D. Daniels, 
 O. Farkas, J. B. Foresman, J. V. Ortiz, J. Cioslowski, 
 and D. J. Fox, Gaussian, Inc., Wallingford CT, 2013.
 
 ******************************************
 Gaussian 09:  ES64L-G09RevD.01 24-Apr-2013
                 5-Mar-2024 
 ******************************************
 %nprocshared=24
 Will use up to   24 processors via shared memory.
 %mem=40GB
 %rwf=A949740/A949740_0.rwf
 %nosave
 %chk=A949740/A949740_0.chk
 ----------------------------------------------------------------------
 #p CAM-B3LYP/6-31G(d,p) SCRF=(PCM,Solvent=Generic,Read) NoSymm out=wfn
 ----------------------------------------------------------------------
 1/38=1,40=2/1;
 2/12=2,15=1,17=6,18=5,40=1/2;
 3/5=1,6=6,7=101,11=2,16=1,25=1,30=1,70=2203,72=-2,74=-40/1,2,3;
 4//1;
 5/5=2,38=5/2;
 6/7=2,8=2,9=2,10=2,28=1/1;
 99/5=1,6=100,9=1/99;
 Leave Link    1 at Tue Mar  5 16:47:12 2024, MaxMem=  5368709120 cpu:        10.4
 (Enter /home/k0335/k033513/app/g09/l101.exe)
 ---------------
 Title A949740_0
 ---------------
 Symbolic Z-matrix:
 Charge =  0 Multiplicity = 1
 O                     2.2756    1.31292  -2.40594 
 C                     1.22957   0.94522  -1.88481 
 N                     0.10562   0.84388  -2.63776 
 C                    -1.07943   0.34331  -2.20337 
 O                    -2.06724   0.42368  -2.92465 
 N                    -1.0641   -0.2215   -0.95525 
 C                    -2.30346  -0.81699  -0.47268 
 F                    -2.03229  -1.77631   0.45039 
 F                    -2.84351  -1.53716  -1.5086 
 C                    -3.39208   0.16592   0.04502 
 F                    -3.33785   1.30623  -0.73102 
 O                    -4.74018  -0.28272  -0.16581 
 C                    -5.15826  -1.29992   0.70652 
 F                    -5.33234  -0.79651   1.93741 
 F                    -6.33092  -1.79006   0.26809 
 F                    -4.26032  -2.29132   0.74329 
 C                    -3.04986   0.60463   1.46804 
 F                    -4.00983   1.42611   1.96054 
 F                    -1.89532   1.31003   1.4983 
 F                    -2.93059  -0.42708   2.32502 
 C                    -0.00766  -0.05796  -0.08973 
 O                    -0.04564  -0.50125   1.05397 
 N                     1.09876   0.60817  -0.56478 
 C                     2.2706    0.77547   0.28475 
 F                     1.90655   0.85122   1.59731 
 F                     2.74918   2.03322   0.03507 
 C                     3.43955  -0.24573   0.15092 
 F                     3.93737  -0.26282  -1.1199 
 O                     4.5659   -0.04549   1.02052 
 C                     5.13357   1.23346   0.92439 
 F                     4.44102   2.08097   1.70358 
 F                     5.15238   1.67538  -0.34133 
 F                     6.39887   1.17183   1.38088 
 C                     2.88581  -1.63568   0.44569 
 F                     3.85108  -2.58285   0.33181 
 F                     1.90915  -1.98205  -0.4282 
 F                     2.38241  -1.74049   1.69238 
 H                     0.14789   1.18224  -3.59005 
 
 NAtoms=     38 NQM=       38 NQMF=       0 NMMI=      0 NMMIF=      0
                NMic=       0 NMicF=      0.
                    Isotopes and Nuclear Properties:
 (Nuclear quadrupole moments (NQMom) in fm**2, nuclear magnetic moments (NMagM)
  in nuclear magnetons)

  Atom         1           2           3           4           5           6           7           8           9          10
 IAtWgt=          16          12          14          12          16          14          12          19          19          12
 AtmWgt=  15.9949146  12.0000000  14.0030740  12.0000000  15.9949146  14.0030740  12.0000000  18.9984033  18.9984033  12.0000000
 NucSpn=           0           0           2           0           0           2           0           1           1           0
 AtZEff=   0.0000000   0.0000000   0.0000000   0.0000000   0.0000000   0.0000000   0.0000000   0.0000000   0.0000000   0.0000000
 NQMom=    0.0000000   0.0000000   2.0440000   0.0000000   0.0000000   2.0440000   0.0000000   0.0000000   0.0000000   0.0000000
 NMagM=    0.0000000   0.0000000   0.4037610   0.0000000   0.0000000   0.4037610   0.0000000   2.6288670   2.6288670   0.0000000
 AtZNuc=   8.0000000   6.0000000   7.0000000   6.0000000   8.0000000   7.0000000   6.0000000   9.0000000   9.0000000   6.0000000

  Atom        11          12          13          14          15          16          17          18          19          20
 IAtWgt=          19          16          12          19          19          19          12          19          19          19
 AtmWgt=  18.9984033  15.9949146  12.0000000  18.9984033  18.9984033  18.9984033  12.0000000  18.9984033  18.9984033  18.9984033
 NucSpn=           1           0           0           1           1           1           0           1           1           1
 AtZEff=   0.0000000   0.0000000   0.0000000   0.0000000   0.0000000   0.0000000   0.0000000   0.0000000   0.0000000   0.0000000
 NQMom=    0.0000000   0.0000000   0.0000000   0.0000000   0.0000000   0.0000000   0.0000000   0.0000000   0.0000000   0.0000000
 NMagM=    2.6288670   0.0000000   0.0000000   2.6288670   2.6288670   2.6288670   0.0000000   2.6288670   2.6288670   2.6288670
 AtZNuc=   9.0000000   8.0000000   6.0000000   9.0000000   9.0000000   9.0000000   6.0000000   9.0000000   9.0000000   9.0000000

  Atom        21          22          23          24          25          26          27          28          29          30
 IAtWgt=          12          16          14          12          19          19          12          19          16          12
 AtmWgt=  12.0000000  15.9949146  14.0030740  12.0000000  18.9984033  18.9984033  12.0000000  18.9984033  15.9949146  12.0000000
 NucSpn=           0           0           2           0           1           1           0           1           0           0
 AtZEff=   0.0000000   0.0000000   0.0000000   0.0000000   0.0000000   0.0000000   0.0000000   0.0000000   0.0000000   0.0000000
 NQMom=    0.0000000   0.0000000   2.0440000   0.0000000   0.0000000   0.0000000   0.0000000   0.0000000   0.0000000   0.0000000
 NMagM=    0.0000000   0.0000000   0.4037610   0.0000000   2.6288670   2.6288670   0.0000000   2.6288670   0.0000000   0.0000000
 AtZNuc=   6.0000000   8.0000000   7.0000000   6.0000000   9.0000000   9.0000000   6.0000000   9.0000000   8.0000000   6.0000000

  Atom        31          32          33          34          35          36          37          38
 IAtWgt=          19          19          19          12          19          19          19           1
 AtmWgt=  18.9984033  18.9984033  18.9984033  12.0000000  18.9984033  18.9984033  18.9984033   1.0078250
 NucSpn=           1           1           1           0           1           1           1           1
 AtZEff=   0.0000000   0.0000000   0.0000000   0.0000000   0.0000000   0.0000000   0.0000000   0.0000000
 NQMom=    0.0000000   0.0000000   0.0000000   0.0000000   0.0000000   0.0000000   0.0000000   0.0000000
 NMagM=    2.6288670   2.6288670   2.6288670   0.0000000   2.6288670   2.6288670   2.6288670   2.7928460
 AtZNuc=   9.0000000   9.0000000   9.0000000   6.0000000   9.0000000   9.0000000   9.0000000   1.0000000
 Leave Link  101 at Tue Mar  5 16:47:13 2024, MaxMem=  5368709120 cpu:         0.7
 (Enter /home/k0335/k033513/app/g09/l202.exe)
                          Input orientation:                          
 ---------------------------------------------------------------------
 Center     Atomic      Atomic             Coordinates (Angstroms)
 Number     Number       Type             X           Y           Z
 ---------------------------------------------------------------------
      1          8           0        2.275602    1.312915   -2.405940
      2          6           0        1.229568    0.945218   -1.884811
      3          7           0        0.105619    0.843876   -2.637759
      4          6           0       -1.079431    0.343314   -2.203369
      5          8           0       -2.067243    0.423675   -2.924645
      6          7           0       -1.064097   -0.221503   -0.955253
      7          6           0       -2.303464   -0.816986   -0.472682
      8          9           0       -2.032289   -1.776307    0.450394
      9          9           0       -2.843509   -1.537155   -1.508604
     10          6           0       -3.392076    0.165920    0.045017
     11          9           0       -3.337846    1.306227   -0.731019
     12          8           0       -4.740181   -0.282721   -0.165809
     13          6           0       -5.158262   -1.299921    0.706521
     14          9           0       -5.332338   -0.796507    1.937411
     15          9           0       -6.330917   -1.790056    0.268090
     16          9           0       -4.260321   -2.291318    0.743285
     17          6           0       -3.049859    0.604629    1.468035
     18          9           0       -4.009825    1.426112    1.960541
     19          9           0       -1.895320    1.310028    1.498303
     20          9           0       -2.930588   -0.427075    2.325020
     21          6           0       -0.007655   -0.057962   -0.089725
     22          8           0       -0.045639   -0.501246    1.053969
     23          7           0        1.098761    0.608168   -0.564781
     24          6           0        2.270603    0.775474    0.284751
     25          9           0        1.906554    0.851222    1.597312
     26          9           0        2.749181    2.033216    0.035068
     27          6           0        3.439545   -0.245732    0.150916
     28          9           0        3.937365   -0.262819   -1.119899
     29          8           0        4.565899   -0.045485    1.020521
     30          6           0        5.133567    1.233460    0.924388
     31          9           0        4.441015    2.080966    1.703577
     32          9           0        5.152379    1.675377   -0.341333
     33          9           0        6.398867    1.171827    1.380880
     34          6           0        2.885811   -1.635681    0.445693
     35          9           0        3.851080   -2.582852    0.331806
     36          9           0        1.909147   -1.982049   -0.428199
     37          9           0        2.382409   -1.740485    1.692376
     38          1           0        0.147890    1.182238   -3.590046
 ---------------------------------------------------------------------
                    Distance matrix (angstroms):
                    1          2          3          4          5
     1  O    0.000000
     2  C    1.225138   0.000000
     3  N    2.232166   1.356636   0.000000
     4  C    3.498201   2.407331   1.357793   0.000000
     5  O    4.463195   3.496030   2.231637   1.225753   0.000000
     6  N    3.951268   2.736095   2.309566   1.370054   2.302403
     7  C    5.407570   4.193064   3.640014   2.416574   2.758109
     8  F    6.021616   4.847638   4.579596   3.527491   4.028899
     9  F    5.927344   4.784732   3.954953   2.670362   2.540200
    10  C    6.280554   5.068642   4.459908   3.230330   3.261980
    11  F    5.858003   4.724705   3.963190   2.862770   2.684274
    12  O    7.535612   6.332512   5.555316   4.236114   3.905735
    13  C    8.472111   7.249829   6.594582   5.273001   5.070557
    14  F    9.010833   7.791123   7.293450   6.044210   5.982414
    15  F    9.531581   8.323319   7.537277   6.183646   5.768282
    16  F    8.101012   6.893543   6.349987   5.073669   5.063051
    17  C    6.623435   5.447116   5.183804   4.174935   4.504877
    18  F    7.654121   6.516842   6.198406   5.205555   5.351967
    19  F    5.713118   4.619900   4.618232   3.911852   4.514161
    20  F    7.246652   6.075587   5.955086   4.952433   5.387775
    21  C    3.529507   2.399880   2.705295   2.403584   3.537039
    22  O    4.544261   3.514945   3.932059   3.520264   4.557601
    23  N    2.295972   1.368646   2.310655   2.738547   3.953047
    24  C    2.743845   2.412378   3.637705   4.195263   5.407485
    25  F    4.046651   3.548567   4.602092   4.859964   6.035060
    26  F    2.588751   2.679347   3.942963   4.746013   5.877794
    27  C    3.212733   3.232111   4.480962   5.129403   6.342862
    28  F    2.626461   3.062125   4.267429   5.168128   6.307432
    29  O    4.339510   4.533602   5.836786   6.512633   7.731948
    30  C    4.389232   4.818287   6.174215   7.012601   8.205027
    31  F    4.708189   4.947711   6.258854   6.982763   8.156254
    32  F    3.559470   4.278306   5.606670   6.639053   7.769376
    33  F    5.600109   6.118639   7.474087   8.334160   9.527450
    34  C    4.147093   3.851679   4.835840   5.163051   6.335051
    35  F    5.015415   4.922702   5.881263   6.268931   7.393932
    36  F    3.860380   3.339527   4.015062   4.182121   5.275550
    37  F    5.111835   4.619341   5.532880   5.612788   6.767560
    38  H    2.438512   2.033232   1.011497   2.032974   2.434130
                    6          7          8          9         10
     6  N    0.000000
     7  C    1.457225   0.000000
     8  F    2.308821   1.358640   0.000000
     9  F    2.281106   1.372380   2.133763   0.000000
    10  C    2.563225   1.555375   2.405327   2.369626   0.000000
    11  F    2.748486   2.375861   3.549962   2.988951   1.380389
    12  O    3.760394   2.513404   3.153282   2.640846   1.436354
    13  C    4.548260   3.126279   3.172421   3.212653   2.388659
    14  F    5.188065   3.870794   3.749873   4.314841   2.876115
    15  F    5.629948   4.209036   4.302514   3.922068   3.537286
    16  F    4.169534   2.735237   2.305460   2.765343   2.698045
    17  C    3.240072   2.518825   2.782067   3.672901   1.527926
    18  F    4.460247   3.723403   4.055451   4.709162   2.374643
    19  F    3.009395   2.928404   3.262260   4.248176   2.379349
    20  F    3.779714   2.893519   2.478223   3.992059   2.400631
    21  C    1.375483   2.448165   2.709904   3.499042   3.394493
    22  O    2.269909   2.743744   2.436568   3.932933   3.558333
    23  N    2.349208   3.689808   4.064453   4.586361   4.553576
    24  C    3.694834   4.902216   5.005387   5.892242   5.700435
    25  F    4.060923   4.979161   4.871736   6.157447   5.563698
    26  F    4.539337   5.823288   6.127595   6.812390   6.418873
    27  C    4.637563   5.804943   5.689755   6.625598   6.844831
    28  F    5.004342   6.298725   6.355567   6.910519   7.433811
    29  O    5.969214   7.071988   6.845208   7.969999   8.020328
    30  C    6.637847   7.839998   7.786710   8.788032   8.637102
    31  F    6.532763   7.656515   7.638893   8.744895   8.232590
    32  F    6.528371   7.862488   8.010019   8.695810   8.685358
    33  F    7.943218   9.117107   8.980072  10.055308   9.932721
    34  C    4.423158   5.333128   4.920112   6.054262   6.543560
    35  F    5.602808   6.453208   5.939580   7.021262   7.752503
    36  F    3.495352   4.370977   4.043411   4.894175   5.739396
    37  F    4.603873   5.243828   4.586214   6.131707   6.300226
    38  H    3.222039   4.441170   5.461806   4.547083   5.174741
                   11         12         13         14         15
    11  F    0.000000
    12  O    2.193345   0.000000
    13  C    3.488903   1.403726   0.000000
    14  F    3.939544   2.244585   1.341200   0.000000
    15  F    4.420821   2.234003   1.344460   2.184246   0.000000
    16  F    3.995856   2.256364   1.338102   2.193084   2.182760
    17  C    2.326159   2.512772   2.941526   2.719045   4.235531
    18  F    2.776765   2.823986   3.212900   2.586428   4.312261
    19  F    2.655329   3.660513   4.252710   4.055046   5.549637
    20  F    3.536887   3.082157   2.888586   2.460716   4.201299
    21  C    3.655467   4.738471   5.357725   5.745170   6.565959
    22  O    4.158337   4.855341   5.186282   5.368131   6.464005
    23  N    4.494263   5.919975   6.663884   7.042238   7.851450
    24  C    5.724350   7.104497   7.724842   7.937703   8.975988
    25  F    5.756030   6.969470   7.438585   7.431839   8.752092
    26  F    6.177969   7.841840   8.607456   8.771385   9.854942
    27  C    7.008524   8.185939   8.679994   8.968882   9.892451
    28  F    7.452639   8.729862   9.334978   9.775447  10.473614
    29  O    8.207570   9.384390   9.809766   9.968943  11.061206
    30  C    8.631947  10.048793  10.601284  10.708975  11.874627
    31  F    8.187683   9.663125  10.225979  10.190827  11.536028
    32  F    8.507176  10.086015  10.782380  11.010548  12.010275
    33  F    9.964023  11.339592  11.837716  11.908200  13.117105
    34  C    6.983794   7.769182   8.055301   8.394487   9.219732
    35  F    8.242281   8.907749   9.107940   9.492321  10.213014
    36  F    6.199629   6.868051   7.190352   7.709781   8.271659
    37  F    6.919293   7.503947   7.617593   7.776147   8.829105
    38  H    4.509963   6.145302   7.264768   8.031258   8.105226
                   16         17         18         19         20
    16  F    0.000000
    17  C    3.221334   0.000000
    18  F    3.919661   1.356072   0.000000
    19  F    4.374126   1.353316   2.167550   0.000000
    20  F    2.783070   1.346500   2.175293   2.184666   0.000000
    21  C    4.875136   3.481472   4.735339   2.820728   3.809301
    22  O    4.589600   3.227963   4.500150   2.626683   3.153411
    23  N    6.231999   4.619892   5.757077   3.703167   5.065405
    24  C    7.229691   5.453133   6.532639   4.371884   5.714999
    25  F    6.973899   4.964227   5.955332   3.830738   5.055843
    26  F    8.266576   6.141915   7.054090   4.922951   6.599749
    27  C    7.988946   6.676098   7.846204   5.718096   6.733365
    28  F    8.648024   7.501411   8.689041   6.583999   7.685260
    29  O    9.111684   7.656545   8.751701   6.619142   7.618704
    30  C   10.035038   8.225536   9.203931   7.052694   8.351631
    31  F    9.785309   7.638602   8.480068   6.386362   7.811337
    32  F   10.271805   8.467409   9.450224   7.292997   8.767217
    33  F   11.225782   9.466136  10.427921   8.296169   9.512445
    34  C    7.182313   6.426224   7.695397   5.713528   6.230818
    35  F    8.127062   7.685962   8.973204   7.038206   7.389946
    36  F    6.287317   5.905789   7.235736   5.387314   5.781107
    37  F    6.732760   5.921100   7.138621   5.257591   5.509376
    38  H    7.090534   6.011939   6.939386   5.484736   6.859659
                   21         22         23         24         25
    21  C    0.000000
    22  O    1.227184   0.000000
    23  N    1.376068   2.271740   0.000000
    24  C    2.454650   2.754394   1.457021   0.000000
    25  F    2.708672   2.436278   2.320830   1.364216   0.000000
    26  F    3.462476   3.908027   2.261519   1.368683   2.132542
    27  C    3.460687   3.609335   2.592419   1.557947   2.376012
    28  F    4.082451   4.543883   3.020670   2.414371   3.570506
    29  O    4.706400   4.634126   3.868009   2.546314   2.865116
    30  C    5.397070   5.463531   4.346064   2.969082   3.318516
    31  F    5.251820   5.217267   4.299447   2.903113   2.819052
    32  F    5.449195   5.805510   4.197700   3.083251   3.869490
    33  F    6.687196   6.666161   5.674014   4.289657   4.508936
    34  C    3.338864   3.201615   3.041293   2.493602   2.910302
    35  F    4.630615   4.476497   4.308333   3.711937   4.144340
    36  F    2.736934   2.865447   2.717463   2.871042   3.482833
    37  F    3.423328   2.799767   3.501240   2.885127   2.636744
    38  H    3.716791   4.943526   3.222723   4.436825   5.487363
                   26         27         28         29         30
    26  F    0.000000
    27  C    2.384036   0.000000
    28  F    2.831520   1.364950   0.000000
    29  O    2.931310   1.437006   2.241358   0.000000
    30  C    2.667545   2.378230   2.801582   1.402565   0.000000
    31  F    2.376658   2.971064   3.703918   2.236952   1.343514
    32  F    2.458676   2.620452   2.416408   2.271557   1.340781
    33  F    3.984145   3.504265   3.790923   2.229681   1.346539
    34  C    3.694332   1.524950   2.332722   2.383662   3.676075
    35  F    4.755031   2.379961   2.738146   2.724615   4.069418
    36  F    4.128272   2.385852   2.747339   3.592687   4.750355
    37  F    4.137875   2.393308   3.536987   2.844652   4.123472
    38  H    4.542282   5.183521   4.748677   6.502571   6.726047
                   31         32         33         34         35
    31  F    0.000000
    32  F    2.202771   0.000000
    33  F    2.182625   2.184791   0.000000
    34  C    4.220710   4.088991   4.593282   0.000000
    35  F    4.897038   4.503222   4.657187   1.357147   0.000000
    36  F    5.240507   4.889056   5.777308   1.355555   2.170179
    37  F    4.340676   4.845288   4.970968   1.348561   2.172033
    38  H    6.874669   5.986838   7.986547   5.632412   6.578027
                   36         37         38
    36  F    0.000000
    37  F    2.186131   0.000000
    38  H    4.807496   6.437342   0.000000
 Symmetry turned off by external request.
 Stoichiometry    C11HF18N3O5
 Framework group  C1[X(C11HF18N3O5)]
 Deg. of freedom   108
 Full point group                 C1      NOp   1
 Rotational constants (GHZ):      0.2467270      0.0597679      0.0584528
 Leave Link  202 at Tue Mar  5 16:47:13 2024, MaxMem=  5368709120 cpu:         0.0
 (Enter /home/k0335/k033513/app/g09/l301.exe)
 Standard basis: 6-31G(d,p) (6D, 7F)
 Ernie: Thresh=  0.10000D-02 Tol=  0.10000D-05 Strict=F.
   560 basis functions,  1043 primitive gaussians,   560 cartesian basis functions
   145 alpha electrons      145 beta electrons
       nuclear repulsion energy      5441.9131098909 Hartrees.
 IExCor=20419 DFT=T Ex+Corr=CAM-B3LYP ExCW=0 ScaHFX=  1.000000
 ScaDFX=  1.000000  1.000000  1.000000  0.810000 ScalE2=  1.000000  1.000000
 IRadAn=      0 IRanWt=     -1 IRanGd=            0 ICorTp=0 IEmpDi=  4
  HFx wShort=  0.000000 wLong=  0.330000 cFull=  0.190000 cShort=  0.000000 cLong=  0.460000
  DFx wShort=  0.000000 wLong=  0.330000 cFull=  0.190000 cShort=  0.000000 cLong=  0.460000
 NAtoms=   38 NActive=   38 NUniq=   38 SFac= 1.00D+00 NAtFMM=   60 NAOKFM=F Big=F
 Integral buffers will be    131072 words long.
 Raffenetti 2 integral format.
 Two-electron integral symmetry is turned off.
 Using the following non-standard input for PCM:
 eps=2.05
 --- end of non-standard input.
 ------------------------------------------------------------------------------
 Polarizable Continuum Model (PCM)
 =================================
 Model                : PCM (using non-symmetric T matrix).
 Atomic radii         : UFF (Universal Force Field).
 Polarization charges : Total charges.
 Charge compensation  : None.
 Solution method      : On-the-fly selection.
 Cavity type          : Scaled VdW (van der Waals Surface) (Alpha=1.100).
 Cavity algorithm     : GePol (No added spheres)
                        Default sphere list used, NSphG=   38.
                        Lebedev-Laikov grids with approx.  5.0 points / Ang**2.
                        Smoothing algorithm: Karplus/York (Gamma=1.0000).
                        Polarization charges: spherical gaussians, with
                                              point-specific exponents (IZeta= 3).
                        Self-potential: point-specific (ISelfS= 7).
                        Self-field    : sphere-specific E.n sum rule (ISelfD= 2).
 Solvent              : Generic,
                        Eps                           =   2.050000
                        Eps(infinity)                 =   0.000000
                        RSolv                         =   0.000000 Ang.
                        Molar volume                  =   0.000000 cm**3/mol
                        Thermal expansion coefficient =   0.000000 K**-1
                        Absolute temperature          = 298.150000 K
                        Numeral density               =   0.000000 Ang**-3
                        Hydrogen bond acidity         =   0.000000
                        Hydrogen bond basicity        =   0.000000
                        Surface tension at interface  =   0.000000 (cal/mol)*Ang**-2
                        Carbon aromaticity            =   0.000000
                        Electronegative halogenicity  =   0.000000
 ------------------------------------------------------------------------------
 GePol: Number of generator spheres                  =      38
 GePol: Total number of spheres                      =      38
 GePol: Number of exposed spheres                    =      38 (100.00%)
 GePol: Number of points                             =    3246
 GePol: Average weight of points                     =       0.12
 GePol: Minimum weight of points                     =   0.34D-10
 GePol: Maximum weight of points                     =    0.20577
 GePol: Number of points with low weight             =     141
 GePol: Fraction of low-weight points (<1% of avg)   =       4.34%
 GePol: Cavity surface area                          =    401.222 Ang**2
 GePol: Cavity volume                                =    471.528 Ang**3
 Leave Link  301 at Tue Mar  5 16:47:13 2024, MaxMem=  5368709120 cpu:         0.7
 (Enter /home/k0335/k033513/app/g09/l302.exe)
 NPDir=0 NMtPBC=     1 NCelOv=     1 NCel=       1 NClECP=     1 NCelD=      1
         NCelK=      1 NCelE2=     1 NClLst=     1 CellRange=     0.0.
 One-electron integrals computed using PRISM.
 NBasis=   560 RedAO= T EigKep=  1.09D-03  NBF=   560
 NBsUse=   560 1.00D-06 EigRej= -1.00D+00 NBFU=   560
 Precomputing XC quadrature grid using
 IXCGrd= 4 IRadAn=           0 IRanWt=          -1 IRanGd=           0 AccXCQ= 0.00D+00.
 Generated NRdTot=       0 NPtTot=           0 NUsed=           0 NTot=          32
 NSgBfM=   545   545   545   545   545 MxSgAt=    38 MxSgA2=    38.
 Leave Link  302 at Tue Mar  5 16:47:15 2024, MaxMem=  5368709120 cpu:         9.7
 (Enter /home/k0335/k033513/app/g09/l303.exe)
 DipDrv:  MaxL=1.
 Leave Link  303 at Tue Mar  5 16:47:16 2024, MaxMem=  5368709120 cpu:         0.7
 (Enter /home/k0335/k033513/app/g09/l401.exe)
 ExpMin= 1.61D-01 ExpMax= 7.00D+03 ExpMxC= 1.05D+03 IAcc=1 IRadAn=         1 AccDes= 0.00D+00
 Harris functional with IExCor=20419 and IRadAn=       1 diagonalized for initial guess.
 HarFok:  IExCor=20419 AccDes= 0.00D+00 IRadAn=         1 IDoV= 1 UseB2=F ITyADJ=14
 ICtDFT=  3500011 ScaDFX=  1.000000  1.000000  1.000000  1.000000
 FoFCou: FMM=F IPFlag=           0 FMFlag=      100000 FMFlg1=           0
         NFxFlg=           0 DoJE=T BraDBF=F KetDBF=T FulRan=T
         wScrn=  0.000000 ICntrl=     500 IOpCl=  0 I1Cent=   200000004 NGrid=           0
         NMat0=    1 NMatS0=      1 NMatT0=    0 NMatD0=    1 NMtDS0=    0 NMtDT0=    0
 Symmetry not used in FoFCou.
 Harris En= -2675.09242212116    
 JPrj=0 DoOrth=F DoCkMO=F.
 Leave Link  401 at Tue Mar  5 16:47:17 2024, MaxMem=  5368709120 cpu:        11.4
 (Enter /home/k0335/k033513/app/g09/l502.exe)
 Closed shell SCF:
 Using DIIS extrapolation, IDIIS=  1040.
 Two-electron integral symmetry not used.
 IVT=      976226 IEndB=      976226 NGot=  5368709120 MDV=  5368063695
 LenX=  5368063695 LenY=  5367749535
 Requested convergence on RMS density matrix=1.00D-08 within 128 cycles.
 Requested convergence on MAX density matrix=1.00D-06.
 Requested convergence on             energy=1.00D-06.
 No special actions if energy rises.
 Fock matrices will be formed incrementally for  20 cycles.

 Cycle   1  Pass 1  IDiag  1:
 FoFJK:  IHMeth= 1 ICntrl=       0 DoSepK=T KAlg= 0 I1Cent=   0 FoldK=F
 IRaf=         1 NMat=   1 IRICut=       1 DoRegI=T DoRafI=F ISym2E= 0.
 FoFCou: FMM=F IPFlag=           0 FMFlag=      100000 FMFlg1=           0
         NFxFlg=           0 DoJE=T BraDBF=F KetDBF=F FulRan=T
         wScrn=  0.000000 ICntrl=     500 IOpCl=  0 I1Cent=           0 NGrid=           0
         NMat0=    1 NMatS0=      1 NMatT0=    0 NMatD0=    1 NMtDS0=    0 NMtDT0=    0
 Symmetry not used in FoFCou.
 Inv3:  Mode=1 IEnd=    31609548.
 Iteration    1 A*A^-1 deviation from unit magnitude is 4.88D-15 for   3234.
 Iteration    1 A*A^-1 deviation from orthogonality  is 3.22D-15 for   3243   2932.
 Iteration    1 A^-1*A deviation from unit magnitude is 5.00D-15 for   3242.
 Iteration    1 A^-1*A deviation from orthogonality  is 1.41D-15 for   2281   2171.
 E= -2755.61923697100    
 DIIS: error= 5.19D-02 at cycle   1 NSaved=   1.
 NSaved= 1 IEnMin= 1 EnMin= -2755.61923697100     IErMin= 1 ErrMin= 5.19D-02
 ErrMax= 5.19D-02  0.00D+00 EMaxC= 1.00D-01 BMatC= 2.28D+00 BMatP= 2.28D+00
 IDIUse=3 WtCom= 4.81D-01 WtEn= 5.19D-01
 Coeff-Com:  0.100D+01
 Coeff-En:   0.100D+01
 Coeff:      0.100D+01
 Gap=     0.444 Goal=   None    Shift=    0.000
 GapD=    0.444 DampG=2.000 DampE=0.500 DampFc=1.0000 IDamp=-1.
 RMSDP=3.33D-03 MaxDP=1.44D-01              OVMax= 2.34D-01

 Cycle   2  Pass 1  IDiag  1:
 RMSU=  3.33D-03    CP:  1.01D+00
 E= -2755.94765498235     Delta-E=       -0.328418011355 Rises=F Damp=F
 DIIS: error= 2.02D-02 at cycle   2 NSaved=   2.
 NSaved= 2 IEnMin= 2 EnMin= -2755.94765498235     IErMin= 2 ErrMin= 2.02D-02
 ErrMax= 2.02D-02  0.00D+00 EMaxC= 1.00D-01 BMatC= 9.09D-01 BMatP= 2.28D+00
 IDIUse=3 WtCom= 7.98D-01 WtEn= 2.02D-01
 Coeff-Com:  0.367D+00 0.633D+00
 Coeff-En:   0.357D+00 0.643D+00
 Coeff:      0.365D+00 0.635D+00
 Gap=     0.436 Goal=   None    Shift=    0.000
 RMSDP=1.84D-03 MaxDP=1.45D-01 DE=-3.28D-01 OVMax= 1.45D-01

 Cycle   3  Pass 1  IDiag  1:
 RMSU=  1.15D-03    CP:  1.00D+00  5.70D-01
 E= -2756.34420373040     Delta-E=       -0.396548748044 Rises=F Damp=F
 DIIS: error= 1.51D-02 at cycle   3 NSaved=   3.
 NSaved= 3 IEnMin= 3 EnMin= -2756.34420373040     IErMin= 3 ErrMin= 1.51D-02
 ErrMax= 1.51D-02  0.00D+00 EMaxC= 1.00D-01 BMatC= 2.52D-01 BMatP= 9.09D-01
 IDIUse=3 WtCom= 8.49D-01 WtEn= 1.51D-01
 Coeff-Com:  0.120D+00 0.362D+00 0.518D+00
 Coeff-En:   0.000D+00 0.227D+00 0.773D+00
 Coeff:      0.102D+00 0.341D+00 0.557D+00
 Gap=     0.399 Goal=   None    Shift=    0.000
 RMSDP=8.90D-04 MaxDP=7.75D-02 DE=-3.97D-01 OVMax= 1.13D-01

 Cycle   4  Pass 1  IDiag  1:
 RMSU=  3.56D-04    CP:  1.00D+00  6.91D-01  3.84D-01
 E= -2756.50329225134     Delta-E=       -0.159088520943 Rises=F Damp=F
 DIIS: error= 4.81D-03 at cycle   4 NSaved=   4.
 NSaved= 4 IEnMin= 4 EnMin= -2756.50329225134     IErMin= 4 ErrMin= 4.81D-03
 ErrMax= 4.81D-03  0.00D+00 EMaxC= 1.00D-01 BMatC= 2.67D-02 BMatP= 2.52D-01
 IDIUse=3 WtCom= 9.52D-01 WtEn= 4.81D-02
 Coeff-Com:  0.858D-02 0.940D-01 0.295D+00 0.602D+00
 Coeff-En:   0.000D+00 0.000D+00 0.708D-01 0.929D+00
 Coeff:      0.817D-02 0.894D-01 0.284D+00 0.618D+00
 Gap=     0.367 Goal=   None    Shift=    0.000
 RMSDP=2.83D-04 MaxDP=2.68D-02 DE=-1.59D-01 OVMax= 2.68D-02

 Cycle   5  Pass 1  IDiag  1:
 RMSU=  1.19D-04    CP:  1.00D+00  6.75D-01  5.76D-01  6.75D-01
 E= -2756.52072888368     Delta-E=       -0.017436632339 Rises=F Damp=F
 DIIS: error= 1.18D-03 at cycle   5 NSaved=   5.
 NSaved= 5 IEnMin= 5 EnMin= -2756.52072888368     IErMin= 5 ErrMin= 1.18D-03
 ErrMax= 1.18D-03  0.00D+00 EMaxC= 1.00D-01 BMatC= 1.86D-03 BMatP= 2.67D-02
 IDIUse=3 WtCom= 9.88D-01 WtEn= 1.18D-02
 Coeff-Com: -0.202D-02 0.266D-01 0.121D+00 0.343D+00 0.512D+00
 Coeff-En:   0.000D+00 0.000D+00 0.000D+00 0.000D+00 0.100D+01
 Coeff:     -0.200D-02 0.263D-01 0.119D+00 0.339D+00 0.518D+00
 Gap=     0.362 Goal=   None    Shift=    0.000
 RMSDP=6.30D-05 MaxDP=4.38D-03 DE=-1.74D-02 OVMax= 5.71D-03

 Cycle   6  Pass 1  IDiag  1:
 RMSU=  2.81D-05    CP:  1.00D+00  6.80D-01  5.59D-01  7.11D-01  5.99D-01
 E= -2756.52202644828     Delta-E=       -0.001297564602 Rises=F Damp=F
 DIIS: error= 1.16D-04 at cycle   6 NSaved=   6.
 NSaved= 6 IEnMin= 6 EnMin= -2756.52202644828     IErMin= 6 ErrMin= 1.16D-04
 ErrMax= 1.16D-04  0.00D+00 EMaxC= 1.00D-01 BMatC= 2.91D-05 BMatP= 1.86D-03
 IDIUse=3 WtCom= 9.99D-01 WtEn= 1.16D-03
 Coeff-Com: -0.713D-03-0.170D-02 0.132D-02 0.210D-01 0.127D+00 0.853D+00
 Coeff-En:   0.000D+00 0.000D+00 0.000D+00 0.000D+00 0.000D+00 0.100D+01
 Coeff:     -0.713D-03-0.170D-02 0.132D-02 0.210D-01 0.127D+00 0.853D+00
 Gap=     0.363 Goal=   None    Shift=    0.000
 RMSDP=1.29D-05 MaxDP=8.84D-04 DE=-1.30D-03 OVMax= 7.32D-04

 Cycle   7  Pass 1  IDiag  1:
 RMSU=  8.86D-06    CP:  1.00D+00  6.80D-01  5.62D-01  7.23D-01  6.59D-01
                    CP:  9.96D-01
 E= -2756.52204985245     Delta-E=       -0.000023404173 Rises=F Damp=F
 DIIS: error= 4.38D-05 at cycle   7 NSaved=   7.
 NSaved= 7 IEnMin= 7 EnMin= -2756.52204985245     IErMin= 7 ErrMin= 4.38D-05
 ErrMax= 4.38D-05  0.00D+00 EMaxC= 1.00D-01 BMatC= 4.54D-06 BMatP= 2.91D-05
 IDIUse=1 WtCom= 1.00D+00 WtEn= 0.00D+00
 Coeff-Com: -0.157D-03-0.256D-02-0.702D-02-0.131D-01 0.256D-01 0.373D+00
 Coeff-Com:  0.624D+00
 Coeff:     -0.157D-03-0.256D-02-0.702D-02-0.131D-01 0.256D-01 0.373D+00
 Coeff:      0.624D+00
 Gap=     0.363 Goal=   None    Shift=    0.000
 RMSDP=3.86D-06 MaxDP=2.87D-04 DE=-2.34D-05 OVMax= 3.31D-04

 Cycle   8  Pass 1  IDiag  1:
 RMSU=  2.47D-06    CP:  1.00D+00  6.80D-01  5.63D-01  7.23D-01  6.68D-01
                    CP:  1.06D+00  7.87D-01
 E= -2756.52205345181     Delta-E=       -0.000003599356 Rises=F Damp=F
 DIIS: error= 9.67D-06 at cycle   8 NSaved=   8.
 NSaved= 8 IEnMin= 8 EnMin= -2756.52205345181     IErMin= 8 ErrMin= 9.67D-06
 ErrMax= 9.67D-06  0.00D+00 EMaxC= 1.00D-01 BMatC= 3.17D-07 BMatP= 4.54D-06
 IDIUse=1 WtCom= 1.00D+00 WtEn= 0.00D+00
 Coeff-Com:  0.116D-04-0.800D-03-0.262D-02-0.737D-02-0.459D-02 0.338D-01
 Coeff-Com:  0.209D+00 0.773D+00
 Coeff:      0.116D-04-0.800D-03-0.262D-02-0.737D-02-0.459D-02 0.338D-01
 Coeff:      0.209D+00 0.773D+00
 Gap=     0.363 Goal=   None    Shift=    0.000
 RMSDP=1.49D-06 MaxDP=1.49D-04 DE=-3.60D-06 OVMax= 1.13D-04

 Cycle   9  Pass 1  IDiag  1:
 RMSU=  9.22D-07    CP:  1.00D+00  6.80D-01  5.63D-01  7.23D-01  6.72D-01
                    CP:  1.08D+00  8.56D-01  1.02D+00
 E= -2756.52205376049     Delta-E=       -0.000000308677 Rises=F Damp=F
 DIIS: error= 3.72D-06 at cycle   9 NSaved=   9.
 NSaved= 9 IEnMin= 9 EnMin= -2756.52205376049     IErMin= 9 ErrMin= 3.72D-06
 ErrMax= 3.72D-06  0.00D+00 EMaxC= 1.00D-01 BMatC= 4.33D-08 BMatP= 3.17D-07
 IDIUse=1 WtCom= 1.00D+00 WtEn= 0.00D+00
 Coeff-Com:  0.211D-04 0.209D-04-0.378D-04-0.117D-02-0.521D-02-0.394D-01
 Coeff-Com: -0.729D-03 0.300D+00 0.747D+00
 Coeff:      0.211D-04 0.209D-04-0.378D-04-0.117D-02-0.521D-02-0.394D-01
 Coeff:     -0.729D-03 0.300D+00 0.747D+00
 Gap=     0.363 Goal=   None    Shift=    0.000
 RMSDP=5.80D-07 MaxDP=4.82D-05 DE=-3.09D-07 OVMax= 5.52D-05

 Cycle  10  Pass 1  IDiag  1:
 RMSU=  3.17D-07    CP:  1.00D+00  6.80D-01  5.64D-01  7.23D-01  6.73D-01
                    CP:  1.09D+00  8.84D-01  1.12D+00  9.43D-01
 E= -2756.52205380347     Delta-E=       -0.000000042985 Rises=F Damp=F
 DIIS: error= 1.09D-06 at cycle  10 NSaved=  10.
 NSaved=10 IEnMin=10 EnMin= -2756.52205380347     IErMin=10 ErrMin= 1.09D-06
 ErrMax= 1.09D-06  0.00D+00 EMaxC= 1.00D-01 BMatC= 3.44D-09 BMatP= 4.33D-08
 IDIUse=1 WtCom= 1.00D+00 WtEn= 0.00D+00
 Coeff-Com:  0.590D-05 0.788D-04 0.238D-03 0.243D-03-0.129D-02-0.171D-01
 Coeff-Com: -0.189D-01 0.336D-01 0.261D+00 0.742D+00
 Coeff:      0.590D-05 0.788D-04 0.238D-03 0.243D-03-0.129D-02-0.171D-01
 Coeff:     -0.189D-01 0.336D-01 0.261D+00 0.742D+00
 Gap=     0.363 Goal=   None    Shift=    0.000
 RMSDP=1.63D-07 MaxDP=1.61D-05 DE=-4.30D-08 OVMax= 1.65D-05

 Cycle  11  Pass 1  IDiag  1:
 RMSU=  1.04D-07    CP:  1.00D+00  6.80D-01  5.64D-01  7.23D-01  6.73D-01
                    CP:  1.09D+00  8.90D-01  1.14D+00  1.01D+00  9.45D-01
 E= -2756.52205380630     Delta-E=       -0.000000002825 Rises=F Damp=F
 DIIS: error= 6.70D-07 at cycle  11 NSaved=  11.
 NSaved=11 IEnMin=11 EnMin= -2756.52205380630     IErMin=11 ErrMin= 6.70D-07
 ErrMax= 6.70D-07  0.00D+00 EMaxC= 1.00D-01 BMatC= 7.15D-10 BMatP= 3.44D-09
 IDIUse=1 WtCom= 1.00D+00 WtEn= 0.00D+00
 Coeff-Com:  0.104D-05 0.354D-04 0.123D-03 0.214D-03-0.737D-04-0.462D-02
 Coeff-Com: -0.845D-02-0.840D-02 0.625D-01 0.363D+00 0.596D+00
 Coeff:      0.104D-05 0.354D-04 0.123D-03 0.214D-03-0.737D-04-0.462D-02
 Coeff:     -0.845D-02-0.840D-02 0.625D-01 0.363D+00 0.596D+00
 Gap=     0.363 Goal=   None    Shift=    0.000
 RMSDP=5.07D-08 MaxDP=5.27D-06 DE=-2.82D-09 OVMax= 7.12D-06

 Cycle  12  Pass 1  IDiag  1:
 RMSU=  3.51D-08    CP:  1.00D+00  6.80D-01  5.64D-01  7.23D-01  6.73D-01
                    CP:  1.09D+00  8.90D-01  1.14D+00  1.03D+00  1.01D+00
                    CP:  8.14D-01
 E= -2756.52205380696     Delta-E=       -0.000000000666 Rises=F Damp=F
 DIIS: error= 3.47D-07 at cycle  12 NSaved=  12.
 NSaved=12 IEnMin=12 EnMin= -2756.52205380696     IErMin=12 ErrMin= 3.47D-07
 ErrMax= 3.47D-07  0.00D+00 EMaxC= 1.00D-01 BMatC= 8.00D-11 BMatP= 7.15D-10
 IDIUse=1 WtCom= 1.00D+00 WtEn= 0.00D+00
 Coeff-Com: -0.383D-06 0.350D-05 0.218D-04 0.588D-04 0.226D-03 0.740D-03
 Coeff-Com: -0.627D-03-0.909D-02-0.156D-01 0.300D-01 0.238D+00 0.756D+00
 Coeff:     -0.383D-06 0.350D-05 0.218D-04 0.588D-04 0.226D-03 0.740D-03
 Coeff:     -0.627D-03-0.909D-02-0.156D-01 0.300D-01 0.238D+00 0.756D+00
 Gap=     0.363 Goal=   None    Shift=    0.000
 RMSDP=2.21D-08 MaxDP=1.82D-06 DE=-6.66D-10 OVMax= 2.38D-06

 Cycle  13  Pass 1  IDiag  1:
 RMSU=  1.17D-08    CP:  1.00D+00  6.80D-01  5.64D-01  7.23D-01  6.73D-01
                    CP:  1.09D+00  8.91D-01  1.14D+00  1.03D+00  1.04D+00
                    CP:  9.20D-01  9.01D-01
 E= -2756.52205380707     Delta-E=       -0.000000000109 Rises=F Damp=F
 DIIS: error= 8.96D-08 at cycle  13 NSaved=  13.
 NSaved=13 IEnMin=13 EnMin= -2756.52205380707     IErMin=13 ErrMin= 8.96D-08
 ErrMax= 8.96D-08  0.00D+00 EMaxC= 1.00D-01 BMatC= 1.07D-11 BMatP= 8.00D-11
 IDIUse=1 WtCom= 1.00D+00 WtEn= 0.00D+00
 Coeff-Com: -0.238D-06-0.136D-05 0.653D-06 0.827D-05 0.116D-03 0.705D-03
 Coeff-Com:  0.390D-03-0.363D-02-0.132D-01-0.209D-01 0.507D-01 0.343D+00
 Coeff-Com:  0.643D+00
 Coeff:     -0.238D-06-0.136D-05 0.653D-06 0.827D-05 0.116D-03 0.705D-03
 Coeff:      0.390D-03-0.363D-02-0.132D-01-0.209D-01 0.507D-01 0.343D+00
 Coeff:      0.643D+00
 Gap=     0.363 Goal=   None    Shift=    0.000
 RMSDP=7.10D-09 MaxDP=6.55D-07 DE=-1.09D-10 OVMax= 7.97D-07

 Error on total polarization charges =  0.00080
 SCF Done:  E(RCAM-B3LYP) =  -2756.52205381     A.U. after   13 cycles
            NFock= 13  Conv=0.71D-08     -V/T= 2.0072
 KE= 2.736698602800D+03 PE=-1.740261655627D+04 EE= 6.467482789770D+03
 Leave Link  502 at Tue Mar  5 16:48:01 2024, MaxMem=  5368709120 cpu:      1001.0
 (Enter /home/k0335/k033513/app/g09/l601.exe)
 Copying SCF densities to generalized density rwf, IOpCl= 0 IROHF=0.

 **********************************************************************

            Population analysis using the SCF density.

 **********************************************************************

 Alpha  occ. eigenvalues --  -24.84774 -24.84339 -24.84283 -24.83889 -24.83861
 Alpha  occ. eigenvalues --  -24.83651 -24.83634 -24.83563 -24.83488 -24.83477
 Alpha  occ. eigenvalues --  -24.83367 -24.83195 -24.83140 -24.83095 -24.83055
 Alpha  occ. eigenvalues --  -24.83026 -24.82852 -24.82556 -19.33481 -19.33200
 Alpha  occ. eigenvalues --  -19.24896 -19.24399 -19.24292 -14.54196 -14.54121
 Alpha  occ. eigenvalues --  -14.50914 -10.59974 -10.59477 -10.55769 -10.55769
 Alpha  occ. eigenvalues --  -10.54262 -10.53865 -10.49521 -10.49405 -10.47802
 Alpha  occ. eigenvalues --  -10.46474 -10.46404  -1.43826  -1.43043  -1.42321
 Alpha  occ. eigenvalues --   -1.42269  -1.39488  -1.39315  -1.35921  -1.35816
 Alpha  occ. eigenvalues --   -1.34321  -1.33840  -1.33623  -1.33357  -1.33224
 Alpha  occ. eigenvalues --   -1.32996  -1.32637  -1.32488  -1.31958  -1.31732
 Alpha  occ. eigenvalues --   -1.24334  -1.20876  -1.20606  -1.18824  -1.18588
 Alpha  occ. eigenvalues --   -1.10966  -1.09624  -1.06849  -0.94255  -0.93483
 Alpha  occ. eigenvalues --   -0.86882  -0.85000  -0.82792  -0.81971  -0.81065
 Alpha  occ. eigenvalues --   -0.80438  -0.78084  -0.76286  -0.75306  -0.74604
 Alpha  occ. eigenvalues --   -0.73702  -0.72719  -0.71908  -0.71655  -0.70929
 Alpha  occ. eigenvalues --   -0.70541  -0.70162  -0.69504  -0.69175  -0.68663
 Alpha  occ. eigenvalues --   -0.68247  -0.68123  -0.67781  -0.66103  -0.65919
 Alpha  occ. eigenvalues --   -0.65155  -0.64544  -0.63422  -0.63222  -0.60286
 Alpha  occ. eigenvalues --   -0.59318  -0.57995  -0.57869  -0.57566  -0.57555
 Alpha  occ. eigenvalues --   -0.57278  -0.56981  -0.56859  -0.56527  -0.56258
 Alpha  occ. eigenvalues --   -0.55655  -0.55498  -0.55164  -0.55105  -0.54941
 Alpha  occ. eigenvalues --   -0.54775  -0.54424  -0.54319  -0.53981  -0.53739
 Alpha  occ. eigenvalues --   -0.53521  -0.53254  -0.52978  -0.52561  -0.52347
 Alpha  occ. eigenvalues --   -0.52094  -0.51933  -0.51741  -0.51386  -0.51110
 Alpha  occ. eigenvalues --   -0.51007  -0.50878  -0.50582  -0.50247  -0.50057
 Alpha  occ. eigenvalues --   -0.49957  -0.49395  -0.49201  -0.49096  -0.48723
 Alpha  occ. eigenvalues --   -0.48076  -0.46043  -0.45009  -0.44288  -0.40783
 Alpha  occ. eigenvalues --   -0.40105  -0.39942  -0.39520  -0.38360  -0.36458
 Alpha virt. eigenvalues --   -0.00121  -0.00069   0.04977   0.05511   0.06544
 Alpha virt. eigenvalues --    0.06935   0.10680   0.11453   0.13797   0.15486
 Alpha virt. eigenvalues --    0.16105   0.18388   0.19377   0.19800   0.20639
 Alpha virt. eigenvalues --    0.20705   0.21713   0.22191   0.22514   0.22782
 Alpha virt. eigenvalues --    0.22880   0.23474   0.23849   0.24037   0.24408
 Alpha virt. eigenvalues --    0.24706   0.25170   0.26648   0.26908   0.28369
 Alpha virt. eigenvalues --    0.29381   0.30577   0.30921   0.32554   0.33058
 Alpha virt. eigenvalues --    0.35174   0.35337   0.37840   0.38020   0.39059
 Alpha virt. eigenvalues --    0.44960   0.46442   0.47293   0.48855   0.49615
 Alpha virt. eigenvalues --    0.50335   0.51046   0.51629   0.51748   0.52929
 Alpha virt. eigenvalues --    0.53516   0.53997   0.54461   0.54769   0.55225
 Alpha virt. eigenvalues --    0.56103   0.56231   0.56885   0.58191   0.59075
 Alpha virt. eigenvalues --    0.59171   0.61065   0.61445   0.62579   0.63481
 Alpha virt. eigenvalues --    0.64310   0.66496   0.66988   0.69006   0.69408
 Alpha virt. eigenvalues --    0.70799   0.72550   0.73349   0.76462   0.78686
 Alpha virt. eigenvalues --    0.79388   0.80418   0.81229   0.82028   0.83654
 Alpha virt. eigenvalues --    0.84168   0.85094   0.86095   0.87809   0.88397
 Alpha virt. eigenvalues --    0.89360   0.90860   0.93444   0.94232   0.96357
 Alpha virt. eigenvalues --    0.97396   0.98770   1.00421   1.00905   1.01572
 Alpha virt. eigenvalues --    1.02892   1.03381   1.04444   1.04968   1.05538
 Alpha virt. eigenvalues --    1.06991   1.07673   1.09048   1.09759   1.10614
 Alpha virt. eigenvalues --    1.11502   1.11990   1.12572   1.13091   1.13897
 Alpha virt. eigenvalues --    1.14362   1.14706   1.15405   1.16010   1.16405
 Alpha virt. eigenvalues --    1.17328   1.17776   1.18104   1.18683   1.19381
 Alpha virt. eigenvalues --    1.19670   1.20702   1.21552   1.22227   1.23623
 Alpha virt. eigenvalues --    1.23834   1.25203   1.25472   1.26869   1.28824
 Alpha virt. eigenvalues --    1.29219   1.30050   1.30717   1.31237   1.31968
 Alpha virt. eigenvalues --    1.32916   1.33455   1.33680   1.34257   1.34630
 Alpha virt. eigenvalues --    1.35403   1.35448   1.36393   1.36615   1.37646
 Alpha virt. eigenvalues --    1.38240   1.38596   1.39178   1.39248   1.39848
 Alpha virt. eigenvalues --    1.40319   1.40487   1.40795   1.41335   1.41605
 Alpha virt. eigenvalues --    1.42155   1.43002   1.43149   1.43654   1.44533
 Alpha virt. eigenvalues --    1.46396   1.46776   1.47611   1.47953   1.48398
 Alpha virt. eigenvalues --    1.49021   1.51075   1.51501   1.51846   1.52962
 Alpha virt. eigenvalues --    1.53472   1.54407   1.54640   1.55321   1.56074
 Alpha virt. eigenvalues --    1.56421   1.58152   1.58788   1.59111   1.59840
 Alpha virt. eigenvalues --    1.60916   1.61265   1.61750   1.63168   1.64790
 Alpha virt. eigenvalues --    1.65623   1.66813   1.67446   1.67969   1.68382
 Alpha virt. eigenvalues --    1.69487   1.70855   1.71393   1.72391   1.72605
 Alpha virt. eigenvalues --    1.73822   1.74546   1.75135   1.75507   1.76519
 Alpha virt. eigenvalues --    1.77027   1.78369   1.78915   1.79527   1.80116
 Alpha virt. eigenvalues --    1.80850   1.81754   1.82188   1.82942   1.83909
 Alpha virt. eigenvalues --    1.84058   1.84610   1.84669   1.85185   1.85439
 Alpha virt. eigenvalues --    1.86229   1.86479   1.87035   1.87250   1.87727
 Alpha virt. eigenvalues --    1.87943   1.88129   1.88689   1.89560   1.90079
 Alpha virt. eigenvalues --    1.90646   1.90933   1.91159   1.91535   1.92904
 Alpha virt. eigenvalues --    1.93126   1.93618   1.93677   1.94069   1.94951
 Alpha virt. eigenvalues --    1.95836   1.96205   1.96727   1.97725   1.98027
 Alpha virt. eigenvalues --    1.98600   1.99258   1.99549   1.99707   2.00713
 Alpha virt. eigenvalues --    2.01182   2.01722   2.02095   2.02743   2.02865
 Alpha virt. eigenvalues --    2.03051   2.03280   2.03765   2.04088   2.04557
 Alpha virt. eigenvalues --    2.04659   2.05410   2.06029   2.06616   2.07783
 Alpha virt. eigenvalues --    2.07861   2.08511   2.09168   2.09784   2.10265
 Alpha virt. eigenvalues --    2.10759   2.11284   2.11573   2.12100   2.13620
 Alpha virt. eigenvalues --    2.14046   2.15588   2.16571   2.17992   2.18547
 Alpha virt. eigenvalues --    2.18727   2.19169   2.19712   2.20899   2.21388
 Alpha virt. eigenvalues --    2.21851   2.22330   2.22883   2.25174   2.25733
 Alpha virt. eigenvalues --    2.25956   2.28136   2.29535   2.29666   2.30823
 Alpha virt. eigenvalues --    2.31929   2.32763   2.34925   2.35346   2.36100
 Alpha virt. eigenvalues --    2.36612   2.37545   2.40408   2.42144   2.42390
 Alpha virt. eigenvalues --    2.44138   2.45172   2.45359   2.45940   2.46478
 Alpha virt. eigenvalues --    2.47604   2.48055   2.49357   2.50508   2.51752
 Alpha virt. eigenvalues --    2.53403   2.54378   2.55592   2.56489   2.59115
 Alpha virt. eigenvalues --    2.60224   2.61645   2.62119   2.63720   2.64191
 Alpha virt. eigenvalues --    2.64589   2.66258   2.67098   2.67552   2.68424
 Alpha virt. eigenvalues --    2.72249   2.74213   2.75548   2.75947   2.77837
 Alpha virt. eigenvalues --    2.78892   2.79868   2.82290   2.82902   2.84444
 Alpha virt. eigenvalues --    2.85537   2.86213   2.86951   2.87868   2.88126
 Alpha virt. eigenvalues --    2.89141   2.91090   2.91524   2.92110   2.94033
 Alpha virt. eigenvalues --    2.94488   2.96251   2.97085   2.98039   2.99623
 Alpha virt. eigenvalues --    3.01435   3.03790   3.04295   3.05507   3.05958
 Alpha virt. eigenvalues --    3.06386   3.06961   3.08962   3.10481   3.11027
 Alpha virt. eigenvalues --    3.12219   3.13576   3.15527   3.16654   3.18888
 Alpha virt. eigenvalues --    3.20215   3.21117   3.23471   3.23902   3.26184
 Alpha virt. eigenvalues --    3.28044   3.29563   3.30427   3.31988   3.36854
 Alpha virt. eigenvalues --    3.38081   3.46281   3.69137   3.99546   4.01525
 Alpha virt. eigenvalues --    4.11217   4.15800   4.18963   4.24414   4.28311
 Alpha virt. eigenvalues --    4.32308   4.36407   4.38448   4.39360   4.43152
 Alpha virt. eigenvalues --    4.46049   4.48630   4.55556   4.59114   4.63625
 Alpha virt. eigenvalues --    4.66802   4.73853   4.75189   4.85085   4.86938
 Alpha virt. eigenvalues --    4.98586   4.98872   5.04029   5.12292   5.15068
 Alpha virt. eigenvalues --    5.35712   5.46037   5.54140   5.65198   5.75441
 Alpha virt. eigenvalues --    5.86661   6.18809   6.26894   6.39602   6.68531
          Condensed to atoms (all electrons):
               1          2          3          4          5          6
     1  O    8.043722   0.612072  -0.091243   0.001552  -0.000026   0.000055
     2  C    0.612072   4.209937   0.251594  -0.020414   0.001680   0.002309
     3  N   -0.091243   0.251594   7.157467   0.249808  -0.092058  -0.099797
     4  C    0.001552  -0.020414   0.249808   4.199559   0.608761   0.170356
     5  O   -0.000026   0.001680  -0.092058   0.608761   8.050526  -0.087606
     6  N    0.000055   0.002309  -0.099797   0.170356  -0.087606   7.617973
     7  C    0.000000   0.000076   0.002086  -0.017578   0.011835   0.176423
     8  F    0.000000   0.000000  -0.000024   0.000549   0.000010  -0.036064
     9  F    0.000000   0.000004   0.000089   0.009361  -0.009564  -0.043137
    10  C    0.000000   0.000073  -0.000180  -0.002755   0.000427  -0.067522
    11  F    0.000000   0.000032  -0.000177   0.011437  -0.004211  -0.001526
    12  O    0.000000   0.000000   0.000000   0.000127  -0.000132   0.001939
    13  C    0.000000   0.000000   0.000000   0.000002   0.000004   0.000254
    14  F    0.000000   0.000000   0.000000   0.000000   0.000000  -0.000001
    15  F    0.000000   0.000000   0.000000   0.000000   0.000000   0.000000
    16  F    0.000000   0.000000   0.000000   0.000005   0.000000   0.000065
    17  C    0.000000  -0.000011   0.000019   0.000416   0.000104  -0.001266
    18  F    0.000000   0.000000   0.000000  -0.000001   0.000000  -0.000014
    19  F    0.000000   0.000028  -0.000010  -0.000018   0.000001  -0.001975
    20  F    0.000000   0.000000   0.000000   0.000000   0.000000  -0.000218
    21  C   -0.000350  -0.009013  -0.002844  -0.012197  -0.000288   0.182556
    22  O   -0.000029  -0.000243   0.000222  -0.000278  -0.000029  -0.086324
    23  N   -0.090469   0.165595  -0.101568   0.004533   0.000047  -0.095840
    24  C    0.015443  -0.016442   0.001595   0.000155   0.000001   0.001330
    25  F    0.000010   0.000567  -0.000022   0.000001   0.000000   0.000062
    26  F   -0.007837   0.008145   0.000025   0.000003   0.000000  -0.000027
    27  C   -0.001825  -0.003557  -0.000302   0.000051   0.000000  -0.000099
    28  F   -0.003999   0.007778   0.000022   0.000003   0.000000   0.000001
    29  O   -0.000006   0.000142   0.000000   0.000000   0.000000   0.000000
    30  C   -0.000044  -0.000049   0.000000   0.000000   0.000000   0.000000
    31  F    0.000000   0.000008   0.000000   0.000000   0.000000   0.000000
    32  F    0.000090  -0.000009   0.000000   0.000000   0.000000   0.000000
    33  F    0.000000   0.000000   0.000000   0.000000   0.000000   0.000000
    34  C   -0.000200  -0.000172   0.000016  -0.000003   0.000000  -0.000203
    35  F    0.000000   0.000004   0.000000   0.000000   0.000000   0.000000
    36  F   -0.000036   0.003549  -0.000216   0.000289   0.000000  -0.001730
    37  F    0.000000   0.000035   0.000000   0.000000   0.000000  -0.000001
    38  H    0.003110  -0.013264   0.337916  -0.013285   0.003268   0.004093
               7          8          9         10         11         12
     1  O    0.000000   0.000000   0.000000   0.000000   0.000000   0.000000
     2  C    0.000076   0.000000   0.000004   0.000073   0.000032   0.000000
     3  N    0.002086  -0.000024   0.000089  -0.000180  -0.000177   0.000000
     4  C   -0.017578   0.000549   0.009361  -0.002755   0.011437   0.000127
     5  O    0.011835   0.000010  -0.009564   0.000427  -0.004211  -0.000132
     6  N    0.176423  -0.036064  -0.043137  -0.067522  -0.001526   0.001939
     7  C    4.441000   0.263333   0.263992   0.188359  -0.027210  -0.034562
     8  F    0.263333   9.097301  -0.042446  -0.036933   0.000314   0.000131
     9  F    0.263992  -0.042446   9.111421  -0.024478  -0.000120  -0.002442
    10  C    0.188359  -0.036933  -0.024478   4.988484   0.250547   0.175007
    11  F   -0.027210   0.000314  -0.000120   0.250547   9.101043  -0.042880
    12  O   -0.034562   0.000131  -0.002442   0.175007  -0.042880   8.323447
    13  C   -0.005600   0.002482   0.002926  -0.001517   0.000238   0.237306
    14  F   -0.000412  -0.000014   0.000001  -0.007301  -0.000002  -0.047571
    15  F   -0.000143   0.000000  -0.000011   0.001322  -0.000002  -0.038313
    16  F    0.014143  -0.007998  -0.001137   0.002609  -0.000001  -0.047368
    17  C   -0.043942   0.010910   0.001828   0.178294  -0.013535  -0.030373
    18  F    0.001831   0.000000  -0.000001  -0.019535  -0.000784  -0.000470
    19  F    0.000496  -0.000424   0.000001  -0.024396  -0.001136   0.000589
    20  F    0.002584  -0.001699  -0.000003  -0.034426   0.000306  -0.000986
    21  C   -0.008158   0.005078   0.000358  -0.000641  -0.000138   0.000035
    22  O    0.011277  -0.013657   0.000020  -0.003709   0.000014   0.000000
    23  N    0.001063   0.000054  -0.000030  -0.000143  -0.000011   0.000000
    24  C    0.000006   0.000005   0.000000  -0.000001   0.000000   0.000000
    25  F    0.000004   0.000000   0.000000   0.000000   0.000000   0.000000
    26  F    0.000000   0.000000   0.000000   0.000000   0.000000   0.000000
    27  C    0.000000   0.000000   0.000000   0.000000   0.000000   0.000000
    28  F    0.000000   0.000000   0.000000   0.000000   0.000000   0.000000
    29  O    0.000000   0.000000   0.000000   0.000000   0.000000   0.000000
    30  C    0.000000   0.000000   0.000000   0.000000   0.000000   0.000000
    31  F    0.000000   0.000000   0.000000   0.000000   0.000000   0.000000
    32  F    0.000000   0.000000   0.000000   0.000000   0.000000   0.000000
    33  F    0.000000   0.000000   0.000000   0.000000   0.000000   0.000000
    34  C   -0.000001  -0.000003   0.000000   0.000000   0.000000   0.000000
    35  F    0.000000   0.000000   0.000000   0.000000   0.000000   0.000000
    36  F    0.000018  -0.000002   0.000000   0.000000   0.000000   0.000000
    37  F    0.000000   0.000000   0.000000   0.000000   0.000000   0.000000
    38  H   -0.000039   0.000000   0.000006   0.000001   0.000000   0.000000
              13         14         15         16         17         18
     1  O    0.000000   0.000000   0.000000   0.000000   0.000000   0.000000
     2  C    0.000000   0.000000   0.000000   0.000000  -0.000011   0.000000
     3  N    0.000000   0.000000   0.000000   0.000000   0.000019   0.000000
     4  C    0.000002   0.000000   0.000000   0.000005   0.000416  -0.000001
     5  O    0.000004   0.000000   0.000000   0.000000   0.000104   0.000000
     6  N    0.000254  -0.000001   0.000000   0.000065  -0.001266  -0.000014
     7  C   -0.005600  -0.000412  -0.000143   0.014143  -0.043942   0.001831
     8  F    0.002482  -0.000014   0.000000  -0.007998   0.010910   0.000000
     9  F    0.002926   0.000001  -0.000011  -0.001137   0.001828  -0.000001
    10  C   -0.001517  -0.007301   0.001322   0.002609   0.178294  -0.019535
    11  F    0.000238  -0.000002  -0.000002  -0.000001  -0.013535  -0.000784
    12  O    0.237306  -0.047571  -0.038313  -0.047368  -0.030373  -0.000470
    13  C    3.842830   0.301502   0.336573   0.299119  -0.005116   0.000101
    14  F    0.301502   9.054931  -0.037713  -0.034913   0.017940  -0.001225
    15  F    0.336573  -0.037713   9.010950  -0.037008  -0.000085  -0.000001
    16  F    0.299119  -0.034913  -0.037008   9.051000  -0.004046   0.000010
    17  C   -0.005116   0.017940  -0.000085  -0.004046   4.260723   0.273973
    18  F    0.000101  -0.001225  -0.000001   0.000010   0.273973   9.077563
    19  F    0.000086   0.000000   0.000000   0.000000   0.273644  -0.038645
    20  F    0.011652  -0.005549   0.000000  -0.000126   0.257724  -0.037109
    21  C    0.000004   0.000000   0.000000   0.000007   0.000929   0.000007
    22  O    0.000002   0.000000   0.000000   0.000000   0.005491  -0.000001
    23  N    0.000000   0.000000   0.000000   0.000000  -0.000040   0.000000
    24  C    0.000000   0.000000   0.000000   0.000000  -0.000001   0.000000
    25  F    0.000000   0.000000   0.000000   0.000000  -0.000002   0.000000
    26  F    0.000000   0.000000   0.000000   0.000000   0.000000   0.000000
    27  C    0.000000   0.000000   0.000000   0.000000   0.000000   0.000000
    28  F    0.000000   0.000000   0.000000   0.000000   0.000000   0.000000
    29  O    0.000000   0.000000   0.000000   0.000000   0.000000   0.000000
    30  C    0.000000   0.000000   0.000000   0.000000   0.000000   0.000000
    31  F    0.000000   0.000000   0.000000   0.000000   0.000000   0.000000
    32  F    0.000000   0.000000   0.000000   0.000000   0.000000   0.000000
    33  F    0.000000   0.000000   0.000000   0.000000   0.000000   0.000000
    34  C    0.000000   0.000000   0.000000   0.000000   0.000000   0.000000
    35  F    0.000000   0.000000   0.000000   0.000000   0.000000   0.000000
    36  F    0.000000   0.000000   0.000000   0.000000   0.000000   0.000000
    37  F    0.000000   0.000000   0.000000   0.000000   0.000000   0.000000
    38  H    0.000000   0.000000   0.000000   0.000000   0.000000   0.000000
              19         20         21         22         23         24
     1  O    0.000000   0.000000  -0.000350  -0.000029  -0.090469   0.015443
     2  C    0.000028   0.000000  -0.009013  -0.000243   0.165595  -0.016442
     3  N   -0.000010   0.000000  -0.002844   0.000222  -0.101568   0.001595
     4  C   -0.000018   0.000000  -0.012197  -0.000278   0.004533   0.000155
     5  O    0.000001   0.000000  -0.000288  -0.000029   0.000047   0.000001
     6  N   -0.001975  -0.000218   0.182556  -0.086324  -0.095840   0.001330
     7  C    0.000496   0.002584  -0.008158   0.011277   0.001063   0.000006
     8  F   -0.000424  -0.001699   0.005078  -0.013657   0.000054   0.000005
     9  F    0.000001  -0.000003   0.000358   0.000020  -0.000030   0.000000
    10  C   -0.024396  -0.034426  -0.000641  -0.003709  -0.000143  -0.000001
    11  F   -0.001136   0.000306  -0.000138   0.000014  -0.000011   0.000000
    12  O    0.000589  -0.000986   0.000035   0.000000   0.000000   0.000000
    13  C    0.000086   0.011652   0.000004   0.000002   0.000000   0.000000
    14  F    0.000000  -0.005549   0.000000   0.000000   0.000000   0.000000
    15  F    0.000000   0.000000   0.000000   0.000000   0.000000   0.000000
    16  F    0.000000  -0.000126   0.000007   0.000000   0.000000   0.000000
    17  C    0.273644   0.257724   0.000929   0.005491  -0.000040  -0.000001
    18  F   -0.038645  -0.037109   0.000007  -0.000001   0.000000   0.000000
    19  F    9.064223  -0.035097   0.016564  -0.006905  -0.000768   0.000050
    20  F   -0.035097   9.083302  -0.000312   0.000056  -0.000002   0.000000
    21  C    0.016564  -0.000312   4.257557   0.536038   0.173326  -0.008448
    22  O   -0.006905   0.000056   0.536038   8.130820  -0.086120   0.009314
    23  N   -0.000768  -0.000002   0.173326  -0.086120   7.665588   0.151760
    24  C    0.000050   0.000000  -0.008448   0.009314   0.151760   4.466436
    25  F   -0.000008   0.000000   0.005880  -0.014249  -0.038889   0.276800
    26  F    0.000000   0.000000   0.000470   0.000017  -0.048027   0.254897
    27  C    0.000000   0.000000  -0.002181  -0.003290  -0.056582   0.173771
    28  F    0.000000   0.000000  -0.000107   0.000002   0.000089  -0.027960
    29  O    0.000000   0.000000   0.000045   0.000003   0.001737  -0.028944
    30  C    0.000000   0.000000   0.000001   0.000000   0.000269  -0.003454
    31  F    0.000000   0.000000   0.000002   0.000000   0.000038   0.017228
    32  F    0.000000   0.000000  -0.000001   0.000000  -0.000044  -0.005395
    33  F    0.000000   0.000000   0.000000   0.000000   0.000000  -0.000032
    34  C    0.000000   0.000000   0.002328   0.004877  -0.003387  -0.037856
    35  F    0.000000   0.000000   0.000008  -0.000001  -0.000016   0.001562
    36  F    0.000000   0.000000   0.018609  -0.003467  -0.005510  -0.006972
    37  F    0.000000   0.000000   0.000228  -0.000253  -0.000869   0.006162
    38  H    0.000000   0.000000   0.000196   0.000005   0.004021  -0.000043
              25         26         27         28         29         30
     1  O    0.000010  -0.007837  -0.001825  -0.003999  -0.000006  -0.000044
     2  C    0.000567   0.008145  -0.003557   0.007778   0.000142  -0.000049
     3  N   -0.000022   0.000025  -0.000302   0.000022   0.000000   0.000000
     4  C    0.000001   0.000003   0.000051   0.000003   0.000000   0.000000
     5  O    0.000000   0.000000   0.000000   0.000000   0.000000   0.000000
     6  N    0.000062  -0.000027  -0.000099   0.000001   0.000000   0.000000
     7  C    0.000004   0.000000   0.000000   0.000000   0.000000   0.000000
     8  F    0.000000   0.000000   0.000000   0.000000   0.000000   0.000000
     9  F    0.000000   0.000000   0.000000   0.000000   0.000000   0.000000
    10  C    0.000000   0.000000   0.000000   0.000000   0.000000   0.000000
    11  F    0.000000   0.000000   0.000000   0.000000   0.000000   0.000000
    12  O    0.000000   0.000000   0.000000   0.000000   0.000000   0.000000
    13  C    0.000000   0.000000   0.000000   0.000000   0.000000   0.000000
    14  F    0.000000   0.000000   0.000000   0.000000   0.000000   0.000000
    15  F    0.000000   0.000000   0.000000   0.000000   0.000000   0.000000
    16  F    0.000000   0.000000   0.000000   0.000000   0.000000   0.000000
    17  C   -0.000002   0.000000   0.000000   0.000000   0.000000   0.000000
    18  F    0.000000   0.000000   0.000000   0.000000   0.000000   0.000000
    19  F   -0.000008   0.000000   0.000000   0.000000   0.000000   0.000000
    20  F    0.000000   0.000000   0.000000   0.000000   0.000000   0.000000
    21  C    0.005880   0.000470  -0.002181  -0.000107   0.000045   0.000001
    22  O   -0.014249   0.000017  -0.003290   0.000002   0.000003   0.000000
    23  N   -0.038889  -0.048027  -0.056582   0.000089   0.001737   0.000269
    24  C    0.276800   0.254897   0.173771  -0.027960  -0.028944  -0.003454
    25  F    9.082849  -0.042759  -0.032718   0.000301   0.000143  -0.000367
    26  F   -0.042759   9.120487  -0.023953   0.000207  -0.001792   0.012345
    27  C   -0.032718  -0.023953   4.997942   0.227271   0.155172  -0.001097
    28  F    0.000301   0.000207   0.227271   9.113909  -0.050237   0.000190
    29  O    0.000143  -0.001792   0.155172  -0.050237   8.355826   0.232329
    30  C   -0.000367   0.012345  -0.001097   0.000190   0.232329   3.821505
    31  F   -0.000413  -0.008459  -0.009972  -0.000018  -0.047298   0.303711
    32  F    0.000012  -0.002259   0.015263  -0.002768  -0.045092   0.296773
    33  F    0.000000  -0.000006   0.000764  -0.000024  -0.039431   0.338428
    34  C    0.003093   0.001295   0.224162  -0.010269  -0.020430   0.001065
    35  F   -0.000001  -0.000001  -0.026741  -0.000823   0.000228   0.000010
    36  F   -0.000104   0.000002  -0.026460  -0.000714   0.000620   0.000005
    37  F    0.000099   0.000001  -0.042240   0.000306   0.000656  -0.000040
    38  H    0.000000   0.000005   0.000001   0.000001   0.000000   0.000000
              31         32         33         34         35         36
     1  O    0.000000   0.000090   0.000000  -0.000200   0.000000  -0.000036
     2  C    0.000008  -0.000009   0.000000  -0.000172   0.000004   0.003549
     3  N    0.000000   0.000000   0.000000   0.000016   0.000000  -0.000216
     4  C    0.000000   0.000000   0.000000  -0.000003   0.000000   0.000289
     5  O    0.000000   0.000000   0.000000   0.000000   0.000000   0.000000
     6  N    0.000000   0.000000   0.000000  -0.000203   0.000000  -0.001730
     7  C    0.000000   0.000000   0.000000  -0.000001   0.000000   0.000018
     8  F    0.000000   0.000000   0.000000  -0.000003   0.000000  -0.000002
     9  F    0.000000   0.000000   0.000000   0.000000   0.000000   0.000000
    10  C    0.000000   0.000000   0.000000   0.000000   0.000000   0.000000
    11  F    0.000000   0.000000   0.000000   0.000000   0.000000   0.000000
    12  O    0.000000   0.000000   0.000000   0.000000   0.000000   0.000000
    13  C    0.000000   0.000000   0.000000   0.000000   0.000000   0.000000
    14  F    0.000000   0.000000   0.000000   0.000000   0.000000   0.000000
    15  F    0.000000   0.000000   0.000000   0.000000   0.000000   0.000000
    16  F    0.000000   0.000000   0.000000   0.000000   0.000000   0.000000
    17  C    0.000000   0.000000   0.000000   0.000000   0.000000   0.000000
    18  F    0.000000   0.000000   0.000000   0.000000   0.000000   0.000000
    19  F    0.000000   0.000000   0.000000   0.000000   0.000000   0.000000
    20  F    0.000000   0.000000   0.000000   0.000000   0.000000   0.000000
    21  C    0.000002  -0.000001   0.000000   0.002328   0.000008   0.018609
    22  O    0.000000   0.000000   0.000000   0.004877  -0.000001  -0.003467
    23  N    0.000038  -0.000044   0.000000  -0.003387  -0.000016  -0.005510
    24  C    0.017228  -0.005395  -0.000032  -0.037856   0.001562  -0.006972
    25  F   -0.000413   0.000012   0.000000   0.003093  -0.000001  -0.000104
    26  F   -0.008459  -0.002259  -0.000006   0.001295  -0.000001   0.000002
    27  C   -0.009972   0.015263   0.000764   0.224162  -0.026741  -0.026460
    28  F   -0.000018  -0.002768  -0.000024  -0.010269  -0.000823  -0.000714
    29  O   -0.047298  -0.045092  -0.039431  -0.020430   0.000228   0.000620
    30  C    0.303711   0.296773   0.338428   0.001065   0.000010   0.000005
    31  F    9.061098  -0.033661  -0.037964  -0.000131   0.000000   0.000000
    32  F   -0.033661   9.052391  -0.036613   0.000265   0.000000   0.000000
    33  F   -0.037964  -0.036613   9.014807  -0.000045   0.000000   0.000000
    34  C   -0.000131   0.000265  -0.000045   4.174725   0.300095   0.267858
    35  F    0.000000   0.000000   0.000000   0.300095   9.054209  -0.039153
    36  F    0.000000   0.000000   0.000000   0.267858  -0.039153   9.084966
    37  F    0.000001   0.000000   0.000000   0.286877  -0.039775  -0.036009
    38  H    0.000000   0.000000   0.000000   0.000000   0.000000  -0.000002
              37         38
     1  O    0.000000   0.003110
     2  C    0.000035  -0.013264
     3  N    0.000000   0.337916
     4  C    0.000000  -0.013285
     5  O    0.000000   0.003268
     6  N   -0.000001   0.004093
     7  C    0.000000  -0.000039
     8  F    0.000000   0.000000
     9  F    0.000000   0.000006
    10  C    0.000000   0.000001
    11  F    0.000000   0.000000
    12  O    0.000000   0.000000
    13  C    0.000000   0.000000
    14  F    0.000000   0.000000
    15  F    0.000000   0.000000
    16  F    0.000000   0.000000
    17  C    0.000000   0.000000
    18  F    0.000000   0.000000
    19  F    0.000000   0.000000
    20  F    0.000000   0.000000
    21  C    0.000228   0.000196
    22  O   -0.000253   0.000005
    23  N   -0.000869   0.004021
    24  C    0.006162  -0.000043
    25  F    0.000099   0.000000
    26  F    0.000001   0.000005
    27  C   -0.042240   0.000001
    28  F    0.000306   0.000001
    29  O    0.000656   0.000000
    30  C   -0.000040   0.000000
    31  F    0.000001   0.000000
    32  F    0.000000   0.000000
    33  F    0.000000   0.000000
    34  C    0.286877   0.000000
    35  F   -0.039775   0.000000
    36  F   -0.036009  -0.000002
    37  F    9.057070   0.000000
    38  H    0.000000   0.334930
 Mulliken charges:
               1
     1  O   -0.479992
     2  C    0.799544
     3  N   -0.612416
     4  C    0.809558
     5  O   -0.482749
     6  N   -0.634067
     7  C    0.759120
     8  F   -0.240901
     9  F   -0.266638
    10  C    0.438414
    11  F   -0.272199
    12  O   -0.493484
    13  C    0.977150
    14  F   -0.239674
    15  F   -0.235571
    16  F   -0.234361
    17  C    0.816421
    18  F   -0.255700
    19  F   -0.246300
    20  F   -0.240097
    21  C    0.844449
    22  O   -0.479602
    23  N   -0.639804
    24  C    0.759034
    25  F   -0.240289
    26  F   -0.262779
    27  C    0.436622
    28  F   -0.253163
    29  O   -0.513670
    30  C    0.998420
    31  F   -0.244169
    32  F   -0.238951
    33  F   -0.239884
    34  C    0.806043
    35  F   -0.249605
    36  F   -0.255540
    37  F   -0.232247
    38  H    0.339079
 Sum of Mulliken charges =   0.00000
 Mulliken charges with hydrogens summed into heavy atoms:
               1
     1  O   -0.479992
     2  C    0.799544
     3  N   -0.273337
     4  C    0.809558
     5  O   -0.482749
     6  N   -0.634067
     7  C    0.759120
     8  F   -0.240901
     9  F   -0.266638
    10  C    0.438414
    11  F   -0.272199
    12  O   -0.493484
    13  C    0.977150
    14  F   -0.239674
    15  F   -0.235571
    16  F   -0.234361
    17  C    0.816421
    18  F   -0.255700
    19  F   -0.246300
    20  F   -0.240097
    21  C    0.844449
    22  O   -0.479602
    23  N   -0.639804
    24  C    0.759034
    25  F   -0.240289
    26  F   -0.262779
    27  C    0.436622
    28  F   -0.253163
    29  O   -0.513670
    30  C    0.998420
    31  F   -0.244169
    32  F   -0.238951
    33  F   -0.239884
    34  C    0.806043
    35  F   -0.249605
    36  F   -0.255540
    37  F   -0.232247
 Electronic spatial extent (au):  <R**2>=          16965.6645
 Charge=              0.0000 electrons
 Dipole moment (field-independent basis, Debye):
    X=             -0.1563    Y=              0.3929    Z=             -1.2425  Tot=              1.3125
 Quadrupole moment (field-independent basis, Debye-Ang):
   XX=           -205.8168   YY=           -193.5681   ZZ=           -195.7308
   XY=             -0.9736   XZ=             -3.5646   YZ=              0.5226
 Traceless Quadrupole moment (field-independent basis, Debye-Ang):
   XX=             -7.4449   YY=              4.8038   ZZ=              2.6411
   XY=             -0.9736   XZ=             -3.5646   YZ=              0.5226
 Octapole moment (field-independent basis, Debye-Ang**2):
  XXX=             -9.6072  YYY=             14.3109  ZZZ=            -49.8148  XYY=             -7.1771
  XXY=            -11.3544  XXZ=             28.5949  XZZ=             11.1209  YZZ=              8.7596
  YYZ=            -14.5269  XYZ=              9.0544
 Hexadecapole moment (field-independent basis, Debye-Ang**3):
 XXXX=         -13654.4905 YYYY=          -1867.8014 ZZZZ=          -2150.8789 XXXY=           -693.9577
 XXXZ=            -22.9398 YYYX=           -730.5526 YYYZ=             83.4147 ZZZX=             -9.9201
 ZZZY=             58.6133 XXYY=          -2585.0439 XXZZ=          -2756.1273 YYZZ=           -674.5758
 XXYZ=             55.1382 YYXZ=             16.1139 ZZXY=           -256.1339
 N-N= 5.441913109891D+03 E-N=-1.740261655110D+04  KE= 2.736698602800D+03
 No NMR shielding tensors so no spin-rotation constants.
 Leave Link  601 at Tue Mar  5 16:48:02 2024, MaxMem=  5368709120 cpu:         2.3
 (Enter /home/k0335/k033513/app/g09/l9999.exe)
 1\1\GINC-C18U04N3\SP\RCAM-B3LYP\6-31G(d,p)\C11H1F18N3O5\K033513\05-Mar
 -2024\0\\#p CAM-B3LYP/6-31G(d,p) SCRF=(PCM,Solvent=Generic,Read) NoSym
 m out=wfn\\Title A949740_0\\0,1\O,0,2.275602,1.312915,-2.40594\C,0,1.2
 29568,0.945218,-1.884811\N,0,0.105619,0.843876,-2.637759\C,0,-1.079431
 ,0.343314,-2.203369\O,0,-2.067243,0.423675,-2.924645\N,0,-1.064097,-0.
 221503,-0.955253\C,0,-2.303464,-0.816986,-0.472682\F,0,-2.032289,-1.77
 6307,0.450394\F,0,-2.843509,-1.537155,-1.508604\C,0,-3.392076,0.16592,
 0.045017\F,0,-3.337846,1.306227,-0.731019\O,0,-4.740181,-0.282721,-0.1
 65809\C,0,-5.158262,-1.299921,0.706521\F,0,-5.332338,-0.796507,1.93741
 1\F,0,-6.330917,-1.790056,0.26809\F,0,-4.260321,-2.291318,0.743285\C,0
 ,-3.049859,0.604629,1.468035\F,0,-4.009825,1.426112,1.960541\F,0,-1.89
 532,1.310028,1.498303\F,0,-2.930588,-0.427075,2.32502\C,0,-0.007655,-0
 .057962,-0.089725\O,0,-0.045639,-0.501246,1.053969\N,0,1.098761,0.6081
 68,-0.564781\C,0,2.270603,0.775474,0.284751\F,0,1.906554,0.851222,1.59
 7312\F,0,2.749181,2.033216,0.035068\C,0,3.439545,-0.245732,0.150916\F,
 0,3.937365,-0.262819,-1.119899\O,0,4.565899,-0.045485,1.020521\C,0,5.1
 33567,1.23346,0.924388\F,0,4.441015,2.080966,1.703577\F,0,5.152379,1.6
 75377,-0.341333\F,0,6.398867,1.171827,1.38088\C,0,2.885811,-1.635681,0
 .445693\F,0,3.85108,-2.582852,0.331806\F,0,1.909147,-1.982049,-0.42819
 9\F,0,2.382409,-1.740485,1.692376\H,0,0.14789,1.182238,-3.590046\\Vers
 ion=ES64L-G09RevD.01\HF=-2756.5220538\RMSD=7.100e-09\Dipole=-0.0614864
 ,0.1545612,-0.4888552\Quadrupole=-5.5350841,3.5715112,1.9635729,-0.723
 85,-2.6501929,0.388532\PG=C01 [X(C11H1F18N3O5)]\\@

 Writing a WFN file to "A949740/A949740_0.wfn"


 IT IS DOUBTED WHETHER A MAN EVER BRINGS HIS FACULTIES TO BEAR WITH THEIR FULL FORCE
 ON A SUBJECT UNTIL HE WRITES UPON IT.

                          -- CICERO
 Job cpu time:       0 days  0 hours 17 minutes 21.2 seconds.
 File lengths (MBytes):  RWF=    341 Int=      0 D2E=      0 Chk=     13 Scr=      1
 Normal termination of Gaussian 09 at Tue Mar  5 16:48:02 2024.
