 Entering Gaussian System, Link 0=g09
 Initial command:
 /home/k0335/k033513/app/g09/l1.exe "/home/k0335/k033513/app/g09/scratch/Gau-618083.inp" -scrdir="/home/k0335/k033513/app/g09/scratch/"
 Default is to use a total of  36 processors:
                               36 via shared-memory
                                1 via Linda
 Entering Link 1 = /home/k0335/k033513/app/g09/l1.exe PID=    618084.
  
 Copyright (c) 1988,1990,1992,1993,1995,1998,2003,2009,2013,
            Gaussian, Inc.  All Rights Reserved.
  
 This is part of the Gaussian(R) 09 program.  It is based on
 the Gaussian(R) 03 system (copyright 2003, Gaussian, Inc.),
 the Gaussian(R) 98 system (copyright 1998, Gaussian, Inc.),
 the Gaussian(R) 94 system (copyright 1995, Gaussian, Inc.),
 the Gaussian 92(TM) system (copyright 1992, Gaussian, Inc.),
 the Gaussian 90(TM) system (copyright 1990, Gaussian, Inc.),
 the Gaussian 88(TM) system (copyright 1988, Gaussian, Inc.),
 the Gaussian 86(TM) system (copyright 1986, Carnegie Mellon
 University), and the Gaussian 82(TM) system (copyright 1983,
 Carnegie Mellon University). Gaussian is a federally registered
 trademark of Gaussian, Inc.
  
 This software contains proprietary and confidential information,
 including trade secrets, belonging to Gaussian, Inc.
  
 This software is provided under written license and may be
 used, copied, transmitted, or stored only in accord with that
 written license.
  
 The following legend is applicable only to US Government
 contracts under FAR:
  
                    RESTRICTED RIGHTS LEGEND
  
 Use, reproduction and disclosure by the US Government is
 subject to restrictions as set forth in subparagraphs (a)
 and (c) of the Commercial Computer Software - Restricted
 Rights clause in FAR 52.227-19.
  
 Gaussian, Inc.
 340 Quinnipiac St., Bldg. 40, Wallingford CT 06492
  
  
 ---------------------------------------------------------------
 Warning -- This program may not be used in any manner that
 competes with the business of Gaussian, Inc. or will provide
 assistance to any competitor of Gaussian, Inc.  The licensee
 of this program is prohibited from giving any competitor of
 Gaussian, Inc. access to this program.  By using this program,
 the user acknowledges that Gaussian, Inc. is engaged in the
 business of creating and licensing software in the field of
 computational chemistry and represents and warrants to the
 licensee that it is not a competitor of Gaussian, Inc. and that
 it will not use this program in any manner prohibited above.
 ---------------------------------------------------------------
  

 Cite this work as:
 Gaussian 09, Revision D.01,
 M. J. Frisch, G. W. Trucks, H. B. Schlegel, G. E. Scuseria, 
 M. A. Robb, J. R. Cheeseman, G. Scalmani, V. Barone, B. Mennucci, 
 G. A. Petersson, H. Nakatsuji, M. Caricato, X. Li, H. P. Hratchian, 
 A. F. Izmaylov, J. Bloino, G. Zheng, J. L. Sonnenberg, M. Hada, 
 M. Ehara, K. Toyota, R. Fukuda, J. Hasegawa, M. Ishida, T. Nakajima, 
 Y. Honda, O. Kitao, H. Nakai, T. Vreven, J. A. Montgomery, Jr., 
 J. E. Peralta, F. Ogliaro, M. Bearpark, J. J. Heyd, E. Brothers, 
 K. N. Kudin, V. N. Staroverov, T. Keith, R. Kobayashi, J. Normand, 
 K. Raghavachari, A. Rendell, J. C. Burant, S. S. Iyengar, J. Tomasi, 
 M. Cossi, N. Rega, J. M. Millam, M. Klene, J. E. Knox, J. B. Cross, 
 V. Bakken, C. Adamo, J. Jaramillo, R. Gomperts, R. E. Stratmann, 
 O. Yazyev, A. J. Austin, R. Cammi, C. Pomelli, J. W. Ochterski, 
 R. L. Martin, K. Morokuma, V. G. Zakrzewski, G. A. Voth, 
 P. Salvador, J. J. Dannenberg, S. Dapprich, A. D. Daniels, 
 O. Farkas, J. B. Foresman, J. V. Ortiz, J. Cioslowski, 
 and D. J. Fox, Gaussian, Inc., Wallingford CT, 2013.
 
 ******************************************
 Gaussian 09:  ES64L-G09RevD.01 24-Apr-2013
                 3-Mar-2024 
 ******************************************
 %nprocshared=24
 Will use up to   24 processors via shared memory.
 %mem=40GB
 %rwf=A153226992/A153226992_0.rwf
 %nosave
 %chk=A153226992/A153226992_0.chk
 ----------------------------------------------------------------------
 #p CAM-B3LYP/6-31G(d,p) SCRF=(PCM,Solvent=Generic,Read) NoSymm out=wfn
 ----------------------------------------------------------------------
 1/38=1,40=2/1;
 2/12=2,15=1,17=6,18=5,40=1/2;
 3/5=1,6=6,7=101,11=2,16=1,25=1,30=1,70=2203,72=-2,74=-40/1,2,3;
 4//1;
 5/5=2,38=5/2;
 6/7=2,8=2,9=2,10=2,28=1/1;
 99/5=1,6=100,9=1/99;
 Leave Link    1 at Sun Mar  3 17:24:17 2024, MaxMem=  5368709120 cpu:         1.2
 (Enter /home/k0335/k033513/app/g09/l101.exe)
 ------------------
 Title A153226992_0
 ------------------
 Symbolic Z-matrix:
 Charge =  0 Multiplicity = 1
 C                    -2.9839    2.38839   0.02651 
 N                    -2.29161   1.11337  -0.05799 
 C                    -2.78106   0.06363   0.68985 
 O                    -3.77703   0.17816   1.40571 
 N                    -2.05491  -1.10676   0.62669 
 C                    -2.49209  -2.22168   1.44999 
 C                    -0.82653  -1.1985    0.00635 
 O                    -0.07557  -2.1515    0.21534 
 N                    -0.47925  -0.15422  -0.81343 
 C                     0.81499  -0.213    -1.47511 
 F                     1.02051  -1.48651  -1.92373 
 F                     0.74295   0.51268  -2.62922 
 C                     2.02793   0.24926  -0.62416 
 F                     1.90995   1.58239  -0.35428 
 O                     1.9981   -0.39488   0.65443 
 C                     3.1793   -0.22493   1.39084 
 F                     4.12699  -1.04484   0.90964 
 F                     3.59993   1.04833   1.34565 
 F                     2.9331   -0.55346   2.6728 
 C                     3.25875   0.00588  -1.50935 
 F                     3.48571  -1.31188  -1.70928 
 F                     3.15876   0.58735  -2.72446 
 F                     4.38348   0.5094   -0.94415 
 C                    -1.07171   1.07685  -0.69916 
 O                    -0.53401   2.10423  -1.11031 
 H                    -2.61305   2.9245    0.90596 
 H                    -4.06301   2.23995   0.12957 
 H                    -2.79653   2.99404  -0.86527 
 H                    -2.1377   -3.17204   1.0396 
 H                    -3.58379  -2.25312   1.51578 
 H                    -2.0787   -2.09111   2.4552 
 
 NAtoms=     31 NQM=       31 NQMF=       0 NMMI=      0 NMMIF=      0
                NMic=       0 NMicF=      0.
                    Isotopes and Nuclear Properties:
 (Nuclear quadrupole moments (NQMom) in fm**2, nuclear magnetic moments (NMagM)
  in nuclear magnetons)

  Atom         1           2           3           4           5           6           7           8           9          10
 IAtWgt=          12          14          12          16          14          12          12          16          14          12
 AtmWgt=  12.0000000  14.0030740  12.0000000  15.9949146  14.0030740  12.0000000  12.0000000  15.9949146  14.0030740  12.0000000
 NucSpn=           0           2           0           0           2           0           0           0           2           0
 AtZEff=   0.0000000   0.0000000   0.0000000   0.0000000   0.0000000   0.0000000   0.0000000   0.0000000   0.0000000   0.0000000
 NQMom=    0.0000000   2.0440000   0.0000000   0.0000000   2.0440000   0.0000000   0.0000000   0.0000000   2.0440000   0.0000000
 NMagM=    0.0000000   0.4037610   0.0000000   0.0000000   0.4037610   0.0000000   0.0000000   0.0000000   0.4037610   0.0000000
 AtZNuc=   6.0000000   7.0000000   6.0000000   8.0000000   7.0000000   6.0000000   6.0000000   8.0000000   7.0000000   6.0000000

  Atom        11          12          13          14          15          16          17          18          19          20
 IAtWgt=          19          19          12          19          16          12          19          19          19          12
 AtmWgt=  18.9984033  18.9984033  12.0000000  18.9984033  15.9949146  12.0000000  18.9984033  18.9984033  18.9984033  12.0000000
 NucSpn=           1           1           0           1           0           0           1           1           1           0
 AtZEff=   0.0000000   0.0000000   0.0000000   0.0000000   0.0000000   0.0000000   0.0000000   0.0000000   0.0000000   0.0000000
 NQMom=    0.0000000   0.0000000   0.0000000   0.0000000   0.0000000   0.0000000   0.0000000   0.0000000   0.0000000   0.0000000
 NMagM=    2.6288670   2.6288670   0.0000000   2.6288670   0.0000000   0.0000000   2.6288670   2.6288670   2.6288670   0.0000000
 AtZNuc=   9.0000000   9.0000000   6.0000000   9.0000000   8.0000000   6.0000000   9.0000000   9.0000000   9.0000000   6.0000000

  Atom        21          22          23          24          25          26          27          28          29          30
 IAtWgt=          19          19          19          12          16           1           1           1           1           1
 AtmWgt=  18.9984033  18.9984033  18.9984033  12.0000000  15.9949146   1.0078250   1.0078250   1.0078250   1.0078250   1.0078250
 NucSpn=           1           1           1           0           0           1           1           1           1           1
 AtZEff=   0.0000000   0.0000000   0.0000000   0.0000000   0.0000000   0.0000000   0.0000000   0.0000000   0.0000000   0.0000000
 NQMom=    0.0000000   0.0000000   0.0000000   0.0000000   0.0000000   0.0000000   0.0000000   0.0000000   0.0000000   0.0000000
 NMagM=    2.6288670   2.6288670   2.6288670   0.0000000   0.0000000   2.7928460   2.7928460   2.7928460   2.7928460   2.7928460
 AtZNuc=   9.0000000   9.0000000   9.0000000   6.0000000   8.0000000   1.0000000   1.0000000   1.0000000   1.0000000   1.0000000

  Atom        31
 IAtWgt=           1
 AtmWgt=   1.0078250
 NucSpn=           1
 AtZEff=   0.0000000
 NQMom=    0.0000000
 NMagM=    2.7928460
 AtZNuc=   1.0000000
 Leave Link  101 at Sun Mar  3 17:24:17 2024, MaxMem=  5368709120 cpu:         0.7
 (Enter /home/k0335/k033513/app/g09/l202.exe)
                          Input orientation:                          
 ---------------------------------------------------------------------
 Center     Atomic      Atomic             Coordinates (Angstroms)
 Number     Number       Type             X           Y           Z
 ---------------------------------------------------------------------
      1          6           0       -2.983903    2.388394    0.026507
      2          7           0       -2.291611    1.113374   -0.057987
      3          6           0       -2.781058    0.063630    0.689854
      4          8           0       -3.777025    0.178156    1.405707
      5          7           0       -2.054905   -1.106764    0.626686
      6          6           0       -2.492090   -2.221678    1.449985
      7          6           0       -0.826529   -1.198498    0.006354
      8          8           0       -0.075566   -2.151496    0.215341
      9          7           0       -0.479249   -0.154218   -0.813432
     10          6           0        0.814990   -0.212996   -1.475112
     11          9           0        1.020509   -1.486509   -1.923727
     12          9           0        0.742947    0.512675   -2.629218
     13          6           0        2.027926    0.249261   -0.624163
     14          9           0        1.909951    1.582387   -0.354276
     15          8           0        1.998095   -0.394877    0.654425
     16          6           0        3.179295   -0.224925    1.390842
     17          9           0        4.126993   -1.044837    0.909643
     18          9           0        3.599930    1.048330    1.345647
     19          9           0        2.933096   -0.553455    2.672798
     20          6           0        3.258753    0.005878   -1.509347
     21          9           0        3.485714   -1.311875   -1.709282
     22          9           0        3.158762    0.587346   -2.724463
     23          9           0        4.383483    0.509399   -0.944150
     24          6           0       -1.071705    1.076852   -0.699157
     25          8           0       -0.534014    2.104228   -1.110315
     26          1           0       -2.613051    2.924499    0.905958
     27          1           0       -4.063011    2.239946    0.129567
     28          1           0       -2.796526    2.994039   -0.865266
     29          1           0       -2.137704   -3.172038    1.039601
     30          1           0       -3.583793   -2.253119    1.515782
     31          1           0       -2.078704   -2.091108    2.455198
 ---------------------------------------------------------------------
                    Distance matrix (angstroms):
                    1          2          3          4          5
     1  C    0.000000
     2  N    1.453301   0.000000
     3  C    2.426047   1.378690   0.000000
     4  O    2.723304   2.285495   1.231873   0.000000
     5  N    3.665976   2.335341   1.378808   2.285518   0.000000
     6  C    4.849839   3.665616   2.425682   2.722540   1.453267
     7  C    4.185745   2.737765   2.424938   3.543839   1.379179
     8  O    5.394876   3.955368   3.528687   4.532665   2.275621
     9  N    3.666560   2.337123   2.757835   3.988781   2.337515
    10  C    4.842900   3.663123   4.206562   5.434954   3.667789
    11  F    5.903694   4.605488   4.866790   6.072279   4.013351
    12  F    4.945767   4.022513   4.861738   6.068169   4.588188
    13  C    5.487959   4.441356   4.988730   6.150031   4.480283
    14  F    4.974379   4.238028   5.040079   6.116461   4.890184
    15  O    5.741183   4.602600   4.801228   5.851906   4.115138
    16  C    6.831973   5.815579   6.008366   6.968004   5.362688
    17  F    7.945555   6.840516   6.999870   8.013444   6.188680
    18  F    6.847099   6.056787   6.489739   7.428343   6.094136
    19  F    7.118160   6.126424   6.079837   6.867787   5.419675
    20  C    6.856091   5.842905   6.427996   7.617703   5.834001
    21  F    7.652509   6.479668   6.849839   8.041811   6.016417
    22  F    6.967348   6.090432   6.871194   8.082752   6.425148
    23  F    7.664931   6.760692   7.362019   8.498555   6.821462
    24  C    2.429657   1.378624   2.424429   3.543566   2.737283
    25  O    2.715708   2.275595   3.529002   4.534009   3.954839
    26  H    1.094703   2.076701   2.873934   3.024398   4.079289
    27  H    1.094135   2.107652   2.587214   2.441577   3.934474
    28  H    1.094155   2.107970   3.317519   3.748052   4.426342
    29  H    5.714964   4.426414   3.317495   3.747694   2.107774
    30  H    4.911359   3.934432   2.587251   2.441424   2.107634
    31  H    5.175313   4.078006   2.872740   3.022463   2.076766
                    6          7          8          9         10
     6  C    0.000000
     7  C    2.430033   0.000000
     8  O    2.714564   1.231189   0.000000
     9  N    3.667285   1.372288   2.282642   0.000000
    10  C    4.850544   2.420855   2.721857   1.454761   0.000000
    11  F    4.925521   2.686952   2.493832   2.292821   1.365770
    12  F    5.880650   3.512493   3.982372   2.288141   1.365192
    13  C    5.553213   3.262127   3.300467   2.546477   1.552098
    14  F    6.091324   3.918124   4.267156   2.989130   2.382984
    15  O    4.912421   3.007375   2.752921   2.889594   2.442897
    16  C    6.012913   4.348710   3.960757   4.271858   3.715343
    17  F    6.744567   5.037551   4.400938   4.997965   4.165139
    18  F    6.914951   5.141545   5.002574   4.769428   4.159749
    19  F    5.806107   4.654115   4.200581   4.894618   4.669844
    20  C    6.840457   4.520774   4.329722   3.805599   2.453784
    21  F    6.822232   4.642381   4.134229   4.226541   2.897436
    22  F    7.566291   5.150645   5.157963   4.175773   2.773931
    23  F    7.775871   5.564584   5.320517   4.909546   3.679391
    24  C    4.185284   2.394802   3.500119   1.370984   2.413593
    25  O    5.394688   3.498645   4.480929   2.278534   2.705996
    26  H    5.176266   4.582581   5.716774   4.121639   5.221574
    27  H    4.910945   4.723653   5.932271   4.411872   5.690941
    28  H    5.714610   4.713595   5.920124   3.909473   4.868268
    29  H    1.094161   2.584887   2.444038   3.910427   4.878331
    30  H    1.094136   3.315585   3.742877   4.412348   5.697091
    31  H    1.094710   2.891631   3.005523   4.122347   5.229542
                   11         12         13         14         15
    11  F    0.000000
    12  F    2.138105   0.000000
    13  C    2.390952   2.395997   0.000000
    14  F    3.559832   2.771560   1.365277   0.000000
    15  O    2.965502   3.630614   1.431988   2.221445   0.000000
    16  C    4.151905   4.758227   2.368702   2.814791   1.402294
    17  F    4.227683   5.138205   2.904020   3.662659   2.240489
    18  F    4.875205   4.924310   2.643834   2.455806   2.264180
    19  F    5.065237   5.834789   3.511928   3.843413   2.230068
    20  C    2.721886   2.800042   1.535487   2.374623   2.536094
    21  F    2.480669   3.420239   2.395783   3.563120   2.939559
    22  F    3.084506   2.418845   2.409222   2.857870   3.705239
    23  F    4.031478   4.011604   2.391383   2.760003   3.010520
    24  C    3.528137   2.708578   3.209088   3.043810   3.663583
    25  O    3.996445   2.543764   3.200122   2.610915   3.971323
    26  H    6.377058   5.438482   5.571071   4.883339   5.687196
    27  H    6.629077   5.804446   6.452166   6.028496   6.629840
    28  H    5.980419   4.668679   5.555832   4.940121   6.064866
    29  H    4.647217   5.944366   5.641442   6.397731   4.996581
    30  H    5.798061   6.599342   6.506355   6.956252   5.945795
    31  H    5.398671   6.371239   5.641294   6.107133   4.768676
                   16         17         18         19         20
    16  C    0.000000
    17  F    1.342363   0.000000
    18  F    1.341698   2.202100   0.000000
    19  F    1.346090   2.185306   2.184425   0.000000
    20  C    2.910443   2.776573   3.058447   4.231931   0.000000
    21  F    3.299412   2.709486   3.862150   4.481430   1.352020
    22  F    4.194752   4.099783   4.119822   5.521121   1.350781
    23  F    2.727909   2.432691   2.479430   4.039257   1.355728
    24  C    4.912608   5.840913   5.099628   5.483285   4.533901
    25  O    5.046722   5.976774   4.923024   5.778934   4.352859
    26  H    6.610995   7.822010   6.504957   6.780681   6.987856
    27  H    7.753541   8.858582   7.849807   7.950888   7.828495
    28  H    7.152775   8.209625   7.041915   7.611253   6.783093
    29  H    6.089279   6.617273   7.129209   5.936103   6.761511
    30  H    7.061766   7.828382   7.907869   6.833549   7.815044
    31  H    5.679969   6.480285   6.582861   5.246891   6.971615
                   21         22         23         24         25
    21  F    0.000000
    22  F    2.178194   0.000000
    23  F    2.169897   2.162298   0.000000
    24  C    5.243705   4.715754   5.490091   0.000000
    25  O    5.309118   4.306158   5.172317   1.230311   0.000000
    26  H    7.872819   7.208056   7.629357   2.892394   3.010082
    27  H    8.542836   7.939180   8.688551   3.314737   3.742933
    28  H    7.662884   6.686871   7.598170   2.584222   2.443517
    29  H    6.529885   7.506910   7.746878   4.713035   5.918863
    30  H    7.827190   8.456357   8.784091   4.722843   5.931611
    31  H    6.993772   7.837988   7.751004   4.582573   5.718373
                   26         27         28         29         30
    26  H    0.000000
    27  H    1.781511   0.000000
    28  H    1.782059   1.778295   0.000000
    29  H    6.116501   5.815887   6.487147   0.000000
    30  H    5.303014   4.726402   5.815655   1.778295   0.000000
    31  H    5.276550   5.301326   6.115511   1.782079   1.781584
                   31
    31  H    0.000000
 Symmetry turned off by external request.
 Stoichiometry    C9H6F9N3O4
 Framework group  C1[X(C9H6F9N3O4)]
 Deg. of freedom    87
 Full point group                 C1      NOp   1
 Rotational constants (GHZ):      0.3814952      0.1721120      0.1556842
 Leave Link  202 at Sun Mar  3 17:24:17 2024, MaxMem=  5368709120 cpu:         0.0
 (Enter /home/k0335/k033513/app/g09/l301.exe)
 Standard basis: 6-31G(d,p) (6D, 7F)
 Ernie: Thresh=  0.10000D-02 Tol=  0.10000D-05 Strict=F.
   405 basis functions,   742 primitive gaussians,   405 cartesian basis functions
    97 alpha electrons       97 beta electrons
       nuclear repulsion energy      2829.2035285771 Hartrees.
 IExCor=20419 DFT=T Ex+Corr=CAM-B3LYP ExCW=0 ScaHFX=  1.000000
 ScaDFX=  1.000000  1.000000  1.000000  0.810000 ScalE2=  1.000000  1.000000
 IRadAn=      0 IRanWt=     -1 IRanGd=            0 ICorTp=0 IEmpDi=  4
  HFx wShort=  0.000000 wLong=  0.330000 cFull=  0.190000 cShort=  0.000000 cLong=  0.460000
  DFx wShort=  0.000000 wLong=  0.330000 cFull=  0.190000 cShort=  0.000000 cLong=  0.460000
 NAtoms=   31 NActive=   31 NUniq=   31 SFac= 1.00D+00 NAtFMM=   60 NAOKFM=F Big=F
 Integral buffers will be    131072 words long.
 Raffenetti 2 integral format.
 Two-electron integral symmetry is turned off.
 Using the following non-standard input for PCM:
 eps=4.9
 --- end of non-standard input.
 ------------------------------------------------------------------------------
 Polarizable Continuum Model (PCM)
 =================================
 Model                : PCM (using non-symmetric T matrix).
 Atomic radii         : UFF (Universal Force Field).
 Polarization charges : Total charges.
 Charge compensation  : None.
 Solution method      : On-the-fly selection.
 Cavity type          : Scaled VdW (van der Waals Surface) (Alpha=1.100).
 Cavity algorithm     : GePol (No added spheres)
                        Default sphere list used, NSphG=   31.
                        Lebedev-Laikov grids with approx.  5.0 points / Ang**2.
                        Smoothing algorithm: Karplus/York (Gamma=1.0000).
                        Polarization charges: spherical gaussians, with
                                              point-specific exponents (IZeta= 3).
                        Self-potential: point-specific (ISelfS= 7).
                        Self-field    : sphere-specific E.n sum rule (ISelfD= 2).
 Solvent              : Generic,
                        Eps                           =   4.900000
                        Eps(infinity)                 =   0.000000
                        RSolv                         =   0.000000 Ang.
                        Molar volume                  =   0.000000 cm**3/mol
                        Thermal expansion coefficient =   0.000000 K**-1
                        Absolute temperature          = 298.150000 K
                        Numeral density               =   0.000000 Ang**-3
                        Hydrogen bond acidity         =   0.000000
                        Hydrogen bond basicity        =   0.000000
                        Surface tension at interface  =   0.000000 (cal/mol)*Ang**-2
                        Carbon aromaticity            =   0.000000
                        Electronegative halogenicity  =   0.000000
 ------------------------------------------------------------------------------
 GePol: Number of generator spheres                  =      31
 GePol: Total number of spheres                      =      31
 GePol: Number of exposed spheres                    =      31 (100.00%)
 GePol: Number of points                             =    2544
 GePol: Average weight of points                     =       0.13
 GePol: Minimum weight of points                     =   0.11D-08
 GePol: Maximum weight of points                     =    0.20577
 GePol: Number of points with low weight             =     119
 GePol: Fraction of low-weight points (<1% of avg)   =       4.68%
 GePol: Cavity surface area                          =    324.165 Ang**2
 GePol: Cavity volume                                =    361.252 Ang**3
 Leave Link  301 at Sun Mar  3 17:24:17 2024, MaxMem=  5368709120 cpu:         0.7
 (Enter /home/k0335/k033513/app/g09/l302.exe)
 NPDir=0 NMtPBC=     1 NCelOv=     1 NCel=       1 NClECP=     1 NCelD=      1
         NCelK=      1 NCelE2=     1 NClLst=     1 CellRange=     0.0.
 One-electron integrals computed using PRISM.
 NBasis=   405 RedAO= T EigKep=  1.22D-03  NBF=   405
 NBsUse=   405 1.00D-06 EigRej= -1.00D+00 NBFU=   405
 Precomputing XC quadrature grid using
 IXCGrd= 4 IRadAn=           0 IRanWt=          -1 IRanGd=           0 AccXCQ= 0.00D+00.
 Generated NRdTot=       0 NPtTot=           0 NUsed=           0 NTot=          32
 NSgBfM=   399   399   400   400   400 MxSgAt=    31 MxSgA2=    31.
 Leave Link  302 at Sun Mar  3 17:24:18 2024, MaxMem=  5368709120 cpu:         5.7
 (Enter /home/k0335/k033513/app/g09/l303.exe)
 DipDrv:  MaxL=1.
 Leave Link  303 at Sun Mar  3 17:24:18 2024, MaxMem=  5368709120 cpu:         0.5
 (Enter /home/k0335/k033513/app/g09/l401.exe)
 ExpMin= 1.61D-01 ExpMax= 7.00D+03 ExpMxC= 1.05D+03 IAcc=1 IRadAn=         1 AccDes= 0.00D+00
 Harris functional with IExCor=20419 and IRadAn=       1 diagonalized for initial guess.
 HarFok:  IExCor=20419 AccDes= 0.00D+00 IRadAn=         1 IDoV= 1 UseB2=F ITyADJ=14
 ICtDFT=  3500011 ScaDFX=  1.000000  1.000000  1.000000  1.000000
 FoFCou: FMM=F IPFlag=           0 FMFlag=      100000 FMFlg1=           0
         NFxFlg=           0 DoJE=T BraDBF=F KetDBF=T FulRan=T
         wScrn=  0.000000 ICntrl=     500 IOpCl=  0 I1Cent=   200000004 NGrid=           0
         NMat0=    1 NMatS0=      1 NMatT0=    0 NMatD0=    1 NMtDS0=    0 NMtDT0=    0
 Symmetry not used in FoFCou.
 Harris En= -1657.02998324754    
 JPrj=0 DoOrth=F DoCkMO=F.
 Leave Link  401 at Sun Mar  3 17:24:18 2024, MaxMem=  5368709120 cpu:         7.1
 (Enter /home/k0335/k033513/app/g09/l502.exe)
 Closed shell SCF:
 Using DIIS extrapolation, IDIIS=  1040.
 Two-electron integral symmetry not used.
 IVT=      522837 IEndB=      522837 NGot=  5368709120 MDV=  5368367354
 LenX=  5368367354 LenY=  5368202888
 Requested convergence on RMS density matrix=1.00D-08 within 128 cycles.
 Requested convergence on MAX density matrix=1.00D-06.
 Requested convergence on             energy=1.00D-06.
 No special actions if energy rises.
 Fock matrices will be formed incrementally for  20 cycles.

 Cycle   1  Pass 1  IDiag  1:
 FoFJK:  IHMeth= 1 ICntrl=       0 DoSepK=T KAlg= 0 I1Cent=   0 FoldK=F
 IRaf=         1 NMat=   1 IRICut=       1 DoRegI=T DoRafI=F ISym2E= 0.
 FoFCou: FMM=F IPFlag=           0 FMFlag=      100000 FMFlg1=           0
         NFxFlg=           0 DoJE=T BraDBF=F KetDBF=F FulRan=T
         wScrn=  0.000000 ICntrl=     500 IOpCl=  0 I1Cent=           0 NGrid=           0
         NMat0=    1 NMatS0=      1 NMatT0=    0 NMatD0=    1 NMtDS0=    0 NMtDT0=    0
 Symmetry not used in FoFCou.
 Inv3:  Mode=1 IEnd=    19415808.
 Iteration    1 A*A^-1 deviation from unit magnitude is 5.22D-15 for   2535.
 Iteration    1 A*A^-1 deviation from orthogonality  is 2.27D-15 for   2531    269.
 Iteration    1 A^-1*A deviation from unit magnitude is 6.44D-15 for    244.
 Iteration    1 A^-1*A deviation from orthogonality  is 6.67D-13 for   2468   2451.
 E= -1709.26204600004    
 DIIS: error= 3.67D-02 at cycle   1 NSaved=   1.
 NSaved= 1 IEnMin= 1 EnMin= -1709.26204600004     IErMin= 1 ErrMin= 3.67D-02
 ErrMax= 3.67D-02  0.00D+00 EMaxC= 1.00D-01 BMatC= 1.40D+00 BMatP= 1.40D+00
 IDIUse=3 WtCom= 6.33D-01 WtEn= 3.67D-01
 Coeff-Com:  0.100D+01
 Coeff-En:   0.100D+01
 Coeff:      0.100D+01
 Gap=     0.460 Goal=   None    Shift=    0.000
 GapD=    0.460 DampG=2.000 DampE=0.500 DampFc=1.0000 IDamp=-1.
 RMSDP=3.58D-03 MaxDP=1.32D-01              OVMax= 1.72D-01

 Cycle   2  Pass 1  IDiag  1:
 RMSU=  3.58D-03    CP:  1.01D+00
 E= -1709.42600747662     Delta-E=       -0.163961476580 Rises=F Damp=F
 DIIS: error= 1.75D-02 at cycle   2 NSaved=   2.
 NSaved= 2 IEnMin= 2 EnMin= -1709.42600747662     IErMin= 2 ErrMin= 1.75D-02
 ErrMax= 1.75D-02  0.00D+00 EMaxC= 1.00D-01 BMatC= 5.76D-01 BMatP= 1.40D+00
 IDIUse=3 WtCom= 8.25D-01 WtEn= 1.75D-01
 Coeff-Com:  0.369D+00 0.631D+00
 Coeff-En:   0.390D+00 0.610D+00
 Coeff:      0.373D+00 0.627D+00
 Gap=     0.439 Goal=   None    Shift=    0.000
 RMSDP=2.04D-03 MaxDP=1.15D-01 DE=-1.64D-01 OVMax= 1.28D-01

 Cycle   3  Pass 1  IDiag  1:
 RMSU=  1.27D-03    CP:  1.00D+00  5.56D-01
 E= -1709.69416706074     Delta-E=       -0.268159584115 Rises=F Damp=F
 DIIS: error= 1.49D-02 at cycle   3 NSaved=   3.
 NSaved= 3 IEnMin= 3 EnMin= -1709.69416706074     IErMin= 3 ErrMin= 1.49D-02
 ErrMax= 1.49D-02  0.00D+00 EMaxC= 1.00D-01 BMatC= 1.65D-01 BMatP= 5.76D-01
 IDIUse=3 WtCom= 8.51D-01 WtEn= 1.49D-01
 Coeff-Com:  0.111D+00 0.359D+00 0.530D+00
 Coeff-En:   0.000D+00 0.231D+00 0.769D+00
 Coeff:      0.943D-01 0.340D+00 0.566D+00
 Gap=     0.380 Goal=   None    Shift=    0.000
 RMSDP=9.63D-04 MaxDP=5.70D-02 DE=-2.68D-01 OVMax= 8.49D-02

 Cycle   4  Pass 1  IDiag  1:
 RMSU=  3.94D-04    CP:  1.01D+00  6.83D-01  4.08D-01
 E= -1709.80239278444     Delta-E=       -0.108225723699 Rises=F Damp=F
 DIIS: error= 4.64D-03 at cycle   4 NSaved=   4.
 NSaved= 4 IEnMin= 4 EnMin= -1709.80239278444     IErMin= 4 ErrMin= 4.64D-03
 ErrMax= 4.64D-03  0.00D+00 EMaxC= 1.00D-01 BMatC= 1.50D-02 BMatP= 1.65D-01
 IDIUse=3 WtCom= 9.54D-01 WtEn= 4.64D-02
 Coeff-Com:  0.541D-02 0.905D-01 0.286D+00 0.619D+00
 Coeff-En:   0.000D+00 0.000D+00 0.395D-01 0.961D+00
 Coeff:      0.516D-02 0.863D-01 0.274D+00 0.634D+00
 Gap=     0.370 Goal=   None    Shift=    0.000
 RMSDP=2.74D-04 MaxDP=1.62D-02 DE=-1.08D-01 OVMax= 1.83D-02

 Cycle   5  Pass 1  IDiag  1:
 RMSU=  1.11D-04    CP:  1.00D+00  6.70D-01  5.77D-01  6.93D-01
 E= -1709.81229711398     Delta-E=       -0.009904329540 Rises=F Damp=F
 DIIS: error= 8.57D-04 at cycle   5 NSaved=   5.
 NSaved= 5 IEnMin= 5 EnMin= -1709.81229711398     IErMin= 5 ErrMin= 8.57D-04
 ErrMax= 8.57D-04  0.00D+00 EMaxC= 1.00D-01 BMatC= 8.20D-04 BMatP= 1.50D-02
 IDIUse=3 WtCom= 9.91D-01 WtEn= 8.57D-03
 Coeff-Com: -0.173D-02 0.283D-01 0.116D+00 0.336D+00 0.522D+00
 Coeff-En:   0.000D+00 0.000D+00 0.000D+00 0.000D+00 0.100D+01
 Coeff:     -0.171D-02 0.281D-01 0.115D+00 0.333D+00 0.526D+00
 Gap=     0.368 Goal=   None    Shift=    0.000
 RMSDP=5.77D-05 MaxDP=2.87D-03 DE=-9.90D-03 OVMax= 3.67D-03

 Cycle   6  Pass 1  IDiag  1:
 RMSU=  3.17D-05    CP:  1.01D+00  6.75D-01  5.65D-01  7.24D-01  6.36D-01
 E= -1709.81286660106     Delta-E=       -0.000569487082 Rises=F Damp=F
 DIIS: error= 1.57D-04 at cycle   6 NSaved=   6.
 NSaved= 6 IEnMin= 6 EnMin= -1709.81286660106     IErMin= 6 ErrMin= 1.57D-04
 ErrMax= 1.57D-04  0.00D+00 EMaxC= 1.00D-01 BMatC= 1.97D-05 BMatP= 8.20D-04
 IDIUse=3 WtCom= 9.98D-01 WtEn= 1.57D-03
 Coeff-Com: -0.746D-03-0.216D-02-0.102D-03 0.197D-01 0.146D+00 0.837D+00
 Coeff-En:   0.000D+00 0.000D+00 0.000D+00 0.000D+00 0.000D+00 0.100D+01
 Coeff:     -0.745D-03-0.216D-02-0.102D-03 0.197D-01 0.146D+00 0.837D+00
 Gap=     0.368 Goal=   None    Shift=    0.000
 RMSDP=1.39D-05 MaxDP=7.35D-04 DE=-5.69D-04 OVMax= 8.44D-04

 Cycle   7  Pass 1  IDiag  1:
 RMSU=  9.06D-06    CP:  1.01D+00  6.74D-01  5.68D-01  7.37D-01  7.11D-01
                    CP:  9.91D-01
 E= -1709.81288332744     Delta-E=       -0.000016726377 Rises=F Damp=F
 DIIS: error= 5.96D-05 at cycle   7 NSaved=   7.
 NSaved= 7 IEnMin= 7 EnMin= -1709.81288332744     IErMin= 7 ErrMin= 5.96D-05
 ErrMax= 5.96D-05  0.00D+00 EMaxC= 1.00D-01 BMatC= 3.11D-06 BMatP= 1.97D-05
 IDIUse=1 WtCom= 1.00D+00 WtEn= 0.00D+00
 Coeff-Com: -0.130D-03-0.314D-02-0.861D-02-0.169D-01 0.266D-01 0.366D+00
 Coeff-Com:  0.636D+00
 Coeff:     -0.130D-03-0.314D-02-0.861D-02-0.169D-01 0.266D-01 0.366D+00
 Coeff:      0.636D+00
 Gap=     0.368 Goal=   None    Shift=    0.000
 RMSDP=4.36D-06 MaxDP=2.13D-04 DE=-1.67D-05 OVMax= 3.10D-04

 Cycle   8  Pass 1  IDiag  1:
 RMSU=  2.77D-06    CP:  1.01D+00  6.74D-01  5.69D-01  7.37D-01  7.23D-01
                    CP:  1.07D+00  8.14D-01
 E= -1709.81288617746     Delta-E=       -0.000002850024 Rises=F Damp=F
 DIIS: error= 9.13D-06 at cycle   8 NSaved=   8.
 NSaved= 8 IEnMin= 8 EnMin= -1709.81288617746     IErMin= 8 ErrMin= 9.13D-06
 ErrMax= 9.13D-06  0.00D+00 EMaxC= 1.00D-01 BMatC= 1.64D-07 BMatP= 3.11D-06
 IDIUse=1 WtCom= 1.00D+00 WtEn= 0.00D+00
 Coeff-Com:  0.188D-04-0.779D-03-0.241D-02-0.720D-02-0.643D-02 0.185D-01
 Coeff-Com:  0.160D+00 0.838D+00
 Coeff:      0.188D-04-0.779D-03-0.241D-02-0.720D-02-0.643D-02 0.185D-01
 Coeff:      0.160D+00 0.838D+00
 Gap=     0.368 Goal=   None    Shift=    0.000
 RMSDP=1.73D-06 MaxDP=1.22D-04 DE=-2.85D-06 OVMax= 1.44D-04

 Cycle   9  Pass 1  IDiag  1:
 RMSU=  9.91D-07    CP:  1.01D+00  6.74D-01  5.69D-01  7.37D-01  7.29D-01
                    CP:  1.09D+00  9.04D-01  1.10D+00
 E= -1709.81288636692     Delta-E=       -0.000000189457 Rises=F Damp=F
 DIIS: error= 4.56D-06 at cycle   9 NSaved=   9.
 NSaved= 9 IEnMin= 9 EnMin= -1709.81288636692     IErMin= 9 ErrMin= 4.56D-06
 ErrMax= 4.56D-06  0.00D+00 EMaxC= 1.00D-01 BMatC= 4.38D-08 BMatP= 1.64D-07
 IDIUse=1 WtCom= 1.00D+00 WtEn= 0.00D+00
 Coeff-Com:  0.242D-04 0.114D-03 0.260D-03-0.845D-03-0.707D-02-0.494D-01
 Coeff-Com: -0.217D-01 0.402D+00 0.677D+00
 Coeff:      0.242D-04 0.114D-03 0.260D-03-0.845D-03-0.707D-02-0.494D-01
 Coeff:     -0.217D-01 0.402D+00 0.677D+00
 Gap=     0.368 Goal=   None    Shift=    0.000
 RMSDP=6.51D-07 MaxDP=4.66D-05 DE=-1.89D-07 OVMax= 5.96D-05

 Cycle  10  Pass 1  IDiag  1:
 RMSU=  3.35D-07    CP:  1.01D+00  6.74D-01  5.69D-01  7.37D-01  7.30D-01
                    CP:  1.10D+00  9.28D-01  1.22D+00  8.87D-01
 E= -1709.81288640746     Delta-E=       -0.000000040544 Rises=F Damp=F
 DIIS: error= 1.80D-06 at cycle  10 NSaved=  10.
 NSaved=10 IEnMin=10 EnMin= -1709.81288640746     IErMin=10 ErrMin= 1.80D-06
 ErrMax= 1.80D-06  0.00D+00 EMaxC= 1.00D-01 BMatC= 2.11D-09 BMatP= 4.38D-08
 IDIUse=1 WtCom= 1.00D+00 WtEn= 0.00D+00
 Coeff-Com:  0.602D-05 0.106D-03 0.322D-03 0.362D-03-0.142D-02-0.172D-01
 Coeff-Com: -0.203D-01 0.588D-01 0.212D+00 0.767D+00
 Coeff:      0.602D-05 0.106D-03 0.322D-03 0.362D-03-0.142D-02-0.172D-01
 Coeff:     -0.203D-01 0.588D-01 0.212D+00 0.767D+00
 Gap=     0.368 Goal=   None    Shift=    0.000
 RMSDP=1.76D-07 MaxDP=1.01D-05 DE=-4.05D-08 OVMax= 1.81D-05

 Cycle  11  Pass 1  IDiag  1:
 RMSU=  1.13D-07    CP:  1.01D+00  6.74D-01  5.69D-01  7.37D-01  7.31D-01
                    CP:  1.10D+00  9.34D-01  1.24D+00  9.63D-01  9.74D-01
 E= -1709.81288640938     Delta-E=       -0.000000001912 Rises=F Damp=F
 DIIS: error= 8.63D-07 at cycle  11 NSaved=  11.
 NSaved=11 IEnMin=11 EnMin= -1709.81288640938     IErMin=11 ErrMin= 8.63D-07
 ErrMax= 8.63D-07  0.00D+00 EMaxC= 1.00D-01 BMatC= 5.85D-10 BMatP= 2.11D-09
 IDIUse=1 WtCom= 1.00D+00 WtEn= 0.00D+00
 Coeff-Com:  0.108D-05 0.442D-04 0.150D-03 0.268D-03 0.380D-04-0.409D-02
 Coeff-Com: -0.859D-02-0.984D-02 0.410D-01 0.397D+00 0.584D+00
 Coeff:      0.108D-05 0.442D-04 0.150D-03 0.268D-03 0.380D-04-0.409D-02
 Coeff:     -0.859D-02-0.984D-02 0.410D-01 0.397D+00 0.584D+00
 Gap=     0.368 Goal=   None    Shift=    0.000
 RMSDP=6.24D-08 MaxDP=4.90D-06 DE=-1.91D-09 OVMax= 5.13D-06

 Cycle  12  Pass 1  IDiag  1:
 RMSU=  3.88D-08    CP:  1.01D+00  6.74D-01  5.69D-01  7.37D-01  7.31D-01
                    CP:  1.10D+00  9.35D-01  1.25D+00  9.73D-01  1.06D+00
                    CP:  8.02D-01
 E= -1709.81288640983     Delta-E=       -0.000000000456 Rises=F Damp=F
 DIIS: error= 2.63D-07 at cycle  12 NSaved=  12.
 NSaved=12 IEnMin=12 EnMin= -1709.81288640983     IErMin=12 ErrMin= 2.63D-07
 ErrMax= 2.63D-07  0.00D+00 EMaxC= 1.00D-01 BMatC= 5.21D-11 BMatP= 5.85D-10
 IDIUse=1 WtCom= 1.00D+00 WtEn= 0.00D+00
 Coeff-Com: -0.377D-06 0.152D-05 0.155D-04 0.494D-04 0.284D-03 0.103D-02
 Coeff-Com: -0.192D-03-0.126D-01-0.173D-01 0.288D-01 0.214D+00 0.786D+00
 Coeff:     -0.377D-06 0.152D-05 0.155D-04 0.494D-04 0.284D-03 0.103D-02
 Coeff:     -0.192D-03-0.126D-01-0.173D-01 0.288D-01 0.214D+00 0.786D+00
 Gap=     0.368 Goal=   None    Shift=    0.000
 RMSDP=2.48D-08 MaxDP=1.47D-06 DE=-4.56D-10 OVMax= 2.04D-06

 Cycle  13  Pass 1  IDiag  1:
 RMSU=  1.23D-08    CP:  1.01D+00  6.74D-01  5.69D-01  7.37D-01  7.31D-01
                    CP:  1.10D+00  9.35D-01  1.25D+00  9.83D-01  1.08D+00
                    CP:  8.92D-01  9.06D-01
 E= -1709.81288640972     Delta-E=        0.000000000110 Rises=F Damp=F
 DIIS: error= 8.91D-08 at cycle  13 NSaved=  13.
 NSaved=13 IEnMin=12 EnMin= -1709.81288640983     IErMin=13 ErrMin= 8.91D-08
 ErrMax= 8.91D-08  0.00D+00 EMaxC= 1.00D-01 BMatC= 5.47D-12 BMatP= 5.21D-11
 IDIUse=1 WtCom= 1.00D+00 WtEn= 0.00D+00
 Coeff-Com: -0.285D-06-0.333D-05-0.528D-05-0.169D-05 0.130D-03 0.813D-03
 Coeff-Com:  0.709D-03-0.443D-02-0.111D-01-0.249D-01 0.352D-01 0.329D+00
 Coeff-Com:  0.675D+00
 Coeff:     -0.285D-06-0.333D-05-0.528D-05-0.169D-05 0.130D-03 0.813D-03
 Coeff:      0.709D-03-0.443D-02-0.111D-01-0.249D-01 0.352D-01 0.329D+00
 Coeff:      0.675D+00
 Gap=     0.368 Goal=   None    Shift=    0.000
 RMSDP=6.56D-09 MaxDP=3.50D-07 DE= 1.10D-10 OVMax= 5.06D-07

 Error on total polarization charges =  0.00314
 SCF Done:  E(RCAM-B3LYP) =  -1709.81288641     A.U. after   13 cycles
            NFock= 13  Conv=0.66D-08     -V/T= 2.0076
 KE= 1.696890798953D+03 PE=-9.691877438983D+03 EE= 3.455970225043D+03
 Leave Link  502 at Sun Mar  3 17:24:42 2024, MaxMem=  5368709120 cpu:       538.8
 (Enter /home/k0335/k033513/app/g09/l601.exe)
 Copying SCF densities to generalized density rwf, IOpCl= 0 IROHF=0.

 **********************************************************************

            Population analysis using the SCF density.

 **********************************************************************

 Alpha  occ. eigenvalues --  -24.83563 -24.83454 -24.83340 -24.83210 -24.82852
 Alpha  occ. eigenvalues --  -24.82586 -24.82488 -24.82480 -24.82451 -19.32859
 Alpha  occ. eigenvalues --  -19.23015 -19.22934 -19.22561 -14.51896 -14.49558
 Alpha  occ. eigenvalues --  -14.49530 -10.59489 -10.55216 -10.52874 -10.48735
 Alpha  occ. eigenvalues --  -10.44808 -10.44772 -10.43729 -10.30701 -10.30680
 Alpha  occ. eigenvalues --   -1.43149  -1.41586  -1.38641  -1.35375  -1.33462
 Alpha  occ. eigenvalues --   -1.33211  -1.32582  -1.31986  -1.31178  -1.21595
 Alpha  occ. eigenvalues --   -1.20398  -1.16474  -1.16211  -1.08517  -1.06277
 Alpha  occ. eigenvalues --   -1.04811  -0.93210  -0.85710  -0.82938  -0.82699
 Alpha  occ. eigenvalues --   -0.81654  -0.77670  -0.75377  -0.75053  -0.72856
 Alpha  occ. eigenvalues --   -0.72500  -0.71811  -0.70326  -0.69581  -0.68380
 Alpha  occ. eigenvalues --   -0.67391  -0.66707  -0.66191  -0.64228  -0.61600
 Alpha  occ. eigenvalues --   -0.59726  -0.59294  -0.57455  -0.57018  -0.56121
 Alpha  occ. eigenvalues --   -0.55837  -0.55474  -0.55392  -0.55067  -0.54843
 Alpha  occ. eigenvalues --   -0.54645  -0.53922  -0.53466  -0.53040  -0.53014
 Alpha  occ. eigenvalues --   -0.52716  -0.52187  -0.51856  -0.51361  -0.50478
 Alpha  occ. eigenvalues --   -0.50255  -0.49745  -0.49619  -0.48840  -0.48720
 Alpha  occ. eigenvalues --   -0.47702  -0.47412  -0.47363  -0.47029  -0.45518
 Alpha  occ. eigenvalues --   -0.44360  -0.39440  -0.38988  -0.37464  -0.35962
 Alpha  occ. eigenvalues --   -0.34997  -0.34909
 Alpha virt. eigenvalues --    0.01896   0.02660   0.06057   0.09396   0.12122
 Alpha virt. eigenvalues --    0.14320   0.15395   0.17335   0.17614   0.17768
 Alpha virt. eigenvalues --    0.18180   0.19827   0.20400   0.21943   0.22149
 Alpha virt. eigenvalues --    0.22709   0.22831   0.23149   0.23743   0.24962
 Alpha virt. eigenvalues --    0.25824   0.26021   0.27557   0.27779   0.28140
 Alpha virt. eigenvalues --    0.29532   0.30286   0.33112   0.35773   0.37826
 Alpha virt. eigenvalues --    0.39752   0.39891   0.40621   0.47083   0.48143
 Alpha virt. eigenvalues --    0.49473   0.51185   0.51840   0.52703   0.54187
 Alpha virt. eigenvalues --    0.55426   0.55777   0.56521   0.56870   0.57372
 Alpha virt. eigenvalues --    0.57647   0.59817   0.60386   0.61592   0.62300
 Alpha virt. eigenvalues --    0.62533   0.64161   0.66378   0.69210   0.70358
 Alpha virt. eigenvalues --    0.71321   0.72597   0.73848   0.74818   0.75632
 Alpha virt. eigenvalues --    0.77193   0.79368   0.83226   0.83748   0.85097
 Alpha virt. eigenvalues --    0.86476   0.87011   0.88363   0.89612   0.89703
 Alpha virt. eigenvalues --    0.90015   0.90711   0.92268   0.92800   0.94570
 Alpha virt. eigenvalues --    0.95579   0.96841   0.97423   0.98388   0.99160
 Alpha virt. eigenvalues --    1.00250   1.01714   1.03623   1.04477   1.05721
 Alpha virt. eigenvalues --    1.07629   1.08813   1.09420   1.10051   1.11295
 Alpha virt. eigenvalues --    1.12738   1.14258   1.15148   1.16299   1.17357
 Alpha virt. eigenvalues --    1.17694   1.18171   1.19904   1.20127   1.20891
 Alpha virt. eigenvalues --    1.23171   1.24308   1.27162   1.28511   1.29388
 Alpha virt. eigenvalues --    1.30304   1.31795   1.32354   1.32789   1.33830
 Alpha virt. eigenvalues --    1.34655   1.35294   1.36468   1.37853   1.38678
 Alpha virt. eigenvalues --    1.39749   1.40245   1.41041   1.41575   1.42680
 Alpha virt. eigenvalues --    1.44429   1.44985   1.45371   1.47032   1.47456
 Alpha virt. eigenvalues --    1.48762   1.49879   1.50732   1.51398   1.52571
 Alpha virt. eigenvalues --    1.54662   1.55318   1.56348   1.57023   1.58351
 Alpha virt. eigenvalues --    1.59651   1.60792   1.61897   1.63677   1.66986
 Alpha virt. eigenvalues --    1.67646   1.69561   1.70786   1.71745   1.72252
 Alpha virt. eigenvalues --    1.74081   1.74789   1.74872   1.77022   1.78782
 Alpha virt. eigenvalues --    1.79712   1.80568   1.80800   1.82768   1.83847
 Alpha virt. eigenvalues --    1.84767   1.85707   1.86353   1.86896   1.87337
 Alpha virt. eigenvalues --    1.87748   1.88882   1.89418   1.90212   1.90642
 Alpha virt. eigenvalues --    1.91618   1.91899   1.93183   1.93608   1.94090
 Alpha virt. eigenvalues --    1.94166   1.94872   1.95643   1.96924   1.97312
 Alpha virt. eigenvalues --    1.97819   1.98274   1.99377   1.99999   2.00749
 Alpha virt. eigenvalues --    2.01205   2.02225   2.02696   2.03214   2.03563
 Alpha virt. eigenvalues --    2.03838   2.04206   2.05139   2.06244   2.06700
 Alpha virt. eigenvalues --    2.08562   2.09198   2.09997   2.10216   2.10989
 Alpha virt. eigenvalues --    2.12058   2.12244   2.12952   2.13893   2.14795
 Alpha virt. eigenvalues --    2.16210   2.17229   2.18776   2.19815   2.20592
 Alpha virt. eigenvalues --    2.20883   2.21878   2.23287   2.24110   2.27358
 Alpha virt. eigenvalues --    2.28070   2.29987   2.32093   2.33051   2.33289
 Alpha virt. eigenvalues --    2.34675   2.35013   2.37423   2.38922   2.40937
 Alpha virt. eigenvalues --    2.41704   2.44870   2.45463   2.46638   2.48482
 Alpha virt. eigenvalues --    2.49275   2.51113   2.53466   2.53806   2.55491
 Alpha virt. eigenvalues --    2.58860   2.60864   2.61538   2.61734   2.64309
 Alpha virt. eigenvalues --    2.66330   2.67146   2.69302   2.71496   2.72997
 Alpha virt. eigenvalues --    2.73206   2.74011   2.75432   2.75678   2.78287
 Alpha virt. eigenvalues --    2.80649   2.82409   2.84465   2.86986   2.89630
 Alpha virt. eigenvalues --    2.90284   2.91738   2.91969   2.93762   2.95080
 Alpha virt. eigenvalues --    2.95224   2.96518   2.97907   2.98114   2.99671
 Alpha virt. eigenvalues --    3.03155   3.04939   3.05228   3.06091   3.06998
 Alpha virt. eigenvalues --    3.08751   3.13297   3.16589   3.18101   3.19090
 Alpha virt. eigenvalues --    3.22083   3.23033   3.25324   3.26345   3.29274
 Alpha virt. eigenvalues --    3.30960   3.34398   3.43627   3.46509   3.49206
 Alpha virt. eigenvalues --    3.51706   3.52325   3.56766   4.05742   4.12206
 Alpha virt. eigenvalues --    4.14926   4.16971   4.25674   4.27542   4.32460
 Alpha virt. eigenvalues --    4.38222   4.46105   4.48187   4.49930   4.54648
 Alpha virt. eigenvalues --    4.58580   4.66491   4.70689   4.71979   4.81040
 Alpha virt. eigenvalues --    4.87947   5.08903   5.24832   5.31964   5.42881
 Alpha virt. eigenvalues --    5.67273   6.22222   6.62733
          Condensed to atoms (all electrons):
               1          2          3          4          5          6
     1  C    4.791194   0.258948  -0.027270   0.000564   0.003463  -0.000071
     2  N    0.258948   7.260708   0.260811  -0.092552  -0.102505   0.003450
     3  C   -0.027270   0.260811   4.149791   0.617983   0.261385  -0.027437
     4  O    0.000564  -0.092552   0.617983   8.070470  -0.092684   0.000564
     5  N    0.003463  -0.102505   0.261385  -0.092684   7.264845   0.259120
     6  C   -0.000071   0.003450  -0.027437   0.000564   0.259120   4.790547
     7  C    0.000156  -0.003201  -0.020813   0.000279   0.264873  -0.028092
     8  O    0.000002   0.000125   0.000197  -0.000024  -0.093227   0.001005
     9  N    0.003475  -0.097236  -0.002811   0.000052  -0.097277   0.003499
    10  C   -0.000037   0.002107   0.000278   0.000002   0.001945  -0.000025
    11  F    0.000000  -0.000024   0.000004   0.000000   0.000010   0.000006
    12  F    0.000005   0.000007   0.000004   0.000000  -0.000026   0.000000
    13  C    0.000006  -0.000313   0.000028   0.000000  -0.000130   0.000003
    14  F    0.000001   0.000005   0.000003   0.000000   0.000001   0.000000
    15  O    0.000000  -0.000007   0.000027   0.000000  -0.000292   0.000000
    16  C    0.000000   0.000000   0.000000   0.000000  -0.000004   0.000000
    17  F    0.000000   0.000000   0.000000   0.000000   0.000000   0.000000
    18  F    0.000000   0.000000   0.000000   0.000000   0.000000   0.000000
    19  F    0.000000   0.000000   0.000000   0.000000   0.000000   0.000000
    20  C    0.000000  -0.000001   0.000000   0.000000  -0.000001   0.000000
    21  F    0.000000   0.000000   0.000000   0.000000   0.000000   0.000000
    22  F    0.000000   0.000000   0.000000   0.000000   0.000000   0.000000
    23  F    0.000000   0.000000   0.000000   0.000000   0.000000   0.000000
    24  C   -0.028328   0.268316  -0.020558   0.000262  -0.003675   0.000167
    25  O    0.000818  -0.093415   0.000139  -0.000024   0.000124   0.000002
    26  H    0.401605  -0.041872  -0.002111   0.000827  -0.000054   0.000007
    27  H    0.388321  -0.030916  -0.003515   0.007139   0.000345  -0.000010
    28  H    0.388131  -0.030447   0.004015   0.000579  -0.000068   0.000001
    29  H    0.000001  -0.000068   0.004012   0.000581  -0.030460   0.388089
    30  H   -0.000010   0.000344  -0.003554   0.007108  -0.030927   0.388290
    31  H    0.000007  -0.000055  -0.002113   0.000838  -0.041918   0.401589
               7          8          9         10         11         12
     1  C    0.000156   0.000002   0.003475  -0.000037   0.000000   0.000005
     2  N   -0.003201   0.000125  -0.097236   0.002107  -0.000024   0.000007
     3  C   -0.020813   0.000197  -0.002811   0.000278   0.000004   0.000004
     4  O    0.000279  -0.000024   0.000052   0.000002   0.000000   0.000000
     5  N    0.264873  -0.093227  -0.097277   0.001945   0.000010  -0.000026
     6  C   -0.028092   0.001005   0.003499  -0.000025   0.000006   0.000000
     7  C    4.174480   0.589942   0.209542  -0.007126   0.006064   0.000559
     8  O    0.589942   8.093277  -0.091007   0.016276  -0.010915   0.000012
     9  N    0.209542  -0.091007   7.542114   0.185284  -0.038014  -0.040849
    10  C   -0.007126   0.016276   0.185284   4.356451   0.267312   0.271051
    11  F    0.006064  -0.010915  -0.038014   0.267312   9.102305  -0.041641
    12  F    0.000559   0.000012  -0.040849   0.271051  -0.041641   9.101085
    13  C   -0.002936  -0.003331  -0.068561   0.211836  -0.035688  -0.024309
    14  F   -0.000361   0.000006  -0.001038  -0.022119   0.000301  -0.000096
    15  O    0.004569  -0.002831   0.000256  -0.027209   0.000742   0.000542
    16  C    0.000105   0.000507  -0.000212   0.001066  -0.000059   0.000004
    17  F    0.000002  -0.000003   0.000001  -0.000165   0.000001   0.000000
    18  F    0.000000   0.000000  -0.000002   0.000185   0.000000   0.000000
    19  F   -0.000012  -0.000005   0.000001  -0.000032   0.000000   0.000000
    20  C   -0.000008  -0.000047   0.003179  -0.029836   0.008123  -0.001276
    21  F    0.000003  -0.000001  -0.000030  -0.000291  -0.000952  -0.000144
    22  F    0.000002   0.000000   0.000046   0.006457  -0.000926  -0.002433
    23  F    0.000000   0.000000  -0.000012   0.001297   0.000000  -0.000002
    24  C   -0.013650  -0.000137   0.214111  -0.013349   0.000791   0.006764
    25  O   -0.000021  -0.000028  -0.092608   0.016554   0.000010  -0.008943
    26  H   -0.000077   0.000000  -0.000065   0.000009   0.000000   0.000000
    27  H    0.000009   0.000000  -0.000066   0.000000   0.000000   0.000000
    28  H    0.000000   0.000000   0.000280  -0.000002   0.000000  -0.000001
    29  H   -0.003060   0.006166   0.000278  -0.000004  -0.000001   0.000000
    30  H    0.004205   0.000576  -0.000065   0.000000   0.000000   0.000000
    31  H   -0.002541   0.001088  -0.000061   0.000009   0.000000   0.000000
              13         14         15         16         17         18
     1  C    0.000006   0.000001   0.000000   0.000000   0.000000   0.000000
     2  N   -0.000313   0.000005  -0.000007   0.000000   0.000000   0.000000
     3  C    0.000028   0.000003   0.000027   0.000000   0.000000   0.000000
     4  O    0.000000   0.000000   0.000000   0.000000   0.000000   0.000000
     5  N   -0.000130   0.000001  -0.000292  -0.000004   0.000000   0.000000
     6  C    0.000003   0.000000   0.000000   0.000000   0.000000   0.000000
     7  C   -0.002936  -0.000361   0.004569   0.000105   0.000002   0.000000
     8  O   -0.003331   0.000006  -0.002831   0.000507  -0.000003   0.000000
     9  N   -0.068561  -0.001038   0.000256  -0.000212   0.000001  -0.000002
    10  C    0.211836  -0.022119  -0.027209   0.001066  -0.000165   0.000185
    11  F   -0.035688   0.000301   0.000742  -0.000059   0.000001   0.000000
    12  F   -0.024309  -0.000096   0.000542   0.000004   0.000000   0.000000
    13  C    4.991858   0.219987   0.156191   0.001702  -0.008968   0.012529
    14  F    0.219987   9.126094  -0.053266  -0.001043  -0.000016  -0.001498
    15  O    0.156191  -0.053266   8.351486   0.235518  -0.047507  -0.046242
    16  C    0.001702  -0.001043   0.235518   3.823413   0.301945   0.295027
    17  F   -0.008968  -0.000016  -0.047507   0.301945   9.059057  -0.033868
    18  F    0.012529  -0.001498  -0.046242   0.295027  -0.033868   9.060068
    19  F    0.000526  -0.000021  -0.039470   0.338821  -0.037360  -0.036696
    20  C    0.206797  -0.014699  -0.026714  -0.003812   0.017708  -0.004221
    21  F   -0.032059   0.000311   0.000306  -0.000386  -0.000468   0.000014
    22  F   -0.029345  -0.000262   0.000543   0.000059   0.000000   0.000000
    23  F   -0.031463  -0.000058  -0.001517   0.012204  -0.006692  -0.001951
    24  C   -0.000253   0.007766   0.000152  -0.000011   0.000000   0.000001
    25  O   -0.001752  -0.004456  -0.000056  -0.000005   0.000000   0.000000
    26  H    0.000000   0.000000   0.000000   0.000000   0.000000   0.000000
    27  H    0.000000   0.000000   0.000000   0.000000   0.000000   0.000000
    28  H    0.000000   0.000001   0.000000   0.000000   0.000000   0.000000
    29  H    0.000000   0.000000   0.000001   0.000000   0.000000   0.000000
    30  H    0.000000   0.000000   0.000000   0.000000   0.000000   0.000000
    31  H   -0.000001   0.000000   0.000001   0.000000   0.000000   0.000000
              19         20         21         22         23         24
     1  C    0.000000   0.000000   0.000000   0.000000   0.000000  -0.028328
     2  N    0.000000  -0.000001   0.000000   0.000000   0.000000   0.268316
     3  C    0.000000   0.000000   0.000000   0.000000   0.000000  -0.020558
     4  O    0.000000   0.000000   0.000000   0.000000   0.000000   0.000262
     5  N    0.000000  -0.000001   0.000000   0.000000   0.000000  -0.003675
     6  C    0.000000   0.000000   0.000000   0.000000   0.000000   0.000167
     7  C   -0.000012  -0.000008   0.000003   0.000002   0.000000  -0.013650
     8  O   -0.000005  -0.000047  -0.000001   0.000000   0.000000  -0.000137
     9  N    0.000001   0.003179  -0.000030   0.000046  -0.000012   0.214111
    10  C   -0.000032  -0.029836  -0.000291   0.006457   0.001297  -0.013349
    11  F    0.000000   0.008123  -0.000952  -0.000926   0.000000   0.000791
    12  F    0.000000  -0.001276  -0.000144  -0.002433  -0.000002   0.006764
    13  C    0.000526   0.206797  -0.032059  -0.029345  -0.031463  -0.000253
    14  F   -0.000021  -0.014699   0.000311  -0.000262  -0.000058   0.007766
    15  O   -0.039470  -0.026714   0.000306   0.000543  -0.001517   0.000152
    16  C    0.338821  -0.003812  -0.000386   0.000059   0.012204  -0.000011
    17  F   -0.037360   0.017708  -0.000468   0.000000  -0.006692   0.000000
    18  F   -0.036696  -0.004221   0.000014   0.000000  -0.001951   0.000001
    19  F    9.014647  -0.000028   0.000000   0.000000  -0.000004   0.000000
    20  C   -0.000028   4.198158   0.267269   0.287597   0.280101   0.000286
    21  F    0.000000   0.267269   9.089755  -0.037934  -0.038858   0.000000
    22  F    0.000000   0.287597  -0.037934   9.060464  -0.039924  -0.000005
    23  F   -0.000004   0.280101  -0.038858  -0.039924   9.087680   0.000000
    24  C    0.000000   0.000286   0.000000  -0.000005   0.000000   4.177182
    25  O    0.000000  -0.000010   0.000000  -0.000001   0.000000   0.591573
    26  H    0.000000   0.000000   0.000000   0.000000   0.000000  -0.002582
    27  H    0.000000   0.000000   0.000000   0.000000   0.000000   0.004214
    28  H    0.000000   0.000000   0.000000   0.000000   0.000000  -0.003103
    29  H    0.000000   0.000000   0.000000   0.000000   0.000000   0.000001
    30  H    0.000000   0.000000   0.000000   0.000000   0.000000   0.000009
    31  H    0.000000   0.000000   0.000000   0.000000   0.000000  -0.000074
              25         26         27         28         29         30
     1  C    0.000818   0.401605   0.388321   0.388131   0.000001  -0.000010
     2  N   -0.093415  -0.041872  -0.030916  -0.030447  -0.000068   0.000344
     3  C    0.000139  -0.002111  -0.003515   0.004015   0.004012  -0.003554
     4  O   -0.000024   0.000827   0.007139   0.000579   0.000581   0.007108
     5  N    0.000124  -0.000054   0.000345  -0.000068  -0.030460  -0.030927
     6  C    0.000002   0.000007  -0.000010   0.000001   0.388089   0.388290
     7  C   -0.000021  -0.000077   0.000009   0.000000  -0.003060   0.004205
     8  O   -0.000028   0.000000   0.000000   0.000000   0.006166   0.000576
     9  N   -0.092608  -0.000065  -0.000066   0.000280   0.000278  -0.000065
    10  C    0.016554   0.000009   0.000000  -0.000002  -0.000004   0.000000
    11  F    0.000010   0.000000   0.000000   0.000000  -0.000001   0.000000
    12  F   -0.008943   0.000000   0.000000  -0.000001   0.000000   0.000000
    13  C   -0.001752   0.000000   0.000000   0.000000   0.000000   0.000000
    14  F   -0.004456   0.000000   0.000000   0.000001   0.000000   0.000000
    15  O   -0.000056   0.000000   0.000000   0.000000   0.000001   0.000000
    16  C   -0.000005   0.000000   0.000000   0.000000   0.000000   0.000000
    17  F    0.000000   0.000000   0.000000   0.000000   0.000000   0.000000
    18  F    0.000000   0.000000   0.000000   0.000000   0.000000   0.000000
    19  F    0.000000   0.000000   0.000000   0.000000   0.000000   0.000000
    20  C   -0.000010   0.000000   0.000000   0.000000   0.000000   0.000000
    21  F    0.000000   0.000000   0.000000   0.000000   0.000000   0.000000
    22  F   -0.000001   0.000000   0.000000   0.000000   0.000000   0.000000
    23  F    0.000000   0.000000   0.000000   0.000000   0.000000   0.000000
    24  C    0.591573  -0.002582   0.004214  -0.003103   0.000001   0.000009
    25  O    8.090771   0.001068   0.000571   0.006172   0.000000   0.000000
    26  H    0.001068   0.545956  -0.028994  -0.028729   0.000000   0.000000
    27  H    0.000571  -0.028994   0.524696  -0.023410   0.000000   0.000003
    28  H    0.006172  -0.028729  -0.023410   0.526141   0.000000   0.000000
    29  H    0.000000   0.000000   0.000000   0.000000   0.526525  -0.023468
    30  H    0.000000   0.000000   0.000003   0.000000  -0.023468   0.525146
    31  H    0.000000  -0.000003   0.000000   0.000000  -0.028725  -0.029043
              31
     1  C    0.000007
     2  N   -0.000055
     3  C   -0.002113
     4  O    0.000838
     5  N   -0.041918
     6  C    0.401589
     7  C   -0.002541
     8  O    0.001088
     9  N   -0.000061
    10  C    0.000009
    11  F    0.000000
    12  F    0.000000
    13  C   -0.000001
    14  F    0.000000
    15  O    0.000001
    16  C    0.000000
    17  F    0.000000
    18  F    0.000000
    19  F    0.000000
    20  C    0.000000
    21  F    0.000000
    22  F    0.000000
    23  F    0.000000
    24  C   -0.000074
    25  O    0.000000
    26  H   -0.000003
    27  H    0.000000
    28  H    0.000000
    29  H   -0.028725
    30  H   -0.029043
    31  H    0.546031
 Mulliken charges:
               1
     1  C   -0.180982
     2  N   -0.562211
     3  C    0.811505
     4  O   -0.521963
     5  N   -0.562863
     6  C   -0.180702
     7  C    0.827109
     8  O   -0.507623
     9  N   -0.632204
    10  C    0.762080
    11  F   -0.257449
    12  F   -0.260312
    13  C    0.437644
    14  F   -0.255543
    15  O   -0.505224
    16  C    0.995160
    17  F   -0.243668
    18  F   -0.243345
    19  F   -0.240368
    20  C    0.811434
    21  F   -0.246536
    22  F   -0.244339
    23  F   -0.260800
    24  C    0.814128
    25  O   -0.506482
    26  H    0.155014
    27  H    0.161614
    28  H    0.160440
    29  H    0.160131
    30  H    0.161386
    31  H    0.154969
 Sum of Mulliken charges =   0.00000
 Mulliken charges with hydrogens summed into heavy atoms:
               1
     1  C    0.296087
     2  N   -0.562211
     3  C    0.811505
     4  O   -0.521963
     5  N   -0.562863
     6  C    0.295783
     7  C    0.827109
     8  O   -0.507623
     9  N   -0.632204
    10  C    0.762080
    11  F   -0.257449
    12  F   -0.260312
    13  C    0.437644
    14  F   -0.255543
    15  O   -0.505224
    16  C    0.995160
    17  F   -0.243668
    18  F   -0.243345
    19  F   -0.240368
    20  C    0.811434
    21  F   -0.246536
    22  F   -0.244339
    23  F   -0.260800
    24  C    0.814128
    25  O   -0.506482
 Electronic spatial extent (au):  <R**2>=           7558.5864
 Charge=              0.0000 electrons
 Dipole moment (field-independent basis, Debye):
    X=             -2.7710    Y=             -0.0437    Z=              0.7800  Tot=              2.8790
 Quadrupole moment (field-independent basis, Debye-Ang):
   XX=           -135.9338   YY=           -135.5658   ZZ=           -136.4898
   XY=              1.2376   XZ=              5.8710   YZ=              0.4861
 Traceless Quadrupole moment (field-independent basis, Debye-Ang):
   XX=              0.0627   YY=              0.4306   ZZ=             -0.4933
   XY=              1.2376   XZ=              5.8710   YZ=              0.4861
 Octapole moment (field-independent basis, Debye-Ang**2):
  XXX=           -201.7079  YYY=             10.9737  ZZZ=             74.4433  XYY=           -109.7959
  XXY=              5.8960  XXZ=              1.4220  XZZ=            -69.0857  YZZ=             -5.2406
  YYZ=             38.1357  XYZ=              9.1199
 Hexadecapole moment (field-independent basis, Debye-Ang**3):
 XXXX=          -5479.2134 YYYY=          -1314.8496 ZZZZ=          -1535.7632 XXXY=             86.6249
 XXXZ=            454.1476 YYYX=             96.4893 YYYZ=            140.6965 ZZZX=            339.4700
 ZZZY=            134.5906 XXYY=          -1006.0304 XXZZ=          -1173.3867 YYZZ=           -469.7421
 XXYZ=             11.2914 YYXZ=             86.2647 ZZXY=             50.1022
 N-N= 2.829203528577D+03 E-N=-9.691877441322D+03  KE= 1.696890798953D+03
 No NMR shielding tensors so no spin-rotation constants.
 Leave Link  601 at Sun Mar  3 17:24:42 2024, MaxMem=  5368709120 cpu:         1.9
 (Enter /home/k0335/k033513/app/g09/l9999.exe)
 1\1\GINC-C24U18N2\SP\RCAM-B3LYP\6-31G(d,p)\C9H6F9N3O4\K033513\03-Mar-2
 024\0\\#p CAM-B3LYP/6-31G(d,p) SCRF=(PCM,Solvent=Generic,Read) NoSymm 
 out=wfn\\Title A153226992_0\\0,1\C,0,-2.983903,2.388394,0.026507\N,0,-
 2.291611,1.113374,-0.057987\C,0,-2.781058,0.06363,0.689854\O,0,-3.7770
 25,0.178156,1.405707\N,0,-2.054905,-1.106764,0.626686\C,0,-2.49209,-2.
 221678,1.449985\C,0,-0.826529,-1.198498,0.006354\O,0,-0.075566,-2.1514
 96,0.215341\N,0,-0.479249,-0.154218,-0.813432\C,0,0.81499,-0.212996,-1
 .475112\F,0,1.020509,-1.486509,-1.923727\F,0,0.742947,0.512675,-2.6292
 18\C,0,2.027926,0.249261,-0.624163\F,0,1.909951,1.582387,-0.354276\O,0
 ,1.998095,-0.394877,0.654425\C,0,3.179295,-0.224925,1.390842\F,0,4.126
 993,-1.044837,0.909643\F,0,3.59993,1.04833,1.345647\F,0,2.933096,-0.55
 3455,2.672798\C,0,3.258753,0.005878,-1.509347\F,0,3.485714,-1.311875,-
 1.709282\F,0,3.158762,0.587346,-2.724463\F,0,4.383483,0.509399,-0.9441
 5\C,0,-1.071705,1.076852,-0.699157\O,0,-0.534014,2.104228,-1.110315\H,
 0,-2.613051,2.924499,0.905958\H,0,-4.063011,2.239946,0.129567\H,0,-2.7
 96526,2.994039,-0.865266\H,0,-2.137704,-3.172038,1.039601\H,0,-3.58379
 3,-2.253119,1.515782\H,0,-2.078704,-2.091108,2.455198\\Version=ES64L-G
 09RevD.01\HF=-1709.8128864\RMSD=6.565e-09\Dipole=-1.0901823,-0.0172012
 ,0.3068599\Quadrupole=0.0466086,0.320161,-0.3667696,0.9201622,4.364909
 ,0.3614261\PG=C01 [X(C9H6F9N3O4)]\\@

 Writing a WFN file to "A153226992/A153226992_0.wfn"


 AND THIS OUR LIFE, EXEMPT FROM PUBLIC HAUNT,
 FINDS TONGUES IN TREES, BOOKS IN THE RUNNING BROOKS,
 SERMONS IN STONES, AND GOOD IN EVERYTHING.
 I WOULD NOT CHANGE IT. -- W. SHAKESPEARE
 AS YOU LIKE IT, ACT II, SCENE 1.
 Job cpu time:       0 days  0 hours  9 minutes 18.8 seconds.
 File lengths (MBytes):  RWF=    196 Int=      0 D2E=      0 Chk=      8 Scr=      1
 Normal termination of Gaussian 09 at Sun Mar  3 17:24:42 2024.
