 Entering Gaussian System, Link 0=g09
 Initial command:
 /home/k0335/k033513/app/g09/l1.exe "/home/k0335/k033513/app/g09/scratch/Gau-549323.inp" -scrdir="/home/k0335/k033513/app/g09/scratch/"
 Default is to use a total of  36 processors:
                               36 via shared-memory
                                1 via Linda
 Entering Link 1 = /home/k0335/k033513/app/g09/l1.exe PID=    549324.
  
 Copyright (c) 1988,1990,1992,1993,1995,1998,2003,2009,2013,
            Gaussian, Inc.  All Rights Reserved.
  
 This is part of the Gaussian(R) 09 program.  It is based on
 the Gaussian(R) 03 system (copyright 2003, Gaussian, Inc.),
 the Gaussian(R) 98 system (copyright 1998, Gaussian, Inc.),
 the Gaussian(R) 94 system (copyright 1995, Gaussian, Inc.),
 the Gaussian 92(TM) system (copyright 1992, Gaussian, Inc.),
 the Gaussian 90(TM) system (copyright 1990, Gaussian, Inc.),
 the Gaussian 88(TM) system (copyright 1988, Gaussian, Inc.),
 the Gaussian 86(TM) system (copyright 1986, Carnegie Mellon
 University), and the Gaussian 82(TM) system (copyright 1983,
 Carnegie Mellon University). Gaussian is a federally registered
 trademark of Gaussian, Inc.
  
 This software contains proprietary and confidential information,
 including trade secrets, belonging to Gaussian, Inc.
  
 This software is provided under written license and may be
 used, copied, transmitted, or stored only in accord with that
 written license.
  
 The following legend is applicable only to US Government
 contracts under FAR:
  
                    RESTRICTED RIGHTS LEGEND
  
 Use, reproduction and disclosure by the US Government is
 subject to restrictions as set forth in subparagraphs (a)
 and (c) of the Commercial Computer Software - Restricted
 Rights clause in FAR 52.227-19.
  
 Gaussian, Inc.
 340 Quinnipiac St., Bldg. 40, Wallingford CT 06492
  
  
 ---------------------------------------------------------------
 Warning -- This program may not be used in any manner that
 competes with the business of Gaussian, Inc. or will provide
 assistance to any competitor of Gaussian, Inc.  The licensee
 of this program is prohibited from giving any competitor of
 Gaussian, Inc. access to this program.  By using this program,
 the user acknowledges that Gaussian, Inc. is engaged in the
 business of creating and licensing software in the field of
 computational chemistry and represents and warrants to the
 licensee that it is not a competitor of Gaussian, Inc. and that
 it will not use this program in any manner prohibited above.
 ---------------------------------------------------------------
  

 Cite this work as:
 Gaussian 09, Revision D.01,
 M. J. Frisch, G. W. Trucks, H. B. Schlegel, G. E. Scuseria, 
 M. A. Robb, J. R. Cheeseman, G. Scalmani, V. Barone, B. Mennucci, 
 G. A. Petersson, H. Nakatsuji, M. Caricato, X. Li, H. P. Hratchian, 
 A. F. Izmaylov, J. Bloino, G. Zheng, J. L. Sonnenberg, M. Hada, 
 M. Ehara, K. Toyota, R. Fukuda, J. Hasegawa, M. Ishida, T. Nakajima, 
 Y. Honda, O. Kitao, H. Nakai, T. Vreven, J. A. Montgomery, Jr., 
 J. E. Peralta, F. Ogliaro, M. Bearpark, J. J. Heyd, E. Brothers, 
 K. N. Kudin, V. N. Staroverov, T. Keith, R. Kobayashi, J. Normand, 
 K. Raghavachari, A. Rendell, J. C. Burant, S. S. Iyengar, J. Tomasi, 
 M. Cossi, N. Rega, J. M. Millam, M. Klene, J. E. Knox, J. B. Cross, 
 V. Bakken, C. Adamo, J. Jaramillo, R. Gomperts, R. E. Stratmann, 
 O. Yazyev, A. J. Austin, R. Cammi, C. Pomelli, J. W. Ochterski, 
 R. L. Martin, K. Morokuma, V. G. Zakrzewski, G. A. Voth, 
 P. Salvador, J. J. Dannenberg, S. Dapprich, A. D. Daniels, 
 O. Farkas, J. B. Foresman, J. V. Ortiz, J. Cioslowski, 
 and D. J. Fox, Gaussian, Inc., Wallingford CT, 2013.
 
 ******************************************
 Gaussian 09:  ES64L-G09RevD.01 24-Apr-2013
                 3-Mar-2024 
 ******************************************
 %nprocshared=24
 Will use up to   24 processors via shared memory.
 %mem=40GB
 %rwf=A1374950780/A1374950780_p1.rwf
 %nosave
 %chk=A1374950780/A1374950780_p1.chk
 ----------------------------------------------------------------------
 #p CAM-B3LYP/6-31G(d,p) SCRF=(PCM,Solvent=Generic,Read) NoSymm out=wfn
 ----------------------------------------------------------------------
 1/38=1,40=2/1;
 2/12=2,15=1,17=6,18=5,40=1/2;
 3/5=1,6=6,7=101,11=2,16=1,25=1,30=1,70=2203,72=-2,74=-40/1,2,3;
 4//1;
 5/5=2,38=5/2;
 6/7=2,8=2,9=2,10=2,28=1/1;
 99/5=1,6=100,9=1/99;
 Leave Link    1 at Sun Mar  3 17:44:02 2024, MaxMem=  5368709120 cpu:         1.5
 (Enter /home/k0335/k033513/app/g09/l101.exe)
 --------------------
 Title A1374950780_p1
 --------------------
 Symbolic Z-matrix:
 Charge =  1 Multiplicity = 2
 O                     1.94781   2.63174   1.54202 
 C                     0.99394   2.01849   1.07124 
 N                    -0.07917   2.67519   0.5129 
 F                    -0.17439   4.04068   0.69311 
 C                    -1.27416   1.95431   0.23446 
 N                    -0.95918   0.69174  -0.3582 
 C                    -1.98331   0.01126  -1.14203 
 F                    -1.38859  -0.53998  -2.23126 
 F                    -2.79591   0.97289  -1.65888 
 C                    -2.83912  -1.04482  -0.3837 
 F                    -2.04896  -2.11883  -0.06149 
 O                    -3.28114  -0.59018   0.90724 
 C                    -4.45736   0.17574   0.89774 
 F                    -5.50793  -0.57291   0.54634 
 F                    -4.65189   0.65969   2.13705 
 F                    -4.31297   1.21239   0.0614 
 C                    -3.8963   -1.54879  -1.37354 
 F                    -4.72708  -0.56261  -1.77994 
 F                    -3.35391  -2.09293  -2.48374 
 F                    -4.67023  -2.50541  -0.80498 
 C                     0.10654  -0.02633   0.12956 
 O                     0.32081  -1.17298  -0.24619 
 N                     0.92157   0.63694   1.02791 
 C                     2.05779  -0.0922    1.57187 
 F                     1.65104  -1.36047   1.87387 
 F                     2.35842   0.43471   2.79439 
 C                     3.32527  -0.14091   0.67744 
 F                     3.84122   1.11665   0.55503 
 O                     2.96613  -0.53007  -0.65247 
 C                     4.07102  -0.83411  -1.46082 
 F                     3.67111  -0.84392  -2.74589 
 F                     5.04239   0.08057  -1.31873 
 F                     4.53301  -2.05401  -1.14313 
 C                     4.31712  -1.03756   1.4323 
 F                     4.52839  -0.63585   2.70469 
 F                     3.90157  -2.3234    1.4792 
 F                     5.53364  -1.04685   0.83452 
 H                    -1.81541   1.79257   1.17213 
 H                    -1.87177   2.56954  -0.44288 
 
 NAtoms=     39 NQM=       39 NQMF=       0 NMMI=      0 NMMIF=      0
                NMic=       0 NMicF=      0.
                    Isotopes and Nuclear Properties:
 (Nuclear quadrupole moments (NQMom) in fm**2, nuclear magnetic moments (NMagM)
  in nuclear magnetons)

  Atom         1           2           3           4           5           6           7           8           9          10
 IAtWgt=          16          12          14          19          12          14          12          19          19          12
 AtmWgt=  15.9949146  12.0000000  14.0030740  18.9984033  12.0000000  14.0030740  12.0000000  18.9984033  18.9984033  12.0000000
 NucSpn=           0           0           2           1           0           2           0           1           1           0
 AtZEff=   0.0000000   0.0000000   0.0000000   0.0000000   0.0000000   0.0000000   0.0000000   0.0000000   0.0000000   0.0000000
 NQMom=    0.0000000   0.0000000   2.0440000   0.0000000   0.0000000   2.0440000   0.0000000   0.0000000   0.0000000   0.0000000
 NMagM=    0.0000000   0.0000000   0.4037610   2.6288670   0.0000000   0.4037610   0.0000000   2.6288670   2.6288670   0.0000000
 AtZNuc=   8.0000000   6.0000000   7.0000000   9.0000000   6.0000000   7.0000000   6.0000000   9.0000000   9.0000000   6.0000000

  Atom        11          12          13          14          15          16          17          18          19          20
 IAtWgt=          19          16          12          19          19          19          12          19          19          19
 AtmWgt=  18.9984033  15.9949146  12.0000000  18.9984033  18.9984033  18.9984033  12.0000000  18.9984033  18.9984033  18.9984033
 NucSpn=           1           0           0           1           1           1           0           1           1           1
 AtZEff=   0.0000000   0.0000000   0.0000000   0.0000000   0.0000000   0.0000000   0.0000000   0.0000000   0.0000000   0.0000000
 NQMom=    0.0000000   0.0000000   0.0000000   0.0000000   0.0000000   0.0000000   0.0000000   0.0000000   0.0000000   0.0000000
 NMagM=    2.6288670   0.0000000   0.0000000   2.6288670   2.6288670   2.6288670   0.0000000   2.6288670   2.6288670   2.6288670
 AtZNuc=   9.0000000   8.0000000   6.0000000   9.0000000   9.0000000   9.0000000   6.0000000   9.0000000   9.0000000   9.0000000

  Atom        21          22          23          24          25          26          27          28          29          30
 IAtWgt=          12          16          14          12          19          19          12          19          16          12
 AtmWgt=  12.0000000  15.9949146  14.0030740  12.0000000  18.9984033  18.9984033  12.0000000  18.9984033  15.9949146  12.0000000
 NucSpn=           0           0           2           0           1           1           0           1           0           0
 AtZEff=   0.0000000   0.0000000   0.0000000   0.0000000   0.0000000   0.0000000   0.0000000   0.0000000   0.0000000   0.0000000
 NQMom=    0.0000000   0.0000000   2.0440000   0.0000000   0.0000000   0.0000000   0.0000000   0.0000000   0.0000000   0.0000000
 NMagM=    0.0000000   0.0000000   0.4037610   0.0000000   2.6288670   2.6288670   0.0000000   2.6288670   0.0000000   0.0000000
 AtZNuc=   6.0000000   8.0000000   7.0000000   6.0000000   9.0000000   9.0000000   6.0000000   9.0000000   8.0000000   6.0000000

  Atom        31          32          33          34          35          36          37          38          39
 IAtWgt=          19          19          19          12          19          19          19           1           1
 AtmWgt=  18.9984033  18.9984033  18.9984033  12.0000000  18.9984033  18.9984033  18.9984033   1.0078250   1.0078250
 NucSpn=           1           1           1           0           1           1           1           1           1
 AtZEff=   0.0000000   0.0000000   0.0000000   0.0000000   0.0000000   0.0000000   0.0000000   0.0000000   0.0000000
 NQMom=    0.0000000   0.0000000   0.0000000   0.0000000   0.0000000   0.0000000   0.0000000   0.0000000   0.0000000
 NMagM=    2.6288670   2.6288670   2.6288670   0.0000000   2.6288670   2.6288670   2.6288670   2.7928460   2.7928460
 AtZNuc=   9.0000000   9.0000000   9.0000000   6.0000000   9.0000000   9.0000000   9.0000000   1.0000000   1.0000000
 Leave Link  101 at Sun Mar  3 17:44:02 2024, MaxMem=  5368709120 cpu:         0.8
 (Enter /home/k0335/k033513/app/g09/l202.exe)
                          Input orientation:                          
 ---------------------------------------------------------------------
 Center     Atomic      Atomic             Coordinates (Angstroms)
 Number     Number       Type             X           Y           Z
 ---------------------------------------------------------------------
      1          8           0        1.947809    2.631743    1.542021
      2          6           0        0.993941    2.018490    1.071240
      3          7           0       -0.079170    2.675190    0.512900
      4          9           0       -0.174387    4.040682    0.693105
      5          6           0       -1.274162    1.954312    0.234457
      6          7           0       -0.959179    0.691739   -0.358203
      7          6           0       -1.983311    0.011261   -1.142028
      8          9           0       -1.388586   -0.539977   -2.231256
      9          9           0       -2.795912    0.972886   -1.658883
     10          6           0       -2.839117   -1.044824   -0.383704
     11          9           0       -2.048965   -2.118832   -0.061489
     12          8           0       -3.281145   -0.590178    0.907236
     13          6           0       -4.457358    0.175740    0.897743
     14          9           0       -5.507925   -0.572909    0.546337
     15          9           0       -4.651885    0.659688    2.137046
     16          9           0       -4.312965    1.212393    0.061395
     17          6           0       -3.896299   -1.548786   -1.373541
     18          9           0       -4.727081   -0.562612   -1.779943
     19          9           0       -3.353913   -2.092925   -2.483743
     20          9           0       -4.670234   -2.505406   -0.804983
     21          6           0        0.106541   -0.026334    0.129558
     22          8           0        0.320811   -1.172980   -0.246185
     23          7           0        0.921570    0.636944    1.027914
     24          6           0        2.057786   -0.092197    1.571865
     25          9           0        1.651040   -1.360468    1.873872
     26          9           0        2.358422    0.434709    2.794393
     27          6           0        3.325266   -0.140907    0.677444
     28          9           0        3.841219    1.116647    0.555029
     29          8           0        2.966132   -0.530070   -0.652467
     30          6           0        4.071018   -0.834106   -1.460821
     31          9           0        3.671105   -0.843922   -2.745893
     32          9           0        5.042392    0.080566   -1.318734
     33          9           0        4.533006   -2.054006   -1.143133
     34          6           0        4.317120   -1.037557    1.432298
     35          9           0        4.528392   -0.635849    2.704685
     36          9           0        3.901568   -2.323401    1.479196
     37          9           0        5.533636   -1.046853    0.834517
     38          1           0       -1.815406    1.792568    1.172128
     39          1           0       -1.871771    2.569542   -0.442880
 ---------------------------------------------------------------------
                    Distance matrix (angstroms):
                    1          2          3          4          5
     1  O    0.000000
     2  C    1.227835   0.000000
     3  N    2.273680   1.376432   0.000000
     4  F    2.685048   2.365848   1.380619   0.000000
     5  C    3.542560   2.418391   1.423096   2.402666   0.000000
     6  N    3.978071   2.760118   2.338229   3.596744   1.429878
     7  C    5.433668   4.218003   3.668931   4.782902   2.484562
     8  F    5.952223   4.809227   4.425185   5.568537   3.509175
     9  F    5.958228   4.786423   3.872359   4.670719   2.619858
    10  C    6.335631   5.117918   4.718020   5.841462   3.438899
    11  F    6.411974   5.259257   5.214658   6.482520   4.156730
    12  O    6.174600   5.010829   4.590291   5.580561   3.309840
    13  C    6.890080   5.756951   5.056074   5.772651   3.706211
    14  F    8.176133   7.018913   6.326345   7.053608   4.940533
    15  F    6.913683   5.904036   5.254505   5.793451   4.087164
    16  F    6.588179   5.461944   4.502072   5.052336   3.132845
    17  C    7.754413   6.528159   5.997592   7.026080   4.661862
    18  F    8.111320   6.893579   6.110938   6.930606   4.723914
    19  F    8.163181   6.960278   6.514502   7.604136   5.300387
    20  F    8.700415   7.487905   7.046507   8.081347   5.701125
    21  C    3.528554   2.419824   2.734899   4.115474   2.416672
    22  O    4.507851   3.517697   3.942665   5.320692   3.543291
    23  N    2.301455   1.384119   2.328340   3.591469   2.680722
    24  C    2.726323   2.416069   3.653275   4.778651   4.132643
    25  F    4.016957   3.534594   4.597000   5.822269   4.715109
    26  F    2.562030   2.709138   4.020798   4.881964   4.696609
    27  C    3.214416   3.202054   4.421274   5.452844   5.073551
    28  F    2.618143   3.030971   4.219038   4.969320   5.193416
    29  O    3.981183   3.654567   4.572268   5.706592   4.993884
    30  C    5.053433   4.900718   5.782283   6.813693   6.262603
    31  F    5.782405   5.470934   6.088386   7.104497   6.416250
    32  F    4.926344   5.085025   6.026388   6.851627   6.769208
    33  F    5.987448   5.832122   6.810280   7.916852   7.189407
    34  C    4.369146   4.529162   5.827276   6.819718   6.453568
    35  F    4.323003   4.712324   6.082477   6.930550   6.817668
    36  F    5.326779   5.241444   6.462655   7.598217   6.829084
    37  F    5.185633   5.482809   6.742450   7.647518   7.464126
    38  H    3.873348   2.820222   2.056239   2.824256   1.094684
    39  H    4.304985   3.287632   2.034231   2.517107   1.092900
                    6          7          8          9         10
     6  N    0.000000
     7  C    1.458176   0.000000
     8  F    2.282508   1.357932   0.000000
     9  F    2.268127   1.360949   2.144046   0.000000
    10  C    2.559388   1.556526   2.402573   2.387279   0.000000
    11  F    3.029023   2.389387   2.763471   3.559258   1.371735
    12  O    2.938737   2.499117   3.665301   3.043614   1.438269
    13  C    3.752454   3.210705   4.440748   3.151536   2.398038
    14  F    4.807142   3.951548   4.968406   3.821975   2.865347
    15  F    4.456834   4.277157   5.583044   4.236957   3.541987
    16  F    3.419799   2.884135   4.108411   2.306116   2.732283
    17  C    3.831127   2.479288   2.835841   2.766062   1.533424
    18  F    4.218036   2.874811   3.368938   2.470187   2.397169
    19  F    4.243468   2.847165   2.517520   3.223501   2.402851
    20  F    4.918666   3.696859   4.082448   4.042369   2.379867
    21  C    1.374518   2.446595   2.841246   3.552632   3.158744
    22  O    2.264531   2.741157   2.695039   4.039111   3.165514
    23  N    2.336994   3.679465   4.164631   4.599066   4.354742
    24  C    3.666305   4.868920   5.151865   5.927100   5.358303
    25  F    4.000869   4.917906   5.173452   6.140055   5.035652
    26  F    4.583820   5.875829   6.344070   6.832895   6.269269
    27  C    4.485792   5.613789   5.553395   6.645884   6.320025
    28  F    4.904932   6.166606   6.152938   6.998113   7.083789
    29  O    4.121586   5.002969   4.632088   6.039280   5.834220
    30  C    5.370926   6.121370   5.521536   7.103462   6.996753
    31  F    5.431284   5.939372   5.094871   6.804755   6.928441
    32  F    6.108601   7.028267   6.524971   7.896262   8.016169
    33  F    6.190261   6.835767   6.208184   7.946138   7.479531
    34  C    5.834011   6.886407   6.798845   8.012023   7.383065
    35  F    6.423177   7.590667   7.706058   8.676070   7.999100
    36  F    6.007825   6.852245   6.703267   8.097486   7.109289
    37  F    6.826561   7.844159   7.587690   8.926240   8.460914
    38  H    2.070474   2.925161   4.148007   3.106106   3.394023
    39  H    2.089531   2.654440   3.619512   2.209527   3.742045
                   11         12         13         14         15
    11  F    0.000000
    12  O    2.189401   0.000000
    13  C    3.462014   1.403637   0.000000
    14  F    3.837152   2.255902   1.337031   0.000000
    15  F    4.396467   2.225652   1.344589   2.186882   0.000000
    16  F    4.029622   2.242624   1.339767   2.202363   2.174552
    17  C    2.336467   2.549370   2.906460   2.689908   4.215743
    18  F    3.542204   3.051626   2.790684   2.453855   4.103958
    19  F    2.751522   3.709755   4.218872   4.016416   5.532929
    20  F    2.751958   2.920507   3.183259   2.502466   4.321307
    21  C    3.010192   3.521238   4.632506   5.656384   5.209919
    22  O    2.558239   3.826764   5.094950   5.912896   5.810866
    23  N    4.195853   4.379864   5.400233   6.560036   5.682789
    24  C    4.862150   5.403138   6.555405   7.650018   6.775282
    25  F    4.243910   5.084701   6.373797   7.323481   6.623983
    26  F    5.839666   6.034606   7.079492   8.243086   7.044652
    27  C    5.774129   6.625656   7.792178   8.844720   8.149008
    28  F    6.748532   7.332487   8.358776   9.500588   8.651266
    29  O    5.293828   6.439313   7.616398   8.558540   8.199457
    30  C    6.408030   7.727968   8.905942   9.790457   9.553277
    31  F    6.445977   7.857704   8.965919   9.755348   9.766069
    32  F    7.530296   8.642112   9.755362  10.733811  10.308094
    33  F    6.670570   8.210223   9.484914  10.289230  10.123534
    34  C    6.627789   7.629513   8.874080   9.875846   9.155346
    35  F    7.287838   8.013849   9.201490  10.265967   9.288601
    36  F    6.150155   7.410976   8.743880   9.616289   9.082574
    37  F    7.710240   8.826902  10.065719  11.055485  10.409308
    38  H    4.107969   2.809989   3.109555   4.429649   3.203139
    39  H    4.707197   3.713890   3.769989   4.906645   4.246480
                   16         17         18         19         20
    16  F    0.000000
    17  C    3.139548   0.000000
    18  F    2.590880   1.351999   0.000000
    19  F    4.280495   1.350118   2.173196   0.000000
    20  F    3.834095   1.355491   2.174449   2.172804   0.000000
    21  C    4.590329   4.538711   5.224719   4.803632   5.462302
    22  O    5.220775   4.381344   5.310949   4.399609   5.195974
    23  N    5.354032   5.810014   6.421079   6.169577   6.670993
    24  C    6.676072   6.800603   7.582238   7.052472   7.532545
    25  F    6.743444   6.430717   7.393738   6.676440   6.960291
    26  F    7.251309   7.773510   8.492559   8.177923   8.426256
    27  C    7.781614   7.638041   8.429524   7.642965   8.468557
    28  F    8.169673   8.407919   9.038129   8.444253   9.349531
    29  O    7.518712   6.975005   7.775461   6.763066   7.889189
    30  C    8.763360   7.999783   8.808070   7.600039   8.923724
    31  F    8.709459   7.723068   8.458234   7.140001   8.723852
    32  F    9.524101   9.086143   9.801479   8.750957  10.064109
    33  F    9.506390   8.447575   9.401010   8.000140   9.220506
    34  C    9.023304   8.694501   9.609456   8.677207   9.377235
    35  F    9.411300   9.404297  10.284991   9.548486  10.021364
    36  F    9.054863   8.339356   9.390205   8.270430   8.872789
    37  F   10.132002   9.697996  10.599632   9.544299  10.437160
    38  H    2.794303   4.687771   4.768590   5.552428   5.525540
    39  H    2.838234   4.682464   4.444201   5.300987   5.806687
                   21         22         23         24         25
    21  C    0.000000
    22  O    1.225517   0.000000
    23  N    1.382481   2.293483   0.000000
    24  C    2.427333   2.736874   1.455512   0.000000
    25  F    2.684776   2.509841   2.288542   1.365709   0.000000
    26  F    3.519215   3.997704   2.286021   1.364766   2.137851
    27  C    3.267032   3.308325   2.550615   1.552053   2.392029
    28  F    3.928772   4.275232   2.996345   2.382413   3.559822
    29  O    3.007087   2.752476   2.892375   2.442228   2.966718
    30  C    4.347284   3.956543   4.275139   3.714932   4.153737
    31  F    4.652181   4.193005   4.898421   4.670217   5.068502
    32  F    5.145056   5.001506   4.774671   4.158519   4.875508
    33  F    5.032374   4.395829   4.999713   4.164928   4.229544
    34  C    4.522022   4.336604   3.807524   2.453115   2.721625
    35  F    5.153208   5.167193   4.176210   2.771774   3.081311
    36  F    4.636838   4.137901   4.224652   2.895927   2.479493
    37  F    5.567027   5.325164   4.913627   3.679210   4.031521
    38  H    2.844158   3.920397   2.974441   4.325939   4.738178
    39  H    3.313605   4.341955   3.701476   5.156110   5.763898
                   26         27         28         29         30
    26  F    0.000000
    27  C    2.397414   0.000000
    28  F    2.771007   1.364784   0.000000
    29  O    3.630558   1.431464   2.221599   0.000000
    30  C    4.759172   2.368301   2.814586   1.402372   0.000000
    31  F    5.835478   3.511847   3.843027   2.231126   1.345896
    32  F    4.924117   2.642404   2.455050   2.264430   1.341783
    33  F    5.140684   2.903977   3.662699   2.240140   1.342578
    34  C    2.803456   1.535435   2.374169   2.535539   2.910687
    35  F    2.421345   2.408773   2.857354   3.704364   4.195228
    36  F    3.423188   2.395456   3.562535   2.938548   3.300063
    37  F    4.014738   2.392135   2.761000   3.011688   2.730035
    38  H    4.679355   5.514485   5.730191   5.620222   6.962889
    39  H    5.738639   5.967483   5.978711   5.749507   6.923710
                   31         32         33         34         35
    31  F    0.000000
    32  F    2.184465   0.000000
    33  F    2.185410   2.201524   0.000000
    34  C    4.232270   3.056860   2.777160   0.000000
    35  F    5.521507   4.118901   4.100841   1.350916   0.000000
    36  F    4.482560   3.861211   2.710700   1.352138   2.177743
    37  F    4.040982   2.479694   2.434485   1.355485   2.162630
    38  H    7.239045   7.494314   7.775532   6.759081   6.963456
    39  H    6.905004   7.400525   7.930241   7.404717   7.819449
                   36         37         38         39
    36  F    0.000000
    37  F    2.169984   0.000000
    38  H    7.051190   7.885728   0.000000
    39  H    7.808118   8.339671   1.793075   0.000000
 Symmetry turned off by external request.
 Stoichiometry    C11H2F19N3O4(1+,2)
 Framework group  C1[X(C11H2F19N3O4)]
 Deg. of freedom   111
 Full point group                 C1      NOp   1
 Rotational constants (GHZ):      0.1961559      0.0624805      0.0573790
 Leave Link  202 at Sun Mar  3 17:44:02 2024, MaxMem=  5368709120 cpu:         0.1
 (Enter /home/k0335/k033513/app/g09/l301.exe)
 Standard basis: 6-31G(d,p) (6D, 7F)
 Ernie: Thresh=  0.10000D-02 Tol=  0.10000D-05 Strict=F.
   565 basis functions,  1050 primitive gaussians,   565 cartesian basis functions
   146 alpha electrons      145 beta electrons
       nuclear repulsion energy      5433.1750066097 Hartrees.
 IExCor=20419 DFT=T Ex+Corr=CAM-B3LYP ExCW=0 ScaHFX=  1.000000
 ScaDFX=  1.000000  1.000000  1.000000  0.810000 ScalE2=  1.000000  1.000000
 IRadAn=      0 IRanWt=     -1 IRanGd=            0 ICorTp=0 IEmpDi=  4
  HFx wShort=  0.000000 wLong=  0.330000 cFull=  0.190000 cShort=  0.000000 cLong=  0.460000
  DFx wShort=  0.000000 wLong=  0.330000 cFull=  0.190000 cShort=  0.000000 cLong=  0.460000
 NAtoms=   39 NActive=   39 NUniq=   39 SFac= 1.00D+00 NAtFMM=   60 NAOKFM=F Big=F
 Integral buffers will be    131072 words long.
 Raffenetti 2 integral format.
 Two-electron integral symmetry is turned off.
 Using the following non-standard input for PCM:
 eps=4.9
 --- end of non-standard input.
 ------------------------------------------------------------------------------
 Polarizable Continuum Model (PCM)
 =================================
 Model                : PCM (using non-symmetric T matrix).
 Atomic radii         : UFF (Universal Force Field).
 Polarization charges : Total charges.
 Charge compensation  : None.
 Solution method      : On-the-fly selection.
 Cavity type          : Scaled VdW (van der Waals Surface) (Alpha=1.100).
 Cavity algorithm     : GePol (No added spheres)
                        Default sphere list used, NSphG=   39.
                        Lebedev-Laikov grids with approx.  5.0 points / Ang**2.
                        Smoothing algorithm: Karplus/York (Gamma=1.0000).
                        Polarization charges: spherical gaussians, with
                                              point-specific exponents (IZeta= 3).
                        Self-potential: point-specific (ISelfS= 7).
                        Self-field    : sphere-specific E.n sum rule (ISelfD= 2).
 Solvent              : Generic,
                        Eps                           =   4.900000
                        Eps(infinity)                 =   0.000000
                        RSolv                         =   0.000000 Ang.
                        Molar volume                  =   0.000000 cm**3/mol
                        Thermal expansion coefficient =   0.000000 K**-1
                        Absolute temperature          = 298.150000 K
                        Numeral density               =   0.000000 Ang**-3
                        Hydrogen bond acidity         =   0.000000
                        Hydrogen bond basicity        =   0.000000
                        Surface tension at interface  =   0.000000 (cal/mol)*Ang**-2
                        Carbon aromaticity            =   0.000000
                        Electronegative halogenicity  =   0.000000
 ------------------------------------------------------------------------------
 GePol: Number of generator spheres                  =      39
 GePol: Total number of spheres                      =      39
 GePol: Number of exposed spheres                    =      39 (100.00%)
 GePol: Number of points                             =    3302
 GePol: Average weight of points                     =       0.12
 GePol: Minimum weight of points                     =   0.19D-10
 GePol: Maximum weight of points                     =    0.20577
 GePol: Number of points with low weight             =     153
 GePol: Fraction of low-weight points (<1% of avg)   =       4.63%
 GePol: Cavity surface area                          =    410.566 Ang**2
 GePol: Cavity volume                                =    478.862 Ang**3
 Leave Link  301 at Sun Mar  3 17:44:02 2024, MaxMem=  5368709120 cpu:         0.7
 (Enter /home/k0335/k033513/app/g09/l302.exe)
 NPDir=0 NMtPBC=     1 NCelOv=     1 NCel=       1 NClECP=     1 NCelD=      1
         NCelK=      1 NCelE2=     1 NClLst=     1 CellRange=     0.0.
 One-electron integrals computed using PRISM.
 NBasis=   565 RedAO= T EigKep=  1.20D-03  NBF=   565
 NBsUse=   565 1.00D-06 EigRej= -1.00D+00 NBFU=   565
 Precomputing XC quadrature grid using
 IXCGrd= 4 IRadAn=           0 IRanWt=          -1 IRanGd=           0 AccXCQ= 0.00D+00.
 Generated NRdTot=       0 NPtTot=           0 NUsed=           0 NTot=          32
 NSgBfM=   551   552   552   552   552 MxSgAt=    39 MxSgA2=    39.
 Leave Link  302 at Sun Mar  3 17:44:02 2024, MaxMem=  5368709120 cpu:        11.5
 (Enter /home/k0335/k033513/app/g09/l303.exe)
 DipDrv:  MaxL=1.
 Leave Link  303 at Sun Mar  3 17:44:02 2024, MaxMem=  5368709120 cpu:         0.8
 (Enter /home/k0335/k033513/app/g09/l401.exe)
 ExpMin= 1.61D-01 ExpMax= 7.00D+03 ExpMxC= 1.05D+03 IAcc=1 IRadAn=         1 AccDes= 0.00D+00
 Harris functional with IExCor=20419 and IRadAn=       1 diagonalized for initial guess.
 HarFok:  IExCor=20419 AccDes= 0.00D+00 IRadAn=         1 IDoV= 1 UseB2=F ITyADJ=14
 ICtDFT=  3500011 ScaDFX=  1.000000  1.000000  1.000000  1.000000
 FoFCou: FMM=F IPFlag=           0 FMFlag=      100000 FMFlg1=           0
         NFxFlg=           0 DoJE=T BraDBF=F KetDBF=T FulRan=T
         wScrn=  0.000000 ICntrl=     500 IOpCl=  0 I1Cent=   200000004 NGrid=           0
         NMat0=    1 NMatS0=      1 NMatT0=    0 NMatD0=    1 NMtDS0=    0 NMtDT0=    0
 Symmetry not used in FoFCou.
 Harris En= -2699.57572754794    
 JPrj=0 DoOrth=F DoCkMO=F.
 Initial guess <Sx>= 0.0000 <Sy>= 0.0000 <Sz>= 0.5000 <S**2>= 0.7500 S= 0.5000
 Leave Link  401 at Sun Mar  3 17:44:03 2024, MaxMem=  5368709120 cpu:        13.8
 (Enter /home/k0335/k033513/app/g09/l502.exe)
 UHF open shell SCF:
 Using DIIS extrapolation, IDIIS=  1040.
 Two-electron integral symmetry not used.
 IVT=      993253 IEndB=      993253 NGot=  5368709120 MDV=  5368052298
 LenX=  5368052298 LenY=  5367732508
 Requested convergence on RMS density matrix=1.00D-08 within 128 cycles.
 Requested convergence on MAX density matrix=1.00D-06.
 Requested convergence on             energy=1.00D-06.
 No special actions if energy rises.
 Fock matrices will be formed incrementally for  20 cycles.

 Cycle   1  Pass 1  IDiag  1:
 FoFJK:  IHMeth= 1 ICntrl=       0 DoSepK=T KAlg= 0 I1Cent=   0 FoldK=F
 IRaf=         1 NMat=   1 IRICut=       1 DoRegI=T DoRafI=F ISym2E= 0.
 FoFCou: FMM=F IPFlag=           0 FMFlag=      100000 FMFlg1=           0
         NFxFlg=           0 DoJE=T BraDBF=F KetDBF=F FulRan=T
         wScrn=  0.000000 ICntrl=     500 IOpCl=  0 I1Cent=           0 NGrid=           0
         NMat0=    1 NMatS0=      1 NMatT0=    0 NMatD0=    1 NMtDS0=    0 NMtDT0=    0
 Symmetry not used in FoFCou.
 Inv3:  Mode=1 IEnd=    32709612.
 Iteration    1 A*A^-1 deviation from unit magnitude is 5.33D-15 for   3266.
 Iteration    1 A*A^-1 deviation from orthogonality  is 2.85D-15 for   3072   1527.
 Iteration    1 A^-1*A deviation from unit magnitude is 5.33D-15 for   3266.
 Iteration    1 A^-1*A deviation from orthogonality  is 4.40D-12 for   3126   3108.
 E= -2780.19660993161    
 DIIS: error= 3.95D-02 at cycle   1 NSaved=   1.
 NSaved= 1 IEnMin= 1 EnMin= -2780.19660993161     IErMin= 1 ErrMin= 3.95D-02
 ErrMax= 3.95D-02  0.00D+00 EMaxC= 1.00D-01 BMatC= 1.02D+01 BMatP= 1.02D+01
 IDIUse=3 WtCom= 6.05D-01 WtEn= 3.95D-01
 Coeff-Com:  0.100D+01
 Coeff-En:   0.100D+01
 Coeff:      0.100D+01
 Gap=     0.553 Goal=   None    Shift=    0.000
 Gap=     0.037 Goal=   None    Shift=    0.000
 GapD=    0.037 DampG=0.250 DampE=0.500 DampFc=0.2500 IDamp=-1.
 Damping current iteration by 2.50D-01
 RMSDP=4.31D-03 MaxDP=4.15D-01              OVMax= 9.39D-01

 Cycle   2  Pass 1  IDiag  1:
 RMSU=  1.08D-03    CP:  9.99D-01
 E= -2780.46668323874     Delta-E=       -0.270073307127 Rises=F Damp=T
 DIIS: error= 2.90D-02 at cycle   2 NSaved=   2.
 NSaved= 2 IEnMin= 2 EnMin= -2780.46668323874     IErMin= 2 ErrMin= 2.90D-02
 ErrMax= 2.90D-02  0.00D+00 EMaxC= 1.00D-01 BMatC= 4.08D+00 BMatP= 1.02D+01
 IDIUse=3 WtCom= 7.10D-01 WtEn= 2.90D-01
 Coeff-Com: -0.984D+00 0.198D+01
 Coeff-En:   0.000D+00 0.100D+01
 Coeff:     -0.699D+00 0.170D+01
 Gap=    -0.586 Goal=   None    Shift=    0.000
 Gap=     0.614 Goal=   None    Shift=    0.000
 RMSDP=2.11D-03 MaxDP=2.28D-01 DE=-2.70D-01 OVMax= 5.03D-01

 Cycle   3  Pass 1  IDiag  1:
 RMSU=  2.04D-03    CP:  1.00D+00  1.50D+00
 E= -2780.67478302881     Delta-E=       -0.208099790068 Rises=F Damp=F
 DIIS: error= 1.75D-02 at cycle   3 NSaved=   3.
 NSaved= 3 IEnMin= 3 EnMin= -2780.67478302881     IErMin= 3 ErrMin= 1.75D-02
 ErrMax= 1.75D-02  0.00D+00 EMaxC= 1.00D-01 BMatC= 3.05D+00 BMatP= 4.08D+00
 IDIUse=3 WtCom= 8.25D-01 WtEn= 1.75D-01
 Coeff-Com: -0.759D+00 0.128D+01 0.474D+00
 Coeff-En:   0.000D+00 0.353D+00 0.647D+00
 Coeff:     -0.626D+00 0.112D+01 0.504D+00
 Gap=     0.407 Goal=   None    Shift=    0.000
 Gap=     0.184 Goal=   None    Shift=    0.000
 RMSDP=1.21D-03 MaxDP=1.64D-01 DE=-2.08D-01 OVMax= 2.02D-01

 Cycle   4  Pass 1  IDiag  1:
 RMSU=  9.43D-04    CP:  1.00D+00  1.60D+00  6.29D-01
 E= -2781.27103748999     Delta-E=       -0.596254461185 Rises=F Damp=F
 DIIS: error= 5.40D-03 at cycle   4 NSaved=   4.
 NSaved= 4 IEnMin= 4 EnMin= -2781.27103748999     IErMin= 4 ErrMin= 5.40D-03
 ErrMax= 5.40D-03  0.00D+00 EMaxC= 1.00D-01 BMatC= 1.40D-01 BMatP= 3.05D+00
 IDIUse=3 WtCom= 9.46D-01 WtEn= 5.40D-02
 Coeff-Com: -0.357D+00 0.546D+00 0.135D+00 0.677D+00
 Coeff-En:   0.000D+00 0.000D+00 0.000D+00 0.100D+01
 Coeff:     -0.338D+00 0.516D+00 0.127D+00 0.694D+00
 Gap=     0.283 Goal=   None    Shift=    0.000
 Gap=     0.115 Goal=   None    Shift=    0.000
 RMSDP=3.84D-04 MaxDP=4.64D-02 DE=-5.96D-01 OVMax= 6.05D-02

 Cycle   5  Pass 1  IDiag  1:
 RMSU=  3.80D-04    CP:  1.00D+00  1.63D+00  6.23D-01  9.93D-01
 E= -2781.28477274373     Delta-E=       -0.013735253739 Rises=F Damp=F
 DIIS: error= 4.13D-03 at cycle   5 NSaved=   5.
 NSaved= 5 IEnMin= 5 EnMin= -2781.28477274373     IErMin= 5 ErrMin= 4.13D-03
 ErrMax= 4.13D-03  0.00D+00 EMaxC= 1.00D-01 BMatC= 1.07D-01 BMatP= 1.40D-01
 IDIUse=3 WtCom= 9.59D-01 WtEn= 4.13D-02
 Coeff-Com: -0.162D+00 0.224D+00-0.321D-01 0.435D+00 0.535D+00
 Coeff-En:   0.000D+00 0.000D+00 0.000D+00 0.253D+00 0.747D+00
 Coeff:     -0.156D+00 0.215D+00-0.308D-01 0.428D+00 0.544D+00
 Gap=     0.295 Goal=   None    Shift=    0.000
 Gap=     0.123 Goal=   None    Shift=    0.000
 RMSDP=2.35D-04 MaxDP=1.91D-02 DE=-1.37D-02 OVMax= 3.92D-02

 Cycle   6  Pass 1  IDiag  1:
 RMSU=  1.28D-04    CP:  1.00D+00  1.69D+00  5.95D-01  1.16D+00  7.64D-01
 E= -2781.30632708605     Delta-E=       -0.021554342324 Rises=F Damp=F
 DIIS: error= 1.19D-03 at cycle   6 NSaved=   6.
 NSaved= 6 IEnMin= 6 EnMin= -2781.30632708605     IErMin= 6 ErrMin= 1.19D-03
 ErrMax= 1.19D-03  0.00D+00 EMaxC= 1.00D-01 BMatC= 5.80D-03 BMatP= 1.07D-01
 IDIUse=3 WtCom= 9.88D-01 WtEn= 1.19D-02
 Coeff-Com: -0.345D-01 0.451D-01-0.347D-01 0.464D-01 0.146D+00 0.832D+00
 Coeff-En:   0.000D+00 0.000D+00 0.000D+00 0.000D+00 0.000D+00 0.100D+01
 Coeff:     -0.341D-01 0.446D-01-0.343D-01 0.458D-01 0.144D+00 0.834D+00
 Gap=     0.301 Goal=   None    Shift=    0.000
 Gap=     0.130 Goal=   None    Shift=    0.000
 RMSDP=1.05D-04 MaxDP=1.15D-02 DE=-2.16D-02 OVMax= 2.44D-02

 Cycle   7  Pass 1  IDiag  1:
 RMSU=  6.78D-05    CP:  1.00D+00  1.69D+00  5.82D-01  1.21D+00  8.78D-01
                    CP:  1.29D+00
 E= -2781.30835351717     Delta-E=       -0.002026431117 Rises=F Damp=F
 DIIS: error= 6.91D-04 at cycle   7 NSaved=   7.
 NSaved= 7 IEnMin= 7 EnMin= -2781.30835351717     IErMin= 7 ErrMin= 6.91D-04
 ErrMax= 6.91D-04  0.00D+00 EMaxC= 1.00D-01 BMatC= 1.84D-03 BMatP= 5.80D-03
 IDIUse=3 WtCom= 9.93D-01 WtEn= 6.91D-03
 Coeff-Com:  0.161D-01-0.207D-01-0.412D-02-0.104D+00-0.920D-01 0.540D+00
 Coeff-Com:  0.665D+00
 Coeff-En:   0.000D+00 0.000D+00 0.000D+00 0.000D+00 0.000D+00 0.000D+00
 Coeff-En:   0.100D+01
 Coeff:      0.160D-01-0.205D-01-0.409D-02-0.103D+00-0.914D-01 0.536D+00
 Coeff:      0.667D+00
 Gap=     0.308 Goal=   None    Shift=    0.000
 Gap=     0.137 Goal=   None    Shift=    0.000
 RMSDP=6.06D-05 MaxDP=8.25D-03 DE=-2.03D-03 OVMax= 1.83D-02

 Cycle   8  Pass 1  IDiag  1:
 RMSU=  4.42D-05    CP:  1.00D+00  1.70D+00  5.77D-01  1.22D+00  9.18D-01
                    CP:  1.56D+00  1.01D+00
 E= -2781.30908988496     Delta-E=       -0.000736367787 Rises=F Damp=F
 DIIS: error= 3.92D-04 at cycle   8 NSaved=   8.
 NSaved= 8 IEnMin= 8 EnMin= -2781.30908988496     IErMin= 8 ErrMin= 3.92D-04
 ErrMax= 3.92D-04  0.00D+00 EMaxC= 1.00D-01 BMatC= 4.52D-04 BMatP= 1.84D-03
 IDIUse=3 WtCom= 9.96D-01 WtEn= 3.92D-03
 Coeff-Com:  0.102D-01-0.136D-01 0.738D-02-0.156D-01-0.295D-01 0.932D-02
 Coeff-Com:  0.182D+00 0.850D+00
 Coeff-En:   0.000D+00 0.000D+00 0.000D+00 0.000D+00 0.000D+00 0.000D+00
 Coeff-En:   0.000D+00 0.100D+01
 Coeff:      0.102D-01-0.135D-01 0.735D-02-0.156D-01-0.294D-01 0.929D-02
 Coeff:      0.181D+00 0.850D+00
 Gap=     0.310 Goal=   None    Shift=    0.000
 Gap=     0.139 Goal=   None    Shift=    0.000
 RMSDP=3.62D-05 MaxDP=3.84D-03 DE=-7.36D-04 OVMax= 1.27D-02

 Cycle   9  Pass 1  IDiag  1:
 RMSU=  1.63D-05    CP:  1.00D+00  1.70D+00  5.80D-01  1.21D+00  9.25D-01
                    CP:  1.66D+00  1.28D+00  1.50D+00
 E= -2781.30936460452     Delta-E=       -0.000274719561 Rises=F Damp=F
 DIIS: error= 2.38D-04 at cycle   9 NSaved=   9.
 NSaved= 9 IEnMin= 9 EnMin= -2781.30936460452     IErMin= 9 ErrMin= 2.38D-04
 ErrMax= 2.38D-04  0.00D+00 EMaxC= 1.00D-01 BMatC= 1.92D-04 BMatP= 4.52D-04
 IDIUse=3 WtCom= 9.98D-01 WtEn= 2.38D-03
 Coeff-Com:  0.406D-02-0.595D-02 0.643D-02 0.300D-01 0.190D-01-0.184D+00
 Coeff-Com: -0.106D+00 0.289D+00 0.947D+00
 Coeff-En:   0.000D+00 0.000D+00 0.000D+00 0.000D+00 0.000D+00 0.000D+00
 Coeff-En:   0.000D+00 0.000D+00 0.100D+01
 Coeff:      0.405D-02-0.593D-02 0.642D-02 0.299D-01 0.190D-01-0.184D+00
 Coeff:     -0.105D+00 0.288D+00 0.947D+00
 Gap=     0.312 Goal=   None    Shift=    0.000
 Gap=     0.140 Goal=   None    Shift=    0.000
 RMSDP=3.87D-05 MaxDP=4.20D-03 DE=-2.75D-04 OVMax= 1.47D-02

 Cycle  10  Pass 1  IDiag  1:
 RMSU=  1.15D-05    CP:  1.00D+00  1.70D+00  5.82D-01  1.21D+00  9.33D-01
                    CP:  1.76D+00  1.51D+00  2.11D+00  1.73D+00
 E= -2781.30957566799     Delta-E=       -0.000211063470 Rises=F Damp=F
 DIIS: error= 1.93D-04 at cycle  10 NSaved=  10.
 NSaved=10 IEnMin=10 EnMin= -2781.30957566799     IErMin=10 ErrMin= 1.93D-04
 ErrMax= 1.93D-04  0.00D+00 EMaxC= 1.00D-01 BMatC= 8.21D-05 BMatP= 1.92D-04
 IDIUse=3 WtCom= 9.98D-01 WtEn= 1.93D-03
 Coeff-Com:  0.583D-03-0.987D-03-0.127D-02 0.610D-02 0.125D-01-0.249D-01
 Coeff-Com: -0.157D-01-0.515D+00 0.244D+00 0.130D+01
 Coeff-En:   0.000D+00 0.000D+00 0.000D+00 0.000D+00 0.000D+00 0.000D+00
 Coeff-En:   0.000D+00 0.000D+00 0.000D+00 0.100D+01
 Coeff:      0.582D-03-0.985D-03-0.127D-02 0.609D-02 0.125D-01-0.248D-01
 Coeff:     -0.157D-01-0.514D+00 0.243D+00 0.129D+01
 Gap=     0.313 Goal=   None    Shift=    0.000
 Gap=     0.141 Goal=   None    Shift=    0.000
 RMSDP=4.48D-05 MaxDP=4.59D-03 DE=-2.11D-04 OVMax= 1.77D-02

 Cycle  11  Pass 1  IDiag  1:
 RMSU=  7.68D-06    CP:  1.00D+00  1.70D+00  5.83D-01  1.20D+00  9.41D-01
                    CP:  1.87D+00  1.78D+00  2.76D+00  2.97D+00  2.00D+00
 E= -2781.30973790104     Delta-E=       -0.000162233053 Rises=F Damp=F
 DIIS: error= 1.10D-04 at cycle  11 NSaved=  11.
 NSaved=11 IEnMin=11 EnMin= -2781.30973790104     IErMin=11 ErrMin= 1.10D-04
 ErrMax= 1.10D-04  0.00D+00 EMaxC= 1.00D-01 BMatC= 2.46D-05 BMatP= 8.21D-05
 IDIUse=3 WtCom= 9.99D-01 WtEn= 1.10D-03
 Coeff-Com:  0.109D-03-0.579D-04-0.187D-02-0.806D-02-0.147D-02 0.416D-01
 Coeff-Com:  0.721D-01-0.247D+00-0.164D+00 0.190D+00 0.112D+01
 Coeff-En:   0.000D+00 0.000D+00 0.000D+00 0.000D+00 0.000D+00 0.000D+00
 Coeff-En:   0.000D+00 0.000D+00 0.000D+00 0.000D+00 0.100D+01
 Coeff:      0.109D-03-0.578D-04-0.187D-02-0.805D-02-0.146D-02 0.415D-01
 Coeff:      0.721D-01-0.247D+00-0.164D+00 0.189D+00 0.112D+01
 Gap=     0.314 Goal=   None    Shift=    0.000
 Gap=     0.141 Goal=   None    Shift=    0.000
 RMSDP=2.65D-05 MaxDP=2.89D-03 DE=-1.62D-04 OVMax= 1.25D-02

 Cycle  12  Pass 1  IDiag  1:
 RMSU=  1.38D-05    CP:  1.00D+00  1.70D+00  5.84D-01  1.20D+00  9.43D-01
                    CP:  1.92D+00  1.91D+00  3.00D+00  3.00D+00  2.88D+00
                    CP:  1.83D+00
 E= -2781.30979906591     Delta-E=       -0.000061164872 Rises=F Damp=F
 DIIS: error= 8.09D-05 at cycle  12 NSaved=  12.
 NSaved=12 IEnMin=12 EnMin= -2781.30979906591     IErMin=12 ErrMin= 8.09D-05
 ErrMax= 8.09D-05  0.00D+00 EMaxC= 1.00D-01 BMatC= 1.40D-05 BMatP= 2.46D-05
 IDIUse=1 WtCom= 1.00D+00 WtEn= 0.00D+00
 Coeff-Com:  0.116D-02-0.151D-02-0.145D-03-0.102D-01-0.790D-02 0.283D-01
 Coeff-Com:  0.720D-01 0.117D+00-0.194D+00-0.682D+00 0.587D+00 0.109D+01
 Coeff:      0.116D-02-0.151D-02-0.145D-03-0.102D-01-0.790D-02 0.283D-01
 Coeff:      0.720D-01 0.117D+00-0.194D+00-0.682D+00 0.587D+00 0.109D+01
 Gap=     0.315 Goal=   None    Shift=    0.000
 Gap=     0.141 Goal=   None    Shift=    0.000
 RMSDP=2.74D-05 MaxDP=2.94D-03 DE=-6.12D-05 OVMax= 1.34D-02

 Cycle  13  Pass 1  IDiag  1:
 RMSU=  1.37D-05    CP:  1.00D+00  1.70D+00  5.85D-01  1.19D+00  9.48D-01
                    CP:  1.98D+00  2.06D+00  3.00D+00  3.00D+00  3.00D+00
                    CP:  3.00D+00  2.24D+00
 E= -2781.30983673612     Delta-E=       -0.000037670206 Rises=F Damp=F
 DIIS: error= 4.10D-05 at cycle  13 NSaved=  13.
 NSaved=13 IEnMin=13 EnMin= -2781.30983673612     IErMin=13 ErrMin= 4.10D-05
 ErrMax= 4.10D-05  0.00D+00 EMaxC= 1.00D-01 BMatC= 5.29D-06 BMatP= 1.40D-05
 IDIUse=1 WtCom= 1.00D+00 WtEn= 0.00D+00
 Coeff-Com:  0.239D-03-0.335D-03 0.754D-03-0.133D-03 0.126D-02-0.480D-02
 Coeff-Com:  0.108D-01 0.120D+00 0.616D-02-0.367D+00-0.158D+00 0.409D+00
 Coeff-Com:  0.981D+00
 Coeff:      0.239D-03-0.335D-03 0.754D-03-0.133D-03 0.126D-02-0.480D-02
 Coeff:      0.108D-01 0.120D+00 0.616D-02-0.367D+00-0.158D+00 0.409D+00
 Coeff:      0.981D+00
 Gap=     0.315 Goal=   None    Shift=    0.000
 Gap=     0.141 Goal=   None    Shift=    0.000
 RMSDP=1.38D-05 MaxDP=1.36D-03 DE=-3.77D-05 OVMax= 7.66D-03

 Cycle  14  Pass 1  IDiag  1:
 RMSU=  6.76D-06    CP:  1.00D+00  1.70D+00  5.86D-01  1.19D+00  9.48D-01
                    CP:  2.00D+00  2.12D+00  3.00D+00  3.00D+00  3.00D+00
                    CP:  3.00D+00  2.86D+00  1.48D+00
 E= -2781.30984765467     Delta-E=       -0.000010918544 Rises=F Damp=F
 DIIS: error= 2.35D-05 at cycle  14 NSaved=  14.
 NSaved=14 IEnMin=14 EnMin= -2781.30984765467     IErMin=14 ErrMin= 2.35D-05
 ErrMax= 2.35D-05  0.00D+00 EMaxC= 1.00D-01 BMatC= 2.06D-06 BMatP= 5.29D-06
 IDIUse=1 WtCom= 1.00D+00 WtEn= 0.00D+00
 Coeff-Com:  0.256D-03-0.390D-03 0.388D-03 0.156D-02 0.318D-02-0.983D-02
 Coeff-Com: -0.128D-01 0.491D-02 0.662D-01 0.348D-01-0.224D+00-0.183D+00
 Coeff-Com:  0.539D+00 0.779D+00
 Coeff:      0.256D-03-0.390D-03 0.388D-03 0.156D-02 0.318D-02-0.983D-02
 Coeff:     -0.128D-01 0.491D-02 0.662D-01 0.348D-01-0.224D+00-0.183D+00
 Coeff:      0.539D+00 0.779D+00
 Gap=     0.315 Goal=   None    Shift=    0.000
 Gap=     0.141 Goal=   None    Shift=    0.000
 RMSDP=6.74D-06 MaxDP=6.38D-04 DE=-1.09D-05 OVMax= 3.77D-03

 Cycle  15  Pass 1  IDiag  1:
 RMSU=  2.69D-06    CP:  1.00D+00  1.70D+00  5.86D-01  1.19D+00  9.49D-01
                    CP:  2.01D+00  2.14D+00  3.00D+00  3.00D+00  3.00D+00
                    CP:  3.00D+00  3.00D+00  1.70D+00  1.56D+00
 E= -2781.30985126949     Delta-E=       -0.000003614827 Rises=F Damp=F
 DIIS: error= 1.54D-05 at cycle  15 NSaved=  15.
 NSaved=15 IEnMin=15 EnMin= -2781.30985126949     IErMin=15 ErrMin= 1.54D-05
 ErrMax= 1.54D-05  0.00D+00 EMaxC= 1.00D-01 BMatC= 6.53D-07 BMatP= 2.06D-06
 IDIUse=1 WtCom= 1.00D+00 WtEn= 0.00D+00
 Coeff-Com:  0.145D-03-0.201D-03-0.342D-03-0.666D-03 0.865D-03 0.269D-02
 Coeff-Com: -0.405D-02-0.589D-01 0.145D-01 0.165D+00 0.380D-01-0.285D+00
 Coeff-Com: -0.232D+00-0.463D-02 0.136D+01
 Coeff:      0.145D-03-0.201D-03-0.342D-03-0.666D-03 0.865D-03 0.269D-02
 Coeff:     -0.405D-02-0.589D-01 0.145D-01 0.165D+00 0.380D-01-0.285D+00
 Coeff:     -0.232D+00-0.463D-02 0.136D+01
 Gap=     0.315 Goal=   None    Shift=    0.000
 Gap=     0.141 Goal=   None    Shift=    0.000
 RMSDP=7.11D-06 MaxDP=5.68D-04 DE=-3.61D-06 OVMax= 3.83D-03

 Cycle  16  Pass 1  IDiag  1:
 RMSU=  1.39D-06    CP:  1.00D+00  1.70D+00  5.86D-01  1.19D+00  9.49D-01
                    CP:  2.01D+00  2.16D+00  3.00D+00  3.00D+00  3.00D+00
                    CP:  3.00D+00  3.00D+00  1.86D+00  2.27D+00  2.62D+00
 E= -2781.30985407544     Delta-E=       -0.000002805948 Rises=F Damp=F
 DIIS: error= 1.42D-05 at cycle  16 NSaved=  16.
 NSaved=16 IEnMin=16 EnMin= -2781.30985407544     IErMin=16 ErrMin= 1.42D-05
 ErrMax= 1.42D-05  0.00D+00 EMaxC= 1.00D-01 BMatC= 3.11D-07 BMatP= 6.53D-07
 IDIUse=1 WtCom= 1.00D+00 WtEn= 0.00D+00
 Coeff-Com:  0.119D-04-0.107D-04-0.294D-03-0.126D-02-0.701D-03 0.445D-02
 Coeff-Com:  0.479D-02-0.172D-01-0.210D-01 0.239D-01 0.101D+00-0.247D-01
 Coeff-Com: -0.202D+00-0.413D+00 0.486D+00 0.106D+01
 Coeff:      0.119D-04-0.107D-04-0.294D-03-0.126D-02-0.701D-03 0.445D-02
 Coeff:      0.479D-02-0.172D-01-0.210D-01 0.239D-01 0.101D+00-0.247D-01
 Coeff:     -0.202D+00-0.413D+00 0.486D+00 0.106D+01
 Gap=     0.315 Goal=   None    Shift=    0.000
 Gap=     0.141 Goal=   None    Shift=    0.000
 RMSDP=4.63D-06 MaxDP=4.12D-04 DE=-2.81D-06 OVMax= 2.19D-03

 Cycle  17  Pass 1  IDiag  1:
 RMSU=  2.07D-06    CP:  1.00D+00  1.70D+00  5.86D-01  1.19D+00  9.49D-01
                    CP:  2.01D+00  2.16D+00  3.00D+00  3.00D+00  3.00D+00
                    CP:  3.00D+00  3.00D+00  1.94D+00  2.74D+00  3.00D+00
                    CP:  1.82D+00
 E= -2781.30985536199     Delta-E=       -0.000001286548 Rises=F Damp=F
 DIIS: error= 1.13D-05 at cycle  17 NSaved=  17.
 NSaved=17 IEnMin=17 EnMin= -2781.30985536199     IErMin=17 ErrMin= 1.13D-05
 ErrMax= 1.13D-05  0.00D+00 EMaxC= 1.00D-01 BMatC= 1.67D-07 BMatP= 3.11D-07
 IDIUse=1 WtCom= 1.00D+00 WtEn= 0.00D+00
 Coeff-Com: -0.127D-03 0.173D-03 0.524D-04-0.221D-03-0.638D-03-0.192D-03
 Coeff-Com:  0.506D-02 0.366D-01-0.139D-01-0.107D+00 0.633D-02 0.163D+00
 Coeff-Com:  0.142D+00-0.217D+00-0.628D+00 0.287D+00 0.133D+01
 Coeff:     -0.127D-03 0.173D-03 0.524D-04-0.221D-03-0.638D-03-0.192D-03
 Coeff:      0.506D-02 0.366D-01-0.139D-01-0.107D+00 0.633D-02 0.163D+00
 Coeff:      0.142D+00-0.217D+00-0.628D+00 0.287D+00 0.133D+01
 Gap=     0.315 Goal=   None    Shift=    0.000
 Gap=     0.141 Goal=   None    Shift=    0.000
 RMSDP=4.55D-06 MaxDP=4.30D-04 DE=-1.29D-06 OVMax= 1.73D-03

 Cycle  18  Pass 1  IDiag  1:
 RMSU=  1.40D-06    CP:  1.00D+00  1.70D+00  5.86D-01  1.19D+00  9.49D-01
                    CP:  2.01D+00  2.16D+00  3.00D+00  3.00D+00  3.00D+00
                    CP:  3.00D+00  3.00D+00  1.97D+00  3.00D+00  3.00D+00
                    CP:  2.83D+00  2.43D+00
 E= -2781.30985621130     Delta-E=       -0.000000849317 Rises=F Damp=F
 DIIS: error= 8.11D-06 at cycle  18 NSaved=  18.
 NSaved=18 IEnMin=18 EnMin= -2781.30985621130     IErMin=18 ErrMin= 8.11D-06
 ErrMax= 8.11D-06  0.00D+00 EMaxC= 1.00D-01 BMatC= 7.60D-08 BMatP= 1.67D-07
 IDIUse=1 WtCom= 1.00D+00 WtEn= 0.00D+00
 Coeff-Com: -0.591D-04 0.793D-04 0.113D-03 0.380D-03 0.407D-04-0.249D-02
 Coeff-Com: -0.646D-03 0.210D-01 0.658D-02-0.487D-01-0.424D-01 0.569D-01
 Coeff-Com:  0.157D+00 0.696D-01-0.354D+00-0.402D+00 0.378D+00 0.116D+01
 Coeff:     -0.591D-04 0.793D-04 0.113D-03 0.380D-03 0.407D-04-0.249D-02
 Coeff:     -0.646D-03 0.210D-01 0.658D-02-0.487D-01-0.424D-01 0.569D-01
 Coeff:      0.157D+00 0.696D-01-0.354D+00-0.402D+00 0.378D+00 0.116D+01
 Gap=     0.315 Goal=   None    Shift=    0.000
 Gap=     0.141 Goal=   None    Shift=    0.000
 RMSDP=2.88D-06 MaxDP=2.99D-04 DE=-8.49D-07 OVMax= 1.10D-03

 Cycle  19  Pass 1  IDiag  1:
 RMSU=  1.14D-06    CP:  1.00D+00  1.70D+00  5.86D-01  1.19D+00  9.49D-01
                    CP:  2.01D+00  2.16D+00  3.00D+00  3.00D+00  3.00D+00
                    CP:  3.00D+00  3.00D+00  1.98D+00  3.00D+00  3.00D+00
                    CP:  3.00D+00  3.00D+00  2.31D+00
 E= -2781.30985652388     Delta-E=       -0.000000312575 Rises=F Damp=F
 DIIS: error= 5.67D-06 at cycle  19 NSaved=  19.
 NSaved=19 IEnMin=19 EnMin= -2781.30985652388     IErMin=19 ErrMin= 5.67D-06
 ErrMax= 5.67D-06  0.00D+00 EMaxC= 1.00D-01 BMatC= 2.21D-08 BMatP= 7.60D-08
 IDIUse=1 WtCom= 1.00D+00 WtEn= 0.00D+00
 Coeff-Com:  0.330D-04-0.443D-04 0.212D-04 0.208D-03 0.323D-03-0.107D-02
 Coeff-Com: -0.267D-02-0.765D-02 0.951D-02 0.285D-01-0.203D-01-0.501D-01
 Coeff-Com:  0.227D-02 0.107D+00 0.154D+00-0.259D+00-0.407D+00 0.418D+00
 Coeff-Com:  0.103D+01
 Coeff:      0.330D-04-0.443D-04 0.212D-04 0.208D-03 0.323D-03-0.107D-02
 Coeff:     -0.267D-02-0.765D-02 0.951D-02 0.285D-01-0.203D-01-0.501D-01
 Coeff:      0.227D-02 0.107D+00 0.154D+00-0.259D+00-0.407D+00 0.418D+00
 Coeff:      0.103D+01
 Gap=     0.315 Goal=   None    Shift=    0.000
 Gap=     0.141 Goal=   None    Shift=    0.000
 RMSDP=1.36D-06 MaxDP=1.61D-04 DE=-3.13D-07 OVMax= 5.10D-04

 Cycle  20  Pass 1  IDiag  1:
 RMSU=  4.76D-07    CP:  1.00D+00  1.70D+00  5.86D-01  1.19D+00  9.49D-01
                    CP:  2.01D+00  2.16D+00  3.00D+00  3.00D+00  3.00D+00
                    CP:  3.00D+00  3.00D+00  1.99D+00  3.00D+00  3.00D+00
                    CP:  3.00D+00  3.00D+00  2.90D+00  1.83D+00
 E= -2781.30985661827     Delta-E=       -0.000000094393 Rises=F Damp=F
 DIIS: error= 3.81D-06 at cycle  20 NSaved=  20.
 NSaved=20 IEnMin=20 EnMin= -2781.30985661827     IErMin=20 ErrMin= 3.81D-06
 ErrMax= 3.81D-06  0.00D+00 EMaxC= 1.00D-01 BMatC= 1.20D-08 BMatP= 2.21D-08
 IDIUse=1 WtCom= 1.00D+00 WtEn= 0.00D+00
 Coeff-Com:  0.270D-04-0.357D-04-0.286D-04-0.976D-04 0.143D-03 0.938D-03
 Coeff-Com: -0.382D-03-0.109D-01-0.107D-02 0.272D-01 0.124D-01-0.312D-01
 Coeff-Com: -0.736D-01 0.319D-02 0.175D+00 0.121D+00-0.257D+00-0.401D+00
 Coeff-Com:  0.235D+00 0.120D+01
 Coeff:      0.270D-04-0.357D-04-0.286D-04-0.976D-04 0.143D-03 0.938D-03
 Coeff:     -0.382D-03-0.109D-01-0.107D-02 0.272D-01 0.124D-01-0.312D-01
 Coeff:     -0.736D-01 0.319D-02 0.175D+00 0.121D+00-0.257D+00-0.401D+00
 Coeff:      0.235D+00 0.120D+01
 Gap=     0.315 Goal=   None    Shift=    0.000
 Gap=     0.141 Goal=   None    Shift=    0.000
 RMSDP=9.45D-07 MaxDP=1.25D-04 DE=-9.44D-08 OVMax= 3.56D-04

 Cycle  21  Pass 1  IDiag  1:
 Restarting incremental Fock formation.
 E= -2781.30985666423     Delta-E=       -0.000000045955 Rises=F Damp=F
 DIIS: error= 2.42D-06 at cycle  21 NSaved=  20.
 NSaved=20 IEnMin=20 EnMin= -2781.30985666423     IErMin=20 ErrMin= 2.42D-06
 ErrMax= 2.42D-06  0.00D+00 EMaxC= 1.00D-01 BMatC= 5.42D-09 BMatP= 1.20D-08
 IDIUse=1 WtCom= 1.00D+00 WtEn= 0.00D+00
 Coeff-Com: -0.123D-06-0.100D-04-0.110D-03-0.104D-03 0.871D-03 0.120D-02
 Coeff-Com: -0.456D-03-0.467D-02-0.405D-02 0.118D-01 0.148D-01-0.274D-01
 Coeff-Com: -0.309D-01-0.327D-01 0.140D+00 0.101D+00-0.293D+00-0.354D+00
 Coeff-Com:  0.374D+00 0.111D+01
 Coeff:     -0.123D-06-0.100D-04-0.110D-03-0.104D-03 0.871D-03 0.120D-02
 Coeff:     -0.456D-03-0.467D-02-0.405D-02 0.118D-01 0.148D-01-0.274D-01
 Coeff:     -0.309D-01-0.327D-01 0.140D+00 0.101D+00-0.293D+00-0.354D+00
 Coeff:      0.374D+00 0.111D+01
 Gap=     0.315 Goal=   None    Shift=    0.000
 Gap=     0.141 Goal=   None    Shift=    0.000
 RMSDP=6.82D-07 MaxDP=9.42D-05 DE=-4.60D-08 OVMax= 2.70D-04

 Cycle  22  Pass 1  IDiag  1:
 RMSU=  6.82D-07    CP:  1.00D+00
 E= -2781.30985668522     Delta-E=       -0.000000020995 Rises=F Damp=F
 DIIS: error= 1.47D-06 at cycle  22 NSaved=  20.
 NSaved=20 IEnMin=20 EnMin= -2781.30985668522     IErMin=20 ErrMin= 1.47D-06
 ErrMax= 1.47D-06  0.00D+00 EMaxC= 1.00D-01 BMatC= 2.14D-09 BMatP= 5.42D-09
 IDIUse=1 WtCom= 1.00D+00 WtEn= 0.00D+00
 Coeff-Com:  0.187D-04 0.265D-04-0.135D-03-0.206D-03 0.713D-03 0.448D-02
 Coeff-Com: -0.493D-03-0.139D-01-0.240D-02 0.190D-01 0.253D-01-0.991D-03
 Coeff-Com: -0.995D-01-0.131D-01 0.156D+00 0.811D-01-0.215D+00-0.390D+00
 Coeff-Com:  0.315D+00 0.113D+01
 Coeff:      0.187D-04 0.265D-04-0.135D-03-0.206D-03 0.713D-03 0.448D-02
 Coeff:     -0.493D-03-0.139D-01-0.240D-02 0.190D-01 0.253D-01-0.991D-03
 Coeff:     -0.995D-01-0.131D-01 0.156D+00 0.811D-01-0.215D+00-0.390D+00
 Coeff:      0.315D+00 0.113D+01
 Gap=     0.315 Goal=   None    Shift=    0.000
 Gap=     0.141 Goal=   None    Shift=    0.000
 RMSDP=3.84D-07 MaxDP=5.21D-05 DE=-2.10D-08 OVMax= 1.62D-04

 Cycle  23  Pass 1  IDiag  1:
 RMSU=  1.56D-07    CP:  1.00D+00  1.51D+00
 E= -2781.30985669346     Delta-E=       -0.000000008235 Rises=F Damp=F
 DIIS: error= 8.63D-07 at cycle  23 NSaved=  20.
 NSaved=20 IEnMin=20 EnMin= -2781.30985669346     IErMin=20 ErrMin= 8.63D-07
 ErrMax= 8.63D-07  0.00D+00 EMaxC= 1.00D-01 BMatC= 8.67D-10 BMatP= 2.14D-09
 IDIUse=1 WtCom= 1.00D+00 WtEn= 0.00D+00
 Coeff-Com:  0.563D-04 0.394D-05-0.262D-03-0.175D-03-0.126D-03 0.167D-02
 Coeff-Com:  0.131D-03-0.354D-02-0.401D-02 0.129D-01 0.142D-01-0.775D-02
 Coeff-Com: -0.609D-01-0.804D-02 0.138D+00 0.104D+00-0.212D+00-0.438D+00
 Coeff-Com:  0.202D+00 0.126D+01
 Coeff:      0.563D-04 0.394D-05-0.262D-03-0.175D-03-0.126D-03 0.167D-02
 Coeff:      0.131D-03-0.354D-02-0.401D-02 0.129D-01 0.142D-01-0.775D-02
 Coeff:     -0.609D-01-0.804D-02 0.138D+00 0.104D+00-0.212D+00-0.438D+00
 Coeff:      0.202D+00 0.126D+01
 Gap=     0.315 Goal=   None    Shift=    0.000
 Gap=     0.141 Goal=   None    Shift=    0.000
 RMSDP=3.05D-07 MaxDP=4.08D-05 DE=-8.23D-09 OVMax= 1.21D-04

 Cycle  24  Pass 1  IDiag  1:
 RMSU=  8.25D-08    CP:  1.00D+00  1.91D+00  1.76D+00
 E= -2781.30985669740     Delta-E=       -0.000000003942 Rises=F Damp=F
 DIIS: error= 3.99D-07 at cycle  24 NSaved=  20.
 NSaved=20 IEnMin=20 EnMin= -2781.30985669740     IErMin=20 ErrMin= 3.99D-07
 ErrMax= 3.99D-07  0.00D+00 EMaxC= 1.00D-01 BMatC= 3.17D-10 BMatP= 8.67D-10
 IDIUse=1 WtCom= 1.00D+00 WtEn= 0.00D+00
 Coeff-Com:  0.174D-04 0.357D-04-0.151D-03-0.860D-03 0.322D-03 0.240D-02
 Coeff-Com: -0.130D-03-0.382D-02-0.347D-02 0.409D-02 0.184D-01-0.854D-02
 Coeff-Com: -0.364D-01 0.794D-02 0.762D-01 0.889D-01-0.188D+00-0.418D+00
 Coeff-Com:  0.330D+00 0.113D+01
 Coeff:      0.174D-04 0.357D-04-0.151D-03-0.860D-03 0.322D-03 0.240D-02
 Coeff:     -0.130D-03-0.382D-02-0.347D-02 0.409D-02 0.184D-01-0.854D-02
 Coeff:     -0.364D-01 0.794D-02 0.762D-01 0.889D-01-0.188D+00-0.418D+00
 Coeff:      0.330D+00 0.113D+01
 Gap=     0.315 Goal=   None    Shift=    0.000
 Gap=     0.141 Goal=   None    Shift=    0.000
 RMSDP=1.62D-07 MaxDP=1.86D-05 DE=-3.94D-09 OVMax= 5.96D-05

 Cycle  25  Pass 1  IDiag  1:
 RMSU=  2.01D-08    CP:  1.00D+00  2.07D+00  2.42D+00  1.61D+00
 E= -2781.30985669853     Delta-E=       -0.000000001135 Rises=F Damp=F
 DIIS: error= 1.94D-07 at cycle  25 NSaved=  20.
 NSaved=20 IEnMin=20 EnMin= -2781.30985669853     IErMin=20 ErrMin= 1.94D-07
 ErrMax= 1.94D-07  0.00D+00 EMaxC= 1.00D-01 BMatC= 1.01D-10 BMatP= 3.17D-10
 IDIUse=1 WtCom= 1.00D+00 WtEn= 0.00D+00
 Coeff-Com:  0.415D-04-0.436D-04-0.288D-03-0.132D-03 0.956D-03 0.522D-03
 Coeff-Com: -0.443D-04-0.418D-02-0.437D-03 0.319D-02 0.615D-02-0.473D-02
 Coeff-Com: -0.136D-01-0.569D-02 0.424D-01 0.476D-01-0.154D+00-0.150D+00
 Coeff-Com:  0.334D+00 0.898D+00
 Coeff:      0.415D-04-0.436D-04-0.288D-03-0.132D-03 0.956D-03 0.522D-03
 Coeff:     -0.443D-04-0.418D-02-0.437D-03 0.319D-02 0.615D-02-0.473D-02
 Coeff:     -0.136D-01-0.569D-02 0.424D-01 0.476D-01-0.154D+00-0.150D+00
 Coeff:      0.334D+00 0.898D+00
 Gap=     0.315 Goal=   None    Shift=    0.000
 Gap=     0.141 Goal=   None    Shift=    0.000
 RMSDP=6.72D-08 MaxDP=9.04D-06 DE=-1.14D-09 OVMax= 2.62D-05

 Cycle  26  Pass 1  IDiag  1:
 RMSU=  1.70D-08    CP:  1.00D+00  2.16D+00  2.56D+00  1.78D+00  1.52D+00
 E= -2781.30985669889     Delta-E=       -0.000000000360 Rises=F Damp=F
 DIIS: error= 9.23D-08 at cycle  26 NSaved=  20.
 NSaved=20 IEnMin=20 EnMin= -2781.30985669889     IErMin=20 ErrMin= 9.23D-08
 ErrMax= 9.23D-08  0.00D+00 EMaxC= 1.00D-01 BMatC= 5.30D-11 BMatP= 1.01D-10
 IDIUse=1 WtCom= 1.00D+00 WtEn= 0.00D+00
 Coeff-Com: -0.861D-05-0.874D-04-0.194D-03 0.321D-03 0.327D-03 0.557D-03
 Coeff-Com: -0.227D-02 0.224D-03 0.120D-02 0.784D-02 0.274D-03-0.160D-01
 Coeff-Com: -0.188D-01 0.144D-01 0.931D-01 0.305D-01-0.233D+00-0.342D+00
 Coeff-Com:  0.380D+00 0.108D+01
 Coeff:     -0.861D-05-0.874D-04-0.194D-03 0.321D-03 0.327D-03 0.557D-03
 Coeff:     -0.227D-02 0.224D-03 0.120D-02 0.784D-02 0.274D-03-0.160D-01
 Coeff:     -0.188D-01 0.144D-01 0.931D-01 0.305D-01-0.233D+00-0.342D+00
 Coeff:      0.380D+00 0.108D+01
 Gap=     0.315 Goal=   None    Shift=    0.000
 Gap=     0.141 Goal=   None    Shift=    0.000
 RMSDP=7.01D-08 MaxDP=7.05D-06 DE=-3.60D-10 OVMax= 3.20D-05

 Cycle  27  Pass 1  IDiag  1:
 RMSU=  1.29D-08    CP:  1.00D+00  2.18D+00  2.97D+00  1.97D+00  2.30D+00
                    CP:  1.31D+00
 E= -2781.30985669887     Delta-E=        0.000000000025 Rises=F Damp=F
 DIIS: error= 5.22D-08 at cycle  27 NSaved=  20.
 NSaved=20 IEnMin=19 EnMin= -2781.30985669889     IErMin=20 ErrMin= 5.22D-08
 ErrMax= 5.22D-08  0.00D+00 EMaxC= 1.00D-01 BMatC= 1.21D-11 BMatP= 5.30D-11
 IDIUse=1 WtCom= 1.00D+00 WtEn= 0.00D+00
 Coeff-Com:  0.288D-04 0.220D-04 0.112D-03-0.307D-03-0.133D-03-0.177D-03
 Coeff-Com:  0.114D-02-0.933D-03-0.716D-04 0.109D-03-0.920D-03-0.476D-02
 Coeff-Com: -0.974D-02 0.224D-01 0.607D-01-0.339D-01-0.199D+00-0.744D-01
 Coeff-Com:  0.343D+00 0.897D+00
 Coeff:      0.288D-04 0.220D-04 0.112D-03-0.307D-03-0.133D-03-0.177D-03
 Coeff:      0.114D-02-0.933D-03-0.716D-04 0.109D-03-0.920D-03-0.476D-02
 Coeff:     -0.974D-02 0.224D-01 0.607D-01-0.339D-01-0.199D+00-0.744D-01
 Coeff:      0.343D+00 0.897D+00
 Gap=     0.315 Goal=   None    Shift=    0.000
 Gap=     0.141 Goal=   None    Shift=    0.000
 RMSDP=2.69D-08 MaxDP=3.27D-06 DE= 2.55D-11 OVMax= 9.75D-06

 Cycle  28  Pass 1  IDiag  1:
 RMSU=  5.40D-09    CP:  1.00D+00  2.21D+00  2.93D+00  2.05D+00  2.56D+00
                    CP:  1.69D+00  8.32D-01
 E= -2781.30985669890     Delta-E=       -0.000000000029 Rises=F Damp=F
 DIIS: error= 3.49D-08 at cycle  28 NSaved=  20.
 NSaved=20 IEnMin=20 EnMin= -2781.30985669890     IErMin=20 ErrMin= 3.49D-08
 ErrMax= 3.49D-08  0.00D+00 EMaxC= 1.00D-01 BMatC= 4.34D-12 BMatP= 1.21D-11
 IDIUse=1 WtCom= 1.00D+00 WtEn= 0.00D+00
 Coeff-Com:  0.521D-04-0.813D-05-0.854D-04-0.611D-04 0.599D-03 0.501D-03
 Coeff-Com: -0.948D-03-0.136D-02 0.510D-03 0.265D-02 0.204D-02-0.956D-02
 Coeff-Com: -0.144D-01 0.281D-01 0.512D-01-0.186D-01-0.160D+00-0.145D+00
 Coeff-Com:  0.355D+00 0.909D+00
 Coeff:      0.521D-04-0.813D-05-0.854D-04-0.611D-04 0.599D-03 0.501D-03
 Coeff:     -0.948D-03-0.136D-02 0.510D-03 0.265D-02 0.204D-02-0.956D-02
 Coeff:     -0.144D-01 0.281D-01 0.512D-01-0.186D-01-0.160D+00-0.145D+00
 Coeff:      0.355D+00 0.909D+00
 Gap=     0.315 Goal=   None    Shift=    0.000
 Gap=     0.141 Goal=   None    Shift=    0.000
 RMSDP=1.70D-08 MaxDP=1.91D-06 DE=-2.91D-11 OVMax= 8.74D-06

 Cycle  29  Pass 1  IDiag  1:
 RMSU=  3.45D-09    CP:  1.00D+00  2.21D+00  3.00D+00  1.95D+00  2.78D+00
                    CP:  2.01D+00  1.22D+00  9.02D-01
 E= -2781.30985669885     Delta-E=        0.000000000049 Rises=F Damp=F
 DIIS: error= 1.19D-08 at cycle  29 NSaved=  20.
 NSaved=20 IEnMin=19 EnMin= -2781.30985669890     IErMin=20 ErrMin= 1.19D-08
 ErrMax= 1.19D-08  0.00D+00 EMaxC= 1.00D-01 BMatC= 5.83D-13 BMatP= 4.34D-12
 IDIUse=1 WtCom= 1.00D+00 WtEn= 0.00D+00
 Coeff-Com: -0.281D-04 0.501D-05-0.154D-04 0.190D-03-0.827D-04-0.272D-03
 Coeff-Com: -0.231D-03 0.418D-03 0.772D-03 0.161D-02-0.735D-03-0.796D-02
 Coeff-Com: -0.456D-02 0.173D-01 0.269D-01-0.261D-01-0.946D-01-0.368D-01
 Coeff-Com:  0.284D+00 0.840D+00
 Coeff:     -0.281D-04 0.501D-05-0.154D-04 0.190D-03-0.827D-04-0.272D-03
 Coeff:     -0.231D-03 0.418D-03 0.772D-03 0.161D-02-0.735D-03-0.796D-02
 Coeff:     -0.456D-02 0.173D-01 0.269D-01-0.261D-01-0.946D-01-0.368D-01
 Coeff:      0.284D+00 0.840D+00
 Gap=     0.315 Goal=   None    Shift=    0.000
 Gap=     0.141 Goal=   None    Shift=    0.000
 RMSDP=5.14D-09 MaxDP=4.22D-07 DE= 4.91D-11 OVMax= 1.87D-06

 Error on total polarization charges =  0.00099
 SCF Done:  E(UCAM-B3LYP) =  -2781.30985670     A.U. after   29 cycles
            NFock= 29  Conv=0.51D-08     -V/T= 2.0073
 <Sx>= 0.0000 <Sy>= 0.0000 <Sz>= 0.5000 <S**2>= 0.7777 S= 0.5137
 <L.S>= 0.000000000000E+00
 KE= 2.761108460687D+03 PE=-1.740726032055D+04 EE= 6.431666996556D+03
 Annihilation of the first spin contaminant:
 S**2 before annihilation     0.7777,   after     0.7502
 Leave Link  502 at Sun Mar  3 17:46:00 2024, MaxMem=  5368709120 cpu:      2741.5
 (Enter /home/k0335/k033513/app/g09/l601.exe)
 Copying SCF densities to generalized density rwf, IOpCl= 1 IROHF=0.

 **********************************************************************

            Population analysis using the SCF density.

 **********************************************************************

 Alpha  occ. eigenvalues --  -25.00087 -24.88381 -24.87987 -24.87284 -24.86998
 Alpha  occ. eigenvalues --  -24.86996 -24.86876 -24.86804 -24.86404 -24.86189
 Alpha  occ. eigenvalues --  -24.85930 -24.85831 -24.85766 -24.85626 -24.85558
 Alpha  occ. eigenvalues --  -24.85377 -24.85189 -24.85096 -24.84893 -19.37700
 Alpha  occ. eigenvalues --  -19.37231 -19.35987 -19.29670 -14.76618 -14.60322
 Alpha  occ. eigenvalues --  -14.58225 -10.63300 -10.61864 -10.58156 -10.58121
 Alpha  occ. eigenvalues --  -10.57878 -10.57806 -10.56782 -10.52744 -10.52516
 Alpha  occ. eigenvalues --  -10.52080 -10.48944  -1.50737  -1.47122  -1.45431
 Alpha  occ. eigenvalues --   -1.44716  -1.44221  -1.43589  -1.42972  -1.39150
 Alpha  occ. eigenvalues --   -1.38708  -1.37832  -1.36873  -1.36434  -1.36144
 Alpha  occ. eigenvalues --   -1.35617  -1.35324  -1.35125  -1.34635  -1.34605
 Alpha  occ. eigenvalues --   -1.34267  -1.31440  -1.26181  -1.24488  -1.23549
 Alpha  occ. eigenvalues --   -1.21401  -1.16213  -1.13762  -0.98428  -0.97342
 Alpha  occ. eigenvalues --   -0.95627  -0.90946  -0.88662  -0.86020  -0.85454
 Alpha  occ. eigenvalues --   -0.84363  -0.82440  -0.81607  -0.79332  -0.78858
 Alpha  occ. eigenvalues --   -0.78478  -0.77260  -0.76048  -0.75257  -0.75052
 Alpha  occ. eigenvalues --   -0.74652  -0.73493  -0.73374  -0.73333  -0.72491
 Alpha  occ. eigenvalues --   -0.71657  -0.71334  -0.70894  -0.70838  -0.70222
 Alpha  occ. eigenvalues --   -0.69853  -0.69365  -0.68993  -0.68447  -0.67463
 Alpha  occ. eigenvalues --   -0.67278  -0.65883  -0.64508  -0.63653  -0.63096
 Alpha  occ. eigenvalues --   -0.62770  -0.61426  -0.60990  -0.60384  -0.60255
 Alpha  occ. eigenvalues --   -0.59884  -0.59654  -0.59616  -0.59458  -0.59043
 Alpha  occ. eigenvalues --   -0.58866  -0.58714  -0.58201  -0.58081  -0.57651
 Alpha  occ. eigenvalues --   -0.57415  -0.57098  -0.56947  -0.56775  -0.56226
 Alpha  occ. eigenvalues --   -0.55806  -0.55272  -0.54938  -0.54521  -0.54394
 Alpha  occ. eigenvalues --   -0.54291  -0.54091  -0.54002  -0.53378  -0.53228
 Alpha  occ. eigenvalues --   -0.53098  -0.52886  -0.52624  -0.52176  -0.52084
 Alpha  occ. eigenvalues --   -0.51809  -0.51664  -0.51459  -0.51144  -0.50050
 Alpha  occ. eigenvalues --   -0.49550  -0.47921  -0.47360  -0.46442  -0.43976
 Alpha  occ. eigenvalues --   -0.42894
 Alpha virt. eigenvalues --   -0.11430  -0.07928  -0.01801   0.01266   0.01919
 Alpha virt. eigenvalues --    0.04822   0.05896   0.07438   0.08674   0.09139
 Alpha virt. eigenvalues --    0.10057   0.11832   0.13892   0.14332   0.14474
 Alpha virt. eigenvalues --    0.15311   0.16006   0.16356   0.17662   0.18605
 Alpha virt. eigenvalues --    0.18905   0.19409   0.20198   0.20355   0.20808
 Alpha virt. eigenvalues --    0.21532   0.21968   0.22664   0.23356   0.24141
 Alpha virt. eigenvalues --    0.24648   0.25407   0.26047   0.27175   0.27402
 Alpha virt. eigenvalues --    0.28897   0.29882   0.31039   0.32481   0.34486
 Alpha virt. eigenvalues --    0.37457   0.40061   0.41789   0.43817   0.44479
 Alpha virt. eigenvalues --    0.45080   0.46153   0.47078   0.47334   0.48677
 Alpha virt. eigenvalues --    0.48765   0.49745   0.50498   0.51057   0.51487
 Alpha virt. eigenvalues --    0.52206   0.53077   0.53460   0.53795   0.54389
 Alpha virt. eigenvalues --    0.55257   0.56225   0.56488   0.57693   0.58311
 Alpha virt. eigenvalues --    0.59330   0.60710   0.61854   0.63376   0.64116
 Alpha virt. eigenvalues --    0.65029   0.66982   0.69159   0.70103   0.70965
 Alpha virt. eigenvalues --    0.73628   0.74316   0.76372   0.77745   0.78247
 Alpha virt. eigenvalues --    0.80596   0.81546   0.81869   0.84253   0.84868
 Alpha virt. eigenvalues --    0.85913   0.87026   0.87225   0.91161   0.91401
 Alpha virt. eigenvalues --    0.92083   0.93535   0.93755   0.95544   0.96155
 Alpha virt. eigenvalues --    0.97574   0.98314   0.99287   1.00205   1.01218
 Alpha virt. eigenvalues --    1.01488   1.03670   1.04172   1.04647   1.05850
 Alpha virt. eigenvalues --    1.06525   1.06986   1.07765   1.09110   1.09693
 Alpha virt. eigenvalues --    1.10889   1.11678   1.12222   1.12861   1.13170
 Alpha virt. eigenvalues --    1.14039   1.14782   1.14910   1.15418   1.16325
 Alpha virt. eigenvalues --    1.16953   1.17793   1.19168   1.19658   1.20181
 Alpha virt. eigenvalues --    1.21680   1.22507   1.23841   1.24451   1.24591
 Alpha virt. eigenvalues --    1.24966   1.25610   1.26385   1.26571   1.26980
 Alpha virt. eigenvalues --    1.27931   1.28527   1.28948   1.29120   1.30013
 Alpha virt. eigenvalues --    1.30425   1.30930   1.31894   1.32389   1.32413
 Alpha virt. eigenvalues --    1.32644   1.33682   1.34718   1.35324   1.35887
 Alpha virt. eigenvalues --    1.36388   1.36579   1.37158   1.37524   1.38094
 Alpha virt. eigenvalues --    1.38670   1.39108   1.39576   1.40196   1.41285
 Alpha virt. eigenvalues --    1.42287   1.43018   1.43408   1.44182   1.44520
 Alpha virt. eigenvalues --    1.45040   1.45756   1.46604   1.47371   1.48575
 Alpha virt. eigenvalues --    1.49187   1.50118   1.50382   1.50892   1.52499
 Alpha virt. eigenvalues --    1.52824   1.53088   1.54086   1.55012   1.55769
 Alpha virt. eigenvalues --    1.56666   1.57464   1.58250   1.59014   1.59607
 Alpha virt. eigenvalues --    1.60394   1.61311   1.61474   1.63550   1.64372
 Alpha virt. eigenvalues --    1.66231   1.66644   1.67292   1.68693   1.69455
 Alpha virt. eigenvalues --    1.69787   1.70733   1.71021   1.71480   1.71839
 Alpha virt. eigenvalues --    1.72703   1.73000   1.73536   1.74050   1.75295
 Alpha virt. eigenvalues --    1.75710   1.75850   1.77222   1.77668   1.78377
 Alpha virt. eigenvalues --    1.79919   1.80477   1.80582   1.80843   1.81166
 Alpha virt. eigenvalues --    1.81653   1.82291   1.82906   1.83403   1.84244
 Alpha virt. eigenvalues --    1.84509   1.84733   1.84981   1.85425   1.86024
 Alpha virt. eigenvalues --    1.86312   1.86674   1.87094   1.87313   1.88264
 Alpha virt. eigenvalues --    1.88652   1.88952   1.89591   1.89760   1.90291
 Alpha virt. eigenvalues --    1.90716   1.91016   1.91655   1.91918   1.92322
 Alpha virt. eigenvalues --    1.92943   1.93670   1.94135   1.94596   1.94799
 Alpha virt. eigenvalues --    1.95652   1.96778   1.97477   1.97617   1.98172
 Alpha virt. eigenvalues --    1.98906   1.99101   1.99545   2.00061   2.00209
 Alpha virt. eigenvalues --    2.00894   2.01192   2.01588   2.01636   2.02266
 Alpha virt. eigenvalues --    2.02500   2.02771   2.03103   2.03476   2.04026
 Alpha virt. eigenvalues --    2.04531   2.05828   2.05961   2.07132   2.07373
 Alpha virt. eigenvalues --    2.07938   2.08600   2.09517   2.09820   2.10065
 Alpha virt. eigenvalues --    2.10867   2.11240   2.12231   2.12347   2.12883
 Alpha virt. eigenvalues --    2.14929   2.16164   2.16285   2.17355   2.17891
 Alpha virt. eigenvalues --    2.18952   2.19289   2.20543   2.22611   2.24161
 Alpha virt. eigenvalues --    2.24468   2.25223   2.25447   2.26574   2.27626
 Alpha virt. eigenvalues --    2.30011   2.30137   2.30809   2.33905   2.34417
 Alpha virt. eigenvalues --    2.35003   2.36088   2.36329   2.37146   2.38408
 Alpha virt. eigenvalues --    2.40654   2.41572   2.41655   2.42970   2.43782
 Alpha virt. eigenvalues --    2.44675   2.46355   2.47273   2.49001   2.50340
 Alpha virt. eigenvalues --    2.50677   2.53688   2.54080   2.54906   2.56279
 Alpha virt. eigenvalues --    2.56736   2.58141   2.58797   2.60505   2.60981
 Alpha virt. eigenvalues --    2.63238   2.65130   2.65626   2.67058   2.69136
 Alpha virt. eigenvalues --    2.69546   2.71397   2.73516   2.74167   2.75083
 Alpha virt. eigenvalues --    2.76422   2.78089   2.80312   2.80719   2.83557
 Alpha virt. eigenvalues --    2.83869   2.84450   2.85706   2.85918   2.87433
 Alpha virt. eigenvalues --    2.88714   2.89312   2.89925   2.90546   2.91922
 Alpha virt. eigenvalues --    2.93265   2.95075   2.96111   2.96474   2.97224
 Alpha virt. eigenvalues --    3.00278   3.01724   3.02762   3.03726   3.04307
 Alpha virt. eigenvalues --    3.04984   3.05508   3.06801   3.07256   3.08762
 Alpha virt. eigenvalues --    3.09867   3.12220   3.15238   3.16041   3.16601
 Alpha virt. eigenvalues --    3.19523   3.20057   3.22519   3.24608   3.25233
 Alpha virt. eigenvalues --    3.27759   3.28456   3.29352   3.31017   3.31465
 Alpha virt. eigenvalues --    3.33768   3.42080   3.92805   4.00167   4.05805
 Alpha virt. eigenvalues --    4.09441   4.15917   4.23107   4.24846   4.28167
 Alpha virt. eigenvalues --    4.28725   4.33267   4.37233   4.42691   4.43827
 Alpha virt. eigenvalues --    4.45488   4.49833   4.56604   4.59463   4.65903
 Alpha virt. eigenvalues --    4.70110   4.76204   4.78612   4.82494   4.83708
 Alpha virt. eigenvalues --    5.04426   5.11194   5.15850   5.22203   5.25304
 Alpha virt. eigenvalues --    5.28430   5.39954   5.54852   5.64646   5.67368
 Alpha virt. eigenvalues --    6.13597   6.20067   6.60037   6.64254
  Beta  occ. eigenvalues --  -24.99722 -24.88379 -24.87986 -24.87284 -24.86998
  Beta  occ. eigenvalues --  -24.86998 -24.86875 -24.86795 -24.86395 -24.86189
  Beta  occ. eigenvalues --  -24.85930 -24.85831 -24.85766 -24.85625 -24.85558
  Beta  occ. eigenvalues --  -24.85377 -24.85189 -24.85096 -24.84893 -19.37228
  Beta  occ. eigenvalues --  -19.36880 -19.35987 -19.29668 -14.75084 -14.60378
  Beta  occ. eigenvalues --  -14.58149 -10.63300 -10.61864 -10.58156 -10.58119
  Beta  occ. eigenvalues --  -10.57879 -10.57808 -10.57045 -10.52744 -10.52517
  Beta  occ. eigenvalues --  -10.52085 -10.48958  -1.49577  -1.47121  -1.45430
  Beta  occ. eigenvalues --   -1.44712  -1.44221  -1.43583  -1.42973  -1.39134
  Beta  occ. eigenvalues --   -1.38707  -1.37831  -1.36870  -1.36424  -1.36142
  Beta  occ. eigenvalues --   -1.35616  -1.35323  -1.35124  -1.34636  -1.34603
  Beta  occ. eigenvalues --   -1.34267  -1.30509  -1.25570  -1.24480  -1.23528
  Beta  occ. eigenvalues --   -1.20033  -1.16030  -1.12609  -0.98075  -0.97263
  Beta  occ. eigenvalues --   -0.95382  -0.90865  -0.88210  -0.86018  -0.85342
  Beta  occ. eigenvalues --   -0.84327  -0.82092  -0.81408  -0.79225  -0.78513
  Beta  occ. eigenvalues --   -0.77236  -0.76013  -0.75887  -0.75178  -0.74671
  Beta  occ. eigenvalues --   -0.73841  -0.73423  -0.73325  -0.73182  -0.72419
  Beta  occ. eigenvalues --   -0.71480  -0.71260  -0.70858  -0.70581  -0.70098
  Beta  occ. eigenvalues --   -0.69751  -0.69306  -0.68500  -0.68224  -0.67337
  Beta  occ. eigenvalues --   -0.65930  -0.65409  -0.63226  -0.63072  -0.62955
  Beta  occ. eigenvalues --   -0.62662  -0.61208  -0.60512  -0.60335  -0.59911
  Beta  occ. eigenvalues --   -0.59862  -0.59636  -0.59449  -0.59159  -0.59030
  Beta  occ. eigenvalues --   -0.58831  -0.58524  -0.58171  -0.57871  -0.57628
  Beta  occ. eigenvalues --   -0.57402  -0.57045  -0.56920  -0.56692  -0.56169
  Beta  occ. eigenvalues --   -0.55665  -0.55185  -0.54918  -0.54379  -0.54310
  Beta  occ. eigenvalues --   -0.54209  -0.54075  -0.53936  -0.53364  -0.53109
  Beta  occ. eigenvalues --   -0.52942  -0.52812  -0.52221  -0.52162  -0.51806
  Beta  occ. eigenvalues --   -0.51728  -0.51500  -0.51144  -0.49542  -0.49051
  Beta  occ. eigenvalues --   -0.47734  -0.47295  -0.45223  -0.43750  -0.42787
  Beta virt. eigenvalues --   -0.28647  -0.09635  -0.06277  -0.01461   0.01303
  Beta virt. eigenvalues --    0.01934   0.05018   0.05936   0.07883   0.09114
  Beta virt. eigenvalues --    0.09289   0.10373   0.12172   0.13915   0.14351
  Beta virt. eigenvalues --    0.14545   0.15384   0.16175   0.16407   0.17668
  Beta virt. eigenvalues --    0.18684   0.19022   0.19444   0.20208   0.20359
  Beta virt. eigenvalues --    0.20849   0.21540   0.22011   0.22669   0.23370
  Beta virt. eigenvalues --    0.24192   0.24654   0.25425   0.26108   0.27268
  Beta virt. eigenvalues --    0.27406   0.28966   0.29927   0.31106   0.32633
  Beta virt. eigenvalues --    0.34667   0.37607   0.40055   0.41983   0.43848
  Beta virt. eigenvalues --    0.44917   0.45213   0.46182   0.47155   0.47461
  Beta virt. eigenvalues --    0.48715   0.48933   0.49868   0.50620   0.51121
  Beta virt. eigenvalues --    0.51501   0.52389   0.53259   0.53576   0.53877
  Beta virt. eigenvalues --    0.54539   0.55370   0.56258   0.56732   0.57784
  Beta virt. eigenvalues --    0.58561   0.59401   0.60803   0.61977   0.63596
  Beta virt. eigenvalues --    0.64230   0.65229   0.67654   0.69492   0.70482
  Beta virt. eigenvalues --    0.71138   0.74034   0.74466   0.76667   0.78079
  Beta virt. eigenvalues --    0.78571   0.80758   0.81773   0.82234   0.84784
  Beta virt. eigenvalues --    0.85248   0.86151   0.87265   0.87555   0.91212
  Beta virt. eigenvalues --    0.91784   0.92520   0.93647   0.93973   0.95877
  Beta virt. eigenvalues --    0.96262   0.97907   0.98426   0.99346   1.00248
  Beta virt. eigenvalues --    1.01422   1.01525   1.03771   1.04272   1.04863
  Beta virt. eigenvalues --    1.05890   1.06606   1.07127   1.07856   1.09398
  Beta virt. eigenvalues --    1.09848   1.11081   1.11778   1.12244   1.12972
  Beta virt. eigenvalues --    1.13213   1.14111   1.14941   1.15133   1.15506
  Beta virt. eigenvalues --    1.16401   1.17027   1.18064   1.19287   1.19715
  Beta virt. eigenvalues --    1.20287   1.21708   1.22626   1.23943   1.24675
  Beta virt. eigenvalues --    1.24795   1.25080   1.25716   1.26514   1.26683
  Beta virt. eigenvalues --    1.27329   1.28044   1.28844   1.29000   1.29363
  Beta virt. eigenvalues --    1.30079   1.30572   1.31221   1.31922   1.32420
  Beta virt. eigenvalues --    1.32454   1.32869   1.33717   1.34775   1.35343
  Beta virt. eigenvalues --    1.35944   1.36457   1.36640   1.37245   1.37539
  Beta virt. eigenvalues --    1.38110   1.38701   1.39224   1.39621   1.40405
  Beta virt. eigenvalues --    1.41324   1.42457   1.43054   1.43498   1.44285
  Beta virt. eigenvalues --    1.44559   1.45109   1.45782   1.46775   1.47416
  Beta virt. eigenvalues --    1.48668   1.49265   1.50200   1.50443   1.50911
  Beta virt. eigenvalues --    1.52613   1.52877   1.53171   1.54224   1.55109
  Beta virt. eigenvalues --    1.55821   1.56744   1.57529   1.58312   1.59280
  Beta virt. eigenvalues --    1.59693   1.60451   1.61440   1.61526   1.63722
  Beta virt. eigenvalues --    1.64803   1.66311   1.66836   1.67428   1.68886
  Beta virt. eigenvalues --    1.69573   1.69951   1.70877   1.71184   1.71619
  Beta virt. eigenvalues --    1.72038   1.72956   1.73183   1.73882   1.74424
  Beta virt. eigenvalues --    1.75433   1.75906   1.76054   1.77409   1.77898
  Beta virt. eigenvalues --    1.78442   1.80037   1.80531   1.80731   1.80922
  Beta virt. eigenvalues --    1.81462   1.81962   1.82373   1.82928   1.83477
  Beta virt. eigenvalues --    1.84383   1.84597   1.84894   1.85108   1.85667
  Beta virt. eigenvalues --    1.86075   1.86479   1.86764   1.87236   1.87418
  Beta virt. eigenvalues --    1.88355   1.88713   1.89207   1.89794   1.89917
  Beta virt. eigenvalues --    1.90438   1.90765   1.91182   1.91690   1.91992
  Beta virt. eigenvalues --    1.92545   1.93443   1.93862   1.94256   1.94772
  Beta virt. eigenvalues --    1.95131   1.95936   1.96869   1.97509   1.97715
  Beta virt. eigenvalues --    1.98243   1.98943   1.99180   1.99601   2.00067
  Beta virt. eigenvalues --    2.00435   2.00962   2.01255   2.01664   2.01736
  Beta virt. eigenvalues --    2.02337   2.02550   2.02852   2.03134   2.03693
  Beta virt. eigenvalues --    2.04226   2.04739   2.05853   2.06005   2.07149
  Beta virt. eigenvalues --    2.07485   2.08181   2.08815   2.09542   2.09955
  Beta virt. eigenvalues --    2.10182   2.11009   2.11306   2.12311   2.12489
  Beta virt. eigenvalues --    2.13011   2.15015   2.16216   2.16411   2.17373
  Beta virt. eigenvalues --    2.17970   2.19029   2.19434   2.20598   2.22838
  Beta virt. eigenvalues --    2.24207   2.24591   2.25289   2.25452   2.26673
  Beta virt. eigenvalues --    2.27854   2.30090   2.30213   2.31306   2.33987
  Beta virt. eigenvalues --    2.34700   2.35179   2.36299   2.36386   2.37462
  Beta virt. eigenvalues --    2.38457   2.40671   2.41628   2.41749   2.43165
  Beta virt. eigenvalues --    2.44040   2.44801   2.46419   2.47406   2.49126
  Beta virt. eigenvalues --    2.50398   2.50767   2.54132   2.54345   2.55241
  Beta virt. eigenvalues --    2.56392   2.57210   2.58333   2.58943   2.60624
  Beta virt. eigenvalues --    2.61486   2.63342   2.65326   2.65786   2.67111
  Beta virt. eigenvalues --    2.69269   2.69776   2.71587   2.73776   2.74398
  Beta virt. eigenvalues --    2.75201   2.76542   2.78158   2.80355   2.80731
  Beta virt. eigenvalues --    2.83650   2.83978   2.84651   2.85868   2.86130
  Beta virt. eigenvalues --    2.87517   2.88776   2.89369   2.89987   2.90739
  Beta virt. eigenvalues --    2.91982   2.93391   2.95208   2.96191   2.96521
  Beta virt. eigenvalues --    2.97629   3.00540   3.02015   3.02773   3.03741
  Beta virt. eigenvalues --    3.04314   3.05030   3.05549   3.06850   3.07389
  Beta virt. eigenvalues --    3.08925   3.09916   3.12230   3.15287   3.16078
  Beta virt. eigenvalues --    3.16621   3.19534   3.20078   3.22640   3.25006
  Beta virt. eigenvalues --    3.25627   3.27797   3.28469   3.29455   3.31031
  Beta virt. eigenvalues --    3.31806   3.33839   3.42679   3.94394   4.00444
  Beta virt. eigenvalues --    4.05923   4.09828   4.15844   4.23150   4.24953
[...]
     9  F(19)              0.00012       0.50495       0.18018       0.16843
    10  C(13)             -0.00009      -0.09958      -0.03553      -0.03322
    11  F(19)             -0.00006      -0.25071      -0.08946      -0.08363
    12  O(17)              0.00037      -0.22375      -0.07984      -0.07464
    13  C(13)             -0.00004      -0.04392      -0.01567      -0.01465
    14  F(19)             -0.00003      -0.11098      -0.03960      -0.03702
    15  F(19)              0.00004       0.18252       0.06513       0.06088
    16  F(19)              0.00001       0.05309       0.01894       0.01771
    17  C(13)             -0.00008      -0.08551      -0.03051      -0.02852
    18  F(19)              0.00001       0.05265       0.01879       0.01756
    19  F(19)              0.00001       0.03459       0.01234       0.01154
    20  F(19)             -0.00004      -0.17849      -0.06369      -0.05954
    21  C(13)             -0.00077      -0.86640      -0.30915      -0.28900
    22  O(17)             -0.00015       0.09080       0.03240       0.03029
    23  N(14)             -0.00512      -1.65421      -0.59026      -0.55178
    24  C(13)              0.00033       0.37571       0.13406       0.12532
    25  F(19)             -0.00017      -0.69468      -0.24788      -0.23172
    26  F(19)             -0.00016      -0.65505      -0.23374      -0.21850
    27  C(13)             -0.00054      -0.60881      -0.21724      -0.20308
    28  F(19)              0.00237       9.98126       3.56156       3.32939
    29  O(17)              0.00016      -0.09573      -0.03416      -0.03193
    30  C(13)              0.00000       0.00092       0.00033       0.00031
    31  F(19)              0.00000      -0.00454      -0.00162      -0.00151
    32  F(19)              0.00002       0.09149       0.03265       0.03052
    33  F(19)              0.00000       0.00269       0.00096       0.00090
    34  C(13)             -0.00030      -0.33589      -0.11985      -0.11204
    35  F(19)              0.00002       0.08085       0.02885       0.02697
    36  F(19)             -0.00001      -0.03454      -0.01233      -0.01152
    37  F(19)             -0.00004      -0.18741      -0.06687      -0.06251
    38  H(1)               0.05046     225.53087      80.47502      75.22900
    39  H(1)               0.01574      70.34596      25.10119      23.46489
 --------------------------------------------------------
       Center         ----  Spin Dipole Couplings  ----
                      3XX-RR        3YY-RR        3ZZ-RR
 --------------------------------------------------------
     1   Atom       -0.045147     -0.560764      0.605910
     2   Atom        0.055497      0.060848     -0.116346
     3   Atom       -0.506443     -0.782732      1.289175
     4   Atom       -0.158265     -0.518545      0.676810
     5   Atom       -0.016037     -0.021076      0.037113
     6   Atom       -0.017630     -0.039276      0.056906
     7   Atom       -0.000447      0.001307     -0.000860
     8   Atom       -0.008008     -0.000294      0.008302
     9   Atom       -0.002737      0.004150     -0.001413
    10   Atom       -0.000037      0.001299     -0.001262
    11   Atom       -0.001251      0.002352     -0.001101
    12   Atom        0.000699      0.002943     -0.003642
    13   Atom        0.001638     -0.000335     -0.001303
    14   Atom        0.000969     -0.000254     -0.000715
    15   Atom        0.001804     -0.000746     -0.001058
    16   Atom        0.003477     -0.001586     -0.001891
    17   Atom        0.000147      0.000346     -0.000492
    18   Atom        0.000596     -0.000175     -0.000421
    19   Atom       -0.000176      0.000253     -0.000077
    20   Atom       -0.000046      0.000278     -0.000232
    21   Atom       -0.002752      0.008291     -0.005539
    22   Atom       -0.036136     -0.003641      0.039777
    23   Atom       -0.001392      0.033728     -0.032336
    24   Atom       -0.002207      0.004777     -0.002570
    25   Atom        0.000382     -0.001183      0.000801
    26   Atom        0.002490      0.001767     -0.004257
    27   Atom       -0.000366      0.002185     -0.001819
    28   Atom        0.008116      0.001070     -0.009186
    29   Atom       -0.000408      0.001478     -0.001069
    30   Atom        0.000136      0.000220     -0.000356
    31   Atom       -0.000024      0.000041     -0.000017
    32   Atom        0.000400     -0.000318     -0.000082
    33   Atom        0.000052      0.000312     -0.000363
    34   Atom        0.000209      0.000699     -0.000907
    35   Atom        0.000598      0.000127     -0.000725
    36   Atom       -0.000057      0.000726     -0.000669
    37   Atom        0.000125      0.000455     -0.000579
    38   Atom        0.003728     -0.011750      0.008022
    39   Atom        0.012311     -0.007175     -0.005137
 --------------------------------------------------------
                        XY            XZ            YZ
 --------------------------------------------------------
     1   Atom       -0.168440     -0.809280      0.260307
     2   Atom        0.000240      0.125932     -0.007656
     3   Atom        0.083415     -0.772844     -0.204153
     4   Atom        0.049306     -0.473660     -0.094722
     5   Atom        0.028822     -0.027624     -0.032394
     6   Atom       -0.004081     -0.053331      0.022303
     7   Atom        0.002680      0.001943      0.002470
     8   Atom        0.005363      0.007052      0.012991
     9   Atom        0.003268      0.003149      0.005361
    10   Atom        0.001879      0.000558      0.001052
    11   Atom        0.001207      0.000018      0.000061
    12   Atom        0.005499     -0.000032      0.000133
    13   Atom        0.001720     -0.000134     -0.000066
    14   Atom        0.000975      0.000168      0.000076
    15   Atom        0.001499     -0.000869     -0.000347
    16   Atom        0.002258      0.001451      0.000622
    17   Atom        0.000945      0.000413      0.000514
    18   Atom        0.000822      0.000640      0.000439
    19   Atom        0.000580      0.000290      0.000527
    20   Atom        0.000387      0.000062      0.000120
    21   Atom       -0.004770      0.000033      0.002738
    22   Atom       -0.016509      0.017808     -0.003339
    23   Atom       -0.018680      0.045620      0.022340
    24   Atom       -0.001300      0.000010     -0.000592
    25   Atom        0.001211      0.000003     -0.000990
    26   Atom       -0.005104      0.002574     -0.006437
    27   Atom       -0.002114      0.000063      0.000428
    28   Atom       -0.015720     -0.005616      0.004862
    29   Atom       -0.001556     -0.000425      0.001137
    30   Atom       -0.000884     -0.000495      0.000652
    31   Atom       -0.000591     -0.000527      0.000645
    32   Atom       -0.000844     -0.000721      0.000619
    33   Atom       -0.000623     -0.000218      0.000322
    34   Atom       -0.001094     -0.000022      0.000041
    35   Atom       -0.001162      0.000537     -0.000534
    36   Atom       -0.000804      0.000112     -0.000037
    37   Atom       -0.001091      0.000112     -0.000152
    38   Atom        0.007675     -0.015110     -0.002689
    39   Atom       -0.003855      0.013849     -0.002508
 --------------------------------------------------------


 ---------------------------------------------------------------------------------
              Anisotropic Spin Dipole Couplings in Principal Axis System
 ---------------------------------------------------------------------------------

       Atom             a.u.   MegaHertz   Gauss  10(-4) cm-1        Axes

              Baa    -0.6166    44.617    15.921    14.883 -0.1038  0.9566 -0.2724
     1 O(17)  Bbb    -0.5904    42.723    15.245    14.251  0.8281  0.2348  0.5091
              Bcc     1.2070   -87.340   -31.165   -29.134 -0.5509  0.1727  0.8165
 
              Baa    -0.1831   -24.566    -8.766    -8.194 -0.4667  0.0282  0.8840
     2 C(13)  Bbb     0.0609     8.166     2.914     2.724  0.0617  0.9981  0.0007
              Bcc     0.1222    16.400     5.852     5.470  0.8823 -0.0549  0.4675
 
              Baa    -0.8069   -31.120   -11.104   -10.381 -0.4635  0.8820 -0.0850
     3 N(14)  Bbb    -0.7895   -30.450   -10.865   -10.157  0.8155  0.4621  0.3486
              Bcc     1.5964    61.570    21.970    20.538 -0.3467 -0.0923  0.9334
 
              Baa    -0.5268  -264.569   -94.405   -88.251 -0.0658  0.9964  0.0525
     4 F(19)  Bbb    -0.3719  -186.788   -66.651   -62.306  0.9094  0.0382  0.4142
              Bcc     0.8987   451.357   161.055   150.557 -0.4107 -0.0750  0.9087
 
              Baa    -0.0480    -6.440    -2.298    -2.148 -0.6202  0.7787  0.0951
     5 C(13)  Bbb    -0.0202    -2.714    -0.968    -0.905  0.6688  0.4615  0.5829
              Bcc     0.0682     9.154     3.266     3.053 -0.4100 -0.4251  0.8070
 
              Baa    -0.0509    -1.963    -0.701    -0.655  0.6360 -0.6305  0.4450
     6 N(14)  Bbb    -0.0375    -1.446    -0.516    -0.482  0.6282  0.7579  0.1759
              Bcc     0.0884     3.409     1.216     1.137 -0.4482  0.1677  0.8781
 
              Baa    -0.0026    -0.350    -0.125    -0.117 -0.6064 -0.0837  0.7908
     7 C(13)  Bbb    -0.0023    -0.314    -0.112    -0.105 -0.5992  0.7018 -0.3852
              Bcc     0.0049     0.664     0.237     0.222  0.5227  0.7074  0.4757
 
              Baa    -0.0108    -5.426    -1.936    -1.810  0.9391 -0.3181 -0.1304
     8 F(19)  Bbb    -0.0096    -4.842    -1.728    -1.615  0.1727  0.7644 -0.6213
              Bcc     0.0204    10.268     3.664     3.425  0.2972  0.5609  0.7727
 
              Baa    -0.0055    -2.752    -0.982    -0.918 -0.6168 -0.2126  0.7579
     9 F(19)  Bbb    -0.0036    -1.807    -0.645    -0.603  0.7036 -0.5804  0.4099
              Bcc     0.0091     4.559     1.627     1.521  0.3527  0.7861  0.5076
 
              Baa    -0.0017    -0.223    -0.080    -0.074  0.2175 -0.4462  0.8681
    10 C(13)  Bbb    -0.0013    -0.174    -0.062    -0.058  0.8080 -0.4166 -0.4166
              Bcc     0.0030     0.397     0.142     0.132  0.5476  0.7920  0.2699
 
              Baa    -0.0016    -0.813    -0.290    -0.271  0.9568 -0.2908  0.0000
    11 F(19)  Bbb    -0.0011    -0.553    -0.197    -0.185 -0.0048 -0.0159  0.9999
              Bcc     0.0027     1.366     0.487     0.456  0.2908  0.9566  0.0166
 
              Baa    -0.0038     0.279     0.099     0.093  0.6831 -0.5623  0.4661
    12 O(17)  Bbb    -0.0036     0.259     0.093     0.087 -0.3652  0.2896  0.8847
              Bcc     0.0074    -0.538    -0.192    -0.179  0.6324  0.7746  0.0075
 
              Baa    -0.0013    -0.179    -0.064    -0.060 -0.4781  0.7981 -0.3667
    13 C(13)  Bbb    -0.0013    -0.175    -0.062    -0.058 -0.1535  0.3351  0.9296
              Bcc     0.0026     0.354     0.126     0.118  0.8648  0.5007 -0.0377
 
              Baa    -0.0008    -0.400    -0.143    -0.133 -0.4877  0.8462  0.2146
    14 F(19)  Bbb    -0.0007    -0.365    -0.130    -0.122  0.0343 -0.2271  0.9733
              Bcc     0.0015     0.765     0.273     0.255  0.8723  0.4820  0.0817
 
              Baa    -0.0015    -0.730    -0.260    -0.243 -0.4613  0.8446 -0.2719
    15 F(19)  Bbb    -0.0013    -0.640    -0.228    -0.214  0.0923  0.3505  0.9320
              Bcc     0.0027     1.370     0.489     0.457  0.8824  0.4048 -0.2396
 
              Baa    -0.0025    -1.239    -0.442    -0.413 -0.2769  0.9158 -0.2910
    16 F(19)  Bbb    -0.0022    -1.129    -0.403    -0.377 -0.3141  0.1999  0.9281
              Bcc     0.0047     2.368     0.845     0.790  0.9081  0.3484  0.2323
 
              Baa    -0.0007    -0.100    -0.036    -0.033  0.3014 -0.6068  0.7355
    17 C(13)  Bbb    -0.0007    -0.091    -0.032    -0.030  0.7171 -0.3642 -0.5943
              Bcc     0.0014     0.191     0.068     0.064  0.6284  0.7066  0.3253
 
              Baa    -0.0008    -0.379    -0.135    -0.126 -0.0857 -0.5208  0.8494
    18 F(19)  Bbb    -0.0007    -0.345    -0.123    -0.115 -0.6242  0.6925  0.3616
              Bcc     0.0014     0.724     0.258     0.241  0.7765  0.4992  0.3844
 
              Baa    -0.0006    -0.300    -0.107    -0.100  0.7167 -0.6484  0.2569
    19 F(19)  Bbb    -0.0004    -0.199    -0.071    -0.066 -0.5039 -0.2267  0.8335
              Bcc     0.0010     0.498     0.178     0.166  0.4822  0.7268  0.4892
 
              Baa    -0.0003    -0.155    -0.055    -0.052  0.7794 -0.5692  0.2618
    20 F(19)  Bbb    -0.0003    -0.126    -0.045    -0.042 -0.3106  0.0119  0.9505
              Bcc     0.0006     0.281     0.100     0.094  0.5441  0.8221  0.1675
 
              Baa    -0.0064    -0.864    -0.308    -0.288 -0.3775 -0.2859  0.8807
    21 C(13)  Bbb    -0.0040    -0.541    -0.193    -0.181  0.8634  0.2350  0.4464
              Bcc     0.0105     1.406     0.502     0.469 -0.3346  0.9290  0.1582
 
              Baa    -0.0458     3.314     1.182     1.105  0.9210  0.3466 -0.1781
    22 O(17)  Bbb     0.0010    -0.074    -0.026    -0.025 -0.3059  0.9262  0.2203
              Bcc     0.0448    -3.240    -1.156    -1.081  0.2414 -0.1484  0.9590
 
              Baa    -0.0729    -2.813    -1.004    -0.938 -0.5665 -0.2628  0.7810
    23 N(14)  Bbb     0.0309     1.192     0.425     0.398  0.7654  0.1832  0.6169
              Bcc     0.0420     1.621     0.579     0.541 -0.3052  0.9473  0.0974
 
              Baa    -0.0027    -0.356    -0.127    -0.119  0.3840  0.1399  0.9127
    24 C(13)  Bbb    -0.0024    -0.322    -0.115    -0.107  0.9064  0.1311 -0.4015
              Bcc     0.0051     0.678     0.242     0.226 -0.1758  0.9815 -0.0765
 
              Baa    -0.0021    -1.060    -0.378    -0.353 -0.4183  0.8597  0.2930
    25 F(19)  Bbb     0.0006     0.303     0.108     0.101  0.7378  0.1336  0.6616
              Bcc     0.0015     0.756     0.270     0.252 -0.5297 -0.4930  0.6902
 
              Baa    -0.0084    -4.214    -1.503    -1.405  0.0658  0.5575  0.8275
    26 F(19)  Bbb    -0.0017    -0.866    -0.309    -0.289  0.7983  0.4682 -0.3789
              Bcc     0.0101     5.080     1.813     1.694 -0.5987  0.6855 -0.4143
 
              Baa    -0.0020    -0.269    -0.096    -0.090 -0.4219 -0.3006  0.8554
    27 C(13)  Bbb    -0.0014    -0.188    -0.067    -0.063  0.7644  0.3894  0.5138
              Bcc     0.0034     0.456     0.163     0.152 -0.4875  0.8706  0.0655
 
              Baa    -0.0116    -5.839    -2.084    -1.948  0.5163  0.7771 -0.3600
    28 F(19)  Bbb    -0.0108    -5.433    -1.939    -1.812  0.3972  0.1552  0.9045
              Bcc     0.0224    11.273     4.022     3.760  0.7588 -0.6100 -0.2285
 
              Baa    -0.0016     0.113     0.040     0.038 -0.3516 -0.4804  0.8035
    29 O(17)  Bbb    -0.0012     0.085     0.030     0.028  0.8178  0.2601  0.5134
              Bcc     0.0027    -0.198    -0.071    -0.066 -0.4557  0.8376  0.3014
 
              Baa    -0.0008    -0.108    -0.038    -0.036 -0.2777 -0.6764  0.6822
    30 C(13)  Bbb    -0.0006    -0.085    -0.030    -0.028  0.7379  0.3045  0.6023
              Bcc     0.0014     0.192     0.069     0.064 -0.6152  0.6706  0.4145
 
              Baa    -0.0006    -0.321    -0.115    -0.107  0.2006  0.7603 -0.6179
    31 F(19)  Bbb    -0.0005    -0.271    -0.097    -0.090  0.8108  0.2251  0.5403
              Bcc     0.0012     0.592     0.211     0.198 -0.5498  0.6094  0.5713
 
              Baa    -0.0009    -0.460    -0.164    -0.153  0.3880  0.8683 -0.3089
    32 F(19)  Bbb    -0.0006    -0.302    -0.108    -0.101  0.5952  0.0198  0.8033
              Bcc     0.0015     0.761     0.272     0.254  0.7037 -0.4956 -0.5091
 
              Baa    -0.0005    -0.252    -0.090    -0.084 -0.2971 -0.5395  0.7878
    33 F(19)  Bbb    -0.0004    -0.217    -0.077    -0.072  0.7438  0.3866  0.5453
              Bcc     0.0009     0.469     0.167     0.156 -0.5988  0.7480  0.2864
 
              Baa    -0.0009    -0.122    -0.044    -0.041 -0.0178 -0.0379  0.9991
    34 C(13)  Bbb    -0.0007    -0.090    -0.032    -0.030  0.7805  0.6241  0.0375
              Bcc     0.0016     0.211     0.075     0.071 -0.6250  0.7804  0.0184
 
              Baa    -0.0010    -0.494    -0.176    -0.165  0.0534  0.4777  0.8769
    35 F(19)  Bbb    -0.0008    -0.398    -0.142    -0.133  0.6749  0.6300 -0.3843
              Bcc     0.0018     0.892     0.318     0.297  0.7360 -0.6123  0.2887
 
              Baa    -0.0007    -0.357    -0.127    -0.119 -0.3993 -0.2003  0.8947
    36 F(19)  Bbb    -0.0005    -0.263    -0.094    -0.088  0.7471  0.4946  0.4441
              Bcc     0.0012     0.619     0.221     0.207 -0.5315  0.8457 -0.0478
 
              Baa    -0.0008    -0.409    -0.146    -0.137  0.7529  0.6549  0.0654
    37 F(19)  Bbb    -0.0006    -0.299    -0.107    -0.100 -0.1110  0.0284  0.9934
              Bcc     0.0014     0.709     0.253     0.236 -0.6488  0.7552 -0.0940
 
              Baa    -0.0157    -8.370    -2.987    -2.792 -0.5065  0.8314 -0.2285
    38 H(1)   Bbb    -0.0069    -3.694    -1.318    -1.232  0.5538  0.5168  0.6529
              Bcc     0.0226    12.063     4.305     4.024 -0.6609 -0.2041  0.7222
 
              Baa    -0.0128    -6.831    -2.437    -2.279 -0.4739  0.0667  0.8780
    39 H(1)   Bbb    -0.0079    -4.219    -1.505    -1.407  0.1744  0.9845  0.0194
              Bcc     0.0207    11.050     3.943     3.686  0.8631 -0.1623  0.4782
 

 ---------------------------------------------------------------------------------

 No NMR shielding tensors so no spin-rotation constants.
 Leave Link  601 at Sun Mar  3 17:46:01 2024, MaxMem=  5368709120 cpu:         5.5
 (Enter /home/k0335/k033513/app/g09/l9999.exe)
 1\1\GINC-C18U05N1\SP\UCAM-B3LYP\6-31G(d,p)\C11H2F19N3O4(1+,2)\K033513\
 03-Mar-2024\0\\#p CAM-B3LYP/6-31G(d,p) SCRF=(PCM,Solvent=Generic,Read)
  NoSymm out=wfn\\Title A1374950780_p1\\1,2\O,0,1.947809,2.631743,1.542
 021\C,0,0.993941,2.01849,1.07124\N,0,-0.07917,2.67519,0.5129\F,0,-0.17
 4387,4.040682,0.693105\C,0,-1.274162,1.954312,0.234457\N,0,-0.959179,0
 .691739,-0.358203\C,0,-1.983311,0.011261,-1.142028\F,0,-1.388586,-0.53
 9977,-2.231256\F,0,-2.795912,0.972886,-1.658883\C,0,-2.839117,-1.04482
 4,-0.383704\F,0,-2.048965,-2.118832,-0.061489\O,0,-3.281145,-0.590178,
 0.907236\C,0,-4.457358,0.17574,0.897743\F,0,-5.507925,-0.572909,0.5463
 37\F,0,-4.651885,0.659688,2.137046\F,0,-4.312965,1.212393,0.061395\C,0
 ,-3.896299,-1.548786,-1.373541\F,0,-4.727081,-0.562612,-1.779943\F,0,-
 3.353913,-2.092925,-2.483743\F,0,-4.670234,-2.505406,-0.804983\C,0,0.1
 06541,-0.026334,0.129558\O,0,0.320811,-1.17298,-0.246185\N,0,0.92157,0
 .636944,1.027914\C,0,2.057786,-0.092197,1.571865\F,0,1.65104,-1.360468
 ,1.873872\F,0,2.358422,0.434709,2.794393\C,0,3.325266,-0.140907,0.6774
 44\F,0,3.841219,1.116647,0.555029\O,0,2.966132,-0.53007,-0.652467\C,0,
 4.071018,-0.834106,-1.460821\F,0,3.671105,-0.843922,-2.745893\F,0,5.04
 2392,0.080566,-1.318734\F,0,4.533006,-2.054006,-1.143133\C,0,4.31712,-
 1.037557,1.432298\F,0,4.528392,-0.635849,2.704685\F,0,3.901568,-2.3234
 01,1.479196\F,0,5.533636,-1.046853,0.834517\H,0,-1.815406,1.792568,1.1
 72128\H,0,-1.871771,2.569542,-0.44288\\Version=ES64L-G09RevD.01\HF=-27
 81.3098567\S2=0.777659\S2-1=0.\S2A=0.750205\RMSD=5.139e-09\Dipole=-1.8
 40527,4.7379141,0.8147834\Quadrupole=0.4192189,7.7774171,-8.196636,-6.
 7165688,-2.6994971,2.6728275\PG=C01 [X(C11H2F19N3O4)]\\@

 Writing a WFN file to "A1374950780/A1374950780_p1.wfn"


 WE THE UNWILLING
 LED BY THE UNQUALIFIED
 HAVE BEEN DOING THE UNBELIEVABLE SO LONG WITH SO LITTLE
 THAT WE NOW ATTEMPT THE IMPOSSIBLE WITH NOTHING.

                                    -- ANONYMOUS
 Job cpu time:       0 days  0 hours 46 minutes 23.1 seconds.
 File lengths (MBytes):  RWF=    479 Int=      0 D2E=      0 Chk=     17 Scr=      1
 Normal termination of Gaussian 09 at Sun Mar  3 17:46:01 2024.
