 Entering Gaussian System, Link 0=g09
 Initial command:
 /home/k0335/k033513/app/g09/l1.exe "/home/k0335/k033513/app/g09/scratch/Gau-444033.inp" -scrdir="/home/k0335/k033513/app/g09/scratch/"
 Default is to use a total of  36 processors:
                               36 via shared-memory
                                1 via Linda
 Entering Link 1 = /home/k0335/k033513/app/g09/l1.exe PID=    444034.
  
 Copyright (c) 1988,1990,1992,1993,1995,1998,2003,2009,2013,
            Gaussian, Inc.  All Rights Reserved.
  
 This is part of the Gaussian(R) 09 program.  It is based on
 the Gaussian(R) 03 system (copyright 2003, Gaussian, Inc.),
 the Gaussian(R) 98 system (copyright 1998, Gaussian, Inc.),
 the Gaussian(R) 94 system (copyright 1995, Gaussian, Inc.),
 the Gaussian 92(TM) system (copyright 1992, Gaussian, Inc.),
 the Gaussian 90(TM) system (copyright 1990, Gaussian, Inc.),
 the Gaussian 88(TM) system (copyright 1988, Gaussian, Inc.),
 the Gaussian 86(TM) system (copyright 1986, Carnegie Mellon
 University), and the Gaussian 82(TM) system (copyright 1983,
 Carnegie Mellon University). Gaussian is a federally registered
 trademark of Gaussian, Inc.
  
 This software contains proprietary and confidential information,
 including trade secrets, belonging to Gaussian, Inc.
  
 This software is provided under written license and may be
 used, copied, transmitted, or stored only in accord with that
 written license.
  
 The following legend is applicable only to US Government
 contracts under FAR:
  
                    RESTRICTED RIGHTS LEGEND
  
 Use, reproduction and disclosure by the US Government is
 subject to restrictions as set forth in subparagraphs (a)
 and (c) of the Commercial Computer Software - Restricted
 Rights clause in FAR 52.227-19.
  
 Gaussian, Inc.
 340 Quinnipiac St., Bldg. 40, Wallingford CT 06492
  
  
 ---------------------------------------------------------------
 Warning -- This program may not be used in any manner that
 competes with the business of Gaussian, Inc. or will provide
 assistance to any competitor of Gaussian, Inc.  The licensee
 of this program is prohibited from giving any competitor of
 Gaussian, Inc. access to this program.  By using this program,
 the user acknowledges that Gaussian, Inc. is engaged in the
 business of creating and licensing software in the field of
 computational chemistry and represents and warrants to the
 licensee that it is not a competitor of Gaussian, Inc. and that
 it will not use this program in any manner prohibited above.
 ---------------------------------------------------------------
  

 Cite this work as:
 Gaussian 09, Revision D.01,
 M. J. Frisch, G. W. Trucks, H. B. Schlegel, G. E. Scuseria, 
 M. A. Robb, J. R. Cheeseman, G. Scalmani, V. Barone, B. Mennucci, 
 G. A. Petersson, H. Nakatsuji, M. Caricato, X. Li, H. P. Hratchian, 
 A. F. Izmaylov, J. Bloino, G. Zheng, J. L. Sonnenberg, M. Hada, 
 M. Ehara, K. Toyota, R. Fukuda, J. Hasegawa, M. Ishida, T. Nakajima, 
 Y. Honda, O. Kitao, H. Nakai, T. Vreven, J. A. Montgomery, Jr., 
 J. E. Peralta, F. Ogliaro, M. Bearpark, J. J. Heyd, E. Brothers, 
 K. N. Kudin, V. N. Staroverov, T. Keith, R. Kobayashi, J. Normand, 
 K. Raghavachari, A. Rendell, J. C. Burant, S. S. Iyengar, J. Tomasi, 
 M. Cossi, N. Rega, J. M. Millam, M. Klene, J. E. Knox, J. B. Cross, 
 V. Bakken, C. Adamo, J. Jaramillo, R. Gomperts, R. E. Stratmann, 
 O. Yazyev, A. J. Austin, R. Cammi, C. Pomelli, J. W. Ochterski, 
 R. L. Martin, K. Morokuma, V. G. Zakrzewski, G. A. Voth, 
 P. Salvador, J. J. Dannenberg, S. Dapprich, A. D. Daniels, 
 O. Farkas, J. B. Foresman, J. V. Ortiz, J. Cioslowski, 
 and D. J. Fox, Gaussian, Inc., Wallingford CT, 2013.
 
 ******************************************
 Gaussian 09:  ES64L-G09RevD.01 24-Apr-2013
                 5-Feb-2025 
 ******************************************
 %nprocshared=24
 Will use up to   24 processors via shared memory.
 %mem=40GB
 %rwf=cytopopt/DIPEDA1/DIPEDA1_neu.rwf
 %nosave
 %chk=cytopopt/DIPEDA1/DIPEDA1_neu.chk
 ----------------------------------------------------------------------
 #p CAM-B3LYP/6-31G(d,p) opt SCRF=(PCM,Solvent=Generic,Read) NoSymm out
 =wfn
 ----------------------------------------------------------------------
 1/14=-1,18=20,19=15,26=3,38=1,40=2/1,3;
 2/9=110,12=2,15=1,17=6,18=5,40=1/2;
 3/5=1,6=6,7=101,11=2,16=1,25=1,30=1,70=2203,71=1,72=-2,74=-40/1,2,3;
 4//1;
 5/5=2,38=5/2;
 6/7=2,8=2,9=2,10=2,28=1/1;
 7/30=1/1,2,3,16;
 1/14=-1,18=20,19=15,26=3/3(2);
 2/9=110,15=1/2;
 99/6=100/99;
 2/9=110,15=1/2;
 3/5=1,6=6,7=101,11=2,16=1,25=1,30=1,70=2205,71=1,72=-2,74=-40/1,2,3;
 4/5=5,16=3,69=1/1;
 5/5=2,38=5/2;
 7/30=1/1,2,3,16;
 1/14=-1,18=20,19=15,26=3/3(-5);
 2/9=110,15=1/2;
 6/7=2,8=2,9=2,10=2,19=2,28=1/1;
 99/6=100,9=1/99;
 Leave Link    1 at Wed Feb  5 13:10:14 2025, MaxMem=  5368709120 cpu:         1.2
 (Enter /home/k0335/k033513/app/g09/l101.exe)
 -----------------
 Title DIPEDA1_neu
 -----------------
 Symbolic Z-matrix:
 Charge =  0 Multiplicity = 1
 F                     2.73753  -2.57341   2.20288 
 C                     3.35467  -1.42803   1.85222 
 F                     4.346    -1.21627   2.73724 
 C                     3.83056  -1.42468   0.41691 
 F                     4.93318  -2.14736   0.17493 
 F                     2.84704  -1.9587   -0.36189 
 C                     3.94957   0.03879   0.10675 
 F                     3.73455   0.25634  -1.21817 
 C                     5.29581   0.64209   0.46573 
 F                     5.5276    0.52675   1.80048 
 C                     6.42107   0.01275  -0.35878 
 O                     7.26812  -0.74846   0.37099 
 O                     6.60056   0.12583  -1.56157 
 F                     5.24728   1.9876    0.22518 
 C                     2.81792   0.61255   0.96715 
 F                     3.29628   1.67448   1.68506 
 C                     1.60214   1.1377    0.17776 
 F                     0.7435    1.73735   1.06807 
 C                     0.85641   0.02492  -0.57038 
 N                    -0.03415  -0.69263   0.21347 
 C                    -0.93772  -1.65952  -0.39195 
 C                    -2.14613  -0.97735  -1.06292 
 N                    -2.81573  -0.03807  -0.11442 
 C                    -2.73667   1.34734  -0.64655 
 C                    -2.6647    2.40827   0.45847 
 C                    -3.78157   1.70236  -1.70907 
 C                    -4.15013  -0.54253   0.30709 
 C                    -4.03353  -1.91857   0.99687 
 C                    -4.90007   0.36399   1.2946 
 O                     1.05821  -0.24655  -1.7515 
 F                     2.0021    2.1397   -0.6584 
 O                     2.43551  -0.35023   1.97444 
 H                     7.94052  -1.0673   -0.26949 
 H                    -0.43963  -0.18933   1.00062 
 H                    -0.38836  -2.25355  -1.13017 
 H                    -1.26119  -2.33054   0.4093 
 H                    -2.83422  -1.73607  -1.45453 
 H                    -1.78492  -0.45667  -1.95936 
 H                    -1.75882   1.4506   -1.13764 
 H                    -2.26789   3.34418   0.04809 
 H                    -1.98708   2.09505   1.26053 
 H                    -3.63437   2.6474    0.89762 
 H                    -3.56385   2.68702  -2.13851 
 H                    -3.77174   0.97876  -2.53087 
 H                    -4.79633   1.74132  -1.30478 
 H                    -4.78777  -0.66764  -0.57802 
 H                    -5.01313  -2.2597    1.35204 
 H                    -3.3628   -1.8712    1.86213 
 H                    -3.66846  -2.69701   0.32128 
 H                    -5.2569    1.2805    0.82112 
 H                    -4.27301   0.62435   2.15417 
 H                    -5.79523  -0.13666   1.68253 
 
 NAtoms=     52 NQM=       52 NQMF=       0 NMMI=      0 NMMIF=      0
                NMic=       0 NMicF=      0.
                    Isotopes and Nuclear Properties:
 (Nuclear quadrupole moments (NQMom) in fm**2, nuclear magnetic moments (NMagM)
  in nuclear magnetons)

  Atom         1           2           3           4           5           6           7           8           9          10
 IAtWgt=          19          12          19          12          19          19          12          19          12          19
 AtmWgt=  18.9984033  12.0000000  18.9984033  12.0000000  18.9984033  18.9984033  12.0000000  18.9984033  12.0000000  18.9984033
 NucSpn=           1           0           1           0           1           1           0           1           0           1
 AtZEff=   0.0000000   0.0000000   0.0000000   0.0000000   0.0000000   0.0000000   0.0000000   0.0000000   0.0000000   0.0000000
 NQMom=    0.0000000   0.0000000   0.0000000   0.0000000   0.0000000   0.0000000   0.0000000   0.0000000   0.0000000   0.0000000
 NMagM=    2.6288670   0.0000000   2.6288670   0.0000000   2.6288670   2.6288670   0.0000000   2.6288670   0.0000000   2.6288670
 AtZNuc=   9.0000000   6.0000000   9.0000000   6.0000000   9.0000000   9.0000000   6.0000000   9.0000000   6.0000000   9.0000000

  Atom        11          12          13          14          15          16          17          18          19          20
 IAtWgt=          12          16          16          19          12          19          12          19          12          14
 AtmWgt=  12.0000000  15.9949146  15.9949146  18.9984033  12.0000000  18.9984033  12.0000000  18.9984033  12.0000000  14.0030740
 NucSpn=           0           0           0           1           0           1           0           1           0           2
 AtZEff=   0.0000000   0.0000000   0.0000000   0.0000000   0.0000000   0.0000000   0.0000000   0.0000000   0.0000000   0.0000000
 NQMom=    0.0000000   0.0000000   0.0000000   0.0000000   0.0000000   0.0000000   0.0000000   0.0000000   0.0000000   2.0440000
 NMagM=    0.0000000   0.0000000   0.0000000   2.6288670   0.0000000   2.6288670   0.0000000   2.6288670   0.0000000   0.4037610
 AtZNuc=   6.0000000   8.0000000   8.0000000   9.0000000   6.0000000   9.0000000   6.0000000   9.0000000   6.0000000   7.0000000

  Atom        21          22          23          24          25          26          27          28          29          30
 IAtWgt=          12          12          14          12          12          12          12          12          12          16
 AtmWgt=  12.0000000  12.0000000  14.0030740  12.0000000  12.0000000  12.0000000  12.0000000  12.0000000  12.0000000  15.9949146
 NucSpn=           0           0           2           0           0           0           0           0           0           0
 AtZEff=   0.0000000   0.0000000   0.0000000   0.0000000   0.0000000   0.0000000   0.0000000   0.0000000   0.0000000   0.0000000
 NQMom=    0.0000000   0.0000000   2.0440000   0.0000000   0.0000000   0.0000000   0.0000000   0.0000000   0.0000000   0.0000000
 NMagM=    0.0000000   0.0000000   0.4037610   0.0000000   0.0000000   0.0000000   0.0000000   0.0000000   0.0000000   0.0000000
 AtZNuc=   6.0000000   6.0000000   7.0000000   6.0000000   6.0000000   6.0000000   6.0000000   6.0000000   6.0000000   8.0000000

  Atom        31          32          33          34          35          36          37          38          39          40
 IAtWgt=          19          16           1           1           1           1           1           1           1           1
 AtmWgt=  18.9984033  15.9949146   1.0078250   1.0078250   1.0078250   1.0078250   1.0078250   1.0078250   1.0078250   1.0078250
 NucSpn=           1           0           1           1           1           1           1           1           1           1
 AtZEff=   0.0000000   0.0000000   0.0000000   0.0000000   0.0000000   0.0000000   0.0000000   0.0000000   0.0000000   0.0000000
 NQMom=    0.0000000   0.0000000   0.0000000   0.0000000   0.0000000   0.0000000   0.0000000   0.0000000   0.0000000   0.0000000
 NMagM=    2.6288670   0.0000000   2.7928460   2.7928460   2.7928460   2.7928460   2.7928460   2.7928460   2.7928460   2.7928460
 AtZNuc=   9.0000000   8.0000000   1.0000000   1.0000000   1.0000000   1.0000000   1.0000000   1.0000000   1.0000000   1.0000000

  Atom        41          42          43          44          45          46          47          48          49          50
 IAtWgt=           1           1           1           1           1           1           1           1           1           1
 AtmWgt=   1.0078250   1.0078250   1.0078250   1.0078250   1.0078250   1.0078250   1.0078250   1.0078250   1.0078250   1.0078250
 NucSpn=           1           1           1           1           1           1           1           1           1           1
 AtZEff=   0.0000000   0.0000000   0.0000000   0.0000000   0.0000000   0.0000000   0.0000000   0.0000000   0.0000000   0.0000000
 NQMom=    0.0000000   0.0000000   0.0000000   0.0000000   0.0000000   0.0000000   0.0000000   0.0000000   0.0000000   0.0000000
 NMagM=    2.7928460   2.7928460   2.7928460   2.7928460   2.7928460   2.7928460   2.7928460   2.7928460   2.7928460   2.7928460
 AtZNuc=   1.0000000   1.0000000   1.0000000   1.0000000   1.0000000   1.0000000   1.0000000   1.0000000   1.0000000   1.0000000

  Atom        51          52
 IAtWgt=           1           1
 AtmWgt=   1.0078250   1.0078250
 NucSpn=           1           1
 AtZEff=   0.0000000   0.0000000
 NQMom=    0.0000000   0.0000000
 NMagM=    2.7928460   2.7928460
 AtZNuc=   1.0000000   1.0000000
 Leave Link  101 at Wed Feb  5 13:10:15 2025, MaxMem=  5368709120 cpu:         3.3
 (Enter /home/k0335/k033513/app/g09/l103.exe)

 GradGradGradGradGradGradGradGradGradGradGradGradGradGradGradGradGradGrad
 Berny optimization.
 Initialization pass.
                           ----------------------------
                           !    Initial Parameters    !
                           ! (Angstroms and Degrees)  !
 --------------------------                            --------------------------
 ! Name  Definition              Value          Derivative Info.                !
 --------------------------------------------------------------------------------
 ! R1    R(1,2)                  1.3475         estimate D2E/DX2                !
 ! R2    R(2,3)                  1.3457         estimate D2E/DX2                !
 ! R3    R(2,4)                  1.5121         estimate D2E/DX2                !
 ! R4    R(2,32)                 1.4218         estimate D2E/DX2                !
 ! R5    R(4,5)                  1.3404         estimate D2E/DX2                !
 ! R6    R(4,6)                  1.3635         estimate D2E/DX2                !
 ! R7    R(4,7)                  1.5007         estimate D2E/DX2                !
 ! R8    R(7,8)                  1.3598         estimate D2E/DX2                !
 ! R9    R(7,9)                  1.5183         estimate D2E/DX2                !
 ! R10   R(7,15)                 1.533          estimate D2E/DX2                !
 ! R11   R(9,10)                 1.3596         estimate D2E/DX2                !
 ! R12   R(9,11)                 1.5304         estimate D2E/DX2                !
 ! R13   R(9,14)                 1.3677         estimate D2E/DX2                !
 ! R14   R(11,12)                1.3526         estimate D2E/DX2                !
 ! R15   R(11,13)                1.2214         estimate D2E/DX2                !
 ! R16   R(12,33)                0.9818         estimate D2E/DX2                !
 ! R17   R(15,16)                1.3682         estimate D2E/DX2                !
 ! R18   R(15,17)                1.5418         estimate D2E/DX2                !
 ! R19   R(15,32)                1.4449         estimate D2E/DX2                !
 ! R20   R(17,18)                1.3746         estimate D2E/DX2                !
 ! R21   R(17,19)                1.5343         estimate D2E/DX2                !
 ! R22   R(17,31)                1.365          estimate D2E/DX2                !
 ! R23   R(19,20)                1.3865         estimate D2E/DX2                !
 ! R24   R(19,30)                1.2286         estimate D2E/DX2                !
 ! R25   R(20,21)                1.4553         estimate D2E/DX2                !
 ! R26   R(20,34)                1.0185         estimate D2E/DX2                !
 ! R27   R(21,22)                1.5414         estimate D2E/DX2                !
 ! R28   R(21,35)                1.0953         estimate D2E/DX2                !
 ! R29   R(21,36)                1.094          estimate D2E/DX2                !
 ! R30   R(22,23)                1.4934         estimate D2E/DX2                !
 ! R31   R(22,37)                1.0966         estimate D2E/DX2                !
 ! R32   R(22,38)                1.0978         estimate D2E/DX2                !
 ! R33   R(23,24)                1.4862         estimate D2E/DX2                !
 ! R34   R(23,27)                1.4875         estimate D2E/DX2                !
 ! R35   R(24,25)                1.5336         estimate D2E/DX2                !
 ! R36   R(24,26)                1.5319         estimate D2E/DX2                !
 ! R37   R(24,39)                1.0991         estimate D2E/DX2                !
 ! R38   R(25,40)                1.0963         estimate D2E/DX2                !
 ! R39   R(25,41)                1.0957         estimate D2E/DX2                !
 ! R40   R(25,42)                1.091          estimate D2E/DX2                !
 ! R41   R(26,43)                1.0961         estimate D2E/DX2                !
 ! R42   R(26,44)                1.095          estimate D2E/DX2                !
 ! R43   R(26,45)                1.093          estimate D2E/DX2                !
 ! R44   R(27,28)                1.5437         estimate D2E/DX2                !
 ! R45   R(27,29)                1.536          estimate D2E/DX2                !
 ! R46   R(27,46)                1.098          estimate D2E/DX2                !
 ! R47   R(28,47)                1.0964         estimate D2E/DX2                !
 ! R48   R(28,48)                1.0958         estimate D2E/DX2                !
 ! R49   R(28,49)                1.0935         estimate D2E/DX2                !
 ! R50   R(29,50)                1.0916         estimate D2E/DX2                !
 ! R51   R(29,51)                1.0954         estimate D2E/DX2                !
 ! R52   R(29,52)                1.0966         estimate D2E/DX2                !
 ! A1    A(1,2,3)              107.4576         estimate D2E/DX2                !
 ! A2    A(1,2,4)              113.1432         estimate D2E/DX2                !
 ! A3    A(1,2,32)             109.0204         estimate D2E/DX2                !
 ! A4    A(3,2,4)              113.0832         estimate D2E/DX2                !
 ! A5    A(3,2,32)             107.4833         estimate D2E/DX2                !
 ! A6    A(4,2,32)             106.4618         estimate D2E/DX2                !
 ! A7    A(2,4,5)              115.4073         estimate D2E/DX2                !
 ! A8    A(2,4,6)              108.3174         estimate D2E/DX2                !
 ! A9    A(2,4,7)              102.9026         estimate D2E/DX2                !
 ! A10   A(5,4,6)              106.2067         estimate D2E/DX2                !
 ! A11   A(5,4,7)              115.0396         estimate D2E/DX2                !
 ! A12   A(6,4,7)              108.7296         estimate D2E/DX2                !
 ! A13   A(4,7,8)              110.1733         estimate D2E/DX2                !
 ! A14   A(4,7,9)              114.1381         estimate D2E/DX2                !
 ! A15   A(4,7,15)             100.9788         estimate D2E/DX2                !
 ! A16   A(8,7,9)              107.8796         estimate D2E/DX2                !
 ! A17   A(8,7,15)             111.7319         estimate D2E/DX2                !
 ! A18   A(9,7,15)             111.9081         estimate D2E/DX2                !
 ! A19   A(7,9,10)             110.4611         estimate D2E/DX2                !
 ! A20   A(7,9,11)             111.1721         estimate D2E/DX2                !
 ! A21   A(7,9,14)             108.5333         estimate D2E/DX2                !
 ! A22   A(10,9,11)            111.6336         estimate D2E/DX2                !
 ! A23   A(10,9,14)            105.1985         estimate D2E/DX2                !
 ! A24   A(11,9,14)            109.6261         estimate D2E/DX2                !
 ! A25   A(9,11,12)            113.6538         estimate D2E/DX2                !
 ! A26   A(9,11,13)            126.9096         estimate D2E/DX2                !
 ! A27   A(12,11,13)           119.4332         estimate D2E/DX2                !
 ! A28   A(11,12,33)           105.0509         estimate D2E/DX2                !
 ! A29   A(7,15,16)            109.081          estimate D2E/DX2                !
 ! A30   A(7,15,17)            114.9748         estimate D2E/DX2                !
 ! A31   A(7,15,32)            109.7093         estimate D2E/DX2                !
 ! A32   A(16,15,17)           106.2594         estimate D2E/DX2                !
 ! A33   A(16,15,32)           104.1178         estimate D2E/DX2                !
 ! A34   A(17,15,32)           112.036          estimate D2E/DX2                !
 ! A35   A(15,17,18)           108.0317         estimate D2E/DX2                !
 ! A36   A(15,17,19)           112.6991         estimate D2E/DX2                !
 ! A37   A(15,17,31)           109.4284         estimate D2E/DX2                !
 ! A38   A(18,17,19)           109.184          estimate D2E/DX2                !
 ! A39   A(18,17,31)           105.0439         estimate D2E/DX2                !
 ! A40   A(19,17,31)           112.0938         estimate D2E/DX2                !
 ! A41   A(17,19,20)           114.3219         estimate D2E/DX2                !
 ! A42   A(17,19,30)           123.3108         estimate D2E/DX2                !
 ! A43   A(20,19,30)           122.3196         estimate D2E/DX2                !
 ! A44   A(19,20,21)           120.4944         estimate D2E/DX2                !
 ! A45   A(19,20,34)           115.9065         estimate D2E/DX2                !
 ! A46   A(21,20,34)           113.7441         estimate D2E/DX2                !
 ! A47   A(20,21,22)           111.9508         estimate D2E/DX2                !
 ! A48   A(20,21,35)           109.2269         estimate D2E/DX2                !
 ! A49   A(20,21,36)           106.6428         estimate D2E/DX2                !
 ! A50   A(22,21,35)           109.8688         estimate D2E/DX2                !
 ! A51   A(22,21,36)           111.0059         estimate D2E/DX2                !
 ! A52   A(35,21,36)           108.0156         estimate D2E/DX2                !
 ! A53   A(21,22,23)           110.6956         estimate D2E/DX2                !
 ! A54   A(21,22,37)           109.9486         estimate D2E/DX2                !
 ! A55   A(21,22,38)           107.9033         estimate D2E/DX2                !
 ! A56   A(23,22,37)           112.3736         estimate D2E/DX2                !
 ! A57   A(23,22,38)           111.5832         estimate D2E/DX2                !
 ! A58   A(37,22,38)           104.0637         estimate D2E/DX2                !
 ! A59   A(22,23,24)           109.5754         estimate D2E/DX2                !
 ! A60   A(22,23,27)           111.6473         estimate D2E/DX2                !
 ! A61   A(24,23,27)           117.7298         estimate D2E/DX2                !
 ! A62   A(23,24,25)           112.9172         estimate D2E/DX2                !
 ! A63   A(23,24,26)           115.346          estimate D2E/DX2                !
 ! A64   A(23,24,39)           107.1507         estimate D2E/DX2                !
 ! A65   A(25,24,26)           111.8051         estimate D2E/DX2                !
 ! A66   A(25,24,39)           102.4272         estimate D2E/DX2                !
 ! A67   A(26,24,39)           105.9716         estimate D2E/DX2                !
 ! A68   A(24,25,40)           109.747          estimate D2E/DX2                !
 ! A69   A(24,25,41)           111.0208         estimate D2E/DX2                !
 ! A70   A(24,25,42)           113.5755         estimate D2E/DX2                !
 ! A71   A(40,25,41)           107.1107         estimate D2E/DX2                !
 ! A72   A(40,25,42)           106.5747         estimate D2E/DX2                !
 ! A73   A(41,25,42)           108.5219         estimate D2E/DX2                !
 ! A74   A(24,26,43)           110.1479         estimate D2E/DX2                !
 ! A75   A(24,26,44)           111.1778         estimate D2E/DX2                !
 ! A76   A(24,26,45)           112.6407         estimate D2E/DX2                !
 ! A77   A(43,26,44)           107.327          estimate D2E/DX2                !
 ! A78   A(43,26,45)           107.2966         estimate D2E/DX2                !
 ! A79   A(44,26,45)           108.0282         estimate D2E/DX2                !
 ! A80   A(23,27,28)           111.1713         estimate D2E/DX2                !
 ! A81   A(23,27,29)           114.8346         estimate D2E/DX2                !
 ! A82   A(23,27,46)           109.3386         estimate D2E/DX2                !
 ! A83   A(28,27,29)           106.0038         estimate D2E/DX2                !
 ! A84   A(28,27,46)           107.6075         estimate D2E/DX2                !
 ! A85   A(29,27,46)           107.5755         estimate D2E/DX2                !
 ! A86   A(27,28,47)           110.769          estimate D2E/DX2                !
 ! A87   A(27,28,48)           111.1327         estimate D2E/DX2                !
 ! A88   A(27,28,49)           112.5658         estimate D2E/DX2                !
 ! A89   A(47,28,48)           107.7302         estimate D2E/DX2                !
 ! A90   A(47,28,49)           106.078          estimate D2E/DX2                !
 ! A91   A(48,28,49)           108.3175         estimate D2E/DX2                !
 ! A92   A(27,29,50)           112.1028         estimate D2E/DX2                !
 ! A93   A(27,29,51)           111.4255         estimate D2E/DX2                !
 ! A94   A(27,29,52)           110.8883         estimate D2E/DX2                !
 ! A95   A(50,29,51)           109.1445         estimate D2E/DX2                !
 ! A96   A(50,29,52)           105.6603         estimate D2E/DX2                !
 ! A97   A(51,29,52)           107.3507         estimate D2E/DX2                !
 ! A98   A(2,32,15)            105.9074         estimate D2E/DX2                !
 ! D1    D(1,2,4,5)            -75.8397         estimate D2E/DX2                !
 ! D2    D(1,2,4,6)             43.024          estimate D2E/DX2                !
 ! D3    D(1,2,4,7)            158.038          estimate D2E/DX2                !
 ! D4    D(3,2,4,5)             46.6275         estimate D2E/DX2                !
 ! D5    D(3,2,4,6)            165.4912         estimate D2E/DX2                !
 ! D6    D(3,2,4,7)            -79.4948         estimate D2E/DX2                !
 ! D7    D(32,2,4,5)           164.4327         estimate D2E/DX2                !
 ! D8    D(32,2,4,6)           -76.7035         estimate D2E/DX2                !
 ! D9    D(32,2,4,7)            38.3104         estimate D2E/DX2                !
 ! D10   D(1,2,32,15)         -149.0422         estimate D2E/DX2                !
 ! D11   D(3,2,32,15)           94.7725         estimate D2E/DX2                !
 ! D12   D(4,2,32,15)          -26.6738         estimate D2E/DX2                !
 ! D13   D(2,4,7,8)           -150.7691         estimate D2E/DX2                !
 ! D14   D(2,4,7,9)             87.693          estimate D2E/DX2                !
 ! D15   D(2,4,7,15)           -32.534          estimate D2E/DX2                !
 ! D16   D(5,4,7,8)             82.8723         estimate D2E/DX2                !
 ! D17   D(5,4,7,9)            -38.6656         estimate D2E/DX2                !
 ! D18   D(5,4,7,15)          -158.8926         estimate D2E/DX2                !
 ! D19   D(6,4,7,8)            -36.0532         estimate D2E/DX2                !
 ! D20   D(6,4,7,9)           -157.591          estimate D2E/DX2                !
 ! D21   D(6,4,7,15)            82.182          estimate D2E/DX2                !
 ! D22   D(4,7,9,10)           -60.9581         estimate D2E/DX2                !
 ! D23   D(4,7,9,11)            63.5478         estimate D2E/DX2                !
 ! D24   D(4,7,9,14)          -175.8057         estimate D2E/DX2                !
 ! D25   D(8,7,9,10)           176.2462         estimate D2E/DX2                !
 ! D26   D(8,7,9,11)           -59.2479         estimate D2E/DX2                !
 ! D27   D(8,7,9,14)            61.3986         estimate D2E/DX2                !
 ! D28   D(15,7,9,10)           52.9427         estimate D2E/DX2                !
 ! D29   D(15,7,9,11)          177.4486         estimate D2E/DX2                !
 ! D30   D(15,7,9,14)          -61.9049         estimate D2E/DX2                !
 ! D31   D(4,7,15,16)          131.4322         estimate D2E/DX2                !
 ! D32   D(4,7,15,17)         -109.3626         estimate D2E/DX2                !
 ! D33   D(4,7,15,32)           17.9744         estimate D2E/DX2                !
 ! D34   D(8,7,15,16)         -111.4711         estimate D2E/DX2                !
 ! D35   D(8,7,15,17)            7.7341         estimate D2E/DX2                !
 ! D36   D(8,7,15,32)          135.0711         estimate D2E/DX2                !
 ! D37   D(9,7,15,16)            9.629          estimate D2E/DX2                !
 ! D38   D(9,7,15,17)          128.8341         estimate D2E/DX2                !
 ! D39   D(9,7,15,32)         -103.8289         estimate D2E/DX2                !
 ! D40   D(7,9,11,12)         -111.5919         estimate D2E/DX2                !
 ! D41   D(7,9,11,13)           67.7228         estimate D2E/DX2                !
 ! D42   D(10,9,11,12)          12.2494         estimate D2E/DX2                !
 ! D43   D(10,9,11,13)        -168.4359         estimate D2E/DX2                !
 ! D44   D(14,9,11,12)         128.4078         estimate D2E/DX2                !
 ! D45   D(14,9,11,13)         -52.2775         estimate D2E/DX2                !
 ! D46   D(9,11,12,33)        -178.752          estimate D2E/DX2                !
 ! D47   D(13,11,12,33)          1.8772         estimate D2E/DX2                !
 ! D48   D(7,15,17,18)        -173.971          estimate D2E/DX2                !
 ! D49   D(7,15,17,19)          65.3147         estimate D2E/DX2                !
 ! D50   D(7,15,17,31)         -60.1258         estimate D2E/DX2                !
 ! D51   D(16,15,17,18)        -53.2077         estimate D2E/DX2                !
 ! D52   D(16,15,17,19)       -173.922          estimate D2E/DX2                !
 ! D53   D(16,15,17,31)         60.6375         estimate D2E/DX2                !
 ! D54   D(32,15,17,18)         59.8806         estimate D2E/DX2                !
 ! D55   D(32,15,17,19)        -60.8337         estimate D2E/DX2                !
 ! D56   D(32,15,17,31)        173.7258         estimate D2E/DX2                !
 ! D57   D(7,15,32,2)            5.2058         estimate D2E/DX2                !
 ! D58   D(16,15,32,2)        -111.42           estimate D2E/DX2                !
 ! D59   D(17,15,32,2)         134.1702         estimate D2E/DX2                !
 ! D60   D(15,17,19,20)         81.9192         estimate D2E/DX2                !
 ! D61   D(15,17,19,30)        -95.6202         estimate D2E/DX2                !
 ! D62   D(18,17,19,20)        -38.1333         estimate D2E/DX2                !
 ! D63   D(18,17,19,30)        144.3273         estimate D2E/DX2                !
 ! D64   D(31,17,19,20)       -154.0991         estimate D2E/DX2                !
 ! D65   D(31,17,19,30)         28.3615         estimate D2E/DX2                !
 ! D66   D(17,19,20,21)        171.9643         estimate D2E/DX2                !
 ! D67   D(17,19,20,34)         28.3021         estimate D2E/DX2                !
 ! D68   D(30,19,20,21)        -10.469          estimate D2E/DX2                !
 ! D69   D(30,19,20,34)       -154.1312         estimate D2E/DX2                !
 ! D70   D(19,20,21,22)        -78.3584         estimate D2E/DX2                !
 ! D71   D(19,20,21,35)         43.5553         estimate D2E/DX2                !
 ! D72   D(19,20,21,36)        160.0504         estimate D2E/DX2                !
 ! D73   D(34,20,21,22)         66.03           estimate D2E/DX2                !
 ! D74   D(34,20,21,35)       -172.0564         estimate D2E/DX2                !
 ! D75   D(34,20,21,36)        -55.5612         estimate D2E/DX2                !
 ! D76   D(20,21,22,23)        -51.8629         estimate D2E/DX2                !
 ! D77   D(20,21,22,37)       -176.6125         estimate D2E/DX2                !
 ! D78   D(20,21,22,38)         70.5            estimate D2E/DX2                !
 ! D79   D(35,21,22,23)       -173.4079         estimate D2E/DX2                !
 ! D80   D(35,21,22,37)         61.8425         estimate D2E/DX2                !
 ! D81   D(35,21,22,38)        -51.0449         estimate D2E/DX2                !
 ! D82   D(36,21,22,23)         67.1841         estimate D2E/DX2                !
 ! D83   D(36,21,22,37)        -57.5655         estimate D2E/DX2                !
 ! D84   D(36,21,22,38)       -170.453          estimate D2E/DX2                !
 ! D85   D(21,22,23,24)        117.5973         estimate D2E/DX2                !
 ! D86   D(21,22,23,27)       -110.1463         estimate D2E/DX2                !
 ! D87   D(37,22,23,24)       -119.042          estimate D2E/DX2                !
 ! D88   D(37,22,23,27)         13.2145         estimate D2E/DX2                !
 ! D89   D(38,22,23,24)         -2.5909         estimate D2E/DX2                !
 ! D90   D(38,22,23,27)        129.6655         estimate D2E/DX2                !
 ! D91   D(22,23,24,25)       -148.6644         estimate D2E/DX2                !
 ! D92   D(22,23,24,26)         81.0577         estimate D2E/DX2                !
 ! D93   D(22,23,24,39)        -36.641          estimate D2E/DX2                !
 ! D94   D(27,23,24,25)         82.3408         estimate D2E/DX2                !
 ! D95   D(27,23,24,26)        -47.9371         estimate D2E/DX2                !
 ! D96   D(27,23,24,39)       -165.6358         estimate D2E/DX2                !
 ! D97   D(22,23,27,28)         59.1886         estimate D2E/DX2                !
 ! D98   D(22,23,27,29)        179.5216         estimate D2E/DX2                !
 ! D99   D(22,23,27,46)        -59.4778         estimate D2E/DX2                !
 ! D100  D(24,23,27,28)       -172.7961         estimate D2E/DX2                !
 ! D101  D(24,23,27,29)        -52.4632         estimate D2E/DX2                !
 ! D102  D(24,23,27,46)         68.5375         estimate D2E/DX2                !
 ! D103  D(23,24,25,40)        160.5743         estimate D2E/DX2                !
 ! D104  D(23,24,25,41)         42.3558         estimate D2E/DX2                !
 ! D105  D(23,24,25,42)        -80.2597         estimate D2E/DX2                !
 ! D106  D(26,24,25,40)        -67.3799         estimate D2E/DX2                !
 ! D107  D(26,24,25,41)        174.4016         estimate D2E/DX2                !
 ! D108  D(26,24,25,42)         51.786          estimate D2E/DX2                !
 ! D109  D(39,24,25,40)         45.6766         estimate D2E/DX2                !
 ! D110  D(39,24,25,41)        -72.542          estimate D2E/DX2                !
 ! D111  D(39,24,25,42)        164.8425         estimate D2E/DX2                !
 ! D112  D(23,24,26,43)       -172.3218         estimate D2E/DX2                !
 ! D113  D(23,24,26,44)        -53.4822         estimate D2E/DX2                !
 ! D114  D(23,24,26,45)         67.9311         estimate D2E/DX2                !
 ! D115  D(25,24,26,43)         56.8654         estimate D2E/DX2                !
 ! D116  D(25,24,26,44)        175.7051         estimate D2E/DX2                !
 ! D117  D(25,24,26,45)        -62.8816         estimate D2E/DX2                !
 ! D118  D(39,24,26,43)        -53.9645         estimate D2E/DX2                !
 ! D119  D(39,24,26,44)         64.8752         estimate D2E/DX2                !
 ! D120  D(39,24,26,45)       -173.7115         estimate D2E/DX2                !
 ! D121  D(23,27,28,47)        176.9977         estimate D2E/DX2                !
 ! D122  D(23,27,28,48)         57.2772         estimate D2E/DX2                !
 ! D123  D(23,27,28,49)        -64.4247         estimate D2E/DX2                !
 ! D124  D(29,27,28,47)         51.5722         estimate D2E/DX2                !
 ! D125  D(29,27,28,48)        -68.1483         estimate D2E/DX2                !
 ! D126  D(29,27,28,49)        170.1498         estimate D2E/DX2                !
 ! D127  D(46,27,28,47)        -63.3004         estimate D2E/DX2                !
 ! D128  D(46,27,28,48)        176.9791         estimate D2E/DX2                !
 ! D129  D(46,27,28,49)         55.2771         estimate D2E/DX2                !
 ! D130  D(23,27,29,50)         71.0944         estimate D2E/DX2                !
 ! D131  D(23,27,29,51)        -51.5624         estimate D2E/DX2                !
 ! D132  D(23,27,29,52)       -171.0773         estimate D2E/DX2                !
 ! D133  D(28,27,29,50)       -165.7618         estimate D2E/DX2                !
 ! D134  D(28,27,29,51)         71.5814         estimate D2E/DX2                !
 ! D135  D(28,27,29,52)        -47.9334         estimate D2E/DX2                !
 ! D136  D(46,27,29,50)        -50.8673         estimate D2E/DX2                !
 ! D137  D(46,27,29,51)       -173.5241         estimate D2E/DX2                !
 ! D138  D(46,27,29,52)         66.9611         estimate D2E/DX2                !
 --------------------------------------------------------------------------------
 Trust Radius=3.00D-01 FncErr=1.00D-07 GrdErr=1.00D-06
 Number of steps in this run=    298 maximum allowed number of steps=    312.
 GradGradGradGradGradGradGradGradGradGradGradGradGradGradGradGradGradGrad

 Leave Link  103 at Wed Feb  5 13:10:15 2025, MaxMem=  5368709120 cpu:         0.1
 (Enter /home/k0335/k033513/app/g09/l202.exe)
 Symmetry turned off by external request.
 Stoichiometry    C16H20F10N2O4
 Framework group  C1[X(C16H20F10N2O4)]
 Deg. of freedom   150
 Full point group                 C1      NOp   1
                          Input orientation:                          
 ---------------------------------------------------------------------
 Center     Atomic      Atomic             Coordinates (Angstroms)
 Number     Number       Type             X           Y           Z
 ---------------------------------------------------------------------
      1          9           0        2.737526   -2.573413    2.202880
      2          6           0        3.354669   -1.428027    1.852215
      3          9           0        4.345999   -1.216272    2.737237
      4          6           0        3.830560   -1.424675    0.416910
      5          9           0        4.933181   -2.147357    0.174934
      6          9           0        2.847036   -1.958701   -0.361885
      7          6           0        3.949565    0.038794    0.106748
      8          9           0        3.734549    0.256341   -1.218171
      9          6           0        5.295811    0.642086    0.465733
     10          9           0        5.527603    0.526753    1.800481
     11          6           0        6.421068    0.012748   -0.358784
     12          8           0        7.268120   -0.748461    0.370987
     13          8           0        6.600557    0.125829   -1.561571
     14          9           0        5.247285    1.987604    0.225175
     15          6           0        2.817923    0.612548    0.967154
     16          9           0        3.296275    1.674483    1.685060
     17          6           0        1.602140    1.137700    0.177755
     18          9           0        0.743498    1.737353    1.068070
     19          6           0        0.856408    0.024921   -0.570382
     20          7           0       -0.034153   -0.692627    0.213467
     21          6           0       -0.937723   -1.659522   -0.391953
     22          6           0       -2.146134   -0.977346   -1.062918
     23          7           0       -2.815730   -0.038071   -0.114423
     24          6           0       -2.736671    1.347340   -0.646546
     25          6           0       -2.664700    2.408270    0.458469
     26          6           0       -3.781573    1.702364   -1.709072
     27          6           0       -4.150133   -0.542531    0.307094
     28          6           0       -4.033527   -1.918573    0.996865
     29          6           0       -4.900066    0.363993    1.294600
     30          8           0        1.058214   -0.246554   -1.751500
     31          9           0        2.002095    2.139704   -0.658400
     32          8           0        2.435510   -0.350233    1.974440
     33          1           0        7.940517   -1.067295   -0.269490
     34          1           0       -0.439633   -0.189331    1.000615
     35          1           0       -0.388355   -2.253550   -1.130171
     36          1           0       -1.261193   -2.330540    0.409295
     37          1           0       -2.834222   -1.736070   -1.454534
     38          1           0       -1.784924   -0.456674   -1.959355
     39          1           0       -1.758816    1.450604   -1.137636
     40          1           0       -2.267893    3.344177    0.048091
     41          1           0       -1.987077    2.095046    1.260529
     42          1           0       -3.634365    2.647400    0.897616
     43          1           0       -3.563845    2.687022   -2.138508
     44          1           0       -3.771743    0.978761   -2.530869
     45          1           0       -4.796325    1.741324   -1.304779
     46          1           0       -4.787771   -0.667642   -0.578021
     47          1           0       -5.013132   -2.259698    1.352035
     48          1           0       -3.362802   -1.871196    1.862133
     49          1           0       -3.668460   -2.697005    0.321283
     50          1           0       -5.256900    1.280502    0.821121
     51          1           0       -4.273013    0.624353    2.154175
     52          1           0       -5.795231   -0.136656    1.682532
 ---------------------------------------------------------------------
 Rotational constants (GHZ):      0.3055581      0.0780734      0.0736257
 Leave Link  202 at Wed Feb  5 13:10:15 2025, MaxMem=  5368709120 cpu:         0.0
 (Enter /home/k0335/k033513/app/g09/l301.exe)
 Standard basis: 6-31G(d,p) (6D, 7F)
 Ernie: Thresh=  0.10000D-02 Tol=  0.10000D-05 Strict=F.
   580 basis functions,  1036 primitive gaussians,   580 cartesian basis functions
   126 alpha electrons      126 beta electrons
       nuclear repulsion energy      4155.8601874467 Hartrees.
 IExCor=20419 DFT=T Ex+Corr=CAM-B3LYP ExCW=0 ScaHFX=  1.000000
 ScaDFX=  1.000000  1.000000  1.000000  0.810000 ScalE2=  1.000000  1.000000
 IRadAn=      0 IRanWt=     -1 IRanGd=            0 ICorTp=0 IEmpDi=  4
  HFx wShort=  0.000000 wLong=  0.330000 cFull=  0.190000 cShort=  0.000000 cLong=  0.460000
  DFx wShort=  0.000000 wLong=  0.330000 cFull=  0.190000 cShort=  0.000000 cLong=  0.460000
 NAtoms=   52 NActive=   52 NUniq=   52 SFac= 1.00D+00 NAtFMM=   60 NAOKFM=F Big=F
 Integral buffers will be    131072 words long.
 Raffenetti 2 integral format.
 Two-electron integral symmetry is turned off.
 Using the following non-standard input for PCM:
 eps=2.05
 --- end of non-standard input.
 ------------------------------------------------------------------------------
 Polarizable Continuum Model (PCM)
 =================================
 Model                : PCM (using non-symmetric T matrix).
 Atomic radii         : UFF (Universal Force Field).
 Polarization charges : Total charges.
 Charge compensation  : None.
 Solution method      : On-the-fly selection.
 Cavity type          : Scaled VdW (van der Waals Surface) (Alpha=1.100).
 Cavity algorithm     : GePol (No added spheres)
                        Default sphere list used, NSphG=   52.
                        Lebedev-Laikov grids with approx.  5.0 points / Ang**2.
                        Smoothing algorithm: Karplus/York (Gamma=1.0000).
                        Polarization charges: spherical gaussians, with
                                              point-specific exponents (IZeta= 3).
                        Self-potential: point-specific (ISelfS= 7).
                        Self-field    : sphere-specific E.n sum rule (ISelfD= 2).
 1st derivatives      : Analytical E(r).r(x)/FMM algorithm (CHGder, D1EAlg=3).
                        Cavity 1st derivative terms included.
 Solvent              : Generic,
                        Eps                           =   2.050000
                        Eps(infinity)                 =   0.000000
                        RSolv                         =   0.000000 Ang.
                        Molar volume                  =   0.000000 cm**3/mol
                        Thermal expansion coefficient =   0.000000 K**-1
                        Absolute temperature          = 298.150000 K
                        Numeral density               =   0.000000 Ang**-3
                        Hydrogen bond acidity         =   0.000000
                        Hydrogen bond basicity        =   0.000000
                        Surface tension at interface  =   0.000000 (cal/mol)*Ang**-2
                        Carbon aromaticity            =   0.000000
                        Electronegative halogenicity  =   0.000000
 ------------------------------------------------------------------------------
 GePol: Number of generator spheres                  =      52
 GePol: Total number of spheres                      =      52
 GePol: Number of exposed spheres                    =      52 (100.00%)
 GePol: Number of points                             =    3523
 GePol: Average weight of points                     =       0.13
 GePol: Minimum weight of points                     =   0.48D-09
 GePol: Maximum weight of points                     =    0.20577
 GePol: Number of points with low weight             =     209
 GePol: Fraction of low-weight points (<1% of avg)   =       5.93%
 GePol: Cavity surface area                          =    449.748 Ang**2
 GePol: Cavity volume                                =    532.667 Ang**3
 Leave Link  301 at Wed Feb  5 13:10:15 2025, MaxMem=  5368709120 cpu:         0.7
 (Enter /home/k0335/k033513/app/g09/l302.exe)
 NPDir=0 NMtPBC=     1 NCelOv=     1 NCel=       1 NClECP=     1 NCelD=      1
         NCelK=      1 NCelE2=     1 NClLst=     1 CellRange=     0.0.
 One-electron integrals computed using PRISM.
 NBasis=   580 RedAO= T EigKep=  7.72D-04  NBF=   580
 NBsUse=   580 1.00D-06 EigRej= -1.00D+00 NBFU=   580
 Precomputing XC quadrature grid using
 IXCGrd= 4 IRadAn=           0 IRanWt=          -1 IRanGd=           0 AccXCQ= 0.00D+00.
 Generated NRdTot=       0 NPtTot=           0 NUsed=           0 NTot=          32
 NSgBfM=   559   559   559   559   560 MxSgAt=    52 MxSgA2=    52.
 Leave Link  302 at Wed Feb  5 13:10:16 2025, MaxMem=  5368709120 cpu:        12.0
 (Enter /home/k0335/k033513/app/g09/l303.exe)
 DipDrv:  MaxL=1.
 Leave Link  303 at Wed Feb  5 13:10:16 2025, MaxMem=  5368709120 cpu:         0.9
 (Enter /home/k0335/k033513/app/g09/l401.exe)
 ExpMin= 1.61D-01 ExpMax= 7.00D+03 ExpMxC= 1.05D+03 IAcc=1 IRadAn=         1 AccDes= 0.00D+00
 Harris functional with IExCor=20419 and IRadAn=       1 diagonalized for initial guess.
 HarFok:  IExCor=20419 AccDes= 0.00D+00 IRadAn=         1 IDoV= 1 UseB2=F ITyADJ=14
 ICtDFT=  3500011 ScaDFX=  1.000000  1.000000  1.000000  1.000000
 FoFCou: FMM=F IPFlag=           0 FMFlag=      100000 FMFlg1=           0
         NFxFlg=           0 DoJE=T BraDBF=F KetDBF=T FulRan=T
         wScrn=  0.000000 ICntrl=     500 IOpCl=  0 I1Cent=   200000004 NGrid=           0
         NMat0=    1 NMatS0=      1 NMatT0=    0 NMatD0=    1 NMtDS0=    0 NMtDT0=    0
 Symmetry not used in FoFCou.
 Harris En= -1963.94098252826    
 JPrj=0 DoOrth=F DoCkMO=F.
 Leave Link  401 at Wed Feb  5 13:10:17 2025, MaxMem=  5368709120 cpu:        13.9
 (Enter /home/k0335/k033513/app/g09/l502.exe)
 Closed shell SCF:
 Using DIIS extrapolation, IDIIS=  1040.
 Two-electron integral symmetry not used.
 IVT=     1045254 IEndB=     1045254 NGot=  5368709120 MDV=  5368017487
 LenX=  5368017487 LenY=  5367680507
 Requested convergence on RMS density matrix=1.00D-08 within 128 cycles.
 Requested convergence on MAX density matrix=1.00D-06.
 Requested convergence on             energy=1.00D-06.
 No special actions if energy rises.
 Fock matrices will be formed incrementally for  20 cycles.

 Cycle   1  Pass 1  IDiag  1:
 FoFJK:  IHMeth= 1 ICntrl=       0 DoSepK=T KAlg= 0 I1Cent=   0 FoldK=F
 IRaf=         1 NMat=   1 IRICut=       1 DoRegI=T DoRafI=F ISym2E= 0.
 FoFCou: FMM=F IPFlag=           0 FMFlag=      100000 FMFlg1=           0
         NFxFlg=           0 DoJE=T BraDBF=F KetDBF=F FulRan=T
         wScrn=  0.000000 ICntrl=     500 IOpCl=  0 I1Cent=           0 NGrid=           0
         NMat0=    1 NMatS0=      1 NMatT0=    0 NMatD0=    1 NMtDS0=    0 NMtDT0=    0
 Symmetry not used in FoFCou.
 Inv3:  Mode=1 IEnd=    37234587.
 Iteration    1 A*A^-1 deviation from unit magnitude is 8.55D-15 for    572.
 Iteration    1 A*A^-1 deviation from orthogonality  is 4.51D-15 for   3273    428.
 Iteration    1 A^-1*A deviation from unit magnitude is 9.33D-15 for    562.
 Iteration    1 A^-1*A deviation from orthogonality  is 2.51D-15 for   3270    433.
 E= -2029.20952558492    
 DIIS: error= 4.77D-02 at cycle   1 NSaved=   1.
 NSaved= 1 IEnMin= 1 EnMin= -2029.20952558492     IErMin= 1 ErrMin= 4.77D-02
 ErrMax= 4.77D-02  0.00D+00 EMaxC= 1.00D-01 BMatC= 1.67D+00 BMatP= 1.67D+00
 IDIUse=3 WtCom= 5.23D-01 WtEn= 4.77D-01
 Coeff-Com:  0.100D+01
 Coeff-En:   0.100D+01
 Coeff:      0.100D+01
 Gap=     0.479 Goal=   None    Shift=    0.000
 GapD=    0.479 DampG=2.000 DampE=0.500 DampFc=1.0000 IDamp=-1.
 RMSDP=2.67D-03 MaxDP=1.56D-01              OVMax= 1.24D-01

 Cycle   2  Pass 1  IDiag  1:
 RMSU=  2.66D-03    CP:  9.90D-01
 E= -2029.44877957657     Delta-E=       -0.239253991655 Rises=F Damp=F
 DIIS: error= 1.75D-02 at cycle   2 NSaved=   2.
 NSaved= 2 IEnMin= 2 EnMin= -2029.44877957657     IErMin= 2 ErrMin= 1.75D-02
 ErrMax= 1.75D-02  0.00D+00 EMaxC= 1.00D-01 BMatC= 6.31D-01 BMatP= 1.67D+00
 IDIUse=3 WtCom= 8.25D-01 WtEn= 1.75D-01
 Coeff-Com:  0.358D+00 0.642D+00
 Coeff-En:   0.349D+00 0.651D+00
 Coeff:      0.356D+00 0.644D+00
 Gap=     0.274 Goal=   None    Shift=    0.000
 RMSDP=1.25D-03 MaxDP=8.61D-02 DE=-2.39D-01 OVMax= 8.57D-02

 Cycle   3  Pass 1  IDiag  1:
 RMSU=  7.55D-04    CP:  9.98D-01  6.28D-01
 E= -2029.76368013768     Delta-E=       -0.314900561109 Rises=F Damp=F
 DIIS: error= 7.44D-03 at cycle   3 NSaved=   3.
 NSaved= 3 IEnMin= 3 EnMin= -2029.76368013768     IErMin= 3 ErrMin= 7.44D-03
 ErrMax= 7.44D-03  0.00D+00 EMaxC= 1.00D-01 BMatC= 1.11D-01 BMatP= 6.31D-01
 IDIUse=3 WtCom= 9.26D-01 WtEn= 7.44D-02
 Coeff-Com:  0.691D-01 0.311D+00 0.620D+00
 Coeff-En:   0.000D+00 0.106D+00 0.894D+00
 Coeff:      0.640D-01 0.296D+00 0.640D+00
 Gap=     0.293 Goal=   None    Shift=    0.000
 RMSDP=5.62D-04 MaxDP=4.04D-02 DE=-3.15D-01 OVMax= 6.64D-02

 Cycle   4  Pass 1  IDiag  1:
 RMSU=  3.03D-04    CP:  9.93D-01  7.22D-01  4.78D-01
 E= -2029.82901377020     Delta-E=       -0.065333632522 Rises=F Damp=F
 DIIS: error= 3.76D-03 at cycle   4 NSaved=   4.
 NSaved= 4 IEnMin= 4 EnMin= -2029.82901377020     IErMin= 4 ErrMin= 3.76D-03
 ErrMax= 3.76D-03  0.00D+00 EMaxC= 1.00D-01 BMatC= 1.13D-02 BMatP= 1.11D-01
 IDIUse=3 WtCom= 9.62D-01 WtEn= 3.76D-02
 Coeff-Com:  0.613D-02 0.949D-01 0.328D+00 0.571D+00
 Coeff-En:   0.000D+00 0.000D+00 0.405D-01 0.959D+00
 Coeff:      0.590D-02 0.914D-01 0.317D+00 0.586D+00
 Gap=     0.274 Goal=   None    Shift=    0.000
 RMSDP=1.68D-04 MaxDP=1.58D-02 DE=-6.53D-02 OVMax= 2.47D-02

 Cycle   5  Pass 1  IDiag  1:
 RMSU=  7.49D-05    CP:  9.93D-01  7.21D-01  6.17D-01  6.46D-01
 E= -2029.83692122668     Delta-E=       -0.007907456471 Rises=F Damp=F
 DIIS: error= 8.71D-04 at cycle   5 NSaved=   5.
 NSaved= 5 IEnMin= 5 EnMin= -2029.83692122668     IErMin= 5 ErrMin= 8.71D-04
 ErrMax= 8.71D-04  0.00D+00 EMaxC= 1.00D-01 BMatC= 6.44D-04 BMatP= 1.13D-02
 IDIUse=3 WtCom= 9.91D-01 WtEn= 8.71D-03
 Coeff-Com:  0.471D-03 0.383D-01 0.153D+00 0.327D+00 0.481D+00
 Coeff-En:   0.000D+00 0.000D+00 0.000D+00 0.000D+00 0.100D+01
 Coeff:      0.467D-03 0.379D-01 0.152D+00 0.324D+00 0.486D+00
 Gap=     0.273 Goal=   None    Shift=    0.000
 RMSDP=3.68D-05 MaxDP=3.88D-03 DE=-7.91D-03 OVMax= 7.27D-03

 Cycle   6  Pass 1  IDiag  1:
 RMSU=  2.28D-05    CP:  9.93D-01  7.22D-01  6.15D-01  6.65D-01  6.29D-01
 E= -2029.83738646788     Delta-E=       -0.000465241201 Rises=F Damp=F
 DIIS: error= 1.94D-04 at cycle   6 NSaved=   6.
 NSaved= 6 IEnMin= 6 EnMin= -2029.83738646788     IErMin= 6 ErrMin= 1.94D-04
 ErrMax= 1.94D-04  0.00D+00 EMaxC= 1.00D-01 BMatC= 2.88D-05 BMatP= 6.44D-04
 IDIUse=3 WtCom= 9.98D-01 WtEn= 1.94D-03
 Coeff-Com: -0.574D-03 0.389D-02 0.225D-01 0.587D-01 0.200D+00 0.716D+00
 Coeff-En:   0.000D+00 0.000D+00 0.000D+00 0.000D+00 0.000D+00 0.100D+01
 Coeff:     -0.573D-03 0.389D-02 0.225D-01 0.586D-01 0.199D+00 0.716D+00
 Gap=     0.274 Goal=   None    Shift=    0.000
 RMSDP=1.16D-05 MaxDP=7.90D-04 DE=-4.65D-04 OVMax= 1.10D-03

 Cycle   7  Pass 1  IDiag  1:
 RMSU=  7.49D-06    CP:  9.93D-01  7.23D-01  6.18D-01  6.80D-01  7.17D-01
                    CP:  8.90D-01
 E= -2029.83740786039     Delta-E=       -0.000021392517 Rises=F Damp=F
 DIIS: error= 3.73D-05 at cycle   7 NSaved=   7.
 NSaved= 7 IEnMin= 7 EnMin= -2029.83740786039     IErMin= 7 ErrMin= 3.73D-05
 ErrMax= 3.73D-05  0.00D+00 EMaxC= 1.00D-01 BMatC= 3.99D-06 BMatP= 2.88D-05
 IDIUse=1 WtCom= 1.00D+00 WtEn= 0.00D+00
 Coeff-Com: -0.233D-03-0.367D-02-0.110D-01-0.192D-01 0.297D-01 0.323D+00
 Coeff-Com:  0.681D+00
 Coeff:     -0.233D-03-0.367D-02-0.110D-01-0.192D-01 0.297D-01 0.323D+00
 Coeff:      0.681D+00
 Gap=     0.274 Goal=   None    Shift=    0.000
 RMSDP=3.67D-06 MaxDP=2.00D-04 DE=-2.14D-05 OVMax= 4.25D-04

 Cycle   8  Pass 1  IDiag  1:
 RMSU=  2.32D-06    CP:  9.93D-01  7.23D-01  6.18D-01  6.81D-01  7.35D-01
                    CP:  9.86D-01  8.71D-01
 E= -2029.83741127338     Delta-E=       -0.000003412990 Rises=F Damp=F
 DIIS: error= 1.19D-05 at cycle   8 NSaved=   8.
 NSaved= 8 IEnMin= 8 EnMin= -2029.83741127338     IErMin= 8 ErrMin= 1.19D-05
 ErrMax= 1.19D-05  0.00D+00 EMaxC= 1.00D-01 BMatC= 2.53D-07 BMatP= 3.99D-06
 IDIUse=1 WtCom= 1.00D+00 WtEn= 0.00D+00
 Coeff-Com: -0.465D-04-0.170D-02-0.576D-02-0.119D-01-0.357D-03 0.711D-01
 Coeff-Com:  0.265D+00 0.684D+00
 Coeff:     -0.465D-04-0.170D-02-0.576D-02-0.119D-01-0.357D-03 0.711D-01
 Coeff:      0.265D+00 0.684D+00
 Gap=     0.274 Goal=   None    Shift=    0.000
 RMSDP=1.13D-06 MaxDP=5.56D-05 DE=-3.41D-06 OVMax= 1.08D-04

 Cycle   9  Pass 1  IDiag  1:
 RMSU=  8.68D-07    CP:  9.93D-01  7.23D-01  6.19D-01  6.81D-01  7.41D-01
                    CP:  9.99D-01  9.23D-01  9.85D-01
 E= -2029.83741150583     Delta-E=       -0.000000232446 Rises=F Damp=F
 DIIS: error= 5.67D-06 at cycle   9 NSaved=   9.
 NSaved= 9 IEnMin= 9 EnMin= -2029.83741150583     IErMin= 9 ErrMin= 5.67D-06
 ErrMax= 5.67D-06  0.00D+00 EMaxC= 1.00D-01 BMatC= 3.31D-08 BMatP= 2.53D-07
 IDIUse=1 WtCom= 1.00D+00 WtEn= 0.00D+00
 Coeff-Com:  0.122D-04-0.111D-03-0.519D-03-0.183D-02-0.368D-02-0.262D-01
 Coeff-Com: -0.387D-02 0.244D+00 0.792D+00
 Coeff:      0.122D-04-0.111D-03-0.519D-03-0.183D-02-0.368D-02-0.262D-01
 Coeff:     -0.387D-02 0.244D+00 0.792D+00
 Gap=     0.274 Goal=   None    Shift=    0.000
 RMSDP=5.74D-07 MaxDP=3.53D-05 DE=-2.32D-07 OVMax= 6.78D-05

 Cycle  10  Pass 1  IDiag  1:
 RMSU=  2.91D-07    CP:  9.93D-01  7.23D-01  6.19D-01  6.81D-01  7.44D-01
                    CP:  1.01D+00  9.55D-01  1.10D+00  9.53D-01
 E= -2029.83741154693     Delta-E=       -0.000000041103 Rises=F Damp=F
 DIIS: error= 1.26D-06 at cycle  10 NSaved=  10.
 NSaved=10 IEnMin=10 EnMin= -2029.83741154693     IErMin=10 ErrMin= 1.26D-06
 ErrMax= 1.26D-06  0.00D+00 EMaxC= 1.00D-01 BMatC= 3.13D-09 BMatP= 3.31D-08
 IDIUse=1 WtCom= 1.00D+00 WtEn= 0.00D+00
 Coeff-Com:  0.104D-04 0.169D-03 0.518D-03 0.763D-03-0.620D-03-0.173D-01
 Coeff-Com: -0.311D-01-0.101D-01 0.239D+00 0.819D+00
 Coeff:      0.104D-04 0.169D-03 0.518D-03 0.763D-03-0.620D-03-0.173D-01
 Coeff:     -0.311D-01-0.101D-01 0.239D+00 0.819D+00
 Gap=     0.274 Goal=   None    Shift=    0.000
 RMSDP=2.01D-07 MaxDP=1.80D-05 DE=-4.11D-08 OVMax= 3.09D-05

 Cycle  11  Pass 1  IDiag  1:
 RMSU=  9.69D-08    CP:  9.93D-01  7.23D-01  6.19D-01  6.81D-01  7.46D-01
                    CP:  1.01D+00  9.64D-01  1.14D+00  1.08D+00  1.01D+00
 E= -2029.83741155066     Delta-E=       -0.000000003725 Rises=F Damp=F
 DIIS: error= 1.01D-06 at cycle  11 NSaved=  11.
 NSaved=11 IEnMin=11 EnMin= -2029.83741155066     IErMin=11 ErrMin= 1.01D-06
 ErrMax= 1.01D-06  0.00D+00 EMaxC= 1.00D-01 BMatC= 8.19D-10 BMatP= 3.13D-09
 IDIUse=1 WtCom= 1.00D+00 WtEn= 0.00D+00
 Coeff-Com:  0.446D-05 0.101D-03 0.326D-03 0.569D-03 0.158D-03-0.691D-02
 Coeff-Com: -0.157D-01-0.263D-01 0.617D-01 0.436D+00 0.550D+00
 Coeff:      0.446D-05 0.101D-03 0.326D-03 0.569D-03 0.158D-03-0.691D-02
 Coeff:     -0.157D-01-0.263D-01 0.617D-01 0.436D+00 0.550D+00
 Gap=     0.274 Goal=   None    Shift=    0.000
 RMSDP=5.17D-08 MaxDP=4.89D-06 DE=-3.73D-09 OVMax= 9.95D-06

 Cycle  12  Pass 1  IDiag  1:
 RMSU=  3.90D-08    CP:  9.93D-01  7.23D-01  6.19D-01  6.81D-01  7.46D-01
                    CP:  1.01D+00  9.65D-01  1.14D+00  1.09D+00  1.08D+00
                    CP:  8.07D-01
 E= -2029.83741155129     Delta-E=       -0.000000000636 Rises=F Damp=F
 DIIS: error= 3.26D-07 at cycle  12 NSaved=  12.
 NSaved=12 IEnMin=12 EnMin= -2029.83741155129     IErMin=12 ErrMin= 3.26D-07
 ErrMax= 3.26D-07  0.00D+00 EMaxC= 1.00D-01 BMatC= 8.78D-11 BMatP= 8.19D-10
 IDIUse=1 WtCom= 1.00D+00 WtEn= 0.00D+00
 Coeff-Com: -0.251D-06 0.106D-04 0.392D-04 0.936D-04 0.275D-03 0.495D-03
 Coeff-Com: -0.321D-03-0.935D-02-0.219D-01 0.952D-02 0.235D+00 0.786D+00
 Coeff:     -0.251D-06 0.106D-04 0.392D-04 0.936D-04 0.275D-03 0.495D-03
 Coeff:     -0.321D-03-0.935D-02-0.219D-01 0.952D-02 0.235D+00 0.786D+00
 Gap=     0.274 Goal=   None    Shift=    0.000
 RMSDP=2.45D-08 MaxDP=2.20D-06 DE=-6.36D-10 OVMax= 3.92D-06

 Cycle  13  Pass 1  IDiag  1:
 RMSU=  1.19D-08    CP:  9.93D-01  7.23D-01  6.19D-01  6.81D-01  7.46D-01
                    CP:  1.01D+00  9.66D-01  1.15D+00  1.10D+00  1.12D+00
                    CP:  9.43D-01  9.21D-01
 E= -2029.83741155147     Delta-E=       -0.000000000177 Rises=F Damp=F
 DIIS: error= 1.11D-07 at cycle  13 NSaved=  13.
 NSaved=13 IEnMin=13 EnMin= -2029.83741155147     IErMin=13 ErrMin= 1.11D-07
 ErrMax= 1.11D-07  0.00D+00 EMaxC= 1.00D-01 BMatC= 1.16D-11 BMatP= 8.78D-11
 IDIUse=1 WtCom= 1.00D+00 WtEn= 0.00D+00
 Coeff-Com: -0.555D-06-0.470D-05-0.127D-04-0.122D-04 0.131D-03 0.889D-03
 Coeff-Com:  0.140D-02-0.196D-02-0.168D-01-0.379D-01 0.626D-01 0.380D+00
 Coeff-Com:  0.612D+00
 Coeff:     -0.555D-06-0.470D-05-0.127D-04-0.122D-04 0.131D-03 0.889D-03
 Coeff:      0.140D-02-0.196D-02-0.168D-01-0.379D-01 0.626D-01 0.380D+00
 Coeff:      0.612D+00
 Gap=     0.274 Goal=   None    Shift=    0.000
 RMSDP=7.34D-09 MaxDP=4.51D-07 DE=-1.77D-10 OVMax= 9.56D-07

 Error on total polarization charges =  0.00407
 SCF Done:  E(RCAM-B3LYP) =  -2029.83741155     A.U. after   13 cycles
            NFock= 13  Conv=0.73D-08     -V/T= 2.0077
 KE= 2.014268163865D+03 PE=-1.309246972507D+04 EE= 4.892503962210D+03
 Leave Link  502 at Wed Feb  5 13:11:09 2025, MaxMem=  5368709120 cpu:      1183.1
 (Enter /home/k0335/k033513/app/g09/l601.exe)
 Copying SCF densities to generalized density rwf, IOpCl= 0 IROHF=0.

 **********************************************************************

            Population analysis using the SCF density.

 **********************************************************************

 Alpha  occ. eigenvalues --  -24.84478 -24.83215 -24.82964 -24.82570 -24.82379
 Alpha  occ. eigenvalues --  -24.82314 -24.81718 -24.81692 -24.81157 -24.80995
 Alpha  occ. eigenvalues --  -19.31834 -19.29856 -19.25281 -19.21666 -14.44461
 Alpha  occ. eigenvalues --  -14.39867 -10.52814 -10.49089 -10.49086 -10.47295
 Alpha  occ. eigenvalues --  -10.46797 -10.44253 -10.42694 -10.39348 -10.29561
 Alpha  occ. eigenvalues --  -10.29149 -10.28717 -10.28398 -10.24872 -10.24719
 Alpha  occ. eigenvalues --  -10.24538 -10.24025  -1.40855  -1.38576  -1.38041
 Alpha  occ. eigenvalues --   -1.36842  -1.34713  -1.33548  -1.33025  -1.32108
 Alpha  occ. eigenvalues --   -1.30835  -1.30050  -1.21877  -1.20014  -1.13658
 Alpha  occ. eigenvalues --   -1.12107  -1.01788  -0.99116  -0.97492  -0.90637
 Alpha  occ. eigenvalues --   -0.87976  -0.86705  -0.85317  -0.82690  -0.79830
 Alpha  occ. eigenvalues --   -0.77905  -0.76578  -0.76150  -0.75923  -0.73551
 Alpha  occ. eigenvalues --   -0.72447  -0.70542  -0.70364  -0.69335  -0.68170
 Alpha  occ. eigenvalues --   -0.67962  -0.67231  -0.66502  -0.66280  -0.65432
 Alpha  occ. eigenvalues --   -0.64993  -0.64176  -0.63578  -0.62569  -0.61623
 Alpha  occ. eigenvalues --   -0.61300  -0.58428  -0.57733  -0.56599  -0.56376
 Alpha  occ. eigenvalues --   -0.55895  -0.55589  -0.55155  -0.54908  -0.54500
 Alpha  occ. eigenvalues --   -0.53966  -0.53623  -0.53411  -0.53000  -0.52775
 Alpha  occ. eigenvalues --   -0.52689  -0.52151  -0.51943  -0.51745  -0.51503
 Alpha  occ. eigenvalues --   -0.51127  -0.50871  -0.50729  -0.49933  -0.49436
 Alpha  occ. eigenvalues --   -0.48849  -0.48693  -0.48599  -0.47878  -0.47799
 Alpha  occ. eigenvalues --   -0.46801  -0.46452  -0.46254  -0.45529  -0.44975
 Alpha  occ. eigenvalues --   -0.44707  -0.44260  -0.43696  -0.43354  -0.42543
 Alpha  occ. eigenvalues --   -0.42470  -0.41276  -0.40928  -0.40399  -0.39996
 Alpha  occ. eigenvalues --   -0.38071  -0.37482  -0.37398  -0.34583  -0.32573
 Alpha  occ. eigenvalues --   -0.27447
 Alpha virt. eigenvalues --   -0.00071   0.02369   0.04245   0.07937   0.11326
 Alpha virt. eigenvalues --    0.11556   0.12121   0.13562   0.14292   0.14724
 Alpha virt. eigenvalues --    0.14891   0.15530   0.16856   0.17650   0.18860
 Alpha virt. eigenvalues --    0.19062   0.19657   0.20221   0.20819   0.21321
 Alpha virt. eigenvalues --    0.21608   0.22235   0.22585   0.23136   0.23740
 Alpha virt. eigenvalues --    0.24209   0.24380   0.24887   0.25477   0.25670
 Alpha virt. eigenvalues --    0.25974   0.26301   0.27357   0.27400   0.28132
 Alpha virt. eigenvalues --    0.28735   0.28995   0.29328   0.29467   0.30866
 Alpha virt. eigenvalues --    0.30993   0.31767   0.32063   0.32931   0.33302
 Alpha virt. eigenvalues --    0.34059   0.34575   0.36089   0.36441   0.37272
 Alpha virt. eigenvalues --    0.38519   0.40288   0.41430   0.45094   0.48617
 Alpha virt. eigenvalues --    0.50481   0.51494   0.51706   0.53074   0.53848
 Alpha virt. eigenvalues --    0.55372   0.55553   0.56164   0.57014   0.57669
 Alpha virt. eigenvalues --    0.58461   0.58786   0.59301   0.59887   0.60683
 Alpha virt. eigenvalues --    0.61378   0.62172   0.62618   0.63482   0.64882
 Alpha virt. eigenvalues --    0.65902   0.66231   0.66960   0.67876   0.68057
 Alpha virt. eigenvalues --    0.68759   0.69549   0.70070   0.70917   0.71804
 Alpha virt. eigenvalues --    0.72844   0.73758   0.74436   0.74539   0.74647
 Alpha virt. eigenvalues --    0.75572   0.76254   0.78040   0.78644   0.79630
 Alpha virt. eigenvalues --    0.80594   0.81694   0.82436   0.82565   0.83630
 Alpha virt. eigenvalues --    0.84892   0.87136   0.87589   0.88153   0.88815
 Alpha virt. eigenvalues --    0.89402   0.90085   0.91496   0.91987   0.92455
 Alpha virt. eigenvalues --    0.93334   0.93772   0.94130   0.94833   0.95056
 Alpha virt. eigenvalues --    0.95992   0.96346   0.96508   0.96977   0.97504
 Alpha virt. eigenvalues --    0.97856   0.98596   0.99077   0.99721   1.01694
 Alpha virt. eigenvalues --    1.02019   1.02541   1.02990   1.03754   1.04200
 Alpha virt. eigenvalues --    1.04946   1.05810   1.06298   1.06924   1.07329
 Alpha virt. eigenvalues --    1.08626   1.09323   1.10019   1.11059   1.11676
 Alpha virt. eigenvalues --    1.13045   1.13210   1.14044   1.14300   1.15823
 Alpha virt. eigenvalues --    1.16908   1.17789   1.18782   1.19176   1.20931
 Alpha virt. eigenvalues --    1.22639   1.23162   1.23491   1.23731   1.26690
 Alpha virt. eigenvalues --    1.27081   1.28124   1.28984   1.30220   1.31048
 Alpha virt. eigenvalues --    1.31400   1.32219   1.33976   1.34330   1.35090
 Alpha virt. eigenvalues --    1.35686   1.36213   1.37241   1.37659   1.38402
 Alpha virt. eigenvalues --    1.40065   1.40863   1.41191   1.42693   1.43422
 Alpha virt. eigenvalues --    1.43755   1.44364   1.44916   1.45601   1.46043
 Alpha virt. eigenvalues --    1.46744   1.47476   1.47655   1.48126   1.48784
 Alpha virt. eigenvalues --    1.50069   1.50348   1.51318   1.52310   1.52702
 Alpha virt. eigenvalues --    1.54593   1.55128   1.56106   1.57568   1.58281
 Alpha virt. eigenvalues --    1.58357   1.59961   1.60826   1.61643   1.62126
 Alpha virt. eigenvalues --    1.62814   1.63494   1.64221   1.64818   1.65348
 Alpha virt. eigenvalues --    1.66517   1.67502   1.69155   1.70343   1.70564
 Alpha virt. eigenvalues --    1.72089   1.72346   1.73494   1.74099   1.75415
 Alpha virt. eigenvalues --    1.76335   1.77459   1.78316   1.79087   1.79667
 Alpha virt. eigenvalues --    1.80678   1.81139   1.81677   1.82496   1.82793
 Alpha virt. eigenvalues --    1.83474   1.84880   1.85808   1.86353   1.86772
 Alpha virt. eigenvalues --    1.87532   1.87798   1.88419   1.89053   1.89681
 Alpha virt. eigenvalues --    1.90475   1.90731   1.91359   1.92204   1.92822
 Alpha virt. eigenvalues --    1.93662   1.93877   1.94744   1.94936   1.96473
 Alpha virt. eigenvalues --    1.96886   1.97365   1.97666   1.98178   1.98716
 Alpha virt. eigenvalues --    1.99089   1.99452   2.00257   2.00604   2.01287
 Alpha virt. eigenvalues --    2.02536   2.03463   2.03846   2.04568   2.05652
 Alpha virt. eigenvalues --    2.05982   2.06300   2.06853   2.07263   2.07808
 Alpha virt. eigenvalues --    2.09203   2.09638   2.09888   2.11171   2.11404
 Alpha virt. eigenvalues --    2.11757   2.11928   2.12146   2.12779   2.12896
 Alpha virt. eigenvalues --    2.13706   2.13954   2.15143   2.15616   2.16449
 Alpha virt. eigenvalues --    2.16819   2.17446   2.17876   2.19652   2.19914
 Alpha virt. eigenvalues --    2.20134   2.20447   2.20611   2.20990   2.22198
 Alpha virt. eigenvalues --    2.22931   2.23255   2.23503   2.24500   2.25554
 Alpha virt. eigenvalues --    2.26494   2.27002   2.27806   2.28789   2.29458
 Alpha virt. eigenvalues --    2.29877   2.31753   2.32627   2.33504   2.34489
 Alpha virt. eigenvalues --    2.35108   2.35735   2.36658   2.37883   2.38712
 Alpha virt. eigenvalues --    2.39906   2.40063   2.41161   2.41595   2.41928
 Alpha virt. eigenvalues --    2.42805   2.43064   2.44847   2.45259   2.45741
 Alpha virt. eigenvalues --    2.46290   2.47483   2.48603   2.48649   2.49675
 Alpha virt. eigenvalues --    2.50573   2.51639   2.52485   2.53609   2.54623
 Alpha virt. eigenvalues --    2.56579   2.58722   2.58782   2.59934   2.61072
 Alpha virt. eigenvalues --    2.62288   2.62489   2.64335   2.65638   2.66107
 Alpha virt. eigenvalues --    2.67889   2.68539   2.68889   2.70089   2.70759
 Alpha virt. eigenvalues --    2.70973   2.72810   2.73337   2.73767   2.75689
 Alpha virt. eigenvalues --    2.76252   2.77218   2.78045   2.79606   2.80288
 Alpha virt. eigenvalues --    2.80502   2.82337   2.82666   2.82911   2.83853
 Alpha virt. eigenvalues --    2.84673   2.84964   2.85471   2.86240   2.87034
 Alpha virt. eigenvalues --    2.88698   2.88927   2.91222   2.91544   2.92246
 Alpha virt. eigenvalues --    2.93444   2.94456   2.94695   2.95789   2.96516
 Alpha virt. eigenvalues --    2.96958   2.97190   2.97992   2.99495   2.99711
 Alpha virt. eigenvalues --    3.00537   3.01952   3.02249   3.02683   3.03716
 Alpha virt. eigenvalues --    3.06101   3.10058   3.10571   3.10962   3.11687
 Alpha virt. eigenvalues --    3.12006   3.12471   3.15874   3.17020   3.20407
 Alpha virt. eigenvalues --    3.23923   3.24824   3.25775   3.27649   3.28281
 Alpha virt. eigenvalues --    3.28451   3.31391   3.32063   3.33392   3.34746
 Alpha virt. eigenvalues --    3.36155   3.38147   3.39671   3.42097   3.44274
 Alpha virt. eigenvalues --    3.47516   3.48435   3.51057   3.51607   3.54282
 Alpha virt. eigenvalues --    3.56584   3.57352   3.57715   3.60323   3.61024
 Alpha virt. eigenvalues --    3.61655   3.63710   3.96324   4.11711   4.18064
 Alpha virt. eigenvalues --    4.19402   4.25719   4.29416   4.37269   4.40519
 Alpha virt. eigenvalues --    4.44511   4.46474   4.48116   4.51774   4.56857
 Alpha virt. eigenvalues --    4.58016   4.63119   4.67745   4.74388   4.77886
 Alpha virt. eigenvalues --    4.79823   4.82833   4.85103   4.89195   5.00374
 Alpha virt. eigenvalues --    5.03047   5.25902   5.34456   5.41396   5.66802
 Alpha virt. eigenvalues --    5.76657   6.43388   6.71900   7.06896
          Condensed to atoms (all electrons):
 Mulliken charges:
               1
     1  F   -0.247320
     2  C    0.749139
     3  F   -0.237588
     4  C    0.551103
     5  F   -0.246947
     6  F   -0.256737
     7  C    0.130295
     8  F   -0.266897
     9  C    0.638046
    10  F   -0.267185
    11  C    0.516366
    12  O   -0.471107
    13  O   -0.439277
    14  F   -0.275713
    15  C    0.491064
    16  F   -0.278689
    17  C    0.577478
    18  F   -0.280980
    19  C    0.502081
    20  N   -0.517851
    21  C   -0.044476
    22  C   -0.064357
    23  N   -0.450427
    24  C    0.058929
    25  C   -0.310764
    26  C   -0.320108
    27  C    0.091376
    28  C   -0.321308
    29  C   -0.324916
    30  O   -0.502990
    31  F   -0.267668
    32  O   -0.491424
    33  H    0.359915
    34  H    0.289335
    35  H    0.134175
    36  H    0.118435
    37  H    0.103016
    38  H    0.123853
    39  H    0.102532
    40  H    0.101567
    41  H    0.100066
    42  H    0.101997
    43  H    0.108393
    44  H    0.105977
    45  H    0.106398
    46  H    0.080312
    47  H    0.106445
    48  H    0.108903
    49  H    0.101983
    50  H    0.106788
    51  H    0.113709
    52  H    0.105054
 Sum of Mulliken charges =   0.00000
 Mulliken charges with hydrogens summed into heavy atoms:
               1
     1  F   -0.247320
     2  C    0.749139
     3  F   -0.237588
     4  C    0.551103
     5  F   -0.246947
     6  F   -0.256737
     7  C    0.130295
     8  F   -0.266897
     9  C    0.638046
    10  F   -0.267185
    11  C    0.516366
    12  O   -0.111192
    13  O   -0.439277
    14  F   -0.275713
    15  C    0.491064
    16  F   -0.278689
    17  C    0.577478
    18  F   -0.280980
    19  C    0.502081
    20  N   -0.228515
    21  C    0.208135
    22  C    0.162512
    23  N   -0.450427
    24  C    0.161461
    25  C   -0.007135
    26  C    0.000660
    27  C    0.171688
    28  C   -0.003977
    29  C    0.000636
    30  O   -0.502990
    31  F   -0.267668
    32  O   -0.491424
 Electronic spatial extent (au):  <R**2>=          17108.1902
 Charge=              0.0000 electrons
 Dipole moment (field-independent basis, Debye):
    X=             -2.1044    Y=             -2.3496    Z=              1.3847  Tot=              3.4447
 Quadrupole moment (field-independent basis, Debye-Ang):
   XX=           -153.6792   YY=           -178.9759   ZZ=           -191.9791
   XY=             -9.3576   XZ=              4.2121   YZ=              0.3965
 Traceless Quadrupole moment (field-independent basis, Debye-Ang):
   XX=             21.1989   YY=             -4.0978   ZZ=            -17.1010
   XY=             -9.3576   XZ=              4.2121   YZ=              0.3965
 Octapole moment (field-independent basis, Debye-Ang**2):
  XXX=           -511.5432  YYY=              6.7122  ZZZ=           -128.2804  XYY=           -239.2636
  XXY=            -74.3613  XXZ=            -38.7163  XZZ=           -287.7029  YZZ=              3.9123
  YYZ=            -54.1753  XYZ=             10.2906
 Hexadecapole moment (field-independent basis, Debye-Ang**3):
 XXXX=         -13590.0743 YYYY=          -2150.6132 ZZZZ=          -1699.3386 XXXY=           -250.4162
 XXXZ=           -557.3652 YYYX=            276.5359 YYYZ=            166.5983 ZZZX=           -460.2776
 ZZZY=            170.5295 XXYY=          -2954.6372 XXZZ=          -3210.1437 YYZZ=           -639.1125
 XXYZ=            126.9529 YYXZ=           -171.3358 ZZXY=            102.0347
 N-N= 4.155860187447D+03 E-N=-1.309246971434D+04  KE= 2.014268163865D+03
 No NMR shielding tensors so no spin-rotation constants.
 Leave Link  601 at Wed Feb  5 13:11:10 2025, MaxMem=  5368709120 cpu:         4.8
 (Enter /home/k0335/k033513/app/g09/l701.exe)
 Compute integral first derivatives.
 ... and contract with generalized density number  0.
 D1PCM: PCM CHGder 1st derivatives, ID1Alg=3 FixD1E=F DoIter=F DoCFld=F I1PDM=0.
 GePol: Maximum number of non-zero 1st derivatives   =     205
 Leave Link  701 at Wed Feb  5 13:11:11 2025, MaxMem=  5368709120 cpu:        32.9
 (Enter /home/k0335/k033513/app/g09/l702.exe)
 L702 exits ... SP integral derivatives will be done elsewhere.
 Leave Link  702 at Wed Feb  5 13:11:11 2025, MaxMem=  5368709120 cpu:         0.2
 (Enter /home/k0335/k033513/app/g09/l703.exe)
 Compute integral first derivatives, UseDBF=F ICtDFT=           0.
 Integral derivatives from FoFJK, PRISM(SPDF).
 Calling FoFJK, ICntrl=      2127 FMM=F ISym2X=0 I1Cent= 0 IOpClX= 0 NMat=1 NMatS=1 NMatT=0.
 FoFJK:  IHMeth= 1 ICntrl=    2127 DoSepK=T KAlg= 0 I1Cent=   0 FoldK=F
 IRaf=         1 NMat=   1 IRICut=       1 DoRegI=T DoRafI=F ISym2E= 0.
 FoFCou: FMM=F IPFlag=           0 FMFlag=      100000 FMFlg1=         800
         NFxFlg=           0 DoJE=F BraDBF=F KetDBF=F FulRan=T
         wScrn=  0.000000 ICntrl=    2527 IOpCl=  0 I1Cent=           0 NGrid=           0
         NMat0=    1 NMatS0=      1 NMatT0=    0 NMatD0=    1 NMtDS0=    0 NMtDT0=    0
 Symmetry not used in FoFCou.
 Leave Link  703 at Wed Feb  5 13:11:25 2025, MaxMem=  5368709120 cpu:       315.0
 (Enter /home/k0335/k033513/app/g09/l716.exe)
 Dipole        =-8.27916214D-01-9.24387417D-01 5.44781145D-01
 -------------------------------------------------------------------
 Center     Atomic                   Forces (Hartrees/Bohr)
 Number     Number              X              Y              Z
 -------------------------------------------------------------------
      1        9           0.006096671    0.013318134   -0.008102688
      2        6          -0.027274172   -0.004173397    0.043850457
      3        9          -0.005467604   -0.015457110   -0.005695921
      4        6          -0.005066145   -0.024698491   -0.017631314
      5        9           0.002211509    0.002077272    0.008288992
      6        9           0.005556078    0.006214739    0.010160154
      7        6          -0.009868135    0.004471404   -0.011674071
      8        9           0.003490002    0.000714480    0.000976256
      9        6           0.010989180    0.026957061    0.015519977
     10        9           0.008483991   -0.001603567   -0.018541676
     11        6           0.045104404   -0.019907409   -0.032622740
     12        8          -0.010564187    0.012722419   -0.001118982
     13        8          -0.021645553    0.010233798    0.031498777
     14        9           0.004843173   -0.017218077   -0.011634583
     15        6          -0.006889006    0.022591024    0.038455850
     16        9          -0.009230243    0.003064109   -0.004675676
     17        6          -0.009312289    0.015145184   -0.001750494
     18        9           0.007867800   -0.011360403   -0.001349991
     19        6          -0.030741098   -0.029576964   -0.018536142
     20        7           0.014182751    0.024526495   -0.006843715
     21        6          -0.003388208   -0.001071666   -0.004672817
     22        6           0.000255204    0.001897533    0.007238783
     23        7           0.003236005   -0.005226452   -0.011367374
     24        6           0.000512956    0.008004626    0.005742938
     25        6          -0.000649114    0.003656707    0.002405903
     26        6           0.000054774    0.000099532   -0.002127342
     27        6          -0.001088441   -0.004714988    0.009012628
     28        6           0.002860183   -0.001441737   -0.005438949
     29        6           0.000525622    0.005578277   -0.002998201
     30        8           0.003985121    0.013268809    0.022627575
     31        9          -0.000548740   -0.020530230    0.008072191
     32        8           0.023974469   -0.011188245   -0.043738935
     33        1          -0.007026548    0.002497780    0.006082800
     34        1           0.004101912   -0.003620371   -0.002239569
     35        1           0.000663913    0.002582232    0.002145573
     36        1          -0.000475608    0.001171142   -0.001528261
     37        1          -0.000352833   -0.001160522    0.003345944
     38        1          -0.000525289    0.002484161    0.005115458
     39        1          -0.002162064   -0.008656819    0.000984352
     40        1          -0.000662218   -0.001420223   -0.000914017
     41        1          -0.001595147   -0.000721286   -0.002093372
     42        1           0.000340732   -0.001102950    0.000794473
     43        1          -0.000057376   -0.001365711    0.001072476
     44        1          -0.000278357    0.000037869    0.000498371
     45        1           0.000162137   -0.000489875    0.000503627
     46        1          -0.002544282   -0.001059764   -0.002157273
     47        1           0.001310402    0.003181883   -0.001549900
     48        1          -0.000425809    0.001540390   -0.001277731
     49        1           0.001607794    0.000555514    0.000888661
     50        1           0.002132036    0.001396530    0.001721642
     51        1          -0.000029795    0.000095155   -0.001976937
     52        1           0.003319442   -0.002318005   -0.002745184
 -------------------------------------------------------------------
 Cartesian Forces:  Max     0.045104404 RMS     0.011990977
 Leave Link  716 at Wed Feb  5 13:11:25 2025, MaxMem=  5368709120 cpu:         0.3
 (Enter /home/k0335/k033513/app/g09/l103.exe)

 GradGradGradGradGradGradGradGradGradGradGradGradGradGradGradGradGradGrad
 Berny optimization.
 FormGI is forming the generalized inverse of G from B-inverse, IUseBI=4.
 Internal  Forces:  Max     0.033249567 RMS     0.007738143
 Search for a local minimum.
 Step number   1 out of a maximum of  298
 All quantities printed in internal units (Hartrees-Bohrs-Radians)
 RMS Force = .77381D-02 SwitMx=.10000D-02 MixMth= 1
 Mixed Optimization -- RFO/linear search
 Second derivative matrix not updated -- first step.
 ITU=  0
     Eigenvalues ---    0.00230   0.00230   0.00230   0.00289   0.00312
     Eigenvalues ---    0.00322   0.00344   0.00364   0.00456   0.00524
     Eigenvalues ---    0.00534   0.00552   0.00637   0.00793   0.00932
     Eigenvalues ---    0.00960   0.01007   0.01870   0.01984   0.02023
     Eigenvalues ---    0.02319   0.03116   0.03663   0.03929   0.04047
     Eigenvalues ---    0.04230   0.04725   0.05057   0.05134   0.05180
     Eigenvalues ---    0.05233   0.05260   0.05306   0.05323   0.05329
     Eigenvalues ---    0.05377   0.05432   0.05447   0.05504   0.05586
     Eigenvalues ---    0.05628   0.05768   0.05875   0.05925   0.06262
     Eigenvalues ---    0.06376   0.06862   0.07768   0.07813   0.07910
     Eigenvalues ---    0.08550   0.08992   0.09445   0.09504   0.10438
[...]
      5          9           0        3.189848   -1.516563    2.530312
      6          9           0        1.713609   -1.976696    0.979021
      7          6           0        3.250173   -0.266004    0.436695
      8          9           0        3.216573   -0.985960   -0.720814
      9          6           0        4.724087   -0.025081    0.785967
     10          9           0        4.798083    0.565470    2.000613
     11          6           0        5.554036   -1.321882    0.811823
     12          8           0        6.842673   -1.026625    0.923226
     13          8           0        5.081028   -2.423920    0.752664
     14          9           0        5.255943    0.801637   -0.136231
     15          6           0        2.437871    1.055286    0.244517
     16          9           0        3.147520    2.121869    0.700282
     17          6           0        2.033398    1.373218   -1.210907
     18          9           0        1.269968    2.498825   -1.138575
     19          6           0        1.249455    0.296086   -2.004311
     20          7           0        0.084955   -0.047139   -1.441913
     21          6           0       -0.828304   -1.014734   -2.012907
     22          6           0       -2.268781   -0.575323   -1.699694
     23          7           0       -2.395700    0.019434   -0.359224
     24          6           0       -2.937444    1.401996   -0.430137
     25          6           0       -2.351409    2.355070    0.615353
     26          6           0       -4.465598    1.480322   -0.507761
     27          6           0       -3.001028   -0.917282    0.612970
     28          6           0       -2.190724   -2.215243    0.685000
     29          6           0       -3.097158   -0.348066    2.027646
     30          8           0        1.694950   -0.122927   -3.055256
     31          9           0        3.166930    1.661613   -1.867399
     32          8           0        1.278576    0.933967    1.020070
     33          1           0        7.341801   -1.860172    0.952780
     34          1           0       -0.248751    0.371034   -0.579182
     35          1           0       -0.662062   -1.064256   -3.090513
     36          1           0       -0.614394   -2.005165   -1.600163
     37          1           0       -2.943575   -1.429021   -1.836146
     38          1           0       -2.563071    0.165118   -2.446406
     39          1           0       -2.558290    1.783716   -1.382217
     40          1           0       -2.608275    3.382890    0.341973
     41          1           0       -1.261226    2.278033    0.635482
     42          1           0       -2.723684    2.184718    1.624667
     43          1           0       -4.778726    2.508438   -0.708827
     44          1           0       -4.851352    0.850548   -1.315087
     45          1           0       -4.946780    1.167077    0.421720
     46          1           0       -4.022046   -1.180282    0.284204
     47          1           0       -2.629331   -2.877322    1.435718
     48          1           0       -1.157546   -2.006431    0.977412
     49          1           0       -2.179911   -2.764728   -0.257337
     50          1           0       -3.792262    0.486535    2.108683
     51          1           0       -2.115909   -0.021867    2.379165
     52          1           0       -3.455094   -1.131637    2.700348
 ---------------------------------------------------------------------
 Rotational constants (GHZ):      0.2536341      0.1013646      0.0929003
 Leave Link  202 at Wed Feb  5 13:53:26 2025, MaxMem=  5368709120 cpu:         0.0
 (Enter /home/k0335/k033513/app/g09/l601.exe)
 Copying SCF densities to generalized density rwf, IOpCl= 0 IROHF=0.

 **********************************************************************

            Population analysis using the SCF density.

 **********************************************************************

 Alpha  occ. eigenvalues --  -24.83823 -24.83018 -24.82986 -24.82804 -24.82264
 Alpha  occ. eigenvalues --  -24.82126 -24.81860 -24.81317 -24.80458 -24.80375
 Alpha  occ. eigenvalues --  -19.32112 -19.30563 -19.25344 -19.19820 -14.43762
 Alpha  occ. eigenvalues --  -14.40283 -10.52436 -10.48276 -10.47937 -10.46161
 Alpha  occ. eigenvalues --  -10.45632 -10.43827 -10.42016 -10.37882 -10.29386
 Alpha  occ. eigenvalues --  -10.29195 -10.29062 -10.28914 -10.24822 -10.24727
 Alpha  occ. eigenvalues --  -10.24608 -10.24342  -1.41139  -1.38536  -1.37976
 Alpha  occ. eigenvalues --   -1.36713  -1.34392  -1.33898  -1.33359  -1.32137
 Alpha  occ. eigenvalues --   -1.31540  -1.29908  -1.22923  -1.22221  -1.14030
 Alpha  occ. eigenvalues --   -1.12937  -1.02602  -0.99845  -0.94582  -0.90369
 Alpha  occ. eigenvalues --   -0.87177  -0.86672  -0.85835  -0.82308  -0.79966
 Alpha  occ. eigenvalues --   -0.78143  -0.76779  -0.76382  -0.75647  -0.73386
 Alpha  occ. eigenvalues --   -0.72241  -0.70586  -0.70226  -0.68830  -0.68564
 Alpha  occ. eigenvalues --   -0.68199  -0.67606  -0.66865  -0.66476  -0.65840
 Alpha  occ. eigenvalues --   -0.65056  -0.64235  -0.63358  -0.62860  -0.61825
 Alpha  occ. eigenvalues --   -0.61388  -0.58698  -0.57728  -0.56661  -0.56470
 Alpha  occ. eigenvalues --   -0.56370  -0.55504  -0.55292  -0.54864  -0.54769
 Alpha  occ. eigenvalues --   -0.54497  -0.54054  -0.53585  -0.53172  -0.52915
 Alpha  occ. eigenvalues --   -0.52521  -0.52303  -0.51960  -0.51525  -0.51115
 Alpha  occ. eigenvalues --   -0.50983  -0.50542  -0.50223  -0.49741  -0.49663
 Alpha  occ. eigenvalues --   -0.49125  -0.48563  -0.48478  -0.48038  -0.47616
 Alpha  occ. eigenvalues --   -0.47169  -0.46601  -0.46089  -0.45996  -0.45168
 Alpha  occ. eigenvalues --   -0.44689  -0.43984  -0.43886  -0.43155  -0.42829
 Alpha  occ. eigenvalues --   -0.41805  -0.41598  -0.41208  -0.40481  -0.40020
 Alpha  occ. eigenvalues --   -0.38907  -0.37891  -0.37639  -0.33252  -0.31986
 Alpha  occ. eigenvalues --   -0.27912
 Alpha virt. eigenvalues --    0.01400   0.04764   0.06202   0.10089   0.10770
 Alpha virt. eigenvalues --    0.11986   0.12586   0.14391   0.14761   0.15059
 Alpha virt. eigenvalues --    0.16254   0.16799   0.17469   0.18286   0.18806
 Alpha virt. eigenvalues --    0.19896   0.20673   0.21187   0.21498   0.21877
 Alpha virt. eigenvalues --    0.22198   0.22745   0.23338   0.23972   0.24157
 Alpha virt. eigenvalues --    0.24488   0.24625   0.24799   0.25390   0.25752
 Alpha virt. eigenvalues --    0.26498   0.27292   0.27841   0.28059   0.28844
 Alpha virt. eigenvalues --    0.29258   0.29572   0.30134   0.30846   0.31585
 Alpha virt. eigenvalues --    0.31762   0.32010   0.32757   0.33414   0.33729
 Alpha virt. eigenvalues --    0.34932   0.35494   0.36563   0.37428   0.37693
 Alpha virt. eigenvalues --    0.38888   0.40830   0.43509   0.48416   0.49318
 Alpha virt. eigenvalues --    0.50810   0.51528   0.52685   0.53830   0.54292
 Alpha virt. eigenvalues --    0.55109   0.55739   0.56762   0.57242   0.57504
 Alpha virt. eigenvalues --    0.57960   0.58775   0.59144   0.59956   0.60915
 Alpha virt. eigenvalues --    0.61271   0.61944   0.63066   0.63516   0.64301
 Alpha virt. eigenvalues --    0.65027   0.65352   0.66735   0.67860   0.68919
 Alpha virt. eigenvalues --    0.69856   0.70090   0.71071   0.71659   0.72253
 Alpha virt. eigenvalues --    0.72733   0.73352   0.73416   0.74809   0.75148
 Alpha virt. eigenvalues --    0.76234   0.76971   0.77983   0.78854   0.79935
 Alpha virt. eigenvalues --    0.80798   0.81823   0.83125   0.84018   0.84868
 Alpha virt. eigenvalues --    0.85344   0.86279   0.87447   0.88277   0.88720
 Alpha virt. eigenvalues --    0.88995   0.89864   0.91019   0.91386   0.91763
 Alpha virt. eigenvalues --    0.92404   0.92651   0.93783   0.94312   0.94439
 Alpha virt. eigenvalues --    0.95855   0.96235   0.96660   0.96884   0.97410
 Alpha virt. eigenvalues --    0.97758   0.98011   0.98622   0.99604   1.00800
 Alpha virt. eigenvalues --    1.01606   1.02513   1.03060   1.04184   1.04831
 Alpha virt. eigenvalues --    1.05518   1.06285   1.06452   1.08179   1.09440
 Alpha virt. eigenvalues --    1.09519   1.10039   1.11042   1.12283   1.13019
 Alpha virt. eigenvalues --    1.13820   1.14668   1.15325   1.16223   1.16890
 Alpha virt. eigenvalues --    1.18172   1.18926   1.19118   1.21225   1.22774
 Alpha virt. eigenvalues --    1.23900   1.24880   1.25624   1.26962   1.27489
 Alpha virt. eigenvalues --    1.28999   1.29648   1.31808   1.32367   1.32429
 Alpha virt. eigenvalues --    1.33796   1.34842   1.35271   1.35480   1.37172
 Alpha virt. eigenvalues --    1.38167   1.38405   1.39677   1.40506   1.40679
 Alpha virt. eigenvalues --    1.41199   1.41388   1.42269   1.42806   1.43772
 Alpha virt. eigenvalues --    1.44350   1.45158   1.46017   1.46294   1.47127
 Alpha virt. eigenvalues --    1.47859   1.48154   1.48393   1.49003   1.49982
 Alpha virt. eigenvalues --    1.50662   1.51559   1.51647   1.52578   1.54051
 Alpha virt. eigenvalues --    1.54324   1.54812   1.56146   1.57545   1.58156
 Alpha virt. eigenvalues --    1.59289   1.59664   1.60464   1.60956   1.61153
 Alpha virt. eigenvalues --    1.62513   1.63209   1.64744   1.64919   1.66136
 Alpha virt. eigenvalues --    1.67085   1.68700   1.69375   1.70289   1.70982
 Alpha virt. eigenvalues --    1.71674   1.72242   1.73154   1.74168   1.75763
 Alpha virt. eigenvalues --    1.76563   1.77144   1.77477   1.78439   1.78955
 Alpha virt. eigenvalues --    1.79940   1.80520   1.80838   1.82087   1.82773
 Alpha virt. eigenvalues --    1.83639   1.84169   1.85293   1.86198   1.86773
 Alpha virt. eigenvalues --    1.86988   1.87269   1.87839   1.88703   1.89286
 Alpha virt. eigenvalues --    1.89437   1.89863   1.90490   1.90738   1.91528
 Alpha virt. eigenvalues --    1.92199   1.92906   1.93535   1.94801   1.95259
 Alpha virt. eigenvalues --    1.96170   1.96619   1.97686   1.98494   1.98763
 Alpha virt. eigenvalues --    1.99446   1.99978   2.00292   2.01420   2.01572
 Alpha virt. eigenvalues --    2.02245   2.03024   2.03959   2.04636   2.04812
 Alpha virt. eigenvalues --    2.05129   2.05574   2.06123   2.07417   2.08109
 Alpha virt. eigenvalues --    2.08529   2.08861   2.09699   2.10415   2.11641
 Alpha virt. eigenvalues --    2.11975   2.12488   2.12693   2.12871   2.13525
 Alpha virt. eigenvalues --    2.13920   2.14872   2.15929   2.16608   2.17249
 Alpha virt. eigenvalues --    2.17679   2.18303   2.18443   2.19494   2.19752
 Alpha virt. eigenvalues --    2.20140   2.20362   2.20837   2.21656   2.22205
 Alpha virt. eigenvalues --    2.23214   2.23411   2.24596   2.24809   2.25832
 Alpha virt. eigenvalues --    2.27612   2.28145   2.29186   2.29681   2.30249
 Alpha virt. eigenvalues --    2.30881   2.31171   2.32671   2.33051   2.34273
 Alpha virt. eigenvalues --    2.34497   2.35757   2.36704   2.37341   2.39935
 Alpha virt. eigenvalues --    2.41010   2.41458   2.41940   2.42679   2.43374
 Alpha virt. eigenvalues --    2.44650   2.45345   2.46073   2.47249   2.47769
 Alpha virt. eigenvalues --    2.49374   2.51469   2.52377   2.53015   2.53228
 Alpha virt. eigenvalues --    2.53554   2.54860   2.56194   2.56571   2.57959
 Alpha virt. eigenvalues --    2.58809   2.59207   2.60571   2.60939   2.61554
 Alpha virt. eigenvalues --    2.63522   2.64251   2.65339   2.66606   2.68338
 Alpha virt. eigenvalues --    2.69197   2.69851   2.70457   2.70951   2.72500
 Alpha virt. eigenvalues --    2.73206   2.74510   2.75164   2.76346   2.76724
 Alpha virt. eigenvalues --    2.77050   2.78580   2.79333   2.80396   2.80805
 Alpha virt. eigenvalues --    2.81120   2.82452   2.82799   2.82857   2.84117
 Alpha virt. eigenvalues --    2.84996   2.85207   2.85962   2.86841   2.89047
 Alpha virt. eigenvalues --    2.90287   2.92873   2.93534   2.94001   2.95451
 Alpha virt. eigenvalues --    2.95844   2.96368   2.96720   2.97556   2.97668
 Alpha virt. eigenvalues --    2.97727   2.98815   2.99532   2.99820   3.00602
 Alpha virt. eigenvalues --    3.01072   3.02297   3.02821   3.05205   3.06888
 Alpha virt. eigenvalues --    3.08362   3.10640   3.11131   3.12763   3.13460
 Alpha virt. eigenvalues --    3.15026   3.15448   3.17661   3.21200   3.22600
 Alpha virt. eigenvalues --    3.23456   3.23844   3.25480   3.27382   3.28240
 Alpha virt. eigenvalues --    3.28996   3.30561   3.32102   3.33947   3.34592
 Alpha virt. eigenvalues --    3.35852   3.40065   3.41958   3.44325   3.47028
 Alpha virt. eigenvalues --    3.50136   3.51059   3.52170   3.54560   3.55607
 Alpha virt. eigenvalues --    3.56689   3.57798   3.58472   3.58640   3.62236
 Alpha virt. eigenvalues --    3.63545   3.69420   4.01574   4.10900   4.16530
 Alpha virt. eigenvalues --    4.20114   4.20852   4.28356   4.30381   4.35991
 Alpha virt. eigenvalues --    4.43736   4.49004   4.49502   4.52140   4.58158
 Alpha virt. eigenvalues --    4.60121   4.63759   4.66794   4.73121   4.76539
 Alpha virt. eigenvalues --    4.78499   4.80789   4.84087   4.86804   4.95702
 Alpha virt. eigenvalues --    5.04294   5.19034   5.26258   5.49232   5.57631
 Alpha virt. eigenvalues --    5.91043   6.31297   6.94429   7.19002
          Condensed to atoms (all electrons):
 Mulliken charges:
               1
     1  F   -0.234202
     2  C    0.756933
     3  F   -0.245857
     4  C    0.544486
     5  F   -0.252940
     6  F   -0.252284
     7  C    0.132545
     8  F   -0.280425
     9  C    0.591002
    10  F   -0.270706
    11  C    0.574812
    12  O   -0.472708
    13  O   -0.434101
    14  F   -0.266374
    15  C    0.503895
    16  F   -0.274912
    17  C    0.544997
    18  F   -0.281663
    19  C    0.535126
    20  N   -0.543863
    21  C   -0.034992
    22  C   -0.066449
    23  N   -0.464347
    24  C    0.062398
    25  C   -0.312454
    26  C   -0.319359
    27  C    0.092090
    28  C   -0.326478
    29  C   -0.327912
    30  O   -0.521162
    31  F   -0.262967
    32  O   -0.501607
    33  H    0.357849
    34  H    0.303456
    35  H    0.140195
    36  H    0.124173
    37  H    0.106431
    38  H    0.115514
    39  H    0.103691
    40  H    0.103379
    41  H    0.105283
    42  H    0.105855
    43  H    0.108799
    44  H    0.106108
    45  H    0.109202
    46  H    0.077864
    47  H    0.106723
    48  H    0.106093
    49  H    0.104903
    50  H    0.107444
    51  H    0.111861
    52  H    0.104653
 Sum of Mulliken charges =   0.00000
 Mulliken charges with hydrogens summed into heavy atoms:
               1
     1  F   -0.234202
     2  C    0.756933
     3  F   -0.245857
     4  C    0.544486
     5  F   -0.252940
     6  F   -0.252284
     7  C    0.132545
     8  F   -0.280425
     9  C    0.591002
    10  F   -0.270706
    11  C    0.574812
    12  O   -0.114859
    13  O   -0.434101
    14  F   -0.266374
    15  C    0.503895
    16  F   -0.274912
    17  C    0.544997
    18  F   -0.281663
    19  C    0.535126
    20  N   -0.240407
    21  C    0.229377
    22  C    0.155495
    23  N   -0.464347
    24  C    0.166090
    25  C    0.002064
    26  C    0.004749
    27  C    0.169955
    28  C   -0.008759
    29  C   -0.003953
    30  O   -0.521162
    31  F   -0.262967
    32  O   -0.501607
 Electronic spatial extent (au):  <R**2>=          13764.6170
 Charge=              0.0000 electrons
 Dipole moment (field-independent basis, Debye):
    X=             -2.3601    Y=             -1.5992    Z=              2.6173  Tot=              3.8702
 Quadrupole moment (field-independent basis, Debye-Ang):
   XX=           -151.2550   YY=           -182.7685   ZZ=           -190.0532
   XY=            -10.9642   XZ=             13.2622   YZ=             -1.5005
 Traceless Quadrupole moment (field-independent basis, Debye-Ang):
   XX=             23.4372   YY=             -8.0762   ZZ=            -15.3610
   XY=            -10.9642   XZ=             13.2622   YZ=             -1.5005
 Octapole moment (field-independent basis, Debye-Ang**2):
  XXX=           -347.5282  YYY=             -9.5043  ZZZ=            -84.2573  XYY=           -203.2729
  XXY=           -104.1451  XXZ=              4.1452  XZZ=           -228.1088  YZZ=             -9.8280
  YYZ=            -42.1008  XYZ=            -11.7841
 Hexadecapole moment (field-independent basis, Debye-Ang**3):
 XXXX=          -9111.5976 YYYY=          -2080.9587 ZZZZ=          -2742.0852 XXXY=           -524.0985
 XXXZ=           -251.7603 YYYX=            338.2092 YYYZ=            201.3688 ZZZX=           -438.0112
 ZZZY=            179.8808 XXYY=          -2088.8591 XXZZ=          -2327.4000 YYZZ=           -765.3748
 XXYZ=            -38.7549 YYXZ=           -162.7122 ZZXY=            101.1107
 N-N= 4.271181532071D+03 E-N=-1.332367584589D+04  KE= 2.014812986402D+03
 No NMR shielding tensors so no spin-rotation constants.
 Leave Link  601 at Wed Feb  5 13:53:26 2025, MaxMem=  5368709120 cpu:         3.1
 (Enter /home/k0335/k033513/app/g09/l9999.exe)
 1\1\GINC-C18U02N3\FOpt\RCAM-B3LYP\6-31G(d,p)\C16H20F10N2O4\K033513\05-
 Feb-2025\0\\#p CAM-B3LYP/6-31G(d,p) opt SCRF=(PCM,Solvent=Generic,Read
 ) NoSymm out=wfn\\Title DIPEDA1_neu\\0,1\F,0.3212655773,-0.4147584721,
 2.4755452024\C,1.4916195079,0.0791764052,2.0805236272\F,2.058022417,0.
 7208408906,3.1112689877\C,2.4460470633,-1.0038340511,1.5420895712\F,3.
 1898482671,-1.5165632634,2.5303120892\F,1.7136087983,-1.9766960838,0.9
 790206018\C,3.2501728404,-0.2660036238,0.4366952028\F,3.2165734403,-0.
 9859600366,-0.7208142995\C,4.7240871887,-0.0250811145,0.7859671173\F,4
 .7980826313,0.5654699617,2.000612547\C,5.5540361544,-1.3218816451,0.81
 1822648\O,6.8426734044,-1.0266254082,0.9232259898\O,5.0810277049,-2.42
 39203561,0.7526638146\F,5.2559427493,0.8016373586,-0.1362314878\C,2.43
 78705116,1.0552860751,0.2445174795\F,3.1475196025,2.1218692168,0.70028
 22824\C,2.0333982769,1.3732179524,-1.2109068366\F,1.2699684487,2.49882
 51393,-1.1385751424\C,1.2494551502,0.2960861916,-2.0043113233\N,0.0849
 552786,-0.0471391917,-1.4419126786\C,-0.828303706,-1.0147342841,-2.012
 9071818\C,-2.2687805435,-0.5753225434,-1.6996944317\N,-2.395700007,0.0
 194340735,-0.3592242335\C,-2.9374442862,1.4019955456,-0.4301370074\C,-
 2.3514092065,2.3550700135,0.6153533721\C,-4.4655984797,1.4803218571,-0
 .5077611588\C,-3.0010283377,-0.9172824809,0.6129699833\C,-2.190724194,
 -2.2152430163,0.6850000376\C,-3.0971580237,-0.3480658725,2.027646161\O
 ,1.6949503329,-0.1229266055,-3.0552559413\F,3.1669296866,1.6616127259,
 -1.8673991895\O,1.2785758646,0.9339673386,1.0200698728\H,7.3418005354,
 -1.8601724616,0.9527803725\H,-0.2487510678,0.3710340029,-0.5791823404\
 H,-0.6620618338,-1.0642564035,-3.0905132998\H,-0.6143938536,-2.0051647
 819,-1.6001627093\H,-2.9435747288,-1.4290214468,-1.8361462282\H,-2.563
 0710187,0.1651182701,-2.4464062004\H,-2.5582898092,1.7837160943,-1.382
 217287\H,-2.6082751074,3.3828902849,0.341973226\H,-1.2612260062,2.2780
 329788,0.6354816742\H,-2.7236842414,2.1847175436,1.6246666544\H,-4.778
 7262414,2.5084382028,-0.7088265103\H,-4.8513524213,0.8505481679,-1.315
 0866174\H,-4.9467800583,1.1670773137,0.4217202747\H,-4.0220462865,-1.1
 802819751,0.2842042351\H,-2.6293311174,-2.8773219508,1.4357182729\H,-1
 .1575462643,-2.0064307392,0.9774124389\H,-2.179911173,-2.7647277356,-0
 .2573366531\H,-3.7922623363,0.4865353155,2.1086834994\H,-2.1159085223,
 -0.0218667545,2.3791647257\H,-3.4550935603,-1.1316366215,2.7003477965\
 \Version=ES64L-G09RevD.01\HF=-2029.8727186\RMSD=8.194e-09\RMSF=5.009e-
 06\Dipole=-0.9285475,-0.6291891,1.029733\Quadrupole=17.4249856,-6.0044
 892,-11.4204963,-8.1515814,9.8601175,-1.115594\PG=C01 [X(C16H20F10N2O4
 )]\\@

 Writing a WFN file to "cytopopt/DIPEDA1/DIPEDA1_neu.wfn"


 RESEARCH IS WHAT I AM DOING WHEN I DON'T KNOW WHAT I AM DOING.
     -- WERNER VON BRAUN
 Job cpu time:       0 days 16 hours 19 minutes 53.3 seconds.
 File lengths (MBytes):  RWF=    595 Int=      0 D2E=      0 Chk=     28 Scr=      1
 Normal termination of Gaussian 09 at Wed Feb  5 13:53:26 2025.
