 Entering Gaussian System, Link 0=g09
 Initial command:
 /home/k0335/k033513/app/g09/l1.exe "/home/k0335/k033513/app/g09/scratch/Gau-545455.inp" -scrdir="/home/k0335/k033513/app/g09/scratch/"
 Default is to use a total of  36 processors:
                               36 via shared-memory
                                1 via Linda
 Entering Link 1 = /home/k0335/k033513/app/g09/l1.exe PID=    545456.
  
 Copyright (c) 1988,1990,1992,1993,1995,1998,2003,2009,2013,
            Gaussian, Inc.  All Rights Reserved.
  
 This is part of the Gaussian(R) 09 program.  It is based on
 the Gaussian(R) 03 system (copyright 2003, Gaussian, Inc.),
 the Gaussian(R) 98 system (copyright 1998, Gaussian, Inc.),
 the Gaussian(R) 94 system (copyright 1995, Gaussian, Inc.),
 the Gaussian 92(TM) system (copyright 1992, Gaussian, Inc.),
 the Gaussian 90(TM) system (copyright 1990, Gaussian, Inc.),
 the Gaussian 88(TM) system (copyright 1988, Gaussian, Inc.),
 the Gaussian 86(TM) system (copyright 1986, Carnegie Mellon
 University), and the Gaussian 82(TM) system (copyright 1983,
 Carnegie Mellon University). Gaussian is a federally registered
 trademark of Gaussian, Inc.
  
 This software contains proprietary and confidential information,
 including trade secrets, belonging to Gaussian, Inc.
  
 This software is provided under written license and may be
 used, copied, transmitted, or stored only in accord with that
 written license.
  
 The following legend is applicable only to US Government
 contracts under FAR:
  
                    RESTRICTED RIGHTS LEGEND
  
 Use, reproduction and disclosure by the US Government is
 subject to restrictions as set forth in subparagraphs (a)
 and (c) of the Commercial Computer Software - Restricted
 Rights clause in FAR 52.227-19.
  
 Gaussian, Inc.
 340 Quinnipiac St., Bldg. 40, Wallingford CT 06492
  
  
 ---------------------------------------------------------------
 Warning -- This program may not be used in any manner that
 competes with the business of Gaussian, Inc. or will provide
 assistance to any competitor of Gaussian, Inc.  The licensee
 of this program is prohibited from giving any competitor of
 Gaussian, Inc. access to this program.  By using this program,
 the user acknowledges that Gaussian, Inc. is engaged in the
 business of creating and licensing software in the field of
 computational chemistry and represents and warrants to the
 licensee that it is not a competitor of Gaussian, Inc. and that
 it will not use this program in any manner prohibited above.
 ---------------------------------------------------------------
  

 Cite this work as:
 Gaussian 09, Revision D.01,
 M. J. Frisch, G. W. Trucks, H. B. Schlegel, G. E. Scuseria, 
 M. A. Robb, J. R. Cheeseman, G. Scalmani, V. Barone, B. Mennucci, 
 G. A. Petersson, H. Nakatsuji, M. Caricato, X. Li, H. P. Hratchian, 
 A. F. Izmaylov, J. Bloino, G. Zheng, J. L. Sonnenberg, M. Hada, 
 M. Ehara, K. Toyota, R. Fukuda, J. Hasegawa, M. Ishida, T. Nakajima, 
 Y. Honda, O. Kitao, H. Nakai, T. Vreven, J. A. Montgomery, Jr., 
 J. E. Peralta, F. Ogliaro, M. Bearpark, J. J. Heyd, E. Brothers, 
 K. N. Kudin, V. N. Staroverov, T. Keith, R. Kobayashi, J. Normand, 
 K. Raghavachari, A. Rendell, J. C. Burant, S. S. Iyengar, J. Tomasi, 
 M. Cossi, N. Rega, J. M. Millam, M. Klene, J. E. Knox, J. B. Cross, 
 V. Bakken, C. Adamo, J. Jaramillo, R. Gomperts, R. E. Stratmann, 
 O. Yazyev, A. J. Austin, R. Cammi, C. Pomelli, J. W. Ochterski, 
 R. L. Martin, K. Morokuma, V. G. Zakrzewski, G. A. Voth, 
 P. Salvador, J. J. Dannenberg, S. Dapprich, A. D. Daniels, 
 O. Farkas, J. B. Foresman, J. V. Ortiz, J. Cioslowski, 
 and D. J. Fox, Gaussian, Inc., Wallingford CT, 2013.
 
 ******************************************
 Gaussian 09:  ES64L-G09RevD.01 24-Apr-2013
                 3-Mar-2024 
 ******************************************
 %nprocshared=24
 Will use up to   24 processors via shared memory.
 %mem=40GB
 %rwf=A603415620/A603415620_p1.rwf
 %nosave
 %chk=A603415620/A603415620_p1.chk
 ----------------------------------------------------------------------
 #p CAM-B3LYP/6-31G(d,p) SCRF=(PCM,Solvent=Generic,Read) NoSymm out=wfn
 ----------------------------------------------------------------------
 1/38=1,40=2/1;
 2/12=2,15=1,17=6,18=5,40=1/2;
 3/5=1,6=6,7=101,11=2,16=1,25=1,30=1,70=2203,72=-2,74=-40/1,2,3;
 4//1;
 5/5=2,38=5/2;
 6/7=2,8=2,9=2,10=2,28=1/1;
 99/5=1,6=100,9=1/99;
 Leave Link    1 at Sun Mar  3 18:21:03 2024, MaxMem=  5368709120 cpu:         1.6
 (Enter /home/k0335/k033513/app/g09/l101.exe)
 -------------------
 Title A603415620_p1
 -------------------
 Symbolic Z-matrix:
 Charge =  1 Multiplicity = 2
 C                    -1.75243   5.50895  -1.45743 
 C                    -1.1211    4.27911  -1.93762 
 C                    -0.6032    3.26985  -2.33343 
 C                     0.03097   2.03001  -2.81047 
 N                     0.13819   1.06965  -1.71989 
 C                     1.24927   1.12259  -0.90749 
 O                     2.24828   1.76932  -1.21236 
 N                     1.17233   0.38891   0.24947 
 C                     2.28935   0.48924   1.18236 
 F                     1.84576   0.18711   2.43674 
 F                     2.65046   1.79983   1.28666 
 C                     3.51823  -0.38804   0.83183 
 F                     4.04266   0.02753  -0.35807 
 O                     3.08934  -1.73592   0.6016 
 C                     4.15196  -2.64925   0.52125 
 F                     5.14373  -2.16901  -0.24392 
 F                     3.69258  -3.78744  -0.0302 
 F                     4.60359  -2.917     1.75612 
 C                     4.52768  -0.14829   1.96355 
 F                     4.08899  -0.64164   3.14311 
 F                     5.71286  -0.75369   1.70726 
 F                     4.80828   1.15933   2.1513 
 C                     0.30916  -0.6704    0.37782 
 O                     0.39125  -1.46283   1.31267 
 N                    -0.66253  -0.80029  -0.58361 
 C                    -1.65415  -1.86096  -0.46097 
 F                    -1.91196  -2.31364  -1.7339 
 F                    -1.10003  -2.96295   0.12825 
 C                    -3.01475  -1.55369   0.22446 
 F                    -3.6083   -0.48948  -0.38947 
 O                    -3.87594  -2.68151  -0.01233 
 C                    -5.09569  -2.60885   0.67501 
 F                    -4.90347  -2.99732   1.9468 
 F                    -5.96696  -3.45482   0.09517 
 F                    -5.607    -1.3689    0.6442 
 C                    -2.74483  -1.20139   1.6883 
 F                    -1.9209   -0.13137   1.79486 
 F                    -3.87916  -0.85423   2.3409 
 F                    -2.19585  -2.22474   2.37125 
 C                    -0.88096   0.16106  -1.54078 
 O                    -1.91455   0.2036   -2.20276 
 H                    -2.40288   5.93781  -2.22564 
 H                    -0.99785   6.25652  -1.19492 
 H                    -2.35979   5.31266  -0.56875 
 H                    -0.55586   1.60167  -3.63075 
 H                     1.02522   2.25291  -3.21301 
 
 NAtoms=     46 NQM=       46 NQMF=       0 NMMI=      0 NMMIF=      0
                NMic=       0 NMicF=      0.
                    Isotopes and Nuclear Properties:
 (Nuclear quadrupole moments (NQMom) in fm**2, nuclear magnetic moments (NMagM)
  in nuclear magnetons)

  Atom         1           2           3           4           5           6           7           8           9          10
 IAtWgt=          12          12          12          12          14          12          16          14          12          19
 AtmWgt=  12.0000000  12.0000000  12.0000000  12.0000000  14.0030740  12.0000000  15.9949146  14.0030740  12.0000000  18.9984033
 NucSpn=           0           0           0           0           2           0           0           2           0           1
 AtZEff=   0.0000000   0.0000000   0.0000000   0.0000000   0.0000000   0.0000000   0.0000000   0.0000000   0.0000000   0.0000000
 NQMom=    0.0000000   0.0000000   0.0000000   0.0000000   2.0440000   0.0000000   0.0000000   2.0440000   0.0000000   0.0000000
 NMagM=    0.0000000   0.0000000   0.0000000   0.0000000   0.4037610   0.0000000   0.0000000   0.4037610   0.0000000   2.6288670
 AtZNuc=   6.0000000   6.0000000   6.0000000   6.0000000   7.0000000   6.0000000   8.0000000   7.0000000   6.0000000   9.0000000

  Atom        11          12          13          14          15          16          17          18          19          20
 IAtWgt=          19          12          19          16          12          19          19          19          12          19
 AtmWgt=  18.9984033  12.0000000  18.9984033  15.9949146  12.0000000  18.9984033  18.9984033  18.9984033  12.0000000  18.9984033
 NucSpn=           1           0           1           0           0           1           1           1           0           1
 AtZEff=   0.0000000   0.0000000   0.0000000   0.0000000   0.0000000   0.0000000   0.0000000   0.0000000   0.0000000   0.0000000
 NQMom=    0.0000000   0.0000000   0.0000000   0.0000000   0.0000000   0.0000000   0.0000000   0.0000000   0.0000000   0.0000000
 NMagM=    2.6288670   0.0000000   2.6288670   0.0000000   0.0000000   2.6288670   2.6288670   2.6288670   0.0000000   2.6288670
 AtZNuc=   9.0000000   6.0000000   9.0000000   8.0000000   6.0000000   9.0000000   9.0000000   9.0000000   6.0000000   9.0000000

  Atom        21          22          23          24          25          26          27          28          29          30
 IAtWgt=          19          19          12          16          14          12          19          19          12          19
 AtmWgt=  18.9984033  18.9984033  12.0000000  15.9949146  14.0030740  12.0000000  18.9984033  18.9984033  12.0000000  18.9984033
 NucSpn=           1           1           0           0           2           0           1           1           0           1
 AtZEff=   0.0000000   0.0000000   0.0000000   0.0000000   0.0000000   0.0000000   0.0000000   0.0000000   0.0000000   0.0000000
 NQMom=    0.0000000   0.0000000   0.0000000   0.0000000   2.0440000   0.0000000   0.0000000   0.0000000   0.0000000   0.0000000
 NMagM=    2.6288670   2.6288670   0.0000000   0.0000000   0.4037610   0.0000000   2.6288670   2.6288670   0.0000000   2.6288670
 AtZNuc=   9.0000000   9.0000000   6.0000000   8.0000000   7.0000000   6.0000000   9.0000000   9.0000000   6.0000000   9.0000000

  Atom        31          32          33          34          35          36          37          38          39          40
 IAtWgt=          16          12          19          19          19          12          19          19          19          12
 AtmWgt=  15.9949146  12.0000000  18.9984033  18.9984033  18.9984033  12.0000000  18.9984033  18.9984033  18.9984033  12.0000000
 NucSpn=           0           0           1           1           1           0           1           1           1           0
 AtZEff=   0.0000000   0.0000000   0.0000000   0.0000000   0.0000000   0.0000000   0.0000000   0.0000000   0.0000000   0.0000000
 NQMom=    0.0000000   0.0000000   0.0000000   0.0000000   0.0000000   0.0000000   0.0000000   0.0000000   0.0000000   0.0000000
 NMagM=    0.0000000   0.0000000   2.6288670   2.6288670   2.6288670   0.0000000   2.6288670   2.6288670   2.6288670   0.0000000
 AtZNuc=   8.0000000   6.0000000   9.0000000   9.0000000   9.0000000   6.0000000   9.0000000   9.0000000   9.0000000   6.0000000

  Atom        41          42          43          44          45          46
 IAtWgt=          16           1           1           1           1           1
 AtmWgt=  15.9949146   1.0078250   1.0078250   1.0078250   1.0078250   1.0078250
 NucSpn=           0           1           1           1           1           1
 AtZEff=   0.0000000   0.0000000   0.0000000   0.0000000   0.0000000   0.0000000
 NQMom=    0.0000000   0.0000000   0.0000000   0.0000000   0.0000000   0.0000000
 NMagM=    0.0000000   2.7928460   2.7928460   2.7928460   2.7928460   2.7928460
 AtZNuc=   8.0000000   1.0000000   1.0000000   1.0000000   1.0000000   1.0000000
 Leave Link  101 at Sun Mar  3 18:21:03 2024, MaxMem=  5368709120 cpu:         0.8
 (Enter /home/k0335/k033513/app/g09/l202.exe)
                          Input orientation:                          
 ---------------------------------------------------------------------
 Center     Atomic      Atomic             Coordinates (Angstroms)
 Number     Number       Type             X           Y           Z
 ---------------------------------------------------------------------
      1          6           0       -1.752432    5.508954   -1.457433
      2          6           0       -1.121097    4.279105   -1.937615
      3          6           0       -0.603199    3.269845   -2.333433
      4          6           0        0.030968    2.030012   -2.810467
      5          7           0        0.138190    1.069648   -1.719894
      6          6           0        1.249274    1.122589   -0.907485
      7          8           0        2.248280    1.769316   -1.212355
      8          7           0        1.172325    0.388909    0.249467
      9          6           0        2.289349    0.489235    1.182359
     10          9           0        1.845761    0.187106    2.436741
     11          9           0        2.650456    1.799834    1.286661
     12          6           0        3.518226   -0.388039    0.831826
     13          9           0        4.042660    0.027526   -0.358066
     14          8           0        3.089341   -1.735919    0.601597
     15          6           0        4.151964   -2.649250    0.521252
     16          9           0        5.143734   -2.169011   -0.243916
     17          9           0        3.692576   -3.787443   -0.030201
     18          9           0        4.603588   -2.917001    1.756117
     19          6           0        4.527677   -0.148288    1.963551
     20          9           0        4.088991   -0.641641    3.143108
     21          9           0        5.712856   -0.753693    1.707257
     22          9           0        4.808283    1.159327    2.151303
     23          6           0        0.309162   -0.670404    0.377817
     24          8           0        0.391247   -1.462825    1.312673
     25          7           0       -0.662529   -0.800294   -0.583607
     26          6           0       -1.654152   -1.860955   -0.460971
     27          9           0       -1.911958   -2.313638   -1.733901
     28          9           0       -1.100032   -2.962945    0.128252
     29          6           0       -3.014745   -1.553688    0.224455
     30          9           0       -3.608300   -0.489484   -0.389470
     31          8           0       -3.875942   -2.681508   -0.012333
     32          6           0       -5.095689   -2.608849    0.675009
     33          9           0       -4.903471   -2.997317    1.946798
     34          9           0       -5.966955   -3.454819    0.095166
     35          9           0       -5.607004   -1.368902    0.644198
     36          6           0       -2.744827   -1.201387    1.688298
     37          9           0       -1.920897   -0.131372    1.794860
     38          9           0       -3.879162   -0.854225    2.340895
     39          9           0       -2.195849   -2.224743    2.371253
     40          6           0       -0.880956    0.161058   -1.540777
     41          8           0       -1.914546    0.203600   -2.202755
     42          1           0       -2.402881    5.937811   -2.225636
     43          1           0       -0.997852    6.256515   -1.194922
     44          1           0       -2.359793    5.312664   -0.568748
     45          1           0       -0.555858    1.601673   -3.630749
     46          1           0        1.025219    2.252914   -3.213014
 ---------------------------------------------------------------------
                    Distance matrix (angstroms):
                    1          2          3          4          5
     1  C    0.000000
     2  C    1.463450   0.000000
     3  C    2.664906   1.201456   0.000000
     4  C    4.136938   2.673489   1.472045   0.000000
     5  N    4.832264   3.454536   2.401448   1.457102   0.000000
     6  C    5.343489   4.079635   3.174223   2.434959   1.377432
     7  O    5.481848   4.263537   3.411647   2.745614   2.280266
     8  N    6.138613   5.017643   4.257188   3.655012   2.326204
     9  C    6.964343   5.977332   5.334737   4.839105   3.658885
    10  F    7.512233   6.684437   6.185082   5.850040   4.579552
    11  F    6.377542   5.546833   5.084514   4.868383   3.985477
    12  C    8.233776   7.139703   6.354929   5.592337   4.478925
    13  F    8.052189   6.872793   5.999893   5.110567   4.264444
    14  O    8.953801   7.768906   6.878003   5.931110   4.687197
    15  C   10.263205   9.047281   8.111503   7.069544   5.912979
    16  F   10.391385   9.148493   8.183793   7.096433   6.141897
    17  F   10.867755   9.585347   8.576939   7.414852   6.251404
    18  F   11.032797   9.909572   9.061573   8.138518   6.922124
    19  C    9.118513   8.168816   7.514891   6.910617   5.858219
    20  F    9.649716   8.784788   8.204198   7.684422   6.495085
    21  F   10.245318   9.236724   8.509323   7.774490   6.793146
    22  F    8.659400   7.849192   7.338343   6.942621   6.066628
    23  C    6.767775   5.648407   4.869173   4.187457   2.730825
    24  O    7.802214   6.769144   6.056499   5.415717   3.959030
    25  N    6.462048   5.276734   4.430738   3.667489   2.330018
    26  C    7.437618   6.337583   5.561989   4.847616   3.658662
    27  F    7.829101   6.643133   5.766071   4.878653   3.955999
    28  F    8.643674   7.530972   6.719703   5.902953   4.605501
    29  C    7.369063   6.502455   5.968653   5.597323   4.539095
    30  F    6.369148   5.596639   5.190586   5.045132   4.270493
    31  O    8.583780   7.729555   7.177531   6.729927   5.753277
    32  C    9.034567   8.370609   7.987004   7.742751   6.830841
    33  F    9.688884   9.074213   8.722960   8.500253   7.443331
    34  F   10.026066   9.350300   8.938069   8.631405   7.812685
    35  F    8.159625   7.660881   7.444617   7.434652   6.674033
    36  C    7.477242   6.769013   6.383792   6.195633   5.008509
    37  F    6.512992   5.832954   5.508848   5.448889   4.246856
    38  F    7.709755   7.229360   7.041962   7.081276   6.027471
    39  F    8.640922   7.875371   7.406828   7.064834   5.747890
    40  C    5.419078   4.144087   3.220250   2.436536   1.377054
    41  O    5.359904   4.160481   3.337449   2.736808   2.279675
    42  H    1.094138   2.115947   3.220018   4.640748   5.514692
    43  H    1.094144   2.115876   3.220583   4.640235   5.335708
    44  H    1.094156   2.115753   3.220690   4.638625   5.056505
    45  H    4.628384   3.217894   2.113780   1.095765   2.101457
    46  H    4.625928   3.215395   2.111766   1.095566   2.101510
                    6          7          8          9         10
     6  C    0.000000
     7  O    1.228501   0.000000
     8  N    1.372132   2.280379   0.000000
     9  C    2.418748   2.715686   1.458799   0.000000
    10  F    3.523460   3.997663   2.297479   1.364378   0.000000
    11  F    2.690028   2.531355   2.291583   1.363432   2.138015
    12  C    3.233472   3.231968   2.538906   1.550039   2.388238
    13  F    3.050251   2.642620   2.956098   2.379114   3.558480
    14  O    3.719441   4.035403   2.883373   2.434868   2.934667
    15  C    4.969272   5.114013   4.264097   3.708974   4.127055
    16  F    5.142156   4.983166   4.749576   4.153077   4.859407
    17  F    5.554077   5.861830   4.885877   4.661472   5.029271
    18  F    5.887655   6.026680   4.997259   4.157805   4.207652
    19  C    4.539372   4.354220   3.805923   2.454956   2.743915
    20  F    5.252029   5.307635   4.235815   2.891735   2.493563
    21  F    5.502806   5.185846   4.903786   3.679781   4.046192
    22  F    4.692982   4.270819   4.175011   2.780810   3.131010
    23  C    2.398048   3.498723   1.372468   2.431705   2.708436
    24  O    3.514211   4.502341   2.273633   2.725860   2.470104
    25  N    2.730818   3.933323   2.339852   3.673568   4.048330
    26  C    4.186979   5.382604   3.681791   4.875974   4.984043
    27  F    4.741730   5.852359   4.555251   5.831951   6.145602
    28  F    4.825306   5.950018   4.051324   4.951423   4.891793
    29  C    5.160000   6.387974   4.615828   5.764072   5.616858
    30  F    5.144234   6.330786   4.902468   6.181489   6.179970
    31  O    6.445176   7.665245   5.914474   7.035035   6.853087
    32  C    7.529042   8.755818   6.961008   8.024607   7.687964
    33  F    7.935794   9.156887   7.159801   8.029762   7.478819
    34  F    8.604181   9.822998   8.109709   9.214342   8.932252
    35  F    7.458136   8.660294   7.014629   8.129864   7.821642
    36  C    5.300169   6.493842   4.465798   5.334520   4.854027
    37  F    4.350295   5.480693   3.496706   4.299591   3.834208
    38  F    6.384405   7.553416   5.606868   6.418537   5.819648
    39  F    5.815808   6.967427   4.762116   5.375514   4.707007
    40  C    2.421462   3.533620   2.733652   4.192136   4.822480
    41  O    3.540060   4.556477   3.946708   5.404935   5.972027
    42  H    6.185638   6.327431   7.049720   7.957288   8.535767
    43  H    5.611541   5.538288   6.420649   7.051147   7.623178
    44  H    5.540473   5.848408   6.114630   6.924331   7.279491
    45  H    3.302149   3.706740   4.417408   5.700766   6.677066
    46  H    2.577460   2.394239   3.935090   4.901825   6.071292
                   11         12         13         14         15
    11  F    0.000000
    12  C    2.397225   0.000000
    13  F    2.790060   1.365126   0.000000
    14  O    3.628151   1.433083   2.222500   0.000000
    15  C    4.757597   2.368788   2.819624   1.403494   0.000000
    16  F    4.930602   2.640333   2.459709   2.263403   1.341536
    17  F    5.834193   3.511330   3.845002   2.229756   1.345593
    18  F    5.126758   2.903097   3.668058   2.240718   1.341844
    19  C    2.788784   1.535341   2.378247   2.538563   2.911391
    20  F    3.387710   2.394183   3.564849   2.942112   3.302815
    21  F    4.009451   2.390917   2.768649   3.011658   2.726926
    22  F    2.411239   2.408238   2.857286   3.706589   4.194411
    23  C    3.522745   3.253298   3.868803   2.985765   4.324758
    24  O    3.968582   3.341314   4.283145   2.803555   4.022057
    25  N    4.608084   4.433071   4.782777   4.044333   5.274343
    26  C    5.914833   5.531211   6.002551   4.862655   5.941141
    27  F    6.845441   6.306963   6.544574   5.549892   6.478387
    28  F    6.171883   5.334179   5.968811   4.390956   5.276013
    29  C    6.668500   6.663884   7.255793   6.118440   7.256036
    30  F    6.871857   7.231129   7.668473   6.884345   8.106522
    31  O    8.022698   7.787575   8.376315   7.055935   8.045684
    32  C    8.933833   8.896973   9.566982   8.231775   9.249019
    33  F    8.972751   8.886871   9.720871   8.202788   9.173562
    34  F   10.163209   9.995822  10.607758   9.231879  10.159873
    35  F    8.867880   9.179712   9.801559   8.704191   9.843366
    36  C    6.186899   6.373454   7.194985   5.958537   7.143111
    37  F    4.988496   5.529681   6.342267   5.394528   6.696374
    38  F    7.126805   7.564124   8.415292   7.236199   8.428060
    39  F    6.392201   6.196287   7.172231   5.594986   6.625514
    40  C    4.811534   5.028276   5.065435   4.894032   6.122098
    41  O    5.963491   6.250898   6.238765   6.055164   7.236125
    42  H    7.415882   9.188251   8.942275   9.851085  11.146704
    43  H    6.271396   8.285696   8.056512   9.154869  10.429694
    44  H    6.394147   8.307270   8.304726   8.985838  10.343266
    45  H    5.873724   6.361736   5.859587   6.506900   7.581098
    46  H    4.805596   5.436032   4.712540   5.892592   6.910318
                   16         17         18         19         20
    16  F    0.000000
    17  F    2.184229   0.000000
    18  F    2.202585   2.185988   0.000000
    19  C    3.055447   4.232717   2.777510   0.000000
    20  F    3.862289   4.485878   2.714004   1.351739   0.000000
    21  F    2.476712   4.037813   2.431618   1.355305   2.170521
    22  F    4.114296   5.520353   4.100551   1.350499   2.178197
    23  C    5.099555   4.618431   5.038750   4.536852   4.683457
    24  O    5.050525   4.255107   4.478291   4.388816   4.206916
    25  N    5.975070   5.310015   6.138953   5.818193   6.040738
    26  C    6.808323   5.699510   6.722352   6.857590   6.889108
    27  F    7.212750   6.040323   7.415970   7.734907   7.911522
    28  F    6.305034   4.865593   5.931554   6.554519   6.434576
    29  C    8.195046   7.074084   7.889462   7.866876   7.733914
    30  F    8.912917   8.019252   8.827881   8.476275   8.470570
    31  O    9.037192   7.648913   8.665178   8.996785   8.806703
    32  C   10.289979   8.894943   9.764206  10.016181   9.711836
    33  F   10.316571   8.855780   9.509310   9.852096   9.372552
    34  F   11.189982   9.666069  10.713748  11.160704  10.877774
    35  F   10.816991   9.632567  10.386971  10.292830  10.039212
    36  C    8.179190   7.147103   7.546332   7.353509   7.009341
    37  F    7.630045   6.943254   7.094373   6.450802   6.180364
    38  F    9.477477   8.459142   8.749518   8.444861   8.011255
    39  F    7.791771   6.548478   6.862212   7.048666   6.526958
    40  C    6.588472   6.228137   7.100999   6.452079   6.876298
    41  O    7.699718   7.217218   8.239957   7.680115   8.083016
    42  H   11.251630  11.685679  11.972997  10.130278  10.689107
    43  H   10.469622  11.146200  11.146217   9.029337   9.606198
    44  H   10.601127  10.942264  11.028194   9.147228   9.529871
    45  H    7.627191   7.749562   8.721045   7.758923   8.514236
    46  H    6.732840   7.330144   8.014051   6.695507   7.626627
                   21         22         23         24         25
    21  F    0.000000
    22  F    2.162192   0.000000
    23  C    5.565452   5.170615   0.000000
    24  O    5.383130   5.204728   1.228261   0.000000
    25  N    6.774641   6.422588   1.373095   2.268319   0.000000
    26  C    7.758869   7.596654   2.444500   2.736417   1.457174
    27  F    8.509570   8.503995   3.477491   3.912831   2.274744
    28  F    7.334132   7.482917   2.702564   2.424278   2.318450
    29  C    8.888741   8.501351   3.442683   3.576766   2.598747
    30  F    9.557720   8.944997   3.995994   4.454330   2.968478
    31  O    9.930685   9.739050   4.659598   4.631385   3.767140
    32  C   11.015071  10.698937   5.749635   5.641494   4.950545
    33  F   10.853462  10.565873   5.920116   5.548948   5.405132
    34  F   12.095987  11.900580   6.871863   6.773263   5.970274
    35  F   11.386299  10.823193   5.963210   6.036116   5.126271
    36  C    8.469545   7.926968   3.365435   3.169291   3.107796
    37  F    7.659578   6.861109   2.696614   2.711325   2.772734
    38  F    9.613450   8.919755   4.629203   4.434414   4.347683
    39  F    8.071709   7.781913   3.558769   2.897271   3.620956
    40  C    7.407081   6.855322   2.405974   3.521033   1.374075
    41  O    8.624492   8.066453   3.516833   4.522376   2.279691
    42  H   11.229829   9.694967   7.602740   8.665806   7.150325
    43  H   10.129129   8.419605   7.222465   8.234430   7.091171
    44  H   10.351258   8.719530   6.619396   7.550842   6.344224
    45  H    8.563809   7.899481   4.688197   5.892841   3.881481
    46  H    7.431197   6.654578   4.685359   5.889862   4.368564
                   26         27         28         29         30
    26  C    0.000000
    27  F    1.375404   0.000000
    28  F    1.366973   2.132707   0.000000
    29  C    1.554167   2.372514   2.379367   0.000000
    30  F    2.388460   2.830655   3.560541   1.364457   0.000000
    31  O    2.410588   2.637491   2.793680   1.438648   2.240275
    32  C    3.700537   4.003266   4.048407   2.376277   2.799491
    33  F    4.200803   4.792088   4.215974   2.935612   3.663993
    34  F    4.631410   4.592470   4.891827   3.513767   3.819861
    35  F    4.133830   4.494580   4.808323   2.632515   2.415919
    36  C    2.498792   3.693537   2.870920   1.529643   2.359981
    37  F    2.855063   4.149038   3.386622   2.384462   2.783320
    38  F    3.716803   4.754339   4.131108   2.390770   2.767904
    39  F    2.906419   4.115919   2.603231   2.393668   3.553552
    40  C    2.419163   2.687821   3.548668   3.257216   3.031026
    41  O    2.713670   2.560531   4.015474   3.192154   2.576271
    42  H    8.030902   8.280653   9.298476   7.905687   6.792250
    43  H    8.176964   8.635601   9.314487   8.190345   7.278166
    44  H    7.209047   7.727782   8.399911   6.942977   5.937662
    45  H    4.821155   4.557049   5.938177   5.555630   4.918966
    46  H    5.628205   5.627449   6.548735   6.528991   6.079691
                   31         32         33         34         35
    31  O    0.000000
    32  C    1.401963   0.000000
    33  F    2.234669   1.343615   0.000000
    34  F    2.232017   1.345729   2.183769   0.000000
    35  F    2.269481   1.341589   2.200786   2.186790   0.000000
    36  C    2.522365   2.921345   2.819917   4.242421   3.051272
    37  F    3.686644   4.179864   4.139139   5.504984   4.054983
    38  F    2.979372   2.708103   2.407772   4.020605   2.475704
    39  F    2.951750   3.381398   2.847499   4.573281   3.918056
    40  C    4.402983   5.508726   6.190245   6.451222   5.426824
    41  O    4.119329   5.129431   6.033103   5.923385   4.920584
    42  H    9.020049   9.418617  10.173430  10.310686   8.478821
    43  H    9.464152   9.944023  10.524147  10.984822   9.098001
    44  H    8.155678   8.472451   9.047323   9.503744   7.527213
    45  H    6.516251   7.541758   8.435726   8.290387   7.253521
    46  H    7.655995   8.730348   9.451876   9.613156   8.484222
                   36         37         38         39         40
    36  C    0.000000
    37  F    1.354676   0.000000
    38  F    1.353928   2.157654   0.000000
    39  F    1.347242   2.188614   2.170895   0.000000
    40  C    3.969534   3.506204   5.008734   4.767071   0.000000
    41  O    4.219437   4.011630   5.061963   5.186283   1.228142
    42  H    8.148862   7.296004   8.316512   9.370248   6.012999
    43  H    8.184448   7.113080   8.447874   9.278175   6.106380
    44  H    6.904735   5.951202   6.986059   8.092156   5.447095
    45  H    6.398515   5.856962   7.261977   7.304455   2.559110
    46  H    7.082959   6.280384   8.034499   7.849123   3.287209
                   41         42         43         44         45
    41  O    0.000000
    42  H    5.755013   0.000000
    43  H    6.204340   1.771454   0.000000
    44  H    5.382449   1.771424   1.771393   0.000000
    45  H    2.416569   4.918123   5.272207   5.138238   0.000000
    46  H    3.723242   5.128864   4.918773   5.273758   1.760233
                   46
    46  H    0.000000
 Symmetry turned off by external request.
 Stoichiometry    C15H5F18N3O5(1+,2)
 Framework group  C1[X(C15H5F18N3O5)]
 Deg. of freedom   132
 Full point group                 C1      NOp   1
 Rotational constants (GHZ):      0.1284477      0.0588060      0.0484512
 Leave Link  202 at Sun Mar  3 18:21:03 2024, MaxMem=  5368709120 cpu:         0.1
 (Enter /home/k0335/k033513/app/g09/l301.exe)
 Standard basis: 6-31G(d,p) (6D, 7F)
 Ernie: Thresh=  0.10000D-02 Tol=  0.10000D-05 Strict=F.
   640 basis functions,  1183 primitive gaussians,   640 cartesian basis functions
   159 alpha electrons      158 beta electrons
       nuclear repulsion energy      6162.5849277693 Hartrees.
 IExCor=20419 DFT=T Ex+Corr=CAM-B3LYP ExCW=0 ScaHFX=  1.000000
 ScaDFX=  1.000000  1.000000  1.000000  0.810000 ScalE2=  1.000000  1.000000
 IRadAn=      0 IRanWt=     -1 IRanGd=            0 ICorTp=0 IEmpDi=  4
  HFx wShort=  0.000000 wLong=  0.330000 cFull=  0.190000 cShort=  0.000000 cLong=  0.460000
  DFx wShort=  0.000000 wLong=  0.330000 cFull=  0.190000 cShort=  0.000000 cLong=  0.460000
 NAtoms=   46 NActive=   46 NUniq=   46 SFac= 1.00D+00 NAtFMM=   60 NAOKFM=F Big=F
 Integral buffers will be    131072 words long.
 Raffenetti 2 integral format.
 Two-electron integral symmetry is turned off.
 Using the following non-standard input for PCM:
 eps=4.9
 --- end of non-standard input.
 ------------------------------------------------------------------------------
 Polarizable Continuum Model (PCM)
 =================================
 Model                : PCM (using non-symmetric T matrix).
 Atomic radii         : UFF (Universal Force Field).
 Polarization charges : Total charges.
 Charge compensation  : None.
 Solution method      : On-the-fly selection.
 Cavity type          : Scaled VdW (van der Waals Surface) (Alpha=1.100).
 Cavity algorithm     : GePol (No added spheres)
                        Default sphere list used, NSphG=   46.
                        Lebedev-Laikov grids with approx.  5.0 points / Ang**2.
                        Smoothing algorithm: Karplus/York (Gamma=1.0000).
                        Polarization charges: spherical gaussians, with
                                              point-specific exponents (IZeta= 3).
                        Self-potential: point-specific (ISelfS= 7).
                        Self-field    : sphere-specific E.n sum rule (ISelfD= 2).
 Solvent              : Generic,
                        Eps                           =   4.900000
                        Eps(infinity)                 =   0.000000
                        RSolv                         =   0.000000 Ang.
                        Molar volume                  =   0.000000 cm**3/mol
                        Thermal expansion coefficient =   0.000000 K**-1
                        Absolute temperature          = 298.150000 K
                        Numeral density               =   0.000000 Ang**-3
                        Hydrogen bond acidity         =   0.000000
                        Hydrogen bond basicity        =   0.000000
                        Surface tension at interface  =   0.000000 (cal/mol)*Ang**-2
                        Carbon aromaticity            =   0.000000
                        Electronegative halogenicity  =   0.000000
 ------------------------------------------------------------------------------
 GePol: Number of generator spheres                  =      46
 GePol: Total number of spheres                      =      46
 GePol: Number of exposed spheres                    =      46 (100.00%)
 GePol: Number of points                             =    3867
 GePol: Average weight of points                     =       0.13
 GePol: Minimum weight of points                     =   0.39D-09
 GePol: Maximum weight of points                     =    0.20577
 GePol: Number of points with low weight             =     157
 GePol: Fraction of low-weight points (<1% of avg)   =       4.06%
 GePol: Cavity surface area                          =    486.183 Ang**2
 GePol: Cavity volume                                =    559.841 Ang**3
 Leave Link  301 at Sun Mar  3 18:21:03 2024, MaxMem=  5368709120 cpu:         0.7
 (Enter /home/k0335/k033513/app/g09/l302.exe)
 NPDir=0 NMtPBC=     1 NCelOv=     1 NCel=       1 NClECP=     1 NCelD=      1
         NCelK=      1 NCelE2=     1 NClLst=     1 CellRange=     0.0.
 One-electron integrals computed using PRISM.
 NBasis=   640 RedAO= T EigKep=  2.16D-04  NBF=   640
 NBsUse=   640 1.00D-06 EigRej= -1.00D+00 NBFU=   640
 Precomputing XC quadrature grid using
 IXCGrd= 4 IRadAn=           0 IRanWt=          -1 IRanGd=           0 AccXCQ= 0.00D+00.
 Generated NRdTot=       0 NPtTot=           0 NUsed=           0 NTot=          32
 NSgBfM=   612   613   615   615   615 MxSgAt=    46 MxSgA2=    46.
 Leave Link  302 at Sun Mar  3 18:21:03 2024, MaxMem=  5368709120 cpu:        13.3
 (Enter /home/k0335/k033513/app/g09/l303.exe)
 DipDrv:  MaxL=1.
 Leave Link  303 at Sun Mar  3 18:21:03 2024, MaxMem=  5368709120 cpu:         1.0
 (Enter /home/k0335/k033513/app/g09/l401.exe)
 ExpMin= 1.61D-01 ExpMax= 7.00D+03 ExpMxC= 1.05D+03 IAcc=1 IRadAn=         1 AccDes= 0.00D+00
 Harris functional with IExCor=20419 and IRadAn=       1 diagonalized for initial guess.
 HarFok:  IExCor=20419 AccDes= 0.00D+00 IRadAn=         1 IDoV= 1 UseB2=F ITyADJ=14
 ICtDFT=  3500011 ScaDFX=  1.000000  1.000000  1.000000  1.000000
 FoFCou: FMM=F IPFlag=           0 FMFlag=      100000 FMFlg1=           0
         NFxFlg=           0 DoJE=T BraDBF=F KetDBF=T FulRan=T
         wScrn=  0.000000 ICntrl=     500 IOpCl=  0 I1Cent=   200000004 NGrid=           0
         NMat0=    1 NMatS0=      1 NMatT0=    0 NMatD0=    1 NMtDS0=    0 NMtDT0=    0
 Symmetry not used in FoFCou.
 Harris En= -2823.25473360726    
 JPrj=0 DoOrth=F DoCkMO=F.
 Initial guess <Sx>= 0.0000 <Sy>= 0.0000 <Sz>= 0.5000 <S**2>= 0.7500 S= 0.5000
 Leave Link  401 at Sun Mar  3 18:21:04 2024, MaxMem=  5368709120 cpu:        17.4
 (Enter /home/k0335/k033513/app/g09/l502.exe)
 UHF open shell SCF:
 Using DIIS extrapolation, IDIIS=  1040.
 Two-electron integral symmetry not used.
 IVT=     1266642 IEndB=     1266642 NGot=  5368709120 MDV=  5367869359
 LenX=  5367869359 LenY=  5367459119
 Requested convergence on RMS density matrix=1.00D-08 within 128 cycles.
 Requested convergence on MAX density matrix=1.00D-06.
 Requested convergence on             energy=1.00D-06.
 No special actions if energy rises.
 Fock matrices will be formed incrementally for  20 cycles.

 Cycle   1  Pass 1  IDiag  1:
 FoFJK:  IHMeth= 1 ICntrl=       0 DoSepK=T KAlg= 0 I1Cent=   0 FoldK=F
 IRaf=         1 NMat=   1 IRICut=       1 DoRegI=T DoRafI=F ISym2E= 0.
 FoFCou: FMM=F IPFlag=           0 FMFlag=      100000 FMFlg1=           0
         NFxFlg=           0 DoJE=T BraDBF=F KetDBF=F FulRan=T
         wScrn=  0.000000 ICntrl=     500 IOpCl=  0 I1Cent=           0 NGrid=           0
         NMat0=    1 NMatS0=      1 NMatT0=    0 NMatD0=    1 NMtDS0=    0 NMtDT0=    0
 Symmetry not used in FoFCou.
 Inv3:  Mode=1 IEnd=    44861067.
 Iteration    1 A*A^-1 deviation from unit magnitude is 7.11D-15 for   3856.
 Iteration    1 A*A^-1 deviation from orthogonality  is 4.60D-15 for   3811    208.
 Iteration    1 A^-1*A deviation from unit magnitude is 7.11D-15 for   3856.
 Iteration    1 A^-1*A deviation from orthogonality  is 3.50D-14 for   3849   3754.
 E= -2909.73761244601    
 DIIS: error= 4.27D-02 at cycle   1 NSaved=   1.
 NSaved= 1 IEnMin= 1 EnMin= -2909.73761244601     IErMin= 1 ErrMin= 4.27D-02
 ErrMax= 4.27D-02  0.00D+00 EMaxC= 1.00D-01 BMatC= 1.03D+01 BMatP= 1.03D+01
 IDIUse=3 WtCom= 5.73D-01 WtEn= 4.27D-01
 Coeff-Com:  0.100D+01
 Coeff-En:   0.100D+01
 Coeff:      0.100D+01
 Gap=     0.703 Goal=   None    Shift=    0.000
 Gap=     0.047 Goal=   None    Shift=    0.000
 GapD=    0.047 DampG=0.250 DampE=0.500 DampFc=0.2500 IDamp=-1.
 Damping current iteration by 2.50D-01
 RMSDP=3.37D-03 MaxDP=1.65D-01              OVMax= 5.34D-01

 Cycle   2  Pass 1  IDiag  1:
 RMSU=  8.42D-04    CP:  1.00D+00
 E= -2910.12654582776     Delta-E=       -0.388933381746 Rises=F Damp=T
 DIIS: error= 3.18D-02 at cycle   2 NSaved=   2.
 NSaved= 2 IEnMin= 2 EnMin= -2910.12654582776     IErMin= 2 ErrMin= 3.18D-02
 ErrMax= 3.18D-02  0.00D+00 EMaxC= 1.00D-01 BMatC= 4.26D+00 BMatP= 1.03D+01
 IDIUse=3 WtCom= 6.82D-01 WtEn= 3.18D-01
 Coeff-Com: -0.146D+01 0.246D+01
 Coeff-En:   0.000D+00 0.100D+01
 Coeff:     -0.999D+00 0.200D+01
 Gap=     0.447 Goal=   None    Shift=    0.000
 Gap=     0.104 Goal=   None    Shift=    0.000
 RMSDP=1.79D-03 MaxDP=9.42D-02 DE=-3.89D-01 OVMax= 1.47D-01

 Cycle   3  Pass 1  IDiag  1:
 RMSU=  1.05D-03    CP:  9.98D-01  2.72D+00
 E= -2910.83253320784     Delta-E=       -0.705987380079 Rises=F Damp=F
 DIIS: error= 9.00D-03 at cycle   3 NSaved=   3.
 NSaved= 3 IEnMin= 3 EnMin= -2910.83253320784     IErMin= 3 ErrMin= 9.00D-03
 ErrMax= 9.00D-03  0.00D+00 EMaxC= 1.00D-01 BMatC= 4.31D-01 BMatP= 4.26D+00
 IDIUse=3 WtCom= 9.10D-01 WtEn= 9.00D-02
 Coeff-Com: -0.521D+00 0.887D+00 0.634D+00
 Coeff-En:   0.000D+00 0.000D+00 0.100D+01
 Coeff:     -0.474D+00 0.807D+00 0.667D+00
 Gap=     0.390 Goal=   None    Shift=    0.000
 Gap=     0.096 Goal=   None    Shift=    0.000
 RMSDP=6.63D-04 MaxDP=5.53D-02 DE=-7.06D-01 OVMax= 8.96D-02

 Cycle   4  Pass 1  IDiag  1:
 RMSU=  5.69D-04    CP:  9.97D-01  2.80D+00  6.83D-01
 E= -2910.88638189244     Delta-E=       -0.053848684609 Rises=F Damp=F
 DIIS: error= 5.88D-03 at cycle   4 NSaved=   4.
 NSaved= 4 IEnMin= 4 EnMin= -2910.88638189244     IErMin= 4 ErrMin= 5.88D-03
 ErrMax= 5.88D-03  0.00D+00 EMaxC= 1.00D-01 BMatC= 1.50D-01 BMatP= 4.31D-01
 IDIUse=3 WtCom= 9.41D-01 WtEn= 5.88D-02
 Coeff-Com:  0.160D-01-0.795D-02 0.367D+00 0.625D+00
 Coeff-En:   0.000D+00 0.000D+00 0.258D+00 0.742D+00
 Coeff:      0.151D-01-0.749D-02 0.360D+00 0.632D+00
 Gap=     0.349 Goal=   None    Shift=    0.000
 Gap=     0.122 Goal=   None    Shift=    0.000
 RMSDP=2.87D-04 MaxDP=2.69D-02 DE=-5.38D-02 OVMax= 3.09D-02

 Cycle   5  Pass 1  IDiag  1:
 RMSU=  1.41D-04    CP:  9.96D-01  2.73D+00  8.61D-01  7.29D-01
 E= -2910.91199386318     Delta-E=       -0.025611970739 Rises=F Damp=F
 DIIS: error= 8.04D-04 at cycle   5 NSaved=   5.
 NSaved= 5 IEnMin= 5 EnMin= -2910.91199386318     IErMin= 5 ErrMin= 8.04D-04
 ErrMax= 8.04D-04  0.00D+00 EMaxC= 1.00D-01 BMatC= 7.26D-03 BMatP= 1.50D-01
 IDIUse=3 WtCom= 9.92D-01 WtEn= 8.04D-03
 Coeff-Com:  0.321D-01-0.430D-01 0.157D+00 0.327D+00 0.527D+00
 Coeff-En:   0.000D+00 0.000D+00 0.000D+00 0.000D+00 0.100D+01
 Coeff:      0.318D-01-0.427D-01 0.156D+00 0.324D+00 0.530D+00
 Gap=     0.348 Goal=   None    Shift=    0.000
 Gap=     0.125 Goal=   None    Shift=    0.000
 RMSDP=5.84D-05 MaxDP=3.96D-03 DE=-2.56D-02 OVMax= 5.65D-03

 Cycle   6  Pass 1  IDiag  1:
 RMSU=  4.66D-05    CP:  9.96D-01  2.75D+00  8.52D-01  7.56D-01  8.05D-01
 E= -2910.91330174175     Delta-E=       -0.001307878571 Rises=F Damp=F
 DIIS: error= 5.30D-04 at cycle   6 NSaved=   6.
 NSaved= 6 IEnMin= 6 EnMin= -2910.91330174175     IErMin= 6 ErrMin= 5.30D-04
 ErrMax= 5.30D-04  0.00D+00 EMaxC= 1.00D-01 BMatC= 2.86D-04 BMatP= 7.26D-03
 IDIUse=3 WtCom= 9.95D-01 WtEn= 5.30D-03
 Coeff-Com:  0.384D-02-0.673D-02-0.799D-02-0.988D-02 0.133D+00 0.888D+00
 Coeff-En:   0.000D+00 0.000D+00 0.000D+00 0.000D+00 0.000D+00 0.100D+01
 Coeff:      0.382D-02-0.670D-02-0.795D-02-0.983D-02 0.133D+00 0.888D+00
 Gap=     0.347 Goal=   None    Shift=    0.000
 Gap=     0.127 Goal=   None    Shift=    0.000
 RMSDP=2.16D-05 MaxDP=2.35D-03 DE=-1.31D-03 OVMax= 5.02D-03

 Cycle   7  Pass 1  IDiag  1:
 RMSU=  1.79D-05    CP:  9.96D-01  2.75D+00  8.58D-01  7.62D-01  8.71D-01
                    CP:  1.04D+00
 E= -2910.91340774390     Delta-E=       -0.000106002146 Rises=F Damp=F
 DIIS: error= 3.53D-04 at cycle   7 NSaved=   7.
 NSaved= 7 IEnMin= 7 EnMin= -2910.91340774390     IErMin= 7 ErrMin= 3.53D-04
 ErrMax= 3.53D-04  0.00D+00 EMaxC= 1.00D-01 BMatC= 3.79D-05 BMatP= 2.86D-04
 IDIUse=3 WtCom= 9.96D-01 WtEn= 3.53D-03
 Coeff-Com: -0.122D-02 0.150D-02-0.139D-01-0.290D-01 0.444D-03 0.281D+00
 Coeff-Com:  0.761D+00
 Coeff-En:   0.000D+00 0.000D+00 0.000D+00 0.000D+00 0.000D+00 0.000D+00
 Coeff-En:   0.100D+01
 Coeff:     -0.121D-02 0.149D-02-0.139D-01-0.289D-01 0.442D-03 0.280D+00
 Coeff:      0.762D+00
 Gap=     0.348 Goal=   None    Shift=    0.000
 Gap=     0.128 Goal=   None    Shift=    0.000
 RMSDP=8.25D-06 MaxDP=6.77D-04 DE=-1.06D-04 OVMax= 2.80D-03

 Cycle   8  Pass 1  IDiag  1:
 RMSU=  6.21D-06    CP:  9.96D-01  2.75D+00  8.58D-01  7.60D-01  8.88D-01
                    CP:  1.12D+00  1.15D+00
 E= -2910.91342824788     Delta-E=       -0.000020503976 Rises=F Damp=F
 DIIS: error= 1.51D-04 at cycle   8 NSaved=   8.
 NSaved= 8 IEnMin= 8 EnMin= -2910.91342824788     IErMin= 8 ErrMin= 1.51D-04
 ErrMax= 1.51D-04  0.00D+00 EMaxC= 1.00D-01 BMatC= 1.12D-05 BMatP= 3.79D-05
 IDIUse=3 WtCom= 9.98D-01 WtEn= 1.51D-03
 Coeff-Com: -0.336D-03 0.625D-03-0.332D-02-0.796D-02-0.252D-01-0.769D-01
 Coeff-Com:  0.317D+00 0.796D+00
 Coeff-En:   0.000D+00 0.000D+00 0.000D+00 0.000D+00 0.000D+00 0.000D+00
 Coeff-En:   0.000D+00 0.100D+01
 Coeff:     -0.336D-03 0.624D-03-0.331D-02-0.795D-02-0.251D-01-0.768D-01
 Coeff:      0.316D+00 0.797D+00
 Gap=     0.347 Goal=   None    Shift=    0.000
 Gap=     0.128 Goal=   None    Shift=    0.000
 RMSDP=5.26D-06 MaxDP=5.37D-04 DE=-2.05D-05 OVMax= 2.20D-03

 Cycle   9  Pass 1  IDiag  1:
 RMSU=  2.85D-06    CP:  9.96D-01  2.74D+00  8.58D-01  7.60D-01  8.95D-01
                    CP:  1.15D+00  1.37D+00  1.15D+00
 E= -2910.91343523736     Delta-E=       -0.000006989480 Rises=F Damp=F
 DIIS: error= 6.60D-05 at cycle   9 NSaved=   9.
 NSaved= 9 IEnMin= 9 EnMin= -2910.91343523736     IErMin= 9 ErrMin= 6.60D-05
 ErrMax= 6.60D-05  0.00D+00 EMaxC= 1.00D-01 BMatC= 2.58D-06 BMatP= 1.12D-05
 IDIUse=1 WtCom= 1.00D+00 WtEn= 0.00D+00
 Coeff-Com:  0.514D-03-0.655D-03 0.192D-02 0.384D-02-0.124D-01-0.109D+00
 Coeff-Com: -0.107D-01 0.362D+00 0.764D+00
 Coeff:      0.514D-03-0.655D-03 0.192D-02 0.384D-02-0.124D-01-0.109D+00
 Coeff:     -0.107D-01 0.362D+00 0.764D+00
 Gap=     0.347 Goal=   None    Shift=    0.000
 Gap=     0.128 Goal=   None    Shift=    0.000
 RMSDP=3.11D-06 MaxDP=2.97D-04 DE=-6.99D-06 OVMax= 1.45D-03

 Cycle  10  Pass 1  IDiag  1:
 RMSU=  1.63D-06    CP:  9.96D-01  2.74D+00  8.59D-01  7.60D-01  8.96D-01
                    CP:  1.17D+00  1.48D+00  1.38D+00  1.16D+00
 E= -2910.91343723182     Delta-E=       -0.000001994462 Rises=F Damp=F
 DIIS: error= 3.02D-05 at cycle  10 NSaved=  10.
 NSaved=10 IEnMin=10 EnMin= -2910.91343723182     IErMin=10 ErrMin= 3.02D-05
 ErrMax= 3.02D-05  0.00D+00 EMaxC= 1.00D-01 BMatC= 4.64D-07 BMatP= 2.58D-06
 IDIUse=1 WtCom= 1.00D+00 WtEn= 0.00D+00
 Coeff-Com:  0.330D-03-0.461D-03 0.158D-02 0.356D-02 0.704D-03-0.268D-01
 Coeff-Com: -0.689D-01-0.315D-01 0.292D+00 0.829D+00
 Coeff:      0.330D-03-0.461D-03 0.158D-02 0.356D-02 0.704D-03-0.268D-01
 Coeff:     -0.689D-01-0.315D-01 0.292D+00 0.829D+00
 Gap=     0.347 Goal=   None    Shift=    0.000
 Gap=     0.128 Goal=   None    Shift=    0.000
 RMSDP=1.64D-06 MaxDP=1.58D-04 DE=-1.99D-06 OVMax= 9.60D-04

 Cycle  11  Pass 1  IDiag  1:
 RMSU=  7.19D-07    CP:  9.96D-01  2.74D+00  8.58D-01  7.60D-01  8.96D-01
                    CP:  1.18D+00  1.52D+00  1.47D+00  1.48D+00  1.32D+00
 E= -2910.91343774878     Delta-E=       -0.000000516968 Rises=F Damp=F
 DIIS: error= 1.03D-05 at cycle  11 NSaved=  11.
 NSaved=11 IEnMin=11 EnMin= -2910.91343774878     IErMin=11 ErrMin= 1.03D-05
 ErrMax= 1.03D-05  0.00D+00 EMaxC= 1.00D-01 BMatC= 1.31D-07 BMatP= 4.64D-07
 IDIUse=1 WtCom= 1.00D+00 WtEn= 0.00D+00
 Coeff-Com: -0.513D-04 0.642D-04 0.476D-04 0.242D-03 0.293D-02 0.159D-01
 Coeff-Com: -0.227D-01-0.965D-01-0.708D-01 0.352D+00 0.819D+00
 Coeff:     -0.513D-04 0.642D-04 0.476D-04 0.242D-03 0.293D-02 0.159D-01
 Coeff:     -0.227D-01-0.965D-01-0.708D-01 0.352D+00 0.819D+00
 Gap=     0.347 Goal=   None    Shift=    0.000
 Gap=     0.128 Goal=   None    Shift=    0.000
 RMSDP=9.41D-07 MaxDP=1.09D-04 DE=-5.17D-07 OVMax= 5.92D-04

 Cycle  12  Pass 1  IDiag  1:
 RMSU=  3.28D-07    CP:  9.96D-01  2.74D+00  8.58D-01  7.60D-01  8.97D-01
                    CP:  1.18D+00  1.54D+00  1.53D+00  1.64D+00  1.66D+00
                    CP:  1.25D+00
 E= -2910.91343790581     Delta-E=       -0.000000157024 Rises=F Damp=F
 DIIS: error= 6.48D-06 at cycle  12 NSaved=  12.
 NSaved=12 IEnMin=12 EnMin= -2910.91343790581     IErMin=12 ErrMin= 6.48D-06
 ErrMax= 6.48D-06  0.00D+00 EMaxC= 1.00D-01 BMatC= 2.53D-08 BMatP= 1.31D-07
 IDIUse=1 WtCom= 1.00D+00 WtEn= 0.00D+00
 Coeff-Com: -0.939D-04 0.126D-03-0.334D-03-0.654D-03 0.716D-03 0.105D-01
 Coeff-Com:  0.636D-02-0.247D-01-0.830D-01-0.592D-01 0.245D+00 0.905D+00
 Coeff:     -0.939D-04 0.126D-03-0.334D-03-0.654D-03 0.716D-03 0.105D-01
 Coeff:      0.636D-02-0.247D-01-0.830D-01-0.592D-01 0.245D+00 0.905D+00
 Gap=     0.347 Goal=   None    Shift=    0.000
 Gap=     0.128 Goal=   None    Shift=    0.000
 RMSDP=5.61D-07 MaxDP=7.22D-05 DE=-1.57D-07 OVMax= 3.65D-04

 Cycle  13  Pass 1  IDiag  1:
 RMSU=  1.71D-07    CP:  9.96D-01  2.74D+00  8.58D-01  7.60D-01  8.97D-01
                    CP:  1.18D+00  1.55D+00  1.56D+00  1.74D+00  1.83D+00
                    CP:  1.57D+00  1.48D+00
 E= -2910.91343795417     Delta-E=       -0.000000048358 Rises=F Damp=F
 DIIS: error= 3.70D-06 at cycle  13 NSaved=  13.
 NSaved=13 IEnMin=13 EnMin= -2910.91343795417     IErMin=13 ErrMin= 3.70D-06
 ErrMax= 3.70D-06  0.00D+00 EMaxC= 1.00D-01 BMatC= 7.37D-09 BMatP= 2.53D-08
 IDIUse=1 WtCom= 1.00D+00 WtEn= 0.00D+00
 Coeff-Com: -0.780D-05 0.957D-05-0.113D-03-0.217D-03-0.576D-03-0.106D-02
 Coeff-Com:  0.843D-02 0.193D-01-0.560D-02-0.112D+00-0.158D+00 0.265D+00
 Coeff-Com:  0.986D+00
 Coeff:     -0.780D-05 0.957D-05-0.113D-03-0.217D-03-0.576D-03-0.106D-02
 Coeff:      0.843D-02 0.193D-01-0.560D-02-0.112D+00-0.158D+00 0.265D+00
 Coeff:      0.986D+00
 Gap=     0.347 Goal=   None    Shift=    0.000
 Gap=     0.128 Goal=   None    Shift=    0.000
 RMSDP=3.61D-07 MaxDP=4.84D-05 DE=-4.84D-08 OVMax= 2.34D-04

 Cycle  14  Pass 1  IDiag  1:
 RMSU=  7.87D-08    CP:  9.96D-01  2.74D+00  8.58D-01  7.60D-01  8.97D-01
                    CP:  1.18D+00  1.55D+00  1.58D+00  1.79D+00  1.94D+00
                    CP:  1.77D+00  1.98D+00  1.39D+00
 E= -2910.91343797069     Delta-E=       -0.000000016520 Rises=F Damp=F
 DIIS: error= 1.75D-06 at cycle  14 NSaved=  14.
 NSaved=14 IEnMin=14 EnMin= -2910.91343797069     IErMin=14 ErrMin= 1.75D-06
 ErrMax= 1.75D-06  0.00D+00 EMaxC= 1.00D-01 BMatC= 1.57D-09 BMatP= 7.37D-09
 IDIUse=1 WtCom= 1.00D+00 WtEn= 0.00D+00
 Coeff-Com:  0.193D-04-0.253D-04 0.397D-04 0.800D-04-0.392D-03-0.302D-02
 Coeff-Com:  0.672D-03 0.115D-01 0.193D-01-0.130D-01-0.106D+00-0.184D+00
 Coeff-Com:  0.249D+00 0.103D+01
 Coeff:      0.193D-04-0.253D-04 0.397D-04 0.800D-04-0.392D-03-0.302D-02
 Coeff:      0.672D-03 0.115D-01 0.193D-01-0.130D-01-0.106D+00-0.184D+00
 Coeff:      0.249D+00 0.103D+01
 Gap=     0.347 Goal=   None    Shift=    0.000
 Gap=     0.128 Goal=   None    Shift=    0.000
 RMSDP=2.04D-07 MaxDP=2.72D-05 DE=-1.65D-08 OVMax= 1.32D-04

 Cycle  15  Pass 1  IDiag  1:
 RMSU=  3.89D-08    CP:  9.96D-01  2.74D+00  8.58D-01  7.60D-01  8.97D-01
                    CP:  1.18D+00  1.55D+00  1.58D+00  1.82D+00  2.00D+00
                    CP:  1.88D+00  2.26D+00  1.77D+00  1.39D+00
 E= -2910.91343797464     Delta-E=       -0.000000003954 Rises=F Damp=F
 DIIS: error= 5.97D-07 at cycle  15 NSaved=  15.
 NSaved=15 IEnMin=15 EnMin= -2910.91343797464     IErMin=15 ErrMin= 5.97D-07
 ErrMax= 5.97D-07  0.00D+00 EMaxC= 1.00D-01 BMatC= 3.77D-10 BMatP= 1.57D-09
 IDIUse=1 WtCom= 1.00D+00 WtEn= 0.00D+00
 Coeff-Com:  0.832D-05-0.105D-04 0.333D-04 0.596D-04-0.379D-04-0.935D-03
 Coeff-Com: -0.123D-02 0.893D-03 0.770D-02 0.156D-01-0.109D-01-0.118D+00
 Coeff-Com: -0.851D-01 0.392D+00 0.800D+00
 Coeff:      0.832D-05-0.105D-04 0.333D-04 0.596D-04-0.379D-04-0.935D-03
 Coeff:     -0.123D-02 0.893D-03 0.770D-02 0.156D-01-0.109D-01-0.118D+00
 Coeff:     -0.851D-01 0.392D+00 0.800D+00
 Gap=     0.347 Goal=   None    Shift=    0.000
 Gap=     0.128 Goal=   None    Shift=    0.000
 RMSDP=6.19D-08 MaxDP=7.67D-06 DE=-3.95D-09 OVMax= 3.77D-05

 Cycle  16  Pass 1  IDiag  1:
 RMSU=  1.63D-08    CP:  9.96D-01  2.74D+00  8.58D-01  7.60D-01  8.97D-01
                    CP:  1.18D+00  1.55D+00  1.59D+00  1.83D+00  2.01D+00
                    CP:  1.91D+00  2.34D+00  1.89D+00  1.66D+00  1.25D+00
 E= -2910.91343797501     Delta-E=       -0.000000000364 Rises=F Damp=F
 DIIS: error= 2.40D-07 at cycle  16 NSaved=  16.
 NSaved=16 IEnMin=16 EnMin= -2910.91343797501     IErMin=16 ErrMin= 2.40D-07
 ErrMax= 2.40D-07  0.00D+00 EMaxC= 1.00D-01 BMatC= 7.56D-11 BMatP= 3.77D-10
 IDIUse=1 WtCom= 1.00D+00 WtEn= 0.00D+00
 Coeff-Com: -0.836D-06 0.113D-05 0.397D-05 0.271D-05 0.886D-04 0.366D-03
 Coeff-Com: -0.624D-03-0.223D-02-0.179D-02 0.826D-02 0.197D-01 0.326D-02
 Coeff-Com: -0.829D-01-0.103D+00 0.264D+00 0.895D+00
 Coeff:     -0.836D-06 0.113D-05 0.397D-05 0.271D-05 0.886D-04 0.366D-03
 Coeff:     -0.624D-03-0.223D-02-0.179D-02 0.826D-02 0.197D-01 0.326D-02
 Coeff:     -0.829D-01-0.103D+00 0.264D+00 0.895D+00
 Gap=     0.347 Goal=   None    Shift=    0.000
 Gap=     0.128 Goal=   None    Shift=    0.000
 RMSDP=2.52D-08 MaxDP=2.57D-06 DE=-3.64D-10 OVMax= 1.52D-05

 Cycle  17  Pass 1  IDiag  1:
 RMSU=  8.79D-09    CP:  9.96D-01  2.74D+00  8.58D-01  7.60D-01  8.97D-01
                    CP:  1.18D+00  1.55D+00  1.59D+00  1.83D+00  2.02D+00
                    CP:  1.92D+00  2.36D+00  1.94D+00  1.78D+00  1.53D+00
                    CP:  1.30D+00
 E= -2910.91343797505     Delta-E=       -0.000000000042 Rises=F Damp=F
 DIIS: error= 1.25D-07 at cycle  17 NSaved=  17.
 NSaved=17 IEnMin=17 EnMin= -2910.91343797505     IErMin=17 ErrMin= 1.25D-07
 ErrMax= 1.25D-07  0.00D+00 EMaxC= 1.00D-01 BMatC= 1.53D-11 BMatP= 7.56D-11
 IDIUse=1 WtCom= 1.00D+00 WtEn= 0.00D+00
 Coeff-Com: -0.149D-05 0.185D-05-0.374D-05-0.832D-05 0.354D-04 0.257D-03
 Coeff-Com: -0.634D-04-0.876D-03-0.174D-02 0.220D-03 0.811D-02 0.209D-01
 Coeff-Com: -0.133D-01-0.982D-01-0.551D-01 0.287D+00 0.853D+00
 Coeff:     -0.149D-05 0.185D-05-0.374D-05-0.832D-05 0.354D-04 0.257D-03
 Coeff:     -0.634D-04-0.876D-03-0.174D-02 0.220D-03 0.811D-02 0.209D-01
 Coeff:     -0.133D-01-0.982D-01-0.551D-01 0.287D+00 0.853D+00
 Gap=     0.347 Goal=   None    Shift=    0.000
 Gap=     0.128 Goal=   None    Shift=    0.000
 RMSDP=1.03D-08 MaxDP=9.37D-07 DE=-4.18D-11 OVMax= 6.85D-06

 Cycle  18  Pass 1  IDiag  1:
 RMSU=  4.23D-09    CP:  9.96D-01  2.74D+00  8.58D-01  7.60D-01  8.97D-01
                    CP:  1.18D+00  1.55D+00  1.59D+00  1.83D+00  2.02D+00
                    CP:  1.92D+00  2.37D+00  1.95D+00  1.82D+00  1.66D+00
                    CP:  1.61D+00  1.38D+00
 E= -2910.91343797528     Delta-E=       -0.000000000235 Rises=F Damp=F
 DIIS: error= 7.70D-08 at cycle  18 NSaved=  18.
 NSaved=18 IEnMin=18 EnMin= -2910.91343797528     IErMin=18 ErrMin= 7.70D-08
 ErrMax= 7.70D-08  0.00D+00 EMaxC= 1.00D-01 BMatC= 4.79D-12 BMatP= 1.53D-11
 IDIUse=1 WtCom= 1.00D+00 WtEn= 0.00D+00
 Coeff-Com: -0.372D-06 0.476D-06-0.214D-05-0.313D-05-0.113D-04-0.621D-05
 Coeff-Com:  0.137D-03 0.318D-03-0.290D-04-0.220D-02-0.270D-02 0.656D-02
 Coeff-Com:  0.170D-01-0.391D-02-0.891D-01-0.149D+00 0.295D+00 0.928D+00
 Coeff:     -0.372D-06 0.476D-06-0.214D-05-0.313D-05-0.113D-04-0.621D-05
 Coeff:      0.137D-03 0.318D-03-0.290D-04-0.220D-02-0.270D-02 0.656D-02
 Coeff:      0.170D-01-0.391D-02-0.891D-01-0.149D+00 0.295D+00 0.928D+00
 Gap=     0.347 Goal=   None    Shift=    0.000
 Gap=     0.128 Goal=   None    Shift=    0.000
 RMSDP=6.83D-09 MaxDP=6.66D-07 DE=-2.35D-10 OVMax= 4.26D-06

 Error on total polarization charges =  0.00193
 SCF Done:  E(UCAM-B3LYP) =  -2910.91343798     A.U. after   18 cycles
            NFock= 18  Conv=0.68D-08     -V/T= 2.0074
 <Sx>= 0.0000 <Sy>= 0.0000 <Sz>= 0.5000 <S**2>= 0.7518 S= 0.5009
 <L.S>= 0.000000000000E+00
 KE= 2.889522335939D+03 PE=-1.916970850282D+04 EE= 7.206687801134D+03
 Annihilation of the first spin contaminant:
 S**2 before annihilation     0.7518,   after     0.7500
 Leave Link  502 at Sun Mar  3 18:22:39 2024, MaxMem=  5368709120 cpu:      2185.7
 (Enter /home/k0335/k033513/app/g09/l601.exe)
 Copying SCF densities to generalized density rwf, IOpCl= 1 IROHF=0.

 **********************************************************************

            Population analysis using the SCF density.

 **********************************************************************

 Alpha  occ. eigenvalues --  -24.86337 -24.85486 -24.85190 -24.85110 -24.85103
 Alpha  occ. eigenvalues --  -24.85103 -24.84998 -24.84923 -24.84900 -24.84857
 Alpha  occ. eigenvalues --  -24.84822 -24.84816 -24.84802 -24.84756 -24.84530
 Alpha  occ. eigenvalues --  -24.84526 -24.84235 -24.84200 -19.34862 -19.34576
 Alpha  occ. eigenvalues --  -19.28461 -19.28342 -19.26862 -14.56491 -14.56307
 Alpha  occ. eigenvalues --  -14.56292 -10.61098 -10.60942 -10.57607 -10.57033
 Alpha  occ. eigenvalues --  -10.55949 -10.55830 -10.51163 -10.50999 -10.50174
 Alpha  occ. eigenvalues --  -10.50171 -10.49733 -10.46311 -10.45498 -10.43493
 Alpha  occ. eigenvalues --  -10.37274  -1.44804  -1.44713  -1.43769  -1.43322
 Alpha  occ. eigenvalues --   -1.41418  -1.40735  -1.37735  -1.37617  -1.35367
 Alpha  occ. eigenvalues --   -1.34998  -1.34872  -1.34801  -1.34644  -1.34528
 Alpha  occ. eigenvalues --   -1.34057  -1.33693  -1.33604  -1.33156  -1.27243
 Alpha  occ. eigenvalues --   -1.22458  -1.22174  -1.21945  -1.21487  -1.13786
 Alpha  occ. eigenvalues --   -1.12174  -1.12000  -1.04307  -0.96544  -0.95374
 Alpha  occ. eigenvalues --   -0.94544  -0.90443  -0.88189  -0.87287  -0.84571
 Alpha  occ. eigenvalues --   -0.83921  -0.82362  -0.81507  -0.79019  -0.78914
 Alpha  occ. eigenvalues --   -0.77766  -0.75816  -0.74705  -0.74226  -0.73835
 Alpha  occ. eigenvalues --   -0.72788  -0.72270  -0.71865  -0.71228  -0.71041
 Alpha  occ. eigenvalues --   -0.70520  -0.70209  -0.69915  -0.69610  -0.69186
 Alpha  occ. eigenvalues --   -0.68691  -0.68250  -0.67938  -0.67376  -0.66405
 Alpha  occ. eigenvalues --   -0.65799  -0.64661  -0.63471  -0.62969  -0.62098
 Alpha  occ. eigenvalues --   -0.61678  -0.60336  -0.59510  -0.59459  -0.59154
 Alpha  occ. eigenvalues --   -0.59148  -0.58802  -0.58762  -0.58287  -0.58218
 Alpha  occ. eigenvalues --   -0.57941  -0.57721  -0.57575  -0.57410  -0.57361
 Alpha  occ. eigenvalues --   -0.57045  -0.56767  -0.56595  -0.56271  -0.56048
 Alpha  occ. eigenvalues --   -0.55665  -0.55361  -0.55021  -0.54780  -0.54483
 Alpha  occ. eigenvalues --   -0.54230  -0.53880  -0.53735  -0.53620  -0.53094
 Alpha  occ. eigenvalues --   -0.52863  -0.52592  -0.52429  -0.52197  -0.51963
 Alpha  occ. eigenvalues --   -0.51779  -0.51439  -0.51274  -0.50778  -0.50655
 Alpha  occ. eigenvalues --   -0.50583  -0.50446  -0.49405  -0.48375  -0.47913
 Alpha  occ. eigenvalues --   -0.47736  -0.46498  -0.46281  -0.44275  -0.43138
 Alpha  occ. eigenvalues --   -0.42837  -0.42232  -0.41379  -0.39442
 Alpha virt. eigenvalues --   -0.04751  -0.04089  -0.03431  -0.02248   0.03266
 Alpha virt. eigenvalues --    0.03885   0.04673   0.05808   0.08152   0.09854
 Alpha virt. eigenvalues --    0.10537   0.11112   0.12152   0.12990   0.14372
 Alpha virt. eigenvalues --    0.15363   0.15476   0.15880   0.16852   0.17464
 Alpha virt. eigenvalues --    0.18003   0.18558   0.18784   0.19801   0.19994
 Alpha virt. eigenvalues --    0.20577   0.21072   0.21207   0.21365   0.21511
 Alpha virt. eigenvalues --    0.22115   0.22532   0.22811   0.23253   0.23522
 Alpha virt. eigenvalues --    0.23786   0.25215   0.25676   0.26380   0.26965
 Alpha virt. eigenvalues --    0.27172   0.28671   0.30332   0.31509   0.32685
 Alpha virt. eigenvalues --    0.33924   0.34797   0.35031   0.35754   0.37285
 Alpha virt. eigenvalues --    0.37525   0.42697   0.43704   0.44850   0.45666
 Alpha virt. eigenvalues --    0.46542   0.47642   0.48393   0.48955   0.49417
 Alpha virt. eigenvalues --    0.50313   0.50887   0.51441   0.51817   0.52085
 Alpha virt. eigenvalues --    0.52630   0.53336   0.53705   0.54322   0.55048
 Alpha virt. eigenvalues --    0.55138   0.55936   0.56589   0.57334   0.57427
 Alpha virt. eigenvalues --    0.58791   0.59031   0.59516   0.60192   0.61440
 Alpha virt. eigenvalues --    0.61573   0.62722   0.63427   0.64567   0.66924
 Alpha virt. eigenvalues --    0.67301   0.69254   0.70242   0.70527   0.70548
 Alpha virt. eigenvalues --    0.72052   0.72473   0.73662   0.75306   0.77972
 Alpha virt. eigenvalues --    0.78336   0.79355   0.79817   0.80948   0.82308
 Alpha virt. eigenvalues --    0.82757   0.83176   0.83491   0.84783   0.84991
 Alpha virt. eigenvalues --    0.85734   0.86462   0.87440   0.88706   0.89535
 Alpha virt. eigenvalues --    0.90188   0.91554   0.92163   0.93697   0.95009
 Alpha virt. eigenvalues --    0.95325   0.97053   0.97846   0.98939   0.99725
 Alpha virt. eigenvalues --    1.00242   1.00604   1.01322   1.02525   1.03555
 Alpha virt. eigenvalues --    1.04663   1.05753   1.06418   1.06753   1.07245
 Alpha virt. eigenvalues --    1.07981   1.08304   1.08778   1.09638   1.10090
 Alpha virt. eigenvalues --    1.11086   1.11485   1.11987   1.13768   1.14323
 Alpha virt. eigenvalues --    1.14754   1.15413   1.15535   1.16390   1.16804
 Alpha virt. eigenvalues --    1.17524   1.18070   1.18606   1.19722   1.20035
 Alpha virt. eigenvalues --    1.21266   1.21707   1.22299   1.23348   1.24000
 Alpha virt. eigenvalues --    1.25261   1.25986   1.27306   1.27432   1.28311
 Alpha virt. eigenvalues --    1.28932   1.29687   1.30580   1.30943   1.31786
 Alpha virt. eigenvalues --    1.32756   1.33119   1.33674   1.33977   1.34476
 Alpha virt. eigenvalues --    1.34934   1.35728   1.35861   1.36548   1.36708
 Alpha virt. eigenvalues --    1.36847   1.37762   1.38147   1.38484   1.38870
 Alpha virt. eigenvalues --    1.39194   1.39447   1.40141   1.40745   1.40825
 Alpha virt. eigenvalues --    1.41729   1.42353   1.42793   1.43037   1.43722
 Alpha virt. eigenvalues --    1.44534   1.44667   1.45016   1.45719   1.45897
 Alpha virt. eigenvalues --    1.46088   1.47047   1.47256   1.48039   1.48783
 Alpha virt. eigenvalues --    1.48955   1.49715   1.50545   1.51174   1.52345
 Alpha virt. eigenvalues --    1.53240   1.53679   1.54221   1.54404   1.55368
 Alpha virt. eigenvalues --    1.56250   1.56855   1.57973   1.58371   1.59466
 Alpha virt. eigenvalues --    1.59819   1.60720   1.62397   1.62657   1.63532
 Alpha virt. eigenvalues --    1.64219   1.64539   1.65719   1.66392   1.67284
 Alpha virt. eigenvalues --    1.67874   1.68285   1.69307   1.69727   1.70749
 Alpha virt. eigenvalues --    1.71581   1.71671   1.72292   1.73194   1.74071
 Alpha virt. eigenvalues --    1.75178   1.76122   1.76619   1.77108   1.77397
 Alpha virt. eigenvalues --    1.78148   1.78698   1.79304   1.80004   1.81374
 Alpha virt. eigenvalues --    1.81675   1.81951   1.82254   1.82598   1.82958
 Alpha virt. eigenvalues --    1.83253   1.84121   1.84193   1.84828   1.85318
 Alpha virt. eigenvalues --    1.85802   1.86173   1.86557   1.87034   1.87193
 Alpha virt. eigenvalues --    1.87769   1.88549   1.88830   1.88924   1.89180
 Alpha virt. eigenvalues --    1.89934   1.90358   1.90760   1.91125   1.91883
 Alpha virt. eigenvalues --    1.91961   1.92173   1.92359   1.93292   1.93906
 Alpha virt. eigenvalues --    1.94662   1.94838   1.95249   1.95869   1.96170
 Alpha virt. eigenvalues --    1.96905   1.97563   1.97979   1.98253   1.98582
 Alpha virt. eigenvalues --    1.99109   1.99469   1.99941   2.00306   2.00490
 Alpha virt. eigenvalues --    2.00823   2.01209   2.01810   2.02032   2.02274
 Alpha virt. eigenvalues --    2.02361   2.02534   2.03193   2.03489   2.03780
 Alpha virt. eigenvalues --    2.04017   2.04834   2.05785   2.06061   2.06404
 Alpha virt. eigenvalues --    2.07241   2.07732   2.07885   2.08010   2.08739
 Alpha virt. eigenvalues --    2.09005   2.09717   2.10579   2.11151   2.12114
 Alpha virt. eigenvalues --    2.12474   2.13010   2.13113   2.14277   2.15574
 Alpha virt. eigenvalues --    2.16183   2.16575   2.16826   2.17545   2.17564
 Alpha virt. eigenvalues --    2.18917   2.19123   2.20131   2.21094   2.21162
 Alpha virt. eigenvalues --    2.23199   2.24808   2.25524   2.25737   2.26371
 Alpha virt. eigenvalues --    2.26960   2.28494   2.28955   2.29904   2.31099
 Alpha virt. eigenvalues --    2.31816   2.33866   2.34577   2.34996   2.36445
 Alpha virt. eigenvalues --    2.37270   2.38874   2.39819   2.40324   2.40682
 Alpha virt. eigenvalues --    2.42185   2.42649   2.43832   2.45193   2.45505
 Alpha virt. eigenvalues --    2.46040   2.47413   2.47769   2.48934   2.49795
 Alpha virt. eigenvalues --    2.49903   2.51453   2.54388   2.55415   2.56043
 Alpha virt. eigenvalues --    2.57540   2.58401   2.59934   2.60888   2.61826
 Alpha virt. eigenvalues --    2.62768   2.63724   2.64372   2.66156   2.67540
 Alpha virt. eigenvalues --    2.69097   2.69736   2.69901   2.72097   2.72747
 Alpha virt. eigenvalues --    2.73640   2.74715   2.75450   2.76076   2.77085
 Alpha virt. eigenvalues --    2.78654   2.79821   2.81411   2.82005   2.82348
 Alpha virt. eigenvalues --    2.83511   2.85131   2.86872   2.87274   2.89242
 Alpha virt. eigenvalues --    2.89596   2.89875   2.90560   2.91693   2.91973
 Alpha virt. eigenvalues --    2.92538   2.94440   2.94875   2.96134   2.97200
 Alpha virt. eigenvalues --    2.98010   2.99581   3.00883   3.01618   3.02446
 Alpha virt. eigenvalues --    3.03595   3.03746   3.04962   3.05302   3.06502
 Alpha virt. eigenvalues --    3.07359   3.10439   3.11000   3.12391   3.12585
 Alpha virt. eigenvalues --    3.13860   3.14738   3.17019   3.17251   3.19601
 Alpha virt. eigenvalues --    3.21100   3.23730   3.24483   3.27244   3.27714
 Alpha virt. eigenvalues --    3.28838   3.29255   3.31954   3.34047   3.40155
 Alpha virt. eigenvalues --    3.40919   3.41238   3.44251   3.47044   3.50794
 Alpha virt. eigenvalues --    3.99621   4.06037   4.08925   4.11818   4.15844
 Alpha virt. eigenvalues --    4.16617   4.24157   4.25517   4.27480   4.31918
 Alpha virt. eigenvalues --    4.34605   4.38695   4.41643   4.44293   4.45645
 Alpha virt. eigenvalues --    4.46758   4.53953   4.56462   4.59861   4.60437
 Alpha virt. eigenvalues --    4.64350   4.67753   4.75656   4.78152   4.81858
 Alpha virt. eigenvalues --    4.84947   4.88391   4.98492   5.06411   5.22318
 Alpha virt. eigenvalues --    5.23879   5.29508   5.41270   5.47708   5.59628
 Alpha virt. eigenvalues --    5.62646   5.65892   6.20905   6.29723   6.35424
 Alpha virt. eigenvalues --    6.66804
  Beta  occ. eigenvalues --  -24.86337 -24.85486 -24.85190 -24.85110 -24.85103
  Beta  occ. eigenvalues --  -24.85103 -24.84998 -24.84923 -24.84900 -24.84857
  Beta  occ. eigenvalues --  -24.84822 -24.84816 -24.84802 -24.84756 -24.84530
  Beta  occ. eigenvalues --  -24.84526 -24.84235 -24.84200 -19.34862 -19.34576
  Beta  occ. eigenvalues --  -19.28453 -19.28331 -19.26862 -14.56490 -14.56307
  Beta  occ. eigenvalues --  -14.56297 -10.61098 -10.60942 -10.57607 -10.57033
  Beta  occ. eigenvalues --  -10.55949 -10.55830 -10.51163 -10.50999 -10.50173
  Beta  occ. eigenvalues --  -10.50171 -10.49733 -10.45645 -10.44801 -10.43491
  Beta  occ. eigenvalues --  -10.37265  -1.44804  -1.44713  -1.43769  -1.43322
  Beta  occ. eigenvalues --   -1.41418  -1.40735  -1.37735  -1.37617  -1.35367
  Beta  occ. eigenvalues --   -1.34998  -1.34872  -1.34801  -1.34644  -1.34528
  Beta  occ. eigenvalues --   -1.34057  -1.33693  -1.33604  -1.33156  -1.27237
  Beta  occ. eigenvalues --   -1.22456  -1.22166  -1.21940  -1.21479  -1.13769
  Beta  occ. eigenvalues --   -1.12099  -1.11995  -1.01205  -0.96396  -0.95373
  Beta  occ. eigenvalues --   -0.94227  -0.89451  -0.88083  -0.87280  -0.84569
  Beta  occ. eigenvalues --   -0.83913  -0.82248  -0.81499  -0.78972  -0.78890
  Beta  occ. eigenvalues --   -0.77762  -0.75800  -0.74704  -0.74218  -0.73828
  Beta  occ. eigenvalues --   -0.72756  -0.72265  -0.71854  -0.71220  -0.71006
  Beta  occ. eigenvalues --   -0.70508  -0.70124  -0.69797  -0.69425  -0.69183
  Beta  occ. eigenvalues --   -0.68591  -0.68243  -0.67916  -0.67324  -0.66378
  Beta  occ. eigenvalues --   -0.65703  -0.64226  -0.63097  -0.62099  -0.61681
  Beta  occ. eigenvalues --   -0.60386  -0.60291  -0.59436  -0.59141  -0.58860
  Beta  occ. eigenvalues --   -0.58801  -0.58734  -0.58288  -0.58208  -0.57966
  Beta  occ. eigenvalues --   -0.57747  -0.57612  -0.57549  -0.57393  -0.57273
  Beta  occ. eigenvalues --   -0.56805  -0.56731  -0.56593  -0.56129  -0.56022
  Beta  occ. eigenvalues --   -0.55656  -0.55355  -0.55018  -0.54734  -0.54475
  Beta  occ. eigenvalues --   -0.54226  -0.53868  -0.53733  -0.53617  -0.53086
  Beta  occ. eigenvalues --   -0.52859  -0.52588  -0.52427  -0.52196  -0.51962
  Beta  occ. eigenvalues --   -0.51777  -0.51439  -0.51271  -0.50776  -0.50653
  Beta  occ. eigenvalues --   -0.50572  -0.50444  -0.47957  -0.47762  -0.47412
  Beta  occ. eigenvalues --   -0.46499  -0.46280  -0.44236  -0.43101  -0.42822
  Beta  occ. eigenvalues --   -0.42157  -0.41373  -0.39431
  Beta virt. eigenvalues --   -0.26605  -0.03940  -0.03209  -0.02084   0.00700
  Beta virt. eigenvalues --    0.03267   0.03924   0.04714   0.05827   0.08270
  Beta virt. eigenvalues --    0.10290   0.10714   0.11216   0.12322   0.13264
  Beta virt. eigenvalues --    0.14524   0.15417   0.15892   0.16253   0.17540
  Beta virt. eigenvalues --    0.17625   0.18035   0.18566   0.18838   0.19962
  Beta virt. eigenvalues --    0.20207   0.20705   0.21203   0.21265   0.21376
  Beta virt. eigenvalues --    0.21631   0.22133   0.22640   0.22873   0.23256
  Beta virt. eigenvalues --    0.23526   0.23791   0.25217   0.25677   0.26386
  Beta virt. eigenvalues --    0.26974   0.27175   0.28674   0.30354   0.31532
  Beta virt. eigenvalues --    0.32788   0.34131   0.34930   0.35099   0.35872
  Beta virt. eigenvalues --    0.37408   0.37941   0.42924   0.44269   0.45496
  Beta virt. eigenvalues --    0.45903   0.46867   0.47781   0.48577   0.49150
  Beta virt. eigenvalues --    0.49468   0.50359   0.50927   0.51470   0.51946
  Beta virt. eigenvalues --    0.52144   0.52706   0.53347   0.53753   0.54491
  Beta virt. eigenvalues --    0.55065   0.55300   0.56025   0.57107   0.57347
  Beta virt. eigenvalues --    0.57432   0.58858   0.59201   0.59565   0.60427
  Beta virt. eigenvalues --    0.61672   0.61732   0.63173   0.63618   0.64648
  Beta virt. eigenvalues --    0.66955   0.67576   0.69977   0.70518   0.70769
  Beta virt. eigenvalues --    0.71112   0.72237   0.72703   0.74037   0.75473
  Beta virt. eigenvalues --    0.78108   0.78404   0.79465   0.79889   0.81113
  Beta virt. eigenvalues --    0.82901   0.83141   0.83314   0.83611   0.84871
  Beta virt. eigenvalues --    0.85236   0.85830   0.86586   0.87485   0.89159
  Beta virt. eigenvalues --    0.89642   0.90233   0.91683   0.92257   0.93912
  Beta virt. eigenvalues --    0.95049   0.95477   0.97095   0.97872   0.98960
  Beta virt. eigenvalues --    0.99785   1.00289   1.00640   1.01462   1.03010
  Beta virt. eigenvalues --    1.03643   1.04831   1.05768   1.06425   1.07058
  Beta virt. eigenvalues --    1.07309   1.07991   1.08457   1.08909   1.09673
  Beta virt. eigenvalues --    1.10166   1.11094   1.11666   1.12011   1.13772
  Beta virt. eigenvalues --    1.14398   1.14933   1.15417   1.15596   1.16412
  Beta virt. eigenvalues --    1.16823   1.17538   1.18083   1.18635   1.19786
  Beta virt. eigenvalues --    1.20040   1.21296   1.21806   1.22321   1.23351
  Beta virt. eigenvalues --    1.24026   1.25276   1.25992   1.27317   1.27449
  Beta virt. eigenvalues --    1.28320   1.28943   1.29699   1.30595   1.30953
  Beta virt. eigenvalues --    1.31797   1.32759   1.33127   1.33703   1.33992
  Beta virt. eigenvalues --    1.34487   1.34977   1.35756   1.35897   1.36567
  Beta virt. eigenvalues --    1.36748   1.36862   1.38201   1.38261   1.38545
  Beta virt. eigenvalues --    1.38879   1.39417   1.39878   1.40536   1.40855
  Beta virt. eigenvalues --    1.41285   1.42268   1.42842   1.43212   1.43814
  Beta virt. eigenvalues --    1.44553   1.44984   1.45221   1.45741   1.45964
  Beta virt. eigenvalues --    1.46187   1.46473   1.47171   1.47415   1.48182
  Beta virt. eigenvalues --    1.48834   1.49165   1.49790   1.50579   1.51429
  Beta virt. eigenvalues --    1.52418   1.53355   1.53796   1.54287   1.54448
  Beta virt. eigenvalues --    1.55645   1.56281   1.56911   1.57978   1.58402
  Beta virt. eigenvalues --    1.59497   1.59832   1.60917   1.62494   1.62872
  Beta virt. eigenvalues --    1.63666   1.64556   1.64722   1.65878   1.66667
  Beta virt. eigenvalues --    1.67641   1.68295   1.68654   1.69350   1.69736
  Beta virt. eigenvalues --    1.71006   1.71618   1.71692   1.72349   1.73217
  Beta virt. eigenvalues --    1.74111   1.75208   1.76175   1.76636   1.77136
  Beta virt. eigenvalues --    1.77582   1.78286   1.79281   1.80033   1.80999
  Beta virt. eigenvalues --    1.81718   1.81888   1.82252   1.82354   1.82897
  Beta virt. eigenvalues --    1.83181   1.83401   1.84123   1.84216   1.84919
  Beta virt. eigenvalues --    1.85402   1.85814   1.86194   1.86667   1.87066
  Beta virt. eigenvalues --    1.87445   1.87823   1.88604   1.88917   1.89249
  Beta virt. eigenvalues --    1.89340   1.89958   1.90486   1.90794   1.91171
  Beta virt. eigenvalues --    1.91908   1.91971   1.92235   1.92361   1.93355
  Beta virt. eigenvalues --    1.93951   1.94785   1.94878   1.95332   1.95887
  Beta virt. eigenvalues --    1.96195   1.97482   1.97894   1.97986   1.98305
  Beta virt. eigenvalues --    1.98585   1.99130   1.99479   1.99961   2.00380
  Beta virt. eigenvalues --    2.00506   2.00897   2.01308   2.01813   2.02097
  Beta virt. eigenvalues --    2.02279   2.02384   2.03149   2.03269   2.03502
  Beta virt. eigenvalues --    2.03841   2.04188   2.04942   2.05808   2.06072
  Beta virt. eigenvalues --    2.07252   2.07313   2.07734   2.07885   2.08158
  Beta virt. eigenvalues --    2.08870   2.09045   2.09744   2.10585   2.11237
  Beta virt. eigenvalues --    2.12125   2.12501   2.13298   2.13751   2.14698
  Beta virt. eigenvalues --    2.15598   2.16208   2.16649   2.16831   2.17567
  Beta virt. eigenvalues --    2.17692   2.18932   2.19129   2.20148   2.21112
  Beta virt. eigenvalues --    2.21329   2.23416   2.24818   2.25532   2.25762
  Beta virt. eigenvalues --    2.26383   2.27113   2.28551   2.29065   2.30007
  Beta virt. eigenvalues --    2.31172   2.31906   2.34121   2.34659   2.35005
  Beta virt. eigenvalues --    2.36451   2.37443   2.38895   2.39833   2.40336
  Beta virt. eigenvalues --    2.40707   2.42215   2.42718   2.43865   2.45367
  Beta virt. eigenvalues --    2.45532   2.46098   2.47432   2.48573   2.48944
  Beta virt. eigenvalues --    2.49851   2.50201   2.51468   2.54437   2.55455
  Beta virt. eigenvalues --    2.56048   2.57675   2.58461   2.59992   2.61006
  Beta virt. eigenvalues --    2.61960   2.62794   2.63772   2.64390   2.66234
  Beta virt. eigenvalues --    2.67617   2.69208   2.69784   2.70233   2.72360
  Beta virt. eigenvalues --    2.72889   2.73735   2.74789   2.75780   2.76704
  Beta virt. eigenvalues --    2.77219   2.78776   2.79853   2.81459   2.82024
  Beta virt. eigenvalues --    2.82459   2.83551   2.85179   2.86895   2.87327
  Beta virt. eigenvalues --    2.89248   2.89601   2.89885   2.90566   2.91721
  Beta virt. eigenvalues --    2.92019   2.92576   2.94444   2.94919   2.96408
  Beta virt. eigenvalues --    2.97878   2.98125   2.99736   3.01248   3.01932
  Beta virt. eigenvalues --    3.02483   3.03596   3.03765   3.04969   3.05305
  Beta virt. eigenvalues --    3.06515   3.07373   3.10447   3.11040   3.12416
  Beta virt. eigenvalues --    3.13133   3.13912   3.14797   3.17059   3.17254
  Beta virt. eigenvalues --    3.19643   3.21107   3.23743   3.24982   3.27246
  Beta virt. eigenvalues --    3.27717   3.28839   3.29256   3.31959   3.34055
  Beta virt. eigenvalues --    3.40494   3.41319   3.41433   3.44783   3.47931
  Beta virt. eigenvalues --    3.50959   3.99649   4.06151   4.10170   4.11891
  Beta virt. eigenvalues --    4.15855   4.16718   4.24171   4.26212   4.27499
  Beta virt. eigenvalues --    4.31942   4.34623   4.38699   4.41646   4.44299
  Beta virt. eigenvalues --    4.45646   4.46765   4.53956   4.56464   4.59864
  Beta virt. eigenvalues --    4.61005   4.64361   4.67810   4.75721   4.78287
  Beta virt. eigenvalues --    4.82005   4.84969   4.88620   4.98508   5.06414
  Beta virt. eigenvalues --    5.22318   5.23879   5.29508   5.41270   5.47708
  Beta virt. eigenvalues --    5.59629   5.62647   5.65892   6.20905   6.29723
  Beta virt. eigenvalues --    6.35424   6.66804
          Condensed to atoms (all electrons):
               1          2          3          4          5          6
     1  C    5.009777   0.384081  -0.061262   0.002040  -0.000007  -0.000008
     2  C    0.384081   4.847808   0.642064  -0.064214   0.000475  -0.000964
     3  C   -0.061262   0.642064   4.929767   0.323285  -0.063417  -0.003647
     4  C    0.002040  -0.064214   0.323285   4.965697   0.256026  -0.018677
     5  N   -0.000007   0.000475  -0.063417   0.256026   7.367313   0.232284
     6  C   -0.000008  -0.000964  -0.003647  -0.018677   0.232284   4.176187
     7  O   -0.000002  -0.000594  -0.001880   0.002699  -0.090473   0.583702
     8  N    0.000000   0.000024  -0.000328   0.003552  -0.095703   0.212251
     9  C    0.000000   0.000001   0.000006  -0.000041   0.001654  -0.014559
    10  F    0.000000   0.000000   0.000000   0.000000  -0.000023   0.000846
    11  F    0.000000   0.000000  -0.000002   0.000007   0.000036   0.008479
    12  C    0.000000   0.000000   0.000000   0.000002  -0.000282  -0.000729
    13  F    0.000000   0.000000   0.000000   0.000003   0.000011   0.008451
    14  O    0.000000   0.000000   0.000000   0.000000  -0.000004   0.000065
    15  C    0.000000   0.000000   0.000000   0.000000   0.000000  -0.000007
    16  F    0.000000   0.000000   0.000000   0.000000   0.000000   0.000001
    17  F    0.000000   0.000000   0.000000   0.000000   0.000000   0.000000
    18  F    0.000000   0.000000   0.000000   0.000000   0.000000   0.000000
    19  C    0.000000   0.000000   0.000000   0.000000   0.000000   0.000320
    20  F    0.000000   0.000000   0.000000   0.000000   0.000000   0.000000
    21  F    0.000000   0.000000   0.000000   0.000000   0.000000   0.000000
    22  F    0.000000   0.000000   0.000000   0.000000   0.000000  -0.000005
    23  C    0.000000   0.000004   0.000046   0.000070  -0.002355  -0.013805
    24  O    0.000000   0.000000   0.000000   0.000003   0.000190  -0.000141
    25  N    0.000000  -0.000027  -0.000411   0.003761  -0.094307  -0.001267
    26  C    0.000000   0.000000   0.000006  -0.000025   0.001463   0.000032
    27  F    0.000000   0.000000   0.000000   0.000009   0.000016  -0.000008
    28  F    0.000000   0.000000   0.000000   0.000000  -0.000021  -0.000002
    29  C    0.000000   0.000000   0.000000   0.000002  -0.000253   0.000045
    30  F    0.000000   0.000000  -0.000001   0.000003   0.000023   0.000004
    31  O    0.000000   0.000000   0.000000   0.000000   0.000000   0.000000
    32  C    0.000000   0.000000   0.000000   0.000000   0.000000   0.000000
    33  F    0.000000   0.000000   0.000000   0.000000   0.000000   0.000000
    34  F    0.000000   0.000000   0.000000   0.000000   0.000000   0.000000
    35  F    0.000000   0.000000   0.000000   0.000000   0.000000   0.000000
    36  C    0.000000   0.000000   0.000000   0.000000   0.000019  -0.000008
    37  F    0.000000   0.000000   0.000000   0.000000  -0.000073   0.000127
    38  F    0.000000   0.000000   0.000000   0.000000   0.000000   0.000000
    39  F    0.000000   0.000000   0.000000   0.000000   0.000000   0.000000
    40  C   -0.000008  -0.000913  -0.004873  -0.018750   0.231317  -0.017603
    41  O   -0.000003  -0.000926  -0.001592   0.004948  -0.090514   0.000328
    42  H    0.369994  -0.019416   0.000692  -0.000027  -0.000002   0.000000
    43  H    0.358058  -0.013565   0.001980  -0.000004  -0.000001   0.000000
    44  H    0.370530  -0.020657   0.002176   0.000026   0.000010  -0.000001
    45  H   -0.000025  -0.000667  -0.029512   0.376686  -0.033992   0.002895
    46  H   -0.000022  -0.000195  -0.028914   0.373325  -0.035106  -0.001207
               7          8          9         10         11         12
     1  C   -0.000002   0.000000   0.000000   0.000000   0.000000   0.000000
     2  C   -0.000594   0.000024   0.000001   0.000000   0.000000   0.000000
     3  C   -0.001880  -0.000328   0.000006   0.000000  -0.000002   0.000000
     4  C    0.002699   0.003552  -0.000041   0.000000   0.000007   0.000002
[...]
     7   Atom       -0.004157     -0.007901      0.012058
     8   Atom       -0.000799      0.000894     -0.000095
     9   Atom       -0.000136     -0.000019      0.000156
    10   Atom       -0.000241     -0.000101      0.000342
    11   Atom        0.000026     -0.000712      0.000686
    12   Atom        0.000082      0.000062     -0.000144
    13   Atom        0.000394      0.000003     -0.000398
    14   Atom       -0.000069      0.000255     -0.000187
    15   Atom       -0.000003      0.000158     -0.000155
    16   Atom        0.000097      0.000094     -0.000191
    17   Atom       -0.000054      0.000215     -0.000161
    18   Atom       -0.000007      0.000083     -0.000076
    19   Atom        0.000108     -0.000078     -0.000030
    20   Atom       -0.000007     -0.000047      0.000054
    21   Atom        0.000125     -0.000046     -0.000079
    22   Atom        0.000203     -0.000215      0.000012
    23   Atom       -0.000839      0.001038     -0.000199
    24   Atom       -0.001019      0.000987      0.000032
    25   Atom       -0.000890      0.001433     -0.000543
    26   Atom       -0.000632      0.001117     -0.000485
    27   Atom       -0.000577      0.001143     -0.000566
    28   Atom       -0.000367      0.000629     -0.000262
    29   Atom       -0.000371      0.000649     -0.000278
    30   Atom       -0.000069      0.000550     -0.000481
    31   Atom       -0.000171      0.000431     -0.000260
    32   Atom       -0.000048      0.000210     -0.000162
    33   Atom       -0.000078      0.000144     -0.000066
    34   Atom       -0.000005      0.000161     -0.000156
    35   Atom        0.000063      0.000124     -0.000188
    36   Atom       -0.000374      0.000325      0.000049
    37   Atom       -0.000677      0.000269      0.000407
    38   Atom       -0.000184      0.000095      0.000089
    39   Atom       -0.000291      0.000253      0.000037
    40   Atom       -0.001895      0.003967     -0.002072
    41   Atom       -0.003481     -0.003232      0.006713
    42   Atom       -0.003208      0.004813     -0.001605
    43   Atom       -0.003543      0.012341     -0.008798
    44   Atom       -0.002845     -0.003666      0.006511
    45   Atom       -0.008184      0.001904      0.006280
    46   Atom        0.007052     -0.003830     -0.003223
 --------------------------------------------------------
                        XY            XZ            YZ
 --------------------------------------------------------
     1   Atom        0.025905      0.016278      0.012065
     2   Atom        0.264846      0.159323      0.091957
     3   Atom        0.275575      0.165570      0.092663
     4   Atom        0.022890      0.015440      0.008156
     5   Atom       -0.002293      0.000821     -0.002947
     6   Atom       -0.002711      0.002306     -0.002356
     7   Atom       -0.001722      0.003917      0.000634
     8   Atom       -0.001107      0.000903     -0.001447
     9   Atom       -0.000728      0.000778     -0.000845
    10   Atom       -0.000315      0.000574     -0.000564
    11   Atom       -0.000643      0.001059     -0.000792
    12   Atom       -0.000555      0.000439     -0.000418
    13   Atom       -0.000756      0.000416     -0.000304
    14   Atom       -0.000442      0.000246     -0.000341
    15   Atom       -0.000304      0.000138     -0.000177
    16   Atom       -0.000329      0.000119     -0.000115
    17   Atom       -0.000246      0.000077     -0.000128
    18   Atom       -0.000207      0.000127     -0.000156
    19   Atom       -0.000307      0.000337     -0.000245
    20   Atom       -0.000210      0.000258     -0.000232
    21   Atom       -0.000237      0.000210     -0.000144
    22   Atom       -0.000254      0.000433     -0.000195
    23   Atom       -0.000440      0.000326     -0.001220
    24   Atom        0.000177      0.000589     -0.000606
    25   Atom       -0.000186     -0.000410     -0.001142
    26   Atom        0.000302     -0.000100     -0.000646
    27   Atom        0.000338     -0.000108     -0.000205
    28   Atom        0.000085      0.000016     -0.000339
    29   Atom        0.000508     -0.000284     -0.000608
    30   Atom        0.001138     -0.000839     -0.000817
    31   Atom        0.000385     -0.000147     -0.000285
    32   Atom        0.000317     -0.000154     -0.000219
    33   Atom        0.000209     -0.000134     -0.000217
    34   Atom        0.000253     -0.000086     -0.000115
    35   Atom        0.000424     -0.000250     -0.000258
    36   Atom        0.000309     -0.000258     -0.000654
    37   Atom        0.000272     -0.000309     -0.001051
    38   Atom        0.000306     -0.000315     -0.000471
    39   Atom        0.000128     -0.000104     -0.000444
    40   Atom        0.000538     -0.000247     -0.002833
    41   Atom        0.000158     -0.010653      0.003292
    42   Atom       -0.009100      0.002889     -0.006022
    43   Atom        0.007735      0.002063      0.008223
    44   Atom       -0.004423     -0.006855      0.004081
    45   Atom       -0.000629      0.003782      0.011072
    46   Atom       -0.004322     -0.011857      0.002196
 --------------------------------------------------------


 ---------------------------------------------------------------------------------
              Anisotropic Spin Dipole Couplings in Principal Axis System
 ---------------------------------------------------------------------------------

       Atom             a.u.   MegaHertz   Gauss  10(-4) cm-1        Axes

              Baa    -0.0370    -4.971    -1.774    -1.658 -0.0499 -0.4142  0.9088
     1 C(13)  Bbb    -0.0215    -2.881    -1.028    -0.961 -0.4173  0.8354  0.3578
              Bcc     0.0585     7.852     2.802     2.619  0.9074  0.3614  0.2146
 
              Baa    -0.3107   -41.690   -14.876   -13.906 -0.0607 -0.3904  0.9186
     2 C(13)  Bbb    -0.2364   -31.728   -11.321   -10.583 -0.4337  0.8392  0.3280
              Bcc     0.5471    73.418    26.197    24.490  0.8990  0.3785  0.2203
 
              Baa    -0.3208   -43.053   -15.362   -14.361 -0.0547 -0.4024  0.9138
     3 C(13)  Bbb    -0.2513   -33.721   -12.033   -11.248 -0.4289  0.8359  0.3424
              Bcc     0.5721    76.774    27.395    25.609  0.9017  0.3732  0.2183
 
              Baa    -0.0328    -4.395    -1.568    -1.466 -0.1536 -0.1834  0.9710
     4 C(13)  Bbb    -0.0180    -2.412    -0.861    -0.805 -0.4046  0.9082  0.1075
              Bcc     0.0507     6.807     2.429     2.271  0.9015  0.3763  0.2137
 
              Baa    -0.0034    -0.131    -0.047    -0.044  0.9494  0.3058  0.0721
     5 N(14)  Bbb    -0.0029    -0.111    -0.040    -0.037 -0.1741  0.3211  0.9309
              Bcc     0.0063     0.242     0.086     0.081 -0.2615  0.8963 -0.3581
 
              Baa    -0.0030    -0.398    -0.142    -0.133  0.7885  0.1790 -0.5884
     6 C(13)  Bbb    -0.0021    -0.280    -0.100    -0.093  0.3128  0.7070  0.6342
              Bcc     0.0051     0.678     0.242     0.226 -0.5296  0.6841 -0.5015
 
              Baa    -0.0088     0.636     0.227     0.212  0.4248  0.8989 -0.1072
     7 O(17)  Bbb    -0.0042     0.302     0.108     0.101  0.8777 -0.4379 -0.1948
              Bcc     0.0130    -0.938    -0.335    -0.313  0.2220  0.0113  0.9750
 
              Baa    -0.0014    -0.055    -0.020    -0.018  0.8873  0.1514 -0.4357
     8 N(14)  Bbb    -0.0011    -0.043    -0.015    -0.014  0.2413  0.6527  0.7182
              Bcc     0.0025     0.098     0.035     0.033 -0.3931  0.7423 -0.5426
 
              Baa    -0.0008    -0.108    -0.039    -0.036  0.7250  0.6885  0.0184
     9 C(13)  Bbb    -0.0008    -0.103    -0.037    -0.034 -0.4428  0.4455  0.7781
              Bcc     0.0016     0.212     0.076     0.071  0.5276 -0.5722  0.6279
 
              Baa    -0.0006    -0.300    -0.107    -0.100  0.8012 -0.1499 -0.5793
    10 F(19)  Bbb    -0.0005    -0.230    -0.082    -0.077  0.3947  0.8601  0.3233
              Bcc     0.0011     0.530     0.189     0.177  0.4498 -0.4877  0.7483
 
              Baa    -0.0011    -0.563    -0.201    -0.188  0.3144  0.9234  0.2203
    11 F(19)  Bbb    -0.0007    -0.376    -0.134    -0.125  0.7688 -0.1116 -0.6296
              Bcc     0.0019     0.938     0.335     0.313  0.5568 -0.3674  0.7450
 
              Baa    -0.0005    -0.066    -0.023    -0.022  0.7695  0.3943 -0.5023
    12 C(13)  Bbb    -0.0005    -0.063    -0.023    -0.021  0.1178  0.6855  0.7185
              Bcc     0.0010     0.129     0.046     0.043  0.6276 -0.6121  0.4811
 
              Baa    -0.0006    -0.296    -0.106    -0.099  0.6505  0.5731 -0.4984
    13 F(19)  Bbb    -0.0006    -0.282    -0.101    -0.094  0.1076  0.5800  0.8075
              Bcc     0.0012     0.578     0.206     0.193  0.7518 -0.5789  0.3156
 
              Baa    -0.0004     0.028     0.010     0.009  0.7957  0.2594 -0.5473
    14 O(17)  Bbb    -0.0004     0.027     0.010     0.009  0.3030  0.6120  0.7305
              Bcc     0.0008    -0.054    -0.019    -0.018 -0.5245  0.7471 -0.4084
 
              Baa    -0.0002    -0.032    -0.011    -0.011  0.7736  0.3610 -0.5208
    15 C(13)  Bbb    -0.0002    -0.031    -0.011    -0.011  0.2669  0.5598  0.7845
              Bcc     0.0005     0.063     0.023     0.021 -0.5747  0.7459 -0.3367
 
              Baa    -0.0002    -0.118    -0.042    -0.039  0.6558  0.4412 -0.6125
    16 F(19)  Bbb    -0.0002    -0.116    -0.041    -0.039  0.3114  0.5810  0.7520
              Bcc     0.0005     0.234     0.083     0.078  0.6877 -0.6839  0.2436
 
              Baa    -0.0002    -0.101    -0.036    -0.034  0.7206  0.2250 -0.6558
    17 F(19)  Bbb    -0.0002    -0.100    -0.036    -0.033  0.4871  0.5088  0.7098
              Bcc     0.0004     0.201     0.072     0.067 -0.4934  0.8309 -0.2571
 
              Baa    -0.0002    -0.088    -0.031    -0.029  0.8145  0.3987 -0.4214
    18 F(19)  Bbb    -0.0002    -0.086    -0.031    -0.029  0.1238  0.5901  0.7978
              Bcc     0.0003     0.174     0.062     0.058 -0.5668  0.7020 -0.4313
 
              Baa    -0.0003    -0.041    -0.015    -0.014  0.7316  0.5513 -0.4011
    19 C(13)  Bbb    -0.0003    -0.040    -0.014    -0.013 -0.1019  0.6702  0.7351
              Bcc     0.0006     0.082     0.029     0.027  0.6741 -0.4969  0.5465
 
              Baa    -0.0002    -0.120    -0.043    -0.040  0.7896  0.5596 -0.2520
    20 F(19)  Bbb    -0.0002    -0.117    -0.042    -0.039 -0.2272  0.6480  0.7270
              Bcc     0.0005     0.237     0.085     0.079  0.5701 -0.5167  0.6388
 
              Baa    -0.0002    -0.107    -0.038    -0.036  0.6813  0.5895 -0.4338
    21 F(19)  Bbb    -0.0002    -0.104    -0.037    -0.035 -0.0465  0.6264  0.7781
              Bcc     0.0004     0.211     0.075     0.071  0.7305 -0.5100  0.4542
 
              Baa    -0.0003    -0.171    -0.061    -0.057  0.6649  0.5354 -0.5209
    22 F(19)  Bbb    -0.0003    -0.164    -0.058    -0.055 -0.1365  0.7727  0.6199
              Bcc     0.0007     0.335     0.119     0.112  0.7344 -0.3411  0.5868
 
              Baa    -0.0010    -0.133    -0.048    -0.045  0.6927 -0.2549 -0.6746
    23 C(13)  Bbb    -0.0009    -0.121    -0.043    -0.040  0.6942  0.4894  0.5279
              Bcc     0.0019     0.254     0.091     0.085 -0.1956  0.8340 -0.5160
 
              Baa    -0.0014     0.098     0.035     0.033  0.8746 -0.1820 -0.4495
    24 O(17)  Bbb     0.0001    -0.005    -0.002    -0.002  0.4826  0.4172  0.7701
              Bcc     0.0013    -0.093    -0.033    -0.031 -0.0473  0.8904 -0.4527
 
              Baa    -0.0014    -0.055    -0.020    -0.018  0.6357  0.3208  0.7021
    25 N(14)  Bbb    -0.0005    -0.020    -0.007    -0.007  0.7719 -0.2646 -0.5780
              Bcc     0.0020     0.075     0.027     0.025  0.0003  0.9095 -0.4158
 
              Baa    -0.0007    -0.096    -0.034    -0.032 -0.1800  0.3536  0.9179
    26 C(13)  Bbb    -0.0007    -0.091    -0.033    -0.030  0.9714 -0.0831  0.2225
              Bcc     0.0014     0.187     0.067     0.062  0.1550  0.9317 -0.3285
 
              Baa    -0.0007    -0.346    -0.124    -0.115  0.8152 -0.0862  0.5728
    27 F(19)  Bbb    -0.0005    -0.274    -0.098    -0.091 -0.5475  0.2079  0.8105
              Bcc     0.0012     0.620     0.221     0.207  0.1889  0.9743 -0.1223
 
              Baa    -0.0004    -0.209    -0.075    -0.070  0.6848 -0.2744 -0.6751
    28 F(19)  Bbb    -0.0003    -0.167    -0.060    -0.056  0.7256  0.1710  0.6665
              Bcc     0.0007     0.376     0.134     0.125  0.0674  0.9463 -0.3162
 
              Baa    -0.0006    -0.082    -0.029    -0.027  0.7294  0.0353  0.6832
    29 C(13)  Bbb    -0.0006    -0.075    -0.027    -0.025 -0.5859  0.5477  0.5973
              Bcc     0.0012     0.157     0.056     0.052  0.3531  0.8359 -0.4202
 
              Baa    -0.0011    -0.575    -0.205    -0.192  0.6773 -0.1037  0.7284
    30 F(19)  Bbb    -0.0008    -0.414    -0.148    -0.138 -0.4671  0.7043  0.5346
              Bcc     0.0020     0.989     0.353     0.330  0.5684  0.7023 -0.4285
 
              Baa    -0.0004     0.027     0.010     0.009  0.6064 -0.0080  0.7951
    31 O(17)  Bbb    -0.0004     0.026     0.009     0.009  0.6763 -0.5206 -0.5211
              Bcc     0.0007    -0.052    -0.019    -0.017  0.4181  0.8538 -0.3103
 
              Baa    -0.0003    -0.036    -0.013    -0.012  0.6059 -0.0367  0.7947
    32 C(13)  Bbb    -0.0003    -0.035    -0.012    -0.012 -0.6003  0.6344  0.4870
              Bcc     0.0005     0.071     0.025     0.024  0.5220  0.7721 -0.3624
 
              Baa    -0.0002    -0.104    -0.037    -0.035  0.7836 -0.0863  0.6153
    33 F(19)  Bbb    -0.0002    -0.100    -0.036    -0.034 -0.4224  0.6522  0.6294
              Bcc     0.0004     0.204     0.073     0.068  0.4556  0.7531 -0.4746
 
              Baa    -0.0002    -0.098    -0.035    -0.033  0.3880  0.0220  0.9214
    34 F(19)  Bbb    -0.0002    -0.095    -0.034    -0.032  0.7260 -0.6231 -0.2909
              Bcc     0.0004     0.192     0.069     0.064  0.5678  0.7818 -0.2577
 
              Baa    -0.0003    -0.172    -0.061    -0.057  0.5957 -0.0997  0.7970
    35 F(19)  Bbb    -0.0003    -0.164    -0.059    -0.055 -0.4978  0.7328  0.4638
              Bcc     0.0007     0.336     0.120     0.112  0.6303  0.6731 -0.3869
 
              Baa    -0.0005    -0.067    -0.024    -0.022  0.9008  0.0066  0.4342
    36 C(13)  Bbb    -0.0005    -0.064    -0.023    -0.021 -0.3268  0.6687  0.6679
              Bcc     0.0010     0.131     0.047     0.044  0.2860  0.7435 -0.6045
 
              Baa    -0.0008    -0.381    -0.136    -0.127  0.9443  0.0771  0.3198
    37 F(19)  Bbb    -0.0007    -0.357    -0.127    -0.119 -0.2698  0.7379  0.6187
              Bcc     0.0015     0.739     0.264     0.246 -0.1883 -0.6705  0.7176
 
              Baa    -0.0004    -0.196    -0.070    -0.065  0.7897  0.0903  0.6069
    38 F(19)  Bbb    -0.0004    -0.189    -0.067    -0.063 -0.4474  0.7616  0.4688
              Bcc     0.0008     0.385     0.137     0.128 -0.4198 -0.6418  0.6418
 
              Baa    -0.0003    -0.161    -0.057    -0.054  0.9504  0.0278  0.3097
    39 F(19)  Bbb    -0.0003    -0.156    -0.056    -0.052 -0.2566  0.6331  0.7303
              Bcc     0.0006     0.317     0.113     0.106  0.1758  0.7736 -0.6088
 
              Baa    -0.0032    -0.429    -0.153    -0.143  0.0252  0.3661  0.9302
    40 C(13)  Bbb    -0.0019    -0.261    -0.093    -0.087  0.9962 -0.0872  0.0073
              Bcc     0.0051     0.689     0.246     0.230  0.0838  0.9265 -0.3669
 
              Baa    -0.0107     0.774     0.276     0.258  0.8025 -0.2550  0.5394
    41 O(17)  Bbb    -0.0032     0.229     0.082     0.076  0.2997  0.9540  0.0052
              Bcc     0.0139    -1.003    -0.358    -0.334 -0.5159  0.1574  0.8420
 
              Baa    -0.0093    -4.951    -1.767    -1.651  0.7980  0.5821  0.1564
    42 H(1)   Bbb    -0.0044    -2.322    -0.828    -0.774 -0.3538  0.2423  0.9034
              Bcc     0.0136     7.273     2.595     2.426 -0.4880  0.7762 -0.3993
 
              Baa    -0.0117    -6.229    -2.223    -2.078  0.0967 -0.3502  0.9317
    43 H(1)   Bbb    -0.0064    -3.434    -1.225    -1.145  0.9332 -0.2937 -0.2072
              Bcc     0.0181     9.663     3.448     3.223  0.3462  0.8895  0.2984
 
              Baa    -0.0080    -4.280    -1.527    -1.428  0.7739  0.6023  0.1959
    44 H(1)   Bbb    -0.0042    -2.224    -0.794    -0.742 -0.4232  0.7219 -0.5475
              Bcc     0.0122     6.505     2.321     2.170 -0.4712  0.3408  0.8135
 
              Baa    -0.0108    -5.743    -2.049    -1.916  0.7752  0.4371 -0.4560
    45 H(1)   Bbb    -0.0049    -2.607    -0.930    -0.870 -0.6226  0.6509 -0.4345
              Bcc     0.0156     8.350     2.979     2.785  0.1069  0.6208  0.7767
 
              Baa    -0.0111    -5.897    -2.104    -1.967  0.5600  0.0845  0.8242
    46 H(1)   Bbb    -0.0050    -2.644    -0.943    -0.882  0.1499  0.9680 -0.2011
              Bcc     0.0160     8.541     3.048     2.849  0.8149 -0.2361 -0.5294
 

 ---------------------------------------------------------------------------------

 No NMR shielding tensors so no spin-rotation constants.
 Leave Link  601 at Sun Mar  3 18:22:39 2024, MaxMem=  5368709120 cpu:         6.5
 (Enter /home/k0335/k033513/app/g09/l9999.exe)
 1\1\GINC-C18U01N1\SP\UCAM-B3LYP\6-31G(d,p)\C15H5F18N3O5(1+,2)\K033513\
 03-Mar-2024\0\\#p CAM-B3LYP/6-31G(d,p) SCRF=(PCM,Solvent=Generic,Read)
  NoSymm out=wfn\\Title A603415620_p1\\1,2\C,0,-1.752432,5.508954,-1.45
 7433\C,0,-1.121097,4.279105,-1.937615\C,0,-0.603199,3.269845,-2.333433
 \C,0,0.030968,2.030012,-2.810467\N,0,0.13819,1.069648,-1.719894\C,0,1.
 249274,1.122589,-0.907485\O,0,2.24828,1.769316,-1.212355\N,0,1.172325,
 0.388909,0.249467\C,0,2.289349,0.489235,1.182359\F,0,1.845761,0.187106
 ,2.436741\F,0,2.650456,1.799834,1.286661\C,0,3.518226,-0.388039,0.8318
 26\F,0,4.04266,0.027526,-0.358066\O,0,3.089341,-1.735919,0.601597\C,0,
 4.151964,-2.64925,0.521252\F,0,5.143734,-2.169011,-0.243916\F,0,3.6925
 76,-3.787443,-0.030201\F,0,4.603588,-2.917001,1.756117\C,0,4.527677,-0
 .148288,1.963551\F,0,4.088991,-0.641641,3.143108\F,0,5.712856,-0.75369
 3,1.707257\F,0,4.808283,1.159327,2.151303\C,0,0.309162,-0.670404,0.377
 817\O,0,0.391247,-1.462825,1.312673\N,0,-0.662529,-0.800294,-0.583607\
 C,0,-1.654152,-1.860955,-0.460971\F,0,-1.911958,-2.313638,-1.733901\F,
 0,-1.100032,-2.962945,0.128252\C,0,-3.014745,-1.553688,0.224455\F,0,-3
 .6083,-0.489484,-0.38947\O,0,-3.875942,-2.681508,-0.012333\C,0,-5.0956
 89,-2.608849,0.675009\F,0,-4.903471,-2.997317,1.946798\F,0,-5.966955,-
 3.454819,0.095166\F,0,-5.607004,-1.368902,0.644198\C,0,-2.744827,-1.20
 1387,1.688298\F,0,-1.920897,-0.131372,1.79486\F,0,-3.879162,-0.854225,
 2.340895\F,0,-2.195849,-2.224743,2.371253\C,0,-0.880956,0.161058,-1.54
 0777\O,0,-1.914546,0.2036,-2.202755\H,0,-2.402881,5.937811,-2.225636\H
 ,0,-0.997852,6.256515,-1.194922\H,0,-2.359793,5.312664,-0.568748\H,0,-
 0.555858,1.601673,-3.630749\H,0,1.025219,2.252914,-3.213014\\Version=E
 S64L-G09RevD.01\HF=-2910.913438\S2=0.751799\S2-1=0.\S2A=0.750003\RMSD=
 6.827e-09\Dipole=-2.0050937,8.8738216,-4.9018357\Quadrupole=-26.118849
 ,37.4335412,-11.3146922,-21.5233311,1.6402637,-25.4731145\PG=C01 [X(C1
 5H5F18N3O5)]\\@

 Writing a WFN file to "A603415620/A603415620_p1.wfn"


 ... I FELL INTO A REVERIE ... THE ATOMS WERE GAMBOLING BEFORE MY EYES
 ... I SAW HOW TWO SMALL ONES UNITED TO FORM A PAIR;
 HOW THE LARGER ONES SEIZED TWO OF THE SMALLER ONES;
 HOW STILL LARGER ONES KEPT HOLD OF THREE OR FOUR
 SMALLER ONES ... I SAW HOW THE LARGER ONES FORMED A CHAIN ...
 THIS WAS THE ORIGIN OF THE STRUCTURE THEORY.

                                   -- C.F.KEKULE VON STRADONITZ
 Job cpu time:       0 days  0 hours 37 minutes 15.5 seconds.
 File lengths (MBytes):  RWF=    630 Int=      0 D2E=      0 Chk=     21 Scr=      1
 Normal termination of Gaussian 09 at Sun Mar  3 18:22:40 2024.
