 Entering Gaussian System, Link 0=g09
 Initial command:
 /home/k0335/k033513/app/g09/l1.exe "/home/k0335/k033513/app/g09/scratch/Gau-416178.inp" -scrdir="/home/k0335/k033513/app/g09/scratch/"
 Default is to use a total of  36 processors:
                               36 via shared-memory
                                1 via Linda
 Entering Link 1 = /home/k0335/k033513/app/g09/l1.exe PID=    416179.
  
 Copyright (c) 1988,1990,1992,1993,1995,1998,2003,2009,2013,
            Gaussian, Inc.  All Rights Reserved.
  
 This is part of the Gaussian(R) 09 program.  It is based on
 the Gaussian(R) 03 system (copyright 2003, Gaussian, Inc.),
 the Gaussian(R) 98 system (copyright 1998, Gaussian, Inc.),
 the Gaussian(R) 94 system (copyright 1995, Gaussian, Inc.),
 the Gaussian 92(TM) system (copyright 1992, Gaussian, Inc.),
 the Gaussian 90(TM) system (copyright 1990, Gaussian, Inc.),
 the Gaussian 88(TM) system (copyright 1988, Gaussian, Inc.),
 the Gaussian 86(TM) system (copyright 1986, Carnegie Mellon
 University), and the Gaussian 82(TM) system (copyright 1983,
 Carnegie Mellon University). Gaussian is a federally registered
 trademark of Gaussian, Inc.
  
 This software contains proprietary and confidential information,
 including trade secrets, belonging to Gaussian, Inc.
  
 This software is provided under written license and may be
 used, copied, transmitted, or stored only in accord with that
 written license.
  
 The following legend is applicable only to US Government
 contracts under FAR:
  
                    RESTRICTED RIGHTS LEGEND
  
 Use, reproduction and disclosure by the US Government is
 subject to restrictions as set forth in subparagraphs (a)
 and (c) of the Commercial Computer Software - Restricted
 Rights clause in FAR 52.227-19.
  
 Gaussian, Inc.
 340 Quinnipiac St., Bldg. 40, Wallingford CT 06492
  
  
 ---------------------------------------------------------------
 Warning -- This program may not be used in any manner that
 competes with the business of Gaussian, Inc. or will provide
 assistance to any competitor of Gaussian, Inc.  The licensee
 of this program is prohibited from giving any competitor of
 Gaussian, Inc. access to this program.  By using this program,
 the user acknowledges that Gaussian, Inc. is engaged in the
 business of creating and licensing software in the field of
 computational chemistry and represents and warrants to the
 licensee that it is not a competitor of Gaussian, Inc. and that
 it will not use this program in any manner prohibited above.
 ---------------------------------------------------------------
  

 Cite this work as:
 Gaussian 09, Revision D.01,
 M. J. Frisch, G. W. Trucks, H. B. Schlegel, G. E. Scuseria, 
 M. A. Robb, J. R. Cheeseman, G. Scalmani, V. Barone, B. Mennucci, 
 G. A. Petersson, H. Nakatsuji, M. Caricato, X. Li, H. P. Hratchian, 
 A. F. Izmaylov, J. Bloino, G. Zheng, J. L. Sonnenberg, M. Hada, 
 M. Ehara, K. Toyota, R. Fukuda, J. Hasegawa, M. Ishida, T. Nakajima, 
 Y. Honda, O. Kitao, H. Nakai, T. Vreven, J. A. Montgomery, Jr., 
 J. E. Peralta, F. Ogliaro, M. Bearpark, J. J. Heyd, E. Brothers, 
 K. N. Kudin, V. N. Staroverov, T. Keith, R. Kobayashi, J. Normand, 
 K. Raghavachari, A. Rendell, J. C. Burant, S. S. Iyengar, J. Tomasi, 
 M. Cossi, N. Rega, J. M. Millam, M. Klene, J. E. Knox, J. B. Cross, 
 V. Bakken, C. Adamo, J. Jaramillo, R. Gomperts, R. E. Stratmann, 
 O. Yazyev, A. J. Austin, R. Cammi, C. Pomelli, J. W. Ochterski, 
 R. L. Martin, K. Morokuma, V. G. Zakrzewski, G. A. Voth, 
 P. Salvador, J. J. Dannenberg, S. Dapprich, A. D. Daniels, 
 O. Farkas, J. B. Foresman, J. V. Ortiz, J. Cioslowski, 
 and D. J. Fox, Gaussian, Inc., Wallingford CT, 2013.
 
 ******************************************
 Gaussian 09:  ES64L-G09RevD.01 24-Apr-2013
                 3-Mar-2024 
 ******************************************
 %nprocshared=24
 Will use up to   24 processors via shared memory.
 %mem=40GB
 %rwf=A603415621/A603415621_0.rwf
 %nosave
 %chk=A603415621/A603415621_0.chk
 ----------------------------------------------------------------------
 #p CAM-B3LYP/6-31G(d,p) SCRF=(PCM,Solvent=Generic,Read) NoSymm out=wfn
 ----------------------------------------------------------------------
 1/38=1,40=2/1;
 2/12=2,15=1,17=6,18=5,40=1/2;
 3/5=1,6=6,7=101,11=2,16=1,25=1,30=1,70=2203,72=-2,74=-40/1,2,3;
 4//1;
 5/5=2,38=5/2;
 6/7=2,8=2,9=2,10=2,28=1/1;
 99/5=1,6=100,9=1/99;
 Leave Link    1 at Sun Mar  3 18:21:03 2024, MaxMem=  5368709120 cpu:         1.5
 (Enter /home/k0335/k033513/app/g09/l101.exe)
 ------------------
 Title A603415621_0
 ------------------
 Symbolic Z-matrix:
 Charge =  0 Multiplicity = 1
 C                     2.15608   5.13614   1.86647 
 C                     1.69872   3.78585   2.19707 
 C                     1.32267   2.67784   2.4698 
 C                     0.86031   1.3188    2.79512 
 N                     0.44278   0.62736   1.58254 
 C                    -0.88007   0.69422   1.20919 
 O                    -1.69086   1.40361   1.79833 
 N                    -1.2409   -0.08809   0.13939 
 C                    -2.65976  -0.15091  -0.19049 
 F                    -3.31364  -0.41353   0.98412 
 F                    -2.92791  -1.26653  -0.93041 
 C                    -3.33439   1.07426  -0.88023 
 F                    -3.239     2.19578  -0.10931 
 O                    -4.72758   0.93141  -1.206 
 C                    -5.532     0.59109  -0.10871 
 F                    -6.80233   0.93908  -0.38925 
 F                    -5.14738   1.22634   1.00768 
 F                    -5.48656  -0.73935   0.07393 
 C                    -2.59611   1.35081  -2.18505 
 F                    -2.65443   0.3127   -3.04407 
 F                    -3.1254    2.42155  -2.83014 
 F                    -1.29036   1.64355  -1.97163 
 C                    -0.31466  -0.58699  -0.74182 
 O                    -0.65581  -1.12813  -1.78898 
 N                     1.00704  -0.43819  -0.40604 
 C                     2.00212  -1.07205  -1.26372 
 F                     1.70492  -0.77642  -2.561 
 F                     3.20739  -0.46235  -1.07244 
 C                     2.14658  -2.60342  -1.07581 
 F                     0.97382  -3.20769  -1.42878 
 O                     2.31486  -2.89957   0.31552 
 C                     2.69863  -4.22726   0.55754 
 F                     1.97038  -5.08111  -0.17734 
 F                     2.49664  -4.49646   1.8606 
 F                     4.00415  -4.37121   0.28273 
 C                     3.26802  -3.02931  -2.0338 
 F                     3.40056  -4.37749  -2.07365 
 F                     3.05069  -2.63636  -3.30736 
 F                     4.46799  -2.53423  -1.65652 
 C                     1.39501  -0.05059   0.85281 
 O                     2.50573  -0.30577   1.31305 
 H                     2.85829   5.11419   1.02764 
 H                     2.66171   5.59567   2.72108 
 H                     1.31269   5.7747    1.58692 
 H                     0.02656   1.36736   3.50451 
 H                     1.66482   0.7607    3.28656 
 
 NAtoms=     46 NQM=       46 NQMF=       0 NMMI=      0 NMMIF=      0
                NMic=       0 NMicF=      0.
                    Isotopes and Nuclear Properties:
 (Nuclear quadrupole moments (NQMom) in fm**2, nuclear magnetic moments (NMagM)
  in nuclear magnetons)

  Atom         1           2           3           4           5           6           7           8           9          10
 IAtWgt=          12          12          12          12          14          12          16          14          12          19
 AtmWgt=  12.0000000  12.0000000  12.0000000  12.0000000  14.0030740  12.0000000  15.9949146  14.0030740  12.0000000  18.9984033
 NucSpn=           0           0           0           0           2           0           0           2           0           1
 AtZEff=   0.0000000   0.0000000   0.0000000   0.0000000   0.0000000   0.0000000   0.0000000   0.0000000   0.0000000   0.0000000
 NQMom=    0.0000000   0.0000000   0.0000000   0.0000000   2.0440000   0.0000000   0.0000000   2.0440000   0.0000000   0.0000000
 NMagM=    0.0000000   0.0000000   0.0000000   0.0000000   0.4037610   0.0000000   0.0000000   0.4037610   0.0000000   2.6288670
 AtZNuc=   6.0000000   6.0000000   6.0000000   6.0000000   7.0000000   6.0000000   8.0000000   7.0000000   6.0000000   9.0000000

  Atom        11          12          13          14          15          16          17          18          19          20
 IAtWgt=          19          12          19          16          12          19          19          19          12          19
 AtmWgt=  18.9984033  12.0000000  18.9984033  15.9949146  12.0000000  18.9984033  18.9984033  18.9984033  12.0000000  18.9984033
 NucSpn=           1           0           1           0           0           1           1           1           0           1
 AtZEff=   0.0000000   0.0000000   0.0000000   0.0000000   0.0000000   0.0000000   0.0000000   0.0000000   0.0000000   0.0000000
 NQMom=    0.0000000   0.0000000   0.0000000   0.0000000   0.0000000   0.0000000   0.0000000   0.0000000   0.0000000   0.0000000
 NMagM=    2.6288670   0.0000000   2.6288670   0.0000000   0.0000000   2.6288670   2.6288670   2.6288670   0.0000000   2.6288670
 AtZNuc=   9.0000000   6.0000000   9.0000000   8.0000000   6.0000000   9.0000000   9.0000000   9.0000000   6.0000000   9.0000000

  Atom        21          22          23          24          25          26          27          28          29          30
 IAtWgt=          19          19          12          16          14          12          19          19          12          19
 AtmWgt=  18.9984033  18.9984033  12.0000000  15.9949146  14.0030740  12.0000000  18.9984033  18.9984033  12.0000000  18.9984033
 NucSpn=           1           1           0           0           2           0           1           1           0           1
 AtZEff=   0.0000000   0.0000000   0.0000000   0.0000000   0.0000000   0.0000000   0.0000000   0.0000000   0.0000000   0.0000000
 NQMom=    0.0000000   0.0000000   0.0000000   0.0000000   2.0440000   0.0000000   0.0000000   0.0000000   0.0000000   0.0000000
 NMagM=    2.6288670   2.6288670   0.0000000   0.0000000   0.4037610   0.0000000   2.6288670   2.6288670   0.0000000   2.6288670
 AtZNuc=   9.0000000   9.0000000   6.0000000   8.0000000   7.0000000   6.0000000   9.0000000   9.0000000   6.0000000   9.0000000

  Atom        31          32          33          34          35          36          37          38          39          40
 IAtWgt=          16          12          19          19          19          12          19          19          19          12
 AtmWgt=  15.9949146  12.0000000  18.9984033  18.9984033  18.9984033  12.0000000  18.9984033  18.9984033  18.9984033  12.0000000
 NucSpn=           0           0           1           1           1           0           1           1           1           0
 AtZEff=   0.0000000   0.0000000   0.0000000   0.0000000   0.0000000   0.0000000   0.0000000   0.0000000   0.0000000   0.0000000
 NQMom=    0.0000000   0.0000000   0.0000000   0.0000000   0.0000000   0.0000000   0.0000000   0.0000000   0.0000000   0.0000000
 NMagM=    0.0000000   0.0000000   2.6288670   2.6288670   2.6288670   0.0000000   2.6288670   2.6288670   2.6288670   0.0000000
 AtZNuc=   8.0000000   6.0000000   9.0000000   9.0000000   9.0000000   6.0000000   9.0000000   9.0000000   9.0000000   6.0000000

  Atom        41          42          43          44          45          46
 IAtWgt=          16           1           1           1           1           1
 AtmWgt=  15.9949146   1.0078250   1.0078250   1.0078250   1.0078250   1.0078250
 NucSpn=           0           1           1           1           1           1
 AtZEff=   0.0000000   0.0000000   0.0000000   0.0000000   0.0000000   0.0000000
 NQMom=    0.0000000   0.0000000   0.0000000   0.0000000   0.0000000   0.0000000
 NMagM=    0.0000000   2.7928460   2.7928460   2.7928460   2.7928460   2.7928460
 AtZNuc=   8.0000000   1.0000000   1.0000000   1.0000000   1.0000000   1.0000000
 Leave Link  101 at Sun Mar  3 18:21:03 2024, MaxMem=  5368709120 cpu:         0.9
 (Enter /home/k0335/k033513/app/g09/l202.exe)
                          Input orientation:                          
 ---------------------------------------------------------------------
 Center     Atomic      Atomic             Coordinates (Angstroms)
 Number     Number       Type             X           Y           Z
 ---------------------------------------------------------------------
      1          6           0        2.156077    5.136137    1.866473
      2          6           0        1.698721    3.785850    2.197066
      3          6           0        1.322665    2.677843    2.469798
      4          6           0        0.860305    1.318804    2.795118
      5          7           0        0.442779    0.627363    1.582537
      6          6           0       -0.880069    0.694218    1.209189
      7          8           0       -1.690864    1.403608    1.798325
      8          7           0       -1.240898   -0.088091    0.139389
      9          6           0       -2.659763   -0.150912   -0.190487
     10          9           0       -3.313639   -0.413531    0.984116
     11          9           0       -2.927912   -1.266532   -0.930412
     12          6           0       -3.334385    1.074256   -0.880231
     13          9           0       -3.238999    2.195776   -0.109311
     14          8           0       -4.727577    0.931410   -1.206001
     15          6           0       -5.532003    0.591089   -0.108714
     16          9           0       -6.802333    0.939076   -0.389250
     17          9           0       -5.147380    1.226335    1.007679
     18          9           0       -5.486561   -0.739351    0.073933
     19          6           0       -2.596108    1.350808   -2.185054
     20          9           0       -2.654432    0.312702   -3.044075
     21          9           0       -3.125397    2.421550   -2.830142
     22          9           0       -1.290357    1.643549   -1.971626
     23          6           0       -0.314656   -0.586989   -0.741823
     24          8           0       -0.655806   -1.128132   -1.788983
     25          7           0        1.007042   -0.438186   -0.406043
     26          6           0        2.002125   -1.072052   -1.263721
     27          9           0        1.704921   -0.776420   -2.561002
     28          9           0        3.207388   -0.462349   -1.072443
     29          6           0        2.146578   -2.603416   -1.075807
     30          9           0        0.973820   -3.207690   -1.428782
     31          8           0        2.314859   -2.899574    0.315521
     32          6           0        2.698627   -4.227255    0.557540
     33          9           0        1.970379   -5.081109   -0.177339
     34          9           0        2.496637   -4.496458    1.860595
     35          9           0        4.004148   -4.371210    0.282731
     36          6           0        3.268021   -3.029313   -2.033796
     37          9           0        3.400558   -4.377490   -2.073647
     38          9           0        3.050687   -2.636363   -3.307365
     39          9           0        4.467985   -2.534226   -1.656520
     40          6           0        1.395007   -0.050586    0.852805
     41          8           0        2.505731   -0.305767    1.313047
     42          1           0        2.858288    5.114192    1.027644
     43          1           0        2.661714    5.595670    2.721077
     44          1           0        1.312694    5.774703    1.586924
     45          1           0        0.026561    1.367361    3.504506
     46          1           0        1.664823    0.760700    3.286560
 ---------------------------------------------------------------------
                    Distance matrix (angstroms):
                    1          2          3          4          5
     1  C    0.000000
     2  C    1.463469   0.000000
     3  C    2.664918   1.201449   0.000000
     4  C    4.136839   2.673373   1.471936   0.000000
     5  N    4.831672   3.454139   2.401229   1.456973   0.000000
     6  C    5.420410   4.145389   3.221171   2.436017   1.376149
     7  O    5.360538   4.162134   3.340046   2.740301   2.280691
     8  N    6.466438   5.280418   4.433176   3.667057   2.330090
     9  C    7.441524   6.339944   5.562257   4.844046   3.657197
    10  F    7.841885   6.650549   5.767075   4.868524   3.943633
    11  F    8.640815   7.530831   6.722122   5.908817   4.611216
    12  C    7.361279   6.492662   5.956702   5.582420   4.531215
    13  F    6.454168   5.677041   5.262411   5.099910   4.344854
    14  O    8.631600   7.811914   7.291567   6.883564   5.882259
    15  C    9.146879   8.234470   7.615099   7.058570   6.209643
    16  F   10.146759   9.330652   8.787096   8.306649   7.515102
    17  F    8.328539   7.405056   6.790151   6.268634   5.651469
    18  F    9.805329   8.752909   7.986422   7.205800   6.269040
    19  C    7.302523   6.601361   6.227797   6.062172   4.894175
    20  F    8.397619   7.647369   7.198193   6.889252   5.576492
    21  F    7.571073   7.099736   6.923894   6.981792   5.951699
    22  F    6.229533   5.558960   5.255844   5.239528   4.082704
    23  C    6.757359   5.640255   4.863585   4.185992   2.729653
    24  O    7.778825   6.751267   6.044585   5.412954   3.956741
    25  N    6.128433   5.009698   4.252025   3.654583   2.325562
    26  C    6.954382   5.972295   5.335030   4.847073   3.663435
    27  F    7.400298   6.591931   6.114491   5.813034   4.553298
    28  F    6.409799   5.568928   5.095141   4.862030   3.984903
    29  C    8.279963   7.192704   6.414191   5.658831   4.517483
    30  F    9.048530   7.910870   7.068247   6.192202   4.904863
    31  O    8.185555   6.972427   6.060770   5.104786   4.189188
    32  C    9.469993   8.240007   7.295915   6.256593   5.450393
    33  F   10.421313   9.183385   8.223637   7.143294   6.165823
    34  F    9.638615   8.327455   7.295199   6.112952   5.527132
    35  F    9.813932   8.690069   7.852564   6.969368   6.273641
    36  C    9.117187   8.173698   7.525849   6.929764   5.867805
    37  F   10.372193   9.368850   8.645129   7.912365   6.867655
    38  F    9.379802   8.565710   8.037565   7.594828   6.431503
    39  F    8.751621   7.903310   7.354264   6.904946   6.057179
    40  C    5.339368   4.076459   3.172416   2.435922   1.377992
    41  O    5.481137   4.263107   3.411693   2.746487   2.280160
    42  H    1.094174   2.115806   3.220829   4.639059   5.125839
    43  H    1.094161   2.115985   3.220234   4.641351   5.559138
    44  H    1.094170   2.115851   3.220265   4.638903   5.220333
    45  H    4.628354   3.217858   2.113733   1.095773   2.101142
    46  H    4.626276   3.215537   2.111779   1.095557   2.101158
                    6          7          8          9         10
     6  C    0.000000
     7  O    1.227886   0.000000
     8  N    1.373564   2.275896   0.000000
     9  C    2.416743   2.703825   1.458061   0.000000
    10  F    2.683287   2.568721   2.261798   1.369750   0.000000
    11  F    3.551914   4.013221   2.319313   1.365284   2.131153
    12  C    3.245577   3.159794   2.602569   1.559454   2.385316
    13  F    3.091548   2.581342   3.044718   2.418481   2.830130
    14  O    4.548925   4.297740   3.873808   2.545298   2.933377
    15  C    4.836114   4.364783   4.351600   2.967662   2.669209
    16  F    6.139069   5.579282   5.680149   4.288178   3.985808
    17  F    4.305078   3.550218   4.212154   3.085555   2.460147
    18  F    4.956177   4.687549   4.295821   2.899477   2.378273
    19  C    3.859635   4.085286   3.051239   2.497501   3.697483
    20  F    4.624302   5.056419   3.506160   2.891009   4.145876
    21  F    4.933697   4.951444   4.320619   3.715125   4.756226
    22  F    3.344720   3.798751   2.730825   2.875382   4.130576
    23  C    2.401589   3.508387   1.372355   2.448196   3.464513
    24  O    3.515720   4.511079   2.267738   2.743354   3.907020
    25  N    2.729927   3.940830   2.339508   3.684352   4.538880
    26  C    4.188321   5.398443   3.667982   4.871707   5.808939
    27  F    4.802009   5.940338   4.055090   5.006103   6.155119
    28  F    4.821908   5.976285   4.625565   5.941237   6.837807
    29  C    5.025554   6.248427   4.390735   5.468042   6.233205
    30  F    5.061688   6.227265   4.134735   4.907157   5.657889
    31  O    4.890966   6.063159   4.536394   5.705966   6.189299
    32  C    6.119854   7.246640   5.729519   6.774102   7.132587
    33  F    6.588013   7.704512   5.944985   6.763522   7.145356
    34  F    6.226523   7.235318   6.030375   7.048345   7.155265
    35  F    7.097356   8.250982   6.773194   7.902061   8.348962
    36  C    6.448898   7.676359   5.805503   6.842631   7.698594
    37  F    7.404256   8.621823   6.696237   7.624811   8.375161
    38  F    6.851487   8.054300   6.065600   6.964311   7.991398
    39  F    6.872905   8.085414   6.465308   7.657299   8.486694
    40  C    2.420271   3.539956   2.731001   4.188041   4.724438
    41  O    3.531911   4.557287   3.932186   5.382093   5.829655
    42  H    5.791756   5.920909   6.682520   7.723603   8.285548
    43  H    6.233319   6.113084   7.362108   8.355748   8.650571
    44  H    5.546370   5.307779   6.556565   7.352042   7.749876
    45  H    2.558042   2.421139   3.879279   4.813986   4.547623
    46  H    3.285782   3.726769   4.366732   5.623427   5.609381
                   11         12         13         14         15
    11  F    0.000000
    12  C    2.376347   0.000000
    13  F    3.571912   1.364267   0.000000
    14  O    2.854066   1.437886   2.239914   0.000000
    15  C    3.302610   2.378700   2.798730   1.402483   0.000000
    16  F    4.490958   3.505139   3.788801   2.229743   1.346675
    17  F    3.859614   2.621885   2.414415   2.272354   1.340823
    18  F    2.798806   2.971777   3.701362   2.237349   1.343687
    19  C    2.921419   1.524499   2.331521   2.382771   3.675301
    20  F    2.652611   2.392597   3.535608   2.838881   4.119983
    21  F    4.153303   2.379292   2.732545   2.724946   4.067986
    22  F    3.497754   2.386061   2.751432   3.592743   4.750755
    23  C    2.706742   3.449298   4.086029   4.689869   5.386038
    24  O    2.432851   3.584847   4.532389   4.600098   5.436573
    25  N    4.055241   4.621723   5.005464   5.949923   6.626230
    26  C    4.945117   5.764724   6.283370   7.021829   7.801485
    27  F    4.935805   5.625353   6.267941   6.791888   7.762530
    28  F    6.189409   6.722566   7.039116   8.057547   8.855250
    29  C    5.249652   6.603369   7.278104   7.730844   8.372618
    30  F    4.386340   6.098902   6.977556   7.048951   7.648466
    31  O    5.630792   7.009644   7.549067   8.160109   8.598718
    32  C    6.529764   8.159071   8.772424   9.212514   9.560523
    33  F    6.253908   8.156169   8.949598   9.059313   9.405545
    34  F    6.902744   8.517382   9.031282   9.542276   9.706718
    35  F    7.691827   9.211930   9.784793  10.323620  10.757129
    36  C    6.535628   7.858865   8.564258   8.961147   9.708433
    37  F    7.143849   8.746727   9.547259   9.746990  10.408573
    38  F    6.577993   7.773597   8.552033   8.811704   9.711353
    39  F    7.538805   8.631381   9.174115   9.837274  10.590706
    40  C    4.831772   5.160991   5.238876   6.533684   7.022801
    41  O    5.956564   6.389201   6.425165   7.758670   8.211633
    42  H    8.833331   7.636116   6.854687   8.945959   9.599310
    43  H    9.574294   8.328614   7.374876   9.580130  10.009523
    44  H    8.596436   7.055239   6.033560   8.230601   8.751852
    45  H    5.944308   5.532430   4.940630   6.706770   6.674997
    46  H    6.556351   6.515562   6.135051   7.815051   7.959331
                   16         17         18         19         20
    16  F    0.000000
    17  F    2.184673   0.000000
    18  F    2.182410   2.202464   0.000000
    19  C    4.592033   4.088768   4.222145   0.000000
    20  F    4.964426   4.844195   4.341629   1.348697   0.000000
    21  F    4.655700   4.499536   4.898984   1.357488   2.171363
    22  F    5.777722   4.891518   5.241245   1.355077   2.186779
    23  C    6.674064   5.450149   5.238060   3.323100   3.403580
    24  O    6.634184   5.791293   5.192090   3.172820   2.765098
    25  N    7.929910   6.530402   6.518279   4.398644   4.574870
    26  C    9.073468   7.845844   7.614488   5.278527   5.174044
    27  F    8.946106   7.981262   7.659091   4.813033   4.519237
    28  F   10.130413   8.773865   8.773577   6.181101   6.232894
    29  C    9.649022   8.497631   7.941124   6.273706   5.952102
    30  F    8.873830   7.941411   7.077243   5.839198   5.307216
    31  O    9.917415   8.554953   8.098585   6.959613   6.804370
    32  C   10.856133   9.565777   8.910480   8.165221   7.889112
    33  F   10.641805   9.583872   8.632494   8.139612   7.661609
    34  F   11.003530   9.586909   9.002192   8.746076   8.585879
    35  F   12.059466  10.752140  10.164032   9.077160   8.794507
    36  C   10.948273   9.908586   9.291348   7.320953   6.874967
    37  F   11.627642  10.675424   9.840175   8.293721   7.720268
    38  F   10.880311  10.037347   9.376376   7.003100   6.427650
    39  F   11.861276  10.662787  10.262019   8.079248   7.794814
    40  C    8.349761   6.667634   6.959671   5.207830   5.631661
    41  O    9.543977   7.810934   8.099391   6.403883   6.781910
    42  H   10.619170   8.899806  10.237677   7.364436   8.367992
    43  H   10.996644   9.110915  10.655245   8.350669   9.455588
    44  H    9.651021   7.921852   9.536871   7.005526   8.186434
    45  H    7.872646   5.746625   6.826535   6.264963   7.154295
    46  H    9.232341   7.198349   7.982069   6.960052   7.676823
                   21         22         23         24         25
    21  F    0.000000
    22  F    2.170186   0.000000
    23  C    4.616562   2.727583   0.000000
    24  O    4.447824   2.849251   1.227095   0.000000
    25  N    5.579552   3.473142   1.371778   2.270157   0.000000
    26  C    6.399251   4.326206   2.423868   2.709916   1.458625
    27  F    5.799260   3.895549   2.724700   2.508535   2.290259
    28  F    7.177085   5.047083   3.539723   3.985093   2.299173
    29  C    7.491441   5.536400   3.199249   3.246296   2.536799
    30  F    7.103220   5.381050   3.000026   2.666456   2.952499
    31  O    8.234436   6.234468   3.657919   4.048678   2.879144
    32  C    9.465847   7.534920   4.900995   5.134487   4.259929
    33  F    9.449560   7.685889   5.073179   5.012013   4.747321
    34  F   10.073188   8.168655   5.473563   5.882426   4.881200
    35  F   10.327729   8.324136   5.832847   6.043569   4.992568
    36  C    8.439305   6.528270   4.524347   4.367017   3.804674
    37  F    9.454487   7.633348   5.472154   5.205137   4.901830
    38  F    7.997139   6.240714   4.701858   4.279992   4.174462
    39  F    9.143115   7.121208   5.244240   5.314874   4.234997
    40  C    6.333215   4.249551   2.398648   3.513685   1.373116
    41  O    7.504257   5.385090   3.500880   4.504907   2.284485
    42  H    7.611657   6.184839   6.760329   7.697328   6.025900
    43  H    8.624484   7.297917   7.686074   8.749634   6.994586
    44  H    7.102870   6.041985   6.967242   7.932268   6.531870
    45  H    7.153595   5.639022   4.686920   5.891870   4.417436
    46  H    7.944726   6.095985   4.686414   5.891871   3.937680
                   26         27         28         29         30
    26  C    0.000000
    27  F    1.363329   0.000000
    28  F    1.364179   2.138190   0.000000
    29  C    1.549598   2.395575   2.389455   0.000000
    30  F    2.376048   2.779839   3.557063   1.365687   0.000000
    31  O    2.435497   3.626871   2.943317   1.432418   2.221692
    32  C    3.709099   4.756156   4.134029   2.368424   2.821338
    33  F    4.153766   4.927744   4.864601   2.641449   2.463521
    34  F    4.661807   5.832325   5.038047   3.511211   3.847063
    35  F    4.157409   5.127941   4.213136   2.901945   3.669597
    36  C    2.454868   2.792267   2.741748   1.535176   2.379332
    37  F    3.679336   4.010038   4.045745   2.390709   2.770079
    38  F    2.779034   2.414028   3.121821   2.407976   2.858123
    39  F    2.893563   3.397424   2.494579   2.393939   3.565755
    40  C    2.427276   3.503849   2.675977   3.286540   3.917951
    41  O    2.735059   3.983851   2.491466   3.333887   4.276159
    42  H    6.652292   6.993422   5.969091   8.030723   8.879131
    43  H    7.795652   8.331827   7.168553   9.050232   9.877726
    44  H    7.448459   7.763784   7.040093   8.830537   9.481176
    45  H    5.708728   6.648539   5.866341   6.421901   6.794536
    46  H    4.917094   6.046348   4.782914   5.529883   6.201617
                   31         32         33         34         35
    31  O    0.000000
    32  C    1.403064   0.000000
    33  F    2.262890   1.341439   0.000000
    34  F    2.229425   1.345817   2.184477   0.000000
    35  F    2.240644   1.341875   2.202689   2.185848   0.000000
    36  C    2.538630   2.911065   3.056170   4.232473   2.776485
    37  F    3.011827   2.727347   2.477191   4.038501   2.432463
    38  F    3.706214   4.194326   4.115934   5.520393   4.099704
    39  F    2.942512   3.301369   3.861687   4.484046   2.711153
    40  C    3.041634   4.385336   5.167051   4.689883   5.079409
    41  O    2.785556   3.998258   5.031078   4.226320   4.453609
    42  H    8.063677   9.354631  10.304588   9.653455   9.583358
    43  H    8.836073  10.058435  11.084781  10.130090  10.348254
    44  H    8.824051  10.149857  11.017887  10.342793  10.577542
    45  H    5.797643   6.864712   7.675752   6.571765   7.689748
    46  H    4.758910   5.778927   6.798433   5.510263   6.389987
                   36         37         38         39         40
    36  C    0.000000
    37  F    1.355262   0.000000
    38  F    1.350415   2.162404   0.000000
    39  F    1.351800   2.170488   2.178177   0.000000
    40  C    4.551204   5.595396   5.170545   4.680638   0.000000
    41  O    4.381797   5.371158   5.203543   4.199381   1.229084
    42  H    8.709591  10.000204   8.882591   8.264028   5.370912
    43  H    9.867460  11.090500  10.210768   9.408569   6.080723
    44  H    9.718210  10.992087   9.885379   9.461189   5.871942
    45  H    7.778856   8.689244   8.460303   7.847599   3.303746
    46  H    6.726116   7.625326   7.545893   6.568736   2.579564
                   41         42         43         44         45
    41  O    0.000000
    42  H    5.438907   0.000000
    43  H    6.069089   1.771490   0.000000
    44  H    6.202456   1.771420   1.771500   0.000000
    45  H    3.707848   5.309639   5.043450   4.975532   0.000000
    46  H    2.395669   5.047767   4.968953   5.305939   1.760523
                   46
    46  H    0.000000
 Symmetry turned off by external request.
 Stoichiometry    C15H5F18N3O5
 Framework group  C1[X(C15H5F18N3O5)]
 Deg. of freedom   132
 Full point group                 C1      NOp   1
 Rotational constants (GHZ):      0.1333281      0.0565346      0.0503204
 Leave Link  202 at Sun Mar  3 18:21:03 2024, MaxMem=  5368709120 cpu:         0.1
 (Enter /home/k0335/k033513/app/g09/l301.exe)
 Standard basis: 6-31G(d,p) (6D, 7F)
 Ernie: Thresh=  0.10000D-02 Tol=  0.10000D-05 Strict=F.
   640 basis functions,  1183 primitive gaussians,   640 cartesian basis functions
   159 alpha electrons      159 beta electrons
       nuclear repulsion energy      6177.8264360344 Hartrees.
 IExCor=20419 DFT=T Ex+Corr=CAM-B3LYP ExCW=0 ScaHFX=  1.000000
 ScaDFX=  1.000000  1.000000  1.000000  0.810000 ScalE2=  1.000000  1.000000
 IRadAn=      0 IRanWt=     -1 IRanGd=            0 ICorTp=0 IEmpDi=  4
  HFx wShort=  0.000000 wLong=  0.330000 cFull=  0.190000 cShort=  0.000000 cLong=  0.460000
  DFx wShort=  0.000000 wLong=  0.330000 cFull=  0.190000 cShort=  0.000000 cLong=  0.460000
 NAtoms=   46 NActive=   46 NUniq=   46 SFac= 1.00D+00 NAtFMM=   60 NAOKFM=F Big=F
 Integral buffers will be    131072 words long.
 Raffenetti 2 integral format.
 Two-electron integral symmetry is turned off.
 Using the following non-standard input for PCM:
 eps=4.9
 --- end of non-standard input.
 ------------------------------------------------------------------------------
 Polarizable Continuum Model (PCM)
 =================================
 Model                : PCM (using non-symmetric T matrix).
 Atomic radii         : UFF (Universal Force Field).
 Polarization charges : Total charges.
 Charge compensation  : None.
 Solution method      : On-the-fly selection.
 Cavity type          : Scaled VdW (van der Waals Surface) (Alpha=1.100).
 Cavity algorithm     : GePol (No added spheres)
                        Default sphere list used, NSphG=   46.
                        Lebedev-Laikov grids with approx.  5.0 points / Ang**2.
                        Smoothing algorithm: Karplus/York (Gamma=1.0000).
                        Polarization charges: spherical gaussians, with
                                              point-specific exponents (IZeta= 3).
                        Self-potential: point-specific (ISelfS= 7).
                        Self-field    : sphere-specific E.n sum rule (ISelfD= 2).
 Solvent              : Generic,
                        Eps                           =   4.900000
                        Eps(infinity)                 =   0.000000
                        RSolv                         =   0.000000 Ang.
                        Molar volume                  =   0.000000 cm**3/mol
                        Thermal expansion coefficient =   0.000000 K**-1
                        Absolute temperature          = 298.150000 K
                        Numeral density               =   0.000000 Ang**-3
                        Hydrogen bond acidity         =   0.000000
                        Hydrogen bond basicity        =   0.000000
                        Surface tension at interface  =   0.000000 (cal/mol)*Ang**-2
                        Carbon aromaticity            =   0.000000
                        Electronegative halogenicity  =   0.000000
 ------------------------------------------------------------------------------
 GePol: Number of generator spheres                  =      46
 GePol: Total number of spheres                      =      46
 GePol: Number of exposed spheres                    =      46 (100.00%)
 GePol: Number of points                             =    3869
 GePol: Average weight of points                     =       0.13
 GePol: Minimum weight of points                     =   0.35D-10
 GePol: Maximum weight of points                     =    0.20577
 GePol: Number of points with low weight             =     168
 GePol: Fraction of low-weight points (<1% of avg)   =       4.34%
 GePol: Cavity surface area                          =    486.373 Ang**2
 GePol: Cavity volume                                =    560.624 Ang**3
 Leave Link  301 at Sun Mar  3 18:21:03 2024, MaxMem=  5368709120 cpu:         0.8
 (Enter /home/k0335/k033513/app/g09/l302.exe)
 NPDir=0 NMtPBC=     1 NCelOv=     1 NCel=       1 NClECP=     1 NCelD=      1
         NCelK=      1 NCelE2=     1 NClLst=     1 CellRange=     0.0.
 One-electron integrals computed using PRISM.
 NBasis=   640 RedAO= T EigKep=  2.16D-04  NBF=   640
 NBsUse=   640 1.00D-06 EigRej= -1.00D+00 NBFU=   640
 Precomputing XC quadrature grid using
 IXCGrd= 4 IRadAn=           0 IRanWt=          -1 IRanGd=           0 AccXCQ= 0.00D+00.
 Generated NRdTot=       0 NPtTot=           0 NUsed=           0 NTot=          32
 NSgBfM=   614   614   615   619   619 MxSgAt=    46 MxSgA2=    46.
 Leave Link  302 at Sun Mar  3 18:21:03 2024, MaxMem=  5368709120 cpu:        14.0
 (Enter /home/k0335/k033513/app/g09/l303.exe)
 DipDrv:  MaxL=1.
 Leave Link  303 at Sun Mar  3 18:21:03 2024, MaxMem=  5368709120 cpu:         1.2
 (Enter /home/k0335/k033513/app/g09/l401.exe)
 ExpMin= 1.61D-01 ExpMax= 7.00D+03 ExpMxC= 1.05D+03 IAcc=1 IRadAn=         1 AccDes= 0.00D+00
 Harris functional with IExCor=20419 and IRadAn=       1 diagonalized for initial guess.
 HarFok:  IExCor=20419 AccDes= 0.00D+00 IRadAn=         1 IDoV= 1 UseB2=F ITyADJ=14
 ICtDFT=  3500011 ScaDFX=  1.000000  1.000000  1.000000  1.000000
 FoFCou: FMM=F IPFlag=           0 FMFlag=      100000 FMFlg1=           0
         NFxFlg=           0 DoJE=T BraDBF=F KetDBF=T FulRan=T
         wScrn=  0.000000 ICntrl=     500 IOpCl=  0 I1Cent=   200000004 NGrid=           0
         NMat0=    1 NMatS0=      1 NMatT0=    0 NMatD0=    1 NMtDS0=    0 NMtDT0=    0
 Symmetry not used in FoFCou.
 Harris En= -2823.35510530874    
 JPrj=0 DoOrth=F DoCkMO=F.
 Leave Link  401 at Sun Mar  3 18:21:04 2024, MaxMem=  5368709120 cpu:        15.0
 (Enter /home/k0335/k033513/app/g09/l502.exe)
 Closed shell SCF:
 Using DIIS extrapolation, IDIIS=  1040.
 Two-electron integral symmetry not used.
 IVT=     1266642 IEndB=     1266642 NGot=  5368709120 MDV=  5367869359
 LenX=  5367869359 LenY=  5367459119
 Requested convergence on RMS density matrix=1.00D-08 within 128 cycles.
 Requested convergence on MAX density matrix=1.00D-06.
 Requested convergence on             energy=1.00D-06.
 No special actions if energy rises.
 Fock matrices will be formed incrementally for  20 cycles.

 Cycle   1  Pass 1  IDiag  1:
 FoFJK:  IHMeth= 1 ICntrl=       0 DoSepK=T KAlg= 0 I1Cent=   0 FoldK=F
 IRaf=         1 NMat=   1 IRICut=       1 DoRegI=T DoRafI=F ISym2E= 0.
 FoFCou: FMM=F IPFlag=           0 FMFlag=      100000 FMFlg1=           0
         NFxFlg=           0 DoJE=T BraDBF=F KetDBF=F FulRan=T
         wScrn=  0.000000 ICntrl=     500 IOpCl=  0 I1Cent=           0 NGrid=           0
         NMat0=    1 NMatS0=      1 NMatT0=    0 NMatD0=    1 NMtDS0=    0 NMtDT0=    0
 Symmetry not used in FoFCou.
 Inv3:  Mode=1 IEnd=    44907483.
 Iteration    1 A*A^-1 deviation from unit magnitude is 5.33D-15 for   3844.
 Iteration    1 A*A^-1 deviation from orthogonality  is 4.24D-15 for   3846   3643.
 Iteration    1 A^-1*A deviation from unit magnitude is 5.22D-15 for   3844.
 Iteration    1 A^-1*A deviation from orthogonality  is 2.59D-13 for   3863   3789.
 E= -2910.25736113093    
 DIIS: error= 4.65D-02 at cycle   1 NSaved=   1.
 NSaved= 1 IEnMin= 1 EnMin= -2910.25736113093     IErMin= 1 ErrMin= 4.65D-02
 ErrMax= 4.65D-02  0.00D+00 EMaxC= 1.00D-01 BMatC= 2.41D+00 BMatP= 2.41D+00
 IDIUse=3 WtCom= 5.35D-01 WtEn= 4.65D-01
 Coeff-Com:  0.100D+01
 Coeff-En:   0.100D+01
 Coeff:      0.100D+01
 Gap=     0.615 Goal=   None    Shift=    0.000
 GapD=    0.615 DampG=2.000 DampE=0.500 DampFc=1.0000 IDamp=-1.
 RMSDP=2.99D-03 MaxDP=1.47D-01              OVMax= 2.17D-01

 Cycle   2  Pass 1  IDiag  1:
 RMSU=  2.99D-03    CP:  1.00D+00
 E= -2910.62811898235     Delta-E=       -0.370757851422 Rises=F Damp=F
 DIIS: error= 2.03D-02 at cycle   2 NSaved=   2.
 NSaved= 2 IEnMin= 2 EnMin= -2910.62811898235     IErMin= 2 ErrMin= 2.03D-02
 ErrMax= 2.03D-02  0.00D+00 EMaxC= 1.00D-01 BMatC= 9.07D-01 BMatP= 2.41D+00
 IDIUse=3 WtCom= 7.97D-01 WtEn= 2.03D-01
 Coeff-Com:  0.358D+00 0.642D+00
 Coeff-En:   0.342D+00 0.658D+00
 Coeff:      0.355D+00 0.645D+00
 Gap=     0.329 Goal=   None    Shift=    0.000
 RMSDP=1.61D-03 MaxDP=1.41D-01 DE=-3.71D-01 OVMax= 1.40D-01

 Cycle   3  Pass 1  IDiag  1:
 RMSU=  1.05D-03    CP:  9.99D-01  5.91D-01
 E= -2911.02368833556     Delta-E=       -0.395569353210 Rises=F Damp=F
 DIIS: error= 1.38D-02 at cycle   3 NSaved=   3.
 NSaved= 3 IEnMin= 3 EnMin= -2911.02368833556     IErMin= 3 ErrMin= 1.38D-02
 ErrMax= 1.38D-02  0.00D+00 EMaxC= 1.00D-01 BMatC= 2.60D-01 BMatP= 9.07D-01
 IDIUse=3 WtCom= 8.62D-01 WtEn= 1.38D-01
 Coeff-Com:  0.113D+00 0.365D+00 0.522D+00
 Coeff-En:   0.000D+00 0.232D+00 0.768D+00
 Coeff:      0.977D-01 0.346D+00 0.556D+00
 Gap=     0.328 Goal=   None    Shift=    0.000
 RMSDP=7.91D-04 MaxDP=7.29D-02 DE=-3.96D-01 OVMax= 9.96D-02

 Cycle   4  Pass 1  IDiag  1:
 RMSU=  3.45D-04    CP:  9.99D-01  7.09D-01  4.11D-01
 E= -2911.19018831276     Delta-E=       -0.166499977197 Rises=F Damp=F
 DIIS: error= 4.57D-03 at cycle   4 NSaved=   4.
 NSaved= 4 IEnMin= 4 EnMin= -2911.19018831276     IErMin= 4 ErrMin= 4.57D-03
 ErrMax= 4.57D-03  0.00D+00 EMaxC= 1.00D-01 BMatC= 2.60D-02 BMatP= 2.60D-01
 IDIUse=3 WtCom= 9.54D-01 WtEn= 4.57D-02
 Coeff-Com:  0.745D-02 0.954D-01 0.291D+00 0.606D+00
 Coeff-En:   0.000D+00 0.000D+00 0.594D-01 0.941D+00
 Coeff:      0.711D-02 0.911D-01 0.281D+00 0.621D+00
 Gap=     0.324 Goal=   None    Shift=    0.000
 RMSDP=2.44D-04 MaxDP=2.36D-02 DE=-1.66D-01 OVMax= 2.65D-02

 Cycle   5  Pass 1  IDiag  1:
 RMSU=  1.03D-04    CP:  9.98D-01  6.96D-01  5.91D-01  6.90D-01
 E= -2911.20733926258     Delta-E=       -0.017150949823 Rises=F Damp=F
 DIIS: error= 7.49D-04 at cycle   5 NSaved=   5.
 NSaved= 5 IEnMin= 5 EnMin= -2911.20733926258     IErMin= 5 ErrMin= 7.49D-04
 ErrMax= 7.49D-04  0.00D+00 EMaxC= 1.00D-01 BMatC= 1.83D-03 BMatP= 2.60D-02
 IDIUse=3 WtCom= 9.93D-01 WtEn= 7.49D-03
 Coeff-Com: -0.168D-02 0.290D-01 0.121D+00 0.345D+00 0.507D+00
 Coeff-En:   0.000D+00 0.000D+00 0.000D+00 0.000D+00 0.100D+01
 Coeff:     -0.167D-02 0.288D-01 0.120D+00 0.342D+00 0.510D+00
 Gap=     0.322 Goal=   None    Shift=    0.000
 RMSDP=5.59D-05 MaxDP=4.29D-03 DE=-1.72D-02 OVMax= 5.35D-03

 Cycle   6  Pass 1  IDiag  1:
 RMSU=  2.60D-05    CP:  9.98D-01  7.02D-01  5.76D-01  7.28D-01  6.00D-01
 E= -2911.20862738637     Delta-E=       -0.001288123785 Rises=F Damp=F
 DIIS: error= 8.48D-05 at cycle   6 NSaved=   6.
 NSaved= 6 IEnMin= 6 EnMin= -2911.20862738637     IErMin= 6 ErrMin= 8.48D-05
 ErrMax= 8.48D-05  0.00D+00 EMaxC= 1.00D-01 BMatC= 2.84D-05 BMatP= 1.83D-03
 IDIUse=1 WtCom= 1.00D+00 WtEn= 0.00D+00
 Coeff-Com: -0.685D-03-0.249D-02-0.155D-02 0.142D-01 0.119D+00 0.871D+00
 Coeff:     -0.685D-03-0.249D-02-0.155D-02 0.142D-01 0.119D+00 0.871D+00
 Gap=     0.323 Goal=   None    Shift=    0.000
 RMSDP=1.12D-05 MaxDP=6.94D-04 DE=-1.29D-03 OVMax= 7.12D-04

 Cycle   7  Pass 1  IDiag  1:
 RMSU=  7.37D-06    CP:  9.98D-01  7.02D-01  5.79D-01  7.41D-01  6.62D-01
                    CP:  1.01D+00
 E= -2911.20865170684     Delta-E=       -0.000024320472 Rises=F Damp=F
 DIIS: error= 4.62D-05 at cycle   7 NSaved=   7.
 NSaved= 7 IEnMin= 7 EnMin= -2911.20865170684     IErMin= 7 ErrMin= 4.62D-05
 ErrMax= 4.62D-05  0.00D+00 EMaxC= 1.00D-01 BMatC= 4.06D-06 BMatP= 2.84D-05
 IDIUse=1 WtCom= 1.00D+00 WtEn= 0.00D+00
 Coeff-Com: -0.154D-03-0.274D-02-0.734D-02-0.138D-01 0.241D-01 0.368D+00
 Coeff-Com:  0.632D+00
 Coeff:     -0.154D-03-0.274D-02-0.734D-02-0.138D-01 0.241D-01 0.368D+00
 Coeff:      0.632D+00
 Gap=     0.323 Goal=   None    Shift=    0.000
 RMSDP=3.23D-06 MaxDP=1.97D-04 DE=-2.43D-05 OVMax= 2.62D-04

 Cycle   8  Pass 1  IDiag  1:
 RMSU=  2.29D-06    CP:  9.98D-01  7.01D-01  5.80D-01  7.41D-01  6.71D-01
                    CP:  1.07D+00  8.16D-01
 E= -2911.20865501611     Delta-E=       -0.000003309271 Rises=F Damp=F
 DIIS: error= 1.13D-05 at cycle   8 NSaved=   8.
 NSaved= 8 IEnMin= 8 EnMin= -2911.20865501611     IErMin= 8 ErrMin= 1.13D-05
 ErrMax= 1.13D-05  0.00D+00 EMaxC= 1.00D-01 BMatC= 3.51D-07 BMatP= 4.06D-06
 IDIUse=1 WtCom= 1.00D+00 WtEn= 0.00D+00
 Coeff-Com:  0.104D-04-0.849D-03-0.264D-02-0.732D-02-0.448D-02 0.346D-01
 Coeff-Com:  0.229D+00 0.752D+00
 Coeff:      0.104D-04-0.849D-03-0.264D-02-0.732D-02-0.448D-02 0.346D-01
 Coeff:      0.229D+00 0.752D+00
 Gap=     0.323 Goal=   None    Shift=    0.000
 RMSDP=1.31D-06 MaxDP=1.09D-04 DE=-3.31D-06 OVMax= 1.53D-04

 Cycle   9  Pass 1  IDiag  1:
 RMSU=  9.22D-07    CP:  9.98D-01  7.01D-01  5.80D-01  7.41D-01  6.75D-01
                    CP:  1.09D+00  8.84D-01  1.04D+00
 E= -2911.20865535007     Delta-E=       -0.000000333963 Rises=F Damp=F
 DIIS: error= 5.39D-06 at cycle   9 NSaved=   9.
 NSaved= 9 IEnMin= 9 EnMin= -2911.20865535007     IErMin= 9 ErrMin= 5.39D-06
 ErrMax= 5.39D-06  0.00D+00 EMaxC= 1.00D-01 BMatC= 5.40D-08 BMatP= 3.51D-07
 IDIUse=1 WtCom= 1.00D+00 WtEn= 0.00D+00
 Coeff-Com:  0.212D-04 0.347D-04 0.907D-05-0.112D-02-0.547D-02-0.421D-01
 Coeff-Com:  0.656D-02 0.320D+00 0.722D+00
 Coeff:      0.212D-04 0.347D-04 0.907D-05-0.112D-02-0.547D-02-0.421D-01
 Coeff:      0.656D-02 0.320D+00 0.722D+00
 Gap=     0.323 Goal=   None    Shift=    0.000
 RMSDP=5.47D-07 MaxDP=4.59D-05 DE=-3.34D-07 OVMax= 8.53D-05

 Cycle  10  Pass 1  IDiag  1:
 RMSU=  3.32D-07    CP:  9.98D-01  7.01D-01  5.80D-01  7.41D-01  6.76D-01
                    CP:  1.09D+00  9.15D-01  1.15D+00  9.08D-01
 E= -2911.20865540436     Delta-E=       -0.000000054288 Rises=F Damp=F
 DIIS: error= 3.38D-06 at cycle  10 NSaved=  10.
 NSaved=10 IEnMin=10 EnMin= -2911.20865540436     IErMin=10 ErrMin= 3.38D-06
 ErrMax= 3.38D-06  0.00D+00 EMaxC= 1.00D-01 BMatC= 7.18D-09 BMatP= 5.40D-08
 IDIUse=1 WtCom= 1.00D+00 WtEn= 0.00D+00
 Coeff-Com:  0.833D-05 0.950D-04 0.268D-03 0.161D-03-0.199D-02-0.231D-01
 Coeff-Com: -0.185D-01 0.786D-01 0.336D+00 0.629D+00
 Coeff:      0.833D-05 0.950D-04 0.268D-03 0.161D-03-0.199D-02-0.231D-01
 Coeff:     -0.185D-01 0.786D-01 0.336D+00 0.629D+00
 Gap=     0.323 Goal=   None    Shift=    0.000
 RMSDP=1.71D-07 MaxDP=2.05D-05 DE=-5.43D-08 OVMax= 3.68D-05

 Cycle  11  Pass 1  IDiag  1:
 RMSU=  1.19D-07    CP:  9.98D-01  7.01D-01  5.80D-01  7.41D-01  6.76D-01
                    CP:  1.09D+00  9.21D-01  1.16D+00  9.92D-01  8.53D-01
 E= -2911.20865541099     Delta-E=       -0.000000006627 Rises=F Damp=F
 DIIS: error= 1.19D-06 at cycle  11 NSaved=  11.
 NSaved=11 IEnMin=11 EnMin= -2911.20865541099     IErMin=11 ErrMin= 1.19D-06
 ErrMax= 1.19D-06  0.00D+00 EMaxC= 1.00D-01 BMatC= 1.27D-09 BMatP= 7.18D-09
 IDIUse=1 WtCom= 1.00D+00 WtEn= 0.00D+00
 Coeff-Com:  0.113D-05 0.429D-04 0.144D-03 0.251D-03-0.289D-04-0.487D-02
 Coeff-Com: -0.982D-02-0.819D-02 0.564D-01 0.321D+00 0.645D+00
 Coeff:      0.113D-05 0.429D-04 0.144D-03 0.251D-03-0.289D-04-0.487D-02
 Coeff:     -0.982D-02-0.819D-02 0.564D-01 0.321D+00 0.645D+00
 Gap=     0.323 Goal=   None    Shift=    0.000
 RMSDP=6.30D-08 MaxDP=6.14D-06 DE=-6.63D-09 OVMax= 1.21D-05

 Cycle  12  Pass 1  IDiag  1:
 RMSU=  3.61D-08    CP:  9.98D-01  7.01D-01  5.80D-01  7.41D-01  6.76D-01
                    CP:  1.09D+00  9.21D-01  1.17D+00  1.00D+00  9.57D-01
                    CP:  8.56D-01
 E= -2911.20865541207     Delta-E=       -0.000000001084 Rises=F Damp=F
 DIIS: error= 2.03D-07 at cycle  12 NSaved=  12.
 NSaved=12 IEnMin=12 EnMin= -2911.20865541207     IErMin=12 ErrMin= 2.03D-07
 ErrMax= 2.03D-07  0.00D+00 EMaxC= 1.00D-01 BMatC= 7.91D-11 BMatP= 1.27D-09
 IDIUse=1 WtCom= 1.00D+00 WtEn= 0.00D+00
 Coeff-Com: -0.325D-06 0.406D-05 0.225D-04 0.627D-04 0.263D-03 0.959D-03
 Coeff-Com: -0.119D-02-0.114D-01-0.209D-01 0.285D-01 0.180D+00 0.824D+00
 Coeff:     -0.325D-06 0.406D-05 0.225D-04 0.627D-04 0.263D-03 0.959D-03
 Coeff:     -0.119D-02-0.114D-01-0.209D-01 0.285D-01 0.180D+00 0.824D+00
 Gap=     0.323 Goal=   None    Shift=    0.000
 RMSDP=2.43D-08 MaxDP=1.86D-06 DE=-1.08D-09 OVMax= 3.58D-06

 Cycle  13  Pass 1  IDiag  1:
 RMSU=  1.24D-08    CP:  9.98D-01  7.01D-01  5.80D-01  7.41D-01  6.76D-01
                    CP:  1.09D+00  9.22D-01  1.18D+00  1.01D+00  9.87D-01
                    CP:  9.33D-01  1.02D+00
 E= -2911.20865541219     Delta-E=       -0.000000000120 Rises=F Damp=F
 DIIS: error= 5.64D-08 at cycle  13 NSaved=  13.
 NSaved=13 IEnMin=13 EnMin= -2911.20865541219     IErMin=13 ErrMin= 5.64D-08
 ErrMax= 5.64D-08  0.00D+00 EMaxC= 1.00D-01 BMatC= 9.52D-12 BMatP= 7.91D-11
 IDIUse=1 WtCom= 1.00D+00 WtEn= 0.00D+00
 Coeff-Com: -0.260D-06-0.280D-05-0.453D-05-0.202D-05 0.108D-03 0.816D-03
 Coeff-Com:  0.529D-03-0.332D-02-0.133D-01-0.217D-01-0.573D-02 0.288D+00
 Coeff-Com:  0.755D+00
 Coeff:     -0.260D-06-0.280D-05-0.453D-05-0.202D-05 0.108D-03 0.816D-03
 Coeff:      0.529D-03-0.332D-02-0.133D-01-0.217D-01-0.573D-02 0.288D+00
 Coeff:      0.755D+00
 Gap=     0.323 Goal=   None    Shift=    0.000
 RMSDP=7.33D-09 MaxDP=5.25D-07 DE=-1.20D-10 OVMax= 1.05D-06

 Error on total polarization charges =  0.00310
 SCF Done:  E(RCAM-B3LYP) =  -2911.20865541     A.U. after   13 cycles
            NFock= 13  Conv=0.73D-08     -V/T= 2.0074
 KE= 2.889826078841D+03 PE=-1.923301606290D+04 EE= 7.254154892612D+03
 Leave Link  502 at Sun Mar  3 18:22:02 2024, MaxMem=  5368709120 cpu:      1309.6
 (Enter /home/k0335/k033513/app/g09/l601.exe)
 Copying SCF densities to generalized density rwf, IOpCl= 0 IROHF=0.

 **********************************************************************

            Population analysis using the SCF density.

 **********************************************************************

 Alpha  occ. eigenvalues --  -24.84428 -24.83821 -24.83684 -24.83607 -24.83498
 Alpha  occ. eigenvalues --  -24.83472 -24.83298 -24.83274 -24.83237 -24.83183
 Alpha  occ. eigenvalues --  -24.83180 -24.83081 -24.83011 -24.82920 -24.82892
 Alpha  occ. eigenvalues --  -24.82874 -24.82867 -24.82542 -19.33259 -19.33022
 Alpha  occ. eigenvalues --  -19.24398 -19.24387 -19.24385 -14.53539 -14.53291
 Alpha  occ. eigenvalues --  -14.51088 -10.59769 -10.59380 -10.55573 -10.55531
 Alpha  occ. eigenvalues --  -10.53934 -10.53689 -10.49217 -10.49184 -10.47137
 Alpha  occ. eigenvalues --  -10.46153 -10.46128 -10.34381 -10.27968 -10.26982
 Alpha  occ. eigenvalues --  -10.26107  -1.43425  -1.42922  -1.42085  -1.41898
 Alpha  occ. eigenvalues --   -1.39325  -1.39159  -1.35903  -1.35696  -1.33748
 Alpha  occ. eigenvalues --   -1.33478  -1.33363  -1.33257  -1.32937  -1.32874
 Alpha  occ. eigenvalues --   -1.32281  -1.32277  -1.31802  -1.31657  -1.23739
 Alpha  occ. eigenvalues --   -1.20821  -1.20416  -1.18368  -1.18236  -1.10390
 Alpha  occ. eigenvalues --   -1.08934  -1.07410  -0.94206  -0.93525  -0.89115
 Alpha  occ. eigenvalues --   -0.86392  -0.84858  -0.84607  -0.82266  -0.80874
 Alpha  occ. eigenvalues --   -0.80120  -0.79473  -0.77665  -0.76038  -0.75572
 Alpha  occ. eigenvalues --   -0.75114  -0.73532  -0.73078  -0.72505  -0.71943
 Alpha  occ. eigenvalues --   -0.70747  -0.70558  -0.70194  -0.69437  -0.69177
 Alpha  occ. eigenvalues --   -0.68684  -0.68283  -0.67904  -0.67552  -0.66839
 Alpha  occ. eigenvalues --   -0.66688  -0.65727  -0.65024  -0.64429  -0.63144
 Alpha  occ. eigenvalues --   -0.60332  -0.60125  -0.60061  -0.58667  -0.57808
 Alpha  occ. eigenvalues --   -0.57304  -0.57268  -0.57177  -0.56820  -0.56413
 Alpha  occ. eigenvalues --   -0.56344  -0.56208  -0.55899  -0.55742  -0.55126
 Alpha  occ. eigenvalues --   -0.55084  -0.54868  -0.54808  -0.54624  -0.54267
 Alpha  occ. eigenvalues --   -0.53879  -0.53603  -0.53470  -0.53248  -0.52989
 Alpha  occ. eigenvalues --   -0.52699  -0.52559  -0.52304  -0.52249  -0.51711
 Alpha  occ. eigenvalues --   -0.51621  -0.51119  -0.50974  -0.50877  -0.50677
 Alpha  occ. eigenvalues --   -0.50673  -0.50533  -0.50113  -0.50058  -0.49888
 Alpha  occ. eigenvalues --   -0.49745  -0.49658  -0.49362  -0.49114  -0.48987
 Alpha  occ. eigenvalues --   -0.48907  -0.48770  -0.46019  -0.45829  -0.44868
 Alpha  occ. eigenvalues --   -0.44760  -0.40720  -0.39970  -0.39556  -0.38667
 Alpha  occ. eigenvalues --   -0.37659  -0.36251  -0.33133  -0.32409
 Alpha virt. eigenvalues --   -0.00095   0.00525   0.05227   0.06053   0.06784
 Alpha virt. eigenvalues --    0.08393   0.09067   0.10264   0.11206   0.13101
 Alpha virt. eigenvalues --    0.14955   0.16143   0.16467   0.17102   0.17734
 Alpha virt. eigenvalues --    0.19206   0.19636   0.19838   0.20361   0.21466
 Alpha virt. eigenvalues --    0.22095   0.22430   0.22550   0.22769   0.22989
 Alpha virt. eigenvalues --    0.23493   0.23722   0.24123   0.24412   0.24836
 Alpha virt. eigenvalues --    0.24988   0.25370   0.25930   0.26681   0.27088
 Alpha virt. eigenvalues --    0.27439   0.27684   0.28666   0.29105   0.30152
 Alpha virt. eigenvalues --    0.30672   0.31446   0.32683   0.33368   0.36433
 Alpha virt. eigenvalues --    0.37715   0.38257   0.38548   0.39879   0.42880
 Alpha virt. eigenvalues --    0.45632   0.47004   0.47736   0.48226   0.48998
 Alpha virt. eigenvalues --    0.50223   0.51100   0.51199   0.51633   0.52321
 Alpha virt. eigenvalues --    0.52854   0.53562   0.53979   0.54590   0.54716
 Alpha virt. eigenvalues --    0.55781   0.56371   0.56570   0.56946   0.57787
 Alpha virt. eigenvalues --    0.58305   0.58976   0.60188   0.61012   0.61396
 Alpha virt. eigenvalues --    0.61720   0.63014   0.63685   0.64537   0.66143
 Alpha virt. eigenvalues --    0.67536   0.68163   0.68589   0.70342   0.70709
 Alpha virt. eigenvalues --    0.71284   0.71916   0.73730   0.74368   0.75888
 Alpha virt. eigenvalues --    0.78198   0.79575   0.80564   0.81342   0.81585
 Alpha virt. eigenvalues --    0.82132   0.83255   0.84420   0.85049   0.86058
 Alpha virt. eigenvalues --    0.87416   0.87969   0.88766   0.89441   0.90002
 Alpha virt. eigenvalues --    0.90614   0.91313   0.92079   0.93021   0.93839
 Alpha virt. eigenvalues --    0.95073   0.95566   0.96366   0.97895   0.98160
 Alpha virt. eigenvalues --    0.99029   0.99786   1.00906   1.01560   1.02638
 Alpha virt. eigenvalues --    1.03525   1.04629   1.05178   1.06003   1.06232
 Alpha virt. eigenvalues --    1.07582   1.08620   1.09019   1.09616   1.10213
 Alpha virt. eigenvalues --    1.10983   1.11092   1.12504   1.12835   1.13731
 Alpha virt. eigenvalues --    1.14263   1.14926   1.15258   1.16213   1.16568
 Alpha virt. eigenvalues --    1.17435   1.18182   1.18228   1.19299   1.19675
 Alpha virt. eigenvalues --    1.19831   1.20805   1.21255   1.21869   1.23272
 Alpha virt. eigenvalues --    1.23514   1.24651   1.25236   1.25709   1.26338
 Alpha virt. eigenvalues --    1.27603   1.28305   1.29057   1.29623   1.30723
 Alpha virt. eigenvalues --    1.31177   1.31587   1.32529   1.33307   1.33655
 Alpha virt. eigenvalues --    1.34157   1.34439   1.35397   1.35906   1.36219
 Alpha virt. eigenvalues --    1.36516   1.37012   1.37988   1.38207   1.39065
 Alpha virt. eigenvalues --    1.39330   1.39710   1.40058   1.40603   1.40791
 Alpha virt. eigenvalues --    1.40941   1.41791   1.42469   1.43453   1.43685
 Alpha virt. eigenvalues --    1.44826   1.45292   1.45669   1.46346   1.47661
 Alpha virt. eigenvalues --    1.48271   1.48815   1.49628   1.50193   1.50565
 Alpha virt. eigenvalues --    1.51238   1.51963   1.52500   1.53378   1.53804
 Alpha virt. eigenvalues --    1.53984   1.54454   1.54931   1.55435   1.56075
 Alpha virt. eigenvalues --    1.56649   1.57178   1.58423   1.58832   1.59398
 Alpha virt. eigenvalues --    1.59739   1.60319   1.61321   1.61871   1.62177
 Alpha virt. eigenvalues --    1.63632   1.64044   1.64504   1.65966   1.66757
 Alpha virt. eigenvalues --    1.67340   1.67499   1.68949   1.69656   1.70603
 Alpha virt. eigenvalues --    1.71178   1.71887   1.72398   1.72983   1.73441
 Alpha virt. eigenvalues --    1.74162   1.75233   1.75312   1.75938   1.76939
 Alpha virt. eigenvalues --    1.77481   1.79014   1.79420   1.79613   1.79901
 Alpha virt. eigenvalues --    1.80969   1.82462   1.83281   1.83666   1.83808
 Alpha virt. eigenvalues --    1.84265   1.84717   1.85236   1.86138   1.86312
 Alpha virt. eigenvalues --    1.86590   1.87086   1.87680   1.87962   1.88129
 Alpha virt. eigenvalues --    1.88877   1.89231   1.89996   1.90284   1.90611
 Alpha virt. eigenvalues --    1.91004   1.91283   1.91510   1.92246   1.92427
 Alpha virt. eigenvalues --    1.92982   1.93186   1.93753   1.93946   1.94509
 Alpha virt. eigenvalues --    1.94650   1.95517   1.96048   1.96870   1.97328
 Alpha virt. eigenvalues --    1.97440   1.97940   1.98172   1.98626   1.99102
 Alpha virt. eigenvalues --    1.99482   1.99747   2.00523   2.00869   2.01184
 Alpha virt. eigenvalues --    2.01439   2.01894   2.02385   2.02865   2.02989
 Alpha virt. eigenvalues --    2.03306   2.03699   2.04186   2.04588   2.04801
 Alpha virt. eigenvalues --    2.05369   2.06120   2.06725   2.07020   2.07585
 Alpha virt. eigenvalues --    2.07861   2.08619   2.08865   2.08930   2.09321
 Alpha virt. eigenvalues --    2.09973   2.10719   2.11165   2.11608   2.11950
 Alpha virt. eigenvalues --    2.12470   2.12977   2.13772   2.14738   2.15902
 Alpha virt. eigenvalues --    2.16325   2.17084   2.17407   2.17986   2.18698
 Alpha virt. eigenvalues --    2.19308   2.19821   2.19850   2.20737   2.21057
 Alpha virt. eigenvalues --    2.22633   2.22893   2.23266   2.24093   2.24596
 Alpha virt. eigenvalues --    2.26017   2.26957   2.27572   2.29369   2.29644
 Alpha virt. eigenvalues --    2.29995   2.31449   2.31856   2.33299   2.35228
 Alpha virt. eigenvalues --    2.36385   2.36655   2.37718   2.38080   2.39100
 Alpha virt. eigenvalues --    2.40586   2.41186   2.42278   2.43849   2.44086
 Alpha virt. eigenvalues --    2.45495   2.46371   2.46974   2.47508   2.48768
 Alpha virt. eigenvalues --    2.49555   2.50248   2.51200   2.51834   2.53935
 Alpha virt. eigenvalues --    2.55809   2.56621   2.58019   2.58232   2.59504
 Alpha virt. eigenvalues --    2.59964   2.61157   2.62529   2.62822   2.64431
 Alpha virt. eigenvalues --    2.65725   2.66664   2.67586   2.69012   2.70490
 Alpha virt. eigenvalues --    2.71219   2.71892   2.75493   2.76270   2.77223
 Alpha virt. eigenvalues --    2.78482   2.79027   2.79653   2.81046   2.82617
 Alpha virt. eigenvalues --    2.83118   2.83757   2.84710   2.85269   2.85665
 Alpha virt. eigenvalues --    2.87225   2.88046   2.88542   2.90813   2.91123
 Alpha virt. eigenvalues --    2.91527   2.92173   2.93210   2.94129   2.94567
 Alpha virt. eigenvalues --    2.96686   2.98119   2.99176   2.99734   3.01111
 Alpha virt. eigenvalues --    3.03112   3.03660   3.04487   3.04959   3.05595
 Alpha virt. eigenvalues --    3.06580   3.07179   3.08017   3.09797   3.11005
 Alpha virt. eigenvalues --    3.11722   3.11953   3.13078   3.14744   3.15508
 Alpha virt. eigenvalues --    3.18194   3.18603   3.20863   3.21969   3.22205
 Alpha virt. eigenvalues --    3.23242   3.24384   3.28396   3.29107   3.30654
 Alpha virt. eigenvalues --    3.31355   3.33210   3.34164   3.37383   3.44621
 Alpha virt. eigenvalues --    3.49705   3.49755   3.52629   3.54293   3.62670
 Alpha virt. eigenvalues --    4.00827   4.07623   4.13900   4.18614   4.21705
 Alpha virt. eigenvalues --    4.24825   4.25865   4.29464   4.33937   4.36625
 Alpha virt. eigenvalues --    4.38209   4.40988   4.44052   4.45225   4.47997
 Alpha virt. eigenvalues --    4.49393   4.56231   4.58030   4.59988   4.67717
 Alpha virt. eigenvalues --    4.72812   4.73930   4.76850   4.82972   4.86765
 Alpha virt. eigenvalues --    4.88374   4.96639   4.99784   5.08766   5.15920
 Alpha virt. eigenvalues --    5.25279   5.33108   5.36469   5.44446   5.54274
 Alpha virt. eigenvalues --    5.67058   5.88780   6.21894   6.25648   6.39006
 Alpha virt. eigenvalues --    6.66422
          Condensed to atoms (all electrons):
               1          2          3          4          5          6
     1  C    4.984458   0.380220  -0.085379   0.002906  -0.000042  -0.000010
     2  C    0.380220   4.992067   0.797860  -0.076588  -0.004307  -0.000246
     3  C   -0.085379   0.797860   5.064822   0.329511  -0.077700  -0.000565
     4  C    0.002906  -0.076588   0.329511   4.926204   0.260069  -0.021237
     5  N   -0.000042  -0.004307  -0.077700   0.260069   7.336088   0.248930
     6  C   -0.000010  -0.000246  -0.000565  -0.021237   0.248930   4.179143
     7  O   -0.000002  -0.000803  -0.001398   0.001467  -0.088317   0.584039
     8  N    0.000000  -0.000023  -0.000387   0.003036  -0.093499   0.194245
     9  C    0.000000   0.000001   0.000009  -0.000036   0.001717  -0.013446
    10  F    0.000000   0.000000   0.000000   0.000008  -0.000019   0.008238
    11  F    0.000000   0.000000   0.000000   0.000000  -0.000020   0.000648
    12  C    0.000000   0.000000  -0.000001   0.000003  -0.000258  -0.002479
    13  F    0.000000   0.000000  -0.000001   0.000002   0.000023   0.007274
    14  O    0.000000   0.000000   0.000000   0.000000   0.000000   0.000142
    15  C    0.000000   0.000000   0.000000   0.000000   0.000000  -0.000045
    16  F    0.000000   0.000000   0.000000   0.000000   0.000000   0.000000
    17  F    0.000000   0.000000   0.000000   0.000000   0.000000  -0.000006
    18  F    0.000000   0.000000   0.000000   0.000000   0.000000   0.000008
    19  C    0.000000   0.000000   0.000000   0.000000   0.000012  -0.000287
    20  F    0.000000   0.000000   0.000000   0.000000   0.000000   0.000037
    21  F    0.000000   0.000000   0.000000   0.000000   0.000000   0.000005
    22  F    0.000000   0.000000   0.000000   0.000000  -0.000152   0.003612
    23  C    0.000000   0.000006   0.000077   0.000192  -0.004945  -0.008245
    24  O    0.000000   0.000000   0.000000   0.000003   0.000174  -0.000122
    25  N    0.000000   0.000013  -0.000482   0.002818  -0.093123  -0.001419
    26  C    0.000000   0.000001   0.000009  -0.000042   0.002002   0.000123
    27  F    0.000000   0.000000   0.000000   0.000000  -0.000026  -0.000005
    28  F    0.000000   0.000000  -0.000002   0.000006   0.000037  -0.000001
    29  C    0.000000   0.000000   0.000000   0.000001  -0.000189   0.000058
    30  F    0.000000   0.000000   0.000000   0.000000   0.000001   0.000003
    31  O    0.000000   0.000000   0.000000   0.000002  -0.000209   0.000027
    32  C    0.000000   0.000000   0.000000   0.000000  -0.000002   0.000000
    33  F    0.000000   0.000000   0.000000   0.000000   0.000000   0.000000
    34  F    0.000000   0.000000   0.000000   0.000000   0.000000   0.000000
    35  F    0.000000   0.000000   0.000000   0.000000   0.000000   0.000000
    36  C    0.000000   0.000000   0.000000   0.000000   0.000000   0.000000
    37  F    0.000000   0.000000   0.000000   0.000000   0.000000   0.000000
    38  F    0.000000   0.000000   0.000000   0.000000   0.000000   0.000000
    39  F    0.000000   0.000000   0.000000   0.000000   0.000000   0.000000
    40  C   -0.000010  -0.000115   0.002014  -0.020118   0.241712  -0.022323
    41  O   -0.000001  -0.000503  -0.001567  -0.000702  -0.088116   0.000642
    42  H    0.374741  -0.024353   0.002803   0.000032   0.000009   0.000000
    43  H    0.377778  -0.023861   0.000090  -0.000073  -0.000003   0.000000
    44  H    0.375724  -0.025080   0.002248   0.000016   0.000003  -0.000002
    45  H   -0.000024  -0.000867  -0.034626   0.386794  -0.034350  -0.003272
    46  H   -0.000020  -0.000423  -0.034290   0.384923  -0.034732   0.004541
               7          8          9         10         11         12
     1  C   -0.000002   0.000000   0.000000   0.000000   0.000000   0.000000
     2  C   -0.000803  -0.000023   0.000001   0.000000   0.000000   0.000000
     3  C   -0.001398  -0.000387   0.000009   0.000000   0.000000  -0.000001
     4  C    0.001467   0.003036  -0.000036   0.000008   0.000000   0.000003
     5  N   -0.088317  -0.093499   0.001717  -0.000019  -0.000020  -0.000258
     6  C    0.584039   0.194245  -0.013446   0.008238   0.000648  -0.002479
     7  O    8.074361  -0.089502   0.016445  -0.008339   0.000011  -0.001461
     8  N   -0.089502   7.617837   0.156151  -0.047517  -0.038809  -0.057173
     9  C    0.016445   0.156151   4.461034   0.251803   0.275011   0.174258
    10  F   -0.008339  -0.047517   0.251803   9.126718  -0.042652  -0.023484
    11  F    0.000011  -0.038809   0.275011  -0.042652   9.088242  -0.032450
    12  C   -0.001461  -0.057173   0.174258  -0.023484  -0.032450   4.996066
    13  F   -0.004866   0.000218  -0.028252   0.000231   0.000298   0.228329
    14  O   -0.000006   0.001708  -0.028664  -0.001798   0.000163   0.152728
    15  C   -0.000043   0.000273  -0.003388   0.012458  -0.000334  -0.001145
    16  F    0.000000   0.000000  -0.000035  -0.000005   0.000000   0.000765
    17  F    0.000091  -0.000041  -0.005476  -0.002203   0.000013   0.015217
    18  F    0.000000   0.000037   0.017038  -0.008368  -0.000394  -0.009912
    19  C   -0.000270  -0.003135  -0.038199   0.001293   0.002799   0.224888
    20  F    0.000000  -0.000853   0.006025   0.000001   0.000189  -0.042311
    21  F    0.000000  -0.000014   0.001563  -0.000001  -0.000001  -0.026585
    22  F   -0.000058  -0.005071  -0.006685   0.000002  -0.000093  -0.026661
    23  C    0.000140   0.192942  -0.007859   0.000429   0.005927  -0.002423
    24  O   -0.000032  -0.087685   0.010462   0.000016  -0.014519  -0.003614
    25  N    0.000019  -0.092854   0.001508  -0.000025   0.000062  -0.000088
    26  C    0.000000   0.002086   0.000010   0.000000   0.000010  -0.000001
    27  F    0.000000   0.000046   0.000005   0.000000   0.000000   0.000000
    28  F    0.000000  -0.000023   0.000000   0.000000   0.000000   0.000000
    29  C    0.000000  -0.000356  -0.000002   0.000000  -0.000001   0.000000
    30  F    0.000000  -0.000053   0.000007   0.000000   0.000000   0.000000
    31  O    0.000000  -0.000024   0.000000   0.000000   0.000000   0.000000
    32  C    0.000000   0.000000   0.000000   0.000000   0.000000   0.000000
    33  F    0.000000   0.000000   0.000000   0.000000   0.000000   0.000000
    34  F    0.000000   0.000000   0.000000   0.000000   0.000000   0.000000
    35  F    0.000000   0.000000   0.000000   0.000000   0.000000   0.000000
    36  C    0.000000  -0.000001   0.000000   0.000000   0.000000   0.000000
    37  F    0.000000   0.000000   0.000000   0.000000   0.000000   0.000000
    38  F    0.000000   0.000000   0.000000   0.000000   0.000000   0.000000
    39  F    0.000000   0.000000   0.000000   0.000000   0.000000   0.000000
    40  C    0.000409  -0.001405   0.000019  -0.000008  -0.000002   0.000042
    41  O   -0.000024  -0.000003   0.000000   0.000000   0.000000   0.000000
    42  H    0.000000   0.000000   0.000000   0.000000   0.000000   0.000000
    43  H    0.000000   0.000000   0.000000   0.000000   0.000000   0.000000
    44  H    0.000000   0.000000   0.000000   0.000000   0.000000   0.000000
    45  H    0.008686   0.000407  -0.000004  -0.000003   0.000000   0.000000
    46  H    0.000434  -0.000065   0.000001   0.000000   0.000000   0.000000
              13         14         15         16         17         18
     1  C    0.000000   0.000000   0.000000   0.000000   0.000000   0.000000
     2  C    0.000000   0.000000   0.000000   0.000000   0.000000   0.000000
     3  C   -0.000001   0.000000   0.000000   0.000000   0.000000   0.000000
     4  C    0.000002   0.000000   0.000000   0.000000   0.000000   0.000000
     5  N    0.000023   0.000000   0.000000   0.000000   0.000000   0.000000
     6  C    0.007274   0.000142  -0.000045   0.000000  -0.000006   0.000008
     7  O   -0.004866  -0.000006  -0.000043   0.000000   0.000091   0.000000
     8  N    0.000218   0.001708   0.000273   0.000000  -0.000041   0.000037
     9  C   -0.028252  -0.028664  -0.003388  -0.000035  -0.005476   0.017038
    10  F    0.000231  -0.001798   0.012458  -0.000005  -0.002203  -0.008368
    11  F    0.000298   0.000163  -0.000334   0.000000   0.000013  -0.000394
    12  C    0.228329   0.152728  -0.001145   0.000765   0.015217  -0.009912
    13  F    9.114107  -0.050335   0.000289  -0.000024  -0.002822  -0.000019
    14  O   -0.050335   8.358074   0.233354  -0.039426  -0.044937  -0.047239
    15  C    0.000289   0.233354   3.819295   0.338176   0.296473   0.303606
    16  F   -0.000024  -0.039426   0.338176   9.016020  -0.036559  -0.037947
    17  F   -0.002822  -0.044937   0.296473  -0.036559   9.054126  -0.033640
    18  F   -0.000019  -0.047239   0.303606  -0.037947  -0.033640   9.062031
    19  C   -0.010367  -0.020160   0.001071  -0.000045   0.000263  -0.000130
    20  F    0.000307   0.000718  -0.000036   0.000000   0.000000   0.000001
    21  F   -0.000832   0.000233   0.000008   0.000000   0.000000   0.000000
    22  F   -0.000718   0.000621   0.000005   0.000000   0.000000   0.000000
    23  C   -0.000121   0.000044   0.000002   0.000000  -0.000001   0.000002
    24  O    0.000002   0.000003   0.000000   0.000000   0.000000   0.000000
    25  N    0.000001   0.000000   0.000000   0.000000   0.000000   0.000000
    26  C    0.000000   0.000000   0.000000   0.000000   0.000000   0.000000
    27  F    0.000000   0.000000   0.000000   0.000000   0.000000   0.000000
    28  F    0.000000   0.000000   0.000000   0.000000   0.000000   0.000000
    29  C    0.000000   0.000000   0.000000   0.000000   0.000000   0.000000
    30  F    0.000000   0.000000   0.000000   0.000000   0.000000   0.000000
    31  O    0.000000   0.000000   0.000000   0.000000   0.000000   0.000000
    32  C    0.000000   0.000000   0.000000   0.000000   0.000000   0.000000
    33  F    0.000000   0.000000   0.000000   0.000000   0.000000   0.000000
    34  F    0.000000   0.000000   0.000000   0.000000   0.000000   0.000000
    35  F    0.000000   0.000000   0.000000   0.000000   0.000000   0.000000
    36  C    0.000000   0.000000   0.000000   0.000000   0.000000   0.000000
    37  F    0.000000   0.000000   0.000000   0.000000   0.000000   0.000000
    38  F    0.000000   0.000000   0.000000   0.000000   0.000000   0.000000
    39  F    0.000000   0.000000   0.000000   0.000000   0.000000   0.000000
    40  C    0.000002   0.000000   0.000000   0.000000   0.000000   0.000000
    41  O    0.000000   0.000000   0.000000   0.000000   0.000000   0.000000
    42  H    0.000000   0.000000   0.000000   0.000000   0.000000   0.000000
    43  H    0.000000   0.000000   0.000000   0.000000   0.000000   0.000000
    44  H    0.000000   0.000000   0.000000   0.000000   0.000000   0.000000
    45  H    0.000001   0.000000   0.000000   0.000000   0.000000   0.000000
    46  H    0.000000   0.000000   0.000000   0.000000   0.000000   0.000000
              19         20         21         22         23         24
     1  C    0.000000   0.000000   0.000000   0.000000   0.000000   0.000000
     2  C    0.000000   0.000000   0.000000   0.000000   0.000006   0.000000
     3  C    0.000000   0.000000   0.000000   0.000000   0.000077   0.000000
     4  C    0.000000   0.000000   0.000000   0.000000   0.000192   0.000003
     5  N    0.000012   0.000000   0.000000  -0.000152  -0.004945   0.000174
     6  C   -0.000287   0.000037   0.000005   0.003612  -0.008245  -0.000122
     7  O   -0.000270   0.000000   0.000000  -0.000058   0.000140  -0.000032
     8  N   -0.003135  -0.000853  -0.000014  -0.005071   0.192942  -0.087685
     9  C   -0.038199   0.006025   0.001563  -0.006685  -0.007859   0.010462
    10  F    0.001293   0.000001  -0.000001   0.000002   0.000429   0.000016
    11  F    0.002799   0.000189  -0.000001  -0.000093   0.005927  -0.014519
    12  C    0.224888  -0.042311  -0.026585  -0.026661  -0.002423  -0.003614
    13  F   -0.010367   0.000307  -0.000832  -0.000718  -0.000121   0.000002
    14  O   -0.020160   0.000718   0.000233   0.000621   0.000044   0.000003
    15  C    0.001071  -0.000036   0.000008   0.000005   0.000002   0.000000
    16  F   -0.000045   0.000000   0.000000   0.000000   0.000000   0.000000
    17  F    0.000263   0.000000   0.000000   0.000000  -0.000001   0.000000
    18  F   -0.000130   0.000001   0.000000   0.000000   0.000002   0.000000
    19  C    4.173488   0.285554   0.299288   0.269584   0.002547   0.005342
    20  F    0.285554   9.060971  -0.039745  -0.035856   0.000229  -0.000457
    21  F    0.299288  -0.039745   9.056649  -0.039112   0.000008  -0.000001
    22  F    0.269584  -0.035856  -0.039112   9.079836   0.018489  -0.003756
    23  C    0.002547   0.000229   0.000008   0.018489   4.215376   0.551315
    24  O    0.005342  -0.000457  -0.000001  -0.003756   0.551315   8.121093
    25  N   -0.000201  -0.000002   0.000000  -0.001764   0.201813  -0.088111
    26  C    0.000001   0.000001   0.000000   0.000002  -0.013267   0.015129
    27  F   -0.000004   0.000000   0.000000  -0.000003   0.004648  -0.009216
    28  F    0.000000   0.000000   0.000000   0.000000   0.000734   0.000013
    29  C    0.000000   0.000000   0.000000   0.000000  -0.001067  -0.002540
    30  F    0.000000   0.000000   0.000000   0.000000   0.009913  -0.003882
    31  O    0.000000   0.000000   0.000000   0.000000   0.000153  -0.000006
    32  C    0.000000   0.000000   0.000000   0.000000  -0.000008  -0.000004
    33  F    0.000000   0.000000   0.000000   0.000000   0.000001   0.000000
    34  F    0.000000   0.000000   0.000000   0.000000   0.000000   0.000000
    35  F    0.000000   0.000000   0.000000   0.000000   0.000000   0.000000
    36  C    0.000000   0.000000   0.000000   0.000000   0.000298  -0.000038
    37  F    0.000000   0.000000   0.000000   0.000000   0.000000   0.000000
    38  F    0.000000   0.000000   0.000000   0.000000  -0.000007   0.000000
    39  F    0.000000   0.000000   0.000000   0.000000   0.000000   0.000000
    40  C   -0.000005   0.000000   0.000000   0.000216  -0.012865  -0.000060
    41  O    0.000000   0.000000   0.000000   0.000000  -0.000099  -0.000031
    42  H    0.000000   0.000000   0.000000   0.000000   0.000000   0.000000
    43  H    0.000000   0.000000   0.000000   0.000000   0.000000   0.000000
    44  H    0.000000   0.000000   0.000000   0.000000   0.000000   0.000000
    45  H    0.000000   0.000000   0.000000   0.000000  -0.000014   0.000000
    46  H    0.000000   0.000000   0.000000   0.000000  -0.000022   0.000000
              25         26         27         28         29         30
     1  C    0.000000   0.000000   0.000000   0.000000   0.000000   0.000000
     2  C    0.000013   0.000001   0.000000   0.000000   0.000000   0.000000
     3  C   -0.000482   0.000009   0.000000  -0.000002   0.000000   0.000000
     4  C    0.002818  -0.000042   0.000000   0.000006   0.000001   0.000000
     5  N   -0.093123   0.002002  -0.000026   0.000037  -0.000189   0.000001
     6  C   -0.001419   0.000123  -0.000005  -0.000001   0.000058   0.000003
     7  O    0.000019   0.000000   0.000000   0.000000   0.000000   0.000000
     8  N   -0.092854   0.002086   0.000046  -0.000023  -0.000356  -0.000053
     9  C    0.001508   0.000010   0.000005   0.000000  -0.000002   0.000007
    10  F   -0.000025   0.000000   0.000000   0.000000   0.000000   0.000000
    11  F    0.000062   0.000010   0.000000   0.000000  -0.000001   0.000000
    12  C   -0.000088  -0.000001   0.000000   0.000000   0.000000   0.000000
    13  F    0.000001   0.000000   0.000000   0.000000   0.000000   0.000000
    14  O    0.000000   0.000000   0.000000   0.000000   0.000000   0.000000
    15  C    0.000000   0.000000   0.000000   0.000000   0.000000   0.000000
    16  F    0.000000   0.000000   0.000000   0.000000   0.000000   0.000000
    17  F    0.000000   0.000000   0.000000   0.000000   0.000000   0.000000
    18  F    0.000000   0.000000   0.000000   0.000000   0.000000   0.000000
    19  C   -0.000201   0.000001  -0.000004   0.000000   0.000000   0.000000
    20  F   -0.000002   0.000001   0.000000   0.000000   0.000000   0.000000
    21  F    0.000000   0.000000   0.000000   0.000000   0.000000   0.000000
    22  F   -0.001764   0.000002  -0.000003   0.000000   0.000000   0.000000
    23  C    0.201813  -0.013267   0.004648   0.000734  -0.001067   0.009913
    24  O   -0.088111   0.015129  -0.009216   0.000013  -0.002540  -0.003882
    25  N    7.584278   0.179116  -0.040273  -0.036699  -0.067313  -0.001901
    26  C    0.179116   4.359655   0.274221   0.268506   0.212078  -0.021054
    27  F   -0.040273   0.274221   9.093015  -0.041817  -0.024761  -0.000139
    28  F   -0.036699   0.268506  -0.041817   9.094425  -0.035366   0.000305
    29  C   -0.067313   0.212078  -0.024761  -0.035366   4.991555   0.218978
    30  F   -0.001901  -0.021054  -0.000139   0.000305   0.218978   9.125077
    31  O    0.000123  -0.027495   0.000544   0.000769   0.156733  -0.053398
    32  C   -0.000206   0.001056   0.000004  -0.000057   0.001477  -0.001097
    33  F   -0.000002   0.000198   0.000000   0.000000   0.012884  -0.001380
    34  F    0.000001  -0.000032   0.000000   0.000000   0.000540  -0.000021
    35  F    0.000001  -0.000177   0.000000   0.000001  -0.008930  -0.000015
    36  C    0.003086  -0.030325  -0.000901   0.007144   0.209309  -0.014842
    37  F   -0.000013   0.001344  -0.000002   0.000000  -0.031627  -0.000060
    38  F    0.000045   0.005727  -0.002565  -0.000796  -0.028509  -0.000256
    39  F   -0.000025   0.000478  -0.000171  -0.000743  -0.032664   0.000307
    40  C    0.193086  -0.007446   0.000610   0.007113  -0.003188  -0.000347
    41  O   -0.088365   0.015680   0.000013  -0.011163  -0.003179   0.000006
    42  H    0.000000   0.000000   0.000000   0.000000   0.000000   0.000000
    43  H    0.000000   0.000000   0.000000   0.000000   0.000000   0.000000
    44  H    0.000000   0.000000   0.000000   0.000000   0.000000   0.000000
    45  H   -0.000087   0.000001   0.000000   0.000000   0.000000   0.000000
    46  H    0.000532   0.000005   0.000000   0.000003   0.000000   0.000000
              31         32         33         34         35         36
     1  C    0.000000   0.000000   0.000000   0.000000   0.000000   0.000000
     2  C    0.000000   0.000000   0.000000   0.000000   0.000000   0.000000
     3  C    0.000000   0.000000   0.000000   0.000000   0.000000   0.000000
     4  C    0.000002   0.000000   0.000000   0.000000   0.000000   0.000000
     5  N   -0.000209  -0.000002   0.000000   0.000000   0.000000   0.000000
     6  C    0.000027   0.000000   0.000000   0.000000   0.000000   0.000000
     7  O    0.000000   0.000000   0.000000   0.000000   0.000000   0.000000
     8  N   -0.000024   0.000000   0.000000   0.000000   0.000000  -0.000001
     9  C    0.000000   0.000000   0.000000   0.000000   0.000000   0.000000
    10  F    0.000000   0.000000   0.000000   0.000000   0.000000   0.000000
    11  F    0.000000   0.000000   0.000000   0.000000   0.000000   0.000000
    12  C    0.000000   0.000000   0.000000   0.000000   0.000000   0.000000
    13  F    0.000000   0.000000   0.000000   0.000000   0.000000   0.000000
    14  O    0.000000   0.000000   0.000000   0.000000   0.000000   0.000000
    15  C    0.000000   0.000000   0.000000   0.000000   0.000000   0.000000
    16  F    0.000000   0.000000   0.000000   0.000000   0.000000   0.000000
    17  F    0.000000   0.000000   0.000000   0.000000   0.000000   0.000000
    18  F    0.000000   0.000000   0.000000   0.000000   0.000000   0.000000
    19  C    0.000000   0.000000   0.000000   0.000000   0.000000   0.000000
    20  F    0.000000   0.000000   0.000000   0.000000   0.000000   0.000000
    21  F    0.000000   0.000000   0.000000   0.000000   0.000000   0.000000
    22  F    0.000000   0.000000   0.000000   0.000000   0.000000   0.000000
    23  C    0.000153  -0.000008   0.000001   0.000000   0.000000   0.000298
    24  O   -0.000006  -0.000004   0.000000   0.000000   0.000000  -0.000038
    25  N    0.000123  -0.000206  -0.000002   0.000001   0.000001   0.003086
    26  C   -0.027495   0.001056   0.000198  -0.000032  -0.000177  -0.030325
    27  F    0.000544   0.000004   0.000000   0.000000   0.000000  -0.000901
    28  F    0.000769  -0.000057   0.000000   0.000000   0.000001   0.007144
    29  C    0.156733   0.001477   0.012884   0.000540  -0.008930   0.209309
    30  F   -0.053398  -0.001097  -0.001380  -0.000021  -0.000015  -0.014842
    31  O    8.352838   0.234463  -0.046417  -0.039436  -0.047479  -0.026975
    32  C    0.234463   3.821674   0.295384   0.339355   0.302667  -0.003396
    33  F   -0.046417   0.295384   9.058445  -0.036670  -0.033793  -0.004276
    34  F   -0.039436   0.339355  -0.036670   9.012840  -0.037268  -0.000026
    35  F   -0.047479   0.302667  -0.033793  -0.037268   9.056664   0.017720
    36  C   -0.026975  -0.003396  -0.004276  -0.000026   0.017720   4.191187
    37  F   -0.001507   0.012112  -0.001996  -0.000004  -0.006710   0.281389
    38  F    0.000543   0.000059   0.000000   0.000000   0.000000   0.287764
    39  F    0.000294  -0.000401   0.000014   0.000000  -0.000467   0.267874
    40  C    0.004571   0.000084   0.000000  -0.000012   0.000002   0.000039
    41  O   -0.002131   0.000409   0.000000  -0.000004  -0.000002  -0.000021
    42  H    0.000000   0.000000   0.000000   0.000000   0.000000   0.000000
    43  H    0.000000   0.000000   0.000000   0.000000   0.000000   0.000000
    44  H    0.000000   0.000000   0.000000   0.000000   0.000000   0.000000
    45  H    0.000000   0.000000   0.000000   0.000000   0.000000   0.000000
    46  H   -0.000001   0.000000   0.000000   0.000000   0.000000   0.000000
              37         38         39         40         41         42
     1  C    0.000000   0.000000   0.000000  -0.000010  -0.000001   0.374741
     2  C    0.000000   0.000000   0.000000  -0.000115  -0.000503  -0.024353
     3  C    0.000000   0.000000   0.000000   0.002014  -0.001567   0.002803
     4  C    0.000000   0.000000   0.000000  -0.020118  -0.000702   0.000032
     5  N    0.000000   0.000000   0.000000   0.241712  -0.088116   0.000009
     6  C    0.000000   0.000000   0.000000  -0.022323   0.000642   0.000000
     7  O    0.000000   0.000000   0.000000   0.000409  -0.000024   0.000000
     8  N    0.000000   0.000000   0.000000  -0.001405  -0.000003   0.000000
     9  C    0.000000   0.000000   0.000000   0.000019   0.000000   0.000000
    10  F    0.000000   0.000000   0.000000  -0.000008   0.000000   0.000000
    11  F    0.000000   0.000000   0.000000  -0.000002   0.000000   0.000000
    12  C    0.000000   0.000000   0.000000   0.000042   0.000000   0.000000
    13  F    0.000000   0.000000   0.000000   0.000002   0.000000   0.000000
    14  O    0.000000   0.000000   0.000000   0.000000   0.000000   0.000000
    15  C    0.000000   0.000000   0.000000   0.000000   0.000000   0.000000
    16  F    0.000000   0.000000   0.000000   0.000000   0.000000   0.000000
    17  F    0.000000   0.000000   0.000000   0.000000   0.000000   0.000000
    18  F    0.000000   0.000000   0.000000   0.000000   0.000000   0.000000
    19  C    0.000000   0.000000   0.000000  -0.000005   0.000000   0.000000
    20  F    0.000000   0.000000   0.000000   0.000000   0.000000   0.000000
    21  F    0.000000   0.000000   0.000000   0.000000   0.000000   0.000000
    22  F    0.000000   0.000000   0.000000   0.000216   0.000000   0.000000
    23  C    0.000000  -0.000007   0.000000  -0.012865  -0.000099   0.000000
    24  O    0.000000   0.000000   0.000000  -0.000060  -0.000031   0.000000
    25  N   -0.000013   0.000045  -0.000025   0.193086  -0.088365   0.000000
    26  C    0.001344   0.005727   0.000478  -0.007446   0.015680   0.000000
    27  F   -0.000002  -0.002565  -0.000171   0.000610   0.000013   0.000000
    28  F    0.000000  -0.000796  -0.000743   0.007113  -0.011163   0.000000
    29  C   -0.031627  -0.028509  -0.032664  -0.003188  -0.003179   0.000000
    30  F   -0.000060  -0.000256   0.000307  -0.000347   0.000006   0.000000
    31  O   -0.001507   0.000543   0.000294   0.004571  -0.002131   0.000000
    32  C    0.012112   0.000059  -0.000401   0.000084   0.000409   0.000000
    33  F   -0.001996   0.000000   0.000014   0.000000   0.000000   0.000000
    34  F   -0.000004   0.000000   0.000000  -0.000012  -0.000004   0.000000
    35  F   -0.006710   0.000000  -0.000467   0.000002  -0.000002   0.000000
    36  C    0.281389   0.287764   0.267874   0.000039  -0.000021   0.000000
    37  F    9.084668  -0.039967  -0.038824   0.000000   0.000000   0.000000
    38  F   -0.039967   9.058920  -0.037948   0.000001   0.000000   0.000000
    39  F   -0.038824  -0.037948   9.087899   0.000003  -0.000001   0.000000
    40  C    0.000000   0.000001   0.000003   4.184318   0.585069  -0.000004
    41  O    0.000000   0.000000  -0.000001   0.585069   8.072121   0.000000
    42  H    0.000000   0.000000   0.000000  -0.000004   0.000000   0.548052
    43  H    0.000000   0.000000   0.000000   0.000000   0.000000  -0.026793
    44  H    0.000000   0.000000   0.000000   0.000001   0.000000  -0.028151
    45  H    0.000000   0.000000   0.000000   0.004137   0.000434  -0.000005
    46  H    0.000000   0.000000   0.000000  -0.005002   0.011307   0.000006
              43         44         45         46
     1  C    0.377778   0.375724  -0.000024  -0.000020
     2  C   -0.023861  -0.025080  -0.000867  -0.000423
     3  C    0.000090   0.002248  -0.034626  -0.034290
     4  C   -0.000073   0.000016   0.386794   0.384923
     5  N   -0.000003   0.000003  -0.034350  -0.034732
     6  C    0.000000  -0.000002  -0.003272   0.004541
     7  O    0.000000   0.000000   0.008686   0.000434
     8  N    0.000000   0.000000   0.000407  -0.000065
     9  C    0.000000   0.000000  -0.000004   0.000001
    10  F    0.000000   0.000000  -0.000003   0.000000
    11  F    0.000000   0.000000   0.000000   0.000000
    12  C    0.000000   0.000000   0.000000   0.000000
    13  F    0.000000   0.000000   0.000001   0.000000
    14  O    0.000000   0.000000   0.000000   0.000000
    15  C    0.000000   0.000000   0.000000   0.000000
    16  F    0.000000   0.000000   0.000000   0.000000
    17  F    0.000000   0.000000   0.000000   0.000000
    18  F    0.000000   0.000000   0.000000   0.000000
    19  C    0.000000   0.000000   0.000000   0.000000
    20  F    0.000000   0.000000   0.000000   0.000000
    21  F    0.000000   0.000000   0.000000   0.000000
    22  F    0.000000   0.000000   0.000000   0.000000
    23  C    0.000000   0.000000  -0.000014  -0.000022
    24  O    0.000000   0.000000   0.000000   0.000000
    25  N    0.000000   0.000000  -0.000087   0.000532
    26  C    0.000000   0.000000   0.000001   0.000005
    27  F    0.000000   0.000000   0.000000   0.000000
    28  F    0.000000   0.000000   0.000000   0.000003
    29  C    0.000000   0.000000   0.000000   0.000000
    30  F    0.000000   0.000000   0.000000   0.000000
    31  O    0.000000   0.000000   0.000000  -0.000001
    32  C    0.000000   0.000000   0.000000   0.000000
    33  F    0.000000   0.000000   0.000000   0.000000
    34  F    0.000000   0.000000   0.000000   0.000000
    35  F    0.000000   0.000000   0.000000   0.000000
    36  C    0.000000   0.000000   0.000000   0.000000
    37  F    0.000000   0.000000   0.000000   0.000000
    38  F    0.000000   0.000000   0.000000   0.000000
    39  F    0.000000   0.000000   0.000000   0.000000
    40  C    0.000000   0.000001   0.004137  -0.005002
    41  O    0.000000   0.000000   0.000434   0.011307
    42  H   -0.026793  -0.028151  -0.000005   0.000006
    43  H    0.544889  -0.027333   0.000001   0.000007
    44  H   -0.027333   0.548669   0.000012  -0.000005
    45  H    0.000001   0.000012   0.509330  -0.025235
    46  H    0.000007  -0.000005  -0.025235   0.506299
 Mulliken charges:
               1
     1  C   -0.410339
     2  C   -0.012999
     3  C    0.036954
     4  C   -0.179198
     5  N   -0.570768
     6  C    0.841995
     7  O   -0.490981
     8  N   -0.650495
     9  C    0.758979
    10  F   -0.266775
    11  F   -0.244095
    12  C    0.437750
    13  F   -0.252728
    14  O   -0.515222
    15  C    0.999980
    16  F   -0.240920
    17  F   -0.240499
    18  F   -0.245074
    19  C    0.806673
    20  F   -0.234772
    21  F   -0.251462
    22  F   -0.252439
    23  C    0.845655
    24  O   -0.489477
    25  N   -0.653547
    26  C    0.762399
    27  F   -0.253223
    28  F   -0.252387
    29  C    0.436079
    30  F   -0.256152
    31  O   -0.505985
    32  C    0.996428
    33  F   -0.242392
    34  F   -0.239266
    35  F   -0.242216
    36  C    0.814990
    37  F   -0.258803
    38  F   -0.243010
    39  F   -0.245624
    40  C    0.849461
    41  O   -0.489768
    42  H    0.153661
    43  H    0.155298
    44  H    0.153896
    45  H    0.188682
    46  H    0.191737
 Sum of Mulliken charges =   0.00000
 Mulliken charges with hydrogens summed into heavy atoms:
               1
     1  C    0.052516
     2  C   -0.012999
     3  C    0.036954
     4  C    0.201221
     5  N   -0.570768
     6  C    0.841995
     7  O   -0.490981
     8  N   -0.650495
     9  C    0.758979
    10  F   -0.266775
    11  F   -0.244095
    12  C    0.437750
    13  F   -0.252728
    14  O   -0.515222
    15  C    0.999980
    16  F   -0.240920
    17  F   -0.240499
    18  F   -0.245074
    19  C    0.806673
    20  F   -0.234772
    21  F   -0.251462
    22  F   -0.252439
    23  C    0.845655
    24  O   -0.489477
    25  N   -0.653547
    26  C    0.762399
    27  F   -0.253223
    28  F   -0.252387
    29  C    0.436079
    30  F   -0.256152
    31  O   -0.505985
    32  C    0.996428
    33  F   -0.242392
    34  F   -0.239266
    35  F   -0.242216
    36  C    0.814990
    37  F   -0.258803
    38  F   -0.243010
    39  F   -0.245624
    40  C    0.849461
    41  O   -0.489768
 Electronic spatial extent (au):  <R**2>=          20948.1370
 Charge=              0.0000 electrons
 Dipole moment (field-independent basis, Debye):
    X=              1.3236    Y=              1.9530    Z=              2.2942  Tot=              3.2908
 Quadrupole moment (field-independent basis, Debye-Ang):
   XX=           -228.9571   YY=           -206.0881   ZZ=           -218.9934
   XY=              8.8468   XZ=              0.4276   YZ=             -2.1319
 Traceless Quadrupole moment (field-independent basis, Debye-Ang):
   XX=            -10.9443   YY=             11.9248   ZZ=             -0.9805
   XY=              8.8468   XZ=              0.4276   YZ=             -2.1319
 Octapole moment (field-independent basis, Debye-Ang**2):
  XXX=            108.6396  YYY=            326.4539  ZZZ=            195.1491  XYY=             84.6951
  XXY=             94.6030  XXZ=             48.8633  XZZ=             52.1465  YZZ=             90.1104
  YYZ=             77.4981  XYZ=             14.7868
 Hexadecapole moment (field-independent basis, Debye-Ang**3):
 XXXX=         -11612.2471 YYYY=          -6938.4966 ZZZZ=          -3419.5409 XXXY=           2008.6967
 XXXZ=           -235.1315 YYYX=           2141.3203 YYYZ=           -689.6465 ZZZX=           -185.6261
 ZZZY=           -803.2457 XXYY=          -3085.6215 XXZZ=          -2523.8056 YYZZ=          -1821.8217
 XXYZ=           -253.2307 YYXZ=              9.7844 ZZXY=            685.8784
 N-N= 6.177826436034D+03 E-N=-1.923301606582D+04  KE= 2.889826078841D+03
 No NMR shielding tensors so no spin-rotation constants.
 Leave Link  601 at Sun Mar  3 18:22:03 2024, MaxMem=  5368709120 cpu:         5.6
 (Enter /home/k0335/k033513/app/g09/l9999.exe)
 1\1\GINC-C18U03N3\SP\RCAM-B3LYP\6-31G(d,p)\C15H5F18N3O5\K033513\03-Mar
 -2024\0\\#p CAM-B3LYP/6-31G(d,p) SCRF=(PCM,Solvent=Generic,Read) NoSym
 m out=wfn\\Title A603415621_0\\0,1\C,0,2.156077,5.136137,1.866473\C,0,
 1.698721,3.78585,2.197066\C,0,1.322665,2.677843,2.469798\C,0,0.860305,
 1.318804,2.795118\N,0,0.442779,0.627363,1.582537\C,0,-0.880069,0.69421
 8,1.209189\O,0,-1.690864,1.403608,1.798325\N,0,-1.240898,-0.088091,0.1
 39389\C,0,-2.659763,-0.150912,-0.190487\F,0,-3.313639,-0.413531,0.9841
 16\F,0,-2.927912,-1.266532,-0.930412\C,0,-3.334385,1.074256,-0.880231\
 F,0,-3.238999,2.195776,-0.109311\O,0,-4.727577,0.93141,-1.206001\C,0,-
 5.532003,0.591089,-0.108714\F,0,-6.802333,0.939076,-0.38925\F,0,-5.147
 38,1.226335,1.007679\F,0,-5.486561,-0.739351,0.073933\C,0,-2.596108,1.
 350808,-2.185054\F,0,-2.654432,0.312702,-3.044075\F,0,-3.125397,2.4215
 5,-2.830142\F,0,-1.290357,1.643549,-1.971626\C,0,-0.314656,-0.586989,-
 0.741823\O,0,-0.655806,-1.128132,-1.788983\N,0,1.007042,-0.438186,-0.4
 06043\C,0,2.002125,-1.072052,-1.263721\F,0,1.704921,-0.77642,-2.561002
 \F,0,3.207388,-0.462349,-1.072443\C,0,2.146578,-2.603416,-1.075807\F,0
 ,0.97382,-3.20769,-1.428782\O,0,2.314859,-2.899574,0.315521\C,0,2.6986
 27,-4.227255,0.55754\F,0,1.970379,-5.081109,-0.177339\F,0,2.496637,-4.
 496458,1.860595\F,0,4.004148,-4.37121,0.282731\C,0,3.268021,-3.029313,
 -2.033796\F,0,3.400558,-4.37749,-2.073647\F,0,3.050687,-2.636363,-3.30
 7365\F,0,4.467985,-2.534226,-1.65652\C,0,1.395007,-0.050586,0.852805\O
 ,0,2.505731,-0.305767,1.313047\H,0,2.858288,5.114192,1.027644\H,0,2.66
 1714,5.59567,2.721077\H,0,1.312694,5.774703,1.586924\H,0,0.026561,1.36
 7361,3.504506\H,0,1.664823,0.7607,3.28656\\Version=ES64L-G09RevD.01\HF
 =-2911.2086554\RMSD=7.334e-09\Dipole=0.5207449,0.7683816,0.9026051\Qua
 drupole=-8.1367982,8.8657733,-0.7289751,6.5773488,0.3179205,-1.5850375
 \PG=C01 [X(C15H5F18N3O5)]\\@

 Writing a WFN file to "A603415621/A603415621_0.wfn"


 You can't act like a skunk without someone's getting wind of it.
 -- Lorene Workman
 Job cpu time:       0 days  0 hours 22 minutes 34.4 seconds.
 File lengths (MBytes):  RWF=    465 Int=      0 D2E=      0 Chk=     17 Scr=      1
 Normal termination of Gaussian 09 at Sun Mar  3 18:22:03 2024.
