 Entering Gaussian System, Link 0=g09
 Initial command:
 /home/k0335/k033513/app/g09/l1.exe "/home/k0335/k033513/app/g09/scratch/Gau-675469.inp" -scrdir="/home/k0335/k033513/app/g09/scratch/"
 Default is to use a total of  36 processors:
                               36 via shared-memory
                                1 via Linda
 Entering Link 1 = /home/k0335/k033513/app/g09/l1.exe PID=    675470.
  
 Copyright (c) 1988,1990,1992,1993,1995,1998,2003,2009,2013,
            Gaussian, Inc.  All Rights Reserved.
  
 This is part of the Gaussian(R) 09 program.  It is based on
 the Gaussian(R) 03 system (copyright 2003, Gaussian, Inc.),
 the Gaussian(R) 98 system (copyright 1998, Gaussian, Inc.),
 the Gaussian(R) 94 system (copyright 1995, Gaussian, Inc.),
 the Gaussian 92(TM) system (copyright 1992, Gaussian, Inc.),
 the Gaussian 90(TM) system (copyright 1990, Gaussian, Inc.),
 the Gaussian 88(TM) system (copyright 1988, Gaussian, Inc.),
 the Gaussian 86(TM) system (copyright 1986, Carnegie Mellon
 University), and the Gaussian 82(TM) system (copyright 1983,
 Carnegie Mellon University). Gaussian is a federally registered
 trademark of Gaussian, Inc.
  
 This software contains proprietary and confidential information,
 including trade secrets, belonging to Gaussian, Inc.
  
 This software is provided under written license and may be
 used, copied, transmitted, or stored only in accord with that
 written license.
  
 The following legend is applicable only to US Government
 contracts under FAR:
  
                    RESTRICTED RIGHTS LEGEND
  
 Use, reproduction and disclosure by the US Government is
 subject to restrictions as set forth in subparagraphs (a)
 and (c) of the Commercial Computer Software - Restricted
 Rights clause in FAR 52.227-19.
  
 Gaussian, Inc.
 340 Quinnipiac St., Bldg. 40, Wallingford CT 06492
  
  
 ---------------------------------------------------------------
 Warning -- This program may not be used in any manner that
 competes with the business of Gaussian, Inc. or will provide
 assistance to any competitor of Gaussian, Inc.  The licensee
 of this program is prohibited from giving any competitor of
 Gaussian, Inc. access to this program.  By using this program,
 the user acknowledges that Gaussian, Inc. is engaged in the
 business of creating and licensing software in the field of
 computational chemistry and represents and warrants to the
 licensee that it is not a competitor of Gaussian, Inc. and that
 it will not use this program in any manner prohibited above.
 ---------------------------------------------------------------
  

 Cite this work as:
 Gaussian 09, Revision D.01,
 M. J. Frisch, G. W. Trucks, H. B. Schlegel, G. E. Scuseria, 
 M. A. Robb, J. R. Cheeseman, G. Scalmani, V. Barone, B. Mennucci, 
 G. A. Petersson, H. Nakatsuji, M. Caricato, X. Li, H. P. Hratchian, 
 A. F. Izmaylov, J. Bloino, G. Zheng, J. L. Sonnenberg, M. Hada, 
 M. Ehara, K. Toyota, R. Fukuda, J. Hasegawa, M. Ishida, T. Nakajima, 
 Y. Honda, O. Kitao, H. Nakai, T. Vreven, J. A. Montgomery, Jr., 
 J. E. Peralta, F. Ogliaro, M. Bearpark, J. J. Heyd, E. Brothers, 
 K. N. Kudin, V. N. Staroverov, T. Keith, R. Kobayashi, J. Normand, 
 K. Raghavachari, A. Rendell, J. C. Burant, S. S. Iyengar, J. Tomasi, 
 M. Cossi, N. Rega, J. M. Millam, M. Klene, J. E. Knox, J. B. Cross, 
 V. Bakken, C. Adamo, J. Jaramillo, R. Gomperts, R. E. Stratmann, 
 O. Yazyev, A. J. Austin, R. Cammi, C. Pomelli, J. W. Ochterski, 
 R. L. Martin, K. Morokuma, V. G. Zakrzewski, G. A. Voth, 
 P. Salvador, J. J. Dannenberg, S. Dapprich, A. D. Daniels, 
 O. Farkas, J. B. Foresman, J. V. Ortiz, J. Cioslowski, 
 and D. J. Fox, Gaussian, Inc., Wallingford CT, 2013.
 
 ******************************************
 Gaussian 09:  ES64L-G09RevD.01 24-Apr-2013
                 3-Mar-2024 
 ******************************************
 %nprocshared=24
 Will use up to   24 processors via shared memory.
 %mem=40GB
 %rwf=A897162772/A897162772_0.rwf
 %nosave
 %chk=A897162772/A897162772_0.chk
 ----------------------------------------------------------------------
 #p CAM-B3LYP/6-31G(d,p) SCRF=(PCM,Solvent=Generic,Read) NoSymm out=wfn
 ----------------------------------------------------------------------
 1/38=1,40=2/1;
 2/12=2,15=1,17=6,18=5,40=1/2;
 3/5=1,6=6,7=101,11=2,16=1,25=1,30=1,70=2203,72=-2,74=-40/1,2,3;
 4//1;
 5/5=2,38=5/2;
 6/7=2,8=2,9=2,10=2,28=1/1;
 99/5=1,6=100,9=1/99;
 Leave Link    1 at Sun Mar  3 18:00:34 2024, MaxMem=  5368709120 cpu:         1.0
 (Enter /home/k0335/k033513/app/g09/l101.exe)
 ------------------
 Title A897162772_0
 ------------------
 Symbolic Z-matrix:
 Charge =  0 Multiplicity = 1
 C                    -0.22597   5.50776  -0.47081 
 O                    -0.3165    4.11136  -0.71867 
 C                     0.03344   3.35432   0.43684 
 N                    -0.0894    1.95645   0.07907 
 C                     1.02085   1.3127   -0.4135 
 O                     2.12533   1.85137  -0.45068 
 N                     0.84297   0.01076  -0.80395 
 C                     2.00716  -0.7497   -1.24082 
 F                     1.57351  -1.64305  -2.18947 
 F                     2.84886   0.05043  -1.94773 
 C                     2.7804   -1.55032  -0.15127 
 F                     1.86415  -2.00297   0.77753 
 O                     3.36224  -2.77554  -0.62764 
 C                     4.50648  -2.60439  -1.42297 
 F                     4.81958  -3.78288  -1.98945 
 F                     5.53402  -2.20555  -0.65855 
 F                     4.28398  -1.70471  -2.38831 
 C                     3.72745  -0.62649   0.61343 
 F                     4.46511  -1.33417   1.50643 
 F                     3.04527   0.29026   1.33789 
 F                     4.59269   0.02641  -0.18518 
 C                    -0.31057  -0.68591  -0.53771 
 O                    -0.35249  -1.91149  -0.58411 
 N                    -1.40986   0.04988  -0.17282 
 C                    -2.66693  -0.6646    0.01355 
 F                    -2.84159  -1.42482  -1.11283 
 F                    -3.71961   0.20343  -0.04989 
 C                    -2.85635  -1.57769   1.2649 
 F                    -1.9423   -2.59035   1.28663 
 O                    -4.14468  -2.20224   1.40284 
 C                    -4.52759  -2.95799   0.28489 
 F                    -5.46873  -3.84029   0.67173 
 F                    -3.49379  -3.63231  -0.23872 
 F                    -5.06503  -2.1407   -0.63616 
 C                    -2.63209  -0.73667   2.51579 
 F                    -2.75643  -1.48923   3.63946 
 F                    -1.38335  -0.20966   2.5511 
 F                    -3.51685   0.27456   2.63039 
 C                    -1.30087   1.33872   0.2838 
 O                    -2.211     1.88278   0.90518 
 H                    -0.50384   6.03837  -1.38539 
 H                    -0.91569   5.80116   0.32647 
 H                     0.79872   5.7842   -0.20425 
 H                    -0.64019   3.60701   1.26318 
 H                     1.05947   3.5918    0.7392 
 
 NAtoms=     45 NQM=       45 NQMF=       0 NMMI=      0 NMMIF=      0
                NMic=       0 NMicF=      0.
                    Isotopes and Nuclear Properties:
 (Nuclear quadrupole moments (NQMom) in fm**2, nuclear magnetic moments (NMagM)
  in nuclear magnetons)

  Atom         1           2           3           4           5           6           7           8           9          10
 IAtWgt=          12          16          12          14          12          16          14          12          19          19
 AtmWgt=  12.0000000  15.9949146  12.0000000  14.0030740  12.0000000  15.9949146  14.0030740  12.0000000  18.9984033  18.9984033
 NucSpn=           0           0           0           2           0           0           2           0           1           1
 AtZEff=   0.0000000   0.0000000   0.0000000   0.0000000   0.0000000   0.0000000   0.0000000   0.0000000   0.0000000   0.0000000
 NQMom=    0.0000000   0.0000000   0.0000000   2.0440000   0.0000000   0.0000000   2.0440000   0.0000000   0.0000000   0.0000000
 NMagM=    0.0000000   0.0000000   0.0000000   0.4037610   0.0000000   0.0000000   0.4037610   0.0000000   2.6288670   2.6288670
 AtZNuc=   6.0000000   8.0000000   6.0000000   7.0000000   6.0000000   8.0000000   7.0000000   6.0000000   9.0000000   9.0000000

  Atom        11          12          13          14          15          16          17          18          19          20
 IAtWgt=          12          19          16          12          19          19          19          12          19          19
 AtmWgt=  12.0000000  18.9984033  15.9949146  12.0000000  18.9984033  18.9984033  18.9984033  12.0000000  18.9984033  18.9984033
 NucSpn=           0           1           0           0           1           1           1           0           1           1
 AtZEff=   0.0000000   0.0000000   0.0000000   0.0000000   0.0000000   0.0000000   0.0000000   0.0000000   0.0000000   0.0000000
 NQMom=    0.0000000   0.0000000   0.0000000   0.0000000   0.0000000   0.0000000   0.0000000   0.0000000   0.0000000   0.0000000
 NMagM=    0.0000000   2.6288670   0.0000000   0.0000000   2.6288670   2.6288670   2.6288670   0.0000000   2.6288670   2.6288670
 AtZNuc=   6.0000000   9.0000000   8.0000000   6.0000000   9.0000000   9.0000000   9.0000000   6.0000000   9.0000000   9.0000000

  Atom        21          22          23          24          25          26          27          28          29          30
 IAtWgt=          19          12          16          14          12          19          19          12          19          16
 AtmWgt=  18.9984033  12.0000000  15.9949146  14.0030740  12.0000000  18.9984033  18.9984033  12.0000000  18.9984033  15.9949146
 NucSpn=           1           0           0           2           0           1           1           0           1           0
 AtZEff=   0.0000000   0.0000000   0.0000000   0.0000000   0.0000000   0.0000000   0.0000000   0.0000000   0.0000000   0.0000000
 NQMom=    0.0000000   0.0000000   0.0000000   2.0440000   0.0000000   0.0000000   0.0000000   0.0000000   0.0000000   0.0000000
 NMagM=    2.6288670   0.0000000   0.0000000   0.4037610   0.0000000   2.6288670   2.6288670   0.0000000   2.6288670   0.0000000
 AtZNuc=   9.0000000   6.0000000   8.0000000   7.0000000   6.0000000   9.0000000   9.0000000   6.0000000   9.0000000   8.0000000

  Atom        31          32          33          34          35          36          37          38          39          40
 IAtWgt=          12          19          19          19          12          19          19          19          12          16
 AtmWgt=  12.0000000  18.9984033  18.9984033  18.9984033  12.0000000  18.9984033  18.9984033  18.9984033  12.0000000  15.9949146
 NucSpn=           0           1           1           1           0           1           1           1           0           0
 AtZEff=   0.0000000   0.0000000   0.0000000   0.0000000   0.0000000   0.0000000   0.0000000   0.0000000   0.0000000   0.0000000
 NQMom=    0.0000000   0.0000000   0.0000000   0.0000000   0.0000000   0.0000000   0.0000000   0.0000000   0.0000000   0.0000000
 NMagM=    0.0000000   2.6288670   2.6288670   2.6288670   0.0000000   2.6288670   2.6288670   2.6288670   0.0000000   0.0000000
 AtZNuc=   6.0000000   9.0000000   9.0000000   9.0000000   6.0000000   9.0000000   9.0000000   9.0000000   6.0000000   8.0000000

  Atom        41          42          43          44          45
 IAtWgt=           1           1           1           1           1
 AtmWgt=   1.0078250   1.0078250   1.0078250   1.0078250   1.0078250
 NucSpn=           1           1           1           1           1
 AtZEff=   0.0000000   0.0000000   0.0000000   0.0000000   0.0000000
 NQMom=    0.0000000   0.0000000   0.0000000   0.0000000   0.0000000
 NMagM=    2.7928460   2.7928460   2.7928460   2.7928460   2.7928460
 AtZNuc=   1.0000000   1.0000000   1.0000000   1.0000000   1.0000000
 Leave Link  101 at Sun Mar  3 18:00:34 2024, MaxMem=  5368709120 cpu:         0.9
 (Enter /home/k0335/k033513/app/g09/l202.exe)
                          Input orientation:                          
 ---------------------------------------------------------------------
 Center     Atomic      Atomic             Coordinates (Angstroms)
 Number     Number       Type             X           Y           Z
 ---------------------------------------------------------------------
      1          6           0       -0.225968    5.507760   -0.470807
      2          8           0       -0.316500    4.111360   -0.718665
      3          6           0        0.033444    3.354315    0.436840
      4          7           0       -0.089396    1.956454    0.079068
      5          6           0        1.020849    1.312696   -0.413504
      6          8           0        2.125333    1.851367   -0.450677
      7          7           0        0.842966    0.010755   -0.803947
      8          6           0        2.007155   -0.749696   -1.240817
      9          9           0        1.573512   -1.643052   -2.189474
     10          9           0        2.848861    0.050428   -1.947728
     11          6           0        2.780402   -1.550317   -0.151268
     12          9           0        1.864151   -2.002973    0.777527
     13          8           0        3.362238   -2.775540   -0.627637
     14          6           0        4.506484   -2.604394   -1.422967
     15          9           0        4.819584   -3.782883   -1.989450
     16          9           0        5.534022   -2.205551   -0.658550
     17          9           0        4.283982   -1.704707   -2.388312
     18          6           0        3.727446   -0.626494    0.613433
     19          9           0        4.465109   -1.334171    1.506425
     20          9           0        3.045267    0.290261    1.337889
     21          9           0        4.592685    0.026414   -0.185182
     22          6           0       -0.310573   -0.685910   -0.537710
     23          8           0       -0.352492   -1.911487   -0.584112
     24          7           0       -1.409860    0.049875   -0.172815
     25          6           0       -2.666932   -0.664601    0.013554
     26          9           0       -2.841588   -1.424820   -1.112834
     27          9           0       -3.719610    0.203426   -0.049894
     28          6           0       -2.856345   -1.577688    1.264897
     29          9           0       -1.942296   -2.590351    1.286627
     30          8           0       -4.144680   -2.202243    1.402842
     31          6           0       -4.527591   -2.957985    0.284893
     32          9           0       -5.468730   -3.840288    0.671731
     33          9           0       -3.493785   -3.632307   -0.238722
     34          9           0       -5.065025   -2.140704   -0.636161
     35          6           0       -2.632090   -0.736666    2.515788
     36          9           0       -2.756429   -1.489232    3.639463
     37          9           0       -1.383348   -0.209659    2.551100
     38          9           0       -3.516849    0.274563    2.630385
     39          6           0       -1.300874    1.338715    0.283796
     40          8           0       -2.211000    1.882783    0.905178
     41          1           0       -0.503838    6.038374   -1.385392
     42          1           0       -0.915692    5.801159    0.326472
     43          1           0        0.798719    5.784202   -0.204253
     44          1           0       -0.640189    3.607013    1.263180
     45          1           0        1.059475    3.591800    0.739197
 ---------------------------------------------------------------------
                    Distance matrix (angstroms):
                    1          2          3          4          5
     1  C    0.000000
     2  O    1.421113   0.000000
     3  C    2.351264   1.425051   0.000000
     4  N    3.596219   2.309020   1.448139   0.000000
     5  C    4.376802   3.116752   2.422037   1.374662   0.000000
     6  O    4.347210   3.337954   2.724434   2.279627   1.229404
     7  N    5.609872   4.262229   3.657085   2.331257   1.370817
     8  C    6.688461   5.413121   4.853141   3.668906   2.431195
     9  F    7.571397   6.232871   5.851753   4.568149   3.492270
    10  F    6.435708   5.293513   4.952616   4.046504   2.699776
    11  C    7.678334   6.478219   5.652173   4.537206   3.370703
    12  F    7.895445   6.661749   5.671692   4.470039   3.622620
    13  O    9.028448   7.808380   7.056139   5.899574   4.716103
    14  C    9.439796   8.298106   7.679400   6.646770   5.339687
    15  F   10.680820   9.503332   8.929368   7.830507   6.548200
    16  F    9.628494   8.610202   7.897363   7.034856   5.727726
    17  F    8.719871   7.601236   7.186255   6.214378   4.863396
    18  C    7.377949   6.369870   5.433569   4.639553   3.484354
    19  F    8.528052   7.580806   6.539539   5.797334   4.749206
    20  F    6.418306   5.489234   4.389920   3.766556   2.865488
    21  F    7.303845   6.408704   5.678778   5.071170   3.803244
    22  C    6.194609   4.800685   4.170313   2.722393   2.404691
    23  O    7.421191   6.024457   5.377728   3.933191   3.508636
    24  N    5.592755   4.241350   3.657066   2.332834   2.749726
    25  C    6.655145   5.373126   4.860338   3.676671   4.206163
    26  F    7.437361   6.097600   5.788560   4.519757   4.785549
    27  F    6.365427   5.224975   4.924472   4.033385   4.882074
    28  C    7.754684   6.538394   5.775917   4.642452   5.118983
    29  F    8.462491   7.181736   6.321767   5.056172   5.186950
    30  O    8.849351   7.682274   7.018918   5.957555   6.506658
    31  C    9.525958   8.289515   7.789176   6.625077   7.036452
    32  F   10.778587   9.576397   9.060431   7.930366   8.357369
    33  F    9.709445   8.383905   7.855610   6.551725   6.698173
    34  F    9.052227   7.851344   7.572381   6.484993   7.000958
    35  C    7.328167   6.271124   5.306903   4.433485   5.111223
    36  F    8.500321   7.504210   6.442060   5.626920   6.208476
    37  F    6.569652   5.522747   4.379418   3.532322   4.109331
    38  F    6.916187   6.014930   5.186626   4.591885   5.561806
    39  C    4.371016   3.108292   2.422080   1.375207   2.424315
    40  O    4.355932   3.345527   2.724385   2.277957   3.536774
    41  H    1.093265   2.047682   3.288370   4.356429   5.059770
    42  H    1.094283   2.075274   2.626801   3.940270   4.944093
    43  H    1.094283   2.075267   2.626975   3.939629   4.481907
    44  H    2.605979   2.070471   1.095662   2.104718   3.291536
    45  H    2.605259   2.070896   1.095700   2.104764   2.554315
                    6          7          8          9         10
     6  O    0.000000
     7  N    2.270929   0.000000
     8  C    2.720995   1.457559   0.000000
     9  F    3.941939   2.277819   1.373347   0.000000
    10  F    2.451129   2.309421   1.359555   2.133736   0.000000
    11  C    3.477099   2.572274   1.557569   2.370541   2.407143
    12  F    4.053719   2.756625   2.380098   3.002850   3.551496
    13  O    4.792652   3.760486   2.513222   2.630856   3.161059
    14  C    5.144807   4.543518   3.117648   3.180257   3.173510
    15  F    6.432075   5.622330   4.203621   3.893054   4.310425
    16  F    5.302920   5.190295   3.859707   4.283197   3.736511
    17  F    4.589102   4.158559   2.722633   2.718453   2.309586
    18  C    3.136701   3.276473   2.532355   3.678194   2.791000
    19  F    4.410493   4.501840   3.732357   4.702809   4.057160
    20  F    2.546036   3.084755   2.967981   4.283229   3.300208
    21  F    3.080384   3.800462   2.898565   3.989951   2.479530
    22  C    3.518379   1.373636   2.422868   2.682205   3.537283
    23  O    4.507382   2.274305   2.710895   2.521653   3.994649
    24  N    3.977458   2.339890   3.668233   3.979124   4.613786
    25  C    5.432440   3.666578   4.840225   4.877711   5.897615
    26  F    5.986832   3.966387   4.897191   4.549713   5.937560
    27  F    6.086025   4.628479   5.926430   6.000369   6.838859
    28  C    6.286392   4.526386   5.533336   5.617881   6.746932
    29  F    6.268388   4.346716   5.037276   5.034040   6.355309
    30  O    7.692877   5.885906   6.851562   6.776072   8.075299
    31  C    8.242107   6.232325   7.064505   6.713792   8.273282
    32  F    9.556387   7.539606   8.312548   7.912491   9.548903
    33  F    7.854304   5.691993   6.290785   5.782739   7.530763
    34  F    8.226317   6.289776   7.232997   6.835979   8.315700
    35  C    6.175023   4.863671   5.969493   6.375587   7.112195
    36  F    7.191693   5.911810   6.859721   7.262820   8.062663
    37  F    5.056613   4.032542   5.115250   5.768074   6.182127
    38  F    6.619175   5.556277   6.822751   7.267741   7.844209
    39  C    3.541350   2.746400   4.198686   4.823909   4.884637
    40  O    4.543469   3.968917   5.415540   6.027513   6.090878
    41  H    5.031626   6.203559   7.239053   7.997889   6.885660
    42  H    5.045062   6.156257   7.342556   8.242718   7.239803
    43  H    4.157863   5.804678   6.725073   7.726934   6.333952
    44  H    3.696987   4.405205   5.679731   6.662167   5.927284
    45  H    2.362406   3.905388   4.864889   6.020384   4.791950
                   11         12         13         14         15
    11  C    0.000000
    12  F    1.380968   0.000000
    13  O    1.437579   2.194450   0.000000
    14  C    2.389070   3.490817   1.403973   0.000000
    15  F    3.538577   4.422536   2.234532   1.344534   0.000000
    16  F    2.875602   3.946050   2.245549   1.341359   2.183963
    17  F    2.699806   3.995883   2.257492   1.338221   2.182837
    18  C    1.528106   2.322389   2.508392   2.943792   4.234449
    19  F    2.373374   2.782727   2.801444   3.193198   4.282871
    20  F    2.382324   2.639690   3.655530   4.258698   5.550666
    21  F    2.402416   3.534136   3.092040   2.908727   4.221091
    22  C    3.232749   2.862504   4.226604   5.260066   6.165817
    23  O    3.183209   2.603063   3.814145   4.979302   5.676924
    24  N    4.485463   3.979508   5.564418   6.603874   7.536323
    25  C    5.521332   4.785980   6.420131   7.568638   8.353660
    26  F    5.705009   5.104087   6.367678   7.448607   8.063651
    27  F    6.733205   6.060628   7.704583   8.799875   9.621350
    28  C    5.811987   4.764607   6.609638   7.905061   8.624010
    29  F    5.045105   3.885001   5.642409   6.994917   7.607748
    30  O    7.127203   6.044566   7.797777   9.109861   9.714118
    31  C    7.455101   6.481443   7.944520   9.200887   9.655194
    32  F    8.600551   7.560295   8.989329  10.267429  10.627068
    33  F    6.611184   5.691658   6.920286   8.152505   8.497048
    34  F    7.882538   7.073257   8.451145   9.614981  10.111065
    35  C    6.088537   4.984102   7.068953   8.364295   9.225186
    36  F    6.710430   5.459338   7.569730   8.923099   9.712954
    37  F    5.141689   4.111908   6.261685   7.497872   8.477080
    38  F    7.122019   6.129879   8.199980   9.438852  10.358661
    39  C    5.019223   4.629042   6.285095   7.224026   8.298097
    40  O    6.149500   5.632251   7.423643   8.407117   9.481970
    41  H    8.360474   8.657301   9.654316   9.990104  11.187529
    42  H    8.242181   8.296713   9.631759  10.154499  11.406610
    43  H    7.597700   7.920804   8.945394   9.252099  10.530119
    44  H    6.348162   6.162753   7.767341   8.502071   9.746758
    45  H    5.495078   5.652474   6.907530   7.412803   8.716070
                   16         17         18         19         20
    16  F    0.000000
    17  F    2.192150   0.000000
    18  C    2.715710   3.237707   0.000000
    19  F    2.566904   3.916514   1.357346   0.000000
    20  F    4.050771   4.404417   1.353013   2.164055   0.000000
    21  F    2.468169   2.818840   1.346370   2.174627   2.187204
    22  C    6.040133   5.056937   4.199316   5.235061   3.966414
    23  O    5.894325   4.979436   4.441983   5.283268   4.481802
    24  N    7.317129   6.356636   5.240952   6.265037   4.710432
    25  C    8.371493   7.427381   6.422568   7.317308   5.940946
    26  F    8.424177   7.244234   6.838825   7.762510   6.603227
    27  F    9.581406   8.553751   7.522461   8.472069   6.906305
    28  C    8.630882   8.021617   6.683972   7.329483   6.190605
    29  F    7.734799   7.283960   6.037872   6.533080   5.759890
    30  O    9.895788   9.255416   8.067002   8.654059   7.610002
    31  C   10.133721   9.293038   8.584254   9.219412   8.307110
    32  F   11.202793  10.442220   9.741741  10.279032   9.486482
    33  F    9.149491   8.296387   7.868116   8.465870   7.786619
    34  F   10.599269   9.521768   9.008988   9.801256   8.693866
    35  C    8.883661   8.533426   6.638885   7.193473   5.888498
    36  F    9.365768   9.270808   7.207067   7.531567   6.490263
    37  F    7.882604   7.664958   5.481653   6.046513   4.618921
    38  F    9.944160   9.484608   7.573626   8.219669   6.688210
    39  C    7.756651   6.898782   5.408762   6.471916   4.593398
    40  O    8.896352   8.118002   6.453428   7.435101   5.509238
    41  H   10.244333   9.158841   8.143680   9.349196   7.283763
    42  H   10.328431   9.526001   7.934469   9.014335   6.861644
    43  H    9.298690   8.544058   7.095285   8.187800   6.132582
    44  H    8.694816   8.111425   6.117270   7.109046   4.958731
    45  H    7.455504   6.944908   4.992784   6.037563   3.898969
                   21         22         23         24         25
    21  F    0.000000
    22  C    4.967255   0.000000
    23  O    5.326291   1.227171   0.000000
    24  N    6.002604   1.372210   2.265863   0.000000
    25  C    7.295138   2.420077   2.696027   1.457889   0.000000
    26  F    7.631188   2.698665   2.590751   2.260134   1.370105
    27  F    8.315280   3.556742   4.011948   2.318110   1.365880
    28  C    7.756540   3.244320   3.130421   2.609271   1.560597
    29  F    7.191638   3.101229   2.547155   3.063373   2.419571
    30  O    9.155888   4.556905   4.291062   3.877366   2.545231
    31  C    9.607655   4.860272   4.391102   4.356256   2.965685
    32  F   10.812851   6.165990   5.610108   5.685161   4.285820
    33  F    8.875816   4.347814   3.598366   4.231495   3.091053
    34  F    9.908135   4.973020   4.718391   4.286439   2.889958
    35  C    7.750800   3.836127   4.023202   3.056318   2.503514
    36  F    8.422266   4.906762   4.878094   4.326149   3.719576
    37  F    6.576925   3.304302   3.713278   2.736380   2.879878
    38  F    8.587988   4.608638   5.012481   3.513946   2.907265
    39  C    6.056081   2.398890   3.495212   1.371671   2.439758
    40  O    7.136184   3.505957   4.479790   2.272322   2.737158
    41  H    7.972372   6.780259   7.991573   6.176839   7.180940
    42  H    7.996980   6.572294   7.786608   5.794028   6.706028
    43  H    6.895409   6.572980   7.790585   6.145024   7.324291
    44  H    6.503954   4.667016   5.826586   3.912506   4.890392
    45  H    5.103923   4.669724   5.833607   4.413005   5.703474
                   26         27         28         29         30
    26  F    0.000000
    27  F    2.133530   0.000000
    28  C    2.382686   2.376188   0.000000
    29  F    2.815067   3.570759   1.364348   0.000000
    30  O    2.937867   2.842247   1.438369   2.239337   0.000000
    31  C    2.673358   3.280158   2.378800   2.796851   1.402703
    32  F    3.990117   4.464503   3.506531   3.791593   2.229534
    33  F    2.462201   3.847012   2.624626   2.412360   2.272329
    34  F    2.383984   2.765646   2.968042   3.694690   2.237935
    35  C    3.699235   2.940952   1.523921   2.328691   2.382119
    36  F    4.753496   4.171830   2.378313   2.722336   2.727288
    37  F    4.126438   3.520501   2.386533   2.753000   3.593583
    38  F    4.166001   2.688879   2.394088   3.534492   2.834714
    39  C    3.458540   2.692678   3.447819   4.105442   4.677380
    40  O    3.925589   2.451185   3.538464   4.497403   4.546892
    41  H    7.825511   6.794951   8.400162   9.146789   9.430681
    42  H    7.615474   6.272019   7.687273   8.508423   8.697090
    43  H    8.126952   7.182213   8.349570   8.936947   9.529074
    44  H    5.984225   4.774034   5.638482   6.332721   6.785898
    45  H    6.619274   5.911294   6.506429   6.894150   7.816303
                   31         32         33         34         35
    31  C    0.000000
    32  F    1.346791   0.000000
    33  F    1.340760   2.184625   0.000000
    34  F    1.343549   2.182234   2.202642   0.000000
    35  C    3.674789   4.591246   4.088347   4.221999   0.000000
    36  F    4.067848   4.657411   4.491857   4.902550   1.358109
    37  F    4.751342   5.779606   4.894034   5.238541   1.355854
    38  F    4.119745   4.957637   4.847261   4.347492   1.348523
    39  C    5.373391   6.659098   5.458291   5.207832   3.325828
    40  O    5.402257   6.589449   5.776700   5.168136   3.103690
    41  H    9.995745  11.245882  10.187085   9.394844   8.102458
    42  H    9.474711  10.668030   9.795728   9.012037   7.105088
    43  H   10.248643  11.518640  10.348788   9.867835   7.854349
    44  H    7.692083   8.895331   7.925054   7.498194   4.940065
    45  H    8.620985   9.892317   8.595128   8.500748   5.959828
                   36         37         38         39         40
    36  F    0.000000
    37  F    2.169607   0.000000
    38  F    2.169666   2.189197   0.000000
    39  C    4.623465   2.746804   3.398447   0.000000
    40  O    4.375419   2.787899   2.695914   1.229006   0.000000
    41  H    9.326746   7.436896   7.643704   5.050569   5.042822
    42  H    8.216692   6.426321   6.528192   4.479240   4.167301
    43  H    8.961923   6.948364   7.550856   4.940530   5.050774
    44  H    6.008070   4.096097   4.609734   2.557513   2.359784
    45  H    6.984952   4.868415   5.960151   3.294697   3.693819
                   41         42         43         44         45
    41  H    0.000000
    42  H    1.776618   0.000000
    43  H    1.776611   1.794759   0.000000
    44  H    3.597922   2.401583   2.993989   0.000000
    45  H    3.597715   2.992139   2.400983   1.778664   0.000000
 Symmetry turned off by external request.
 Stoichiometry    C13H5F18N3O6
 Framework group  C1[X(C13H5F18N3O6)]
 Deg. of freedom   129
 Full point group                 C1      NOp   1
 Rotational constants (GHZ):      0.1360227      0.0649387      0.0529769
 Leave Link  202 at Sun Mar  3 18:00:34 2024, MaxMem=  5368709120 cpu:         0.1
 (Enter /home/k0335/k033513/app/g09/l301.exe)
 Standard basis: 6-31G(d,p) (6D, 7F)
 Ernie: Thresh=  0.10000D-02 Tol=  0.10000D-05 Strict=F.
   625 basis functions,  1155 primitive gaussians,   625 cartesian basis functions
   157 alpha electrons      157 beta electrons
       nuclear repulsion energy      6156.9510791170 Hartrees.
 IExCor=20419 DFT=T Ex+Corr=CAM-B3LYP ExCW=0 ScaHFX=  1.000000
 ScaDFX=  1.000000  1.000000  1.000000  0.810000 ScalE2=  1.000000  1.000000
 IRadAn=      0 IRanWt=     -1 IRanGd=            0 ICorTp=0 IEmpDi=  4
  HFx wShort=  0.000000 wLong=  0.330000 cFull=  0.190000 cShort=  0.000000 cLong=  0.460000
  DFx wShort=  0.000000 wLong=  0.330000 cFull=  0.190000 cShort=  0.000000 cLong=  0.460000
 NAtoms=   45 NActive=   45 NUniq=   45 SFac= 1.00D+00 NAtFMM=   60 NAOKFM=F Big=F
 Integral buffers will be    131072 words long.
 Raffenetti 2 integral format.
 Two-electron integral symmetry is turned off.
 Using the following non-standard input for PCM:
 eps=4.9
 --- end of non-standard input.
 ------------------------------------------------------------------------------
 Polarizable Continuum Model (PCM)
 =================================
 Model                : PCM (using non-symmetric T matrix).
 Atomic radii         : UFF (Universal Force Field).
 Polarization charges : Total charges.
 Charge compensation  : None.
 Solution method      : On-the-fly selection.
 Cavity type          : Scaled VdW (van der Waals Surface) (Alpha=1.100).
 Cavity algorithm     : GePol (No added spheres)
                        Default sphere list used, NSphG=   45.
                        Lebedev-Laikov grids with approx.  5.0 points / Ang**2.
                        Smoothing algorithm: Karplus/York (Gamma=1.0000).
                        Polarization charges: spherical gaussians, with
                                              point-specific exponents (IZeta= 3).
                        Self-potential: point-specific (ISelfS= 7).
                        Self-field    : sphere-specific E.n sum rule (ISelfD= 2).
 Solvent              : Generic,
                        Eps                           =   4.900000
                        Eps(infinity)                 =   0.000000
                        RSolv                         =   0.000000 Ang.
                        Molar volume                  =   0.000000 cm**3/mol
                        Thermal expansion coefficient =   0.000000 K**-1
                        Absolute temperature          = 298.150000 K
                        Numeral density               =   0.000000 Ang**-3
                        Hydrogen bond acidity         =   0.000000
                        Hydrogen bond basicity        =   0.000000
                        Surface tension at interface  =   0.000000 (cal/mol)*Ang**-2
                        Carbon aromaticity            =   0.000000
                        Electronegative halogenicity  =   0.000000
 ------------------------------------------------------------------------------
 GePol: Number of generator spheres                  =      45
 GePol: Total number of spheres                      =      45
 GePol: Number of exposed spheres                    =      45 (100.00%)
 GePol: Number of points                             =    3680
 GePol: Average weight of points                     =       0.12
 GePol: Minimum weight of points                     =   0.17D-10
 GePol: Maximum weight of points                     =    0.20577
 GePol: Number of points with low weight             =     178
 GePol: Fraction of low-weight points (<1% of avg)   =       4.84%
 GePol: Cavity surface area                          =    456.145 Ang**2
 GePol: Cavity volume                                =    534.973 Ang**3
 Leave Link  301 at Sun Mar  3 18:00:35 2024, MaxMem=  5368709120 cpu:         0.8
 (Enter /home/k0335/k033513/app/g09/l302.exe)
 NPDir=0 NMtPBC=     1 NCelOv=     1 NCel=       1 NClECP=     1 NCelD=      1
         NCelK=      1 NCelE2=     1 NClLst=     1 CellRange=     0.0.
 One-electron integrals computed using PRISM.
 NBasis=   625 RedAO= T EigKep=  1.06D-03  NBF=   625
 NBsUse=   625 1.00D-06 EigRej= -1.00D+00 NBFU=   625
 Precomputing XC quadrature grid using
 IXCGrd= 4 IRadAn=           0 IRanWt=          -1 IRanGd=           0 AccXCQ= 0.00D+00.
 Generated NRdTot=       0 NPtTot=           0 NUsed=           0 NTot=          32
 NSgBfM=   610   610   610   610   610 MxSgAt=    45 MxSgA2=    45.
 Leave Link  302 at Sun Mar  3 18:00:35 2024, MaxMem=  5368709120 cpu:        13.5
 (Enter /home/k0335/k033513/app/g09/l303.exe)
 DipDrv:  MaxL=1.
 Leave Link  303 at Sun Mar  3 18:00:35 2024, MaxMem=  5368709120 cpu:         0.9
 (Enter /home/k0335/k033513/app/g09/l401.exe)
 ExpMin= 1.61D-01 ExpMax= 7.00D+03 ExpMxC= 1.05D+03 IAcc=1 IRadAn=         1 AccDes= 0.00D+00
 Harris functional with IExCor=20419 and IRadAn=       1 diagonalized for initial guess.
 HarFok:  IExCor=20419 AccDes= 0.00D+00 IRadAn=         1 IDoV= 1 UseB2=F ITyADJ=14
 ICtDFT=  3500011 ScaDFX=  1.000000  1.000000  1.000000  1.000000
 FoFCou: FMM=F IPFlag=           0 FMFlag=      100000 FMFlg1=           0
         NFxFlg=           0 DoJE=T BraDBF=F KetDBF=T FulRan=T
         wScrn=  0.000000 ICntrl=     500 IOpCl=  0 I1Cent=   200000004 NGrid=           0
         NMat0=    1 NMatS0=      1 NMatT0=    0 NMatD0=    1 NMtDS0=    0 NMtDT0=    0
 Symmetry not used in FoFCou.
 Harris En= -2823.10498268112    
 JPrj=0 DoOrth=F DoCkMO=F.
 Leave Link  401 at Sun Mar  3 18:00:36 2024, MaxMem=  5368709120 cpu:        15.1
 (Enter /home/k0335/k033513/app/g09/l502.exe)
 Closed shell SCF:
 Using DIIS extrapolation, IDIIS=  1040.
 Two-electron integral symmetry not used.
 IVT=     1209265 IEndB=     1209265 NGot=  5368709120 MDV=  5367907746
 LenX=  5367907746 LenY=  5367516496
 Requested convergence on RMS density matrix=1.00D-08 within 128 cycles.
 Requested convergence on MAX density matrix=1.00D-06.
 Requested convergence on             energy=1.00D-06.
 No special actions if energy rises.
 Fock matrices will be formed incrementally for  20 cycles.

 Cycle   1  Pass 1  IDiag  1:
 FoFJK:  IHMeth= 1 ICntrl=       0 DoSepK=T KAlg= 0 I1Cent=   0 FoldK=F
 IRaf=         1 NMat=   1 IRICut=       1 DoRegI=T DoRafI=F ISym2E= 0.
 FoFCou: FMM=F IPFlag=           0 FMFlag=      100000 FMFlg1=           0
         NFxFlg=           0 DoJE=T BraDBF=F KetDBF=F FulRan=T
         wScrn=  0.000000 ICntrl=     500 IOpCl=  0 I1Cent=           0 NGrid=           0
         NMat0=    1 NMatS0=      1 NMatT0=    0 NMatD0=    1 NMtDS0=    0 NMtDT0=    0
 Symmetry not used in FoFCou.
 Inv3:  Mode=1 IEnd=    40627200.
 Iteration    1 A*A^-1 deviation from unit magnitude is 6.44D-15 for   3658.
 Iteration    1 A*A^-1 deviation from orthogonality  is 4.98D-15 for   3658    338.
 Iteration    1 A^-1*A deviation from unit magnitude is 6.44D-15 for   3658.
 Iteration    1 A^-1*A deviation from orthogonality  is 3.56D-12 for   2471   2447.
 E= -2909.34090378700    
 DIIS: error= 5.52D-02 at cycle   1 NSaved=   1.
 NSaved= 1 IEnMin= 1 EnMin= -2909.34090378700     IErMin= 1 ErrMin= 5.52D-02
 ErrMax= 5.52D-02  0.00D+00 EMaxC= 1.00D-01 BMatC= 2.39D+00 BMatP= 2.39D+00
 IDIUse=3 WtCom= 4.48D-01 WtEn= 5.52D-01
 Coeff-Com:  0.100D+01
 Coeff-En:   0.100D+01
 Coeff:      0.100D+01
 Gap=     0.442 Goal=   None    Shift=    0.000
 GapD=    0.442 DampG=2.000 DampE=0.500 DampFc=1.0000 IDamp=-1.
 RMSDP=3.02D-03 MaxDP=1.26D-01              OVMax= 2.19D-01

 Cycle   2  Pass 1  IDiag  1:
 RMSU=  3.02D-03    CP:  1.00D+00
 E= -2909.68909369181     Delta-E=       -0.348189904815 Rises=F Damp=F
 DIIS: error= 1.79D-02 at cycle   2 NSaved=   2.
 NSaved= 2 IEnMin= 2 EnMin= -2909.68909369181     IErMin= 2 ErrMin= 1.79D-02
 ErrMax= 1.79D-02  0.00D+00 EMaxC= 1.00D-01 BMatC= 9.34D-01 BMatP= 2.39D+00
 IDIUse=3 WtCom= 8.21D-01 WtEn= 1.79D-01
 Coeff-Com:  0.363D+00 0.637D+00
 Coeff-En:   0.354D+00 0.646D+00
 Coeff:      0.362D+00 0.638D+00
 Gap=     0.394 Goal=   None    Shift=    0.000
 RMSDP=1.63D-03 MaxDP=1.27D-01 DE=-3.48D-01 OVMax= 1.43D-01

 Cycle   3  Pass 1  IDiag  1:
 RMSU=  1.02D-03    CP:  1.00D+00  5.80D-01
 E= -2910.10363169199     Delta-E=       -0.414538000185 Rises=F Damp=F
 DIIS: error= 1.05D-02 at cycle   3 NSaved=   3.
 NSaved= 3 IEnMin= 3 EnMin= -2910.10363169199     IErMin= 3 ErrMin= 1.05D-02
 ErrMax= 1.05D-02  0.00D+00 EMaxC= 1.00D-01 BMatC= 2.55D-01 BMatP= 9.34D-01
 IDIUse=3 WtCom= 8.95D-01 WtEn= 1.05D-01
 Coeff-Com:  0.115D+00 0.360D+00 0.525D+00
 Coeff-En:   0.000D+00 0.221D+00 0.779D+00
 Coeff:      0.103D+00 0.345D+00 0.552D+00
 Gap=     0.337 Goal=   None    Shift=    0.000
 RMSDP=7.68D-04 MaxDP=7.50D-02 DE=-4.15D-01 OVMax= 9.45D-02

 Cycle   4  Pass 1  IDiag  1:
 RMSU=  3.18D-04    CP:  1.00D+00  6.94D-01  4.04D-01
 E= -2910.26750379863     Delta-E=       -0.163872106632 Rises=F Damp=F
 DIIS: error= 3.33D-03 at cycle   4 NSaved=   4.
 NSaved= 4 IEnMin= 4 EnMin= -2910.26750379863     IErMin= 4 ErrMin= 3.33D-03
 ErrMax= 3.33D-03  0.00D+00 EMaxC= 1.00D-01 BMatC= 2.30D-02 BMatP= 2.55D-01
 IDIUse=3 WtCom= 9.67D-01 WtEn= 3.33D-02
 Coeff-Com:  0.807D-02 0.948D-01 0.284D+00 0.614D+00
 Coeff-En:   0.000D+00 0.000D+00 0.397D-01 0.960D+00
 Coeff:      0.780D-02 0.916D-01 0.275D+00 0.625D+00
 Gap=     0.344 Goal=   None    Shift=    0.000
 RMSDP=2.30D-04 MaxDP=2.19D-02 DE=-1.64D-01 OVMax= 2.36D-02

 Cycle   5  Pass 1  IDiag  1:
 RMSU=  1.06D-04    CP:  1.00D+00  6.83D-01  5.76D-01  6.95D-01
 E= -2910.28240611418     Delta-E=       -0.014902315548 Rises=F Damp=F
 DIIS: error= 7.33D-04 at cycle   5 NSaved=   5.
 NSaved= 5 IEnMin= 5 EnMin= -2910.28240611418     IErMin= 5 ErrMin= 7.33D-04
 ErrMax= 7.33D-04  0.00D+00 EMaxC= 1.00D-01 BMatC= 1.78D-03 BMatP= 2.30D-02
 IDIUse=3 WtCom= 9.93D-01 WtEn= 7.33D-03
 Coeff-Com: -0.179D-02 0.282D-01 0.117D+00 0.347D+00 0.509D+00
 Coeff-En:   0.000D+00 0.000D+00 0.000D+00 0.000D+00 0.100D+01
 Coeff:     -0.178D-02 0.280D-01 0.116D+00 0.345D+00 0.513D+00
 Gap=     0.336 Goal=   None    Shift=    0.000
 RMSDP=5.48D-05 MaxDP=4.04D-03 DE=-1.49D-02 OVMax= 5.11D-03

 Cycle   6  Pass 1  IDiag  1:
 RMSU=  2.49D-05    CP:  1.00D+00  6.88D-01  5.62D-01  7.28D-01  6.00D-01
 E= -2910.28366446276     Delta-E=       -0.001258348584 Rises=F Damp=F
 DIIS: error= 9.35D-05 at cycle   6 NSaved=   6.
 NSaved= 6 IEnMin= 6 EnMin= -2910.28366446276     IErMin= 6 ErrMin= 9.35D-05
 ErrMax= 9.35D-05  0.00D+00 EMaxC= 1.00D-01 BMatC= 2.38D-05 BMatP= 1.78D-03
 IDIUse=1 WtCom= 1.00D+00 WtEn= 0.00D+00
 Coeff-Com: -0.688D-03-0.186D-02 0.549D-03 0.190D-01 0.113D+00 0.870D+00
 Coeff:     -0.688D-03-0.186D-02 0.549D-03 0.190D-01 0.113D+00 0.870D+00
 Gap=     0.337 Goal=   None    Shift=    0.000
 RMSDP=1.10D-05 MaxDP=6.91D-04 DE=-1.26D-03 OVMax= 8.04D-04

 Cycle   7  Pass 1  IDiag  1:
 RMSU=  7.52D-06    CP:  1.00D+00  6.88D-01  5.64D-01  7.41D-01  6.58D-01
                    CP:  1.01D+00
 E= -2910.28368497816     Delta-E=       -0.000020515403 Rises=F Damp=F
 DIIS: error= 3.40D-05 at cycle   7 NSaved=   7.
 NSaved= 7 IEnMin= 7 EnMin= -2910.28368497816     IErMin= 7 ErrMin= 3.40D-05
 ErrMax= 3.40D-05  0.00D+00 EMaxC= 1.00D-01 BMatC= 3.88D-06 BMatP= 2.38D-05
 IDIUse=1 WtCom= 1.00D+00 WtEn= 0.00D+00
 Coeff-Com: -0.145D-03-0.267D-02-0.703D-02-0.143D-01 0.174D-01 0.362D+00
 Coeff-Com:  0.644D+00
 Coeff:     -0.145D-03-0.267D-02-0.703D-02-0.143D-01 0.174D-01 0.362D+00
 Coeff:      0.644D+00
 Gap=     0.337 Goal=   None    Shift=    0.000
 RMSDP=3.32D-06 MaxDP=2.32D-04 DE=-2.05D-05 OVMax= 3.53D-04

 Cycle   8  Pass 1  IDiag  1:
 RMSU=  2.20D-06    CP:  1.00D+00  6.88D-01  5.65D-01  7.41D-01  6.67D-01
                    CP:  1.08D+00  8.10D-01
 E= -2910.28368814614     Delta-E=       -0.000003167981 Rises=F Damp=F
 DIIS: error= 1.07D-05 at cycle   8 NSaved=   8.
 NSaved= 8 IEnMin= 8 EnMin= -2910.28368814614     IErMin= 8 ErrMin= 1.07D-05
 ErrMax= 1.07D-05  0.00D+00 EMaxC= 1.00D-01 BMatC= 3.50D-07 BMatP= 3.88D-06
 IDIUse=1 WtCom= 1.00D+00 WtEn= 0.00D+00
 Coeff-Com:  0.886D-05-0.901D-03-0.275D-02-0.790D-02-0.512D-02 0.436D-01
 Coeff-Com:  0.243D+00 0.730D+00
 Coeff:      0.886D-05-0.901D-03-0.275D-02-0.790D-02-0.512D-02 0.436D-01
 Coeff:      0.243D+00 0.730D+00
 Gap=     0.337 Goal=   None    Shift=    0.000
 RMSDP=1.24D-06 MaxDP=1.08D-04 DE=-3.17D-06 OVMax= 1.46D-04

 Cycle   9  Pass 1  IDiag  1:
 RMSU=  8.53D-07    CP:  1.00D+00  6.88D-01  5.66D-01  7.41D-01  6.70D-01
                    CP:  1.10D+00  8.77D-01  9.91D-01
 E= -2910.28368845876     Delta-E=       -0.000000312619 Rises=F Damp=F
 DIIS: error= 4.59D-06 at cycle   9 NSaved=   9.
 NSaved= 9 IEnMin= 9 EnMin= -2910.28368845876     IErMin= 9 ErrMin= 4.59D-06
 ErrMax= 4.59D-06  0.00D+00 EMaxC= 1.00D-01 BMatC= 4.61D-08 BMatP= 3.50D-07
 IDIUse=1 WtCom= 1.00D+00 WtEn= 0.00D+00
 Coeff-Com:  0.196D-04 0.165D-04-0.345D-04-0.115D-02-0.468D-02-0.398D-01
 Coeff-Com:  0.398D-02 0.290D+00 0.752D+00
 Coeff:      0.196D-04 0.165D-04-0.345D-04-0.115D-02-0.468D-02-0.398D-01
 Coeff:      0.398D-02 0.290D+00 0.752D+00
 Gap=     0.337 Goal=   None    Shift=    0.000
 RMSDP=5.27D-07 MaxDP=5.91D-05 DE=-3.13D-07 OVMax= 7.66D-05

 Cycle  10  Pass 1  IDiag  1:
 RMSU=  2.95D-07    CP:  1.00D+00  6.88D-01  5.66D-01  7.41D-01  6.72D-01
                    CP:  1.11D+00  9.07D-01  1.09D+00  9.41D-01
 E= -2910.28368850485     Delta-E=       -0.000000046084 Rises=F Damp=F
 DIIS: error= 2.11D-06 at cycle  10 NSaved=  10.
 NSaved=10 IEnMin=10 EnMin= -2910.28368850485     IErMin=10 ErrMin= 2.11D-06
 ErrMax= 2.11D-06  0.00D+00 EMaxC= 1.00D-01 BMatC= 4.98D-09 BMatP= 4.61D-08
 IDIUse=1 WtCom= 1.00D+00 WtEn= 0.00D+00
 Coeff-Com:  0.711D-05 0.920D-04 0.264D-03 0.258D-03-0.127D-02-0.203D-01
 Coeff-Com: -0.200D-01 0.529D-01 0.310D+00 0.679D+00
 Coeff:      0.711D-05 0.920D-04 0.264D-03 0.258D-03-0.127D-02-0.203D-01
 Coeff:     -0.200D-01 0.529D-01 0.310D+00 0.679D+00
 Gap=     0.337 Goal=   None    Shift=    0.000
 RMSDP=1.50D-07 MaxDP=1.50D-05 DE=-4.61D-08 OVMax= 2.25D-05

 Cycle  11  Pass 1  IDiag  1:
 RMSU=  1.03D-07    CP:  1.00D+00  6.88D-01  5.66D-01  7.41D-01  6.72D-01
                    CP:  1.11D+00  9.14D-01  1.11D+00  1.02D+00  9.01D-01
 E= -2910.28368850884     Delta-E=       -0.000000003989 Rises=F Damp=F
 DIIS: error= 7.82D-07 at cycle  11 NSaved=  11.
 NSaved=11 IEnMin=11 EnMin= -2910.28368850884     IErMin=11 ErrMin= 7.82D-07
 ErrMax= 7.82D-07  0.00D+00 EMaxC= 1.00D-01 BMatC= 1.01D-09 BMatP= 4.98D-09
 IDIUse=1 WtCom= 1.00D+00 WtEn= 0.00D+00
 Coeff-Com:  0.150D-05 0.441D-04 0.143D-03 0.251D-03-0.180D-04-0.568D-02
 Coeff-Com: -0.102D-01-0.533D-02 0.719D-01 0.349D+00 0.600D+00
 Coeff:      0.150D-05 0.441D-04 0.143D-03 0.251D-03-0.180D-04-0.568D-02
 Coeff:     -0.102D-01-0.533D-02 0.719D-01 0.349D+00 0.600D+00
 Gap=     0.337 Goal=   None    Shift=    0.000
 RMSDP=5.40D-08 MaxDP=6.30D-06 DE=-3.99D-09 OVMax= 9.40D-06

 Cycle  12  Pass 1  IDiag  1:
 RMSU=  3.59D-08    CP:  1.00D+00  6.88D-01  5.66D-01  7.41D-01  6.72D-01
                    CP:  1.11D+00  9.14D-01  1.12D+00  1.03D+00  9.80D-01
                    CP:  8.29D-01
 E= -2910.28368850940     Delta-E=       -0.000000000560 Rises=F Damp=F
 DIIS: error= 2.62D-07 at cycle  12 NSaved=  12.
 NSaved=12 IEnMin=12 EnMin= -2910.28368850940     IErMin=12 ErrMin= 2.62D-07
 ErrMax= 2.62D-07  0.00D+00 EMaxC= 1.00D-01 BMatC= 8.72D-11 BMatP= 1.01D-09
 IDIUse=1 WtCom= 1.00D+00 WtEn= 0.00D+00
 Coeff-Com: -0.355D-06 0.441D-05 0.239D-04 0.627D-04 0.236D-03 0.748D-03
 Coeff-Com: -0.105D-02-0.995D-02-0.184D-01 0.266D-01 0.212D+00 0.790D+00
 Coeff:     -0.355D-06 0.441D-05 0.239D-04 0.627D-04 0.236D-03 0.748D-03
 Coeff:     -0.105D-02-0.995D-02-0.184D-01 0.266D-01 0.212D+00 0.790D+00
 Gap=     0.337 Goal=   None    Shift=    0.000
 RMSDP=2.17D-08 MaxDP=1.89D-06 DE=-5.60D-10 OVMax= 2.73D-06

 Cycle  13  Pass 1  IDiag  1:
 RMSU=  1.01D-08    CP:  1.00D+00  6.88D-01  5.66D-01  7.41D-01  6.72D-01
                    CP:  1.11D+00  9.14D-01  1.12D+00  1.04D+00  1.01D+00
                    CP:  9.23D-01  9.15D-01
 E= -2910.28368850963     Delta-E=       -0.000000000238 Rises=F Damp=F
 DIIS: error= 7.93D-08 at cycle  13 NSaved=  13.
 NSaved=13 IEnMin=13 EnMin= -2910.28368850963     IErMin=13 ErrMin= 7.93D-08
 ErrMax= 7.93D-08  0.00D+00 EMaxC= 1.00D-01 BMatC= 8.84D-12 BMatP= 8.72D-11
 IDIUse=1 WtCom= 1.00D+00 WtEn= 0.00D+00
 Coeff-Com: -0.255D-06-0.177D-05-0.682D-06 0.450D-05 0.106D-03 0.761D-03
 Coeff-Com:  0.432D-03-0.366D-02-0.136D-01-0.202D-01 0.293D-01 0.298D+00
 Coeff-Com:  0.709D+00
 Coeff:     -0.255D-06-0.177D-05-0.682D-06 0.450D-05 0.106D-03 0.761D-03
 Coeff:      0.432D-03-0.366D-02-0.136D-01-0.202D-01 0.293D-01 0.298D+00
 Coeff:      0.709D+00
 Gap=     0.337 Goal=   None    Shift=    0.000
 RMSDP=6.31D-09 MaxDP=5.12D-07 DE=-2.38D-10 OVMax= 8.21D-07

 Error on total polarization charges =  0.00272
 SCF Done:  E(RCAM-B3LYP) =  -2910.28368851     A.U. after   13 cycles
            NFock= 13  Conv=0.63D-08     -V/T= 2.0074
 KE= 2.888980346081D+03 PE=-1.919216188103D+04 EE= 7.235946767324D+03
 Leave Link  502 at Sun Mar  3 18:01:32 2024, MaxMem=  5368709120 cpu:      1257.7
 (Enter /home/k0335/k033513/app/g09/l601.exe)
 Copying SCF densities to generalized density rwf, IOpCl= 0 IROHF=0.

 **********************************************************************

            Population analysis using the SCF density.

 **********************************************************************

 Alpha  occ. eigenvalues --  -24.84441 -24.84201 -24.83834 -24.83749 -24.83722
 Alpha  occ. eigenvalues --  -24.83508 -24.83473 -24.83406 -24.83316 -24.83282
 Alpha  occ. eigenvalues --  -24.83250 -24.83054 -24.82924 -24.82867 -24.82853
 Alpha  occ. eigenvalues --  -24.82784 -24.82595 -24.82293 -19.33329 -19.33019
 Alpha  occ. eigenvalues --  -19.25048 -19.24361 -19.24339 -19.24099 -14.53788
 Alpha  occ. eigenvalues --  -14.53750 -14.51452 -10.59841 -10.59366 -10.55547
 Alpha  occ. eigenvalues --  -10.55539 -10.54029 -10.53658 -10.49362 -10.49217
 Alpha  occ. eigenvalues --  -10.47420 -10.46472 -10.46431 -10.36885 -10.30880
 Alpha  occ. eigenvalues --   -1.43667  -1.42909  -1.42063  -1.42001  -1.39218
 Alpha  occ. eigenvalues --   -1.39086  -1.35694  -1.35599  -1.34162  -1.33647
 Alpha  occ. eigenvalues --   -1.33365  -1.33245  -1.32996  -1.32858  -1.32338
 Alpha  occ. eigenvalues --   -1.32233  -1.31731  -1.31514  -1.24083  -1.20697
 Alpha  occ. eigenvalues --   -1.20399  -1.18825  -1.18515  -1.13584  -1.10618
 Alpha  occ. eigenvalues --   -1.09151  -1.06815  -0.94020  -0.93193  -0.87067
 Alpha  occ. eigenvalues --   -0.84914  -0.84591  -0.82558  -0.80874  -0.80025
 Alpha  occ. eigenvalues --   -0.79549  -0.77084  -0.76097  -0.75600  -0.74709
 Alpha  occ. eigenvalues --   -0.73584  -0.72983  -0.72134  -0.71795  -0.71412
 Alpha  occ. eigenvalues --   -0.70580  -0.70287  -0.69694  -0.69302  -0.68931
 Alpha  occ. eigenvalues --   -0.68458  -0.68054  -0.67895  -0.67256  -0.65872
 Alpha  occ. eigenvalues --   -0.65315  -0.64826  -0.64006  -0.63357  -0.61042
 Alpha  occ. eigenvalues --   -0.60117  -0.59307  -0.57945  -0.57722  -0.57624
 Alpha  occ. eigenvalues --   -0.57403  -0.57176  -0.57000  -0.56855  -0.56767
 Alpha  occ. eigenvalues --   -0.56579  -0.56343  -0.55946  -0.55437  -0.55225
 Alpha  occ. eigenvalues --   -0.55004  -0.54916  -0.54756  -0.54576  -0.54202
 Alpha  occ. eigenvalues --   -0.53920  -0.53581  -0.53375  -0.53086  -0.53035
 Alpha  occ. eigenvalues --   -0.52520  -0.52394  -0.52078  -0.51734  -0.51681
 Alpha  occ. eigenvalues --   -0.51355  -0.51134  -0.50946  -0.50810  -0.50611
 Alpha  occ. eigenvalues --   -0.50351  -0.50101  -0.49792  -0.49703  -0.49353
 Alpha  occ. eigenvalues --   -0.49217  -0.49053  -0.48715  -0.48636  -0.47996
 Alpha  occ. eigenvalues --   -0.47722  -0.45847  -0.44823  -0.44158  -0.41371
 Alpha  occ. eigenvalues --   -0.41045  -0.39733  -0.39276  -0.39073  -0.38003
 Alpha  occ. eigenvalues --   -0.36645  -0.33782
 Alpha virt. eigenvalues --   -0.00050   0.00036   0.04898   0.05600   0.06475
 Alpha virt. eigenvalues --    0.07657   0.09459   0.12963   0.14072   0.15078
 Alpha virt. eigenvalues --    0.15927   0.16896   0.18537   0.18857   0.19279
 Alpha virt. eigenvalues --    0.19612   0.19793   0.20643   0.21436   0.21799
 Alpha virt. eigenvalues --    0.22202   0.22594   0.22709   0.22904   0.23080
 Alpha virt. eigenvalues --    0.23146   0.23680   0.24118   0.24329   0.24354
 Alpha virt. eigenvalues --    0.25049   0.25607   0.26046   0.27098   0.27436
 Alpha virt. eigenvalues --    0.28721   0.29001   0.29534   0.31083   0.31436
 Alpha virt. eigenvalues --    0.32765   0.33103   0.36988   0.38094   0.38437
 Alpha virt. eigenvalues --    0.38530   0.39802   0.45148   0.46749   0.48004
 Alpha virt. eigenvalues --    0.48920   0.49689   0.50878   0.51155   0.51401
 Alpha virt. eigenvalues --    0.52106   0.53196   0.53548   0.53973   0.54285
 Alpha virt. eigenvalues --    0.54504   0.54801   0.55251   0.56136   0.56528
 Alpha virt. eigenvalues --    0.56721   0.57833   0.58564   0.59698   0.60804
 Alpha virt. eigenvalues --    0.60909   0.61476   0.61901   0.62255   0.63031
 Alpha virt. eigenvalues --    0.64611   0.65446   0.67059   0.67406   0.68219
 Alpha virt. eigenvalues --    0.69393   0.71459   0.72697   0.74662   0.77039
 Alpha virt. eigenvalues --    0.77235   0.78304   0.78832   0.80500   0.82106
 Alpha virt. eigenvalues --    0.83231   0.84155   0.84555   0.85612   0.86697
 Alpha virt. eigenvalues --    0.87462   0.87987   0.88566   0.89572   0.90560
 Alpha virt. eigenvalues --    0.91276   0.91641   0.91793   0.92858   0.94651
 Alpha virt. eigenvalues --    0.96317   0.97493   0.98086   0.98738   1.00032
 Alpha virt. eigenvalues --    1.00352   1.01259   1.02596   1.03509   1.04558
 Alpha virt. eigenvalues --    1.05005   1.06355   1.06670   1.07709   1.08240
 Alpha virt. eigenvalues --    1.09188   1.09760   1.10134   1.11032   1.11450
 Alpha virt. eigenvalues --    1.12380   1.12827   1.13802   1.14304   1.15107
 Alpha virt. eigenvalues --    1.15471   1.15755   1.16471   1.16587   1.17052
 Alpha virt. eigenvalues --    1.17708   1.18771   1.19105   1.19616   1.20644
 Alpha virt. eigenvalues --    1.20747   1.21941   1.22151   1.22705   1.23266
 Alpha virt. eigenvalues --    1.24613   1.25868   1.25902   1.27466   1.28544
 Alpha virt. eigenvalues --    1.29479   1.30039   1.30081   1.31423   1.31780
 Alpha virt. eigenvalues --    1.32413   1.33244   1.33672   1.34613   1.34916
 Alpha virt. eigenvalues --    1.35036   1.35803   1.36091   1.36501   1.37164
 Alpha virt. eigenvalues --    1.37852   1.38393   1.39025   1.39345   1.39748
 Alpha virt. eigenvalues --    1.40254   1.40681   1.41122   1.41189   1.41424
 Alpha virt. eigenvalues --    1.41803   1.42393   1.42878   1.43333   1.43952
 Alpha virt. eigenvalues --    1.45015   1.46088   1.46584   1.47390   1.47460
 Alpha virt. eigenvalues --    1.48424   1.49059   1.49800   1.50846   1.51192
 Alpha virt. eigenvalues --    1.51274   1.52603   1.52770   1.53516   1.54210
 Alpha virt. eigenvalues --    1.55294   1.55579   1.55800   1.56039   1.58307
 Alpha virt. eigenvalues --    1.58741   1.59360   1.60261   1.61301   1.61837
 Alpha virt. eigenvalues --    1.62626   1.63164   1.64647   1.65116   1.66018
 Alpha virt. eigenvalues --    1.67567   1.68353   1.68408   1.69576   1.69858
 Alpha virt. eigenvalues --    1.70246   1.71757   1.72120   1.72869   1.73389
 Alpha virt. eigenvalues --    1.74214   1.74586   1.75425   1.75607   1.76743
 Alpha virt. eigenvalues --    1.77246   1.78298   1.78706   1.79845   1.80396
 Alpha virt. eigenvalues --    1.81261   1.81855   1.82440   1.82804   1.83614
 Alpha virt. eigenvalues --    1.84028   1.84403   1.84990   1.85238   1.85701
 Alpha virt. eigenvalues --    1.86384   1.86578   1.87344   1.87799   1.87814
 Alpha virt. eigenvalues --    1.88067   1.88844   1.89463   1.89842   1.89977
 Alpha virt. eigenvalues --    1.90388   1.90694   1.91325   1.91777   1.92179
 Alpha virt. eigenvalues --    1.92610   1.92921   1.93733   1.94003   1.94476
 Alpha virt. eigenvalues --    1.94731   1.95684   1.96340   1.96734   1.97057
 Alpha virt. eigenvalues --    1.97872   1.98135   1.98728   1.99194   1.99597
 Alpha virt. eigenvalues --    2.00021   2.00827   2.00895   2.01512   2.01942
 Alpha virt. eigenvalues --    2.02122   2.02413   2.02570   2.03012   2.03099
 Alpha virt. eigenvalues --    2.03305   2.03718   2.03986   2.04409   2.04832
 Alpha virt. eigenvalues --    2.04969   2.05135   2.06142   2.06563   2.07038
 Alpha virt. eigenvalues --    2.07714   2.07864   2.08341   2.09077   2.09411
 Alpha virt. eigenvalues --    2.09858   2.10385   2.10589   2.11017   2.11810
 Alpha virt. eigenvalues --    2.11818   2.12623   2.12891   2.14222   2.14840
 Alpha virt. eigenvalues --    2.16140   2.16485   2.16837   2.17651   2.18961
 Alpha virt. eigenvalues --    2.19399   2.19701   2.20513   2.21756   2.22016
 Alpha virt. eigenvalues --    2.22126   2.22986   2.23226   2.24782   2.25500
 Alpha virt. eigenvalues --    2.26809   2.28004   2.29215   2.29771   2.30657
 Alpha virt. eigenvalues --    2.30926   2.32146   2.33519   2.34738   2.35697
 Alpha virt. eigenvalues --    2.35975   2.36651   2.37308   2.39003   2.41261
 Alpha virt. eigenvalues --    2.41403   2.42551   2.44478   2.44934   2.45618
 Alpha virt. eigenvalues --    2.46697   2.47462   2.47816   2.50033   2.50658
 Alpha virt. eigenvalues --    2.52691   2.53161   2.54515   2.55277   2.56547
 Alpha virt. eigenvalues --    2.57796   2.58496   2.60782   2.61412   2.62372
 Alpha virt. eigenvalues --    2.63021   2.63492   2.64100   2.65079   2.65813
 Alpha virt. eigenvalues --    2.66603   2.67259   2.67978   2.70313   2.71034
 Alpha virt. eigenvalues --    2.71512   2.73011   2.73955   2.75620   2.76991
 Alpha virt. eigenvalues --    2.78089   2.78641   2.79321   2.80975   2.83294
 Alpha virt. eigenvalues --    2.83633   2.84766   2.85333   2.86521   2.87169
 Alpha virt. eigenvalues --    2.87988   2.88405   2.89176   2.91091   2.91467
 Alpha virt. eigenvalues --    2.92081   2.92362   2.94042   2.94640   2.95565
 Alpha virt. eigenvalues --    2.96400   2.97484   2.98262   3.00038   3.01806
 Alpha virt. eigenvalues --    3.03259   3.03896   3.05199   3.05295   3.06018
 Alpha virt. eigenvalues --    3.06676   3.06985   3.09236   3.09617   3.10832
 Alpha virt. eigenvalues --    3.11576   3.12507   3.14712   3.15796   3.17815
 Alpha virt. eigenvalues --    3.18476   3.20459   3.21392   3.23734   3.24355
 Alpha virt. eigenvalues --    3.25944   3.26936   3.29685   3.29939   3.31347
 Alpha virt. eigenvalues --    3.32992   3.37351   3.37910   3.45799   3.46479
 Alpha virt. eigenvalues --    3.50513   3.54383   3.55121   3.98336   4.01135
 Alpha virt. eigenvalues --    4.02300   4.16458   4.18749   4.20274   4.25919
 Alpha virt. eigenvalues --    4.29508   4.34421   4.35465   4.38697   4.41453
 Alpha virt. eigenvalues --    4.43092   4.46216   4.49867   4.50737   4.55958
 Alpha virt. eigenvalues --    4.57736   4.58911   4.63822   4.68305   4.74021
 Alpha virt. eigenvalues --    4.76119   4.77508   4.87728   4.97775   5.01958
 Alpha virt. eigenvalues --    5.02585   5.12891   5.18516   5.37203   5.45989
 Alpha virt. eigenvalues --    5.53138   5.68760   5.76111   5.89799   6.19747
 Alpha virt. eigenvalues --    6.25196   6.38053   6.72799
          Condensed to atoms (all electrons):
               1          2          3          4          5          6
     1  C    4.709064   0.249887  -0.039949   0.004516  -0.000030   0.000011
     2  O    0.249887   8.240446   0.255201  -0.068666   0.006373  -0.000701
     3  C   -0.039949   0.255201   4.598512   0.274227  -0.020201  -0.001288
     4  N    0.004516  -0.068666   0.274227   7.378679   0.218540  -0.085221
     5  C   -0.000030   0.006373  -0.020201   0.218540   4.210718   0.565703
     6  O    0.000011  -0.000701  -0.001288  -0.085221   0.565703   8.100017
     7  N    0.000003  -0.000139   0.002545  -0.093116   0.193157  -0.089232
     8  C    0.000000   0.000001  -0.000041   0.001064  -0.007124   0.014656
     9  F    0.000000   0.000000   0.000000  -0.000034   0.000398   0.000020
    10  F    0.000000   0.000000   0.000005   0.000053   0.006464  -0.013823
    11  C    0.000000   0.000000   0.000002  -0.000119  -0.000366  -0.004762
    12  F    0.000000   0.000000   0.000000  -0.000006  -0.000247   0.000020
    13  O    0.000000   0.000000   0.000000   0.000000   0.000028   0.000001
    14  C    0.000000   0.000000   0.000000   0.000000   0.000003   0.000002
    15  F    0.000000   0.000000   0.000000   0.000000   0.000000   0.000000
    16  F    0.000000   0.000000   0.000000   0.000000   0.000000   0.000000
    17  F    0.000000   0.000000   0.000000   0.000000   0.000009   0.000000
    18  C    0.000000   0.000000  -0.000001  -0.000018   0.000929   0.007370
    19  F    0.000000   0.000000   0.000000   0.000000   0.000006  -0.000001
    20  F    0.000000   0.000000   0.000017  -0.000500   0.014841  -0.009092
    21  F    0.000000   0.000000   0.000000  -0.000002  -0.000395   0.000039
    22  C   -0.000001   0.000053   0.000319  -0.001157  -0.011754   0.000108
    23  O    0.000000   0.000000   0.000002   0.000168   0.000033  -0.000029
    24  N    0.000003  -0.000146   0.002543  -0.093923  -0.000136   0.000137
    25  C    0.000000   0.000001  -0.000036   0.001351   0.000402   0.000002
    26  F    0.000000   0.000000   0.000000  -0.000031   0.000007   0.000000
    27  F    0.000000   0.000000   0.000004   0.000059   0.000006   0.000000
    28  C    0.000000   0.000000   0.000001  -0.000074   0.000028   0.000000
    29  F    0.000000   0.000000   0.000000   0.000001   0.000001   0.000000
    30  O    0.000000   0.000000   0.000000   0.000000   0.000000   0.000000
    31  C    0.000000   0.000000   0.000000   0.000000   0.000000   0.000000
    32  F    0.000000   0.000000   0.000000   0.000000   0.000000   0.000000
    33  F    0.000000   0.000000   0.000000   0.000000   0.000000   0.000000
    34  F    0.000000   0.000000   0.000000   0.000000   0.000000   0.000000
    35  C    0.000000   0.000000  -0.000001  -0.000174   0.000007   0.000000
    36  F    0.000000   0.000000   0.000000   0.000000   0.000000   0.000000
    37  F    0.000000   0.000000   0.000002  -0.001458   0.000289   0.000000
    38  F    0.000000   0.000000   0.000000  -0.000004   0.000000   0.000000
    39  C   -0.000038   0.006954  -0.020799   0.219589  -0.023216   0.000459
    40  O    0.000011  -0.000719  -0.001692  -0.085295   0.000420  -0.000020
    41  H    0.398224  -0.029152   0.004835  -0.000172  -0.000011   0.000001
    42  H    0.382947  -0.037923  -0.008103   0.000002   0.000070  -0.000002
    43  H    0.383005  -0.037891  -0.008195  -0.000003  -0.000131  -0.000007
    44  H   -0.002278  -0.042199   0.377393  -0.032349   0.006654   0.000430
    45  H   -0.002299  -0.042032   0.377162  -0.032271  -0.009544   0.010838
               7          8          9         10         11         12
     1  C    0.000003   0.000000   0.000000   0.000000   0.000000   0.000000
     2  O   -0.000139   0.000001   0.000000   0.000000   0.000000   0.000000
     3  C    0.002545  -0.000041   0.000000   0.000005   0.000002   0.000000
     4  N   -0.093116   0.001064  -0.000034   0.000053  -0.000119  -0.000006
     5  C    0.193157  -0.007124   0.000398   0.006464  -0.000366  -0.000247
     6  O   -0.089232   0.014656   0.000020  -0.013823  -0.004762   0.000020
     7  N    7.568146   0.179705  -0.043160  -0.035228  -0.068216  -0.001580
     8  C    0.179705   4.431677   0.260034   0.260675   0.189420  -0.027334
     9  F   -0.043160   0.260034   9.119666  -0.041895  -0.024009  -0.000075
    10  F   -0.035228   0.260675  -0.041895   9.100582  -0.035868   0.000311
    11  C   -0.068216   0.189420  -0.024009  -0.035868   4.987996   0.250853
    12  F   -0.001580  -0.027334  -0.000075   0.000311   0.250853   9.102329
    13  O    0.001914  -0.034189  -0.002617   0.000156   0.172613  -0.042566
    14  C    0.000256  -0.005556   0.003207   0.002582  -0.002076   0.000245
    15  F    0.000000  -0.000138  -0.000013   0.000000   0.001315  -0.000002
    16  F   -0.000001  -0.000466   0.000001  -0.000015  -0.007138  -0.000002
    17  F    0.000066   0.014125  -0.001276  -0.007788   0.002566  -0.000001
    18  C   -0.001306  -0.043768   0.001799   0.009811   0.181067  -0.013850
    19  F   -0.000012   0.001808  -0.000001   0.000000  -0.019280  -0.000809
    20  F   -0.001275   0.000191   0.000000  -0.000339  -0.024604  -0.001169
    21  F   -0.000188   0.002684  -0.000002  -0.001547  -0.034899   0.000309
    22  C    0.204040  -0.015153   0.009163   0.000694  -0.001785   0.011665
    23  O   -0.085287   0.010719  -0.009850   0.000008   0.001549  -0.005723
    24  N   -0.091334   0.001924   0.000035  -0.000023  -0.000135  -0.000165
    25  C    0.001425  -0.000029   0.000008   0.000000   0.000000   0.000013
    26  F   -0.000045   0.000008   0.000000   0.000000   0.000000   0.000000
    27  F   -0.000022   0.000000   0.000000   0.000000   0.000000   0.000000
    28  C   -0.000232   0.000001   0.000000   0.000000   0.000000  -0.000010
    29  F    0.000019   0.000005   0.000000   0.000000  -0.000002  -0.000001
    30  O    0.000000   0.000000   0.000000   0.000000   0.000000   0.000000
    31  C    0.000000   0.000000   0.000000   0.000000   0.000000   0.000000
    32  F    0.000000   0.000000   0.000000   0.000000   0.000000   0.000000
    33  F    0.000000   0.000000   0.000000   0.000000   0.000000   0.000000
    34  F    0.000000   0.000000   0.000000   0.000000   0.000000   0.000000
    35  C    0.000008   0.000000   0.000000   0.000000   0.000000   0.000002
    36  F    0.000000   0.000000   0.000000   0.000000   0.000000   0.000000
    37  F   -0.000199   0.000000   0.000000   0.000000   0.000000   0.000000
    38  F    0.000000   0.000000   0.000000   0.000000   0.000000   0.000000
    39  C   -0.001882   0.000285   0.000008   0.000006   0.000040   0.000016
    40  O    0.000168   0.000002   0.000000   0.000000   0.000000   0.000000
    41  H    0.000000   0.000000   0.000000   0.000000   0.000000   0.000000
    42  H    0.000000   0.000000   0.000000   0.000000   0.000000   0.000000
    43  H    0.000000   0.000000   0.000000   0.000000   0.000000   0.000000
    44  H   -0.000087   0.000002   0.000000   0.000000   0.000000   0.000000
    45  H    0.000518  -0.000001   0.000000   0.000003   0.000000   0.000000
              13         14         15         16         17         18
     1  C    0.000000   0.000000   0.000000   0.000000   0.000000   0.000000
     2  O    0.000000   0.000000   0.000000   0.000000   0.000000   0.000000
     3  C    0.000000   0.000000   0.000000   0.000000   0.000000  -0.000001
     4  N    0.000000   0.000000   0.000000   0.000000   0.000000  -0.000018
     5  C    0.000028   0.000003   0.000000   0.000000   0.000009   0.000929
     6  O    0.000001   0.000002   0.000000   0.000000   0.000000   0.007370
     7  N    0.001914   0.000256   0.000000  -0.000001   0.000066  -0.001306
     8  C   -0.034189  -0.005556  -0.000138  -0.000466   0.014125  -0.043768
     9  F   -0.002617   0.003207  -0.000013   0.000001  -0.001276   0.001799
    10  F    0.000156   0.002582   0.000000  -0.000015  -0.007788   0.009811
    11  C    0.172613  -0.002076   0.001315  -0.007138   0.002566   0.181067
    12  F   -0.042566   0.000245  -0.000002  -0.000002  -0.000001  -0.013850
    13  O    8.326361   0.237750  -0.038223  -0.047444  -0.047181  -0.030832
    14  C    0.237750   3.841488   0.336257   0.301559   0.299412  -0.005055
    15  F   -0.038223   0.336257   9.011798  -0.037738  -0.037003  -0.000087
    16  F   -0.047444   0.301559  -0.037738   9.055187  -0.035051   0.017865
    17  F   -0.047181   0.299412  -0.037003  -0.035051   9.050724  -0.003914
    18  C   -0.030832  -0.005055  -0.000087   0.017865  -0.003914   4.254937
    19  F   -0.000510   0.000212  -0.000001  -0.001387   0.000010   0.272075
    20  F    0.000592   0.000089   0.000000   0.000000   0.000000   0.276111
    21  F   -0.000915   0.011347   0.000000  -0.005310  -0.000129   0.257398
    22  C    0.000134   0.000000   0.000000   0.000000   0.000005   0.000213
    23  O   -0.000185   0.000006   0.000000   0.000000   0.000000   0.000128
    24  N    0.000000   0.000000   0.000000   0.000000   0.000000   0.000019
    25  C    0.000000   0.000000   0.000000   0.000000   0.000000   0.000000
    26  F    0.000000   0.000000   0.000000   0.000000   0.000000   0.000000
    27  F    0.000000   0.000000   0.000000   0.000000   0.000000   0.000000
    28  C    0.000000   0.000000   0.000000   0.000000   0.000000   0.000000
    29  F    0.000000   0.000000   0.000000   0.000000   0.000000   0.000000
    30  O    0.000000   0.000000   0.000000   0.000000   0.000000   0.000000
    31  C    0.000000   0.000000   0.000000   0.000000   0.000000   0.000000
    32  F    0.000000   0.000000   0.000000   0.000000   0.000000   0.000000
    33  F    0.000000   0.000000   0.000000   0.000000   0.000000   0.000000
    34  F    0.000000   0.000000   0.000000   0.000000   0.000000   0.000000
    35  C    0.000000   0.000000   0.000000   0.000000   0.000000   0.000000
    36  F    0.000000   0.000000   0.000000   0.000000   0.000000   0.000000
    37  F    0.000000   0.000000   0.000000   0.000000   0.000000   0.000000
    38  F    0.000000   0.000000   0.000000   0.000000   0.000000   0.000000
    39  C    0.000000   0.000000   0.000000   0.000000   0.000000  -0.000005
    40  O    0.000000   0.000000   0.000000   0.000000   0.000000   0.000000
    41  H    0.000000   0.000000   0.000000   0.000000   0.000000   0.000000
    42  H    0.000000   0.000000   0.000000   0.000000   0.000000   0.000000
    43  H    0.000000   0.000000   0.000000   0.000000   0.000000   0.000000
    44  H    0.000000   0.000000   0.000000   0.000000   0.000000   0.000000
    45  H    0.000000   0.000000   0.000000   0.000000   0.000000   0.000002
              19         20         21         22         23         24
     1  C    0.000000   0.000000   0.000000  -0.000001   0.000000   0.000003
     2  O    0.000000   0.000000   0.000000   0.000053   0.000000  -0.000146
     3  C    0.000000   0.000017   0.000000   0.000319   0.000002   0.002543
     4  N    0.000000  -0.000500  -0.000002  -0.001157   0.000168  -0.093923
     5  C    0.000006   0.014841  -0.000395  -0.011754   0.000033  -0.000136
     6  O   -0.000001  -0.009092   0.000039   0.000108  -0.000029   0.000137
     7  N   -0.000012  -0.001275  -0.000188   0.204040  -0.085287  -0.091334
     8  C    0.001808   0.000191   0.002684  -0.015153   0.010719   0.001924
     9  F   -0.000001   0.000000  -0.000002   0.009163  -0.009850   0.000035
    10  F    0.000000  -0.000339  -0.001547   0.000694   0.000008  -0.000023
    11  C   -0.019280  -0.024604  -0.034899  -0.001785   0.001549  -0.000135
    12  F   -0.000809  -0.001169   0.000309   0.011665  -0.005723  -0.000165
    13  O   -0.000510   0.000592  -0.000915   0.000134  -0.000185   0.000000
    14  C    0.000212   0.000089   0.011347   0.000000   0.000006   0.000000
    15  F   -0.000001   0.000000   0.000000   0.000000   0.000000   0.000000
    16  F   -0.001387   0.000000  -0.005310   0.000000   0.000000   0.000000
    17  F    0.000010   0.000000  -0.000129   0.000005   0.000000   0.000000
    18  C    0.272075   0.276111   0.257398   0.000213   0.000128   0.000019
    19  F    9.082450  -0.039035  -0.036986   0.000000   0.000000   0.000000
    20  F   -0.039035   9.064143  -0.034731  -0.000064   0.000001  -0.000006
    21  F   -0.036986  -0.034731   9.086222   0.000002   0.000000   0.000000
    22  C    0.000000  -0.000064   0.000002   4.203018   0.549112   0.199482
    23  O    0.000000   0.000001   0.000000   0.549112   8.105505  -0.089414
    24  N    0.000000  -0.000006   0.000000   0.199482  -0.089414   7.616948
    25  C    0.000000   0.000000   0.000000  -0.013014   0.014524   0.155417
    26  F    0.000000   0.000000   0.000000   0.008339  -0.007477  -0.048567
    27  F    0.000000   0.000000   0.000000   0.000712   0.000011  -0.038868
    28  C    0.000000   0.000000   0.000000  -0.002430  -0.000748  -0.056802
    29  F    0.000000   0.000000   0.000000   0.006674  -0.005584   0.000352
    30  O    0.000000   0.000000   0.000000   0.000135  -0.000006   0.001686
    31  C    0.000000   0.000000   0.000000  -0.000042  -0.000035   0.000282
    32  F    0.000000   0.000000   0.000000   0.000000   0.000000   0.000000
    33  F    0.000000   0.000000   0.000000  -0.000001   0.000062  -0.000039
    34  F    0.000000   0.000000   0.000000   0.000008   0.000000   0.000037
    35  C    0.000000   0.000000   0.000000  -0.000344  -0.000366  -0.003367
    36  F    0.000000   0.000000   0.000000   0.000006   0.000000  -0.000014
    37  F    0.000000   0.000000   0.000000   0.004521  -0.000101  -0.004641
    38  F    0.000000   0.000000   0.000000   0.000043   0.000000  -0.000777
    39  C    0.000000   0.000019   0.000000  -0.006609   0.000189   0.186315
    40  O    0.000000   0.000000   0.000000   0.000086  -0.000029  -0.088696
    41  H    0.000000   0.000000   0.000000   0.000000   0.000000   0.000000
    42  H    0.000000   0.000000   0.000000   0.000000   0.000000   0.000000
    43  H    0.000000   0.000000   0.000000   0.000000   0.000000   0.000000
    44  H    0.000000   0.000000   0.000000  -0.000025   0.000000   0.000535
    45  H    0.000000  -0.000004   0.000000  -0.000020   0.000000  -0.000092
              25         26         27         28         29         30
     1  C    0.000000   0.000000   0.000000   0.000000   0.000000   0.000000
     2  O    0.000001   0.000000   0.000000   0.000000   0.000000   0.000000
     3  C   -0.000036   0.000000   0.000004   0.000001   0.000000   0.000000
     4  N    0.001351  -0.000031   0.000059  -0.000074   0.000001   0.000000
     5  C    0.000402   0.000007   0.000006   0.000028   0.000001   0.000000
     6  O    0.000002   0.000000   0.000000   0.000000   0.000000   0.000000
     7  N    0.001425  -0.000045  -0.000022  -0.000232   0.000019   0.000000
     8  C   -0.000029   0.000008   0.000000   0.000001   0.000005   0.000000
     9  F    0.000008   0.000000   0.000000   0.000000   0.000000   0.000000
    10  F    0.000000   0.000000   0.000000   0.000000   0.000000   0.000000
    11  C    0.000000   0.000000   0.000000   0.000000  -0.000002   0.000000
    12  F    0.000013   0.000000   0.000000  -0.000010  -0.000001   0.000000
    13  O    0.000000   0.000000   0.000000   0.000000   0.000000   0.000000
    14  C    0.000000   0.000000   0.000000   0.000000   0.000000   0.000000
    15  F    0.000000   0.000000   0.000000   0.000000   0.000000   0.000000
    16  F    0.000000   0.000000   0.000000   0.000000   0.000000   0.000000
    17  F    0.000000   0.000000   0.000000   0.000000   0.000000   0.000000
    18  C    0.000000   0.000000   0.000000   0.000000   0.000000   0.000000
    19  F    0.000000   0.000000   0.000000   0.000000   0.000000   0.000000
    20  F    0.000000   0.000000   0.000000   0.000000   0.000000   0.000000
    21  F    0.000000   0.000000   0.000000   0.000000   0.000000   0.000000
    22  C   -0.013014   0.008339   0.000712  -0.002430   0.006674   0.000135
    23  O    0.014524  -0.007477   0.000011  -0.000748  -0.005584  -0.000006
    24  N    0.155417  -0.048567  -0.038868  -0.056802   0.000352   0.001686
    25  C    4.456325   0.252608   0.273503   0.173789  -0.028095  -0.028217
    26  F    0.252608   9.125290  -0.042131  -0.023493   0.000262  -0.001792
    27  F    0.273503  -0.042131   9.087782  -0.031631   0.000299   0.000102
    28  C    0.173789  -0.023493  -0.031631   4.997853   0.227255   0.152479
    29  F   -0.028095   0.000262   0.000299   0.227255   9.115634  -0.050293
    30  O   -0.028217  -0.001792   0.000102   0.152479  -0.050293   8.358322
    31  C   -0.003297   0.012342  -0.000311  -0.001076   0.000269   0.233159
    32  F   -0.000037  -0.000005   0.000000   0.000784  -0.000024  -0.039411
    33  F   -0.005589  -0.002106   0.000013   0.015151  -0.002844  -0.044999
    34  F    0.017168  -0.008149  -0.000410  -0.009968  -0.000019  -0.047185
    35  C   -0.038066   0.001292   0.002206   0.223989  -0.010322  -0.020124
    36  F    0.001572  -0.000001  -0.000001  -0.026449  -0.000853   0.000210
    37  F   -0.006546   0.000002  -0.000077  -0.026726  -0.000713   0.000620
    38  F    0.005818   0.000001   0.000325  -0.042167   0.000309   0.000744
    39  C   -0.007440   0.000512   0.007728  -0.002051  -0.000135   0.000035
    40  O    0.012143   0.000016  -0.014242  -0.004568   0.000004   0.000006
    41  H    0.000000   0.000000   0.000000   0.000000   0.000000   0.000000
    42  H    0.000000   0.000000   0.000000   0.000000   0.000000   0.000000
    43  H    0.000000   0.000000   0.000000   0.000000   0.000000   0.000000
    44  H    0.000000   0.000000   0.000003   0.000000   0.000000   0.000000
    45  H    0.000001   0.000000   0.000000   0.000000   0.000000   0.000000
              31         32         33         34         35         36
     1  C    0.000000   0.000000   0.000000   0.000000   0.000000   0.000000
     2  O    0.000000   0.000000   0.000000   0.000000   0.000000   0.000000
     3  C    0.000000   0.000000   0.000000   0.000000  -0.000001   0.000000
     4  N    0.000000   0.000000   0.000000   0.000000  -0.000174   0.000000
     5  C    0.000000   0.000000   0.000000   0.000000   0.000007   0.000000
     6  O    0.000000   0.000000   0.000000   0.000000   0.000000   0.000000
     7  N    0.000000   0.000000   0.000000   0.000000   0.000008   0.000000
     8  C    0.000000   0.000000   0.000000   0.000000   0.000000   0.000000
     9  F    0.000000   0.000000   0.000000   0.000000   0.000000   0.000000
    10  F    0.000000   0.000000   0.000000   0.000000   0.000000   0.000000
    11  C    0.000000   0.000000   0.000000   0.000000   0.000000   0.000000
    12  F    0.000000   0.000000   0.000000   0.000000   0.000002   0.000000
    13  O    0.000000   0.000000   0.000000   0.000000   0.000000   0.000000
    14  C    0.000000   0.000000   0.000000   0.000000   0.000000   0.000000
    15  F    0.000000   0.000000   0.000000   0.000000   0.000000   0.000000
    16  F    0.000000   0.000000   0.000000   0.000000   0.000000   0.000000
    17  F    0.000000   0.000000   0.000000   0.000000   0.000000   0.000000
    18  C    0.000000   0.000000   0.000000   0.000000   0.000000   0.000000
    19  F    0.000000   0.000000   0.000000   0.000000   0.000000   0.000000
    20  F    0.000000   0.000000   0.000000   0.000000   0.000000   0.000000
    21  F    0.000000   0.000000   0.000000   0.000000   0.000000   0.000000
    22  C   -0.000042   0.000000  -0.000001   0.000008  -0.000344   0.000006
    23  O   -0.000035   0.000000   0.000062   0.000000  -0.000366   0.000000
    24  N    0.000282   0.000000  -0.000039   0.000037  -0.003367  -0.000014
    25  C   -0.003297  -0.000037  -0.005589   0.017168  -0.038066   0.001572
    26  F    0.012342  -0.000005  -0.002106  -0.008149   0.001292  -0.000001
    27  F   -0.000311   0.000000   0.000013  -0.000410   0.002206  -0.000001
    28  C   -0.001076   0.000784   0.015151  -0.009968   0.223989  -0.026449
    29  F    0.000269  -0.000024  -0.002844  -0.000019  -0.010322  -0.000853
    30  O    0.233159  -0.039411  -0.044999  -0.047185  -0.020124   0.000210
    31  C    3.819376   0.338097   0.296816   0.303608   0.001061   0.000004
    32  F    0.338097   9.016215  -0.036585  -0.037963  -0.000045   0.000000
    33  F    0.296816  -0.036585   9.053713  -0.033629   0.000259   0.000000
    34  F    0.303608  -0.037963  -0.033629   9.061398  -0.000130   0.000000
    35  C    0.001061  -0.000045   0.000259  -0.000130   4.172764   0.298814
    36  F    0.000004   0.000000   0.000000   0.000000   0.298814   9.057915
    37  F    0.000005   0.000000   0.000000   0.000000   0.269466  -0.039154
    38  F   -0.000032   0.000000   0.000000   0.000001   0.285306  -0.039881
    39  C    0.000002   0.000000  -0.000001   0.000003   0.002666   0.000006
    40  O    0.000000   0.000000   0.000000   0.000000   0.007009  -0.000001
    41  H    0.000000   0.000000   0.000000   0.000000   0.000000   0.000000
    42  H    0.000000   0.000000   0.000000   0.000000   0.000000   0.000000
    43  H    0.000000   0.000000   0.000000   0.000000   0.000000   0.000000
    44  H    0.000000   0.000000   0.000000   0.000000   0.000001   0.000000
    45  H    0.000000   0.000000   0.000000   0.000000   0.000000   0.000000
              37         38         39         40         41         42
     1  C    0.000000   0.000000  -0.000038   0.000011   0.398224   0.382947
     2  O    0.000000   0.000000   0.006954  -0.000719  -0.029152  -0.037923
     3  C    0.000002   0.000000  -0.020799  -0.001692   0.004835  -0.008103
     4  N   -0.001458  -0.000004   0.219589  -0.085295  -0.000172   0.000002
     5  C    0.000289   0.000000  -0.023216   0.000420  -0.000011   0.000070
     6  O    0.000000   0.000000   0.000459  -0.000020   0.000001  -0.000002
     7  N   -0.000199   0.000000  -0.001882   0.000168   0.000000   0.000000
     8  C    0.000000   0.000000   0.000285   0.000002   0.000000   0.000000
     9  F    0.000000   0.000000   0.000008   0.000000   0.000000   0.000000
    10  F    0.000000   0.000000   0.000006   0.000000   0.000000   0.000000
    11  C    0.000000   0.000000   0.000040   0.000000   0.000000   0.000000
    12  F    0.000000   0.000000   0.000016   0.000000   0.000000   0.000000
    13  O    0.000000   0.000000   0.000000   0.000000   0.000000   0.000000
    14  C    0.000000   0.000000   0.000000   0.000000   0.000000   0.000000
    15  F    0.000000   0.000000   0.000000   0.000000   0.000000   0.000000
    16  F    0.000000   0.000000   0.000000   0.000000   0.000000   0.000000
    17  F    0.000000   0.000000   0.000000   0.000000   0.000000   0.000000
    18  C    0.000000   0.000000  -0.000005   0.000000   0.000000   0.000000
    19  F    0.000000   0.000000   0.000000   0.000000   0.000000   0.000000
    20  F    0.000000   0.000000   0.000019   0.000000   0.000000   0.000000
    21  F    0.000000   0.000000   0.000000   0.000000   0.000000   0.000000
    22  C    0.004521   0.000043  -0.006609   0.000086   0.000000   0.000000
    23  O   -0.000101   0.000000   0.000189  -0.000029   0.000000   0.000000
    24  N   -0.004641  -0.000777   0.186315  -0.088696   0.000000   0.000000
    25  C   -0.006546   0.005818  -0.007440   0.012143   0.000000   0.000000
    26  F    0.000002   0.000001   0.000512   0.000016   0.000000   0.000000
    27  F   -0.000077   0.000325   0.007728  -0.014242   0.000000   0.000000
    28  C   -0.026726  -0.042167  -0.002051  -0.004568   0.000000   0.000000
    29  F   -0.000713   0.000309  -0.000135   0.000004   0.000000   0.000000
    30  O    0.000620   0.000744   0.000035   0.000006   0.000000   0.000000
    31  C    0.000005  -0.000032   0.000002   0.000000   0.000000   0.000000
    32  F    0.000000   0.000000   0.000000   0.000000   0.000000   0.000000
    33  F    0.000000   0.000000  -0.000001   0.000000   0.000000   0.000000
    34  F    0.000000   0.000001   0.000003   0.000000   0.000000   0.000000
    35  C    0.269466   0.285306   0.002666   0.007009   0.000000   0.000000
    36  F   -0.039154  -0.039881   0.000006  -0.000001   0.000000   0.000000
    37  F    9.083646  -0.035460   0.015918  -0.004117   0.000000   0.000000
    38  F   -0.035460   9.061090   0.000050  -0.001094   0.000000   0.000000
    39  C    0.015918   0.000050   4.211363   0.569728  -0.000012  -0.000136
    40  O   -0.004117  -0.001094   0.569728   8.094020   0.000001  -0.000007
    41  H    0.000000   0.000000  -0.000012   0.000001   0.553146  -0.031516
    42  H    0.000000   0.000000  -0.000136  -0.000007  -0.031516   0.615037
    43  H    0.000000   0.000000   0.000073  -0.000002  -0.031512  -0.044899
    44  H   -0.000006  -0.000001  -0.009807   0.011134  -0.000190   0.011064
    45  H    0.000001   0.000000   0.006739   0.000420  -0.000188  -0.002397
              43         44         45
     1  C    0.383005  -0.002278  -0.002299
     2  O   -0.037891  -0.042199  -0.042032
     3  C   -0.008195   0.377393   0.377162
     4  N   -0.000003  -0.032349  -0.032271
     5  C   -0.000131   0.006654  -0.009544
     6  O   -0.000007   0.000430   0.010838
     7  N    0.000000  -0.000087   0.000518
     8  C    0.000000   0.000002  -0.000001
     9  F    0.000000   0.000000   0.000000
    10  F    0.000000   0.000000   0.000003
    11  C    0.000000   0.000000   0.000000
    12  F    0.000000   0.000000   0.000000
    13  O    0.000000   0.000000   0.000000
    14  C    0.000000   0.000000   0.000000
    15  F    0.000000   0.000000   0.000000
    16  F    0.000000   0.000000   0.000000
    17  F    0.000000   0.000000   0.000000
    18  C    0.000000   0.000000   0.000002
    19  F    0.000000   0.000000   0.000000
    20  F    0.000000   0.000000  -0.000004
    21  F    0.000000   0.000000   0.000000
    22  C    0.000000  -0.000025  -0.000020
    23  O    0.000000   0.000000   0.000000
    24  N    0.000000   0.000535  -0.000092
    25  C    0.000000   0.000000   0.000001
    26  F    0.000000   0.000000   0.000000
    27  F    0.000000   0.000003   0.000000
    28  C    0.000000   0.000000   0.000000
    29  F    0.000000   0.000000   0.000000
    30  O    0.000000   0.000000   0.000000
    31  C    0.000000   0.000000   0.000000
    32  F    0.000000   0.000000   0.000000
    33  F    0.000000   0.000000   0.000000
    34  F    0.000000   0.000000   0.000000
    35  C    0.000000   0.000001   0.000000
    36  F    0.000000   0.000000   0.000000
    37  F    0.000000  -0.000006   0.000001
    38  F    0.000000  -0.000001   0.000000
    39  C    0.000073  -0.009807   0.006739
    40  O   -0.000002   0.011134   0.000420
    41  H   -0.031512  -0.000190  -0.000188
    42  H   -0.044899   0.011064  -0.002397
    43  H    0.615036  -0.002383   0.011080
    44  H   -0.002383   0.578033  -0.046834
    45  H    0.011080  -0.046834   0.578558
 Mulliken charges:
               1
     1  C   -0.083079
     2  O   -0.499349
     3  C    0.207535
     4  N   -0.603658
     5  C    0.848069
     6  O   -0.495636
     7  N   -0.639428
     8  C    0.764811
     9  F   -0.271408
    10  F   -0.244822
    11  C    0.435836
    12  F   -0.272223
    13  O   -0.494887
    14  C    0.978272
    15  F   -0.236163
    16  F   -0.240059
    17  F   -0.234576
    18  C    0.819113
    19  F   -0.258539
    20  F   -0.245184
    21  F   -0.242897
    22  C    0.853868
    23  O   -0.477185
    24  N   -0.648570
    25  C    0.764298
    26  F   -0.266881
    27  F   -0.245060
    28  C    0.437094
    29  F   -0.252198
    30  O   -0.515472
    31  C    0.999773
    32  F   -0.241024
    33  F   -0.240220
    34  F   -0.244770
    35  C    0.808089
    36  F   -0.252174
    37  F   -0.255271
    38  F   -0.234271
    39  C    0.843426
    40  O   -0.494686
    41  H    0.136545
    42  H    0.115863
    43  H    0.115828
    44  H    0.150909
    45  H    0.150360
 Sum of Mulliken charges =   0.00000
 Mulliken charges with hydrogens summed into heavy atoms:
               1
     1  C    0.285157
     2  O   -0.499349
     3  C    0.508803
     4  N   -0.603658
     5  C    0.848069
     6  O   -0.495636
     7  N   -0.639428
     8  C    0.764811
     9  F   -0.271408
    10  F   -0.244822
    11  C    0.435836
    12  F   -0.272223
    13  O   -0.494887
    14  C    0.978272
    15  F   -0.236163
    16  F   -0.240059
    17  F   -0.234576
    18  C    0.819113
    19  F   -0.258539
    20  F   -0.245184
    21  F   -0.242897
    22  C    0.853868
    23  O   -0.477185
    24  N   -0.648570
    25  C    0.764298
    26  F   -0.266881
    27  F   -0.245060
    28  C    0.437094
    29  F   -0.252198
    30  O   -0.515472
    31  C    0.999773
    32  F   -0.241024
    33  F   -0.240220
    34  F   -0.244770
    35  C    0.808089
    36  F   -0.252174
    37  F   -0.255271
    38  F   -0.234271
    39  C    0.843426
    40  O   -0.494686
 Electronic spatial extent (au):  <R**2>=          19408.9462
 Charge=              0.0000 electrons
 Dipole moment (field-independent basis, Debye):
    X=              0.8426    Y=              3.6245    Z=              0.5547  Tot=              3.7623
 Quadrupole moment (field-independent basis, Debye-Ang):
   XX=           -223.9239   YY=           -201.5675   ZZ=           -213.1847
   XY=             -0.4777   XZ=              3.5043   YZ=              2.7664
 Traceless Quadrupole moment (field-independent basis, Debye-Ang):
   XX=            -11.0319   YY=             11.3245   ZZ=             -0.2927
   XY=             -0.4777   XZ=              3.5043   YZ=              2.7664
 Octapole moment (field-independent basis, Debye-Ang**2):
  XXX=             20.2865  YYY=            465.8429  ZZZ=            -58.9617  XYY=              4.7911
  XXY=             84.1859  XXZ=            -32.2024  XZZ=              7.0781  YZZ=            112.9269
  YYZ=             -6.3932  XYZ=              9.0554
 Hexadecapole moment (field-independent basis, Debye-Ang**3):
 XXXX=         -11980.0470 YYYY=          -5619.2132 ZZZZ=          -2311.4205 XXXY=           -127.4970
 XXXZ=           1120.6722 YYYX=            -94.1800 YYYZ=            -34.4912 ZZZX=           1139.1757
 ZZZY=            -20.5036 XXYY=          -3088.2143 XXZZ=          -2383.4703 YYZZ=          -1439.0102
 XXYZ=             17.0760 YYXZ=            398.8834 ZZXY=            -39.0683
 N-N= 6.156951079117D+03 E-N=-1.919216186995D+04  KE= 2.888980346081D+03
 No NMR shielding tensors so no spin-rotation constants.
 Leave Link  601 at Sun Mar  3 18:01:32 2024, MaxMem=  5368709120 cpu:         5.3
 (Enter /home/k0335/k033513/app/g09/l9999.exe)
 1\1\GINC-C24U18N3\SP\RCAM-B3LYP\6-31G(d,p)\C13H5F18N3O6\K033513\03-Mar
 -2024\0\\#p CAM-B3LYP/6-31G(d,p) SCRF=(PCM,Solvent=Generic,Read) NoSym
 m out=wfn\\Title A897162772_0\\0,1\C,0,-0.225968,5.50776,-0.470807\O,0
 ,-0.3165,4.11136,-0.718665\C,0,0.033444,3.354315,0.43684\N,0,-0.089396
 ,1.956454,0.079068\C,0,1.020849,1.312696,-0.413504\O,0,2.125333,1.8513
 67,-0.450677\N,0,0.842966,0.010755,-0.803947\C,0,2.007155,-0.749696,-1
 .240817\F,0,1.573512,-1.643052,-2.189474\F,0,2.848861,0.050428,-1.9477
 28\C,0,2.780402,-1.550317,-0.151268\F,0,1.864151,-2.002973,0.777527\O,
 0,3.362238,-2.77554,-0.627637\C,0,4.506484,-2.604394,-1.422967\F,0,4.8
 19584,-3.782883,-1.98945\F,0,5.534022,-2.205551,-0.65855\F,0,4.283982,
 -1.704707,-2.388312\C,0,3.727446,-0.626494,0.613433\F,0,4.465109,-1.33
 4171,1.506425\F,0,3.045267,0.290261,1.337889\F,0,4.592685,0.026414,-0.
 185182\C,0,-0.310573,-0.68591,-0.53771\O,0,-0.352492,-1.911487,-0.5841
 12\N,0,-1.40986,0.049875,-0.172815\C,0,-2.666932,-0.664601,0.013554\F,
 0,-2.841588,-1.42482,-1.112834\F,0,-3.71961,0.203426,-0.049894\C,0,-2.
 856345,-1.577688,1.264897\F,0,-1.942296,-2.590351,1.286627\O,0,-4.1446
 8,-2.202243,1.402842\C,0,-4.527591,-2.957985,0.284893\F,0,-5.46873,-3.
 840288,0.671731\F,0,-3.493785,-3.632307,-0.238722\F,0,-5.065025,-2.140
 704,-0.636161\C,0,-2.63209,-0.736666,2.515788\F,0,-2.756429,-1.489232,
 3.639463\F,0,-1.383348,-0.209659,2.5511\F,0,-3.516849,0.274563,2.63038
 5\C,0,-1.300874,1.338715,0.283796\O,0,-2.211,1.882783,0.905178\H,0,-0.
 503838,6.038374,-1.385392\H,0,-0.915692,5.801159,0.326472\H,0,0.798719
 ,5.784202,-0.204253\H,0,-0.640189,3.607013,1.26318\H,0,1.059475,3.5918
 ,0.739197\\Version=ES64L-G09RevD.01\HF=-2910.2836885\RMSD=6.313e-09\Di
 pole=0.3315213,1.4259976,0.218238\Quadrupole=-8.2019157,8.4194964,-0.2
 175807,-0.3551845,2.6053925,2.0567139\PG=C01 [X(C13H5F18N3O6)]\\@

 Writing a WFN file to "A897162772/A897162772_0.wfn"


 A great many people think they are thinking when they
 are merely rearranging their prejudices.
                               -- William James
 Job cpu time:       0 days  0 hours 21 minutes 41.3 seconds.
 File lengths (MBytes):  RWF=    431 Int=      0 D2E=      0 Chk=     16 Scr=      1
 Normal termination of Gaussian 09 at Sun Mar  3 18:01:33 2024.
