 Entering Gaussian System, Link 0=g09
 Initial command:
 /home/k0335/k033513/app/g09/l1.exe "/home/k0335/k033513/app/g09/scratch/Gau-681015.inp" -scrdir="/home/k0335/k033513/app/g09/scratch/"
 Default is to use a total of  36 processors:
                               36 via shared-memory
                                1 via Linda
 Entering Link 1 = /home/k0335/k033513/app/g09/l1.exe PID=    681016.
  
 Copyright (c) 1988,1990,1992,1993,1995,1998,2003,2009,2013,
            Gaussian, Inc.  All Rights Reserved.
  
 This is part of the Gaussian(R) 09 program.  It is based on
 the Gaussian(R) 03 system (copyright 2003, Gaussian, Inc.),
 the Gaussian(R) 98 system (copyright 1998, Gaussian, Inc.),
 the Gaussian(R) 94 system (copyright 1995, Gaussian, Inc.),
 the Gaussian 92(TM) system (copyright 1992, Gaussian, Inc.),
 the Gaussian 90(TM) system (copyright 1990, Gaussian, Inc.),
 the Gaussian 88(TM) system (copyright 1988, Gaussian, Inc.),
 the Gaussian 86(TM) system (copyright 1986, Carnegie Mellon
 University), and the Gaussian 82(TM) system (copyright 1983,
 Carnegie Mellon University). Gaussian is a federally registered
 trademark of Gaussian, Inc.
  
 This software contains proprietary and confidential information,
 including trade secrets, belonging to Gaussian, Inc.
  
 This software is provided under written license and may be
 used, copied, transmitted, or stored only in accord with that
 written license.
  
 The following legend is applicable only to US Government
 contracts under FAR:
  
                    RESTRICTED RIGHTS LEGEND
  
 Use, reproduction and disclosure by the US Government is
 subject to restrictions as set forth in subparagraphs (a)
 and (c) of the Commercial Computer Software - Restricted
 Rights clause in FAR 52.227-19.
  
 Gaussian, Inc.
 340 Quinnipiac St., Bldg. 40, Wallingford CT 06492
  
  
 ---------------------------------------------------------------
 Warning -- This program may not be used in any manner that
 competes with the business of Gaussian, Inc. or will provide
 assistance to any competitor of Gaussian, Inc.  The licensee
 of this program is prohibited from giving any competitor of
 Gaussian, Inc. access to this program.  By using this program,
 the user acknowledges that Gaussian, Inc. is engaged in the
 business of creating and licensing software in the field of
 computational chemistry and represents and warrants to the
 licensee that it is not a competitor of Gaussian, Inc. and that
 it will not use this program in any manner prohibited above.
 ---------------------------------------------------------------
  

 Cite this work as:
 Gaussian 09, Revision D.01,
 M. J. Frisch, G. W. Trucks, H. B. Schlegel, G. E. Scuseria, 
 M. A. Robb, J. R. Cheeseman, G. Scalmani, V. Barone, B. Mennucci, 
 G. A. Petersson, H. Nakatsuji, M. Caricato, X. Li, H. P. Hratchian, 
 A. F. Izmaylov, J. Bloino, G. Zheng, J. L. Sonnenberg, M. Hada, 
 M. Ehara, K. Toyota, R. Fukuda, J. Hasegawa, M. Ishida, T. Nakajima, 
 Y. Honda, O. Kitao, H. Nakai, T. Vreven, J. A. Montgomery, Jr., 
 J. E. Peralta, F. Ogliaro, M. Bearpark, J. J. Heyd, E. Brothers, 
 K. N. Kudin, V. N. Staroverov, T. Keith, R. Kobayashi, J. Normand, 
 K. Raghavachari, A. Rendell, J. C. Burant, S. S. Iyengar, J. Tomasi, 
 M. Cossi, N. Rega, J. M. Millam, M. Klene, J. E. Knox, J. B. Cross, 
 V. Bakken, C. Adamo, J. Jaramillo, R. Gomperts, R. E. Stratmann, 
 O. Yazyev, A. J. Austin, R. Cammi, C. Pomelli, J. W. Ochterski, 
 R. L. Martin, K. Morokuma, V. G. Zakrzewski, G. A. Voth, 
 P. Salvador, J. J. Dannenberg, S. Dapprich, A. D. Daniels, 
 O. Farkas, J. B. Foresman, J. V. Ortiz, J. Cioslowski, 
 and D. J. Fox, Gaussian, Inc., Wallingford CT, 2013.
 
 ******************************************
 Gaussian 09:  ES64L-G09RevD.01 24-Apr-2013
                 3-Mar-2024 
 ******************************************
 %nprocshared=24
 Will use up to   24 processors via shared memory.
 %mem=40GB
 %rwf=A897162772/A897162772_p1.rwf
 %nosave
 %chk=A897162772/A897162772_p1.chk
 ----------------------------------------------------------------------
 #p CAM-B3LYP/6-31G(d,p) SCRF=(PCM,Solvent=Generic,Read) NoSymm out=wfn
 ----------------------------------------------------------------------
 1/38=1,40=2/1;
 2/12=2,15=1,17=6,18=5,40=1/2;
 3/5=1,6=6,7=101,11=2,16=1,25=1,30=1,70=2203,72=-2,74=-40/1,2,3;
 4//1;
 5/5=2,38=5/2;
 6/7=2,8=2,9=2,10=2,28=1/1;
 99/5=1,6=100,9=1/99;
 Leave Link    1 at Sun Mar  3 18:00:34 2024, MaxMem=  5368709120 cpu:         2.0
 (Enter /home/k0335/k033513/app/g09/l101.exe)
 -------------------
 Title A897162772_p1
 -------------------
 Symbolic Z-matrix:
 Charge =  1 Multiplicity = 2
 C                    -0.22597   5.50776  -0.47081 
 O                    -0.3165    4.11136  -0.71867 
 C                     0.03344   3.35432   0.43684 
 N                    -0.0894    1.95645   0.07907 
 C                     1.02085   1.3127   -0.4135 
 O                     2.12533   1.85137  -0.45068 
 N                     0.84297   0.01076  -0.80395 
 C                     2.00716  -0.7497   -1.24082 
 F                     1.57351  -1.64305  -2.18947 
 F                     2.84886   0.05043  -1.94773 
 C                     2.7804   -1.55032  -0.15127 
 F                     1.86415  -2.00297   0.77753 
 O                     3.36224  -2.77554  -0.62764 
 C                     4.50648  -2.60439  -1.42297 
 F                     4.81958  -3.78288  -1.98945 
 F                     5.53402  -2.20555  -0.65855 
 F                     4.28398  -1.70471  -2.38831 
 C                     3.72745  -0.62649   0.61343 
 F                     4.46511  -1.33417   1.50643 
 F                     3.04527   0.29026   1.33789 
 F                     4.59269   0.02641  -0.18518 
 C                    -0.31057  -0.68591  -0.53771 
 O                    -0.35249  -1.91149  -0.58411 
 N                    -1.40986   0.04988  -0.17282 
 C                    -2.66693  -0.6646    0.01355 
 F                    -2.84159  -1.42482  -1.11283 
 F                    -3.71961   0.20343  -0.04989 
 C                    -2.85635  -1.57769   1.2649 
 F                    -1.9423   -2.59035   1.28663 
 O                    -4.14468  -2.20224   1.40284 
 C                    -4.52759  -2.95799   0.28489 
 F                    -5.46873  -3.84029   0.67173 
 F                    -3.49379  -3.63231  -0.23872 
 F                    -5.06503  -2.1407   -0.63616 
 C                    -2.63209  -0.73667   2.51579 
 F                    -2.75643  -1.48923   3.63946 
 F                    -1.38335  -0.20966   2.5511 
 F                    -3.51685   0.27456   2.63039 
 C                    -1.30087   1.33872   0.2838 
 O                    -2.211     1.88278   0.90518 
 H                    -0.50384   6.03837  -1.38539 
 H                    -0.91569   5.80116   0.32647 
 H                     0.79872   5.7842   -0.20425 
 H                    -0.64019   3.60701   1.26318 
 H                     1.05947   3.5918    0.7392 
 
 NAtoms=     45 NQM=       45 NQMF=       0 NMMI=      0 NMMIF=      0
                NMic=       0 NMicF=      0.
                    Isotopes and Nuclear Properties:
 (Nuclear quadrupole moments (NQMom) in fm**2, nuclear magnetic moments (NMagM)
  in nuclear magnetons)

  Atom         1           2           3           4           5           6           7           8           9          10
 IAtWgt=          12          16          12          14          12          16          14          12          19          19
 AtmWgt=  12.0000000  15.9949146  12.0000000  14.0030740  12.0000000  15.9949146  14.0030740  12.0000000  18.9984033  18.9984033
 NucSpn=           0           0           0           2           0           0           2           0           1           1
 AtZEff=   0.0000000   0.0000000   0.0000000   0.0000000   0.0000000   0.0000000   0.0000000   0.0000000   0.0000000   0.0000000
 NQMom=    0.0000000   0.0000000   0.0000000   2.0440000   0.0000000   0.0000000   2.0440000   0.0000000   0.0000000   0.0000000
 NMagM=    0.0000000   0.0000000   0.0000000   0.4037610   0.0000000   0.0000000   0.4037610   0.0000000   2.6288670   2.6288670
 AtZNuc=   6.0000000   8.0000000   6.0000000   7.0000000   6.0000000   8.0000000   7.0000000   6.0000000   9.0000000   9.0000000

  Atom        11          12          13          14          15          16          17          18          19          20
 IAtWgt=          12          19          16          12          19          19          19          12          19          19
 AtmWgt=  12.0000000  18.9984033  15.9949146  12.0000000  18.9984033  18.9984033  18.9984033  12.0000000  18.9984033  18.9984033
 NucSpn=           0           1           0           0           1           1           1           0           1           1
 AtZEff=   0.0000000   0.0000000   0.0000000   0.0000000   0.0000000   0.0000000   0.0000000   0.0000000   0.0000000   0.0000000
 NQMom=    0.0000000   0.0000000   0.0000000   0.0000000   0.0000000   0.0000000   0.0000000   0.0000000   0.0000000   0.0000000
 NMagM=    0.0000000   2.6288670   0.0000000   0.0000000   2.6288670   2.6288670   2.6288670   0.0000000   2.6288670   2.6288670
 AtZNuc=   6.0000000   9.0000000   8.0000000   6.0000000   9.0000000   9.0000000   9.0000000   6.0000000   9.0000000   9.0000000

  Atom        21          22          23          24          25          26          27          28          29          30
 IAtWgt=          19          12          16          14          12          19          19          12          19          16
 AtmWgt=  18.9984033  12.0000000  15.9949146  14.0030740  12.0000000  18.9984033  18.9984033  12.0000000  18.9984033  15.9949146
 NucSpn=           1           0           0           2           0           1           1           0           1           0
 AtZEff=   0.0000000   0.0000000   0.0000000   0.0000000   0.0000000   0.0000000   0.0000000   0.0000000   0.0000000   0.0000000
 NQMom=    0.0000000   0.0000000   0.0000000   2.0440000   0.0000000   0.0000000   0.0000000   0.0000000   0.0000000   0.0000000
 NMagM=    2.6288670   0.0000000   0.0000000   0.4037610   0.0000000   2.6288670   2.6288670   0.0000000   2.6288670   0.0000000
 AtZNuc=   9.0000000   6.0000000   8.0000000   7.0000000   6.0000000   9.0000000   9.0000000   6.0000000   9.0000000   8.0000000

  Atom        31          32          33          34          35          36          37          38          39          40
 IAtWgt=          12          19          19          19          12          19          19          19          12          16
 AtmWgt=  12.0000000  18.9984033  18.9984033  18.9984033  12.0000000  18.9984033  18.9984033  18.9984033  12.0000000  15.9949146
 NucSpn=           0           1           1           1           0           1           1           1           0           0
 AtZEff=   0.0000000   0.0000000   0.0000000   0.0000000   0.0000000   0.0000000   0.0000000   0.0000000   0.0000000   0.0000000
 NQMom=    0.0000000   0.0000000   0.0000000   0.0000000   0.0000000   0.0000000   0.0000000   0.0000000   0.0000000   0.0000000
 NMagM=    0.0000000   2.6288670   2.6288670   2.6288670   0.0000000   2.6288670   2.6288670   2.6288670   0.0000000   0.0000000
 AtZNuc=   6.0000000   9.0000000   9.0000000   9.0000000   6.0000000   9.0000000   9.0000000   9.0000000   6.0000000   8.0000000

  Atom        41          42          43          44          45
 IAtWgt=           1           1           1           1           1
 AtmWgt=   1.0078250   1.0078250   1.0078250   1.0078250   1.0078250
 NucSpn=           1           1           1           1           1
 AtZEff=   0.0000000   0.0000000   0.0000000   0.0000000   0.0000000
 NQMom=    0.0000000   0.0000000   0.0000000   0.0000000   0.0000000
 NMagM=    2.7928460   2.7928460   2.7928460   2.7928460   2.7928460
 AtZNuc=   1.0000000   1.0000000   1.0000000   1.0000000   1.0000000
 Leave Link  101 at Sun Mar  3 18:00:34 2024, MaxMem=  5368709120 cpu:         0.9
 (Enter /home/k0335/k033513/app/g09/l202.exe)
                          Input orientation:                          
 ---------------------------------------------------------------------
 Center     Atomic      Atomic             Coordinates (Angstroms)
 Number     Number       Type             X           Y           Z
 ---------------------------------------------------------------------
      1          6           0       -0.225968    5.507760   -0.470807
      2          8           0       -0.316500    4.111360   -0.718665
      3          6           0        0.033444    3.354315    0.436840
      4          7           0       -0.089396    1.956454    0.079068
      5          6           0        1.020849    1.312696   -0.413504
      6          8           0        2.125333    1.851367   -0.450677
      7          7           0        0.842966    0.010755   -0.803947
      8          6           0        2.007155   -0.749696   -1.240817
      9          9           0        1.573512   -1.643052   -2.189474
     10          9           0        2.848861    0.050428   -1.947728
     11          6           0        2.780402   -1.550317   -0.151268
     12          9           0        1.864151   -2.002973    0.777527
     13          8           0        3.362238   -2.775540   -0.627637
     14          6           0        4.506484   -2.604394   -1.422967
     15          9           0        4.819584   -3.782883   -1.989450
     16          9           0        5.534022   -2.205551   -0.658550
     17          9           0        4.283982   -1.704707   -2.388312
     18          6           0        3.727446   -0.626494    0.613433
     19          9           0        4.465109   -1.334171    1.506425
     20          9           0        3.045267    0.290261    1.337889
     21          9           0        4.592685    0.026414   -0.185182
     22          6           0       -0.310573   -0.685910   -0.537710
     23          8           0       -0.352492   -1.911487   -0.584112
     24          7           0       -1.409860    0.049875   -0.172815
     25          6           0       -2.666932   -0.664601    0.013554
     26          9           0       -2.841588   -1.424820   -1.112834
     27          9           0       -3.719610    0.203426   -0.049894
     28          6           0       -2.856345   -1.577688    1.264897
     29          9           0       -1.942296   -2.590351    1.286627
     30          8           0       -4.144680   -2.202243    1.402842
     31          6           0       -4.527591   -2.957985    0.284893
     32          9           0       -5.468730   -3.840288    0.671731
     33          9           0       -3.493785   -3.632307   -0.238722
     34          9           0       -5.065025   -2.140704   -0.636161
     35          6           0       -2.632090   -0.736666    2.515788
     36          9           0       -2.756429   -1.489232    3.639463
     37          9           0       -1.383348   -0.209659    2.551100
     38          9           0       -3.516849    0.274563    2.630385
     39          6           0       -1.300874    1.338715    0.283796
     40          8           0       -2.211000    1.882783    0.905178
     41          1           0       -0.503838    6.038374   -1.385392
     42          1           0       -0.915692    5.801159    0.326472
     43          1           0        0.798719    5.784202   -0.204253
     44          1           0       -0.640189    3.607013    1.263180
     45          1           0        1.059475    3.591800    0.739197
 ---------------------------------------------------------------------
                    Distance matrix (angstroms):
                    1          2          3          4          5
     1  C    0.000000
     2  O    1.421113   0.000000
     3  C    2.351264   1.425051   0.000000
     4  N    3.596219   2.309020   1.448139   0.000000
     5  C    4.376802   3.116752   2.422037   1.374662   0.000000
     6  O    4.347210   3.337954   2.724434   2.279627   1.229404
     7  N    5.609872   4.262229   3.657085   2.331257   1.370817
     8  C    6.688461   5.413121   4.853141   3.668906   2.431195
     9  F    7.571397   6.232871   5.851753   4.568149   3.492270
    10  F    6.435708   5.293513   4.952616   4.046504   2.699776
    11  C    7.678334   6.478219   5.652173   4.537206   3.370703
    12  F    7.895445   6.661749   5.671692   4.470039   3.622620
    13  O    9.028448   7.808380   7.056139   5.899574   4.716103
    14  C    9.439796   8.298106   7.679400   6.646770   5.339687
    15  F   10.680820   9.503332   8.929368   7.830507   6.548200
    16  F    9.628494   8.610202   7.897363   7.034856   5.727726
    17  F    8.719871   7.601236   7.186255   6.214378   4.863396
    18  C    7.377949   6.369870   5.433569   4.639553   3.484354
    19  F    8.528052   7.580806   6.539539   5.797334   4.749206
    20  F    6.418306   5.489234   4.389920   3.766556   2.865488
    21  F    7.303845   6.408704   5.678778   5.071170   3.803244
    22  C    6.194609   4.800685   4.170313   2.722393   2.404691
    23  O    7.421191   6.024457   5.377728   3.933191   3.508636
    24  N    5.592755   4.241350   3.657066   2.332834   2.749726
    25  C    6.655145   5.373126   4.860338   3.676671   4.206163
    26  F    7.437361   6.097600   5.788560   4.519757   4.785549
    27  F    6.365427   5.224975   4.924472   4.033385   4.882074
    28  C    7.754684   6.538394   5.775917   4.642452   5.118983
    29  F    8.462491   7.181736   6.321767   5.056172   5.186950
    30  O    8.849351   7.682274   7.018918   5.957555   6.506658
    31  C    9.525958   8.289515   7.789176   6.625077   7.036452
    32  F   10.778587   9.576397   9.060431   7.930366   8.357369
    33  F    9.709445   8.383905   7.855610   6.551725   6.698173
    34  F    9.052227   7.851344   7.572381   6.484993   7.000958
    35  C    7.328167   6.271124   5.306903   4.433485   5.111223
    36  F    8.500321   7.504210   6.442060   5.626920   6.208476
    37  F    6.569652   5.522747   4.379418   3.532322   4.109331
    38  F    6.916187   6.014930   5.186626   4.591885   5.561806
    39  C    4.371016   3.108292   2.422080   1.375207   2.424315
    40  O    4.355932   3.345527   2.724385   2.277957   3.536774
    41  H    1.093265   2.047682   3.288370   4.356429   5.059770
    42  H    1.094283   2.075274   2.626801   3.940270   4.944093
    43  H    1.094283   2.075267   2.626975   3.939629   4.481907
    44  H    2.605979   2.070471   1.095662   2.104718   3.291536
    45  H    2.605259   2.070896   1.095700   2.104764   2.554315
                    6          7          8          9         10
     6  O    0.000000
     7  N    2.270929   0.000000
     8  C    2.720995   1.457559   0.000000
     9  F    3.941939   2.277819   1.373347   0.000000
    10  F    2.451129   2.309421   1.359555   2.133736   0.000000
    11  C    3.477099   2.572274   1.557569   2.370541   2.407143
    12  F    4.053719   2.756625   2.380098   3.002850   3.551496
    13  O    4.792652   3.760486   2.513222   2.630856   3.161059
    14  C    5.144807   4.543518   3.117648   3.180257   3.173510
    15  F    6.432075   5.622330   4.203621   3.893054   4.310425
    16  F    5.302920   5.190295   3.859707   4.283197   3.736511
    17  F    4.589102   4.158559   2.722633   2.718453   2.309586
    18  C    3.136701   3.276473   2.532355   3.678194   2.791000
    19  F    4.410493   4.501840   3.732357   4.702809   4.057160
    20  F    2.546036   3.084755   2.967981   4.283229   3.300208
    21  F    3.080384   3.800462   2.898565   3.989951   2.479530
    22  C    3.518379   1.373636   2.422868   2.682205   3.537283
    23  O    4.507382   2.274305   2.710895   2.521653   3.994649
    24  N    3.977458   2.339890   3.668233   3.979124   4.613786
    25  C    5.432440   3.666578   4.840225   4.877711   5.897615
    26  F    5.986832   3.966387   4.897191   4.549713   5.937560
    27  F    6.086025   4.628479   5.926430   6.000369   6.838859
    28  C    6.286392   4.526386   5.533336   5.617881   6.746932
    29  F    6.268388   4.346716   5.037276   5.034040   6.355309
    30  O    7.692877   5.885906   6.851562   6.776072   8.075299
    31  C    8.242107   6.232325   7.064505   6.713792   8.273282
    32  F    9.556387   7.539606   8.312548   7.912491   9.548903
    33  F    7.854304   5.691993   6.290785   5.782739   7.530763
    34  F    8.226317   6.289776   7.232997   6.835979   8.315700
    35  C    6.175023   4.863671   5.969493   6.375587   7.112195
    36  F    7.191693   5.911810   6.859721   7.262820   8.062663
    37  F    5.056613   4.032542   5.115250   5.768074   6.182127
    38  F    6.619175   5.556277   6.822751   7.267741   7.844209
    39  C    3.541350   2.746400   4.198686   4.823909   4.884637
    40  O    4.543469   3.968917   5.415540   6.027513   6.090878
    41  H    5.031626   6.203559   7.239053   7.997889   6.885660
    42  H    5.045062   6.156257   7.342556   8.242718   7.239803
    43  H    4.157863   5.804678   6.725073   7.726934   6.333952
    44  H    3.696987   4.405205   5.679731   6.662167   5.927284
    45  H    2.362406   3.905388   4.864889   6.020384   4.791950
                   11         12         13         14         15
    11  C    0.000000
    12  F    1.380968   0.000000
    13  O    1.437579   2.194450   0.000000
    14  C    2.389070   3.490817   1.403973   0.000000
    15  F    3.538577   4.422536   2.234532   1.344534   0.000000
    16  F    2.875602   3.946050   2.245549   1.341359   2.183963
    17  F    2.699806   3.995883   2.257492   1.338221   2.182837
    18  C    1.528106   2.322389   2.508392   2.943792   4.234449
    19  F    2.373374   2.782727   2.801444   3.193198   4.282871
    20  F    2.382324   2.639690   3.655530   4.258698   5.550666
    21  F    2.402416   3.534136   3.092040   2.908727   4.221091
    22  C    3.232749   2.862504   4.226604   5.260066   6.165817
    23  O    3.183209   2.603063   3.814145   4.979302   5.676924
    24  N    4.485463   3.979508   5.564418   6.603874   7.536323
    25  C    5.521332   4.785980   6.420131   7.568638   8.353660
    26  F    5.705009   5.104087   6.367678   7.448607   8.063651
    27  F    6.733205   6.060628   7.704583   8.799875   9.621350
    28  C    5.811987   4.764607   6.609638   7.905061   8.624010
    29  F    5.045105   3.885001   5.642409   6.994917   7.607748
    30  O    7.127203   6.044566   7.797777   9.109861   9.714118
    31  C    7.455101   6.481443   7.944520   9.200887   9.655194
    32  F    8.600551   7.560295   8.989329  10.267429  10.627068
    33  F    6.611184   5.691658   6.920286   8.152505   8.497048
    34  F    7.882538   7.073257   8.451145   9.614981  10.111065
    35  C    6.088537   4.984102   7.068953   8.364295   9.225186
    36  F    6.710430   5.459338   7.569730   8.923099   9.712954
    37  F    5.141689   4.111908   6.261685   7.497872   8.477080
    38  F    7.122019   6.129879   8.199980   9.438852  10.358661
    39  C    5.019223   4.629042   6.285095   7.224026   8.298097
    40  O    6.149500   5.632251   7.423643   8.407117   9.481970
    41  H    8.360474   8.657301   9.654316   9.990104  11.187529
    42  H    8.242181   8.296713   9.631759  10.154499  11.406610
    43  H    7.597700   7.920804   8.945394   9.252099  10.530119
    44  H    6.348162   6.162753   7.767341   8.502071   9.746758
    45  H    5.495078   5.652474   6.907530   7.412803   8.716070
                   16         17         18         19         20
    16  F    0.000000
    17  F    2.192150   0.000000
    18  C    2.715710   3.237707   0.000000
    19  F    2.566904   3.916514   1.357346   0.000000
    20  F    4.050771   4.404417   1.353013   2.164055   0.000000
    21  F    2.468169   2.818840   1.346370   2.174627   2.187204
    22  C    6.040133   5.056937   4.199316   5.235061   3.966414
    23  O    5.894325   4.979436   4.441983   5.283268   4.481802
    24  N    7.317129   6.356636   5.240952   6.265037   4.710432
    25  C    8.371493   7.427381   6.422568   7.317308   5.940946
    26  F    8.424177   7.244234   6.838825   7.762510   6.603227
    27  F    9.581406   8.553751   7.522461   8.472069   6.906305
    28  C    8.630882   8.021617   6.683972   7.329483   6.190605
    29  F    7.734799   7.283960   6.037872   6.533080   5.759890
    30  O    9.895788   9.255416   8.067002   8.654059   7.610002
    31  C   10.133721   9.293038   8.584254   9.219412   8.307110
    32  F   11.202793  10.442220   9.741741  10.279032   9.486482
    33  F    9.149491   8.296387   7.868116   8.465870   7.786619
    34  F   10.599269   9.521768   9.008988   9.801256   8.693866
    35  C    8.883661   8.533426   6.638885   7.193473   5.888498
    36  F    9.365768   9.270808   7.207067   7.531567   6.490263
    37  F    7.882604   7.664958   5.481653   6.046513   4.618921
    38  F    9.944160   9.484608   7.573626   8.219669   6.688210
    39  C    7.756651   6.898782   5.408762   6.471916   4.593398
    40  O    8.896352   8.118002   6.453428   7.435101   5.509238
    41  H   10.244333   9.158841   8.143680   9.349196   7.283763
    42  H   10.328431   9.526001   7.934469   9.014335   6.861644
    43  H    9.298690   8.544058   7.095285   8.187800   6.132582
    44  H    8.694816   8.111425   6.117270   7.109046   4.958731
    45  H    7.455504   6.944908   4.992784   6.037563   3.898969
                   21         22         23         24         25
    21  F    0.000000
    22  C    4.967255   0.000000
    23  O    5.326291   1.227171   0.000000
    24  N    6.002604   1.372210   2.265863   0.000000
    25  C    7.295138   2.420077   2.696027   1.457889   0.000000
    26  F    7.631188   2.698665   2.590751   2.260134   1.370105
    27  F    8.315280   3.556742   4.011948   2.318110   1.365880
    28  C    7.756540   3.244320   3.130421   2.609271   1.560597
    29  F    7.191638   3.101229   2.547155   3.063373   2.419571
    30  O    9.155888   4.556905   4.291062   3.877366   2.545231
    31  C    9.607655   4.860272   4.391102   4.356256   2.965685
    32  F   10.812851   6.165990   5.610108   5.685161   4.285820
    33  F    8.875816   4.347814   3.598366   4.231495   3.091053
    34  F    9.908135   4.973020   4.718391   4.286439   2.889958
    35  C    7.750800   3.836127   4.023202   3.056318   2.503514
    36  F    8.422266   4.906762   4.878094   4.326149   3.719576
    37  F    6.576925   3.304302   3.713278   2.736380   2.879878
    38  F    8.587988   4.608638   5.012481   3.513946   2.907265
    39  C    6.056081   2.398890   3.495212   1.371671   2.439758
    40  O    7.136184   3.505957   4.479790   2.272322   2.737158
    41  H    7.972372   6.780259   7.991573   6.176839   7.180940
    42  H    7.996980   6.572294   7.786608   5.794028   6.706028
    43  H    6.895409   6.572980   7.790585   6.145024   7.324291
    44  H    6.503954   4.667016   5.826586   3.912506   4.890392
    45  H    5.103923   4.669724   5.833607   4.413005   5.703474
                   26         27         28         29         30
    26  F    0.000000
    27  F    2.133530   0.000000
    28  C    2.382686   2.376188   0.000000
    29  F    2.815067   3.570759   1.364348   0.000000
    30  O    2.937867   2.842247   1.438369   2.239337   0.000000
    31  C    2.673358   3.280158   2.378800   2.796851   1.402703
    32  F    3.990117   4.464503   3.506531   3.791593   2.229534
    33  F    2.462201   3.847012   2.624626   2.412360   2.272329
    34  F    2.383984   2.765646   2.968042   3.694690   2.237935
    35  C    3.699235   2.940952   1.523921   2.328691   2.382119
    36  F    4.753496   4.171830   2.378313   2.722336   2.727288
    37  F    4.126438   3.520501   2.386533   2.753000   3.593583
    38  F    4.166001   2.688879   2.394088   3.534492   2.834714
    39  C    3.458540   2.692678   3.447819   4.105442   4.677380
    40  O    3.925589   2.451185   3.538464   4.497403   4.546892
    41  H    7.825511   6.794951   8.400162   9.146789   9.430681
    42  H    7.615474   6.272019   7.687273   8.508423   8.697090
    43  H    8.126952   7.182213   8.349570   8.936947   9.529074
    44  H    5.984225   4.774034   5.638482   6.332721   6.785898
    45  H    6.619274   5.911294   6.506429   6.894150   7.816303
                   31         32         33         34         35
    31  C    0.000000
    32  F    1.346791   0.000000
    33  F    1.340760   2.184625   0.000000
    34  F    1.343549   2.182234   2.202642   0.000000
    35  C    3.674789   4.591246   4.088347   4.221999   0.000000
    36  F    4.067848   4.657411   4.491857   4.902550   1.358109
    37  F    4.751342   5.779606   4.894034   5.238541   1.355854
    38  F    4.119745   4.957637   4.847261   4.347492   1.348523
    39  C    5.373391   6.659098   5.458291   5.207832   3.325828
    40  O    5.402257   6.589449   5.776700   5.168136   3.103690
    41  H    9.995745  11.245882  10.187085   9.394844   8.102458
    42  H    9.474711  10.668030   9.795728   9.012037   7.105088
    43  H   10.248643  11.518640  10.348788   9.867835   7.854349
    44  H    7.692083   8.895331   7.925054   7.498194   4.940065
    45  H    8.620985   9.892317   8.595128   8.500748   5.959828
                   36         37         38         39         40
    36  F    0.000000
    37  F    2.169607   0.000000
    38  F    2.169666   2.189197   0.000000
    39  C    4.623465   2.746804   3.398447   0.000000
    40  O    4.375419   2.787899   2.695914   1.229006   0.000000
    41  H    9.326746   7.436896   7.643704   5.050569   5.042822
    42  H    8.216692   6.426321   6.528192   4.479240   4.167301
    43  H    8.961923   6.948364   7.550856   4.940530   5.050774
    44  H    6.008070   4.096097   4.609734   2.557513   2.359784
    45  H    6.984952   4.868415   5.960151   3.294697   3.693819
                   41         42         43         44         45
    41  H    0.000000
    42  H    1.776618   0.000000
    43  H    1.776611   1.794759   0.000000
    44  H    3.597922   2.401583   2.993989   0.000000
    45  H    3.597715   2.992139   2.400983   1.778664   0.000000
 Symmetry turned off by external request.
 Stoichiometry    C13H5F18N3O6(1+,2)
 Framework group  C1[X(C13H5F18N3O6)]
 Deg. of freedom   129
 Full point group                 C1      NOp   1
 Rotational constants (GHZ):      0.1360227      0.0649387      0.0529769
 Leave Link  202 at Sun Mar  3 18:00:34 2024, MaxMem=  5368709120 cpu:         0.1
 (Enter /home/k0335/k033513/app/g09/l301.exe)
 Standard basis: 6-31G(d,p) (6D, 7F)
 Ernie: Thresh=  0.10000D-02 Tol=  0.10000D-05 Strict=F.
   625 basis functions,  1155 primitive gaussians,   625 cartesian basis functions
   157 alpha electrons      156 beta electrons
       nuclear repulsion energy      6156.9510791170 Hartrees.
 IExCor=20419 DFT=T Ex+Corr=CAM-B3LYP ExCW=0 ScaHFX=  1.000000
 ScaDFX=  1.000000  1.000000  1.000000  0.810000 ScalE2=  1.000000  1.000000
 IRadAn=      0 IRanWt=     -1 IRanGd=            0 ICorTp=0 IEmpDi=  4
  HFx wShort=  0.000000 wLong=  0.330000 cFull=  0.190000 cShort=  0.000000 cLong=  0.460000
  DFx wShort=  0.000000 wLong=  0.330000 cFull=  0.190000 cShort=  0.000000 cLong=  0.460000
 NAtoms=   45 NActive=   45 NUniq=   45 SFac= 1.00D+00 NAtFMM=   60 NAOKFM=F Big=F
 Integral buffers will be    131072 words long.
 Raffenetti 2 integral format.
 Two-electron integral symmetry is turned off.
 Using the following non-standard input for PCM:
 eps=4.9
 --- end of non-standard input.
 ------------------------------------------------------------------------------
 Polarizable Continuum Model (PCM)
 =================================
 Model                : PCM (using non-symmetric T matrix).
 Atomic radii         : UFF (Universal Force Field).
 Polarization charges : Total charges.
 Charge compensation  : None.
 Solution method      : On-the-fly selection.
 Cavity type          : Scaled VdW (van der Waals Surface) (Alpha=1.100).
 Cavity algorithm     : GePol (No added spheres)
                        Default sphere list used, NSphG=   45.
                        Lebedev-Laikov grids with approx.  5.0 points / Ang**2.
                        Smoothing algorithm: Karplus/York (Gamma=1.0000).
                        Polarization charges: spherical gaussians, with
                                              point-specific exponents (IZeta= 3).
                        Self-potential: point-specific (ISelfS= 7).
                        Self-field    : sphere-specific E.n sum rule (ISelfD= 2).
 Solvent              : Generic,
                        Eps                           =   4.900000
                        Eps(infinity)                 =   0.000000
                        RSolv                         =   0.000000 Ang.
                        Molar volume                  =   0.000000 cm**3/mol
                        Thermal expansion coefficient =   0.000000 K**-1
                        Absolute temperature          = 298.150000 K
                        Numeral density               =   0.000000 Ang**-3
                        Hydrogen bond acidity         =   0.000000
                        Hydrogen bond basicity        =   0.000000
                        Surface tension at interface  =   0.000000 (cal/mol)*Ang**-2
                        Carbon aromaticity            =   0.000000
                        Electronegative halogenicity  =   0.000000
 ------------------------------------------------------------------------------
 GePol: Number of generator spheres                  =      45
 GePol: Total number of spheres                      =      45
 GePol: Number of exposed spheres                    =      45 (100.00%)
 GePol: Number of points                             =    3680
 GePol: Average weight of points                     =       0.12
 GePol: Minimum weight of points                     =   0.17D-10
 GePol: Maximum weight of points                     =    0.20577
 GePol: Number of points with low weight             =     178
 GePol: Fraction of low-weight points (<1% of avg)   =       4.84%
 GePol: Cavity surface area                          =    456.145 Ang**2
 GePol: Cavity volume                                =    534.973 Ang**3
 Leave Link  301 at Sun Mar  3 18:00:35 2024, MaxMem=  5368709120 cpu:         0.8
 (Enter /home/k0335/k033513/app/g09/l302.exe)
 NPDir=0 NMtPBC=     1 NCelOv=     1 NCel=       1 NClECP=     1 NCelD=      1
         NCelK=      1 NCelE2=     1 NClLst=     1 CellRange=     0.0.
 One-electron integrals computed using PRISM.
 NBasis=   625 RedAO= T EigKep=  1.06D-03  NBF=   625
 NBsUse=   625 1.00D-06 EigRej= -1.00D+00 NBFU=   625
 Precomputing XC quadrature grid using
 IXCGrd= 4 IRadAn=           0 IRanWt=          -1 IRanGd=           0 AccXCQ= 0.00D+00.
 Generated NRdTot=       0 NPtTot=           0 NUsed=           0 NTot=          32
 NSgBfM=   610   610   610   610   610 MxSgAt=    45 MxSgA2=    45.
 Leave Link  302 at Sun Mar  3 18:00:35 2024, MaxMem=  5368709120 cpu:        12.7
 (Enter /home/k0335/k033513/app/g09/l303.exe)
 DipDrv:  MaxL=1.
 Leave Link  303 at Sun Mar  3 18:00:35 2024, MaxMem=  5368709120 cpu:         0.8
 (Enter /home/k0335/k033513/app/g09/l401.exe)
 ExpMin= 1.61D-01 ExpMax= 7.00D+03 ExpMxC= 1.05D+03 IAcc=1 IRadAn=         1 AccDes= 0.00D+00
 Harris functional with IExCor=20419 and IRadAn=       1 diagonalized for initial guess.
 HarFok:  IExCor=20419 AccDes= 0.00D+00 IRadAn=         1 IDoV= 1 UseB2=F ITyADJ=14
 ICtDFT=  3500011 ScaDFX=  1.000000  1.000000  1.000000  1.000000
 FoFCou: FMM=F IPFlag=           0 FMFlag=      100000 FMFlg1=           0
         NFxFlg=           0 DoJE=T BraDBF=F KetDBF=T FulRan=T
         wScrn=  0.000000 ICntrl=     500 IOpCl=  0 I1Cent=   200000004 NGrid=           0
         NMat0=    1 NMatS0=      1 NMatT0=    0 NMatD0=    1 NMtDS0=    0 NMtDT0=    0
 Symmetry not used in FoFCou.
 Harris En= -2823.00720091551    
 JPrj=0 DoOrth=F DoCkMO=F.
 Initial guess <Sx>= 0.0000 <Sy>= 0.0000 <Sz>= 0.5000 <S**2>= 0.7500 S= 0.5000
 Leave Link  401 at Sun Mar  3 18:00:36 2024, MaxMem=  5368709120 cpu:        17.2
 (Enter /home/k0335/k033513/app/g09/l502.exe)
 UHF open shell SCF:
 Using DIIS extrapolation, IDIIS=  1040.
 Two-electron integral symmetry not used.
 IVT=     1209265 IEndB=     1209265 NGot=  5368709120 MDV=  5367907746
 LenX=  5367907746 LenY=  5367516496
 Requested convergence on RMS density matrix=1.00D-08 within 128 cycles.
 Requested convergence on MAX density matrix=1.00D-06.
 Requested convergence on             energy=1.00D-06.
 No special actions if energy rises.
 Fock matrices will be formed incrementally for  20 cycles.

 Cycle   1  Pass 1  IDiag  1:
 FoFJK:  IHMeth= 1 ICntrl=       0 DoSepK=T KAlg= 0 I1Cent=   0 FoldK=F
 IRaf=         1 NMat=   1 IRICut=       1 DoRegI=T DoRafI=F ISym2E= 0.
 FoFCou: FMM=F IPFlag=           0 FMFlag=      100000 FMFlg1=           0
         NFxFlg=           0 DoJE=T BraDBF=F KetDBF=F FulRan=T
         wScrn=  0.000000 ICntrl=     500 IOpCl=  0 I1Cent=           0 NGrid=           0
         NMat0=    1 NMatS0=      1 NMatT0=    0 NMatD0=    1 NMtDS0=    0 NMtDT0=    0
 Symmetry not used in FoFCou.
 Inv3:  Mode=1 IEnd=    40627200.
 Iteration    1 A*A^-1 deviation from unit magnitude is 6.44D-15 for   3658.
 Iteration    1 A*A^-1 deviation from orthogonality  is 4.98D-15 for   3658    338.
 Iteration    1 A^-1*A deviation from unit magnitude is 6.44D-15 for   3658.
 Iteration    1 A^-1*A deviation from orthogonality  is 2.93D-12 for   3237   3234.
 E= -2908.82674484983    
 DIIS: error= 5.54D-02 at cycle   1 NSaved=   1.
 NSaved= 1 IEnMin= 1 EnMin= -2908.82674484983     IErMin= 1 ErrMin= 5.54D-02
 ErrMax= 5.54D-02  0.00D+00 EMaxC= 1.00D-01 BMatC= 1.02D+01 BMatP= 1.02D+01
 IDIUse=3 WtCom= 4.46D-01 WtEn= 5.54D-01
 Coeff-Com:  0.100D+01
 Coeff-En:   0.100D+01
 Coeff:      0.100D+01
 Gap=     0.499 Goal=   None    Shift=    0.000
 Gap=     0.061 Goal=   None    Shift=    0.000
 GapD=    0.061 DampG=0.500 DampE=0.500 DampFc=0.2500 IDamp=-1.
 Damping current iteration by 2.50D-01
 RMSDP=3.44D-03 MaxDP=1.65D-01              OVMax= 5.48D-01

 Cycle   2  Pass 1  IDiag  1:
 RMSU=  8.60D-04    CP:  1.00D+00
 E= -2909.19659104487     Delta-E=       -0.369846195033 Rises=F Damp=T
 DIIS: error= 4.09D-02 at cycle   2 NSaved=   2.
 NSaved= 2 IEnMin= 2 EnMin= -2909.19659104487     IErMin= 2 ErrMin= 4.09D-02
 ErrMax= 4.09D-02  0.00D+00 EMaxC= 1.00D-01 BMatC= 4.26D+00 BMatP= 1.02D+01
 IDIUse=3 WtCom= 5.91D-01 WtEn= 4.09D-01
 Coeff-Com: -0.149D+01 0.249D+01
 Coeff-En:   0.000D+00 0.100D+01
 Coeff:     -0.881D+00 0.188D+01
 Gap=     0.442 Goal=   None    Shift=    0.000
 Gap=     0.074 Goal=   None    Shift=    0.000
 RMSDP=1.88D-03 MaxDP=1.56D-01 DE=-3.70D-01 OVMax= 1.39D-01

 Cycle   3  Pass 1  IDiag  1:
 RMSU=  9.82D-04    CP:  9.98D-01  2.86D+00
 E= -2909.90081563010     Delta-E=       -0.704224585234 Rises=F Damp=F
 DIIS: error= 6.18D-03 at cycle   3 NSaved=   3.
 NSaved= 3 IEnMin= 3 EnMin= -2909.90081563010     IErMin= 3 ErrMin= 6.18D-03
 ErrMax= 6.18D-03  0.00D+00 EMaxC= 1.00D-01 BMatC= 3.70D-01 BMatP= 4.26D+00
 IDIUse=3 WtCom= 9.38D-01 WtEn= 6.18D-02
 Coeff-Com: -0.430D+00 0.766D+00 0.664D+00
 Coeff-En:   0.000D+00 0.000D+00 0.100D+01
 Coeff:     -0.403D+00 0.718D+00 0.685D+00
 Gap=     0.361 Goal=   None    Shift=    0.000
 Gap=     0.074 Goal=   None    Shift=    0.000
 RMSDP=6.40D-04 MaxDP=5.14D-02 DE=-7.04D-01 OVMax= 1.49D-01

 Cycle   4  Pass 1  IDiag  1:
 RMSU=  5.76D-04    CP:  9.98D-01  2.84D+00  7.15D-01
 E= -2909.94299100748     Delta-E=       -0.042175377379 Rises=F Damp=F
 DIIS: error= 5.43D-03 at cycle   4 NSaved=   4.
 NSaved= 4 IEnMin= 4 EnMin= -2909.94299100748     IErMin= 4 ErrMin= 5.43D-03
 ErrMax= 5.43D-03  0.00D+00 EMaxC= 1.00D-01 BMatC= 1.50D-01 BMatP= 3.70D-01
 IDIUse=3 WtCom= 9.46D-01 WtEn= 5.43D-02
 Coeff-Com:  0.391D-01-0.322D-01 0.390D+00 0.604D+00
 Coeff-En:   0.000D+00 0.000D+00 0.279D+00 0.721D+00
 Coeff:      0.370D-01-0.305D-01 0.384D+00 0.610D+00
 Gap=     0.364 Goal=   None    Shift=    0.000
 Gap=     0.112 Goal=   None    Shift=    0.000
 RMSDP=3.20D-04 MaxDP=5.08D-02 DE=-4.22D-02 OVMax= 1.44D-01

 Cycle   5  Pass 1  IDiag  1:
 RMSU=  1.83D-04    CP:  9.97D-01  2.81D+00  8.92D-01  6.64D-01
 E= -2909.97056105347     Delta-E=       -0.027570045990 Rises=F Damp=F
 DIIS: error= 1.67D-03 at cycle   5 NSaved=   5.
 NSaved= 5 IEnMin= 5 EnMin= -2909.97056105347     IErMin= 5 ErrMin= 1.67D-03
 ErrMax= 1.67D-03  0.00D+00 EMaxC= 1.00D-01 BMatC= 1.38D-02 BMatP= 1.50D-01
 IDIUse=3 WtCom= 9.83D-01 WtEn= 1.67D-02
 Coeff-Com:  0.498D-01-0.682D-01 0.169D+00 0.351D+00 0.498D+00
 Coeff-En:   0.000D+00 0.000D+00 0.000D+00 0.000D+00 0.100D+01
 Coeff:      0.489D-01-0.671D-01 0.166D+00 0.345D+00 0.507D+00
 Gap=     0.363 Goal=   None    Shift=    0.000
 Gap=     0.113 Goal=   None    Shift=    0.000
 RMSDP=7.70D-05 MaxDP=1.10D-02 DE=-2.76D-02 OVMax= 1.28D-02

 Cycle   6  Pass 1  IDiag  1:
 RMSU=  6.91D-05    CP:  9.97D-01  2.82D+00  8.96D-01  7.18D-01  9.64D-01
 E= -2909.97343837537     Delta-E=       -0.002877321900 Rises=F Damp=F
 DIIS: error= 1.09D-03 at cycle   6 NSaved=   6.
 NSaved= 6 IEnMin= 6 EnMin= -2909.97343837537     IErMin= 6 ErrMin= 1.09D-03
 ErrMax= 1.09D-03  0.00D+00 EMaxC= 1.00D-01 BMatC= 6.46D-04 BMatP= 1.38D-02
 IDIUse=3 WtCom= 9.89D-01 WtEn= 1.09D-02
 Coeff-Com: -0.174D-02 0.919D-04-0.314D-01-0.188D-01 0.156D-01 0.104D+01
 Coeff-En:   0.000D+00 0.000D+00 0.000D+00 0.000D+00 0.000D+00 0.100D+01
 Coeff:     -0.172D-02 0.909D-04-0.311D-01-0.186D-01 0.155D-01 0.104D+01
 Gap=     0.362 Goal=   None    Shift=    0.000
 Gap=     0.121 Goal=   None    Shift=    0.000
 RMSDP=7.24D-05 MaxDP=1.63D-02 DE=-2.88D-03 OVMax= 4.13D-02

 Cycle   7  Pass 1  IDiag  1:
 RMSU=  3.78D-05    CP:  9.97D-01  2.83D+00  9.02D-01  7.26D-01  1.25D+00
                    CP:  1.44D+00
 E= -2909.97432074130     Delta-E=       -0.000882365928 Rises=F Damp=F
 DIIS: error= 4.62D-04 at cycle   7 NSaved=   7.
 NSaved= 7 IEnMin= 7 EnMin= -2909.97432074130     IErMin= 7 ErrMin= 4.62D-04
 ErrMax= 4.62D-04  0.00D+00 EMaxC= 1.00D-01 BMatC= 7.00D-04 BMatP= 6.46D-04
 IDIUse=3 WtCom= 9.95D-01 WtEn= 4.62D-03
 Coeff-Com: -0.144D-01 0.186D-01-0.604D-01-0.944D-01-0.178D+00 0.598D+00
 Coeff-Com:  0.730D+00
 Coeff-En:   0.000D+00 0.000D+00 0.000D+00 0.000D+00 0.000D+00 0.000D+00
 Coeff-En:   0.100D+01
 Coeff:     -0.143D-01 0.185D-01-0.602D-01-0.939D-01-0.177D+00 0.595D+00
 Coeff:      0.731D+00
 Gap=     0.363 Goal=   None    Shift=    0.000
 Gap=     0.125 Goal=   None    Shift=    0.000
 RMSDP=4.72D-05 MaxDP=6.91D-03 DE=-8.82D-04 OVMax= 2.69D-02

 Cycle   8  Pass 1  IDiag  1:
 RMSU=  1.86D-05    CP:  9.97D-01  2.83D+00  9.06D-01  7.26D-01  1.42D+00
                    CP:  1.81D+00  1.43D+00
 E= -2909.97473831885     Delta-E=       -0.000417577548 Rises=F Damp=F
 DIIS: error= 2.33D-04 at cycle   8 NSaved=   8.
 NSaved= 8 IEnMin= 8 EnMin= -2909.97473831885     IErMin= 8 ErrMin= 2.33D-04
 ErrMax= 2.33D-04  0.00D+00 EMaxC= 1.00D-01 BMatC= 1.10D-04 BMatP= 6.46D-04
 IDIUse=3 WtCom= 9.98D-01 WtEn= 2.33D-03
 Coeff-Com: -0.450D-02 0.652D-02-0.142D-01-0.222D-01-0.991D-01 0.265D-01
 Coeff-Com:  0.152D+00 0.955D+00
 Coeff-En:   0.000D+00 0.000D+00 0.000D+00 0.000D+00 0.000D+00 0.000D+00
 Coeff-En:   0.000D+00 0.100D+01
 Coeff:     -0.449D-02 0.651D-02-0.141D-01-0.221D-01-0.989D-01 0.264D-01
 Coeff:      0.151D+00 0.955D+00
 Gap=     0.362 Goal=   None    Shift=    0.000
 Gap=     0.126 Goal=   None    Shift=    0.000
 RMSDP=3.70D-05 MaxDP=6.01D-03 DE=-4.18D-04 OVMax= 2.42D-02

 Cycle   9  Pass 1  IDiag  1:
 RMSU=  1.16D-05    CP:  9.97D-01  2.83D+00  9.05D-01  7.16D-01  1.53D+00
                    CP:  2.03D+00  2.00D+00  1.63D+00
 E= -2909.97490851523     Delta-E=       -0.000170196387 Rises=F Damp=F
 DIIS: error= 1.30D-04 at cycle   9 NSaved=   9.
 NSaved= 9 IEnMin= 9 EnMin= -2909.97490851523     IErMin= 9 ErrMin= 1.30D-04
 ErrMax= 1.30D-04  0.00D+00 EMaxC= 1.00D-01 BMatC= 6.89D-05 BMatP= 1.10D-04
 IDIUse=3 WtCom= 9.99D-01 WtEn= 1.30D-03
 Coeff-Com:  0.169D-02-0.208D-02 0.842D-02 0.163D-01-0.187D-01-0.132D+00
 Coeff-Com: -0.195D+00 0.563D+00 0.758D+00
 Coeff-En:   0.000D+00 0.000D+00 0.000D+00 0.000D+00 0.000D+00 0.000D+00
 Coeff-En:   0.000D+00 0.000D+00 0.100D+01
 Coeff:      0.169D-02-0.208D-02 0.841D-02 0.163D-01-0.187D-01-0.132D+00
 Coeff:     -0.195D+00 0.562D+00 0.759D+00
 Gap=     0.362 Goal=   None    Shift=    0.000
 Gap=     0.126 Goal=   None    Shift=    0.000
 RMSDP=2.66D-05 MaxDP=3.22D-03 DE=-1.70D-04 OVMax= 1.65D-02

 Cycle  10  Pass 1  IDiag  1:
 RMSU=  5.83D-06    CP:  9.97D-01  2.83D+00  9.06D-01  7.10D-01  1.59D+00
                    CP:  2.16D+00  2.42D+00  2.30D+00  1.48D+00
 E= -2909.97499127637     Delta-E=       -0.000082761135 Rises=F Damp=F
 DIIS: error= 1.02D-04 at cycle  10 NSaved=  10.
 NSaved=10 IEnMin=10 EnMin= -2909.97499127637     IErMin=10 ErrMin= 1.02D-04
 ErrMax= 1.02D-04  0.00D+00 EMaxC= 1.00D-01 BMatC= 1.54D-05 BMatP= 6.89D-05
 IDIUse=3 WtCom= 9.99D-01 WtEn= 1.02D-03
 Coeff-Com:  0.110D-02-0.160D-02 0.316D-02 0.845D-02 0.709D-02-0.189D-02
 Coeff-Com: -0.954D-01-0.948D-01-0.409D-01 0.121D+01
 Coeff-En:   0.000D+00 0.000D+00 0.000D+00 0.000D+00 0.000D+00 0.000D+00
 Coeff-En:   0.000D+00 0.000D+00 0.000D+00 0.100D+01
 Coeff:      0.109D-02-0.160D-02 0.316D-02 0.845D-02 0.709D-02-0.189D-02
 Coeff:     -0.953D-01-0.947D-01-0.409D-01 0.121D+01
 Gap=     0.361 Goal=   None    Shift=    0.000
 Gap=     0.126 Goal=   None    Shift=    0.000
 RMSDP=2.30D-05 MaxDP=2.87D-03 DE=-8.28D-05 OVMax= 1.39D-02

 Cycle  11  Pass 1  IDiag  1:
 RMSU=  3.51D-06    CP:  9.97D-01  2.83D+00  9.06D-01  7.03D-01  1.63D+00
                    CP:  2.24D+00  2.78D+00  2.87D+00  2.28D+00  1.91D+00
 E= -2909.97503466565     Delta-E=       -0.000043389284 Rises=F Damp=F
 DIIS: error= 6.42D-05 at cycle  11 NSaved=  11.
 NSaved=11 IEnMin=11 EnMin= -2909.97503466565     IErMin=11 ErrMin= 6.42D-05
 ErrMax= 6.42D-05  0.00D+00 EMaxC= 1.00D-01 BMatC= 7.56D-06 BMatP= 1.54D-05
 IDIUse=1 WtCom= 1.00D+00 WtEn= 0.00D+00
 Coeff-Com: -0.785D-03 0.954D-03-0.440D-02-0.535D-02 0.142D-02 0.847D-01
 Coeff-Com:  0.534D-01-0.271D+00-0.491D+00 0.733D+00 0.898D+00
 Coeff:     -0.785D-03 0.954D-03-0.440D-02-0.535D-02 0.142D-02 0.847D-01
 Coeff:      0.534D-01-0.271D+00-0.491D+00 0.733D+00 0.898D+00
 Gap=     0.361 Goal=   None    Shift=    0.000
 Gap=     0.126 Goal=   None    Shift=    0.000
 RMSDP=1.65D-05 MaxDP=2.17D-03 DE=-4.34D-05 OVMax= 9.44D-03

 Cycle  12  Pass 1  IDiag  1:
 RMSU=  5.98D-06    CP:  9.97D-01  2.83D+00  9.05D-01  6.97D-01  1.66D+00
                    CP:  2.27D+00  3.00D+00  3.00D+00  2.87D+00  2.86D+00
                    CP:  1.43D+00
 E= -2909.97505300361     Delta-E=       -0.000018337956 Rises=F Damp=F
 DIIS: error= 3.23D-05 at cycle  12 NSaved=  12.
 NSaved=12 IEnMin=12 EnMin= -2909.97505300361     IErMin=12 ErrMin= 3.23D-05
 ErrMax= 3.23D-05  0.00D+00 EMaxC= 1.00D-01 BMatC= 1.60D-06 BMatP= 7.56D-06
 IDIUse=1 WtCom= 1.00D+00 WtEn= 0.00D+00
 Coeff-Com: -0.828D-03 0.111D-02-0.353D-02-0.606D-02-0.631D-02 0.339D-01
 Coeff-Com:  0.573D-01-0.509D-01-0.215D+00-0.152D+00 0.314D+00 0.103D+01
 Coeff:     -0.828D-03 0.111D-02-0.353D-02-0.606D-02-0.631D-02 0.339D-01
 Coeff:      0.573D-01-0.509D-01-0.215D+00-0.152D+00 0.314D+00 0.103D+01
 Gap=     0.361 Goal=   None    Shift=    0.000
 Gap=     0.126 Goal=   None    Shift=    0.000
 RMSDP=1.13D-05 MaxDP=1.55D-03 DE=-1.83D-05 OVMax= 6.42D-03

 Cycle  13  Pass 1  IDiag  1:
 RMSU=  7.15D-06    CP:  9.97D-01  2.83D+00  9.05D-01  6.94D-01  1.68D+00
                    CP:  2.30D+00  3.00D+00  3.00D+00  3.00D+00  3.00D+00
                    CP:  2.04D+00  1.96D+00
 E= -2909.97505865524     Delta-E=       -0.000005651636 Rises=F Damp=F
 DIIS: error= 1.24D-05 at cycle  13 NSaved=  13.
 NSaved=13 IEnMin=13 EnMin= -2909.97505865524     IErMin=13 ErrMin= 1.24D-05
 ErrMax= 1.24D-05  0.00D+00 EMaxC= 1.00D-01 BMatC= 3.14D-07 BMatP= 1.60D-06
 IDIUse=1 WtCom= 1.00D+00 WtEn= 0.00D+00
 Coeff-Com: -0.138D-03 0.205D-03-0.556D-03-0.126D-02-0.334D-02-0.308D-02
 Coeff-Com:  0.144D-01 0.435D-01 0.150D-01-0.230D+00-0.785D-01 0.455D+00
 Coeff-Com:  0.789D+00
 Coeff:     -0.138D-03 0.205D-03-0.556D-03-0.126D-02-0.334D-02-0.308D-02
 Coeff:      0.144D-01 0.435D-01 0.150D-01-0.230D+00-0.785D-01 0.455D+00
 Coeff:      0.789D+00
 Gap=     0.361 Goal=   None    Shift=    0.000
 Gap=     0.126 Goal=   None    Shift=    0.000
 RMSDP=3.28D-06 MaxDP=4.97D-04 DE=-5.65D-06 OVMax= 1.77D-03

 Cycle  14  Pass 1  IDiag  1:
 RMSU=  9.23D-07    CP:  9.97D-01  2.83D+00  9.05D-01  6.92D-01  1.68D+00
                    CP:  2.31D+00  3.00D+00  3.00D+00  3.00D+00  3.00D+00
                    CP:  2.26D+00  2.25D+00  1.32D+00
 E= -2909.97505931541     Delta-E=       -0.000000660164 Rises=F Damp=F
 DIIS: error= 5.53D-06 at cycle  14 NSaved=  14.
 NSaved=14 IEnMin=14 EnMin= -2909.97505931541     IErMin=14 ErrMin= 5.53D-06
 ErrMax= 5.53D-06  0.00D+00 EMaxC= 1.00D-01 BMatC= 6.02D-08 BMatP= 3.14D-07
 IDIUse=1 WtCom= 1.00D+00 WtEn= 0.00D+00
 Coeff-Com:  0.113D-03-0.147D-03 0.467D-03 0.666D-03-0.202D-03-0.848D-02
 Coeff-Com: -0.681D-02 0.277D-01 0.480D-01-0.529D-01-0.104D+00-0.650D-01
 Coeff-Com:  0.288D+00 0.872D+00
 Coeff:      0.113D-03-0.147D-03 0.467D-03 0.666D-03-0.202D-03-0.848D-02
 Coeff:     -0.681D-02 0.277D-01 0.480D-01-0.529D-01-0.104D+00-0.650D-01
 Coeff:      0.288D+00 0.872D+00
 Gap=     0.361 Goal=   None    Shift=    0.000
 Gap=     0.126 Goal=   None    Shift=    0.000
 RMSDP=1.75D-06 MaxDP=2.68D-04 DE=-6.60D-07 OVMax= 9.87D-04

 Cycle  15  Pass 1  IDiag  1:
 RMSU=  2.76D-07    CP:  9.97D-01  2.83D+00  9.05D-01  6.92D-01  1.68D+00
                    CP:  2.31D+00  3.00D+00  3.00D+00  3.00D+00  3.00D+00
                    CP:  2.38D+00  2.40D+00  1.48D+00  1.36D+00
 E= -2909.97505944463     Delta-E=       -0.000000129217 Rises=F Damp=F
 DIIS: error= 2.03D-06 at cycle  15 NSaved=  15.
 NSaved=15 IEnMin=15 EnMin= -2909.97505944463     IErMin=15 ErrMin= 2.03D-06
 ErrMax= 2.03D-06  0.00D+00 EMaxC= 1.00D-01 BMatC= 8.25D-09 BMatP= 6.02D-08
 IDIUse=1 WtCom= 1.00D+00 WtEn= 0.00D+00
 Coeff-Com:  0.315D-04-0.413D-04 0.171D-03 0.292D-03 0.310D-03-0.113D-02
 Coeff-Com: -0.363D-02 0.902D-03 0.615D-02 0.205D-01-0.121D-01-0.850D-01
 Coeff-Com: -0.462D-01 0.217D+00 0.903D+00
 Coeff:      0.315D-04-0.413D-04 0.171D-03 0.292D-03 0.310D-03-0.113D-02
 Coeff:     -0.363D-02 0.902D-03 0.615D-02 0.205D-01-0.121D-01-0.850D-01
 Coeff:     -0.462D-01 0.217D+00 0.903D+00
 Gap=     0.361 Goal=   None    Shift=    0.000
 Gap=     0.126 Goal=   None    Shift=    0.000
 RMSDP=4.94D-07 MaxDP=8.00D-05 DE=-1.29D-07 OVMax= 2.59D-04

 Cycle  16  Pass 1  IDiag  1:
 RMSU=  1.19D-07    CP:  9.97D-01  2.83D+00  9.05D-01  6.91D-01  1.69D+00
                    CP:  2.31D+00  3.00D+00  3.00D+00  3.00D+00  3.00D+00
                    CP:  2.41D+00  2.44D+00  1.53D+00  1.51D+00  1.35D+00
 E= -2909.97505945621     Delta-E=       -0.000000011589 Rises=F Damp=F
 DIIS: error= 7.52D-07 at cycle  16 NSaved=  16.
 NSaved=16 IEnMin=16 EnMin= -2909.97505945621     IErMin=16 ErrMin= 7.52D-07
 ErrMax= 7.52D-07  0.00D+00 EMaxC= 1.00D-01 BMatC= 2.08D-09 BMatP= 8.25D-09
 IDIUse=1 WtCom= 1.00D+00 WtEn= 0.00D+00
 Coeff-Com: -0.110D-04 0.135D-04-0.352D-04-0.245D-04 0.972D-04 0.131D-02
 Coeff-Com: -0.228D-03-0.457D-02-0.748D-02 0.187D-01 0.176D-01-0.192D-01
 Coeff-Com: -0.704D-01-0.966D-01 0.343D+00 0.818D+00
 Coeff:     -0.110D-04 0.135D-04-0.352D-04-0.245D-04 0.972D-04 0.131D-02
 Coeff:     -0.228D-03-0.457D-02-0.748D-02 0.187D-01 0.176D-01-0.192D-01
 Coeff:     -0.704D-01-0.966D-01 0.343D+00 0.818D+00
 Gap=     0.361 Goal=   None    Shift=    0.000
 Gap=     0.126 Goal=   None    Shift=    0.000
 RMSDP=1.07D-07 MaxDP=1.19D-05 DE=-1.16D-08 OVMax= 5.10D-05

 Cycle  17  Pass 1  IDiag  1:
 RMSU=  5.35D-08    CP:  9.97D-01  2.83D+00  9.05D-01  6.91D-01  1.69D+00
                    CP:  2.31D+00  3.00D+00  3.00D+00  3.00D+00  3.00D+00
                    CP:  2.41D+00  2.44D+00  1.53D+00  1.55D+00  1.57D+00
                    CP:  1.40D+00
 E= -2909.97505945816     Delta-E=       -0.000000001941 Rises=F Damp=F
 DIIS: error= 5.96D-07 at cycle  17 NSaved=  17.
 NSaved=17 IEnMin=17 EnMin= -2909.97505945816     IErMin=17 ErrMin= 5.96D-07
 ErrMax= 5.96D-07  0.00D+00 EMaxC= 1.00D-01 BMatC= 3.29D-10 BMatP= 2.08D-09
 IDIUse=1 WtCom= 1.00D+00 WtEn= 0.00D+00
 Coeff-Com: -0.531D-05 0.656D-05-0.298D-04-0.411D-04-0.427D-04 0.394D-03
 Coeff-Com:  0.391D-03-0.774D-03-0.204D-02 0.315D-03 0.558D-02 0.873D-02
 Coeff-Com: -0.594D-02-0.562D-01-0.777D-01 0.165D+00 0.963D+00
 Coeff:     -0.531D-05 0.656D-05-0.298D-04-0.411D-04-0.427D-04 0.394D-03
 Coeff:      0.391D-03-0.774D-03-0.204D-02 0.315D-03 0.558D-02 0.873D-02
 Coeff:     -0.594D-02-0.562D-01-0.777D-01 0.165D+00 0.963D+00
 Gap=     0.361 Goal=   None    Shift=    0.000
 Gap=     0.126 Goal=   None    Shift=    0.000
 RMSDP=6.67D-08 MaxDP=8.19D-06 DE=-1.94D-09 OVMax= 3.35D-05

 Cycle  18  Pass 1  IDiag  1:
 RMSU=  2.64D-08    CP:  9.97D-01  2.83D+00  9.05D-01  6.91D-01  1.68D+00
                    CP:  2.31D+00  3.00D+00  3.00D+00  3.00D+00  3.00D+00
                    CP:  2.41D+00  2.44D+00  1.53D+00  1.57D+00  1.69D+00
                    CP:  1.72D+00  1.45D+00
 E= -2909.97505945892     Delta-E=       -0.000000000768 Rises=F Damp=F
 DIIS: error= 4.12D-07 at cycle  18 NSaved=  18.
 NSaved=18 IEnMin=18 EnMin= -2909.97505945892     IErMin=18 ErrMin= 4.12D-07
 ErrMax= 4.12D-07  0.00D+00 EMaxC= 1.00D-01 BMatC= 1.23D-10 BMatP= 3.29D-10
 IDIUse=1 WtCom= 1.00D+00 WtEn= 0.00D+00
 Coeff-Com:  0.628D-06-0.591D-06-0.284D-06-0.636D-05-0.283D-04-0.151D-03
 Coeff-Com:  0.179D-03 0.669D-03 0.104D-02-0.404D-02-0.205D-02 0.684D-02
 Coeff-Com:  0.127D-01 0.331D-02-0.961D-01-0.127D+00 0.307D+00 0.898D+00
 Coeff:      0.628D-06-0.591D-06-0.284D-06-0.636D-05-0.283D-04-0.151D-03
 Coeff:      0.179D-03 0.669D-03 0.104D-02-0.404D-02-0.205D-02 0.684D-02
 Coeff:      0.127D-01 0.331D-02-0.961D-01-0.127D+00 0.307D+00 0.898D+00
 Gap=     0.361 Goal=   None    Shift=    0.000
 Gap=     0.126 Goal=   None    Shift=    0.000
 RMSDP=4.17D-08 MaxDP=6.38D-06 DE=-7.68D-10 OVMax= 2.10D-05

 Cycle  19  Pass 1  IDiag  1:
 RMSU=  1.37D-08    CP:  9.97D-01  2.83D+00  9.05D-01  6.91D-01  1.68D+00
                    CP:  2.31D+00  3.00D+00  3.00D+00  3.00D+00  3.00D+00
                    CP:  2.41D+00  2.44D+00  1.53D+00  1.58D+00  1.75D+00
                    CP:  1.89D+00  1.82D+00  1.74D+00
 E= -2909.97505945909     Delta-E=       -0.000000000167 Rises=F Damp=F
 DIIS: error= 2.84D-07 at cycle  19 NSaved=  19.
 NSaved=19 IEnMin=19 EnMin= -2909.97505945909     IErMin=19 ErrMin= 2.84D-07
 ErrMax= 2.84D-07  0.00D+00 EMaxC= 1.00D-01 BMatC= 5.22D-11 BMatP= 1.23D-10
 IDIUse=1 WtCom= 1.00D+00 WtEn= 0.00D+00
 Coeff-Com:  0.272D-05-0.342D-05 0.126D-04 0.157D-04 0.135D-04-0.215D-03
 Coeff-Com: -0.920D-04 0.488D-03 0.122D-02-0.149D-02-0.285D-02-0.749D-03
 Coeff-Com:  0.642D-02 0.223D-01-0.465D-02-0.105D+00-0.237D+00 0.309D+00
 Coeff-Com:  0.101D+01
 Coeff:      0.272D-05-0.342D-05 0.126D-04 0.157D-04 0.135D-04-0.215D-03
 Coeff:     -0.920D-04 0.488D-03 0.122D-02-0.149D-02-0.285D-02-0.749D-03
 Coeff:      0.642D-02 0.223D-01-0.465D-02-0.105D+00-0.237D+00 0.309D+00
 Coeff:      0.101D+01
 Gap=     0.361 Goal=   None    Shift=    0.000
 Gap=     0.126 Goal=   None    Shift=    0.000
 RMSDP=3.58D-08 MaxDP=5.66D-06 DE=-1.67D-10 OVMax= 1.65D-05

 Cycle  20  Pass 1  IDiag  1:
 RMSU=  8.32D-09    CP:  9.97D-01  2.83D+00  9.05D-01  6.91D-01  1.68D+00
                    CP:  2.31D+00  3.00D+00  3.00D+00  3.00D+00  3.00D+00
                    CP:  2.42D+00  2.44D+00  1.53D+00  1.59D+00  1.78D+00
                    CP:  2.02D+00  2.13D+00  2.56D+00  1.62D+00
 E= -2909.97505945920     Delta-E=       -0.000000000111 Rises=F Damp=F
 DIIS: error= 1.75D-07 at cycle  20 NSaved=  20.
 NSaved=20 IEnMin=20 EnMin= -2909.97505945920     IErMin=20 ErrMin= 1.75D-07
 ErrMax= 1.75D-07  0.00D+00 EMaxC= 1.00D-01 BMatC= 2.29D-11 BMatP= 5.22D-11
 IDIUse=1 WtCom= 1.00D+00 WtEn= 0.00D+00
 Coeff-Com:  0.552D-06-0.779D-06 0.413D-05 0.727D-05 0.161D-04-0.182D-04
 Coeff-Com: -0.103D-03-0.844D-04 0.410D-04 0.115D-02-0.242D-03-0.319D-02
 Coeff-Com: -0.294D-02 0.743D-02 0.407D-01 0.146D-01-0.223D+00-0.257D+00
 Coeff-Com:  0.419D+00 0.100D+01
 Coeff:      0.552D-06-0.779D-06 0.413D-05 0.727D-05 0.161D-04-0.182D-04
 Coeff:     -0.103D-03-0.844D-04 0.410D-04 0.115D-02-0.242D-03-0.319D-02
 Coeff:     -0.294D-02 0.743D-02 0.407D-01 0.146D-01-0.223D+00-0.257D+00
 Coeff:      0.419D+00 0.100D+01
 Gap=     0.361 Goal=   None    Shift=    0.000
 Gap=     0.126 Goal=   None    Shift=    0.000
 RMSDP=2.75D-08 MaxDP=4.26D-06 DE=-1.11D-10 OVMax= 1.33D-05

 Cycle  21  Pass 1  IDiag  1:
 Restarting incremental Fock formation.
 E= -2909.97505945998     Delta-E=       -0.000000000782 Rises=F Damp=F
 DIIS: error= 9.49D-08 at cycle  21 NSaved=  20.
 NSaved=20 IEnMin=20 EnMin= -2909.97505945998     IErMin=20 ErrMin= 9.49D-08
 ErrMax= 9.49D-08  0.00D+00 EMaxC= 1.00D-01 BMatC= 8.71D-12 BMatP= 2.29D-11
 IDIUse=1 WtCom= 1.00D+00 WtEn= 0.00D+00
 Coeff-Com: -0.168D-06-0.807D-06 0.132D-05 0.961D-05 0.628D-04-0.431D-04
 Coeff-Com: -0.241D-03-0.463D-03 0.120D-02 0.956D-03-0.142D-02-0.393D-02
 Coeff-Com: -0.536D-02 0.209D-01 0.500D-01-0.870D-02-0.254D+00-0.228D+00
 Coeff-Com:  0.455D+00 0.975D+00
 Coeff:     -0.168D-06-0.807D-06 0.132D-05 0.961D-05 0.628D-04-0.431D-04
 Coeff:     -0.241D-03-0.463D-03 0.120D-02 0.956D-03-0.142D-02-0.393D-02
 Coeff:     -0.536D-02 0.209D-01 0.500D-01-0.870D-02-0.254D+00-0.228D+00
 Coeff:      0.455D+00 0.975D+00
 Gap=     0.361 Goal=   None    Shift=    0.000
 Gap=     0.126 Goal=   None    Shift=    0.000
 RMSDP=1.96D-08 MaxDP=3.27D-06 DE=-7.82D-10 OVMax= 1.05D-05

 Cycle  22  Pass 1  IDiag  1:
 RMSU=  1.96D-08    CP:  1.00D+00
 E= -2909.97505945994     Delta-E=        0.000000000045 Rises=F Damp=F
 DIIS: error= 4.30D-08 at cycle  22 NSaved=  20.
 NSaved=20 IEnMin=19 EnMin= -2909.97505945998     IErMin=20 ErrMin= 4.30D-08
 ErrMax= 4.30D-08  0.00D+00 EMaxC= 1.00D-01 BMatC= 2.80D-12 BMatP= 8.71D-12
 IDIUse=1 WtCom= 1.00D+00 WtEn= 0.00D+00
 Coeff-Com: -0.143D-05-0.187D-05-0.295D-05 0.235D-04 0.175D-04-0.326D-04
 Coeff-Com: -0.164D-03 0.375D-05 0.357D-03 0.641D-03-0.218D-03-0.432D-02
 Coeff-Com: -0.685D-02 0.132D-01 0.759D-01-0.843D-02-0.232D+00-0.189D+00
 Coeff-Com:  0.405D+00 0.945D+00
 Coeff:     -0.143D-05-0.187D-05-0.295D-05 0.235D-04 0.175D-04-0.326D-04
 Coeff:     -0.164D-03 0.375D-05 0.357D-03 0.641D-03-0.218D-03-0.432D-02
 Coeff:     -0.685D-02 0.132D-01 0.759D-01-0.843D-02-0.232D+00-0.189D+00
 Coeff:      0.405D+00 0.945D+00
 Gap=     0.361 Goal=   None    Shift=    0.000
 Gap=     0.126 Goal=   None    Shift=    0.000
 RMSDP=9.77D-09 MaxDP=1.54D-06 DE= 4.55D-11 OVMax= 5.35D-06

 Cycle  23  Pass 1  IDiag  1:
 RMSU=  2.69D-09    CP:  1.00D+00  1.48D+00
 E= -2909.97505945988     Delta-E=        0.000000000058 Rises=F Damp=F
 DIIS: error= 2.17D-08 at cycle  23 NSaved=  20.
 NSaved=20 IEnMin=18 EnMin= -2909.97505945998     IErMin=20 ErrMin= 2.17D-08
 ErrMax= 2.17D-08  0.00D+00 EMaxC= 1.00D-01 BMatC= 7.16D-13 BMatP= 2.80D-12
 IDIUse=1 WtCom= 1.00D+00 WtEn= 0.00D+00
 Coeff-Com: -0.579D-06-0.272D-05-0.845D-05 0.132D-04 0.426D-04 0.696D-04
 Coeff-Com: -0.263D-03-0.139D-03 0.547D-03 0.754D-03-0.104D-03-0.745D-02
 Coeff-Com: -0.790D-02 0.305D-01 0.664D-01-0.205D-01-0.209D+00-0.126D+00
 Coeff-Com:  0.370D+00 0.903D+00
 Coeff:     -0.579D-06-0.272D-05-0.845D-05 0.132D-04 0.426D-04 0.696D-04
 Coeff:     -0.263D-03-0.139D-03 0.547D-03 0.754D-03-0.104D-03-0.745D-02
 Coeff:     -0.790D-02 0.305D-01 0.664D-01-0.205D-01-0.209D+00-0.126D+00
 Coeff:      0.370D+00 0.903D+00
 Gap=     0.361 Goal=   None    Shift=    0.000
 Gap=     0.126 Goal=   None    Shift=    0.000
 RMSDP=4.11D-09 MaxDP=6.62D-07 DE= 5.82D-11 OVMax= 2.23D-06

 Error on total polarization charges =  0.00151
 SCF Done:  E(UCAM-B3LYP) =  -2909.97505946     A.U. after   23 cycles
            NFock= 23  Conv=0.41D-08     -V/T= 2.0074
 <Sx>= 0.0000 <Sy>= 0.0000 <Sz>= 0.5000 <S**2>= 0.7543 S= 0.5021
 <L.S>= 0.000000000000E+00
 KE= 2.888572625245D+03 PE=-1.915735814256D+04 EE= 7.201859378739D+03
 Annihilation of the first spin contaminant:
 S**2 before annihilation     0.7543,   after     0.7500
 Leave Link  502 at Sun Mar  3 18:02:36 2024, MaxMem=  5368709120 cpu:      2791.9
 (Enter /home/k0335/k033513/app/g09/l601.exe)
 Copying SCF densities to generalized density rwf, IOpCl= 1 IROHF=0.

 **********************************************************************

            Population analysis using the SCF density.

 **********************************************************************

 Alpha  occ. eigenvalues --  -24.86613 -24.85987 -24.85832 -24.85682 -24.85563
 Alpha  occ. eigenvalues --  -24.85389 -24.85339 -24.85283 -24.85104 -24.84990
 Alpha  occ. eigenvalues --  -24.84929 -24.84869 -24.84699 -24.84603 -24.84585
 Alpha  occ. eigenvalues --  -24.84511 -24.84481 -24.84361 -19.50908 -19.34998
 Alpha  occ. eigenvalues --  -19.34686 -19.29477 -19.29446 -19.28172 -14.58054
 Alpha  occ. eigenvalues --  -14.57397 -14.57362 -10.61269 -10.60791 -10.57496
 Alpha  occ. eigenvalues --  -10.57455 -10.56585 -10.56208 -10.51431 -10.51385
 Alpha  occ. eigenvalues --  -10.51380 -10.51225 -10.50573 -10.48942 -10.42748
 Alpha  occ. eigenvalues --   -1.45143  -1.44456  -1.43935  -1.43863  -1.41595
 Alpha  occ. eigenvalues --   -1.41473  -1.37544  -1.37526  -1.35635  -1.35597
 Alpha  occ. eigenvalues --   -1.35432  -1.35291  -1.34676  -1.34642  -1.34451
 Alpha  occ. eigenvalues --   -1.34161  -1.34037  -1.33853  -1.33812  -1.28290
 Alpha  occ. eigenvalues --   -1.23242  -1.22723  -1.22307  -1.22038  -1.14907
 Alpha  occ. eigenvalues --   -1.13148  -1.12933  -0.97232  -0.95521  -0.95127
 Alpha  occ. eigenvalues --   -0.89274  -0.88556  -0.88093  -0.84305  -0.83657
 Alpha  occ. eigenvalues --   -0.83136  -0.82522  -0.80478  -0.79844  -0.77991
 Alpha  occ. eigenvalues --   -0.76430  -0.75325  -0.74744  -0.74192  -0.73528
 Alpha  occ. eigenvalues --   -0.73254  -0.73195  -0.72601  -0.72339  -0.71701
 Alpha  occ. eigenvalues --   -0.71039  -0.70921  -0.70687  -0.70272  -0.70047
 Alpha  occ. eigenvalues --   -0.69707  -0.69589  -0.67926  -0.67494  -0.66963
 Alpha  occ. eigenvalues --   -0.66259  -0.65985  -0.63285  -0.61834  -0.61162
 Alpha  occ. eigenvalues --   -0.60951  -0.60859  -0.60051  -0.59539  -0.59488
 Alpha  occ. eigenvalues --   -0.59165  -0.58987  -0.58919  -0.58737  -0.58279
 Alpha  occ. eigenvalues --   -0.58025  -0.57934  -0.57471  -0.57071  -0.56899
 Alpha  occ. eigenvalues --   -0.56705  -0.56518  -0.56371  -0.56144  -0.55820
 Alpha  occ. eigenvalues --   -0.55716  -0.55455  -0.55016  -0.54791  -0.54525
 Alpha  occ. eigenvalues --   -0.54321  -0.54044  -0.53888  -0.53739  -0.53485
 Alpha  occ. eigenvalues --   -0.53045  -0.52734  -0.52531  -0.52518  -0.52391
 Alpha  occ. eigenvalues --   -0.51954  -0.51638  -0.51601  -0.51159  -0.50852
 Alpha  occ. eigenvalues --   -0.50713  -0.50410  -0.49815  -0.47708  -0.46970
 Alpha  occ. eigenvalues --   -0.46373  -0.45036  -0.44374  -0.44146  -0.42935
 Alpha  occ. eigenvalues --   -0.42394  -0.40628
 Alpha virt. eigenvalues --   -0.04487  -0.04043   0.01237   0.03022   0.03918
 Alpha virt. eigenvalues --    0.04129   0.05568   0.06277   0.08645   0.09284
 Alpha virt. eigenvalues --    0.09822   0.10806   0.11926   0.13032   0.13915
 Alpha virt. eigenvalues --    0.14375   0.15069   0.16307   0.16747   0.17598
 Alpha virt. eigenvalues --    0.18230   0.18874   0.19808   0.20082   0.20380
 Alpha virt. eigenvalues --    0.20922   0.21179   0.21550   0.21576   0.21703
 Alpha virt. eigenvalues --    0.21809   0.22548   0.22730   0.23024   0.24095
 Alpha virt. eigenvalues --    0.24753   0.26331   0.26780   0.28064   0.29235
 Alpha virt. eigenvalues --    0.30421   0.31278   0.33152   0.33527   0.34494
 Alpha virt. eigenvalues --    0.34602   0.36237   0.41166   0.42463   0.44942
 Alpha virt. eigenvalues --    0.45585   0.45967   0.46712   0.47377   0.48191
 Alpha virt. eigenvalues --    0.49237   0.49632   0.49857   0.50281   0.50679
 Alpha virt. eigenvalues --    0.51236   0.51662   0.52067   0.52418   0.52748
 Alpha virt. eigenvalues --    0.53162   0.54446   0.54665   0.55115   0.55544
 Alpha virt. eigenvalues --    0.56323   0.56626   0.58016   0.58927   0.59599
 Alpha virt. eigenvalues --    0.60065   0.61429   0.63177   0.64609   0.65219
 Alpha virt. eigenvalues --    0.66163   0.68599   0.69790   0.70031   0.71489
 Alpha virt. eigenvalues --    0.72459   0.73906   0.74654   0.75676   0.76536
 Alpha virt. eigenvalues --    0.77401   0.78559   0.79124   0.79609   0.81272
 Alpha virt. eigenvalues --    0.82380   0.82986   0.83258   0.83957   0.84420
 Alpha virt. eigenvalues --    0.85294   0.86017   0.87087   0.88635   0.90323
 Alpha virt. eigenvalues --    0.91365   0.92161   0.92756   0.93894   0.94457
 Alpha virt. eigenvalues --    0.96383   0.97016   0.98119   0.99580   1.01230
 Alpha virt. eigenvalues --    1.01892   1.02968   1.03368   1.03990   1.04643
 Alpha virt. eigenvalues --    1.05819   1.06906   1.07148   1.07280   1.08706
 Alpha virt. eigenvalues --    1.09408   1.09616   1.10798   1.10846   1.11799
 Alpha virt. eigenvalues --    1.12374   1.12853   1.13605   1.13954   1.14426
 Alpha virt. eigenvalues --    1.14655   1.15136   1.15873   1.16710   1.17209
 Alpha virt. eigenvalues --    1.17556   1.18845   1.19084   1.20115   1.20975
 Alpha virt. eigenvalues --    1.21179   1.22116   1.23543   1.24232   1.24719
 Alpha virt. eigenvalues --    1.25969   1.26962   1.27338   1.27918   1.28181
 Alpha virt. eigenvalues --    1.29373   1.29726   1.30555   1.31449   1.31699
 Alpha virt. eigenvalues --    1.32588   1.32929   1.33464   1.33857   1.34244
 Alpha virt. eigenvalues --    1.34492   1.35222   1.36105   1.36406   1.36896
 Alpha virt. eigenvalues --    1.37385   1.38214   1.38560   1.39095   1.39291
 Alpha virt. eigenvalues --    1.39475   1.39779   1.39826   1.40200   1.40448
 Alpha virt. eigenvalues --    1.41556   1.42374   1.43504   1.44013   1.44953
 Alpha virt. eigenvalues --    1.45468   1.45829   1.46924   1.47751   1.47949
 Alpha virt. eigenvalues --    1.48746   1.49066   1.49878   1.50468   1.51476
 Alpha virt. eigenvalues --    1.52120   1.52713   1.53550   1.53948   1.55075
 Alpha virt. eigenvalues --    1.56380   1.56796   1.57490   1.58943   1.59099
 Alpha virt. eigenvalues --    1.59415   1.60111   1.60810   1.61718   1.62390
 Alpha virt. eigenvalues --    1.62738   1.64084   1.65375   1.66004   1.66673
 Alpha virt. eigenvalues --    1.66895   1.67700   1.68668   1.69839   1.70652
 Alpha virt. eigenvalues --    1.71019   1.72051   1.72515   1.73410   1.73444
 Alpha virt. eigenvalues --    1.74337   1.75241   1.75697   1.76052   1.76853
 Alpha virt. eigenvalues --    1.77589   1.78327   1.78859   1.80265   1.80388
 Alpha virt. eigenvalues --    1.80614   1.81382   1.81708   1.81891   1.82489
 Alpha virt. eigenvalues --    1.83313   1.83688   1.84038   1.84454   1.84921
 Alpha virt. eigenvalues --    1.85237   1.85482   1.85619   1.86103   1.86249
 Alpha virt. eigenvalues --    1.86976   1.87452   1.87686   1.88069   1.88401
 Alpha virt. eigenvalues --    1.88781   1.89289   1.89679   1.90188   1.90409
 Alpha virt. eigenvalues --    1.90638   1.91407   1.92111   1.92360   1.92717
 Alpha virt. eigenvalues --    1.93135   1.93741   1.94540   1.94895   1.95330
 Alpha virt. eigenvalues --    1.96066   1.96603   1.96825   1.97266   1.97867
 Alpha virt. eigenvalues --    1.98258   1.98561   1.98842   1.99263   1.99835
 Alpha virt. eigenvalues --    2.00425   2.00542   2.01072   2.01291   2.01568
 Alpha virt. eigenvalues --    2.01705   2.01902   2.02431   2.02747   2.02923
 Alpha virt. eigenvalues --    2.03828   2.04382   2.04869   2.05657   2.05933
 Alpha virt. eigenvalues --    2.06463   2.07035   2.07443   2.08259   2.08347
 Alpha virt. eigenvalues --    2.08970   2.09720   2.09886   2.10593   2.11700
 Alpha virt. eigenvalues --    2.12201   2.12693   2.13635   2.14103   2.14547
 Alpha virt. eigenvalues --    2.15998   2.17045   2.17468   2.18003   2.19265
 Alpha virt. eigenvalues --    2.20050   2.20822   2.20991   2.21487   2.21842
 Alpha virt. eigenvalues --    2.22955   2.24929   2.25561   2.25712   2.27849
 Alpha virt. eigenvalues --    2.28188   2.28791   2.29227   2.30624   2.31635
 Alpha virt. eigenvalues --    2.32967   2.33791   2.34365   2.34820   2.36661
 Alpha virt. eigenvalues --    2.38386   2.39529   2.40885   2.41830   2.43071
 Alpha virt. eigenvalues --    2.44015   2.44417   2.45508   2.45832   2.46492
 Alpha virt. eigenvalues --    2.48527   2.50083   2.50405   2.51180   2.52002
 Alpha virt. eigenvalues --    2.52756   2.53371   2.54225   2.55656   2.56211
 Alpha virt. eigenvalues --    2.57436   2.58243   2.59440   2.60178   2.61408
 Alpha virt. eigenvalues --    2.61796   2.62590   2.63153   2.64617   2.65130
 Alpha virt. eigenvalues --    2.66395   2.68859   2.69893   2.70742   2.71664
 Alpha virt. eigenvalues --    2.73732   2.74899   2.75933   2.76601   2.77917
 Alpha virt. eigenvalues --    2.79602   2.80694   2.82003   2.82452   2.83320
 Alpha virt. eigenvalues --    2.84093   2.85758   2.85955   2.86822   2.87405
 Alpha virt. eigenvalues --    2.89129   2.89598   2.89740   2.90525   2.91565
 Alpha virt. eigenvalues --    2.92993   2.93477   2.95187   2.95774   2.97255
 Alpha virt. eigenvalues --    2.98032   2.99291   3.00210   3.01555   3.03324
 Alpha virt. eigenvalues --    3.04462   3.05082   3.05463   3.07481   3.08703
 Alpha virt. eigenvalues --    3.09015   3.10418   3.11713   3.13228   3.14374
 Alpha virt. eigenvalues --    3.14710   3.15093   3.18522   3.19171   3.20816
 Alpha virt. eigenvalues --    3.21937   3.22512   3.24768   3.27419   3.28060
 Alpha virt. eigenvalues --    3.29775   3.33957   3.34966   3.35328   3.39873
 Alpha virt. eigenvalues --    3.41625   3.43853   3.50212   3.82447   3.98090
 Alpha virt. eigenvalues --    3.99935   4.12115   4.14188   4.16608   4.22527
 Alpha virt. eigenvalues --    4.25486   4.31855   4.33006   4.36861   4.37653
 Alpha virt. eigenvalues --    4.39416   4.40389   4.43913   4.46085   4.47650
 Alpha virt. eigenvalues --    4.54896   4.56835   4.61072   4.64250   4.69999
 Alpha virt. eigenvalues --    4.73115   4.74010   4.85625   4.95755   4.99862
 Alpha virt. eigenvalues --    5.00743   5.11116   5.16542   5.35260   5.44098
 Alpha virt. eigenvalues --    5.51419   5.66669   5.74250   5.87673   6.17549
 Alpha virt. eigenvalues --    6.23259   6.36052   6.71055
  Beta  occ. eigenvalues --  -24.86613 -24.85987 -24.85831 -24.85682 -24.85562
  Beta  occ. eigenvalues --  -24.85389 -24.85339 -24.85283 -24.85104 -24.84990
  Beta  occ. eigenvalues --  -24.84929 -24.84869 -24.84699 -24.84603 -24.84585
  Beta  occ. eigenvalues --  -24.84511 -24.84481 -24.84361 -19.48783 -19.34998
  Beta  occ. eigenvalues --  -19.34686 -19.29430 -19.29400 -19.28169 -14.58061
  Beta  occ. eigenvalues --  -14.57398 -14.57362 -10.61269 -10.60791 -10.57496
  Beta  occ. eigenvalues --  -10.57455 -10.56585 -10.56208 -10.51434 -10.51388
  Beta  occ. eigenvalues --  -10.51380 -10.51225 -10.50573 -10.48945 -10.42752
  Beta  occ. eigenvalues --   -1.45143  -1.44456  -1.43935  -1.43863  -1.41594
  Beta  occ. eigenvalues --   -1.41471  -1.37544  -1.37525  -1.35635  -1.35434
  Beta  occ. eigenvalues --   -1.35292  -1.34676  -1.34642  -1.34451  -1.34161
  Beta  occ. eigenvalues --   -1.34037  -1.33853  -1.33811  -1.31363  -1.28032
  Beta  occ. eigenvalues --   -1.23175  -1.22653  -1.22299  -1.22037  -1.14828
  Beta  occ. eigenvalues --   -1.13021  -1.12909  -0.96956  -0.95443  -0.94870
  Beta  occ. eigenvalues --   -0.89089  -0.88513  -0.87035  -0.84274  -0.83386
  Beta  occ. eigenvalues --   -0.82808  -0.82509  -0.80282  -0.79674  -0.77967
  Beta  occ. eigenvalues --   -0.76367  -0.75294  -0.74569  -0.73901  -0.73247
  Beta  occ. eigenvalues --   -0.72519  -0.72397  -0.71963  -0.71692  -0.70975
  Beta  occ. eigenvalues --   -0.70789  -0.70647  -0.70431  -0.69995  -0.69698
  Beta  occ. eigenvalues --   -0.69586  -0.67931  -0.67518  -0.67007  -0.66549
  Beta  occ. eigenvalues --   -0.66169  -0.65875  -0.62525  -0.61816  -0.61085
  Beta  occ. eigenvalues --   -0.60705  -0.60039  -0.59857  -0.59500  -0.59152
  Beta  occ. eigenvalues --   -0.59039  -0.58951  -0.58827  -0.58702  -0.58240
  Beta  occ. eigenvalues --   -0.57958  -0.57508  -0.57428  -0.56961  -0.56861
  Beta  occ. eigenvalues --   -0.56597  -0.56430  -0.56339  -0.56088  -0.55778
  Beta  occ. eigenvalues --   -0.55447  -0.55012  -0.54908  -0.54519  -0.54346
  Beta  occ. eigenvalues --   -0.54039  -0.53873  -0.53749  -0.53484  -0.53042
  Beta  occ. eigenvalues --   -0.52732  -0.52526  -0.52516  -0.52390  -0.51949
  Beta  occ. eigenvalues --   -0.51638  -0.51599  -0.51157  -0.50851  -0.50711
  Beta  occ. eigenvalues --   -0.50409  -0.49813  -0.47704  -0.46961  -0.46341
  Beta  occ. eigenvalues --   -0.44826  -0.44299  -0.43929  -0.42855  -0.42379
  Beta  occ. eigenvalues --   -0.40520
  Beta virt. eigenvalues --   -0.27877  -0.04461  -0.03943   0.01497   0.03040
  Beta virt. eigenvalues --    0.04083   0.04248   0.05601   0.06412   0.09113
  Beta virt. eigenvalues --    0.09727   0.10486   0.11185   0.12070   0.13118
  Beta virt. eigenvalues --    0.14312   0.14408   0.15520   0.16580   0.16847
  Beta virt. eigenvalues --    0.17621   0.18239   0.18948   0.19855   0.20125
  Beta virt. eigenvalues --    0.20443   0.20941   0.21180   0.21557   0.21587
  Beta virt. eigenvalues --    0.21729   0.21814   0.22564   0.22739   0.23031
  Beta virt. eigenvalues --    0.24115   0.24757   0.26335   0.26787   0.28084
  Beta virt. eigenvalues --    0.29237   0.30432   0.31279   0.33179   0.33654
  Beta virt. eigenvalues --    0.34527   0.34631   0.36256   0.41265   0.42555
  Beta virt. eigenvalues --    0.45048   0.45755   0.46097   0.46727   0.47476
  Beta virt. eigenvalues --    0.48243   0.49253   0.49734   0.49937   0.50688
  Beta virt. eigenvalues --    0.50828   0.51600   0.51953   0.52085   0.52432
  Beta virt. eigenvalues --    0.52770   0.53211   0.54476   0.54669   0.55300
  Beta virt. eigenvalues --    0.55750   0.56386   0.56750   0.58041   0.58960
  Beta virt. eigenvalues --    0.59639   0.60093   0.61479   0.63246   0.64664
  Beta virt. eigenvalues --    0.65242   0.66209   0.68704   0.70005   0.70129
  Beta virt. eigenvalues --    0.71745   0.72503   0.74244   0.75716   0.76152
  Beta virt. eigenvalues --    0.76934   0.77555   0.79091   0.79576   0.79984
  Beta virt. eigenvalues --    0.81383   0.82555   0.83326   0.83525   0.84450
  Beta virt. eigenvalues --    0.84803   0.85407   0.86119   0.87325   0.88662
  Beta virt. eigenvalues --    0.90686   0.91890   0.92461   0.93276   0.94010
  Beta virt. eigenvalues --    0.94973   0.96439   0.97284   0.98244   1.00165
  Beta virt. eigenvalues --    1.01395   1.01985   1.03339   1.03712   1.04046
  Beta virt. eigenvalues --    1.04697   1.05930   1.07045   1.07208   1.07290
  Beta virt. eigenvalues --    1.08782   1.09514   1.09798   1.10830   1.11259
  Beta virt. eigenvalues --    1.11999   1.12437   1.12872   1.13674   1.13973
  Beta virt. eigenvalues --    1.14580   1.14903   1.15216   1.15912   1.16819
  Beta virt. eigenvalues --    1.17254   1.17576   1.18860   1.19105   1.20133
  Beta virt. eigenvalues --    1.21159   1.21194   1.22148   1.23705   1.24425
  Beta virt. eigenvalues --    1.24767   1.26061   1.27324   1.27576   1.28178
  Beta virt. eigenvalues --    1.28572   1.29380   1.29751   1.30578   1.31648
  Beta virt. eigenvalues --    1.31769   1.32597   1.32940   1.33491   1.33943
  Beta virt. eigenvalues --    1.34292   1.34528   1.35291   1.36164   1.36411
  Beta virt. eigenvalues --    1.36915   1.37474   1.38534   1.38726   1.39119
  Beta virt. eigenvalues --    1.39315   1.39497   1.39783   1.39884   1.40250
  Beta virt. eigenvalues --    1.40498   1.41599   1.42418   1.43545   1.44060
  Beta virt. eigenvalues --    1.44996   1.45606   1.45849   1.46969   1.47790
  Beta virt. eigenvalues --    1.48023   1.48797   1.49113   1.49909   1.50496
  Beta virt. eigenvalues --    1.51517   1.52134   1.52846   1.53562   1.53961
  Beta virt. eigenvalues --    1.55156   1.56415   1.56863   1.57532   1.59122
  Beta virt. eigenvalues --    1.59149   1.59510   1.60144   1.61046   1.61789
  Beta virt. eigenvalues --    1.62554   1.62754   1.64149   1.65433   1.66029
  Beta virt. eigenvalues --    1.66708   1.67013   1.67906   1.68855   1.69878
  Beta virt. eigenvalues --    1.70686   1.71055   1.72135   1.72671   1.73434
  Beta virt. eigenvalues --    1.73553   1.74637   1.75460   1.75832   1.76512
  Beta virt. eigenvalues --    1.77181   1.77638   1.78388   1.78974   1.80394
  Beta virt. eigenvalues --    1.80434   1.81181   1.81540   1.82060   1.82220
  Beta virt. eigenvalues --    1.82526   1.83443   1.83786   1.84220   1.84476
  Beta virt. eigenvalues --    1.85256   1.85563   1.85874   1.86043   1.86330
  Beta virt. eigenvalues --    1.87088   1.87290   1.87689   1.87946   1.88295
  Beta virt. eigenvalues --    1.88471   1.89124   1.89452   1.89820   1.90432
  Beta virt. eigenvalues --    1.90676   1.90824   1.91468   1.92324   1.92457
  Beta virt. eigenvalues --    1.92915   1.93203   1.93751   1.94590   1.95080
  Beta virt. eigenvalues --    1.95586   1.96091   1.96651   1.96918   1.97361
  Beta virt. eigenvalues --    1.97997   1.98300   1.98844   1.99160   1.99558
  Beta virt. eigenvalues --    1.99880   2.00462   2.00577   2.01170   2.01434
  Beta virt. eigenvalues --    2.01668   2.01902   2.02195   2.02492   2.02761
  Beta virt. eigenvalues --    2.02929   2.03858   2.04448   2.05021   2.05705
  Beta virt. eigenvalues --    2.06043   2.06536   2.07052   2.07558   2.08284
  Beta virt. eigenvalues --    2.08358   2.08976   2.09729   2.09899   2.10605
  Beta virt. eigenvalues --    2.11753   2.12243   2.13334   2.13654   2.14132
  Beta virt. eigenvalues --    2.14611   2.16015   2.17076   2.17475   2.18008
  Beta virt. eigenvalues --    2.19287   2.20059   2.20839   2.21011   2.21501
  Beta virt. eigenvalues --    2.21976   2.23018   2.25008   2.25691   2.25884
  Beta virt. eigenvalues --    2.27865   2.28269   2.28848   2.29293   2.30747
  Beta virt. eigenvalues --    2.31702   2.33059   2.33805   2.34442   2.34838
  Beta virt. eigenvalues --    2.36814   2.38462   2.39590   2.41143   2.42046
  Beta virt. eigenvalues --    2.43186   2.44076   2.44710   2.45630   2.46094
  Beta virt. eigenvalues --    2.46922   2.49122   2.50219   2.50552   2.51587
  Beta virt. eigenvalues --    2.52420   2.53099   2.53726   2.54573   2.56006
  Beta virt. eigenvalues --    2.56445   2.57613   2.58660   2.59830   2.60238
  Beta virt. eigenvalues --    2.61547   2.61980   2.62831   2.63321   2.64859
  Beta virt. eigenvalues --    2.65478   2.66491   2.68935   2.69971   2.71038
  Beta virt. eigenvalues --    2.71936   2.73987   2.75175   2.75957   2.76632
  Beta virt. eigenvalues --    2.78075   2.79763   2.80762   2.82353   2.82713
  Beta virt. eigenvalues --    2.83353   2.84129   2.85787   2.85967   2.86970
  Beta virt. eigenvalues --    2.87633   2.89186   2.89655   2.89808   2.90670
  Beta virt. eigenvalues --    2.91759   2.93130   2.93594   2.95207   2.95792
  Beta virt. eigenvalues --    2.97308   2.98352   2.99318   3.00272   3.01588
  Beta virt. eigenvalues --    3.03329   3.04463   3.05083   3.05464   3.07486
  Beta virt. eigenvalues --    3.08710   3.09042   3.10426   3.11746   3.13265
  Beta virt. eigenvalues --    3.14542   3.15103   3.15456   3.18539   3.19177
  Beta virt. eigenvalues --    3.21177   3.21962   3.23020   3.24790   3.27427
  Beta virt. eigenvalues --    3.28062   3.29781   3.34570   3.35126   3.35668
  Beta virt. eigenvalues --    3.40178   3.42022   3.44349   3.50238   3.84773
  Beta virt. eigenvalues --    3.98118   3.99940   4.12145   4.14203   4.16633
[...]
    45  H(1)               0.03242     144.90550      51.70589      48.33527
 --------------------------------------------------------
       Center         ----  Spin Dipole Couplings  ----
                      3XX-RR        3YY-RR        3ZZ-RR
 --------------------------------------------------------
     1   Atom        0.059449     -0.009740     -0.049709
     2   Atom        2.615138     -1.497365     -1.117772
     3   Atom        0.057313     -0.040541     -0.016772
     4   Atom       -0.002428      0.011599     -0.009171
     5   Atom       -0.000927      0.006231     -0.005304
     6   Atom       -0.027474      0.010608      0.016866
     7   Atom       -0.001408      0.003839     -0.002431
     8   Atom       -0.000567      0.001426     -0.000860
     9   Atom       -0.000161      0.000565     -0.000404
    10   Atom       -0.001540      0.002434     -0.000894
    11   Atom       -0.000221      0.000790     -0.000569
    12   Atom       -0.000364      0.000766     -0.000402
    13   Atom       -0.000120      0.000422     -0.000302
    14   Atom       -0.000015      0.000263     -0.000248
    15   Atom       -0.000032      0.000189     -0.000157
    16   Atom        0.000077      0.000159     -0.000236
    17   Atom        0.000008      0.000264     -0.000272
    18   Atom        0.000067      0.000485     -0.000552
    19   Atom        0.000052      0.000229     -0.000281
    20   Atom       -0.000001      0.000595     -0.000594
    21   Atom        0.000459      0.000153     -0.000612
    22   Atom       -0.000832      0.002199     -0.001366
    23   Atom        0.004911     -0.001195     -0.003716
    24   Atom       -0.001257      0.003952     -0.002695
    25   Atom       -0.000474      0.001379     -0.000905
    26   Atom        0.000120      0.000612     -0.000732
    27   Atom       -0.000522      0.001892     -0.001369
    28   Atom       -0.000285      0.000745     -0.000460
    29   Atom       -0.000368      0.000621     -0.000253
    30   Atom       -0.000075      0.000356     -0.000281
    31   Atom       -0.000055      0.000305     -0.000250
    32   Atom       -0.000020      0.000179     -0.000160
    33   Atom       -0.000132      0.000376     -0.000244
    34   Atom        0.000023      0.000269     -0.000292
    35   Atom       -0.000387      0.000606     -0.000219
    36   Atom       -0.000245      0.000287     -0.000043
    37   Atom       -0.000794      0.000921     -0.000127
    38   Atom       -0.000143      0.000159     -0.000016
    39   Atom       -0.001664      0.006052     -0.004387
    40   Atom        0.006276      0.010788     -0.017065
    41   Atom       -0.009295      0.011830     -0.002535
    42   Atom       -0.010691      0.003592      0.007099
    43   Atom        0.007740      0.003119     -0.010859
    44   Atom       -0.012164     -0.009394      0.021559
    45   Atom        0.010049     -0.009462     -0.000587
 --------------------------------------------------------
                        XY            XZ            YZ
 --------------------------------------------------------
     1   Atom        0.001913     -0.037488      0.008867
     2   Atom       -0.046310     -1.284756     -0.004471
     3   Atom       -0.008058     -0.025963     -0.022091
     4   Atom       -0.000347     -0.002050     -0.001675
     5   Atom       -0.002625     -0.000688      0.000677
     6   Atom       -0.021655     -0.019092      0.049105
     7   Atom       -0.000147     -0.000604     -0.000105
     8   Atom       -0.000849     -0.000137      0.000413
     9   Atom       -0.000352     -0.000458      0.000352
    10   Atom       -0.001376     -0.000569      0.002641
    11   Atom       -0.000640      0.000017     -0.000056
    12   Atom       -0.000406      0.000125     -0.000243
    13   Atom       -0.000355     -0.000016      0.000036
    14   Atom       -0.000357     -0.000054      0.000079
    15   Atom       -0.000223     -0.000045      0.000070
    16   Atom       -0.000352     -0.000015      0.000015
    17   Atom       -0.000466     -0.000163      0.000215
    18   Atom       -0.000878      0.000198     -0.000255
    19   Atom       -0.000494      0.000169     -0.000212
    20   Atom       -0.001264      0.000579     -0.000724
    21   Atom       -0.000916      0.000064     -0.000046
    22   Atom        0.000032     -0.000172      0.000022
    23   Atom       -0.000261     -0.001776     -0.000094
    24   Atom        0.000237     -0.000288     -0.000002
    25   Atom        0.001015     -0.000062     -0.000061
    26   Atom        0.000535      0.000112      0.000146
    27   Atom        0.002717      0.000712      0.001519
    28   Atom        0.000538     -0.000156     -0.000330
    29   Atom        0.000280     -0.000135     -0.000321
    30   Atom        0.000393     -0.000100     -0.000168
    31   Atom        0.000332     -0.000030     -0.000048
    32   Atom        0.000223     -0.000029     -0.000044
    33   Atom        0.000257     -0.000006     -0.000008
    34   Atom        0.000421      0.000021      0.000034
    35   Atom        0.000559     -0.000319     -0.000732
    36   Atom        0.000274     -0.000194     -0.000468
    37   Atom        0.000409     -0.000243     -0.001212
    38   Atom        0.000834     -0.000699     -0.000841
    39   Atom        0.002749     -0.001818     -0.000873
    40   Atom        0.046776      0.026900      0.027097
    41   Atom       -0.003488      0.002184     -0.011938
    42   Atom       -0.008804     -0.013126      0.013908
    43   Atom        0.015115      0.013071      0.006196
    44   Atom       -0.004069     -0.012400     -0.000471
    45   Atom        0.002859      0.020142     -0.002950
 --------------------------------------------------------


 ---------------------------------------------------------------------------------
              Anisotropic Spin Dipole Couplings in Principal Axis System
 ---------------------------------------------------------------------------------

       Atom             a.u.   MegaHertz   Gauss  10(-4) cm-1        Axes

              Baa    -0.0629    -8.438    -3.011    -2.815  0.2913 -0.1677  0.9418
     1 C(13)  Bbb    -0.0082    -1.102    -0.393    -0.368  0.0592  0.9858  0.1572
              Bcc     0.0711     9.540     3.404     3.182  0.9548 -0.0100 -0.2970
 
              Baa    -1.5280   110.562    39.451    36.880  0.2595  0.5125  0.8185
     2 O(17)  Bbb    -1.4870   107.600    38.394    35.891 -0.1443  0.8586 -0.4918
              Bcc     3.0150  -218.162   -77.846   -72.771  0.9549 -0.0095 -0.2968
 
              Baa    -0.0575    -7.717    -2.754    -2.574  0.1826  0.8108  0.5561
     3 C(13)  Bbb    -0.0080    -1.075    -0.383    -0.358  0.2361 -0.5852  0.7757
              Bcc     0.0655     8.792     3.137     2.933  0.9544 -0.0104 -0.2983
 
              Baa    -0.0099    -0.381    -0.136    -0.127  0.2678  0.0792  0.9602
     4 N(14)  Bbb    -0.0019    -0.072    -0.026    -0.024  0.9634 -0.0085 -0.2680
              Bcc     0.0117     0.453     0.162     0.151 -0.0130  0.9968 -0.0786
 
              Baa    -0.0054    -0.727    -0.259    -0.242  0.1362 -0.0268  0.9903
     5 C(13)  Bbb    -0.0017    -0.233    -0.083    -0.078  0.9397  0.3200 -0.1206
              Bcc     0.0071     0.959     0.342     0.320 -0.3136  0.9471  0.0688
 
              Baa    -0.0383     2.770     0.988     0.924  0.7034  0.6341 -0.3211
     6 O(17)  Bbb    -0.0330     2.390     0.853     0.797  0.6535 -0.3993  0.6430
              Bcc     0.0713    -5.160    -1.841    -1.721 -0.2795  0.6622  0.6953
 
              Baa    -0.0027    -0.105    -0.037    -0.035  0.4217  0.0241  0.9064
     7 N(14)  Bbb    -0.0011    -0.044    -0.016    -0.015  0.9064  0.0179 -0.4221
              Bcc     0.0038     0.148     0.053     0.049 -0.0264  0.9996 -0.0142
 
              Baa    -0.0009    -0.125    -0.045    -0.042 -0.1765 -0.2309  0.9568
     8 C(13)  Bbb    -0.0009    -0.118    -0.042    -0.039  0.9236  0.2973  0.2422
              Bcc     0.0018     0.243     0.087     0.081 -0.3404  0.9264  0.1608
 
              Baa    -0.0008    -0.382    -0.136    -0.127  0.5836 -0.0600  0.8098
     9 F(19)  Bbb    -0.0001    -0.074    -0.026    -0.025  0.6888  0.5648 -0.4545
              Bcc     0.0009     0.456     0.163     0.152 -0.4301  0.8231  0.3710
 
              Baa    -0.0024    -1.208    -0.431    -0.403 -0.3057 -0.5217  0.7965
    10 F(19)  Bbb    -0.0019    -0.936    -0.334    -0.312  0.9195  0.0553  0.3892
              Bcc     0.0043     2.144     0.765     0.715 -0.2471  0.8514  0.4628
 
              Baa    -0.0006    -0.077    -0.027    -0.026  0.1688  0.1195  0.9784
    11 C(13)  Bbb    -0.0005    -0.071    -0.025    -0.024  0.8842  0.4202 -0.2039
              Bcc     0.0011     0.148     0.053     0.049 -0.4355  0.8995 -0.0347
 
              Baa    -0.0005    -0.263    -0.094    -0.088  0.8311  0.1614 -0.5321
    12 F(19)  Bbb    -0.0004    -0.215    -0.077    -0.072  0.4641  0.3256  0.8237
              Bcc     0.0010     0.477     0.170     0.159 -0.3063  0.9316 -0.1957
 
              Baa    -0.0003     0.022     0.008     0.007 -0.1064 -0.1008  0.9892
    13 O(17)  Bbb    -0.0003     0.021     0.008     0.007  0.8903  0.4334  0.1399
              Bcc     0.0006    -0.043    -0.015    -0.014 -0.4428  0.8956  0.0436
 
              Baa    -0.0003    -0.035    -0.012    -0.012  0.0690 -0.1030  0.9923
    14 C(13)  Bbb    -0.0003    -0.035    -0.012    -0.012  0.8257  0.5640  0.0012
              Bcc     0.0005     0.070     0.025     0.023 -0.5598  0.8193  0.1240
 
              Baa    -0.0002    -0.086    -0.031    -0.029  0.5246  0.1620  0.8358
    15 F(19)  Bbb    -0.0002    -0.085    -0.030    -0.028  0.6736  0.5214 -0.5239
              Bcc     0.0003     0.171     0.061     0.057 -0.5206  0.8378  0.1644
 
              Baa    -0.0002    -0.119    -0.043    -0.040  0.5311  0.4451  0.7210
    16 F(19)  Bbb    -0.0002    -0.118    -0.042    -0.039 -0.5249 -0.4951  0.6923
              Bcc     0.0005     0.237     0.085     0.079 -0.6651  0.7462  0.0293
 
              Baa    -0.0003    -0.175    -0.062    -0.058 -0.3679 -0.5448  0.7536
    17 F(19)  Bbb    -0.0003    -0.174    -0.062    -0.058  0.7235  0.3413  0.6000
              Bcc     0.0007     0.349     0.125     0.116 -0.5841  0.7660  0.2686
 
              Baa    -0.0006    -0.084    -0.030    -0.028  0.7553  0.6343  0.1650
    18 C(13)  Bbb    -0.0006    -0.082    -0.029    -0.027 -0.2402  0.0336  0.9701
              Bcc     0.0012     0.166     0.059     0.055 -0.6098  0.7723 -0.1777
 
              Baa    -0.0004    -0.183    -0.065    -0.061  0.5846  0.6563  0.4771
    19 F(19)  Bbb    -0.0004    -0.176    -0.063    -0.059 -0.5259 -0.1412  0.8387
              Bcc     0.0007     0.360     0.128     0.120 -0.6178  0.7412 -0.2626
 
              Baa    -0.0010    -0.503    -0.180    -0.168  0.7958  0.6026 -0.0597
    20 F(19)  Bbb    -0.0009    -0.469    -0.167    -0.156 -0.1635  0.3087  0.9370
              Bcc     0.0019     0.972     0.347     0.324 -0.5831  0.7359 -0.3442
 
              Baa    -0.0006    -0.315    -0.112    -0.105  0.5736  0.6446 -0.5055
    21 F(19)  Bbb    -0.0006    -0.307    -0.110    -0.102  0.2991  0.4097  0.8618
              Bcc     0.0012     0.622     0.222     0.207  0.7626 -0.6455  0.0422
 
              Baa    -0.0014    -0.190    -0.068    -0.063  0.2821 -0.0083  0.9593
    22 C(13)  Bbb    -0.0008    -0.105    -0.037    -0.035  0.9593 -0.0081 -0.2822
              Bcc     0.0022     0.295     0.105     0.098  0.0101  0.9999  0.0056
 
              Baa    -0.0041     0.295     0.105     0.098  0.1950  0.0497  0.9795
    23 O(17)  Bbb    -0.0012     0.087     0.031     0.029  0.0264  0.9981 -0.0559
              Bcc     0.0053    -0.381    -0.136    -0.127  0.9804 -0.0367 -0.1933
 
              Baa    -0.0028    -0.106    -0.038    -0.035  0.1902 -0.0064  0.9817
    24 N(14)  Bbb    -0.0012    -0.047    -0.017    -0.016  0.9807 -0.0452 -0.1903
              Bcc     0.0040     0.153     0.055     0.051  0.0456  0.9990 -0.0023
 
              Baa    -0.0009    -0.127    -0.045    -0.042  0.7197 -0.2974  0.6274
    25 C(13)  Bbb    -0.0009    -0.118    -0.042    -0.039 -0.5649  0.2746  0.7781
              Bcc     0.0018     0.245     0.088     0.082  0.4037  0.9144 -0.0296
 
              Baa    -0.0008    -0.378    -0.135    -0.126 -0.0829 -0.0735  0.9938
    26 F(19)  Bbb    -0.0002    -0.111    -0.040    -0.037  0.8391 -0.5432  0.0298
              Bcc     0.0010     0.489     0.175     0.163  0.5377  0.8364  0.1067
 
              Baa    -0.0024    -1.198    -0.427    -0.399  0.7132 -0.5885  0.3808
    27 F(19)  Bbb    -0.0018    -0.891    -0.318    -0.297 -0.4775 -0.0102  0.8786
              Bcc     0.0042     2.088     0.745     0.697  0.5132  0.8084  0.2883
 
              Baa    -0.0006    -0.074    -0.026    -0.025  0.4023  0.0654  0.9132
    28 C(13)  Bbb    -0.0005    -0.068    -0.024    -0.023  0.8312 -0.4441 -0.3344
              Bcc     0.0011     0.142     0.051     0.048  0.3836  0.8936 -0.2330
 
              Baa    -0.0005    -0.233    -0.083    -0.078  0.9053 -0.1120  0.4098
    29 F(19)  Bbb    -0.0003    -0.172    -0.061    -0.057 -0.3407  0.3847  0.8578
              Bcc     0.0008     0.405     0.145     0.135  0.2537  0.9162 -0.3101
 
              Baa    -0.0003     0.023     0.008     0.008  0.1045  0.1817  0.9778
    30 O(17)  Bbb    -0.0003     0.022     0.008     0.007  0.8607 -0.5092  0.0027
              Bcc     0.0006    -0.046    -0.016    -0.015  0.4983  0.8413 -0.2096
 
              Baa    -0.0003    -0.034    -0.012    -0.011  0.3504 -0.1283  0.9278
    31 C(13)  Bbb    -0.0003    -0.034    -0.012    -0.011  0.7854 -0.4994 -0.3657
              Bcc     0.0005     0.068     0.024     0.023  0.5102  0.8568 -0.0742
 
              Baa    -0.0002    -0.083    -0.030    -0.028  0.3880 -0.1342  0.9118
    32 F(19)  Bbb    -0.0002    -0.082    -0.029    -0.027  0.7460 -0.5353 -0.3963
              Bcc     0.0003     0.166     0.059     0.055  0.5413  0.8339 -0.1076
 
              Baa    -0.0002    -0.123    -0.044    -0.041  0.3344 -0.1268  0.9339
    33 F(19)  Bbb    -0.0002    -0.120    -0.043    -0.040  0.8599 -0.3646 -0.3574
              Bcc     0.0005     0.243     0.087     0.081  0.3858  0.9225 -0.0129
 
              Baa    -0.0003    -0.149    -0.053    -0.050  0.5111 -0.4259  0.7466
    34 F(19)  Bbb    -0.0003    -0.145    -0.052    -0.049 -0.6160  0.4243  0.6637
              Bcc     0.0006     0.295     0.105     0.098  0.5994  0.7991  0.0454
 
              Baa    -0.0006    -0.087    -0.031    -0.029 -0.3892  0.5873  0.7097
    35 C(13)  Bbb    -0.0006    -0.085    -0.030    -0.028  0.8479 -0.0726  0.5251
              Bcc     0.0013     0.172     0.061     0.057  0.3599  0.8061 -0.4697
 
              Baa    -0.0004    -0.188    -0.067    -0.063  0.0087  0.5754  0.8179
    36 F(19)  Bbb    -0.0004    -0.181    -0.064    -0.060  0.9459 -0.2700  0.1799
              Bcc     0.0007     0.368     0.131     0.123  0.3243  0.7721 -0.5466
 
              Baa    -0.0009    -0.468    -0.167    -0.156 -0.3775  0.5637  0.7346
    37 F(19)  Bbb    -0.0009    -0.438    -0.156    -0.146  0.9083  0.0711  0.4122
              Bcc     0.0018     0.906     0.323     0.302  0.1801  0.8229 -0.5389
 
              Baa    -0.0008    -0.422    -0.151    -0.141  0.7576 -0.6523 -0.0231
    38 F(19)  Bbb    -0.0008    -0.380    -0.136    -0.127  0.3807  0.4129  0.8274
              Bcc     0.0016     0.802     0.286     0.268  0.5302  0.6357 -0.5611
 
              Baa    -0.0053    -0.714    -0.255    -0.238  0.4731 -0.0469  0.8798
    39 C(13)  Bbb    -0.0018    -0.239    -0.085    -0.080  0.8209 -0.3392 -0.4595
              Bcc     0.0071     0.953     0.340     0.318  0.3200  0.9395 -0.1220
 
              Baa    -0.0384     2.779     0.992     0.927  0.7539 -0.6434 -0.1334
    40 O(17)  Bbb    -0.0334     2.414     0.861     0.805 -0.1656 -0.3825  0.9090
              Bcc     0.0718    -5.193    -1.853    -1.732  0.6358  0.6632  0.3948
 
              Baa    -0.0099    -5.303    -1.892    -1.769  0.9533 -0.0127 -0.3017
    41 H(1)   Bbb    -0.0092    -4.927    -1.758    -1.643  0.2660  0.5083  0.8191
              Bcc     0.0192    10.230     3.650     3.412 -0.1429  0.8611 -0.4879
 
              Baa    -0.0178    -9.484    -3.384    -3.164  0.9016  0.0972  0.4214
    42 H(1)   Bbb    -0.0083    -4.423    -1.578    -1.475  0.1803  0.8013 -0.5704
              Bcc     0.0261    13.907     4.962     4.639 -0.3931  0.5903  0.7050
 
              Baa    -0.0178    -9.476    -3.381    -3.161 -0.5048  0.1114  0.8560
    43 H(1)   Bbb    -0.0083    -4.424    -1.579    -1.476 -0.4562  0.8074 -0.3741
              Bcc     0.0261    13.900     4.960     4.637  0.7328  0.5794  0.3567
 
              Baa    -0.0181    -9.651    -3.444    -3.219  0.8649  0.4197  0.2755
    44 H(1)   Bbb    -0.0076    -4.033    -1.439    -1.345 -0.3918  0.9074 -0.1522
              Bcc     0.0256    13.684     4.883     4.564 -0.3138  0.0237  0.9492
 
              Baa    -0.0180    -9.627    -3.435    -3.211 -0.5546  0.4297  0.7126
    45 H(1)   Bbb    -0.0075    -4.015    -1.433    -1.339  0.2522  0.9029 -0.3482
              Bcc     0.0256    13.643     4.868     4.551  0.7930  0.0134  0.6091
 

 ---------------------------------------------------------------------------------

 No NMR shielding tensors so no spin-rotation constants.
 Leave Link  601 at Sun Mar  3 18:02:36 2024, MaxMem=  5368709120 cpu:         6.2
 (Enter /home/k0335/k033513/app/g09/l9999.exe)
 1\1\GINC-C24U18N4\SP\UCAM-B3LYP\6-31G(d,p)\C13H5F18N3O6(1+,2)\K033513\
 03-Mar-2024\0\\#p CAM-B3LYP/6-31G(d,p) SCRF=(PCM,Solvent=Generic,Read)
  NoSymm out=wfn\\Title A897162772_p1\\1,2\C,0,-0.225968,5.50776,-0.470
 807\O,0,-0.3165,4.11136,-0.718665\C,0,0.033444,3.354315,0.43684\N,0,-0
 .089396,1.956454,0.079068\C,0,1.020849,1.312696,-0.413504\O,0,2.125333
 ,1.851367,-0.450677\N,0,0.842966,0.010755,-0.803947\C,0,2.007155,-0.74
 9696,-1.240817\F,0,1.573512,-1.643052,-2.189474\F,0,2.848861,0.050428,
 -1.947728\C,0,2.780402,-1.550317,-0.151268\F,0,1.864151,-2.002973,0.77
 7527\O,0,3.362238,-2.77554,-0.627637\C,0,4.506484,-2.604394,-1.422967\
 F,0,4.819584,-3.782883,-1.98945\F,0,5.534022,-2.205551,-0.65855\F,0,4.
 283982,-1.704707,-2.388312\C,0,3.727446,-0.626494,0.613433\F,0,4.46510
 9,-1.334171,1.506425\F,0,3.045267,0.290261,1.337889\F,0,4.592685,0.026
 414,-0.185182\C,0,-0.310573,-0.68591,-0.53771\O,0,-0.352492,-1.911487,
 -0.584112\N,0,-1.40986,0.049875,-0.172815\C,0,-2.666932,-0.664601,0.01
 3554\F,0,-2.841588,-1.42482,-1.112834\F,0,-3.71961,0.203426,-0.049894\
 C,0,-2.856345,-1.577688,1.264897\F,0,-1.942296,-2.590351,1.286627\O,0,
 -4.14468,-2.202243,1.402842\C,0,-4.527591,-2.957985,0.284893\F,0,-5.46
 873,-3.840288,0.671731\F,0,-3.493785,-3.632307,-0.238722\F,0,-5.065025
 ,-2.140704,-0.636161\C,0,-2.63209,-0.736666,2.515788\F,0,-2.756429,-1.
 489232,3.639463\F,0,-1.383348,-0.209659,2.5511\F,0,-3.516849,0.274563,
 2.630385\C,0,-1.300874,1.338715,0.283796\O,0,-2.211,1.882783,0.905178\
 H,0,-0.503838,6.038374,-1.385392\H,0,-0.915692,5.801159,0.326472\H,0,0
 .798719,5.784202,-0.204253\H,0,-0.640189,3.607013,1.26318\H,0,1.059475
 ,3.5918,0.739197\\Version=ES64L-G09RevD.01\HF=-2909.9750595\S2=0.75429
 8\S2-1=0.\S2A=0.750015\RMSD=4.110e-09\Dipole=0.0029084,9.9668344,-0.31
 51544\Quadrupole=-28.8494937,52.158285,-23.3087912,-2.6384683,2.016628
 2,-1.323278\PG=C01 [X(C13H5F18N3O6)]\\@

 Writing a WFN file to "A897162772/A897162772_p1.wfn"


 Not by the face shall a man be known, but by the mask.
                               -- Karen Blixen
 Job cpu time:       0 days  0 hours 47 minutes 20.6 seconds.
 File lengths (MBytes):  RWF=    589 Int=      0 D2E=      0 Chk=     20 Scr=      1
 Normal termination of Gaussian 09 at Sun Mar  3 18:02:37 2024.
