 Entering Gaussian System, Link 0=g09
 Initial command:
 /home/k0335/k033513/app/g09/l1.exe "/home/k0335/k033513/app/g09/scratch/Gau-193114.inp" -scrdir="/home/k0335/k033513/app/g09/scratch/"
 Default is to use a total of  36 processors:
                               36 via shared-memory
                                1 via Linda
 Entering Link 1 = /home/k0335/k033513/app/g09/l1.exe PID=    193115.
  
 Copyright (c) 1988,1990,1992,1993,1995,1998,2003,2009,2013,
            Gaussian, Inc.  All Rights Reserved.
  
 This is part of the Gaussian(R) 09 program.  It is based on
 the Gaussian(R) 03 system (copyright 2003, Gaussian, Inc.),
 the Gaussian(R) 98 system (copyright 1998, Gaussian, Inc.),
 the Gaussian(R) 94 system (copyright 1995, Gaussian, Inc.),
 the Gaussian 92(TM) system (copyright 1992, Gaussian, Inc.),
 the Gaussian 90(TM) system (copyright 1990, Gaussian, Inc.),
 the Gaussian 88(TM) system (copyright 1988, Gaussian, Inc.),
 the Gaussian 86(TM) system (copyright 1986, Carnegie Mellon
 University), and the Gaussian 82(TM) system (copyright 1983,
 Carnegie Mellon University). Gaussian is a federally registered
 trademark of Gaussian, Inc.
  
 This software contains proprietary and confidential information,
 including trade secrets, belonging to Gaussian, Inc.
  
 This software is provided under written license and may be
 used, copied, transmitted, or stored only in accord with that
 written license.
  
 The following legend is applicable only to US Government
 contracts under FAR:
  
                    RESTRICTED RIGHTS LEGEND
  
 Use, reproduction and disclosure by the US Government is
 subject to restrictions as set forth in subparagraphs (a)
 and (c) of the Commercial Computer Software - Restricted
 Rights clause in FAR 52.227-19.
  
 Gaussian, Inc.
 340 Quinnipiac St., Bldg. 40, Wallingford CT 06492
  
  
 ---------------------------------------------------------------
 Warning -- This program may not be used in any manner that
 competes with the business of Gaussian, Inc. or will provide
 assistance to any competitor of Gaussian, Inc.  The licensee
 of this program is prohibited from giving any competitor of
 Gaussian, Inc. access to this program.  By using this program,
 the user acknowledges that Gaussian, Inc. is engaged in the
 business of creating and licensing software in the field of
 computational chemistry and represents and warrants to the
 licensee that it is not a competitor of Gaussian, Inc. and that
 it will not use this program in any manner prohibited above.
 ---------------------------------------------------------------
  

 Cite this work as:
 Gaussian 09, Revision D.01,
 M. J. Frisch, G. W. Trucks, H. B. Schlegel, G. E. Scuseria, 
 M. A. Robb, J. R. Cheeseman, G. Scalmani, V. Barone, B. Mennucci, 
 G. A. Petersson, H. Nakatsuji, M. Caricato, X. Li, H. P. Hratchian, 
 A. F. Izmaylov, J. Bloino, G. Zheng, J. L. Sonnenberg, M. Hada, 
 M. Ehara, K. Toyota, R. Fukuda, J. Hasegawa, M. Ishida, T. Nakajima, 
 Y. Honda, O. Kitao, H. Nakai, T. Vreven, J. A. Montgomery, Jr., 
 J. E. Peralta, F. Ogliaro, M. Bearpark, J. J. Heyd, E. Brothers, 
 K. N. Kudin, V. N. Staroverov, T. Keith, R. Kobayashi, J. Normand, 
 K. Raghavachari, A. Rendell, J. C. Burant, S. S. Iyengar, J. Tomasi, 
 M. Cossi, N. Rega, J. M. Millam, M. Klene, J. E. Knox, J. B. Cross, 
 V. Bakken, C. Adamo, J. Jaramillo, R. Gomperts, R. E. Stratmann, 
 O. Yazyev, A. J. Austin, R. Cammi, C. Pomelli, J. W. Ochterski, 
 R. L. Martin, K. Morokuma, V. G. Zakrzewski, G. A. Voth, 
 P. Salvador, J. J. Dannenberg, S. Dapprich, A. D. Daniels, 
 O. Farkas, J. B. Foresman, J. V. Ortiz, J. Cioslowski, 
 and D. J. Fox, Gaussian, Inc., Wallingford CT, 2013.
 
 ******************************************
 Gaussian 09:  ES64L-G09RevD.01 24-Apr-2013
                 3-Mar-2024 
 ******************************************
 %nprocshared=24
 Will use up to   24 processors via shared memory.
 %mem=40GB
 %rwf=A903371602/A903371602_0.rwf
 %nosave
 %chk=A903371602/A903371602_0.chk
 ----------------------------------------------------------------------
 #p CAM-B3LYP/6-31G(d,p) SCRF=(PCM,Solvent=Generic,Read) NoSymm out=wfn
 ----------------------------------------------------------------------
 1/38=1,40=2/1;
 2/12=2,15=1,17=6,18=5,40=1/2;
 3/5=1,6=6,7=101,11=2,16=1,25=1,30=1,70=2203,72=-2,74=-40/1,2,3;
 4//1;
 5/5=2,38=5/2;
 6/7=2,8=2,9=2,10=2,28=1/1;
 99/5=1,6=100,9=1/99;
 Leave Link    1 at Sun Mar  3 17:58:30 2024, MaxMem=  5368709120 cpu:         2.2
 (Enter /home/k0335/k033513/app/g09/l101.exe)
 ------------------
 Title A903371602_0
 ------------------
 Symbolic Z-matrix:
 Charge =  0 Multiplicity = 1
 C                    -3.72495  -1.52399  -1.48107 
 C                    -4.2025   -0.48675  -0.4764 
 C                    -3.30278  -0.37157   0.76033 
 N                    -1.96642   0.14759   0.46271 
 C                    -1.83449   1.50293   0.24163 
 O                    -2.78131   2.28316   0.35074 
 N                    -0.58381   1.92211  -0.15323 
 C                    -0.43236   3.30519  -0.57231 
 C                     0.44876   1.04466  -0.3986 
 O                     1.40008   1.37144  -1.10247 
 N                     0.33402  -0.19644   0.16141 
 C                     1.43627  -1.15014   0.06395 
 F                     1.31955  -1.83908  -1.10416 
 F                     1.25394  -2.0672    1.06542 
 C                     2.89352  -0.63405   0.22135 
 F                     3.30981  -0.03754  -0.93285 
 O                     2.92214   0.36432   1.2548 
 C                     4.22738   0.77294   1.57618 
 F                     4.78666  -0.14533   2.38131 
 F                     4.15104   1.93848   2.24581 
 F                     4.98095   0.94756   0.48168 
 C                     3.75679  -1.88396   0.45194 
 F                     3.53552  -2.43871   1.66563 
 F                     3.55471  -2.8404   -0.47967 
 F                     5.07835  -1.58142   0.40829 
 C                    -0.91597  -0.74367   0.34191 
 O                    -1.11178  -1.95885   0.3678 
 H                    -4.44677  -1.61429  -2.29919 
 H                    -3.62161  -2.50757  -1.01235 
 H                    -2.76218  -1.24261  -1.91804 
 H                    -5.21076  -0.76287  -0.14542 
 H                    -4.28877   0.48278  -0.97966 
 H                    -3.77977   0.30927   1.47625 
 H                    -3.2289   -1.34478   1.25904 
 H                     0.61461   3.61796  -0.51586 
 H                    -0.77662   3.39224  -1.60782 
 H                    -1.03235   3.96858   0.05785 
 
 NAtoms=     37 NQM=       37 NQMF=       0 NMMI=      0 NMMIF=      0
                NMic=       0 NMicF=      0.
                    Isotopes and Nuclear Properties:
 (Nuclear quadrupole moments (NQMom) in fm**2, nuclear magnetic moments (NMagM)
  in nuclear magnetons)

  Atom         1           2           3           4           5           6           7           8           9          10
 IAtWgt=          12          12          12          14          12          16          14          12          12          16
 AtmWgt=  12.0000000  12.0000000  12.0000000  14.0030740  12.0000000  15.9949146  14.0030740  12.0000000  12.0000000  15.9949146
 NucSpn=           0           0           0           2           0           0           2           0           0           0
 AtZEff=   0.0000000   0.0000000   0.0000000   0.0000000   0.0000000   0.0000000   0.0000000   0.0000000   0.0000000   0.0000000
 NQMom=    0.0000000   0.0000000   0.0000000   2.0440000   0.0000000   0.0000000   2.0440000   0.0000000   0.0000000   0.0000000
 NMagM=    0.0000000   0.0000000   0.0000000   0.4037610   0.0000000   0.0000000   0.4037610   0.0000000   0.0000000   0.0000000
 AtZNuc=   6.0000000   6.0000000   6.0000000   7.0000000   6.0000000   8.0000000   7.0000000   6.0000000   6.0000000   8.0000000

  Atom        11          12          13          14          15          16          17          18          19          20
 IAtWgt=          14          12          19          19          12          19          16          12          19          19
 AtmWgt=  14.0030740  12.0000000  18.9984033  18.9984033  12.0000000  18.9984033  15.9949146  12.0000000  18.9984033  18.9984033
 NucSpn=           2           0           1           1           0           1           0           0           1           1
 AtZEff=   0.0000000   0.0000000   0.0000000   0.0000000   0.0000000   0.0000000   0.0000000   0.0000000   0.0000000   0.0000000
 NQMom=    2.0440000   0.0000000   0.0000000   0.0000000   0.0000000   0.0000000   0.0000000   0.0000000   0.0000000   0.0000000
 NMagM=    0.4037610   0.0000000   2.6288670   2.6288670   0.0000000   2.6288670   0.0000000   0.0000000   2.6288670   2.6288670
 AtZNuc=   7.0000000   6.0000000   9.0000000   9.0000000   6.0000000   9.0000000   8.0000000   6.0000000   9.0000000   9.0000000

  Atom        21          22          23          24          25          26          27          28          29          30
 IAtWgt=          19          12          19          19          19          12          16           1           1           1
 AtmWgt=  18.9984033  12.0000000  18.9984033  18.9984033  18.9984033  12.0000000  15.9949146   1.0078250   1.0078250   1.0078250
 NucSpn=           1           0           1           1           1           0           0           1           1           1
 AtZEff=   0.0000000   0.0000000   0.0000000   0.0000000   0.0000000   0.0000000   0.0000000   0.0000000   0.0000000   0.0000000
 NQMom=    0.0000000   0.0000000   0.0000000   0.0000000   0.0000000   0.0000000   0.0000000   0.0000000   0.0000000   0.0000000
 NMagM=    2.6288670   0.0000000   2.6288670   2.6288670   2.6288670   0.0000000   0.0000000   2.7928460   2.7928460   2.7928460
 AtZNuc=   9.0000000   6.0000000   9.0000000   9.0000000   9.0000000   6.0000000   8.0000000   1.0000000   1.0000000   1.0000000

  Atom        31          32          33          34          35          36          37
 IAtWgt=           1           1           1           1           1           1           1
 AtmWgt=   1.0078250   1.0078250   1.0078250   1.0078250   1.0078250   1.0078250   1.0078250
 NucSpn=           1           1           1           1           1           1           1
 AtZEff=   0.0000000   0.0000000   0.0000000   0.0000000   0.0000000   0.0000000   0.0000000
 NQMom=    0.0000000   0.0000000   0.0000000   0.0000000   0.0000000   0.0000000   0.0000000
 NMagM=    2.7928460   2.7928460   2.7928460   2.7928460   2.7928460   2.7928460   2.7928460
 AtZNuc=   1.0000000   1.0000000   1.0000000   1.0000000   1.0000000   1.0000000   1.0000000
 Leave Link  101 at Sun Mar  3 17:58:30 2024, MaxMem=  5368709120 cpu:         0.8
 (Enter /home/k0335/k033513/app/g09/l202.exe)
                          Input orientation:                          
 ---------------------------------------------------------------------
 Center     Atomic      Atomic             Coordinates (Angstroms)
 Number     Number       Type             X           Y           Z
 ---------------------------------------------------------------------
      1          6           0       -3.724949   -1.523986   -1.481066
      2          6           0       -4.202502   -0.486749   -0.476404
      3          6           0       -3.302781   -0.371569    0.760326
      4          7           0       -1.966417    0.147593    0.462713
      5          6           0       -1.834492    1.502927    0.241630
      6          8           0       -2.781311    2.283162    0.350737
      7          7           0       -0.583810    1.922109   -0.153230
      8          6           0       -0.432359    3.305191   -0.572305
      9          6           0        0.448758    1.044657   -0.398604
     10          8           0        1.400078    1.371437   -1.102465
     11          7           0        0.334018   -0.196436    0.161406
     12          6           0        1.436271   -1.150145    0.063952
     13          9           0        1.319549   -1.839084   -1.104164
     14          9           0        1.253944   -2.067201    1.065416
     15          6           0        2.893523   -0.634050    0.221353
     16          9           0        3.309806   -0.037544   -0.932846
     17          8           0        2.922138    0.364324    1.254798
     18          6           0        4.227379    0.772939    1.576183
     19          9           0        4.786662   -0.145333    2.381314
     20          9           0        4.151035    1.938484    2.245810
     21          9           0        4.980949    0.947557    0.481683
     22          6           0        3.756791   -1.883961    0.451942
     23          9           0        3.535521   -2.438713    1.665627
     24          9           0        3.554709   -2.840402   -0.479665
     25          9           0        5.078353   -1.581419    0.408292
     26          6           0       -0.915966   -0.743666    0.341914
     27          8           0       -1.111783   -1.958852    0.367804
     28          1           0       -4.446768   -1.614286   -2.299186
     29          1           0       -3.621610   -2.507571   -1.012345
     30          1           0       -2.762177   -1.242606   -1.918035
     31          1           0       -5.210756   -0.762868   -0.145421
     32          1           0       -4.288767    0.482782   -0.979657
     33          1           0       -3.779772    0.309268    1.476250
     34          1           0       -3.228899   -1.344777    1.259041
     35          1           0        0.614608    3.617963   -0.515858
     36          1           0       -0.776622    3.392242   -1.607815
     37          1           0       -1.032350    3.968582    0.057850
 ---------------------------------------------------------------------
                    Distance matrix (angstroms):
                    1          2          3          4          5
     1  C    0.000000
     2  C    1.520942   0.000000
     3  C    2.555412   1.533710   0.000000
     4  N    3.108840   2.506872   1.464231   0.000000
     5  C    3.962791   3.175194   2.436935   1.379570   0.000000
     6  O    4.329010   3.221235   2.736291   2.288503   1.231721
     7  N    4.848244   4.359125   3.672648   2.332358   1.376893
     8  C    5.915061   5.348082   4.851164   3.659921   2.424175
     9  C    5.018912   4.897497   4.174070   2.716553   2.415190
    10  O    5.898535   5.935799   5.350228   3.909075   3.505185
    11  N    4.575513   4.590326   3.689944   2.345452   2.756212
    12  C    5.400466   5.703318   4.852807   3.663526   4.215240
    13  F    5.068363   5.719785   5.195754   4.147235   4.788337
    14  F    5.618632   5.886242   4.871549   3.954654   4.791959
    15  C    6.891617   7.131769   6.225237   4.928310   5.188565
    16  F    7.210952   7.539555   6.834085   5.460805   5.496931
    17  O    7.431987   7.381184   6.287739   4.957050   4.994843
    18  C    8.823954   8.767144   7.660211   6.324080   6.249816
    19  F    9.448078   9.438654   8.253355   7.026444   7.150852
    20  F    9.376003   9.114482   7.943701   6.618908   6.327162
    21  F    9.260322   9.344032   8.392730   6.993297   6.842244
    22  C    7.735796   8.134149   7.226340   6.073091   6.540465
    23  F    7.965728   8.262897   7.201044   6.197363   6.811852
    24  F    7.465198   8.106418   7.393097   6.348151   6.959042
    25  F    9.003949   9.386973   8.475321   7.254049   7.571552
    26  C    3.438392   3.396611   2.451614   1.382889   2.429182
    27  O    3.230490   3.525949   2.733864   2.275196   3.538664
    28  H    1.094759   2.157206   3.494805   4.109069   4.795493
    29  H    1.094449   2.169882   2.794015   3.459098   4.566217
    30  H    1.094096   2.173512   2.867852   2.869468   3.614236
    31  H    2.137959   1.096525   2.147990   3.424106   4.084458
    32  H    2.143926   1.095763   2.174770   2.754286   2.925013
    33  H    3.479877   2.150628   1.097090   2.083663   2.594845
    34  H    2.790406   2.166999   1.096042   2.110727   3.330002
    35  H    6.797280   6.328883   5.735063   4.434271   3.323440
    36  H    5.733934   5.297482   5.114278   4.028703   2.847639
    37  H    6.307666   5.494112   4.948256   3.954283   2.599358
                    6          7          8          9         10
     6  O    0.000000
     7  N    2.283277   0.000000
     8  C    2.722889   1.453092   0.000000
     9  C    3.539598   1.377072   2.432397   0.000000
    10  O    4.519630   2.267178   2.716303   1.227687   0.000000
    11  N    3.986167   2.330158   3.658833   1.366414   2.278614
    12  C    5.445901   3.683292   4.873050   2.450775   2.778527
    13  F    5.993889   4.321299   5.460368   3.093874   3.211531
    14  F    5.976597   4.558183   5.864158   3.532045   4.067591
    15  C    6.382054   4.331986   5.216225   3.029733   2.829284
    16  F    6.643415   4.428124   5.030673   3.105184   2.379298
    17  O    6.085113   4.086674   4.820752   3.051917   2.981213
    18  C    7.273529   5.240134   5.722015   4.272188   3.940430
    19  F    8.203356   6.288100   6.918682   5.287857   5.089819
    20  F    7.194965   5.307958   5.551321   4.636670   4.370384
    21  F    7.877415   5.685016   5.997769   4.617910   3.938507
    22  C    7.753834   5.804586   6.747248   4.499257   4.309048
    23  F    7.995462   6.268484   7.331088   5.091466   5.171044
    24  F    8.190581   6.317864   7.326227   4.974654   4.771782
    25  F    8.758574   6.682073   7.430241   5.383355   4.952924
    26  C    3.555457   2.731639   4.178865   2.368320   3.453107
    27  O    4.558761   3.951214   5.390322   3.470409   4.422891
    28  H    4.998594   5.659829   6.580186   5.886286   6.673252
    29  H    5.051259   5.439519   6.644784   5.437177   6.346036
    30  H    4.192700   4.227912   5.284080   4.224967   4.982243
    31  H    3.927681   5.349560   6.290025   5.946541   7.012440
    32  H    2.698840   4.059723   4.796229   4.805983   5.759145
    33  H    2.481927   3.933273   4.937338   4.683625   5.882926
    34  H    3.766602   4.434360   5.726837   4.688533   5.863613
    35  H    3.750326   2.107991   1.094145   2.581309   2.451112
    36  H    3.014094   2.077086   1.094704   2.911169   3.012815
    37  H    2.446485   2.105658   1.094154   3.309285   3.742753
                   11         12         13         14         15
    11  N    0.000000
    12  C    1.460828   0.000000
    13  F    2.295916   1.361160   0.000000
    14  F    2.272281   1.370097   2.182526   0.000000
    15  C    2.597338   1.553935   2.384638   2.335505   0.000000
    16  F    3.174578   2.396168   2.689985   3.512709   1.364290
    17  O    2.865017   2.433009   3.603887   2.954835   1.437212
    18  C    4.254356   3.711520   4.739451   4.143500   2.365239
    19  F    4.975605   4.195823   5.199829   4.231461   2.913460
    20  F    4.844816   4.655113   5.788753   5.082517   3.506807
    21  F    4.796380   4.139999   4.866840   4.829086   2.631843
    22  C    3.827209   2.464515   2.891994   2.583442   1.536451
    23  F    4.188091   2.938132   3.597475   2.388277   2.398937
    24  F    4.215967   2.764103   2.527563   2.877262   2.407609
    25  F    4.948519   3.683657   4.059867   3.910742   2.388710
    26  C    1.376410   2.403228   2.878995   2.642671   3.812972
    27  O    2.288897   2.690523   2.844716   2.468819   4.221259
    28  H    5.560641   6.356886   5.893134   6.635043   7.822650
    29  H    4.729274   5.346324   4.987019   5.318086   6.890504
    30  H    3.873625   4.643682   4.204600   5.070519   6.077357
    31  H    5.582070   6.661591   6.687474   6.705204   8.113597
    32  H    4.809730   6.044140   6.071225   6.434779   7.367159
    33  H    4.348312   5.597462   6.105492   5.581638   6.855471
    34  H    3.901008   4.819744   5.149510   4.544807   6.250278
    35  H    3.884206   4.873004   5.533752   5.935509   4.880220
    36  H    4.152382   5.322122   5.658124   6.408969   5.746899
    37  H    4.384639   5.682912   6.372652   6.532458   6.051730
                   16         17         18         19         20
    16  F    0.000000
    17  O    2.257780   0.000000
    18  C    2.791782   1.404959   0.000000
    19  F    3.629928   2.237239   1.343226   0.000000
    20  F    3.836171   2.229411   1.346374   2.182814   0.000000
    21  F    2.400841   2.275208   1.340257   2.200171   2.186970
    22  C    2.350891   2.529033   2.923096   2.793911   4.240811
    23  F    3.545225   2.898627   3.286545   2.708718   4.458175
    24  F    2.849801   3.698483   4.211322   4.119018   5.533676
    25  F    2.703694   3.025186   2.762450   2.457690   4.077513
    26  C    4.469985   4.097809   5.502500   6.085813   6.040964
    27  O    4.993352   4.738821   6.117966   6.491127   6.812737
    28  H    8.032275   8.417035   9.795823  10.455675  10.353810
    29  H    7.358796   7.497223   8.892067   9.369959   9.528745
    30  H    6.268313   6.705261   8.070060   8.756334   8.674643
    31  H    8.587556   8.329174   9.716019  10.330252  10.032867
    32  H    7.616511   7.550098   8.896137   9.698148   9.151665
    33  H    7.495741   6.705794   8.021187   8.626100   8.132913
    34  H    7.019109   6.384066   7.757666   8.182138   8.137379
    35  H    4.560779   4.364182   5.052021   6.321553   4.791010
    36  H    5.377537   5.571684   6.483719   7.705694   6.422277
    37  H    5.990396   5.482822   6.338945   7.495578   5.981300
                   21         22         23         24         25
    21  F    0.000000
    22  C    3.084954   0.000000
    23  F    3.867533   1.352679   0.000000
    24  F    4.160166   1.350373   2.182659   0.000000
    25  F    2.531915   1.356452   2.167066   2.166794   0.000000
    26  C    6.136235   4.811137   4.943798   5.005819   6.052941
    27  O    6.751412   4.869877   4.848922   4.824052   6.201764
    28  H   10.157663   8.656778   8.950774   8.296846   9.902497
    29  H    9.390104   7.548101   7.642042   7.203754   8.863708
    30  H    8.397110   6.965994   7.343998   6.672699   8.185383
    31  H   10.353244   9.057074   9.087668   9.014502  10.336459
    32  H    9.395699   8.507758   8.760830   8.533092   9.691763
    33  H    8.840068   7.915759   7.816698   8.218311   9.120395
    34  H    8.559246   7.052800   6.864356   7.160819   8.354053
    35  H    5.214508   6.409455   7.069224   7.096195   6.914669
    36  H    6.594855   7.254843   7.956760   7.673265   7.942463
    37  H    6.742847   7.572545   8.031427   8.227533   8.262325
                   26         27         28         29         30
    26  C    0.000000
    27  O    1.231134   0.000000
    28  H    4.494436   4.284120   0.000000
    29  H    3.502269   2.916357   1.770538   0.000000
    30  H    2.960541   2.908929   1.766711   1.777368   0.000000
    31  H    4.322393   4.300623   2.438707   2.514146   3.060694
    32  H    3.824462   4.227346   2.482703   3.064046   2.487568
    33  H    3.255268   3.673035   4.289389   3.762008   3.868460
    34  H    2.559710   2.377724   3.770520   2.581764   3.212799
    35  H    4.701302   5.904418   7.494946   7.464195   6.082262
    36  H    4.574560   5.713984   6.246062   6.576955   5.051780
    37  H    4.722237   5.936064   6.955737   7.056213   5.835487
                   31         32         33         34         35
    31  H    0.000000
    32  H    1.760016   0.000000
    33  H    2.413920   2.514093   0.000000
    34  H    2.497777   3.078159   1.756845   0.000000
    35  H    7.298203   5.838455   5.850345   6.523159   0.000000
    36  H    6.250206   4.603770   5.294818   6.055731   1.782930
    37  H    6.315617   4.881749   4.790696   5.873625   1.778917
                   36         37
    36  H    0.000000
    37  H    1.781012   0.000000
 Symmetry turned off by external request.
 Stoichiometry    C11H10F9N3O4
 Framework group  C1[X(C11H10F9N3O4)]
 Deg. of freedom   105
 Full point group                 C1      NOp   1
 Rotational constants (GHZ):      0.3591631      0.1326433      0.1114238
 Leave Link  202 at Sun Mar  3 17:58:30 2024, MaxMem=  5368709120 cpu:         0.1
 (Enter /home/k0335/k033513/app/g09/l301.exe)
 Standard basis: 6-31G(d,p) (6D, 7F)
 Ernie: Thresh=  0.10000D-02 Tol=  0.10000D-05 Strict=F.
   455 basis functions,   826 primitive gaussians,   455 cartesian basis functions
   105 alpha electrons      105 beta electrons
       nuclear repulsion energy      3145.0902869485 Hartrees.
 IExCor=20419 DFT=T Ex+Corr=CAM-B3LYP ExCW=0 ScaHFX=  1.000000
 ScaDFX=  1.000000  1.000000  1.000000  0.810000 ScalE2=  1.000000  1.000000
 IRadAn=      0 IRanWt=     -1 IRanGd=            0 ICorTp=0 IEmpDi=  4
  HFx wShort=  0.000000 wLong=  0.330000 cFull=  0.190000 cShort=  0.000000 cLong=  0.460000
  DFx wShort=  0.000000 wLong=  0.330000 cFull=  0.190000 cShort=  0.000000 cLong=  0.460000
 NAtoms=   37 NActive=   37 NUniq=   37 SFac= 1.00D+00 NAtFMM=   60 NAOKFM=F Big=F
 Integral buffers will be    131072 words long.
 Raffenetti 2 integral format.
 Two-electron integral symmetry is turned off.
 Using the following non-standard input for PCM:
 eps=4.9
 --- end of non-standard input.
 ------------------------------------------------------------------------------
 Polarizable Continuum Model (PCM)
 =================================
 Model                : PCM (using non-symmetric T matrix).
 Atomic radii         : UFF (Universal Force Field).
 Polarization charges : Total charges.
 Charge compensation  : None.
 Solution method      : On-the-fly selection.
 Cavity type          : Scaled VdW (van der Waals Surface) (Alpha=1.100).
 Cavity algorithm     : GePol (No added spheres)
                        Default sphere list used, NSphG=   37.
                        Lebedev-Laikov grids with approx.  5.0 points / Ang**2.
                        Smoothing algorithm: Karplus/York (Gamma=1.0000).
                        Polarization charges: spherical gaussians, with
                                              point-specific exponents (IZeta= 3).
                        Self-potential: point-specific (ISelfS= 7).
                        Self-field    : sphere-specific E.n sum rule (ISelfD= 2).
 Solvent              : Generic,
                        Eps                           =   4.900000
                        Eps(infinity)                 =   0.000000
                        RSolv                         =   0.000000 Ang.
                        Molar volume                  =   0.000000 cm**3/mol
                        Thermal expansion coefficient =   0.000000 K**-1
                        Absolute temperature          = 298.150000 K
                        Numeral density               =   0.000000 Ang**-3
                        Hydrogen bond acidity         =   0.000000
                        Hydrogen bond basicity        =   0.000000
                        Surface tension at interface  =   0.000000 (cal/mol)*Ang**-2
                        Carbon aromaticity            =   0.000000
                        Electronegative halogenicity  =   0.000000
 ------------------------------------------------------------------------------
 GePol: Number of generator spheres                  =      37
 GePol: Total number of spheres                      =      37
 GePol: Number of exposed spheres                    =      37 (100.00%)
 GePol: Number of points                             =    2884
 GePol: Average weight of points                     =       0.13
 GePol: Minimum weight of points                     =   0.16D-10
 GePol: Maximum weight of points                     =    0.20577
 GePol: Number of points with low weight             =     146
 GePol: Fraction of low-weight points (<1% of avg)   =       5.06%
 GePol: Cavity surface area                          =    367.380 Ang**2
 GePol: Cavity volume                                =    412.507 Ang**3
 Leave Link  301 at Sun Mar  3 17:58:30 2024, MaxMem=  5368709120 cpu:         0.7
 (Enter /home/k0335/k033513/app/g09/l302.exe)
 NPDir=0 NMtPBC=     1 NCelOv=     1 NCel=       1 NClECP=     1 NCelD=      1
         NCelK=      1 NCelE2=     1 NClLst=     1 CellRange=     0.0.
 One-electron integrals computed using PRISM.
 NBasis=   455 RedAO= T EigKep=  1.14D-03  NBF=   455
 NBsUse=   455 1.00D-06 EigRej= -1.00D+00 NBFU=   455
 Precomputing XC quadrature grid using
 IXCGrd= 4 IRadAn=           0 IRanWt=          -1 IRanGd=           0 AccXCQ= 0.00D+00.
 Generated NRdTot=       0 NPtTot=           0 NUsed=           0 NTot=          32
 NSgBfM=   448   448   448   448   448 MxSgAt=    37 MxSgA2=    37.
 Leave Link  302 at Sun Mar  3 17:58:30 2024, MaxMem=  5368709120 cpu:         7.1
 (Enter /home/k0335/k033513/app/g09/l303.exe)
 DipDrv:  MaxL=1.
 Leave Link  303 at Sun Mar  3 17:58:30 2024, MaxMem=  5368709120 cpu:         0.6
 (Enter /home/k0335/k033513/app/g09/l401.exe)
 ExpMin= 1.61D-01 ExpMax= 7.00D+03 ExpMxC= 1.05D+03 IAcc=1 IRadAn=         1 AccDes= 0.00D+00
 Harris functional with IExCor=20419 and IRadAn=       1 diagonalized for initial guess.
 HarFok:  IExCor=20419 AccDes= 0.00D+00 IRadAn=         1 IDoV= 1 UseB2=F ITyADJ=14
 ICtDFT=  3500011 ScaDFX=  1.000000  1.000000  1.000000  1.000000
 FoFCou: FMM=F IPFlag=           0 FMFlag=      100000 FMFlg1=           0
         NFxFlg=           0 DoJE=T BraDBF=F KetDBF=T FulRan=T
         wScrn=  0.000000 ICntrl=     500 IOpCl=  0 I1Cent=   200000004 NGrid=           0
         NMat0=    1 NMatS0=      1 NMatT0=    0 NMatD0=    1 NMtDS0=    0 NMtDT0=    0
 Symmetry not used in FoFCou.
 Harris En= -1732.11421106075    
 JPrj=0 DoOrth=F DoCkMO=F.
 Leave Link  401 at Sun Mar  3 17:58:31 2024, MaxMem=  5368709120 cpu:         8.6
 (Enter /home/k0335/k033513/app/g09/l502.exe)
 Closed shell SCF:
 Using DIIS extrapolation, IDIIS=  1040.
 Two-electron integral symmetry not used.
 IVT=      653349 IEndB=      653349 NGot=  5368709120 MDV=  5368279892
 LenX=  5368279892 LenY=  5368072412
 Requested convergence on RMS density matrix=1.00D-08 within 128 cycles.
 Requested convergence on MAX density matrix=1.00D-06.
 Requested convergence on             energy=1.00D-06.
 No special actions if energy rises.
 Fock matrices will be formed incrementally for  20 cycles.

 Cycle   1  Pass 1  IDiag  1:
 FoFJK:  IHMeth= 1 ICntrl=       0 DoSepK=T KAlg= 0 I1Cent=   0 FoldK=F
 IRaf=         1 NMat=   1 IRICut=       1 DoRegI=T DoRafI=F ISym2E= 0.
 FoFCou: FMM=F IPFlag=           0 FMFlag=      100000 FMFlg1=           0
         NFxFlg=           0 DoJE=T BraDBF=F KetDBF=F FulRan=T
         wScrn=  0.000000 ICntrl=     500 IOpCl=  0 I1Cent=           0 NGrid=           0
         NMat0=    1 NMatS0=      1 NMatT0=    0 NMatD0=    1 NMtDS0=    0 NMtDT0=    0
 Symmetry not used in FoFCou.
 Inv3:  Mode=1 IEnd=    24952368.
 Iteration    1 A*A^-1 deviation from unit magnitude is 5.55D-15 for   2884.
 Iteration    1 A*A^-1 deviation from orthogonality  is 3.85D-15 for   2025    605.
 Iteration    1 A^-1*A deviation from unit magnitude is 5.11D-15 for    605.
 Iteration    1 A^-1*A deviation from orthogonality  is 1.12D-14 for   2878   2843.
 E= -1787.81365482043    
 DIIS: error= 6.06D-02 at cycle   1 NSaved=   1.
 NSaved= 1 IEnMin= 1 EnMin= -1787.81365482043     IErMin= 1 ErrMin= 6.06D-02
 ErrMax= 6.06D-02  0.00D+00 EMaxC= 1.00D-01 BMatC= 1.46D+00 BMatP= 1.46D+00
 IDIUse=3 WtCom= 3.94D-01 WtEn= 6.06D-01
 Coeff-Com:  0.100D+01
 Coeff-En:   0.100D+01
 Coeff:      0.100D+01
 Gap=     0.440 Goal=   None    Shift=    0.000
 GapD=    0.440 DampG=2.000 DampE=0.500 DampFc=1.0000 IDamp=-1.
 RMSDP=3.26D-03 MaxDP=1.35D-01              OVMax= 1.42D-01

 Cycle   2  Pass 1  IDiag  1:
 RMSU=  3.26D-03    CP:  1.01D+00
 E= -1787.99906032624     Delta-E=       -0.185405505801 Rises=F Damp=F
 DIIS: error= 1.88D-02 at cycle   2 NSaved=   2.
 NSaved= 2 IEnMin= 2 EnMin= -1787.99906032624     IErMin= 2 ErrMin= 1.88D-02
 ErrMax= 1.88D-02  0.00D+00 EMaxC= 1.00D-01 BMatC= 5.79D-01 BMatP= 1.46D+00
 IDIUse=3 WtCom= 8.12D-01 WtEn= 1.88D-01
 Coeff-Com:  0.362D+00 0.638D+00
 Coeff-En:   0.380D+00 0.620D+00
 Coeff:      0.366D+00 0.634D+00
 Gap=     0.435 Goal=   None    Shift=    0.000
 RMSDP=1.85D-03 MaxDP=1.18D-01 DE=-1.85D-01 OVMax= 1.25D-01

 Cycle   3  Pass 1  IDiag  1:
 RMSU=  1.16D-03    CP:  1.00D+00  5.59D-01
 E= -1788.27368302141     Delta-E=       -0.274622695171 Rises=F Damp=F
 DIIS: error= 1.27D-02 at cycle   3 NSaved=   3.
 NSaved= 3 IEnMin= 3 EnMin= -1788.27368302141     IErMin= 3 ErrMin= 1.27D-02
 ErrMax= 1.27D-02  0.00D+00 EMaxC= 1.00D-01 BMatC= 1.68D-01 BMatP= 5.79D-01
 IDIUse=3 WtCom= 8.73D-01 WtEn= 1.27D-01
 Coeff-Com:  0.107D+00 0.360D+00 0.534D+00
 Coeff-En:   0.000D+00 0.228D+00 0.772D+00
 Coeff:      0.931D-01 0.343D+00 0.564D+00
 Gap=     0.373 Goal=   None    Shift=    0.000
 RMSDP=8.74D-04 MaxDP=6.29D-02 DE=-2.75D-01 OVMax= 7.95D-02

 Cycle   4  Pass 1  IDiag  1:
 RMSU=  3.74D-04    CP:  1.00D+00  6.84D-01  4.17D-01
 E= -1788.38396450216     Delta-E=       -0.110281480757 Rises=F Damp=F
 DIIS: error= 3.75D-03 at cycle   4 NSaved=   4.
 NSaved= 4 IEnMin= 4 EnMin= -1788.38396450216     IErMin= 4 ErrMin= 3.75D-03
 ErrMax= 3.75D-03  0.00D+00 EMaxC= 1.00D-01 BMatC= 1.58D-02 BMatP= 1.68D-01
 IDIUse=3 WtCom= 9.63D-01 WtEn= 3.75D-02
 Coeff-Com:  0.617D-02 0.960D-01 0.289D+00 0.608D+00
 Coeff-En:   0.000D+00 0.000D+00 0.415D-01 0.958D+00
 Coeff:      0.594D-02 0.924D-01 0.280D+00 0.622D+00
 Gap=     0.363 Goal=   None    Shift=    0.000
 RMSDP=2.52D-04 MaxDP=1.69D-02 DE=-1.10D-01 OVMax= 1.78D-02

 Cycle   5  Pass 1  IDiag  1:
 RMSU=  1.04D-04    CP:  1.00D+00  6.74D-01  5.81D-01  6.72D-01
 E= -1788.39452663233     Delta-E=       -0.010562130169 Rises=F Damp=F
 DIIS: error= 7.55D-04 at cycle   5 NSaved=   5.
 NSaved= 5 IEnMin= 5 EnMin= -1788.39452663233     IErMin= 5 ErrMin= 7.55D-04
 ErrMax= 7.55D-04  0.00D+00 EMaxC= 1.00D-01 BMatC= 8.00D-04 BMatP= 1.58D-02
 IDIUse=3 WtCom= 9.92D-01 WtEn= 7.55D-03
 Coeff-Com: -0.143D-02 0.296D-01 0.115D+00 0.322D+00 0.535D+00
 Coeff-En:   0.000D+00 0.000D+00 0.000D+00 0.000D+00 0.100D+01
 Coeff:     -0.142D-02 0.294D-01 0.114D+00 0.320D+00 0.538D+00
 Gap=     0.358 Goal=   None    Shift=    0.000
 RMSDP=5.20D-05 MaxDP=2.54D-03 DE=-1.06D-02 OVMax= 3.58D-03

 Cycle   6  Pass 1  IDiag  1:
 RMSU=  2.92D-05    CP:  1.00D+00  6.79D-01  5.72D-01  7.08D-01  6.49D-01
 E= -1788.39509256967     Delta-E=       -0.000565937338 Rises=F Damp=F
 DIIS: error= 1.17D-04 at cycle   6 NSaved=   6.
 NSaved= 6 IEnMin= 6 EnMin= -1788.39509256967     IErMin= 6 ErrMin= 1.17D-04
 ErrMax= 1.17D-04  0.00D+00 EMaxC= 1.00D-01 BMatC= 2.31D-05 BMatP= 8.00D-04
 IDIUse=3 WtCom= 9.99D-01 WtEn= 1.17D-03
 Coeff-Com: -0.816D-03-0.115D-02 0.371D-02 0.289D-01 0.163D+00 0.806D+00
 Coeff-En:   0.000D+00 0.000D+00 0.000D+00 0.000D+00 0.000D+00 0.100D+01
 Coeff:     -0.815D-03-0.114D-02 0.370D-02 0.289D-01 0.163D+00 0.806D+00
 Gap=     0.359 Goal=   None    Shift=    0.000
 RMSDP=1.30D-05 MaxDP=7.56D-04 DE=-5.66D-04 OVMax= 8.42D-04

 Cycle   7  Pass 1  IDiag  1:
 RMSU=  8.94D-06    CP:  1.00D+00  6.78D-01  5.75D-01  7.20D-01  7.17D-01
                    CP:  9.73D-01
 E= -1788.39511098689     Delta-E=       -0.000018417220 Rises=F Damp=F
 DIIS: error= 5.16D-05 at cycle   7 NSaved=   7.
 NSaved= 7 IEnMin= 7 EnMin= -1788.39511098689     IErMin= 7 ErrMin= 5.16D-05
 ErrMax= 5.16D-05  0.00D+00 EMaxC= 1.00D-01 BMatC= 3.94D-06 BMatP= 2.31D-05
 IDIUse=1 WtCom= 1.00D+00 WtEn= 0.00D+00
 Coeff-Com: -0.141D-03-0.329D-02-0.876D-02-0.167D-01 0.271D-01 0.362D+00
 Coeff-Com:  0.640D+00
 Coeff:     -0.141D-03-0.329D-02-0.876D-02-0.167D-01 0.271D-01 0.362D+00
 Coeff:      0.640D+00
 Gap=     0.359 Goal=   None    Shift=    0.000
 RMSDP=4.31D-06 MaxDP=2.28D-04 DE=-1.84D-05 OVMax= 3.03D-04

 Cycle   8  Pass 1  IDiag  1:
 RMSU=  2.62D-06    CP:  1.00D+00  6.78D-01  5.75D-01  7.20D-01  7.32D-01
                    CP:  1.05D+00  7.96D-01
 E= -1788.39511466055     Delta-E=       -0.000003673662 Rises=F Damp=F
 DIIS: error= 9.43D-06 at cycle   8 NSaved=   8.
 NSaved= 8 IEnMin= 8 EnMin= -1788.39511466055     IErMin= 8 ErrMin= 9.43D-06
 ErrMax= 9.43D-06  0.00D+00 EMaxC= 1.00D-01 BMatC= 1.48D-07 BMatP= 3.94D-06
 IDIUse=1 WtCom= 1.00D+00 WtEn= 0.00D+00
 Coeff-Com:  0.143D-04-0.774D-03-0.230D-02-0.665D-02-0.650D-02 0.165D-01
 Coeff-Com:  0.135D+00 0.865D+00
 Coeff:      0.143D-04-0.774D-03-0.230D-02-0.665D-02-0.650D-02 0.165D-01
 Coeff:      0.135D+00 0.865D+00
 Gap=     0.359 Goal=   None    Shift=    0.000
 RMSDP=1.56D-06 MaxDP=1.24D-04 DE=-3.67D-06 OVMax= 1.63D-04

 Cycle   9  Pass 1  IDiag  1:
 RMSU=  9.11D-07    CP:  1.00D+00  6.78D-01  5.76D-01  7.20D-01  7.37D-01
                    CP:  1.07D+00  8.76D-01  1.13D+00
 E= -1788.39511484321     Delta-E=       -0.000000182659 Rises=F Damp=F
 DIIS: error= 4.44D-06 at cycle   9 NSaved=   9.
 NSaved= 9 IEnMin= 9 EnMin= -1788.39511484321     IErMin= 9 ErrMin= 4.44D-06
 ErrMax= 4.44D-06  0.00D+00 EMaxC= 1.00D-01 BMatC= 4.91D-08 BMatP= 1.48D-07
 IDIUse=1 WtCom= 1.00D+00 WtEn= 0.00D+00
 Coeff-Com:  0.238D-04 0.125D-03 0.290D-03-0.728D-03-0.729D-02-0.489D-01
 Coeff-Com: -0.316D-01 0.434D+00 0.655D+00
 Coeff:      0.238D-04 0.125D-03 0.290D-03-0.728D-03-0.729D-02-0.489D-01
 Coeff:     -0.316D-01 0.434D+00 0.655D+00
 Gap=     0.359 Goal=   None    Shift=    0.000
 RMSDP=5.95D-07 MaxDP=4.30D-05 DE=-1.83D-07 OVMax= 5.90D-05

 Cycle  10  Pass 1  IDiag  1:
 RMSU=  3.19D-07    CP:  1.00D+00  6.78D-01  5.76D-01  7.21D-01  7.38D-01
                    CP:  1.08D+00  8.98D-01  1.25D+00  8.73D-01
 E= -1788.39511488771     Delta-E=       -0.000000044498 Rises=F Damp=F
 DIIS: error= 1.46D-06 at cycle  10 NSaved=  10.
 NSaved=10 IEnMin=10 EnMin= -1788.39511488771     IErMin=10 ErrMin= 1.46D-06
 ErrMax= 1.46D-06  0.00D+00 EMaxC= 1.00D-01 BMatC= 2.41D-09 BMatP= 4.91D-08
 IDIUse=1 WtCom= 1.00D+00 WtEn= 0.00D+00
 Coeff-Com:  0.673D-05 0.113D-03 0.335D-03 0.361D-03-0.156D-02-0.175D-01
 Coeff-Com: -0.222D-01 0.684D-01 0.212D+00 0.761D+00
 Coeff:      0.673D-05 0.113D-03 0.335D-03 0.361D-03-0.156D-02-0.175D-01
 Coeff:     -0.222D-01 0.684D-01 0.212D+00 0.761D+00
 Gap=     0.359 Goal=   None    Shift=    0.000
 RMSDP=1.70D-07 MaxDP=1.21D-05 DE=-4.45D-08 OVMax= 2.30D-05

 Cycle  11  Pass 1  IDiag  1:
 RMSU=  1.11D-07    CP:  1.00D+00  6.78D-01  5.76D-01  7.21D-01  7.39D-01
                    CP:  1.08D+00  9.03D-01  1.28D+00  9.58D-01  9.91D-01
 E= -1788.39511488994     Delta-E=       -0.000000002228 Rises=F Damp=F
 DIIS: error= 6.84D-07 at cycle  11 NSaved=  11.
 NSaved=11 IEnMin=11 EnMin= -1788.39511488994     IErMin=11 ErrMin= 6.84D-07
 ErrMax= 6.84D-07  0.00D+00 EMaxC= 1.00D-01 BMatC= 6.83D-10 BMatP= 2.41D-09
 IDIUse=1 WtCom= 1.00D+00 WtEn= 0.00D+00
 Coeff-Com:  0.121D-05 0.457D-04 0.151D-03 0.263D-03 0.759D-04-0.374D-02
 Coeff-Com: -0.823D-02-0.135D-01 0.351D-01 0.396D+00 0.593D+00
 Coeff:      0.121D-05 0.457D-04 0.151D-03 0.263D-03 0.759D-04-0.374D-02
 Coeff:     -0.823D-02-0.135D-01 0.351D-01 0.396D+00 0.593D+00
 Gap=     0.359 Goal=   None    Shift=    0.000
 RMSDP=6.24D-08 MaxDP=4.32D-06 DE=-2.23D-09 OVMax= 5.55D-06

 Cycle  12  Pass 1  IDiag  1:
 RMSU=  3.61D-08    CP:  1.00D+00  6.78D-01  5.76D-01  7.21D-01  7.39D-01
                    CP:  1.08D+00  9.04D-01  1.29D+00  9.69D-01  1.09D+00
                    CP:  8.08D-01
 E= -1788.39511489040     Delta-E=       -0.000000000461 Rises=F Damp=F
 DIIS: error= 2.93D-07 at cycle  12 NSaved=  12.
 NSaved=12 IEnMin=12 EnMin= -1788.39511489040     IErMin=12 ErrMin= 2.93D-07
 ErrMax= 2.93D-07  0.00D+00 EMaxC= 1.00D-01 BMatC= 5.54D-11 BMatP= 6.83D-10
 IDIUse=1 WtCom= 1.00D+00 WtEn= 0.00D+00
 Coeff-Com: -0.400D-06 0.189D-05 0.164D-04 0.487D-04 0.302D-03 0.105D-02
 Coeff-Com:  0.950D-04-0.142D-01-0.174D-01 0.314D-01 0.208D+00 0.791D+00
 Coeff:     -0.400D-06 0.189D-05 0.164D-04 0.487D-04 0.302D-03 0.105D-02
 Coeff:      0.950D-04-0.142D-01-0.174D-01 0.314D-01 0.208D+00 0.791D+00
 Gap=     0.359 Goal=   None    Shift=    0.000
 RMSDP=2.41D-08 MaxDP=1.64D-06 DE=-4.61D-10 OVMax= 2.49D-06

 Cycle  13  Pass 1  IDiag  1:
 RMSU=  1.19D-08    CP:  1.00D+00  6.78D-01  5.76D-01  7.20D-01  7.39D-01
                    CP:  1.08D+00  9.04D-01  1.29D+00  9.80D-01  1.11D+00
                    CP:  8.96D-01  9.42D-01
 E= -1788.39511489044     Delta-E=       -0.000000000040 Rises=F Damp=F
 DIIS: error= 6.43D-08 at cycle  13 NSaved=  13.
 NSaved=13 IEnMin=13 EnMin= -1788.39511489044     IErMin=13 ErrMin= 6.43D-08
 ErrMax= 6.43D-08  0.00D+00 EMaxC= 1.00D-01 BMatC= 6.19D-12 BMatP= 5.54D-11
 IDIUse=1 WtCom= 1.00D+00 WtEn= 0.00D+00
 Coeff-Com: -0.301D-06-0.369D-05-0.625D-05-0.451D-05 0.131D-03 0.804D-03
 Coeff-Com:  0.859D-03-0.463D-02-0.107D-01-0.272D-01 0.276D-01 0.328D+00
 Coeff-Com:  0.685D+00
 Coeff:     -0.301D-06-0.369D-05-0.625D-05-0.451D-05 0.131D-03 0.804D-03
 Coeff:      0.859D-03-0.463D-02-0.107D-01-0.272D-01 0.276D-01 0.328D+00
 Coeff:      0.685D+00
 Gap=     0.359 Goal=   None    Shift=    0.000
 RMSDP=6.74D-09 MaxDP=3.36D-07 DE=-4.00D-11 OVMax= 5.73D-07

 Error on total polarization charges =  0.00445
 SCF Done:  E(RCAM-B3LYP) =  -1788.39511489     A.U. after   13 cycles
            NFock= 13  Conv=0.67D-08     -V/T= 2.0077
 KE= 1.774711304401D+03 PE=-1.050501822455D+04 EE= 3.796821518309D+03
 Leave Link  502 at Sun Mar  3 17:59:03 2024, MaxMem=  5368709120 cpu:       715.6
 (Enter /home/k0335/k033513/app/g09/l601.exe)
 Copying SCF densities to generalized density rwf, IOpCl= 0 IROHF=0.

 **********************************************************************

            Population analysis using the SCF density.

 **********************************************************************

 Alpha  occ. eigenvalues --  -24.83734 -24.83501 -24.83386 -24.83350 -24.82696
 Alpha  occ. eigenvalues --  -24.82644 -24.82526 -24.82384 -24.81825 -19.33119
 Alpha  occ. eigenvalues --  -19.23308 -19.22926 -19.22479 -14.51788 -14.49400
 Alpha  occ. eigenvalues --  -14.49259 -10.59586 -10.55271 -10.52886 -10.48908
 Alpha  occ. eigenvalues --  -10.44832 -10.44746 -10.43602 -10.30821 -10.30734
 Alpha  occ. eigenvalues --  -10.26146 -10.24575  -1.43195  -1.41605  -1.38469
 Alpha  occ. eigenvalues --   -1.34974  -1.33468  -1.33240  -1.32603  -1.32039
 Alpha  occ. eigenvalues --   -1.31395  -1.21593  -1.20466  -1.16645  -1.16131
 Alpha  occ. eigenvalues --   -1.08579  -1.06111  -1.04678  -0.93168  -0.88039
 Alpha  occ. eigenvalues --   -0.84799  -0.82924  -0.81470  -0.80347  -0.77790
 Alpha  occ. eigenvalues --   -0.75375  -0.74841  -0.72855  -0.72611  -0.70959
 Alpha  occ. eigenvalues --   -0.70360  -0.69663  -0.68696  -0.68065  -0.66973
 Alpha  occ. eigenvalues --   -0.66554  -0.65469  -0.64859  -0.61525  -0.59991
 Alpha  occ. eigenvalues --   -0.59244  -0.57392  -0.57146  -0.56338  -0.56214
 Alpha  occ. eigenvalues --   -0.55570  -0.55412  -0.54818  -0.54715  -0.54345
 Alpha  occ. eigenvalues --   -0.54065  -0.53595  -0.52906  -0.52862  -0.52553
 Alpha  occ. eigenvalues --   -0.52001  -0.51649  -0.51455  -0.50711  -0.50285
 Alpha  occ. eigenvalues --   -0.50187  -0.50155  -0.49655  -0.49028  -0.48986
 Alpha  occ. eigenvalues --   -0.48338  -0.47672  -0.47504  -0.46605  -0.45791
 Alpha  occ. eigenvalues --   -0.44100  -0.42157  -0.41138  -0.40634  -0.39625
 Alpha  occ. eigenvalues --   -0.38621  -0.37587  -0.35641  -0.35007  -0.34562
 Alpha virt. eigenvalues --    0.01315   0.02834   0.07248   0.08051   0.11368
 Alpha virt. eigenvalues --    0.14325   0.16357   0.17166   0.17345   0.17485
 Alpha virt. eigenvalues --    0.18059   0.19072   0.19198   0.19833   0.20935
 Alpha virt. eigenvalues --    0.21120   0.21611   0.22484   0.22713   0.22902
 Alpha virt. eigenvalues --    0.23331   0.23643   0.24422   0.25096   0.25958
 Alpha virt. eigenvalues --    0.26535   0.27194   0.27543   0.28329   0.28556
 Alpha virt. eigenvalues --    0.29548   0.30911   0.31352   0.33635   0.36735
 Alpha virt. eigenvalues --    0.38004   0.40233   0.40966   0.42055   0.48418
 Alpha virt. eigenvalues --    0.48829   0.50646   0.51347   0.52137   0.53074
 Alpha virt. eigenvalues --    0.54574   0.54670   0.55283   0.55822   0.56236
 Alpha virt. eigenvalues --    0.56898   0.57664   0.58535   0.59085   0.59603
 Alpha virt. eigenvalues --    0.60590   0.62309   0.62769   0.63474   0.64542
 Alpha virt. eigenvalues --    0.65882   0.67993   0.70347   0.70562   0.71783
 Alpha virt. eigenvalues --    0.72758   0.73562   0.74373   0.75372   0.76594
 Alpha virt. eigenvalues --    0.79267   0.80762   0.81903   0.82644   0.84395
 Alpha virt. eigenvalues --    0.85190   0.87044   0.87228   0.88353   0.89295
 Alpha virt. eigenvalues --    0.89562   0.90264   0.91494   0.92780   0.92896
 Alpha virt. eigenvalues --    0.94364   0.95739   0.95890   0.96635   0.97457
 Alpha virt. eigenvalues --    0.98037   0.98350   0.98830   0.99398   1.01118
 Alpha virt. eigenvalues --    1.02140   1.03932   1.04772   1.05148   1.07101
 Alpha virt. eigenvalues --    1.07572   1.08403   1.09359   1.09949   1.11151
 Alpha virt. eigenvalues --    1.12899   1.14321   1.15248   1.15722   1.16543
 Alpha virt. eigenvalues --    1.17710   1.18333   1.19284   1.20173   1.21547
 Alpha virt. eigenvalues --    1.21950   1.23378   1.24783   1.25608   1.27479
 Alpha virt. eigenvalues --    1.27971   1.29232   1.29820   1.30738   1.30985
 Alpha virt. eigenvalues --    1.32750   1.33852   1.34255   1.34998   1.35657
 Alpha virt. eigenvalues --    1.36539   1.38583   1.39072   1.40100   1.41091
 Alpha virt. eigenvalues --    1.41522   1.41992   1.42519   1.43959   1.44671
 Alpha virt. eigenvalues --    1.45797   1.48463   1.48944   1.50186   1.51555
 Alpha virt. eigenvalues --    1.52933   1.53142   1.53412   1.54498   1.55040
 Alpha virt. eigenvalues --    1.56452   1.57686   1.58661   1.59216   1.60214
 Alpha virt. eigenvalues --    1.60718   1.63018   1.63530   1.64413   1.68202
 Alpha virt. eigenvalues --    1.69767   1.70257   1.70495   1.71567   1.73640
 Alpha virt. eigenvalues --    1.74400   1.75079   1.75974   1.77287   1.78455
 Alpha virt. eigenvalues --    1.79792   1.81138   1.81927   1.82046   1.82678
 Alpha virt. eigenvalues --    1.83505   1.83722   1.85708   1.86242   1.86649
 Alpha virt. eigenvalues --    1.87614   1.88064   1.89092   1.89428   1.89830
 Alpha virt. eigenvalues --    1.90573   1.91321   1.91643   1.92340   1.92876
 Alpha virt. eigenvalues --    1.93552   1.94015   1.94187   1.95267   1.96259
 Alpha virt. eigenvalues --    1.97279   1.97723   1.98838   1.99833   1.99869
 Alpha virt. eigenvalues --    2.00485   2.00617   2.01300   2.01893   2.02501
 Alpha virt. eigenvalues --    2.02938   2.03403   2.03966   2.04385   2.04756
 Alpha virt. eigenvalues --    2.05622   2.06048   2.06892   2.08393   2.09168
 Alpha virt. eigenvalues --    2.10001   2.10640   2.11065   2.12216   2.12684
 Alpha virt. eigenvalues --    2.14188   2.14978   2.16059   2.17178   2.17550
 Alpha virt. eigenvalues --    2.17940   2.18754   2.19922   2.19981   2.21214
 Alpha virt. eigenvalues --    2.21909   2.22093   2.23453   2.26271   2.27378
 Alpha virt. eigenvalues --    2.27809   2.28749   2.29956   2.30936   2.33814
 Alpha virt. eigenvalues --    2.34872   2.35112   2.36260   2.37601   2.38723
 Alpha virt. eigenvalues --    2.39421   2.41161   2.42121   2.43214   2.45360
 Alpha virt. eigenvalues --    2.46341   2.46861   2.47329   2.48446   2.50178
 Alpha virt. eigenvalues --    2.51941   2.52121   2.53709   2.55130   2.55854
 Alpha virt. eigenvalues --    2.57570   2.59538   2.60991   2.63676   2.64174
 Alpha virt. eigenvalues --    2.67162   2.67614   2.68290   2.68487   2.70649
 Alpha virt. eigenvalues --    2.71658   2.74372   2.75505   2.76262   2.76457
 Alpha virt. eigenvalues --    2.78484   2.79195   2.80207   2.80977   2.83586
 Alpha virt. eigenvalues --    2.84824   2.85812   2.88540   2.90216   2.92395
 Alpha virt. eigenvalues --    2.92851   2.94016   2.94606   2.95120   2.95956
 Alpha virt. eigenvalues --    2.97352   2.98291   2.98590   2.99483   2.99712
 Alpha virt. eigenvalues --    3.01168   3.02887   3.05005   3.06260   3.06747
 Alpha virt. eigenvalues --    3.07931   3.08980   3.14652   3.15359   3.18566
 Alpha virt. eigenvalues --    3.20172   3.21718   3.23117   3.25905   3.27033
 Alpha virt. eigenvalues --    3.27494   3.30424   3.32888   3.36398   3.38611
 Alpha virt. eigenvalues --    3.43887   3.45878   3.47956   3.51882   3.52678
 Alpha virt. eigenvalues --    3.55972   3.58409   3.64334   4.05401   4.13467
 Alpha virt. eigenvalues --    4.14767   4.17038   4.27553   4.30923   4.33981
 Alpha virt. eigenvalues --    4.34536   4.43434   4.45187   4.48306   4.51077
 Alpha virt. eigenvalues --    4.55607   4.61191   4.65086   4.66363   4.71493
 Alpha virt. eigenvalues --    4.77985   4.80944   4.90535   5.06972   5.21626
 Alpha virt. eigenvalues --    5.39459   5.47366   5.78553   6.27843   6.38635
          Condensed to atoms (all electrons):
               1          2          3          4          5          6
     1  C    4.907322   0.368812  -0.049486  -0.004839   0.000162   0.000047
     2  C    0.368812   4.900371   0.371898  -0.046392  -0.002882  -0.004895
     3  C   -0.049486   0.371898   4.831368   0.244306  -0.024342   0.002283
     4  N   -0.004839  -0.046392   0.244306   7.281184   0.260358  -0.089725
     5  C    0.000162  -0.002882  -0.024342   0.260358   4.149088   0.600146
     6  O    0.000047  -0.004895   0.002283  -0.089725   0.600146   8.086648
     7  N   -0.000011  -0.000185   0.003641  -0.101061   0.263117  -0.091729
     8  C    0.000000   0.000011  -0.000070   0.003518  -0.026642   0.000610
     9  C    0.000019  -0.000059   0.000037  -0.003786  -0.023225   0.000205
    10  O    0.000000   0.000000   0.000001   0.000077   0.000266  -0.000025
    11  N   -0.000016  -0.000184   0.002907  -0.093903  -0.001385   0.000007
    12  C   -0.000004   0.000008  -0.000030   0.002810   0.000429   0.000001
    13  F   -0.000002   0.000000   0.000001   0.000014   0.000012   0.000000
    14  F    0.000000   0.000000   0.000008  -0.000033   0.000000   0.000000
    15  C    0.000000   0.000000   0.000001  -0.000075  -0.000010   0.000000
    16  F    0.000000   0.000000   0.000000   0.000000   0.000000   0.000000
    17  O    0.000000   0.000000   0.000000  -0.000004   0.000004   0.000000
    18  C    0.000000   0.000000   0.000000   0.000000   0.000000   0.000000
    19  F    0.000000   0.000000   0.000000   0.000000   0.000000   0.000000
    20  F    0.000000   0.000000   0.000000   0.000000   0.000000   0.000000
    21  F    0.000000   0.000000   0.000000   0.000000   0.000000   0.000000
    22  C    0.000000   0.000000   0.000000   0.000000   0.000000   0.000000
    23  F    0.000000   0.000000   0.000000   0.000000   0.000000   0.000000
    24  F    0.000000   0.000000   0.000000   0.000000   0.000000   0.000000
    25  F    0.000000   0.000000   0.000000   0.000000   0.000000   0.000000
    26  C    0.003511  -0.003801  -0.023439   0.280945  -0.020748   0.000452
    27  O    0.001571  -0.002309  -0.000166  -0.088147   0.000363  -0.000027
    28  H    0.385009  -0.029931   0.005148  -0.000124  -0.000010   0.000000
    29  H    0.392271  -0.035590  -0.004655  -0.000316  -0.000027  -0.000003
    30  H    0.391083  -0.034168  -0.007431   0.003154   0.000465   0.000016
    31  H   -0.036963   0.388328  -0.033955   0.004184  -0.000072   0.000038
    32  H   -0.041746   0.392399  -0.034217  -0.007311   0.004538   0.005984
    33  H    0.004770  -0.036371   0.388245  -0.038134  -0.004620   0.007237
    34  H   -0.005960  -0.035449   0.388551  -0.033965   0.004017   0.000470
    35  H    0.000000   0.000000   0.000001  -0.000072   0.003869   0.000578
    36  H    0.000000  -0.000003   0.000004  -0.000033  -0.001464   0.000832
    37  H    0.000000   0.000001  -0.000005   0.000338  -0.004348   0.007403
               7          8          9         10         11         12
     1  C   -0.000011   0.000000   0.000019   0.000000  -0.000016  -0.000004
     2  C   -0.000185   0.000011  -0.000059   0.000000  -0.000184   0.000008
     3  C    0.003641  -0.000070   0.000037   0.000001   0.002907  -0.000030
     4  N   -0.101061   0.003518  -0.003786   0.000077  -0.093903   0.002810
     5  C    0.263117  -0.026642  -0.023225   0.000266  -0.001385   0.000429
     6  O   -0.091729   0.000610   0.000205  -0.000025   0.000007   0.000001
     7  N    7.280170   0.260389   0.251881  -0.097006  -0.103621   0.003638
     8  C    0.260389   4.790214  -0.028941   0.000646   0.003461  -0.000024
     9  C    0.251881  -0.028941   4.207834   0.602487   0.202420  -0.010024
    10  O   -0.097006   0.000646   0.602487   8.078168  -0.095641   0.012291
    11  N   -0.103621   0.003461   0.202420  -0.095641   7.585544   0.162617
    12  C    0.003638  -0.000024  -0.010024   0.012291   0.162617   4.292987
    13  F   -0.000005   0.000001   0.005086  -0.000868  -0.067467   0.284790
    14  F   -0.000022   0.000000   0.001982   0.000021  -0.037831   0.253209
    15  C   -0.000308  -0.000015  -0.008641   0.008907  -0.029229   0.244375
    16  F   -0.000003   0.000003   0.003540  -0.014076  -0.001195  -0.021969
    17  O   -0.000282   0.000003   0.004911  -0.003803  -0.001831  -0.026691
    18  C   -0.000008   0.000000   0.000107   0.000296  -0.000034   0.000872
    19  F    0.000000   0.000000   0.000002   0.000000   0.000001  -0.000134
    20  F    0.000000   0.000000  -0.000007  -0.000002   0.000000  -0.000045
    21  F    0.000000   0.000000   0.000003  -0.000017  -0.000002   0.000234
    22  C   -0.000001   0.000000   0.000277   0.000330   0.002443  -0.025801
    23  F    0.000000   0.000000   0.000000   0.000000  -0.000055  -0.002308
    24  F    0.000000   0.000000  -0.000002   0.000000   0.000046   0.010148
    25  F    0.000000   0.000000  -0.000001   0.000000  -0.000008   0.001398
    26  C   -0.003472   0.000101  -0.016160   0.000097   0.197341  -0.000271
    27  O    0.000141   0.000002  -0.000493  -0.000021  -0.089443   0.018798
    28  H    0.000001   0.000000  -0.000001   0.000000   0.000001   0.000000
    29  H    0.000000   0.000000   0.000001   0.000000   0.000019  -0.000002
    30  H   -0.000059  -0.000001   0.000126   0.000001  -0.000237   0.000013
    31  H   -0.000001   0.000000   0.000001   0.000000   0.000001   0.000000
    32  H   -0.000099   0.000010  -0.000003   0.000000   0.000002   0.000000
    33  H    0.000313  -0.000011   0.000042   0.000000  -0.000124  -0.000002
    34  H   -0.000110   0.000001   0.000017   0.000000   0.000443  -0.000008
    35  H   -0.030381   0.388461  -0.002782   0.005758   0.000296  -0.000007
    36  H   -0.042098   0.401412  -0.003127   0.001034  -0.000092   0.000008
    37  H   -0.030932   0.388210   0.004587   0.000566  -0.000066  -0.000001
              13         14         15         16         17         18
     1  C   -0.000002   0.000000   0.000000   0.000000   0.000000   0.000000
     2  C    0.000000   0.000000   0.000000   0.000000   0.000000   0.000000
     3  C    0.000001   0.000008   0.000001   0.000000   0.000000   0.000000
     4  N    0.000014  -0.000033  -0.000075   0.000000  -0.000004   0.000000
     5  C    0.000012   0.000000  -0.000010   0.000000   0.000004   0.000000
     6  O    0.000000   0.000000   0.000000   0.000000   0.000000   0.000000
     7  N   -0.000005  -0.000022  -0.000308  -0.000003  -0.000282  -0.000008
     8  C    0.000001   0.000000  -0.000015   0.000003   0.000003   0.000000
     9  C    0.005086   0.001982  -0.008641   0.003540   0.004911   0.000107
    10  O   -0.000868   0.000021   0.008907  -0.014076  -0.003803   0.000296
    11  N   -0.067467  -0.037831  -0.029229  -0.001195  -0.001831  -0.000034
    12  C    0.284790   0.253209   0.244375  -0.021969  -0.026691   0.000872
    13  F    9.096750  -0.036204  -0.025611   0.000224   0.000549   0.000004
    14  F   -0.036204   9.126423  -0.035718   0.000328   0.000665  -0.000036
    15  C   -0.025611  -0.035718   4.970060   0.203799   0.133364  -0.000247
    16  F    0.000224   0.000328   0.203799   9.142176  -0.044413  -0.001066
    17  O    0.000549   0.000665   0.133364  -0.044413   8.378509   0.235865
    18  C    0.000004  -0.000036  -0.000247  -0.001066   0.235865   3.819591
    19  F    0.000000   0.000001  -0.008953  -0.000021  -0.048141   0.303395
    20  F    0.000000   0.000000   0.000579  -0.000021  -0.039749   0.338157
    21  F    0.000000   0.000000   0.012610  -0.002880  -0.044454   0.299447
    22  C   -0.004512   0.012553   0.220219  -0.011008  -0.025447  -0.002574
    23  F   -0.000012  -0.003046  -0.034248   0.000317   0.000393  -0.000291
    24  F   -0.000386  -0.001900  -0.033820  -0.000284   0.000546   0.000063
    25  F   -0.000002   0.000004  -0.031744  -0.000364  -0.001414   0.011426
    26  C    0.006669   0.003990   0.003751  -0.000056  -0.000071   0.000002
    27  O   -0.002855  -0.011637   0.000302   0.000000   0.000000   0.000000
    28  H    0.000000   0.000000   0.000000   0.000000   0.000000   0.000000
    29  H    0.000000   0.000000   0.000000   0.000000   0.000000   0.000000
    30  H    0.000009   0.000000   0.000000   0.000000   0.000000   0.000000
    31  H    0.000000   0.000000   0.000000   0.000000   0.000000   0.000000
    32  H    0.000000   0.000000   0.000000   0.000000   0.000000   0.000000
    33  H    0.000000   0.000000   0.000000   0.000000   0.000000   0.000000
    34  H    0.000000  -0.000001   0.000000   0.000000   0.000000   0.000000
    35  H    0.000000   0.000000   0.000009  -0.000002  -0.000002   0.000006
    36  H    0.000000   0.000000  -0.000001   0.000000   0.000000   0.000000
    37  H    0.000000   0.000000   0.000000   0.000000   0.000000   0.000000
              19         20         21         22         23         24
     1  C    0.000000   0.000000   0.000000   0.000000   0.000000   0.000000
     2  C    0.000000   0.000000   0.000000   0.000000   0.000000   0.000000
     3  C    0.000000   0.000000   0.000000   0.000000   0.000000   0.000000
     4  N    0.000000   0.000000   0.000000   0.000000   0.000000   0.000000
     5  C    0.000000   0.000000   0.000000   0.000000   0.000000   0.000000
     6  O    0.000000   0.000000   0.000000   0.000000   0.000000   0.000000
     7  N    0.000000   0.000000   0.000000  -0.000001   0.000000   0.000000
     8  C    0.000000   0.000000   0.000000   0.000000   0.000000   0.000000
     9  C    0.000002  -0.000007   0.000003   0.000277   0.000000  -0.000002
    10  O    0.000000  -0.000002  -0.000017   0.000330   0.000000   0.000000
    11  N    0.000001   0.000000  -0.000002   0.002443  -0.000055   0.000046
    12  C   -0.000134  -0.000045   0.000234  -0.025801  -0.002308   0.010148
    13  F    0.000000   0.000000   0.000000  -0.004512  -0.000012  -0.000386
    14  F    0.000001   0.000000   0.000000   0.012553  -0.003046  -0.001900
    15  C   -0.008953   0.000579   0.012610   0.220219  -0.034248  -0.033820
    16  F   -0.000021  -0.000021  -0.002880  -0.011008   0.000317  -0.000284
    17  O   -0.048141  -0.039749  -0.044454  -0.025447   0.000393   0.000546
    18  C    0.303395   0.338157   0.299447  -0.002574  -0.000291   0.000063
    19  F    9.059742  -0.037879  -0.034320   0.017216  -0.000489   0.000000
    20  F   -0.037879   9.016383  -0.036420  -0.000035   0.000000   0.000000
    21  F   -0.034320  -0.036420   9.049579  -0.004712   0.000013   0.000000
    22  C    0.017216  -0.000035  -0.004712   4.163301   0.270829   0.290059
    23  F   -0.000489   0.000000   0.000013   0.270829   9.092659  -0.037060
    24  F    0.000000   0.000000   0.000000   0.290059  -0.037060   9.053630
    25  F   -0.005934  -0.000002  -0.001107   0.282442  -0.039154  -0.038708
    26  C    0.000000   0.000000   0.000000  -0.000073   0.000002   0.000006
    27  O    0.000000   0.000000   0.000000   0.000000   0.000000   0.000000
    28  H    0.000000   0.000000   0.000000   0.000000   0.000000   0.000000
    29  H    0.000000   0.000000   0.000000   0.000000   0.000000   0.000000
    30  H    0.000000   0.000000   0.000000   0.000000   0.000000   0.000000
    31  H    0.000000   0.000000   0.000000   0.000000   0.000000   0.000000
    32  H    0.000000   0.000000   0.000000   0.000000   0.000000   0.000000
    33  H    0.000000   0.000000   0.000000   0.000000   0.000000   0.000000
    34  H    0.000000   0.000000   0.000000   0.000000   0.000000   0.000000
    35  H    0.000000   0.000000   0.000000   0.000000   0.000000   0.000000
    36  H    0.000000   0.000000   0.000000   0.000000   0.000000   0.000000
    37  H    0.000000   0.000000   0.000000   0.000000   0.000000   0.000000
              25         26         27         28         29         30
     1  C    0.000000   0.003511   0.001571   0.385009   0.392271   0.391083
     2  C    0.000000  -0.003801  -0.002309  -0.029931  -0.035590  -0.034168
     3  C    0.000000  -0.023439  -0.000166   0.005148  -0.004655  -0.007431
     4  N    0.000000   0.280945  -0.088147  -0.000124  -0.000316   0.003154
     5  C    0.000000  -0.020748   0.000363  -0.000010  -0.000027   0.000465
     6  O    0.000000   0.000452  -0.000027   0.000000  -0.000003   0.000016
     7  N    0.000000  -0.003472   0.000141   0.000001   0.000000  -0.000059
     8  C    0.000000   0.000101   0.000002   0.000000   0.000000  -0.000001
     9  C   -0.000001  -0.016160  -0.000493  -0.000001   0.000001   0.000126
    10  O    0.000000   0.000097  -0.000021   0.000000   0.000000   0.000001
    11  N   -0.000008   0.197341  -0.089443   0.000001   0.000019  -0.000237
    12  C    0.001398  -0.000271   0.018798   0.000000  -0.000002   0.000013
    13  F   -0.000002   0.006669  -0.002855   0.000000   0.000000   0.000009
    14  F    0.000004   0.003990  -0.011637   0.000000   0.000000   0.000000
    15  C   -0.031744   0.003751   0.000302   0.000000   0.000000   0.000000
    16  F   -0.000364  -0.000056   0.000000   0.000000   0.000000   0.000000
    17  O   -0.001414  -0.000071   0.000000   0.000000   0.000000   0.000000
    18  C    0.011426   0.000002   0.000000   0.000000   0.000000   0.000000
    19  F   -0.005934   0.000000   0.000000   0.000000   0.000000   0.000000
    20  F   -0.000002   0.000000   0.000000   0.000000   0.000000   0.000000
    21  F   -0.001107   0.000000   0.000000   0.000000   0.000000   0.000000
    22  C    0.282442  -0.000073   0.000000   0.000000   0.000000   0.000000
    23  F   -0.039154   0.000002   0.000000   0.000000   0.000000   0.000000
    24  F   -0.038708   0.000006   0.000000   0.000000   0.000000   0.000000
    25  F    9.083426   0.000000   0.000000   0.000000   0.000000   0.000000
    26  C    0.000000   4.157320   0.575919  -0.000035   0.000371   0.002405
    27  O    0.000000   0.575919   8.095305   0.000143   0.001307  -0.000691
    28  H    0.000000  -0.000035   0.000143   0.600277  -0.029611  -0.030533
    29  H    0.000000   0.000371   0.001307  -0.029611   0.585710  -0.030725
    30  H    0.000000   0.002405  -0.000691  -0.030533  -0.030725   0.602477
    31  H    0.000000   0.000050  -0.000045  -0.004994  -0.003889   0.005183
    32  H    0.000000  -0.000277  -0.000040  -0.003014   0.004911  -0.004545
    33  H    0.000000   0.004163   0.000503  -0.000157   0.000025   0.000002
    34  H    0.000000  -0.002489   0.007890   0.000013   0.003974  -0.000150
    35  H    0.000000   0.000001   0.000000   0.000000   0.000000   0.000000
    36  H    0.000000  -0.000070   0.000000   0.000000   0.000000   0.000000
    37  H    0.000000  -0.000002   0.000000   0.000000   0.000000   0.000000
              31         32         33         34         35         36
     1  C   -0.036963  -0.041746   0.004770  -0.005960   0.000000   0.000000
     2  C    0.388328   0.392399  -0.036371  -0.035449   0.000000  -0.000003
     3  C   -0.033955  -0.034217   0.388245   0.388551   0.000001   0.000004
     4  N    0.004184  -0.007311  -0.038134  -0.033965  -0.000072  -0.000033
     5  C   -0.000072   0.004538  -0.004620   0.004017   0.003869  -0.001464
     6  O    0.000038   0.005984   0.007237   0.000470   0.000578   0.000832
     7  N   -0.000001  -0.000099   0.000313  -0.000110  -0.030381  -0.042098
     8  C    0.000000   0.000010  -0.000011   0.000001   0.388461   0.401412
     9  C    0.000001  -0.000003   0.000042   0.000017  -0.002782  -0.003127
    10  O    0.000000   0.000000   0.000000   0.000000   0.005758   0.001034
    11  N    0.000001   0.000002  -0.000124   0.000443   0.000296  -0.000092
    12  C    0.000000   0.000000  -0.000002  -0.000008  -0.000007   0.000008
    13  F    0.000000   0.000000   0.000000   0.000000   0.000000   0.000000
    14  F    0.000000   0.000000   0.000000  -0.000001   0.000000   0.000000
    15  C    0.000000   0.000000   0.000000   0.000000   0.000009  -0.000001
    16  F    0.000000   0.000000   0.000000   0.000000  -0.000002   0.000000
    17  O    0.000000   0.000000   0.000000   0.000000  -0.000002   0.000000
    18  C    0.000000   0.000000   0.000000   0.000000   0.000006   0.000000
    19  F    0.000000   0.000000   0.000000   0.000000   0.000000   0.000000
    20  F    0.000000   0.000000   0.000000   0.000000   0.000000   0.000000
    21  F    0.000000   0.000000   0.000000   0.000000   0.000000   0.000000
    22  C    0.000000   0.000000   0.000000   0.000000   0.000000   0.000000
    23  F    0.000000   0.000000   0.000000   0.000000   0.000000   0.000000
    24  F    0.000000   0.000000   0.000000   0.000000   0.000000   0.000000
    25  F    0.000000   0.000000   0.000000   0.000000   0.000000   0.000000
    26  C    0.000050  -0.000277   0.004163  -0.002489   0.000001  -0.000070
    27  O   -0.000045  -0.000040   0.000503   0.007890   0.000000   0.000000
    28  H   -0.004994  -0.003014  -0.000157   0.000013   0.000000   0.000000
    29  H   -0.003889   0.004911   0.000025   0.003974   0.000000   0.000000
    30  H    0.005183  -0.004545   0.000002  -0.000150   0.000000   0.000000
    31  H    0.599660  -0.029532  -0.002136  -0.001496   0.000000   0.000000
    32  H   -0.029532   0.592990  -0.004105   0.004583   0.000000   0.000009
    33  H   -0.002136  -0.004105   0.563232  -0.028267   0.000000   0.000000
    34  H   -0.001496   0.004583  -0.028267   0.546426   0.000000   0.000000
    35  H    0.000000   0.000000   0.000000   0.000000   0.526855  -0.028535
    36  H    0.000000   0.000009   0.000000   0.000000  -0.028535   0.546930
    37  H    0.000000  -0.000002   0.000001   0.000000  -0.023324  -0.029384
              37
     1  C    0.000000
     2  C    0.000001
     3  C   -0.000005
     4  N    0.000338
     5  C   -0.004348
     6  O    0.007403
     7  N   -0.030932
     8  C    0.388210
     9  C    0.004587
    10  O    0.000566
    11  N   -0.000066
    12  C   -0.000001
    13  F    0.000000
    14  F    0.000000
    15  C    0.000000
    16  F    0.000000
    17  O    0.000000
    18  C    0.000000
    19  F    0.000000
    20  F    0.000000
    21  F    0.000000
    22  C    0.000000
    23  F    0.000000
    24  F    0.000000
    25  F    0.000000
    26  C   -0.000002
    27  O    0.000000
    28  H    0.000000
    29  H    0.000000
    30  H    0.000000
    31  H    0.000000
    32  H   -0.000002
    33  H    0.000001
    34  H    0.000000
    35  H   -0.023324
    36  H   -0.029384
    37  H    0.524190
 Mulliken charges:
               1
     1  C   -0.315552
     2  C   -0.189609
     3  C   -0.060606
     4  N   -0.572967
     5  C    0.822939
     6  O   -0.526553
     7  N   -0.561895
     8  C   -0.181346
     9  C    0.811688
    10  O   -0.499487
    11  N   -0.635184
    12  C    0.798693
    13  F   -0.256186
    14  F   -0.272757
    15  C    0.410645
    16  F   -0.253029
    17  O   -0.518508
    18  C    0.995024
    19  F   -0.244486
    20  F   -0.240959
    21  F   -0.237974
    22  C    0.814494
    23  F   -0.247550
    24  F   -0.242337
    25  F   -0.260256
    26  C    0.833864
    27  O   -0.506372
    28  H    0.107817
    29  H    0.116229
    30  H    0.103608
    31  H    0.115638
    32  H    0.119464
    33  H    0.145391
    34  H    0.151510
    35  H    0.159271
    36  H    0.154576
    37  H    0.162764
 Sum of Mulliken charges =   0.00000
 Mulliken charges with hydrogens summed into heavy atoms:
               1
     1  C    0.012101
     2  C    0.045493
     3  C    0.236296
     4  N   -0.572967
     5  C    0.822939
     6  O   -0.526553
     7  N   -0.561895
     8  C    0.295265
     9  C    0.811688
    10  O   -0.499487
    11  N   -0.635184
    12  C    0.798693
    13  F   -0.256186
    14  F   -0.272757
    15  C    0.410645
    16  F   -0.253029
    17  O   -0.518508
    18  C    0.995024
    19  F   -0.244486
    20  F   -0.240959
    21  F   -0.237974
    22  C    0.814494
    23  F   -0.247550
    24  F   -0.242337
    25  F   -0.260256
    26  C    0.833864
    27  O   -0.506372
 Electronic spatial extent (au):  <R**2>=          10381.0385
 Charge=              0.0000 electrons
 Dipole moment (field-independent basis, Debye):
    X=             -1.8540    Y=              2.1292    Z=              0.5755  Tot=              2.8813
 Quadrupole moment (field-independent basis, Debye-Ang):
   XX=           -149.8723   YY=           -151.8330   ZZ=           -147.2203
   XY=              5.6225   XZ=              2.5284   YZ=             -0.0930
 Traceless Quadrupole moment (field-independent basis, Debye-Ang):
   XX=             -0.2304   YY=             -2.1911   ZZ=              2.4216
   XY=              5.6225   XZ=              2.5284   YZ=             -0.0930
 Octapole moment (field-independent basis, Debye-Ang**2):
  XXX=           -399.7380  YYY=             94.3255  ZZZ=           -105.2379  XYY=           -107.6361
  XXY=            -11.5736  XXZ=            -30.9013  XZZ=           -135.5490  YZZ=             19.1415
  YYZ=            -43.9431  XYZ=             10.4636
 Hexadecapole moment (field-independent basis, Debye-Ang**3):
 XXXX=          -7938.8931 YYYY=          -2294.9180 ZZZZ=           -989.7862 XXXY=            472.7677
 XXXZ=           -632.7572 YYYX=            352.5519 YYYZ=            -18.5416 ZZZX=           -637.4253
 ZZZY=              1.4147 XXYY=          -1809.7072 XXZZ=          -1492.7988 YYZZ=           -563.9842
 XXYZ=              2.5713 YYXZ=           -201.2532 ZZXY=            104.7478
 N-N= 3.145090286948D+03 E-N=-1.050501822245D+04  KE= 1.774711304401D+03
 No NMR shielding tensors so no spin-rotation constants.
 Leave Link  601 at Sun Mar  3 17:59:03 2024, MaxMem=  5368709120 cpu:         2.3
 (Enter /home/k0335/k033513/app/g09/l9999.exe)
 1\1\GINC-C18U01N4\SP\RCAM-B3LYP\6-31G(d,p)\C11H10F9N3O4\K033513\03-Mar
 -2024\0\\#p CAM-B3LYP/6-31G(d,p) SCRF=(PCM,Solvent=Generic,Read) NoSym
 m out=wfn\\Title A903371602_0\\0,1\C,0,-3.724949,-1.523986,-1.481066\C
 ,0,-4.202502,-0.486749,-0.476404\C,0,-3.302781,-0.371569,0.760326\N,0,
 -1.966417,0.147593,0.462713\C,0,-1.834492,1.502927,0.24163\O,0,-2.7813
 11,2.283162,0.350737\N,0,-0.58381,1.922109,-0.15323\C,0,-0.432359,3.30
 5191,-0.572305\C,0,0.448758,1.044657,-0.398604\O,0,1.400078,1.371437,-
 1.102465\N,0,0.334018,-0.196436,0.161406\C,0,1.436271,-1.150145,0.0639
 52\F,0,1.319549,-1.839084,-1.104164\F,0,1.253944,-2.067201,1.065416\C,
 0,2.893523,-0.63405,0.221353\F,0,3.309806,-0.037544,-0.932846\O,0,2.92
 2138,0.364324,1.254798\C,0,4.227379,0.772939,1.576183\F,0,4.786662,-0.
 145333,2.381314\F,0,4.151035,1.938484,2.24581\F,0,4.980949,0.947557,0.
 481683\C,0,3.756791,-1.883961,0.451942\F,0,3.535521,-2.438713,1.665627
 \F,0,3.554709,-2.840402,-0.479665\F,0,5.078353,-1.581419,0.408292\C,0,
 -0.915966,-0.743666,0.341914\O,0,-1.111783,-1.958852,0.367804\H,0,-4.4
 46768,-1.614286,-2.299186\H,0,-3.62161,-2.507571,-1.012345\H,0,-2.7621
 77,-1.242606,-1.918035\H,0,-5.210756,-0.762868,-0.145421\H,0,-4.288767
 ,0.482782,-0.979657\H,0,-3.779772,0.309268,1.47625\H,0,-3.228899,-1.34
 4777,1.259041\H,0,0.614608,3.617963,-0.515858\H,0,-0.776622,3.392242,-
 1.607815\H,0,-1.03235,3.968582,0.05785\\Version=ES64L-G09RevD.01\HF=-1
 788.3951149\RMSD=6.745e-09\Dipole=-0.7294089,0.8377006,0.2264153\Quadr
 upole=-0.1713123,-1.6290647,1.800377,4.1801834,1.8798257,-0.0691568\PG
 =C01 [X(C11H10F9N3O4)]\\@

 Writing a WFN file to "A903371602/A903371602_0.wfn"


 IF YOU WISH TO UNDERSTAND THE FRAGRANCE OF THE ROSE, 
 OR THE TENACITY OF THE OAK; 
 IF YOU ARE NOT SATISFIED UNTIL YOU KNOW THE SECRET PATHS 
 BY WHICH THE SUNSHINE AND THE AIR ACHIEVE THESE WONDERS; 
 IF YOU WISH TO SEE THE PATTERN WHICH UNDERLIES ONE LARGE FIELD OF 
 HUMAN EXPERIENCE AND HUMAN MEASUREMENT, THEN TAKE UP CHEMISTRY.

                                         -- C. A. COULSON, 1973.
 Job cpu time:       0 days  0 hours 12 minutes 20.7 seconds.
 File lengths (MBytes):  RWF=    249 Int=      0 D2E=      0 Chk=      9 Scr=      1
 Normal termination of Gaussian 09 at Sun Mar  3 17:59:03 2024.
