 Entering Gaussian System, Link 0=g09
 Initial command:
 /home/k0335/k033513/app/g09/l1.exe "/home/k0335/k033513/app/g09/scratch/Gau-674379.inp" -scrdir="/home/k0335/k033513/app/g09/scratch/"
 Default is to use a total of  36 processors:
                               36 via shared-memory
                                1 via Linda
 Entering Link 1 = /home/k0335/k033513/app/g09/l1.exe PID=    674380.
  
 Copyright (c) 1988,1990,1992,1993,1995,1998,2003,2009,2013,
            Gaussian, Inc.  All Rights Reserved.
  
 This is part of the Gaussian(R) 09 program.  It is based on
 the Gaussian(R) 03 system (copyright 2003, Gaussian, Inc.),
 the Gaussian(R) 98 system (copyright 1998, Gaussian, Inc.),
 the Gaussian(R) 94 system (copyright 1995, Gaussian, Inc.),
 the Gaussian 92(TM) system (copyright 1992, Gaussian, Inc.),
 the Gaussian 90(TM) system (copyright 1990, Gaussian, Inc.),
 the Gaussian 88(TM) system (copyright 1988, Gaussian, Inc.),
 the Gaussian 86(TM) system (copyright 1986, Carnegie Mellon
 University), and the Gaussian 82(TM) system (copyright 1983,
 Carnegie Mellon University). Gaussian is a federally registered
 trademark of Gaussian, Inc.
  
 This software contains proprietary and confidential information,
 including trade secrets, belonging to Gaussian, Inc.
  
 This software is provided under written license and may be
 used, copied, transmitted, or stored only in accord with that
 written license.
  
 The following legend is applicable only to US Government
 contracts under FAR:
  
                    RESTRICTED RIGHTS LEGEND
  
 Use, reproduction and disclosure by the US Government is
 subject to restrictions as set forth in subparagraphs (a)
 and (c) of the Commercial Computer Software - Restricted
 Rights clause in FAR 52.227-19.
  
 Gaussian, Inc.
 340 Quinnipiac St., Bldg. 40, Wallingford CT 06492
  
  
 ---------------------------------------------------------------
 Warning -- This program may not be used in any manner that
 competes with the business of Gaussian, Inc. or will provide
 assistance to any competitor of Gaussian, Inc.  The licensee
 of this program is prohibited from giving any competitor of
 Gaussian, Inc. access to this program.  By using this program,
 the user acknowledges that Gaussian, Inc. is engaged in the
 business of creating and licensing software in the field of
 computational chemistry and represents and warrants to the
 licensee that it is not a competitor of Gaussian, Inc. and that
 it will not use this program in any manner prohibited above.
 ---------------------------------------------------------------
  

 Cite this work as:
 Gaussian 09, Revision D.01,
 M. J. Frisch, G. W. Trucks, H. B. Schlegel, G. E. Scuseria, 
 M. A. Robb, J. R. Cheeseman, G. Scalmani, V. Barone, B. Mennucci, 
 G. A. Petersson, H. Nakatsuji, M. Caricato, X. Li, H. P. Hratchian, 
 A. F. Izmaylov, J. Bloino, G. Zheng, J. L. Sonnenberg, M. Hada, 
 M. Ehara, K. Toyota, R. Fukuda, J. Hasegawa, M. Ishida, T. Nakajima, 
 Y. Honda, O. Kitao, H. Nakai, T. Vreven, J. A. Montgomery, Jr., 
 J. E. Peralta, F. Ogliaro, M. Bearpark, J. J. Heyd, E. Brothers, 
 K. N. Kudin, V. N. Staroverov, T. Keith, R. Kobayashi, J. Normand, 
 K. Raghavachari, A. Rendell, J. C. Burant, S. S. Iyengar, J. Tomasi, 
 M. Cossi, N. Rega, J. M. Millam, M. Klene, J. E. Knox, J. B. Cross, 
 V. Bakken, C. Adamo, J. Jaramillo, R. Gomperts, R. E. Stratmann, 
 O. Yazyev, A. J. Austin, R. Cammi, C. Pomelli, J. W. Ochterski, 
 R. L. Martin, K. Morokuma, V. G. Zakrzewski, G. A. Voth, 
 P. Salvador, J. J. Dannenberg, S. Dapprich, A. D. Daniels, 
 O. Farkas, J. B. Foresman, J. V. Ortiz, J. Cioslowski, 
 and D. J. Fox, Gaussian, Inc., Wallingford CT, 2013.
 
 ******************************************
 Gaussian 09:  ES64L-G09RevD.01 24-Apr-2013
                 3-Mar-2024 
 ******************************************
 %nprocshared=24
 Will use up to   24 processors via shared memory.
 %mem=40GB
 %rwf=A1400116031/A1400116031_p1.rwf
 %nosave
 %chk=A1400116031/A1400116031_p1.chk
 ----------------------------------------------------------------------
 #p CAM-B3LYP/6-31G(d,p) SCRF=(PCM,Solvent=Generic,Read) NoSymm out=wfn
 ----------------------------------------------------------------------
 1/38=1,40=2/1;
 2/12=2,15=1,17=6,18=5,40=1/2;
 3/5=1,6=6,7=101,11=2,16=1,25=1,30=1,70=2203,72=-2,74=-40/1,2,3;
 4//1;
 5/5=2,38=5/2;
 6/7=2,8=2,9=2,10=2,28=1/1;
 99/5=1,6=100,9=1/99;
 Leave Link    1 at Sun Mar  3 17:39:16 2024, MaxMem=  5368709120 cpu:         1.5
 (Enter /home/k0335/k033513/app/g09/l101.exe)
 --------------------
 Title A1400116031_p1
 --------------------
 Symbolic Z-matrix:
 Charge =  1 Multiplicity = 2
 O                     0.46696  -2.43043  -0.9272 
 C                     0.01851  -1.28717  -0.9215 
 N                     0.84424  -0.20068  -0.74089 
 C                     2.29702  -0.42986  -0.63864 
 C                     2.74007  -0.69868   0.8106 
 F                     2.15179   0.24511   1.61119 
 F                     2.2172   -1.8814    1.22882 
 C                     4.25783  -0.66615   1.05188 
 F                     4.4661   -0.85711   2.39002 
 O                     4.72339   0.65479   0.74909 
 C                     6.12095   0.77969   0.84055 
 F                     6.43037   2.08466   0.94135 
 F                     6.66857   0.29504  -0.28726 
 F                     6.60976   0.128     1.90531 
 C                     4.89775  -1.81333   0.25527 
 F                     4.31053  -3.00462   0.48747 
 F                     4.80754  -1.57569  -1.07613 
 F                     6.211    -1.95939   0.53788 
 C                     0.37038   1.07337  -0.51761 
 O                     1.1348    2.03395  -0.46711 
 N                    -0.98532   1.19851  -0.37672 
 C                    -1.53764   2.51588  -0.082 
 F                    -0.66958   3.22103   0.69075 
 F                    -2.60728   2.33131   0.75757 
 C                    -2.01974   3.36496  -1.29416 
 F                    -2.56659   2.5059   -2.22601 
 O                    -3.12254   4.23755  -1.00054 
 C                    -2.78261   5.37586  -0.25278 
 F                    -2.07711   5.03672   0.83243 
 F                    -3.91314   5.99038   0.13686 
 F                    -2.07069   6.22108  -1.01284 
 C                    -0.81989   4.01784  -1.97874 
 F                    -0.00376   3.08872  -2.5294 
 F                    -0.08449   4.7798   -1.14718 
 F                    -1.22523   4.81476  -2.99888 
 C                    -1.86188   0.20035  -0.73396 
 O                    -3.07541   0.38263  -0.74414 
 N                    -1.31441  -1.01266  -1.07748 
 C                    -2.22499  -2.10624  -1.392 
 F                    -3.1228   -1.62353  -2.31398 
 F                    -1.57423  -3.07515  -2.10361 
 C                    -3.02733  -2.77646  -0.24245 
 F                    -3.73303  -1.82454   0.43518 
 O                    -4.00331  -3.64091  -0.84923 
 C                    -4.70558  -4.42724   0.07507 
 F                    -5.03491  -3.7256    1.17 
 F                    -5.83062  -4.87703  -0.5104 
 F                    -3.94732  -5.48333   0.41398 
 C                    -2.03186  -3.43663   0.7131 
 F                    -1.16238  -2.52901   1.21833 
 F                    -2.65044  -3.98621   1.78452 
 F                    -1.32368  -4.41763   0.12096 
 H                     2.81423   0.45008  -1.03562 
 H                     2.55081  -1.28129  -1.27765 
 
 NAtoms=     54 NQM=       54 NQMF=       0 NMMI=      0 NMMIF=      0
                NMic=       0 NMicF=      0.
                    Isotopes and Nuclear Properties:
 (Nuclear quadrupole moments (NQMom) in fm**2, nuclear magnetic moments (NMagM)
  in nuclear magnetons)

  Atom         1           2           3           4           5           6           7           8           9          10
 IAtWgt=          16          12          14          12          12          19          19          12          19          16
 AtmWgt=  15.9949146  12.0000000  14.0030740  12.0000000  12.0000000  18.9984033  18.9984033  12.0000000  18.9984033  15.9949146
 NucSpn=           0           0           2           0           0           1           1           0           1           0
 AtZEff=   0.0000000   0.0000000   0.0000000   0.0000000   0.0000000   0.0000000   0.0000000   0.0000000   0.0000000   0.0000000
 NQMom=    0.0000000   0.0000000   2.0440000   0.0000000   0.0000000   0.0000000   0.0000000   0.0000000   0.0000000   0.0000000
 NMagM=    0.0000000   0.0000000   0.4037610   0.0000000   0.0000000   2.6288670   2.6288670   0.0000000   2.6288670   0.0000000
 AtZNuc=   8.0000000   6.0000000   7.0000000   6.0000000   6.0000000   9.0000000   9.0000000   6.0000000   9.0000000   8.0000000

  Atom        11          12          13          14          15          16          17          18          19          20
 IAtWgt=          12          19          19          19          12          19          19          19          12          16
 AtmWgt=  12.0000000  18.9984033  18.9984033  18.9984033  12.0000000  18.9984033  18.9984033  18.9984033  12.0000000  15.9949146
 NucSpn=           0           1           1           1           0           1           1           1           0           0
 AtZEff=   0.0000000   0.0000000   0.0000000   0.0000000   0.0000000   0.0000000   0.0000000   0.0000000   0.0000000   0.0000000
 NQMom=    0.0000000   0.0000000   0.0000000   0.0000000   0.0000000   0.0000000   0.0000000   0.0000000   0.0000000   0.0000000
 NMagM=    0.0000000   2.6288670   2.6288670   2.6288670   0.0000000   2.6288670   2.6288670   2.6288670   0.0000000   0.0000000
 AtZNuc=   6.0000000   9.0000000   9.0000000   9.0000000   6.0000000   9.0000000   9.0000000   9.0000000   6.0000000   8.0000000

  Atom        21          22          23          24          25          26          27          28          29          30
 IAtWgt=          14          12          19          19          12          19          16          12          19          19
 AtmWgt=  14.0030740  12.0000000  18.9984033  18.9984033  12.0000000  18.9984033  15.9949146  12.0000000  18.9984033  18.9984033
 NucSpn=           2           0           1           1           0           1           0           0           1           1
 AtZEff=   0.0000000   0.0000000   0.0000000   0.0000000   0.0000000   0.0000000   0.0000000   0.0000000   0.0000000   0.0000000
 NQMom=    2.0440000   0.0000000   0.0000000   0.0000000   0.0000000   0.0000000   0.0000000   0.0000000   0.0000000   0.0000000
 NMagM=    0.4037610   0.0000000   2.6288670   2.6288670   0.0000000   2.6288670   0.0000000   0.0000000   2.6288670   2.6288670
 AtZNuc=   7.0000000   6.0000000   9.0000000   9.0000000   6.0000000   9.0000000   8.0000000   6.0000000   9.0000000   9.0000000

  Atom        31          32          33          34          35          36          37          38          39          40
 IAtWgt=          19          12          19          19          19          12          16          14          12          19
 AtmWgt=  18.9984033  12.0000000  18.9984033  18.9984033  18.9984033  12.0000000  15.9949146  14.0030740  12.0000000  18.9984033
 NucSpn=           1           0           1           1           1           0           0           2           0           1
 AtZEff=   0.0000000   0.0000000   0.0000000   0.0000000   0.0000000   0.0000000   0.0000000   0.0000000   0.0000000   0.0000000
 NQMom=    0.0000000   0.0000000   0.0000000   0.0000000   0.0000000   0.0000000   0.0000000   2.0440000   0.0000000   0.0000000
 NMagM=    2.6288670   0.0000000   2.6288670   2.6288670   2.6288670   0.0000000   0.0000000   0.4037610   0.0000000   2.6288670
 AtZNuc=   9.0000000   6.0000000   9.0000000   9.0000000   9.0000000   6.0000000   8.0000000   7.0000000   6.0000000   9.0000000

  Atom        41          42          43          44          45          46          47          48          49          50
 IAtWgt=          19          12          19          16          12          19          19          19          12          19
 AtmWgt=  18.9984033  12.0000000  18.9984033  15.9949146  12.0000000  18.9984033  18.9984033  18.9984033  12.0000000  18.9984033
 NucSpn=           1           0           1           0           0           1           1           1           0           1
 AtZEff=   0.0000000   0.0000000   0.0000000   0.0000000   0.0000000   0.0000000   0.0000000   0.0000000   0.0000000   0.0000000
 NQMom=    0.0000000   0.0000000   0.0000000   0.0000000   0.0000000   0.0000000   0.0000000   0.0000000   0.0000000   0.0000000
 NMagM=    2.6288670   0.0000000   2.6288670   0.0000000   0.0000000   2.6288670   2.6288670   2.6288670   0.0000000   2.6288670
 AtZNuc=   9.0000000   6.0000000   9.0000000   8.0000000   6.0000000   9.0000000   9.0000000   9.0000000   6.0000000   9.0000000

  Atom        51          52          53          54
 IAtWgt=          19          19           1           1
 AtmWgt=  18.9984033  18.9984033   1.0078250   1.0078250
 NucSpn=           1           1           1           1
 AtZEff=   0.0000000   0.0000000   0.0000000   0.0000000
 NQMom=    0.0000000   0.0000000   0.0000000   0.0000000
 NMagM=    2.6288670   2.6288670   2.7928460   2.7928460
 AtZNuc=   9.0000000   9.0000000   1.0000000   1.0000000
 Leave Link  101 at Sun Mar  3 17:39:16 2024, MaxMem=  5368709120 cpu:         0.9
 (Enter /home/k0335/k033513/app/g09/l202.exe)
 Symmetry turned off by external request.
 Stoichiometry    C16H2F27N3O6(1+,2)
 Framework group  C1[X(C16H2F27N3O6)]
 Deg. of freedom   156
 Full point group                 C1      NOp   1
                          Input orientation:                          
 ---------------------------------------------------------------------
 Center     Atomic      Atomic             Coordinates (Angstroms)
 Number     Number       Type             X           Y           Z
 ---------------------------------------------------------------------
      1          8           0        0.466958   -2.430431   -0.927199
      2          6           0        0.018507   -1.287172   -0.921499
      3          7           0        0.844237   -0.200680   -0.740885
      4          6           0        2.297019   -0.429864   -0.638643
      5          6           0        2.740065   -0.698677    0.810601
      6          9           0        2.151791    0.245106    1.611191
      7          9           0        2.217200   -1.881400    1.228821
      8          6           0        4.257829   -0.666152    1.051880
      9          9           0        4.466096   -0.857111    2.390015
     10          8           0        4.723386    0.654788    0.749089
     11          6           0        6.120953    0.779692    0.840547
     12          9           0        6.430369    2.084655    0.941351
     13          9           0        6.668566    0.295042   -0.287255
     14          9           0        6.609760    0.127995    1.905309
     15          6           0        4.897752   -1.813327    0.255270
     16          9           0        4.310529   -3.004622    0.487473
     17          9           0        4.807537   -1.575690   -1.076128
     18          9           0        6.211003   -1.959385    0.537883
     19          6           0        0.370377    1.073365   -0.517614
     20          8           0        1.134797    2.033948   -0.467112
     21          7           0       -0.985319    1.198514   -0.376724
     22          6           0       -1.537643    2.515884   -0.082001
     23          9           0       -0.669576    3.221030    0.690754
     24          9           0       -2.607277    2.331309    0.757567
     25          6           0       -2.019738    3.364960   -1.294155
     26          9           0       -2.566591    2.505899   -2.226013
     27          8           0       -3.122537    4.237554   -1.000537
     28          6           0       -2.782609    5.375859   -0.252784
     29          9           0       -2.077108    5.036723    0.832432
     30          9           0       -3.913137    5.990380    0.136863
     31          9           0       -2.070686    6.221083   -1.012845
     32          6           0       -0.819889    4.017838   -1.978742
     33          9           0       -0.003756    3.088722   -2.529403
     34          9           0       -0.084485    4.779802   -1.147178
     35          9           0       -1.225232    4.814758   -2.998883
     36          6           0       -1.861875    0.200349   -0.733959
     37          8           0       -3.075414    0.382634   -0.744144
     38          7           0       -1.314414   -1.012664   -1.077483
     39          6           0       -2.224987   -2.106243   -1.392002
     40          9           0       -3.122798   -1.623525   -2.313980
     41          9           0       -1.574226   -3.075153   -2.103614
     42          6           0       -3.027332   -2.776462   -0.242454
     43          9           0       -3.733028   -1.824540    0.435180
     44          8           0       -4.003312   -3.640905   -0.849233
     45          6           0       -4.705584   -4.427236    0.075069
     46          9           0       -5.034913   -3.725598    1.169996
     47          9           0       -5.830619   -4.877029   -0.510404
     48          9           0       -3.947320   -5.483326    0.413979
     49          6           0       -2.031859   -3.436633    0.713102
     50          9           0       -1.162383   -2.529013    1.218325
     51          9           0       -2.650439   -3.986209    1.784517
     52          9           0       -1.323679   -4.417634    0.120962
     53          1           0        2.814231    0.450081   -1.035620
     54          1           0        2.550807   -1.281290   -1.277648
 ---------------------------------------------------------------------
 Rotational constants (GHZ):      0.0536741      0.0441802      0.0269333
 Leave Link  202 at Sun Mar  3 17:39:16 2024, MaxMem=  5368709120 cpu:         0.0
 (Enter /home/k0335/k033513/app/g09/l301.exe)
 Standard basis: 6-31G(d,p) (6D, 7F)
 Ernie: Thresh=  0.10000D-02 Tol=  0.10000D-05 Strict=F.
   790 basis functions,  1470 primitive gaussians,   790 cartesian basis functions
   205 alpha electrons      204 beta electrons
       nuclear repulsion energy      9222.5897596341 Hartrees.
 IExCor=20419 DFT=T Ex+Corr=CAM-B3LYP ExCW=0 ScaHFX=  1.000000
 ScaDFX=  1.000000  1.000000  1.000000  0.810000 ScalE2=  1.000000  1.000000
 IRadAn=      0 IRanWt=     -1 IRanGd=            0 ICorTp=0 IEmpDi=  4
  HFx wShort=  0.000000 wLong=  0.330000 cFull=  0.190000 cShort=  0.000000 cLong=  0.460000
  DFx wShort=  0.000000 wLong=  0.330000 cFull=  0.190000 cShort=  0.000000 cLong=  0.460000
 NAtoms=   54 NActive=   54 NUniq=   54 SFac= 1.00D+00 NAtFMM=   60 NAOKFM=F Big=F
 Integral buffers will be    131072 words long.
 Raffenetti 2 integral format.
 Two-electron integral symmetry is turned off.
 Using the following non-standard input for PCM:
 eps=4.9
 --- end of non-standard input.
 ------------------------------------------------------------------------------
 Polarizable Continuum Model (PCM)
 =================================
 Model                : PCM (using non-symmetric T matrix).
 Atomic radii         : UFF (Universal Force Field).
 Polarization charges : Total charges.
 Charge compensation  : None.
 Solution method      : On-the-fly selection.
 Cavity type          : Scaled VdW (van der Waals Surface) (Alpha=1.100).
 Cavity algorithm     : GePol (No added spheres)
                        Default sphere list used, NSphG=   54.
                        Lebedev-Laikov grids with approx.  5.0 points / Ang**2.
                        Smoothing algorithm: Karplus/York (Gamma=1.0000).
                        Polarization charges: spherical gaussians, with
                                              point-specific exponents (IZeta= 3).
                        Self-potential: point-specific (ISelfS= 7).
                        Self-field    : sphere-specific E.n sum rule (ISelfD= 2).
 Solvent              : Generic,
                        Eps                           =   4.900000
                        Eps(infinity)                 =   0.000000
                        RSolv                         =   0.000000 Ang.
                        Molar volume                  =   0.000000 cm**3/mol
                        Thermal expansion coefficient =   0.000000 K**-1
                        Absolute temperature          = 298.150000 K
                        Numeral density               =   0.000000 Ang**-3
                        Hydrogen bond acidity         =   0.000000
                        Hydrogen bond basicity        =   0.000000
                        Surface tension at interface  =   0.000000 (cal/mol)*Ang**-2
                        Carbon aromaticity            =   0.000000
                        Electronegative halogenicity  =   0.000000
 ------------------------------------------------------------------------------
 GePol: Number of generator spheres                  =      54
 GePol: Total number of spheres                      =      54
 GePol: Number of exposed spheres                    =      54 (100.00%)
 GePol: Number of points                             =    4483
 GePol: Average weight of points                     =       0.12
 GePol: Minimum weight of points                     =   0.27D-09
 GePol: Maximum weight of points                     =    0.20426
 GePol: Number of points with low weight             =     198
 GePol: Fraction of low-weight points (<1% of avg)   =       4.42%
 GePol: Cavity surface area                          =    549.841 Ang**2
 GePol: Cavity volume                                =    662.232 Ang**3
 Leave Link  301 at Sun Mar  3 17:39:16 2024, MaxMem=  5368709120 cpu:         0.8
 (Enter /home/k0335/k033513/app/g09/l302.exe)
 NPDir=0 NMtPBC=     1 NCelOv=     1 NCel=       1 NClECP=     1 NCelD=      1
         NCelK=      1 NCelE2=     1 NClLst=     1 CellRange=     0.0.
 One-electron integrals computed using PRISM.
 NBasis=   790 RedAO= T EigKep=  1.08D-03  NBF=   790
 NBsUse=   790 1.00D-06 EigRej= -1.00D+00 NBFU=   790
 Precomputing XC quadrature grid using
 IXCGrd= 4 IRadAn=           0 IRanWt=          -1 IRanGd=           0 AccXCQ= 0.00D+00.
 Generated NRdTot=       0 NPtTot=           0 NUsed=           0 NTot=          32
 NSgBfM=   742   742   742   742   742 MxSgAt=    54 MxSgA2=    54.
 Leave Link  302 at Sun Mar  3 17:39:17 2024, MaxMem=  5368709120 cpu:        21.1
 (Enter /home/k0335/k033513/app/g09/l303.exe)
 DipDrv:  MaxL=1.
 Leave Link  303 at Sun Mar  3 17:39:17 2024, MaxMem=  5368709120 cpu:         1.2
 (Enter /home/k0335/k033513/app/g09/l401.exe)
 ExpMin= 1.61D-01 ExpMax= 7.00D+03 ExpMxC= 1.05D+03 IAcc=1 IRadAn=         1 AccDes= 0.00D+00
 Harris functional with IExCor=20419 and IRadAn=       1 diagonalized for initial guess.
 HarFok:  IExCor=20419 AccDes= 0.00D+00 IRadAn=         1 IDoV= 1 UseB2=F ITyADJ=14
 ICtDFT=  3500011 ScaDFX=  1.000000  1.000000  1.000000  1.000000
 FoFCou: FMM=F IPFlag=           0 FMFlag=      100000 FMFlg1=           0
         NFxFlg=           0 DoJE=T BraDBF=F KetDBF=T FulRan=T
         wScrn=  0.000000 ICntrl=     500 IOpCl=  0 I1Cent=   200000004 NGrid=           0
         NMat0=    1 NMatS0=      1 NMatT0=    0 NMatD0=    1 NMtDS0=    0 NMtDT0=    0
 Symmetry not used in FoFCou.
 Harris En= -3805.68731285445    
 JPrj=0 DoOrth=F DoCkMO=F.
 Initial guess <Sx>= 0.0000 <Sy>= 0.0000 <Sz>= 0.5000 <S**2>= 0.7500 S= 0.5000
 Leave Link  401 at Sun Mar  3 17:39:18 2024, MaxMem=  5368709120 cpu:        27.0
 (Enter /home/k0335/k033513/app/g09/l502.exe)
 UHF open shell SCF:
 Using DIIS extrapolation, IDIIS=  1040.
 Two-electron integral symmetry not used.
 IVT=     1914658 IEndB=     1914658 NGot=  5368709120 MDV=  5367435993
 LenX=  5367435993 LenY=  5366811103
 Requested convergence on RMS density matrix=1.00D-08 within 128 cycles.
 Requested convergence on MAX density matrix=1.00D-06.
 Requested convergence on             energy=1.00D-06.
 No special actions if energy rises.
 Fock matrices will be formed incrementally for  20 cycles.

 Cycle   1  Pass 1  IDiag  1:
 FoFJK:  IHMeth= 1 ICntrl=       0 DoSepK=T KAlg= 0 I1Cent=   0 FoldK=F
 IRaf=         1 NMat=   1 IRICut=       1 DoRegI=T DoRafI=F ISym2E= 0.
 FoFCou: FMM=F IPFlag=           0 FMFlag=      100000 FMFlg1=           0
         NFxFlg=           0 DoJE=T BraDBF=F KetDBF=F FulRan=T
         wScrn=  0.000000 ICntrl=     500 IOpCl=  0 I1Cent=           0 NGrid=           0
         NMat0=    1 NMatS0=      1 NMatT0=    0 NMatD0=    1 NMtDS0=    0 NMtDT0=    0
 Symmetry not used in FoFCou.
 Inv3:  Mode=1 IEnd=    60291867.
 Iteration    1 A*A^-1 deviation from unit magnitude is 9.88D-15 for   4482.
 Iteration    1 A*A^-1 deviation from orthogonality  is 5.66D-15 for   4483   4014.
 Iteration    1 A^-1*A deviation from unit magnitude is 1.03D-14 for   4482.
 Iteration    1 A^-1*A deviation from orthogonality  is 1.17D-13 for   2005   1992.
 E= -3919.32505380257    
 DIIS: error= 4.57D-02 at cycle   1 NSaved=   1.
 NSaved= 1 IEnMin= 1 EnMin= -3919.32505380257     IErMin= 1 ErrMin= 4.57D-02
 ErrMax= 4.57D-02  0.00D+00 EMaxC= 1.00D-01 BMatC= 1.38D+01 BMatP= 1.38D+01
 IDIUse=3 WtCom= 5.43D-01 WtEn= 4.57D-01
 Coeff-Com:  0.100D+01
 Coeff-En:   0.100D+01
 Coeff:      0.100D+01
 Gap=     0.493 Goal=   None    Shift=    0.000
 Gap=     0.058 Goal=   None    Shift=    0.000
 GapD=    0.058 DampG=0.500 DampE=0.500 DampFc=0.2500 IDamp=-1.
 Damping current iteration by 2.50D-01
 RMSDP=3.04D-03 MaxDP=2.43D-01              OVMax= 6.10D-01

 Cycle   2  Pass 1  IDiag  1:
 RMSU=  7.61D-04    CP:  1.00D+00
 E= -3919.80049408754     Delta-E=       -0.475440284967 Rises=F Damp=T
 DIIS: error= 3.33D-02 at cycle   2 NSaved=   2.
 NSaved= 2 IEnMin= 2 EnMin= -3919.80049408754     IErMin= 2 ErrMin= 3.33D-02
 ErrMax= 3.33D-02  0.00D+00 EMaxC= 1.00D-01 BMatC= 5.70D+00 BMatP= 1.38D+01
 IDIUse=3 WtCom= 6.67D-01 WtEn= 3.33D-01
 Coeff-Com: -0.144D+01 0.244D+01
 Coeff-En:   0.000D+00 0.100D+01
 Coeff:     -0.962D+00 0.196D+01
 Gap=     0.545 Goal=   None    Shift=    0.000
 Gap=     0.034 Goal=   None    Shift=    0.000
 RMSDP=1.54D-03 MaxDP=1.33D-01 DE=-4.75D-01 OVMax= 7.99D-01

 Cycle   3  Pass 1  IDiag  1:
 RMSU=  1.11D-03    CP:  1.00D+00  2.39D+00
 E= -3920.54735381004     Delta-E=       -0.746859722500 Rises=F Damp=F
 DIIS: error= 1.41D-02 at cycle   3 NSaved=   3.
 NSaved= 3 IEnMin= 3 EnMin= -3920.54735381004     IErMin= 3 ErrMin= 1.41D-02
 ErrMax= 1.41D-02  0.00D+00 EMaxC= 1.00D-01 BMatC= 1.15D+00 BMatP= 5.70D+00
 IDIUse=3 WtCom= 8.59D-01 WtEn= 1.41D-01
 Coeff-Com: -0.732D+00 0.120D+01 0.530D+00
 Coeff-En:   0.000D+00 0.000D+00 0.100D+01
 Coeff:     -0.629D+00 0.103D+01 0.597D+00
 Gap=     0.400 Goal=   None    Shift=    0.000
 Gap=     0.015 Goal=   None    Shift=    0.000
 RMSDP=1.22D-03 MaxDP=3.51D-01 DE=-7.47D-01 OVMax= 9.69D-01

 Cycle   4  Pass 1  IDiag  1:
 RMSU=  6.48D-04    CP:  9.97D-01  2.89D+00  1.31D-01
 E= -3920.59435086749     Delta-E=       -0.046997057449 Rises=F Damp=F
 DIIS: error= 1.65D-02 at cycle   4 NSaved=   4.
 NSaved= 4 IEnMin= 4 EnMin= -3920.59435086749     IErMin= 3 ErrMin= 1.41D-02
 ErrMax= 1.65D-02  0.00D+00 EMaxC= 1.00D-01 BMatC= 9.09D-01 BMatP= 1.15D+00
 IDIUse=3 WtCom= 8.35D-01 WtEn= 1.65D-01
 Coeff-Com: -0.231D+00 0.384D+00 0.452D+00 0.395D+00
 Coeff-En:   0.000D+00 0.000D+00 0.454D+00 0.546D+00
 Coeff:     -0.193D+00 0.321D+00 0.452D+00 0.420D+00
 Gap=     0.445 Goal=   None    Shift=    0.000
 Gap=    -0.003 Goal=   None    Shift=    0.000
 RMSDP=8.43D-04 MaxDP=2.25D-01 DE=-4.70D-02 OVMax= 5.75D-01

 Cycle   5  Pass 1  IDiag  1:
 RMSU=  5.75D-04    CP:  9.97D-01  2.67D+00  5.36D-01  4.01D-01
 E= -3920.74380085126     Delta-E=       -0.149449983770 Rises=F Damp=F
 DIIS: error= 5.89D-03 at cycle   5 NSaved=   5.
 NSaved= 5 IEnMin= 5 EnMin= -3920.74380085126     IErMin= 5 ErrMin= 5.89D-03
 ErrMax= 5.89D-03  0.00D+00 EMaxC= 1.00D-01 BMatC= 1.66D-01 BMatP= 9.09D-01
 IDIUse=3 WtCom= 9.41D-01 WtEn= 5.89D-02
 Coeff-Com: -0.385D-01 0.696D-01 0.267D+00 0.320D+00 0.382D+00
 Coeff-En:   0.000D+00 0.000D+00 0.000D+00 0.133D+00 0.867D+00
 Coeff:     -0.362D-01 0.655D-01 0.251D+00 0.309D+00 0.411D+00
 Gap=     0.388 Goal=   None    Shift=    0.000
 Gap=     0.047 Goal=   None    Shift=    0.000
 RMSDP=4.06D-04 MaxDP=1.10D-01 DE=-1.49D-01 OVMax= 3.12D-01

 Cycle   6  Pass 1  IDiag  1:
 RMSU=  2.39D-04    CP:  9.97D-01  2.75D+00  4.29D-01  7.56D-01  6.68D-01
 E= -3920.77499210476     Delta-E=       -0.031191253503 Rises=F Damp=F
 DIIS: error= 3.08D-03 at cycle   6 NSaved=   6.
 NSaved= 6 IEnMin= 6 EnMin= -3920.77499210476     IErMin= 6 ErrMin= 3.08D-03
 ErrMax= 3.08D-03  0.00D+00 EMaxC= 1.00D-01 BMatC= 3.25D-02 BMatP= 1.66D-01
 IDIUse=3 WtCom= 9.69D-01 WtEn= 3.08D-02
 Coeff-Com:  0.396D-01-0.576D-01 0.526D-01 0.416D-01 0.285D+00 0.638D+00
 Coeff-En:   0.000D+00 0.000D+00 0.000D+00 0.000D+00 0.132D+00 0.868D+00
 Coeff:      0.384D-01-0.558D-01 0.510D-01 0.403D-01 0.281D+00 0.645D+00
 Gap=     0.358 Goal=   None    Shift=    0.000
 Gap=     0.091 Goal=   None    Shift=    0.000
 RMSDP=1.45D-04 MaxDP=2.53D-02 DE=-3.12D-02 OVMax= 8.14D-02

 Cycle   7  Pass 1  IDiag  1:
 RMSU=  1.19D-04    CP:  9.97D-01  2.76D+00  4.38D-01  7.12D-01  7.87D-01
                    CP:  8.67D-01
 E= -3920.78298747219     Delta-E=       -0.007995367432 Rises=F Damp=F
 DIIS: error= 7.29D-04 at cycle   7 NSaved=   7.
 NSaved= 7 IEnMin= 7 EnMin= -3920.78298747219     IErMin= 7 ErrMin= 7.29D-04
 ErrMax= 7.29D-04  0.00D+00 EMaxC= 1.00D-01 BMatC= 3.97D-03 BMatP= 3.25D-02
 IDIUse=3 WtCom= 9.93D-01 WtEn= 7.29D-03
 Coeff-Com:  0.113D-01-0.150D-01-0.998D-02-0.596D-01 0.447D-01 0.318D+00
 Coeff-Com:  0.711D+00
 Coeff-En:   0.000D+00 0.000D+00 0.000D+00 0.000D+00 0.000D+00 0.000D+00
 Coeff-En:   0.100D+01
 Coeff:      0.112D-01-0.149D-01-0.991D-02-0.592D-01 0.444D-01 0.315D+00
 Coeff:      0.713D+00
 Gap=     0.357 Goal=   None    Shift=    0.000
 Gap=     0.108 Goal=   None    Shift=    0.000
 RMSDP=8.22D-05 MaxDP=9.27D-03 DE=-8.00D-03 OVMax= 5.00D-02

 Cycle   8  Pass 1  IDiag  1:
 RMSU=  4.99D-05    CP:  9.97D-01  2.77D+00  4.26D-01  7.34D-01  7.73D-01
                    CP:  9.91D-01  1.45D+00
 E= -3920.78524185253     Delta-E=       -0.002254380341 Rises=F Damp=F
 DIIS: error= 3.62D-04 at cycle   8 NSaved=   8.
 NSaved= 8 IEnMin= 8 EnMin= -3920.78524185253     IErMin= 8 ErrMin= 3.62D-04
 ErrMax= 3.62D-04  0.00D+00 EMaxC= 1.00D-01 BMatC= 8.57D-04 BMatP= 3.97D-03
 IDIUse=3 WtCom= 9.96D-01 WtEn= 3.62D-03
 Coeff-Com:  0.499D-02-0.600D-02-0.299D-02-0.291D-01-0.178D-01 0.259D-01
 Coeff-Com:  0.232D+00 0.793D+00
 Coeff-En:   0.000D+00 0.000D+00 0.000D+00 0.000D+00 0.000D+00 0.000D+00
 Coeff-En:   0.000D+00 0.100D+01
 Coeff:      0.498D-02-0.598D-02-0.298D-02-0.290D-01-0.177D-01 0.258D-01
 Coeff:      0.231D+00 0.793D+00
 Gap=     0.357 Goal=   None    Shift=    0.000
 Gap=     0.111 Goal=   None    Shift=    0.000
 RMSDP=7.29D-05 MaxDP=7.16D-03 DE=-2.25D-03 OVMax= 4.62D-02

 Cycle   9  Pass 1  IDiag  1:
 RMSU=  3.09D-05    CP:  9.97D-01  2.78D+00  4.10D-01  7.49D-01  7.45D-01
                    CP:  1.03D+00  1.92D+00  1.43D+00
 E= -3920.78659372849     Delta-E=       -0.001351875952 Rises=F Damp=F
 DIIS: error= 3.47D-04 at cycle   9 NSaved=   9.
 NSaved= 9 IEnMin= 9 EnMin= -3920.78659372849     IErMin= 9 ErrMin= 3.47D-04
 ErrMax= 3.47D-04  0.00D+00 EMaxC= 1.00D-01 BMatC= 8.02D-04 BMatP= 8.57D-04
 IDIUse=3 WtCom= 9.97D-01 WtEn= 3.47D-03
 Coeff-Com:  0.285D-02-0.324D-02 0.446D-02-0.297D-02-0.299D-01-0.998D-01
 Coeff-Com: -0.128D+00 0.678D+00 0.579D+00
 Coeff-En:   0.000D+00 0.000D+00 0.000D+00 0.000D+00 0.000D+00 0.000D+00
 Coeff-En:   0.000D+00 0.000D+00 0.100D+01
 Coeff:      0.284D-02-0.323D-02 0.444D-02-0.296D-02-0.298D-01-0.995D-01
 Coeff:     -0.128D+00 0.676D+00 0.580D+00
 Gap=     0.356 Goal=   None    Shift=    0.000
 Gap=     0.112 Goal=   None    Shift=    0.000
 RMSDP=6.52D-05 MaxDP=7.28D-03 DE=-1.35D-03 OVMax= 4.52D-02

 Cycle  10  Pass 1  IDiag  1:
 RMSU=  1.92D-05    CP:  9.97D-01  2.78D+00  3.98D-01  7.58D-01  7.10D-01
                    CP:  1.06D+00  2.31D+00  2.02D+00  1.35D+00
 E= -3920.78773151341     Delta-E=       -0.001137784926 Rises=F Damp=F
 DIIS: error= 2.25D-04 at cycle  10 NSaved=  10.
 NSaved=10 IEnMin=10 EnMin= -3920.78773151341     IErMin=10 ErrMin= 2.25D-04
 ErrMax= 2.25D-04  0.00D+00 EMaxC= 1.00D-01 BMatC= 2.46D-04 BMatP= 8.02D-04
 IDIUse=3 WtCom= 9.98D-01 WtEn= 2.25D-03
 Coeff-Com:  0.242D-02-0.340D-02 0.341D-02 0.379D-03 0.148D-02-0.839D-02
 Coeff-Com: -0.958D-01-0.141D-01-0.123D-02 0.112D+01
 Coeff-En:   0.000D+00 0.000D+00 0.000D+00 0.000D+00 0.000D+00 0.000D+00
 Coeff-En:   0.000D+00 0.000D+00 0.000D+00 0.100D+01
 Coeff:      0.241D-02-0.339D-02 0.340D-02 0.378D-03 0.148D-02-0.838D-02
 Coeff:     -0.956D-01-0.140D-01-0.123D-02 0.111D+01
 Gap=     0.356 Goal=   None    Shift=    0.000
 Gap=     0.114 Goal=   None    Shift=    0.000
 RMSDP=7.16D-05 MaxDP=8.76D-03 DE=-1.14D-03 OVMax= 4.41D-02

 Cycle  11  Pass 1  IDiag  1:
 RMSU=  1.28D-05    CP:  9.97D-01  2.79D+00  3.85D-01  7.66D-01  6.58D-01
                    CP:  1.06D+00  2.67D+00  2.58D+00  2.25D+00  2.10D+00
 E= -3920.78875103347     Delta-E=       -0.001019520058 Rises=F Damp=F
 DIIS: error= 1.90D-04 at cycle  11 NSaved=  11.
 NSaved=11 IEnMin=11 EnMin= -3920.78875103347     IErMin=11 ErrMin= 1.90D-04
 ErrMax= 1.90D-04  0.00D+00 EMaxC= 1.00D-01 BMatC= 1.96D-04 BMatP= 2.46D-04
 IDIUse=3 WtCom= 9.98D-01 WtEn= 1.90D-03
 Coeff-Com:  0.956D-03-0.144D-02-0.308D-02-0.141D-01 0.389D-01 0.141D+00
 Coeff-Com:  0.195D+00-0.415D+00-0.775D+00 0.294D+00 0.154D+01
 Coeff-En:   0.000D+00 0.000D+00 0.000D+00 0.000D+00 0.000D+00 0.000D+00
 Coeff-En:   0.000D+00 0.000D+00 0.000D+00 0.000D+00 0.100D+01
 Coeff:      0.954D-03-0.144D-02-0.308D-02-0.141D-01 0.388D-01 0.141D+00
 Coeff:      0.195D+00-0.415D+00-0.774D+00 0.293D+00 0.154D+01
 Gap=     0.356 Goal=   None    Shift=    0.000
 Gap=     0.115 Goal=   None    Shift=    0.000
 RMSDP=9.72D-05 MaxDP=1.19D-02 DE=-1.02D-03 OVMax= 4.68D-02

 Cycle  12  Pass 1  IDiag  1:
 RMSU=  3.40D-05    CP:  9.97D-01  2.79D+00  3.72D-01  7.70D-01  5.73D-01
                    CP:  1.04D+00  3.00D+00  3.00D+00  3.00D+00  3.00D+00
                    CP:  2.85D+00
 E= -3920.78990232900     Delta-E=       -0.001151295532 Rises=F Damp=F
 DIIS: error= 1.58D-04 at cycle  12 NSaved=  12.
 NSaved=12 IEnMin=12 EnMin= -3920.78990232900     IErMin=12 ErrMin= 1.58D-04
 ErrMax= 1.58D-04  0.00D+00 EMaxC= 1.00D-01 BMatC= 1.56D-04 BMatP= 1.96D-04
 IDIUse=3 WtCom= 9.98D-01 WtEn= 1.58D-03
 Coeff-Com:  0.513D-03-0.668D-03-0.450D-02-0.147D-01 0.314D-01 0.915D-01
 Coeff-Com:  0.217D+00-0.105D+00-0.577D+00-0.520D+00 0.911D+00 0.970D+00
 Coeff-En:   0.000D+00 0.000D+00 0.000D+00 0.000D+00 0.000D+00 0.000D+00
 Coeff-En:   0.000D+00 0.000D+00 0.000D+00 0.000D+00 0.000D+00 0.100D+01
 Coeff:      0.512D-03-0.667D-03-0.449D-02-0.147D-01 0.313D-01 0.913D-01
 Coeff:      0.217D+00-0.105D+00-0.576D+00-0.519D+00 0.909D+00 0.970D+00
 Gap=     0.356 Goal=   None    Shift=    0.000
 Gap=     0.118 Goal=   None    Shift=    0.000
 RMSDP=7.23D-05 MaxDP=9.29D-03 DE=-1.15D-03 OVMax= 3.70D-02

 Cycle  13  Pass 1  IDiag  1:
 RMSU=  3.29D-05    CP:  9.97D-01  2.79D+00  3.67D-01  7.70D-01  5.06D-01
                    CP:  9.96D-01  3.00D+00  3.00D+00  3.00D+00  3.00D+00
                    CP:  3.00D+00  2.46D+00
 E= -3920.79058664908     Delta-E=       -0.000684320081 Rises=F Damp=F
 DIIS: error= 1.39D-04 at cycle  13 NSaved=  13.
 NSaved=13 IEnMin=13 EnMin= -3920.79058664908     IErMin=13 ErrMin= 1.39D-04
 ErrMax= 1.39D-04  0.00D+00 EMaxC= 1.00D-01 BMatC= 1.14D-04 BMatP= 1.56D-04
 IDIUse=3 WtCom= 9.99D-01 WtEn= 1.39D-03
 Coeff-Com:  0.722D-03-0.103D-02-0.284D-02-0.596D-02 0.110D-01-0.629D-02
 Coeff-Com:  0.762D-01 0.165D+00-0.145D+00-0.351D+00-0.106D-01 0.455D-01
 Coeff-Com:  0.122D+01
 Coeff-En:   0.000D+00 0.000D+00 0.000D+00 0.000D+00 0.000D+00 0.000D+00
 Coeff-En:   0.000D+00 0.000D+00 0.000D+00 0.000D+00 0.000D+00 0.000D+00
 Coeff-En:   0.100D+01
 Coeff:      0.721D-03-0.103D-02-0.284D-02-0.595D-02 0.110D-01-0.628D-02
 Coeff:      0.761D-01 0.164D+00-0.145D+00-0.350D+00-0.106D-01 0.455D-01
 Coeff:      0.122D+01
 Gap=     0.355 Goal=   None    Shift=    0.000
 Gap=     0.119 Goal=   None    Shift=    0.000
 RMSDP=6.39D-05 MaxDP=1.01D-02 DE=-6.84D-04 OVMax= 3.80D-02

 Cycle  14  Pass 1  IDiag  1:
 RMSU=  2.68D-05    CP:  9.97D-01  2.79D+00  3.64D-01  7.70D-01  4.47D-01
                    CP:  9.40D-01  3.00D+00  3.00D+00  3.00D+00  3.00D+00
                    CP:  3.00D+00  3.00D+00  1.90D+00
 E= -3920.79108125489     Delta-E=       -0.000494605811 Rises=F Damp=F
 DIIS: error= 1.38D-04 at cycle  14 NSaved=  14.
 NSaved=14 IEnMin=14 EnMin= -3920.79108125489     IErMin=14 ErrMin= 1.38D-04
 ErrMax= 1.38D-04  0.00D+00 EMaxC= 1.00D-01 BMatC= 1.09D-04 BMatP= 1.14D-04
 IDIUse=3 WtCom= 9.99D-01 WtEn= 1.38D-03
 Coeff-Com:  0.239D-03-0.386D-03-0.118D-02-0.501D-02 0.152D-01 0.240D-01
 Coeff-Com:  0.536D-01-0.346D-01-0.271D+00 0.283D+00 0.247D+00-0.775D+00
 Coeff-Com:  0.193D+00 0.127D+01
 Coeff-En:   0.000D+00 0.000D+00 0.000D+00 0.000D+00 0.000D+00 0.000D+00
 Coeff-En:   0.000D+00 0.000D+00 0.000D+00 0.000D+00 0.000D+00 0.000D+00
 Coeff-En:   0.000D+00 0.100D+01
 Coeff:      0.239D-03-0.386D-03-0.118D-02-0.500D-02 0.152D-01 0.240D-01
 Coeff:      0.535D-01-0.346D-01-0.271D+00 0.283D+00 0.247D+00-0.774D+00
 Coeff:      0.193D+00 0.127D+01
 Gap=     0.355 Goal=   None    Shift=    0.000
 Gap=     0.119 Goal=   None    Shift=    0.000
 RMSDP=4.80D-05 MaxDP=8.30D-03 DE=-4.95D-04 OVMax= 3.42D-02

 Cycle  15  Pass 1  IDiag  1:
 RMSU=  8.91D-06    CP:  9.97D-01  2.79D+00  3.64D-01  7.72D-01  4.04D-01
                    CP:  8.92D-01  3.00D+00  3.00D+00  3.00D+00  3.00D+00
                    CP:  3.00D+00  3.00D+00  2.47D+00  2.26D+00
 E= -3920.79140241444     Delta-E=       -0.000321159545 Rises=F Damp=F
 DIIS: error= 1.86D-04 at cycle  15 NSaved=  15.
 NSaved=15 IEnMin=15 EnMin= -3920.79140241444     IErMin=14 ErrMin= 1.38D-04
 ErrMax= 1.86D-04  0.00D+00 EMaxC= 1.00D-01 BMatC= 1.34D-04 BMatP= 1.09D-04
 IDIUse=3 WtCom= 9.99D-01 WtEn= 1.38D-03
 Coeff-Com:  0.391D-03-0.549D-03-0.377D-03-0.831D-02 0.224D-01 0.511D-01
 Coeff-Com:  0.659D-01-0.159D+00-0.435D+00 0.451D+00 0.552D+00-0.689D+00
 Coeff-Com: -0.560D+00 0.445D+00 0.126D+01
 Coeff-En:   0.000D+00 0.000D+00 0.000D+00 0.000D+00 0.000D+00 0.000D+00
 Coeff-En:   0.000D+00 0.000D+00 0.000D+00 0.000D+00 0.000D+00 0.000D+00
 Coeff-En:   0.000D+00 0.000D+00 0.100D+01
 Coeff:      0.390D-03-0.548D-03-0.377D-03-0.829D-02 0.224D-01 0.510D-01
 Coeff:      0.659D-01-0.159D+00-0.435D+00 0.451D+00 0.552D+00-0.688D+00
 Coeff:     -0.559D+00 0.444D+00 0.126D+01
 Gap=     0.355 Goal=   None    Shift=    0.000
 Gap=     0.121 Goal=   None    Shift=    0.000
 RMSDP=5.89D-05 MaxDP=9.28D-03 DE=-3.21D-04 OVMax= 4.29D-02

 Cycle  16  Pass 1  IDiag  1:
 RMSU=  2.23D-05    CP:  9.97D-01  2.79D+00  3.66D-01  7.72D-01  3.54D-01
                    CP:  8.31D-01  3.00D+00  3.00D+00  3.00D+00  3.00D+00
                    CP:  3.00D+00  3.00D+00  3.00D+00  3.00D+00  2.72D+00
 E= -3920.79176725520     Delta-E=       -0.000364840764 Rises=F Damp=F
 DIIS: error= 1.74D-04 at cycle  16 NSaved=  16.
 NSaved=16 IEnMin=16 EnMin= -3920.79176725520     IErMin=14 ErrMin= 1.38D-04
 ErrMax= 1.74D-04  0.00D+00 EMaxC= 1.00D-01 BMatC= 1.24D-04 BMatP= 1.09D-04
 IDIUse=3 WtCom= 9.99D-01 WtEn= 1.38D-03
 Coeff-Com:  0.494D-03-0.679D-03-0.281D-03-0.801D-02 0.225D-01 0.423D-01
 Coeff-Com:  0.683D-01-0.133D+00-0.392D+00 0.297D+00 0.549D+00-0.435D+00
 Coeff-Com: -0.416D+00-0.177D+00 0.868D+00 0.715D+00
 Coeff-En:   0.000D+00 0.000D+00 0.000D+00 0.000D+00 0.000D+00 0.000D+00
 Coeff-En:   0.000D+00 0.000D+00 0.000D+00 0.000D+00 0.000D+00 0.000D+00
 Coeff-En:   0.000D+00 0.000D+00 0.000D+00 0.100D+01
 Coeff:      0.494D-03-0.678D-03-0.281D-03-0.800D-02 0.224D-01 0.422D-01
 Coeff:      0.682D-01-0.133D+00-0.391D+00 0.297D+00 0.548D+00-0.435D+00
 Coeff:     -0.416D+00-0.177D+00 0.867D+00 0.715D+00
 Gap=     0.354 Goal=   None    Shift=    0.000
 Gap=     0.122 Goal=   None    Shift=    0.000
 RMSDP=3.65D-05 MaxDP=5.28D-03 DE=-3.65D-04 OVMax= 2.73D-02

 Cycle  17  Pass 1  IDiag  1:
 RMSU=  1.39D-05    CP:  9.97D-01  2.79D+00  3.68D-01  7.73D-01  3.26D-01
                    CP:  7.91D-01  3.00D+00  3.00D+00  3.00D+00  3.00D+00
                    CP:  3.00D+00  3.00D+00  3.00D+00  3.00D+00  3.00D+00
                    CP:  2.21D+00
 E= -3920.79197797633     Delta-E=       -0.000210721129 Rises=F Damp=F
 DIIS: error= 1.63D-04 at cycle  17 NSaved=  17.
 NSaved=17 IEnMin=17 EnMin= -3920.79197797633     IErMin=14 ErrMin= 1.38D-04
 ErrMax= 1.63D-04  0.00D+00 EMaxC= 1.00D-01 BMatC= 1.07D-04 BMatP= 1.09D-04
 IDIUse=3 WtCom= 9.99D-01 WtEn= 1.38D-03
 Coeff-Com:  0.541D-03-0.749D-03-0.850D-03-0.387D-02 0.142D-01 0.959D-02
 Coeff-Com:  0.602D-01-0.335D-02-0.136D+00-0.108D+00 0.289D+00-0.188D+00
 Coeff-Com:  0.376D+00-0.644D-01-0.649D+00-0.165D+01 0.305D+01
 Coeff-En:   0.000D+00 0.000D+00 0.000D+00 0.000D+00 0.000D+00 0.000D+00
 Coeff-En:   0.000D+00 0.000D+00 0.000D+00 0.000D+00 0.000D+00 0.000D+00
 Coeff-En:   0.000D+00 0.000D+00 0.000D+00 0.000D+00 0.100D+01
 Coeff:      0.541D-03-0.748D-03-0.848D-03-0.386D-02 0.142D-01 0.957D-02
 Coeff:      0.601D-01-0.335D-02-0.136D+00-0.108D+00 0.289D+00-0.187D+00
 Coeff:      0.376D+00-0.643D-01-0.649D+00-0.165D+01 0.305D+01
 Gap=     0.352 Goal=   None    Shift=    0.000
 Gap=     0.123 Goal=   None    Shift=    0.000
 RMSDP=8.96D-05 MaxDP=1.13D-02 DE=-2.11D-04 OVMax= 6.69D-02

 Cycle  18  Pass 1  IDiag  1:
 RMSU=  5.10D-05    CP:  9.97D-01  2.79D+00  3.76D-01  7.75D-01  2.68D-01
                    CP:  6.88D-01  3.00D+00  3.00D+00  3.00D+00  3.00D+00
                    CP:  3.00D+00  3.00D+00  3.00D+00  3.00D+00  3.00D+00
                    CP:  3.00D+00  3.00D+00
 E= -3920.79244076535     Delta-E=       -0.000462789016 Rises=F Damp=F
 DIIS: error= 1.10D-04 at cycle  18 NSaved=  18.
 NSaved=18 IEnMin=18 EnMin= -3920.79244076535     IErMin=18 ErrMin= 1.10D-04
 ErrMax= 1.10D-04  0.00D+00 EMaxC= 1.00D-01 BMatC= 6.31D-05 BMatP= 1.07D-04
 IDIUse=3 WtCom= 9.99D-01 WtEn= 1.10D-03
 Coeff-Com:  0.320D-03-0.465D-03-0.149D-03-0.108D-02 0.627D-02 0.137D-01
 Coeff-Com:  0.214D-01-0.263D-01-0.851D-01 0.101D+00 0.157D+00-0.594D+00
 Coeff-Com:  0.228D+00 0.844D+00 0.937D-01-0.275D+01 0.145D+01 0.154D+01
 Coeff-En:   0.000D+00 0.000D+00 0.000D+00 0.000D+00 0.000D+00 0.000D+00
 Coeff-En:   0.000D+00 0.000D+00 0.000D+00 0.000D+00 0.000D+00 0.000D+00
 Coeff-En:   0.000D+00 0.000D+00 0.000D+00 0.000D+00 0.000D+00 0.100D+01
 Coeff:      0.319D-03-0.464D-03-0.149D-03-0.108D-02 0.626D-02 0.137D-01
 Coeff:      0.213D-01-0.263D-01-0.850D-01 0.101D+00 0.157D+00-0.594D+00
 Coeff:      0.228D+00 0.843D+00 0.936D-01-0.274D+01 0.145D+01 0.154D+01
 Gap=     0.349 Goal=   None    Shift=    0.000
 Gap=     0.126 Goal=   None    Shift=    0.000
 RMSDP=7.90D-05 MaxDP=1.03D-02 DE=-4.63D-04 OVMax= 5.71D-02

 Cycle  19  Pass 1  IDiag  1:
 RMSU=  1.98D-05    CP:  9.97D-01  2.78D+00  3.86D-01  7.73D-01  2.20D-01
                    CP:  5.89D-01  3.00D+00  3.00D+00  3.00D+00  3.00D+00
                    CP:  3.00D+00  3.00D+00  3.00D+00  3.00D+00  3.00D+00
                    CP:  3.00D+00  3.00D+00  2.30D+00
 E= -3920.79277756636     Delta-E=       -0.000336801009 Rises=F Damp=F
 DIIS: error= 6.67D-05 at cycle  19 NSaved=  19.
 NSaved=19 IEnMin=19 EnMin= -3920.79277756636     IErMin=19 ErrMin= 6.67D-05
 ErrMax= 6.67D-05  0.00D+00 EMaxC= 1.00D-01 BMatC= 2.37D-05 BMatP= 6.31D-05
 IDIUse=1 WtCom= 1.00D+00 WtEn= 0.00D+00
 Coeff-Com: -0.189D-04-0.324D-04-0.149D-03-0.830D-03 0.829D-02 0.351D-01
 Coeff-Com:  0.278D-01-0.124D+00-0.160D+00 0.219D+00 0.315D+00-0.513D+00
 Coeff-Com: -0.303D+00 0.403D+00 0.111D+01-0.554D+00-0.749D+00 0.130D-02
 Coeff-Com:  0.129D+01
 Coeff:     -0.189D-04-0.324D-04-0.149D-03-0.830D-03 0.829D-02 0.351D-01
 Coeff:      0.278D-01-0.124D+00-0.160D+00 0.219D+00 0.315D+00-0.513D+00
 Coeff:     -0.303D+00 0.403D+00 0.111D+01-0.554D+00-0.749D+00 0.130D-02
 Coeff:      0.129D+01
 Gap=     0.349 Goal=   None    Shift=    0.000
 Gap=     0.124 Goal=   None    Shift=    0.000
 RMSDP=1.80D-05 MaxDP=3.03D-03 DE=-3.37D-04 OVMax= 8.46D-03

 Cycle  20  Pass 1  IDiag  1:
 RMSU=  1.00D-05    CP:  9.97D-01  2.78D+00  3.88D-01  7.74D-01  2.14D-01
                    CP:  5.72D-01  3.00D+00  3.00D+00  3.00D+00  3.00D+00
                    CP:  3.00D+00  3.00D+00  3.00D+00  3.00D+00  3.00D+00
                    CP:  3.00D+00  3.00D+00  2.54D+00  1.30D+00
 E= -3920.79284402543     Delta-E=       -0.000066459077 Rises=F Damp=F
 DIIS: error= 7.35D-05 at cycle  20 NSaved=  20.
 NSaved=20 IEnMin=20 EnMin= -3920.79284402543     IErMin=19 ErrMin= 6.67D-05
 ErrMax= 7.35D-05  0.00D+00 EMaxC= 1.00D-01 BMatC= 3.48D-05 BMatP= 2.37D-05
 IDIUse=1 WtCom= 1.00D+00 WtEn= 0.00D+00
 Coeff-Com: -0.590D-03 0.771D-03-0.680D-03-0.116D-02 0.967D-02 0.265D-01
 Coeff-Com:  0.375D-01-0.118D+00-0.107D+00 0.825D-01 0.257D+00-0.161D-01
 Coeff-Com: -0.417D+00-0.350D+00 0.896D+00 0.101D+01-0.135D+01-0.139D+01
 Coeff-Com:  0.102D+01 0.142D+01
 Coeff:     -0.590D-03 0.771D-03-0.680D-03-0.116D-02 0.967D-02 0.265D-01
 Coeff:      0.375D-01-0.118D+00-0.107D+00 0.825D-01 0.257D+00-0.161D-01
 Coeff:     -0.417D+00-0.350D+00 0.896D+00 0.101D+01-0.135D+01-0.139D+01
 Coeff:      0.102D+01 0.142D+01
 Gap=     0.346 Goal=   None    Shift=    0.000
 Gap=     0.127 Goal=   None    Shift=    0.000
 RMSDP=9.29D-05 MaxDP=1.38D-02 DE=-6.65D-05 OVMax= 6.18D-02

 Cycle  21  Pass 1  IDiag  1:
 Restarting incremental Fock formation.
 E= -3920.79311741250     Delta-E=       -0.000273387070 Rises=F Damp=F
 DIIS: error= 6.09D-05 at cycle  21 NSaved=  20.
 NSaved=20 IEnMin=20 EnMin= -3920.79311741250     IErMin=20 ErrMin= 6.09D-05
 ErrMax= 6.09D-05  0.00D+00 EMaxC= 1.00D-01 BMatC= 1.55D-05 BMatP= 2.37D-05
 IDIUse=1 WtCom= 1.00D+00 WtEn= 0.00D+00
 Coeff-Com: -0.103D-03-0.924D-03 0.329D-03 0.465D-02 0.145D-02 0.173D-01
 Coeff-Com: -0.133D-01-0.296D-01-0.673D-01 0.923D-01 0.187D+00-0.488D-01
 Coeff-Com: -0.714D+00 0.335D-01 0.105D+01 0.128D+00-0.161D+01-0.501D-02
 Coeff-Com:  0.111D+01 0.859D+00
 Coeff:     -0.103D-03-0.924D-03 0.329D-03 0.465D-02 0.145D-02 0.173D-01
 Coeff:     -0.133D-01-0.296D-01-0.673D-01 0.923D-01 0.187D+00-0.488D-01
 Coeff:     -0.714D+00 0.335D-01 0.105D+01 0.128D+00-0.161D+01-0.501D-02
 Coeff:      0.111D+01 0.859D+00
 Gap=     0.344 Goal=   None    Shift=    0.000
 Gap=     0.130 Goal=   None    Shift=    0.000
 RMSDP=4.45D-05 MaxDP=7.36D-03 DE=-2.73D-04 OVMax= 2.72D-02

 Cycle  22  Pass 1  IDiag  1:
 RMSU=  4.45D-05    CP:  1.00D+00
 E= -3920.79320506613     Delta-E=       -0.000087653627 Rises=F Damp=F
 DIIS: error= 8.62D-05 at cycle  22 NSaved=  20.
 NSaved=20 IEnMin=20 EnMin= -3920.79320506613     IErMin=19 ErrMin= 6.09D-05
 ErrMax= 8.62D-05  0.00D+00 EMaxC= 1.00D-01 BMatC= 2.76D-05 BMatP= 1.55D-05
 IDIUse=1 WtCom= 1.00D+00 WtEn= 0.00D+00
 Coeff-Com: -0.723D-03 0.931D-03-0.585D-03-0.101D-01 0.112D-01 0.565D-01
 Coeff-Com:  0.856D-02-0.188D+00 0.223D-01 0.223D+00 0.284D+00-0.647D+00
 Coeff-Com: -0.581D+00 0.199D+00 0.157D+01-0.741D+00-0.852D+00 0.447D+00
 Coeff-Com:  0.146D+00 0.105D+01
 Coeff:     -0.723D-03 0.931D-03-0.585D-03-0.101D-01 0.112D-01 0.565D-01
 Coeff:      0.856D-02-0.188D+00 0.223D-01 0.223D+00 0.284D+00-0.647D+00
 Coeff:     -0.581D+00 0.199D+00 0.157D+01-0.741D+00-0.852D+00 0.447D+00
 Coeff:      0.146D+00 0.105D+01
 Gap=     0.345 Goal=   None    Shift=    0.000
 Gap=     0.127 Goal=   None    Shift=    0.000
 RMSDP=1.53D-05 MaxDP=1.77D-03 DE=-8.77D-05 OVMax= 9.04D-03

 Cycle  23  Pass 1  IDiag  1:
 RMSU=  1.46D-05    CP:  1.00D+00  9.02D-01
 E= -3920.79321927552     Delta-E=       -0.000014209390 Rises=F Damp=F
 DIIS: error= 4.10D-05 at cycle  23 NSaved=  20.
 NSaved=20 IEnMin=20 EnMin= -3920.79321927552     IErMin=20 ErrMin= 4.10D-05
 ErrMax= 4.10D-05  0.00D+00 EMaxC= 1.00D-01 BMatC= 6.66D-06 BMatP= 1.55D-05
 IDIUse=1 WtCom= 1.00D+00 WtEn= 0.00D+00
 Coeff-Com:  0.233D-02-0.217D-02-0.872D-02-0.382D-02 0.406D-01 0.533D-01
 Coeff-Com: -0.723D-01-0.545D-01 0.754D-02 0.289D+00-0.403D-01-0.305D+00
 Coeff-Com: -0.928D+00 0.962D+00 0.469D+00-0.626D+00-0.154D+00-0.334D+00
 Coeff-Com:  0.466D+00 0.124D+01
 Coeff:      0.233D-02-0.217D-02-0.872D-02-0.382D-02 0.406D-01 0.533D-01
 Coeff:     -0.723D-01-0.545D-01 0.754D-02 0.289D+00-0.403D-01-0.305D+00
 Coeff:     -0.928D+00 0.962D+00 0.469D+00-0.626D+00-0.154D+00-0.334D+00
 Coeff:      0.466D+00 0.124D+01
 Gap=     0.343 Goal=   None    Shift=    0.000
 Gap=     0.129 Goal=   None    Shift=    0.000
 RMSDP=6.34D-05 MaxDP=1.05D-02 DE=-1.42D-05 OVMax= 3.77D-02

 Cycle  24  Pass 1  IDiag  1:
 RMSU=  9.78D-06    CP:  1.00D+00  2.31D+00  8.02D-01
 E= -3920.79329115587     Delta-E=       -0.000071880351 Rises=F Damp=F
 DIIS: error= 8.93D-05 at cycle  24 NSaved=  20.
 NSaved=20 IEnMin=20 EnMin= -3920.79329115587     IErMin=19 ErrMin= 4.10D-05
 ErrMax= 8.93D-05  0.00D+00 EMaxC= 1.00D-01 BMatC= 3.23D-05 BMatP= 6.66D-06
 IDIUse=1 WtCom= 1.00D+00 WtEn= 0.00D+00
 Coeff-Com: -0.679D-03 0.745D-02 0.414D-02 0.272D-02-0.356D-01 0.219D-01
 Coeff-Com:  0.115D-01-0.334D-01 0.240D-01-0.266D-01 0.278D+00-0.459D+00
 Coeff-Com: -0.161D+00 0.430D+00 0.247D-01 0.150D-01-0.587D+00-0.255D+00
 Coeff-Com:  0.110D+01 0.643D+00
 Coeff:     -0.679D-03 0.745D-02 0.414D-02 0.272D-02-0.356D-01 0.219D-01
 Coeff:      0.115D-01-0.334D-01 0.240D-01-0.266D-01 0.278D+00-0.459D+00
 Coeff:     -0.161D+00 0.430D+00 0.247D-01 0.150D-01-0.587D+00-0.255D+00
 Coeff:      0.110D+01 0.643D+00
 Gap=     0.343 Goal=   None    Shift=    0.000
 Gap=     0.130 Goal=   None    Shift=    0.000
 RMSDP=8.38D-06 MaxDP=1.94D-03 DE=-7.19D-05 OVMax= 3.45D-03

 Cycle  25  Pass 1  IDiag  1:
 RMSU=  3.68D-06    CP:  1.00D+00  2.42D+00  1.18D+00  1.00D+00
 E= -3920.79330446996     Delta-E=       -0.000013314084 Rises=F Damp=F
 DIIS: error= 7.05D-05 at cycle  25 NSaved=  20.
 NSaved=20 IEnMin=20 EnMin= -3920.79330446996     IErMin=18 ErrMin= 4.10D-05
 ErrMax= 7.05D-05  0.00D+00 EMaxC= 1.00D-01 BMatC= 2.04D-05 BMatP= 6.66D-06
 IDIUse=1 WtCom= 1.00D+00 WtEn= 0.00D+00
 Coeff-Com:  0.748D-02 0.173D-02-0.184D-01-0.317D-01 0.374D-01 0.403D-01
 Coeff-Com:  0.306D-01-0.128D+00-0.129D+00 0.356D+00 0.234D+00-0.630D+00
 Coeff-Com: -0.168D+00 0.323D+00 0.452D+00-0.346D+00-0.634D+00 0.473D+00
 Coeff-Com: -0.137D+00 0.127D+01
 Coeff:      0.748D-02 0.173D-02-0.184D-01-0.317D-01 0.374D-01 0.403D-01
 Coeff:      0.306D-01-0.128D+00-0.129D+00 0.356D+00 0.234D+00-0.630D+00
 Coeff:     -0.168D+00 0.323D+00 0.452D+00-0.346D+00-0.634D+00 0.473D+00
 Coeff:     -0.137D+00 0.127D+01
 Gap=     0.343 Goal=   None    Shift=    0.000
 Gap=     0.129 Goal=   None    Shift=    0.000
 RMSDP=9.46D-06 MaxDP=2.31D-03 DE=-1.33D-05 OVMax= 4.46D-03

 Cycle  26  Pass 1  IDiag  1:
 RMSU=  1.95D-06    CP:  1.00D+00  2.56D+00  1.56D+00  1.29D+00  1.82D+00
 E= -3920.79331724199     Delta-E=       -0.000012772032 Rises=F Damp=F
 DIIS: error= 4.91D-05 at cycle  26 NSaved=  20.
 NSaved=20 IEnMin=20 EnMin= -3920.79331724199     IErMin=17 ErrMin= 4.10D-05
 ErrMax= 4.91D-05  0.00D+00 EMaxC= 1.00D-01 BMatC= 1.02D-05 BMatP= 6.66D-06
 IDIUse=1 WtCom= 1.00D+00 WtEn= 0.00D+00
 Coeff-Com:  0.231D-02 0.745D-02-0.129D-01-0.331D-01 0.174D-01 0.164D+00
 Coeff-Com: -0.955D-01-0.361D+00 0.104D+00 0.671D+00-0.325D+00-0.616D+00
 Coeff-Com:  0.701D-01 0.566D+00 0.240D+00-0.297D+00-0.279D+00-0.867D+00
 Coeff-Com:  0.445D+00 0.160D+01
 Coeff:      0.231D-02 0.745D-02-0.129D-01-0.331D-01 0.174D-01 0.164D+00
 Coeff:     -0.955D-01-0.361D+00 0.104D+00 0.671D+00-0.325D+00-0.616D+00
 Coeff:      0.701D-01 0.566D+00 0.240D+00-0.297D+00-0.279D+00-0.867D+00
 Coeff:      0.445D+00 0.160D+01
 Gap=     0.343 Goal=   None    Shift=    0.000
 Gap=     0.129 Goal=   None    Shift=    0.000
 RMSDP=2.07D-05 MaxDP=4.68D-03 DE=-1.28D-05 OVMax= 1.00D-02

 Cycle  27  Pass 1  IDiag  1:
 RMSU=  2.63D-06    CP:  1.00D+00  2.98D+00  1.80D+00  1.81D+00  3.00D+00
                    CP:  2.07D+00
 E= -3920.79333159769     Delta-E=       -0.000014355699 Rises=F Damp=F
 DIIS: error= 5.04D-05 at cycle  27 NSaved=  20.
 NSaved=20 IEnMin=20 EnMin= -3920.79333159769     IErMin=16 ErrMin= 4.10D-05
 ErrMax= 5.04D-05  0.00D+00 EMaxC= 1.00D-01 BMatC= 1.01D-05 BMatP= 6.66D-06
 IDIUse=1 WtCom= 1.00D+00 WtEn= 0.00D+00
 Coeff-Com:  0.894D-02-0.138D-01-0.105D-01-0.127D-02 0.940D-01-0.128D-01
 Coeff-Com: -0.209D+00 0.155D-01 0.260D+00-0.585D-01-0.189D+00-0.133D+00
 Coeff-Com:  0.195D+00 0.152D+00 0.117D-01 0.117D+00-0.473D+00-0.614D+00
 Coeff-Com:  0.668D+00 0.119D+01
 Coeff:      0.894D-02-0.138D-01-0.105D-01-0.127D-02 0.940D-01-0.128D-01
 Coeff:     -0.209D+00 0.155D-01 0.260D+00-0.585D-01-0.189D+00-0.133D+00
 Coeff:      0.195D+00 0.152D+00 0.117D-01 0.117D+00-0.473D+00-0.614D+00
 Coeff:      0.668D+00 0.119D+01
 Gap=     0.343 Goal=   None    Shift=    0.000
 Gap=     0.128 Goal=   None    Shift=    0.000
 RMSDP=9.83D-06 MaxDP=2.52D-03 DE=-1.44D-05 OVMax= 4.14D-03

 Cycle  28  Pass 1  IDiag  1:
 RMSU=  5.54D-06    CP:  1.00D+00  3.00D+00  2.03D+00  2.18D+00  3.00D+00
                    CP:  3.00D+00  2.71D+00
 E= -3920.79333923538     Delta-E=       -0.000007637689 Rises=F Damp=F
 DIIS: error= 3.69D-05 at cycle  28 NSaved=  20.
 NSaved=20 IEnMin=20 EnMin= -3920.79333923538     IErMin=20 ErrMin= 3.69D-05
 ErrMax= 3.69D-05  0.00D+00 EMaxC= 1.00D-01 BMatC= 4.52D-06 BMatP= 6.66D-06
 IDIUse=1 WtCom= 1.00D+00 WtEn= 0.00D+00
 Coeff-Com: -0.140D-01 0.231D-01-0.435D-02 0.291D-01 0.178D-01-0.975D-01
 Coeff-Com: -0.233D-01-0.139D-01 0.608D-01 0.472D-01-0.131D+00-0.125D-01
 Coeff-Com: -0.247D-01 0.847D-01 0.427D+00-0.149D+00-0.425D+00-0.418D+00
 Coeff-Com:  0.477D+00 0.115D+01
 Coeff:     -0.140D-01 0.231D-01-0.435D-02 0.291D-01 0.178D-01-0.975D-01
 Coeff:     -0.233D-01-0.139D-01 0.608D-01 0.472D-01-0.131D+00-0.125D-01
 Coeff:     -0.247D-01 0.847D-01 0.427D+00-0.149D+00-0.425D+00-0.418D+00
 Coeff:      0.477D+00 0.115D+01
 Gap=     0.343 Goal=   None    Shift=    0.000
 Gap=     0.129 Goal=   None    Shift=    0.000
 RMSDP=1.28D-05 MaxDP=2.89D-03 DE=-7.64D-06 OVMax= 6.43D-03

 Cycle  29  Pass 1  IDiag  1:
 RMSU=  4.80D-06    CP:  1.00D+00  3.00D+00  2.06D+00  2.60D+00  3.00D+00
                    CP:  3.00D+00  3.00D+00  2.94D+00
 E= -3920.79334340149     Delta-E=       -0.000004166110 Rises=F Damp=F
 DIIS: error= 4.15D-05 at cycle  29 NSaved=  20.
 NSaved=20 IEnMin=20 EnMin= -3920.79334340149     IErMin=19 ErrMin= 3.69D-05
 ErrMax= 4.15D-05  0.00D+00 EMaxC= 1.00D-01 BMatC= 5.88D-06 BMatP= 4.52D-06
 IDIUse=1 WtCom= 1.00D+00 WtEn= 0.00D+00
 Coeff-Com:  0.196D-01-0.272D-01-0.110D-01 0.377D-01 0.250D-01 0.231D-01
 Coeff-Com: -0.974D-01-0.930D-01 0.130D+00 0.179D-01-0.286D-01-0.200D+00
 Coeff-Com: -0.900D-01 0.627D+00-0.297D-01 0.307D+00-0.879D+00-0.714D+00
 Coeff-Com:  0.817D+00 0.117D+01
 Coeff:      0.196D-01-0.272D-01-0.110D-01 0.377D-01 0.250D-01 0.231D-01
 Coeff:     -0.974D-01-0.930D-01 0.130D+00 0.179D-01-0.286D-01-0.200D+00
 Coeff:     -0.900D-01 0.627D+00-0.297D-01 0.307D+00-0.879D+00-0.714D+00
 Coeff:      0.817D+00 0.117D+01
 Gap=     0.343 Goal=   None    Shift=    0.000
 Gap=     0.128 Goal=   None    Shift=    0.000
 RMSDP=6.79D-06 MaxDP=1.34D-03 DE=-4.17D-06 OVMax= 2.80D-03

 Cycle  30  Pass 1  IDiag  1:
 RMSU=  5.12D-06    CP:  1.00D+00  3.00D+00  2.21D+00  2.84D+00  3.00D+00
                    CP:  3.00D+00  3.00D+00  3.00D+00  1.64D+00
 E= -3920.79334721259     Delta-E=       -0.000003811107 Rises=F Damp=F
 DIIS: error= 2.24D-05 at cycle  30 NSaved=  20.
 NSaved=20 IEnMin=20 EnMin= -3920.79334721259     IErMin=20 ErrMin= 2.24D-05
 ErrMax= 2.24D-05  0.00D+00 EMaxC= 1.00D-01 BMatC= 1.57D-06 BMatP= 4.52D-06
 IDIUse=1 WtCom= 1.00D+00 WtEn= 0.00D+00
 Coeff-Com: -0.703D-03 0.149D-01-0.141D-01-0.401D-01 0.197D-01 0.116D+00
 Coeff-Com: -0.834D-01-0.117D+00 0.915D-01 0.917D-01-0.850D-01-0.959D-01
 Coeff-Com:  0.111D+00-0.245D+00 0.685D+00-0.124D+00-0.930D+00-0.257D+00
 Coeff-Com:  0.667D+00 0.120D+01
 Coeff:     -0.703D-03 0.149D-01-0.141D-01-0.401D-01 0.197D-01 0.116D+00
 Coeff:     -0.834D-01-0.117D+00 0.915D-01 0.917D-01-0.850D-01-0.959D-01
 Coeff:      0.111D+00-0.245D+00 0.685D+00-0.124D+00-0.930D+00-0.257D+00
 Coeff:      0.667D+00 0.120D+01
 Gap=     0.344 Goal=   None    Shift=    0.000
 Gap=     0.128 Goal=   None    Shift=    0.000
 RMSDP=8.47D-06 MaxDP=2.03D-03 DE=-3.81D-06 OVMax= 3.01D-03

 Cycle  31  Pass 1  IDiag  1:
 RMSU=  4.04D-06    CP:  1.00D+00  3.00D+00  2.33D+00  3.00D+00  3.00D+00
                    CP:  3.00D+00  3.00D+00  3.00D+00  2.60D+00  1.96D+00
 E= -3920.79334937294     Delta-E=       -0.000002160345 Rises=F Damp=F
 DIIS: error= 5.54D-06 at cycle  31 NSaved=  20.
 NSaved=20 IEnMin=20 EnMin= -3920.79334937294     IErMin=20 ErrMin= 5.54D-06
 ErrMax= 5.54D-06  0.00D+00 EMaxC= 1.00D-01 BMatC= 1.46D-07 BMatP= 1.57D-06
 IDIUse=1 WtCom= 1.00D+00 WtEn= 0.00D+00
 Coeff-Com:  0.112D-01-0.109D-01-0.427D-01 0.217D-01 0.102D+00-0.396D-01
 Coeff-Com: -0.104D+00 0.310D-01 0.685D-01-0.240D-02-0.733D-02-0.815D-01
 Coeff-Com: -0.793D-01 0.176D+00 0.833D-01-0.173D+00-0.283D+00 0.242D-01
 Coeff-Com:  0.348D+00 0.959D+00
 Coeff:      0.112D-01-0.109D-01-0.427D-01 0.217D-01 0.102D+00-0.396D-01
 Coeff:     -0.104D+00 0.310D-01 0.685D-01-0.240D-02-0.733D-02-0.815D-01
 Coeff:     -0.793D-01 0.176D+00 0.833D-01-0.173D+00-0.283D+00 0.242D-01
 Coeff:      0.348D+00 0.959D+00
 Gap=     0.344 Goal=   None    Shift=    0.000
 Gap=     0.127 Goal=   None    Shift=    0.000
 RMSDP=4.35D-06 MaxDP=1.03D-03 DE=-2.16D-06 OVMax= 1.77D-03

 Cycle  32  Pass 1  IDiag  1:
 RMSU=  1.08D-06    CP:  1.00D+00  3.00D+00  2.40D+00  3.00D+00  3.00D+00
                    CP:  3.00D+00  3.00D+00  3.00D+00  3.00D+00  2.37D+00
                    CP:  1.68D+00
 E= -3920.79334977937     Delta-E=       -0.000000406437 Rises=F Damp=F
 DIIS: error= 3.21D-06 at cycle  32 NSaved=  20.
 NSaved=20 IEnMin=20 EnMin= -3920.79334977937     IErMin=20 ErrMin= 3.21D-06
 ErrMax= 3.21D-06  0.00D+00 EMaxC= 1.00D-01 BMatC= 6.05D-08 BMatP= 1.46D-07
 IDIUse=1 WtCom= 1.00D+00 WtEn= 0.00D+00
 Coeff-Com:  0.897D-02-0.144D-01 0.704D-02-0.157D-01 0.160D-01-0.120D-01
 Coeff-Com: -0.951D-02 0.214D-01 0.598D-02 0.320D-01-0.765D-01 0.517D-01
 Coeff-Com: -0.651D-01 0.528D-01 0.188D+00-0.650D-01-0.137D+00-0.334D+00
 Coeff-Com:  0.262D+00 0.108D+01
 Coeff:      0.897D-02-0.144D-01 0.704D-02-0.157D-01 0.160D-01-0.120D-01
 Coeff:     -0.951D-02 0.214D-01 0.598D-02 0.320D-01-0.765D-01 0.517D-01
 Coeff:     -0.651D-01 0.528D-01 0.188D+00-0.650D-01-0.137D+00-0.334D+00
 Coeff:      0.262D+00 0.108D+01
 Gap=     0.344 Goal=   None    Shift=    0.000
 Gap=     0.128 Goal=   None    Shift=    0.000
 RMSDP=2.44D-06 MaxDP=4.49D-04 DE=-4.06D-07 OVMax= 1.36D-03

 Cycle  33  Pass 1  IDiag  1:
 RMSU=  9.84D-07    CP:  1.00D+00  3.00D+00  2.36D+00  3.00D+00  3.00D+00
                    CP:  3.00D+00  3.00D+00  3.00D+00  3.00D+00  2.44D+00
                    CP:  2.18D+00  1.53D+00
 E= -3920.79334989365     Delta-E=       -0.000000114278 Rises=F Damp=F
 DIIS: error= 3.54D-06 at cycle  33 NSaved=  20.
 NSaved=20 IEnMin=20 EnMin= -3920.79334989365     IErMin=19 ErrMin= 3.21D-06
 ErrMax= 3.54D-06  0.00D+00 EMaxC= 1.00D-01 BMatC= 6.47D-08 BMatP= 6.05D-08
 IDIUse=1 WtCom= 1.00D+00 WtEn= 0.00D+00
 Coeff-Com: -0.238D-02 0.601D-02 0.757D-02-0.127D-01-0.103D-01-0.630D-02
 Coeff-Com:  0.222D-01 0.255D-03-0.388D-02 0.509D-02-0.580D-02-0.197D-01
 Coeff-Com:  0.192D-01 0.785D-01 0.367D-01-0.270D-01-0.203D+00-0.131D+00
 Coeff-Com:  0.448D+00 0.799D+00
 Coeff:     -0.238D-02 0.601D-02 0.757D-02-0.127D-01-0.103D-01-0.630D-02
 Coeff:      0.222D-01 0.255D-03-0.388D-02 0.509D-02-0.580D-02-0.197D-01
 Coeff:      0.192D-01 0.785D-01 0.367D-01-0.270D-01-0.203D+00-0.131D+00
 Coeff:      0.448D+00 0.799D+00
 Gap=     0.344 Goal=   None    Shift=    0.000
 Gap=     0.128 Goal=   None    Shift=    0.000
 RMSDP=1.11D-06 MaxDP=2.01D-04 DE=-1.14D-07 OVMax= 7.49D-04

 Cycle  34  Pass 1  IDiag  1:
 RMSU=  4.43D-07    CP:  1.00D+00  3.00D+00  2.37D+00  3.00D+00  3.00D+00
                    CP:  3.00D+00  3.00D+00  3.00D+00  3.00D+00  2.47D+00
                    CP:  1.95D+00  1.52D+00  7.59D-01
 E= -3920.79334991694     Delta-E=       -0.000000023289 Rises=F Damp=F
 DIIS: error= 2.06D-06 at cycle  34 NSaved=  20.
 NSaved=20 IEnMin=20 EnMin= -3920.79334991694     IErMin=20 ErrMin= 2.06D-06
 ErrMax= 2.06D-06  0.00D+00 EMaxC= 1.00D-01 BMatC= 1.68D-08 BMatP= 6.05D-08
 IDIUse=1 WtCom= 1.00D+00 WtEn= 0.00D+00
 Coeff-Com:  0.122D-02-0.494D-02-0.106D-01 0.108D-01 0.581D-02 0.498D-02
 Coeff-Com: -0.165D-01-0.258D-01 0.550D-01-0.144D-01 0.264D-01-0.463D-01
 Coeff-Com: -0.624D-01 0.768D-01 0.822D-01-0.220D-01-0.280D+00-0.116D+00
 Coeff-Com:  0.475D+00 0.861D+00
 Coeff:      0.122D-02-0.494D-02-0.106D-01 0.108D-01 0.581D-02 0.498D-02
 Coeff:     -0.165D-01-0.258D-01 0.550D-01-0.144D-01 0.264D-01-0.463D-01
 Coeff:     -0.624D-01 0.768D-01 0.822D-01-0.220D-01-0.280D+00-0.116D+00
 Coeff:      0.475D+00 0.861D+00
 Gap=     0.344 Goal=   None    Shift=    0.000
 Gap=     0.128 Goal=   None    Shift=    0.000
 RMSDP=1.38D-06 MaxDP=2.60D-04 DE=-2.33D-08 OVMax= 7.38D-04

 Cycle  35  Pass 1  IDiag  1:
 RMSU=  2.22D-07    CP:  1.00D+00  3.00D+00  2.37D+00  3.00D+00  3.00D+00
                    CP:  3.00D+00  3.00D+00  3.00D+00  3.00D+00  2.50D+00
                    CP:  2.24D+00  1.69D+00  1.36D+00  9.09D-01
 E= -3920.79334994001     Delta-E=       -0.000000023074 Rises=F Damp=F
 DIIS: error= 3.47D-06 at cycle  35 NSaved=  20.
 NSaved=20 IEnMin=20 EnMin= -3920.79334994001     IErMin=19 ErrMin= 2.06D-06
 ErrMax= 3.47D-06  0.00D+00 EMaxC= 1.00D-01 BMatC= 4.21D-08 BMatP= 1.68D-08
 IDIUse=1 WtCom= 1.00D+00 WtEn= 0.00D+00
 Coeff-Com: -0.126D-01 0.907D-02 0.160D-01-0.113D-01-0.472D-02-0.762D-03
 Coeff-Com: -0.974D-02 0.322D-01 0.180D-01-0.518D-01-0.350D-02-0.364D-01
 Coeff-Com:  0.529D-01-0.425D-02 0.651D-01-0.607D-01-0.140D+00-0.386D+00
 Coeff-Com:  0.356D+00 0.117D+01
 Coeff:     -0.126D-01 0.907D-02 0.160D-01-0.113D-01-0.472D-02-0.762D-03
 Coeff:     -0.974D-02 0.322D-01 0.180D-01-0.518D-01-0.350D-02-0.364D-01
 Coeff:      0.529D-01-0.425D-02 0.651D-01-0.607D-01-0.140D+00-0.386D+00
 Coeff:      0.356D+00 0.117D+01
 Gap=     0.344 Goal=   None    Shift=    0.000
 Gap=     0.128 Goal=   None    Shift=    0.000
 RMSDP=7.11D-07 MaxDP=9.75D-05 DE=-2.31D-08 OVMax= 4.53D-04

 Cycle  36  Pass 1  IDiag  1:
 RMSU=  7.41D-08    CP:  1.00D+00  3.00D+00  2.39D+00  3.00D+00  3.00D+00
                    CP:  3.00D+00  3.00D+00  3.00D+00  3.00D+00  2.57D+00
                    CP:  2.14D+00  1.82D+00  1.33D+00  1.56D+00  1.66D+00
 E= -3920.79334995926     Delta-E=       -0.000000019243 Rises=F Damp=F
 DIIS: error= 5.59D-07 at cycle  36 NSaved=  20.
 NSaved=20 IEnMin=20 EnMin= -3920.79334995926     IErMin=20 ErrMin= 5.59D-07
 ErrMax= 5.59D-07  0.00D+00 EMaxC= 1.00D-01 BMatC= 1.93D-09 BMatP= 1.68D-08
 IDIUse=1 WtCom= 1.00D+00 WtEn= 0.00D+00
 Coeff-Com:  0.219D-02-0.116D-02-0.707D-02 0.168D-02 0.898D-02 0.828D-03
 Coeff-Com: -0.109D-01 0.198D-01-0.362D-01 0.186D-01-0.421D-02 0.141D-01
 Coeff-Com: -0.215D-01 0.276D-01 0.196D-01 0.178D-01-0.350D+00-0.163D+00
 Coeff-Com:  0.357D+00 0.111D+01
 Coeff:      0.219D-02-0.116D-02-0.707D-02 0.168D-02 0.898D-02 0.828D-03
 Coeff:     -0.109D-01 0.198D-01-0.362D-01 0.186D-01-0.421D-02 0.141D-01
 Coeff:     -0.215D-01 0.276D-01 0.196D-01 0.178D-01-0.350D+00-0.163D+00
 Coeff:      0.357D+00 0.111D+01
 Gap=     0.344 Goal=   None    Shift=    0.000
 Gap=     0.128 Goal=   None    Shift=    0.000
 RMSDP=5.87D-07 MaxDP=1.08D-04 DE=-1.92D-08 OVMax= 3.49D-04

 Cycle  37  Pass 1  IDiag  1:
 RMSU=  1.18D-07    CP:  1.00D+00  3.00D+00  2.39D+00  3.00D+00  3.00D+00
                    CP:  3.00D+00  3.00D+00  3.00D+00  3.00D+00  2.57D+00
                    CP:  2.26D+00  1.95D+00  1.52D+00  1.77D+00  1.94D+00
                    CP:  1.22D+00
 E= -3920.79334996795     Delta-E=       -0.000000008695 Rises=F Damp=F
 DIIS: error= 6.41D-07 at cycle  37 NSaved=  20.
 NSaved=20 IEnMin=20 EnMin= -3920.79334996795     IErMin=19 ErrMin= 5.59D-07
 ErrMax= 6.41D-07  0.00D+00 EMaxC= 1.00D-01 BMatC= 9.56D-10 BMatP= 1.93D-09
 IDIUse=1 WtCom= 1.00D+00 WtEn= 0.00D+00
 Coeff-Com: -0.436D-02-0.374D-03 0.527D-02 0.425D-02 0.130D-02-0.185D-01
 Coeff-Com:  0.747D-02 0.133D-02 0.195D-01 0.763D-02-0.230D-01-0.194D-01
 Coeff-Com: -0.308D-03 0.675D-01 0.796D-01-0.138D+00-0.281D+00-0.461D-01
 Coeff-Com:  0.575D+00 0.761D+00
 Coeff:     -0.436D-02-0.374D-03 0.527D-02 0.425D-02 0.130D-02-0.185D-01
 Coeff:      0.747D-02 0.133D-02 0.195D-01 0.763D-02-0.230D-01-0.194D-01
 Coeff:     -0.308D-03 0.675D-01 0.796D-01-0.138D+00-0.281D+00-0.461D-01
 Coeff:      0.575D+00 0.761D+00
 Gap=     0.344 Goal=   None    Shift=    0.000
 Gap=     0.128 Goal=   None    Shift=    0.000
 RMSDP=2.85D-07 MaxDP=3.68D-05 DE=-8.69D-09 OVMax= 2.13D-04

 Cycle  38  Pass 1  IDiag  1:
 RMSU=  3.32D-08    CP:  1.00D+00  3.00D+00  2.39D+00  3.00D+00  3.00D+00
                    CP:  3.00D+00  3.00D+00  3.00D+00  3.00D+00  2.55D+00
                    CP:  2.31D+00  1.91D+00  1.60D+00  1.86D+00  2.06D+00
                    CP:  1.28D+00  1.43D+00
 E= -3920.79334996857     Delta-E=       -0.000000000617 Rises=F Damp=F
 DIIS: error= 8.03D-07 at cycle  38 NSaved=  20.
 NSaved=20 IEnMin=20 EnMin= -3920.79334996857     IErMin=18 ErrMin= 5.59D-07
 ErrMax= 8.03D-07  0.00D+00 EMaxC= 1.00D-01 BMatC= 2.88D-09 BMatP= 9.56D-10
 IDIUse=1 WtCom= 1.00D+00 WtEn= 0.00D+00
 Coeff-Com: -0.145D-02 0.175D-02 0.185D-02 0.123D-02-0.104D-01 0.380D-03
 Coeff-Com: -0.362D-02 0.189D-01 0.202D-01-0.197D-01-0.271D-01-0.159D-01
 Coeff-Com:  0.657D-01 0.791D-01-0.402D-01-0.145D+00-0.146D+00 0.139D+00
 Coeff-Com:  0.145D+00 0.936D+00
 Coeff:     -0.145D-02 0.175D-02 0.185D-02 0.123D-02-0.104D-01 0.380D-03
 Coeff:     -0.362D-02 0.189D-01 0.202D-01-0.197D-01-0.271D-01-0.159D-01
 Coeff:      0.657D-01 0.791D-01-0.402D-01-0.145D+00-0.146D+00 0.139D+00
 Coeff:      0.145D+00 0.936D+00
 Gap=     0.344 Goal=   None    Shift=    0.000
 Gap=     0.128 Goal=   None    Shift=    0.000
 RMSDP=1.38D-07 MaxDP=1.47D-05 DE=-6.17D-10 OVMax= 7.79D-05

 Cycle  39  Pass 1  IDiag  1:
 RMSU=  1.91D-08    CP:  1.00D+00  3.00D+00  2.39D+00  3.00D+00  3.00D+00
                    CP:  3.00D+00  3.00D+00  3.00D+00  3.00D+00  2.56D+00
                    CP:  2.29D+00  1.92D+00  1.59D+00  1.95D+00  2.23D+00
                    CP:  1.56D+00  1.52D+00  1.44D+00
 E= -3920.79334997000     Delta-E=       -0.000000001433 Rises=F Damp=F
 DIIS: error= 1.79D-07 at cycle  39 NSaved=  20.
 NSaved=20 IEnMin=20 EnMin= -3920.79334997000     IErMin=20 ErrMin= 1.79D-07
 ErrMax= 1.79D-07  0.00D+00 EMaxC= 1.00D-01 BMatC= 8.55D-11 BMatP= 9.56D-10
 IDIUse=1 WtCom= 1.00D+00 WtEn= 0.00D+00
 Coeff-Com:  0.189D-03 0.107D-02-0.342D-03-0.335D-02-0.164D-02-0.303D-02
 Coeff-Com:  0.765D-02 0.875D-02-0.372D-02-0.101D-01-0.977D-02 0.191D-01
 Coeff-Com:  0.229D-01 0.113D-01-0.294D-03-0.694D-01-0.533D-01-0.244D+00
 Coeff-Com:  0.278D+00 0.105D+01
 Coeff:      0.189D-03 0.107D-02-0.342D-03-0.335D-02-0.164D-02-0.303D-02
 Coeff:      0.765D-02 0.875D-02-0.372D-02-0.101D-01-0.977D-02 0.191D-01
 Coeff:      0.229D-01 0.113D-01-0.294D-03-0.694D-01-0.533D-01-0.244D+00
 Coeff:      0.278D+00 0.105D+01
 Gap=     0.344 Goal=   None    Shift=    0.000
 Gap=     0.128 Goal=   None    Shift=    0.000
 RMSDP=1.14D-07 MaxDP=2.04D-05 DE=-1.43D-09 OVMax= 6.63D-05

 Cycle  40  Pass 1  IDiag  1:
 RMSU=  8.18D-09    CP:  1.00D+00  3.00D+00  2.39D+00  3.00D+00  3.00D+00
                    CP:  3.00D+00  3.00D+00  3.00D+00  3.00D+00  2.55D+00
                    CP:  2.32D+00  1.92D+00  1.63D+00  1.95D+00  2.34D+00
                    CP:  1.68D+00  1.70D+00  1.82D+00  1.68D+00
 E= -3920.79334997035     Delta-E=       -0.000000000347 Rises=F Damp=F
 DIIS: error= 8.90D-08 at cycle  40 NSaved=  20.
 NSaved=20 IEnMin=20 EnMin= -3920.79334997035     IErMin=20 ErrMin= 8.90D-08
 ErrMax= 8.90D-08  0.00D+00 EMaxC= 1.00D-01 BMatC= 4.16D-11 BMatP= 8.55D-11
 IDIUse=1 WtCom= 1.00D+00 WtEn= 0.00D+00
 Coeff-Com: -0.176D-04-0.780D-03 0.202D-02 0.923D-03-0.157D-02-0.148D-02
 Coeff-Com: -0.477D-02 0.514D-02 0.378D-02 0.453D-02-0.152D-01-0.246D-01
 Coeff-Com:  0.783D-03 0.552D-01 0.676D-01-0.397D-01-0.175D+00-0.296D+00
 Coeff-Com:  0.422D+00 0.997D+00
 Coeff:     -0.176D-04-0.780D-03 0.202D-02 0.923D-03-0.157D-02-0.148D-02
 Coeff:     -0.477D-02 0.514D-02 0.378D-02 0.453D-02-0.152D-01-0.246D-01
 Coeff:      0.783D-03 0.552D-01 0.676D-01-0.397D-01-0.175D+00-0.296D+00
 Coeff:      0.422D+00 0.997D+00
 Gap=     0.344 Goal=   None    Shift=    0.000
 Gap=     0.128 Goal=   None    Shift=    0.000
 RMSDP=4.28D-08 MaxDP=1.11D-05 DE=-3.47D-10 OVMax= 2.02D-05

 Cycle  41  Pass 1  IDiag  1:
 Restarting incremental Fock formation.
 E= -3920.79334997120     Delta-E=       -0.000000000848 Rises=F Damp=F
 DIIS: error= 4.38D-08 at cycle  41 NSaved=  20.
 NSaved=20 IEnMin=20 EnMin= -3920.79334997120     IErMin=20 ErrMin= 4.38D-08
 ErrMax= 4.38D-08  0.00D+00 EMaxC= 1.00D-01 BMatC= 1.43D-11 BMatP= 4.16D-11
 IDIUse=1 WtCom= 1.00D+00 WtEn= 0.00D+00
 Coeff-Com: -0.179D-03 0.470D-03 0.119D-02-0.734D-03-0.179D-02-0.233D-02
 Coeff-Com:  0.193D-02 0.231D-02 0.362D-02-0.629D-02-0.130D-01-0.983D-02
 Coeff-Com:  0.122D-01 0.470D-01-0.697D-02-0.667D-02-0.135D+00-0.735D-01
 Coeff-Com:  0.319D+00 0.869D+00
 Coeff:     -0.179D-03 0.470D-03 0.119D-02-0.734D-03-0.179D-02-0.233D-02
 Coeff:      0.193D-02 0.231D-02 0.362D-02-0.629D-02-0.130D-01-0.983D-02
 Coeff:      0.122D-01 0.470D-01-0.697D-02-0.667D-02-0.135D+00-0.735D-01
 Coeff:      0.319D+00 0.869D+00
 Gap=     0.344 Goal=   None    Shift=    0.000
 Gap=     0.128 Goal=   None    Shift=    0.000
 RMSDP=5.02D-08 MaxDP=8.55D-06 DE=-8.48D-10 OVMax= 3.05D-05

 Cycle  42  Pass 1  IDiag  1:
 RMSU=  5.02D-08    CP:  1.00D+00
 E= -3920.79334997092     Delta-E=        0.000000000273 Rises=F Damp=F
 DIIS: error= 3.57D-08 at cycle  42 NSaved=  20.
 NSaved=20 IEnMin=19 EnMin= -3920.79334997120     IErMin=20 ErrMin= 3.57D-08
 ErrMax= 3.57D-08  0.00D+00 EMaxC= 1.00D-01 BMatC= 5.95D-12 BMatP= 1.43D-11
 IDIUse=1 WtCom= 1.00D+00 WtEn= 0.00D+00
 Coeff-Com: -0.676D-03-0.258D-03 0.139D-02 0.229D-03 0.605D-03-0.175D-02
 Coeff-Com: -0.719D-03-0.680D-04 0.410D-02 0.548D-02-0.152D-02-0.130D-01
 Coeff-Com: -0.112D-01-0.404D-03 0.584D-01 0.782D-01-0.172D+00-0.247D+00
 Coeff-Com:  0.169D+00 0.113D+01
 Coeff:     -0.676D-03-0.258D-03 0.139D-02 0.229D-03 0.605D-03-0.175D-02
 Coeff:     -0.719D-03-0.680D-04 0.410D-02 0.548D-02-0.152D-02-0.130D-01
 Coeff:     -0.112D-01-0.404D-03 0.584D-01 0.782D-01-0.172D+00-0.247D+00
 Coeff:      0.169D+00 0.113D+01
 Gap=     0.344 Goal=   None    Shift=    0.000
 Gap=     0.128 Goal=   None    Shift=    0.000
 RMSDP=3.10D-08 MaxDP=4.37D-06 DE= 2.73D-10 OVMax= 2.06D-05

 Cycle  43  Pass 1  IDiag  1:
 RMSU=  1.55D-08    CP:  1.00D+00  1.53D+00
 E= -3920.79334997137     Delta-E=       -0.000000000446 Rises=F Damp=F
 DIIS: error= 2.03D-08 at cycle  43 NSaved=  20.
 NSaved=20 IEnMin=20 EnMin= -3920.79334997137     IErMin=20 ErrMin= 2.03D-08
 ErrMax= 2.03D-08  0.00D+00 EMaxC= 1.00D-01 BMatC= 1.01D-12 BMatP= 5.95D-12
 IDIUse=1 WtCom= 1.00D+00 WtEn= 0.00D+00
 Coeff-Com: -0.131D-03 0.219D-03 0.257D-03-0.457D-03-0.336D-03-0.103D-03
 Coeff-Com:  0.142D-02 0.555D-03-0.796D-03-0.274D-02 0.237D-02 0.304D-02
 Coeff-Com: -0.459D-03 0.567D-02-0.360D-02-0.324D-01-0.664D-01-0.291D-01
 Coeff-Com:  0.241D+00 0.882D+00
 Coeff:     -0.131D-03 0.219D-03 0.257D-03-0.457D-03-0.336D-03-0.103D-03
 Coeff:      0.142D-02 0.555D-03-0.796D-03-0.274D-02 0.237D-02 0.304D-02
 Coeff:     -0.459D-03 0.567D-02-0.360D-02-0.324D-01-0.664D-01-0.291D-01
 Coeff:      0.241D+00 0.882D+00
 Gap=     0.344 Goal=   None    Shift=    0.000
 Gap=     0.128 Goal=   None    Shift=    0.000
 RMSDP=1.28D-08 MaxDP=3.11D-06 DE=-4.46D-10 OVMax= 5.26D-06

 Cycle  44  Pass 1  IDiag  1:
 RMSU=  3.39D-09    CP:  1.00D+00  1.32D+00  1.42D+00
 E= -3920.79334997135     Delta-E=        0.000000000018 Rises=F Damp=F
 DIIS: error= 6.65D-09 at cycle  44 NSaved=  20.
 NSaved=20 IEnMin=19 EnMin= -3920.79334997137     IErMin=20 ErrMin= 6.65D-09
 ErrMax= 6.65D-09  0.00D+00 EMaxC= 1.00D-01 BMatC= 2.74D-13 BMatP= 1.01D-12
 IDIUse=1 WtCom= 1.00D+00 WtEn= 0.00D+00
 Coeff-Com: -0.557D-03 0.672D-03-0.134D-03 0.724D-04-0.500D-03 0.689D-03
 Coeff-Com: -0.293D-03-0.202D-02-0.222D-02 0.601D-02 0.322D-02 0.706D-03
 Coeff-Com: -0.196D-01-0.215D-01 0.692D-01 0.588D-01-0.104D+00-0.450D+00
 Coeff-Com:  0.383D+00 0.108D+01
 Coeff:     -0.557D-03 0.672D-03-0.134D-03 0.724D-04-0.500D-03 0.689D-03
 Coeff:     -0.293D-03-0.202D-02-0.222D-02 0.601D-02 0.322D-02 0.706D-03
 Coeff:     -0.196D-01-0.215D-01 0.692D-01 0.588D-01-0.104D+00-0.450D+00
 Coeff:      0.383D+00 0.108D+01
 Gap=     0.344 Goal=   None    Shift=    0.000
 Gap=     0.128 Goal=   None    Shift=    0.000
 RMSDP=1.01D-08 MaxDP=1.65D-06 DE= 1.82D-11 OVMax= 5.20D-06

 Cycle  45  Pass 1  IDiag  1:
 RMSU=  2.43D-09    CP:  1.00D+00  1.51D+00  1.63D+00  6.87D-01
 E= -3920.79334997125     Delta-E=        0.000000000096 Rises=F Damp=F
 DIIS: error= 2.73D-09 at cycle  45 NSaved=  20.
 NSaved=20 IEnMin=18 EnMin= -3920.79334997137     IErMin=20 ErrMin= 2.73D-09
 ErrMax= 2.73D-09  0.00D+00 EMaxC= 1.00D-01 BMatC= 3.84D-14 BMatP= 2.74D-13
 IDIUse=1 WtCom= 1.00D+00 WtEn= 0.00D+00
 Coeff-Com: -0.270D-05-0.194D-03 0.543D-04 0.924D-04 0.273D-03-0.390D-03
 Coeff-Com: -0.762D-03-0.677D-03 0.105D-02 0.111D-02 0.645D-03-0.717D-03
 Coeff-Com: -0.580D-02 0.701D-02 0.174D-01 0.937D-02-0.852D-01-0.780D-01
 Coeff-Com:  0.153D+00 0.982D+00
 Coeff:     -0.270D-05-0.194D-03 0.543D-04 0.924D-04 0.273D-03-0.390D-03
 Coeff:     -0.762D-03-0.677D-03 0.105D-02 0.111D-02 0.645D-03-0.717D-03
 Coeff:     -0.580D-02 0.701D-02 0.174D-01 0.937D-02-0.852D-01-0.780D-01
 Coeff:      0.153D+00 0.982D+00
 Gap=     0.344 Goal=   None    Shift=    0.000
 Gap=     0.128 Goal=   None    Shift=    0.000
 RMSDP=2.09D-09 MaxDP=4.10D-07 DE= 9.64D-11 OVMax= 1.20D-06

 Error on total polarization charges =  0.00110
 SCF Done:  E(UCAM-B3LYP) =  -3920.79334997     A.U. after   45 cycles
            NFock= 45  Conv=0.21D-08     -V/T= 2.0073
 <Sx>= 0.0000 <Sy>= 0.0000 <Sz>= 0.5000 <S**2>= 0.7835 S= 0.5166
 <L.S>= 0.000000000000E+00
 KE= 3.892418469397D+03 PE=-2.767077192703D+04 EE= 1.063497034803D+04
 Annihilation of the first spin contaminant:
 S**2 before annihilation     0.7835,   after     0.7505
 Leave Link  502 at Sun Mar  3 17:45:15 2024, MaxMem=  5368709120 cpu:      8420.2
 (Enter /home/k0335/k033513/app/g09/l601.exe)
 Copying SCF densities to generalized density rwf, IOpCl= 1 IROHF=0.

 **********************************************************************

            Population analysis using the SCF density.

 **********************************************************************

 Alpha  occ. eigenvalues --  -24.89256 -24.88502 -24.87956 -24.87547 -24.87448
 Alpha  occ. eigenvalues --  -24.87305 -24.87203 -24.87049 -24.86846 -24.86820
 Alpha  occ. eigenvalues --  -24.86803 -24.86657 -24.86573 -24.86412 -24.86408
 Alpha  occ. eigenvalues --  -24.86170 -24.86036 -24.85959 -24.85886 -24.85774
 Alpha  occ. eigenvalues --  -24.85733 -24.85684 -24.85589 -24.85563 -24.85418
 Alpha  occ. eigenvalues --  -24.85400 -24.85315 -19.42483 -19.37096 -19.36191
 Alpha  occ. eigenvalues --  -19.36084 -19.35958 -19.32338 -14.66468 -14.62435
 Alpha  occ. eigenvalues --  -14.61235 -10.62045 -10.62004 -10.61813 -10.59424
 Alpha  occ. eigenvalues --  -10.59301 -10.58875 -10.58583 -10.58449 -10.58376
 Alpha  occ. eigenvalues --  -10.56241 -10.54486 -10.54174 -10.53254 -10.52855
 Alpha  occ. eigenvalues --  -10.52278 -10.43147  -1.46366  -1.45995  -1.45915
 Alpha  occ. eigenvalues --   -1.44895  -1.44878  -1.44872  -1.44310  -1.43599
 Alpha  occ. eigenvalues --   -1.42916  -1.39441  -1.39006  -1.38414  -1.37388
 Alpha  occ. eigenvalues --   -1.36588  -1.36581  -1.36516  -1.36334  -1.36053
 Alpha  occ. eigenvalues --   -1.36029  -1.35887  -1.35788  -1.35765  -1.35579
 Alpha  occ. eigenvalues --   -1.35363  -1.35299  -1.35118  -1.35040  -1.34905
 Alpha  occ. eigenvalues --   -1.31088  -1.27533  -1.23649  -1.23428  -1.23402
 Alpha  occ. eigenvalues --   -1.21915  -1.18016  -1.17335  -1.00335  -0.98386
 Alpha  occ. eigenvalues --   -0.97407  -0.94933  -0.93047  -0.91856  -0.88193
 Alpha  occ. eigenvalues --   -0.86770  -0.85782  -0.85374  -0.85038  -0.84371
 Alpha  occ. eigenvalues --   -0.83001  -0.80534  -0.79814  -0.78997  -0.77791
 Alpha  occ. eigenvalues --   -0.76872  -0.76272  -0.75920  -0.75871  -0.75134
 Alpha  occ. eigenvalues --   -0.74898  -0.74243  -0.74093  -0.73545  -0.73092
 Alpha  occ. eigenvalues --   -0.72693  -0.72328  -0.72248  -0.72015  -0.71943
 Alpha  occ. eigenvalues --   -0.71772  -0.71607  -0.71517  -0.71070  -0.70879
 Alpha  occ. eigenvalues --   -0.70196  -0.69976  -0.69742  -0.69574  -0.69124
 Alpha  occ. eigenvalues --   -0.68915  -0.68130  -0.67687  -0.66342  -0.65931
 Alpha  occ. eigenvalues --   -0.65032  -0.63740  -0.62891  -0.62443  -0.62280
 Alpha  occ. eigenvalues --   -0.61923  -0.61290  -0.60836  -0.60803  -0.60532
 Alpha  occ. eigenvalues --   -0.60317  -0.60150  -0.60021  -0.59782  -0.59722
 Alpha  occ. eigenvalues --   -0.59641  -0.59172  -0.59019  -0.58839  -0.58682
 Alpha  occ. eigenvalues --   -0.58609  -0.58437  -0.58254  -0.58132  -0.57976
 Alpha  occ. eigenvalues --   -0.57734  -0.57560  -0.57306  -0.57156  -0.56904
 Alpha  occ. eigenvalues --   -0.56256  -0.56172  -0.56068  -0.55826  -0.55513
 Alpha  occ. eigenvalues --   -0.55383  -0.55179  -0.55024  -0.54891  -0.54759
 Alpha  occ. eigenvalues --   -0.54690  -0.54501  -0.54421  -0.54149  -0.53941
 Alpha  occ. eigenvalues --   -0.53837  -0.53675  -0.53600  -0.53471  -0.53335
 Alpha  occ. eigenvalues --   -0.53097  -0.52779  -0.52688  -0.52501  -0.52373
 Alpha  occ. eigenvalues --   -0.52082  -0.51916  -0.51843  -0.51733  -0.51278
 Alpha  occ. eigenvalues --   -0.50967  -0.50573  -0.49715  -0.48920  -0.48451
 Alpha  occ. eigenvalues --   -0.47893  -0.47374  -0.46914  -0.45686  -0.45169
 Alpha virt. eigenvalues --   -0.10804  -0.08218  -0.00584   0.00410   0.01054
 Alpha virt. eigenvalues --    0.01941   0.03114   0.03750   0.04390   0.07433
 Alpha virt. eigenvalues --    0.08881   0.09192   0.10054   0.11708   0.12163
 Alpha virt. eigenvalues --    0.13105   0.13718   0.14169   0.15209   0.16024
 Alpha virt. eigenvalues --    0.16546   0.16847   0.17030   0.17261   0.17849
 Alpha virt. eigenvalues --    0.18523   0.18900   0.19224   0.19441   0.20048
 Alpha virt. eigenvalues --    0.20378   0.20425   0.20502   0.20780   0.21008
 Alpha virt. eigenvalues --    0.21373   0.21608   0.21761   0.22267   0.23062
 Alpha virt. eigenvalues --    0.23223   0.23710   0.24062   0.24440   0.24780
 Alpha virt. eigenvalues --    0.25407   0.27611   0.27776   0.28493   0.29164
 Alpha virt. eigenvalues --    0.29520   0.29924   0.30684   0.30956   0.31112
 Alpha virt. eigenvalues --    0.33426   0.38328   0.40240   0.42535   0.43556
 Alpha virt. eigenvalues --    0.44365   0.45276   0.46156   0.46268   0.46643
 Alpha virt. eigenvalues --    0.47248   0.48197   0.48398   0.48666   0.48901
 Alpha virt. eigenvalues --    0.49522   0.49700   0.50289   0.50611   0.50961
 Alpha virt. eigenvalues --    0.51268   0.51840   0.52282   0.52338   0.52997
 Alpha virt. eigenvalues --    0.53312   0.53689   0.54090   0.54478   0.54834
 Alpha virt. eigenvalues --    0.55169   0.55694   0.56467   0.57104   0.57527
 Alpha virt. eigenvalues --    0.59312   0.59423   0.60201   0.61055   0.62453
 Alpha virt. eigenvalues --    0.63539   0.64056   0.65101   0.66829   0.68022
 Alpha virt. eigenvalues --    0.69324   0.70709   0.71060   0.71957   0.72441
 Alpha virt. eigenvalues --    0.72742   0.74487   0.76002   0.76719   0.77713
[...]
     1   Atom        0.591469      1.350620      0.598979
     2   Atom       -0.012024     -0.007362     -0.005926
     3   Atom        0.078766     -0.142708     -0.460889
     4   Atom        0.000871      0.000413      0.014494
     5   Atom       -0.004301      0.032143     -0.009502
     6   Atom        0.001308      0.006588     -0.006030
     7   Atom        0.001341      0.073760      0.001927
     8   Atom       -0.000956      0.002571     -0.000028
     9   Atom       -0.003590      0.011887     -0.001817
    10   Atom       -0.000189      0.000809      0.000236
    11   Atom        0.000437      0.000501      0.000063
    12   Atom        0.000544      0.000371      0.000121
    13   Atom        0.000158     -0.000076      0.000009
    14   Atom        0.000275      0.000485      0.000037
    15   Atom       -0.000899      0.000582      0.000218
    16   Atom       -0.001392      0.000966     -0.000337
    17   Atom       -0.000671      0.001204     -0.000094
    18   Atom       -0.000906     -0.000424      0.000840
    19   Atom        0.010018      0.004410      0.006443
    20   Atom       -0.242368     -0.561645      0.510722
    21   Atom        0.014612     -0.029357      0.008623
    22   Atom       -0.000796     -0.000413      0.000645
    23   Atom       -0.032189     -0.024576      0.013317
    24   Atom        0.013782      0.006158      0.004081
    25   Atom       -0.001061      0.000372      0.000193
    26   Atom       -0.000662      0.000910     -0.001077
    27   Atom       -0.000538     -0.000090      0.000143
    28   Atom       -0.000661     -0.000006      0.000032
    29   Atom       -0.001648     -0.000365      0.000450
    30   Atom       -0.000444     -0.000029      0.000052
    31   Atom       -0.000535      0.000053     -0.000120
    32   Atom       -0.001625      0.001080     -0.001214
    33   Atom       -0.002734      0.003803     -0.004456
    34   Atom       -0.001368      0.000297     -0.001099
    35   Atom       -0.000892      0.000505     -0.000575
    36   Atom       -0.003477     -0.000305      0.002476
    37   Atom        0.010899      0.011652      0.167239
    38   Atom       -0.045568      0.046645     -0.000538
    39   Atom       -0.002132      0.001310      0.000607
    40   Atom       -0.018421     -0.004060      0.002445
    41   Atom        0.029182      0.068384      0.012426
    42   Atom        0.000403     -0.000529      0.000446
    43   Atom        0.000849     -0.001600     -0.001536
    44   Atom        0.000420     -0.000273      0.000124
    45   Atom        0.000583     -0.000234     -0.000095
    46   Atom        0.000391     -0.000393     -0.000131
    47   Atom        0.000348     -0.000030     -0.000011
    48   Atom        0.000727     -0.000297     -0.000224
    49   Atom        0.001948     -0.002735     -0.001265
    50   Atom        0.000890     -0.005044     -0.000918
    51   Atom        0.000886     -0.001125     -0.000428
    52   Atom        0.004498     -0.002575     -0.004048
    53   Atom        0.001479     -0.002048      0.000660
    54   Atom        0.000196     -0.005101      0.002559
 --------------------------------------------------------


 ---------------------------------------------------------------------------------
              Anisotropic Spin Dipole Couplings in Principal Axis System
 ---------------------------------------------------------------------------------

       Atom             a.u.   MegaHertz   Gauss  10(-4) cm-1        Axes

              Baa    -1.0025    72.540    25.884    24.197  0.6780 -0.6316 -0.3760
     1 O(17)  Bbb    -0.9741    70.483    25.150    23.510  0.3239  0.7159 -0.6185
              Bcc     1.9766  -143.023   -51.034   -47.707  0.6599  0.2975  0.6900
 
              Baa    -0.1293   -17.347    -6.190    -5.786  0.0475  0.0288  0.9985
     2 C(13)  Bbb     0.0309     4.153     1.482     1.385  0.9829  0.1769 -0.0519
              Bcc     0.0983    13.194     4.708     4.401 -0.1781  0.9838 -0.0199
 
              Baa    -0.3841   -14.815    -5.286    -4.942  0.9893 -0.0833  0.1200
     3 N(14)  Bbb    -0.3658   -14.108    -5.034    -4.706  0.0151  0.8751  0.4836
              Bcc     0.7499    28.923    10.320     9.648 -0.1453 -0.4766  0.8670
 
              Baa    -0.0177    -2.380    -0.849    -0.794 -0.1184  0.9399 -0.3203
     4 C(13)  Bbb    -0.0119    -1.594    -0.569    -0.532  0.9928  0.1068 -0.0536
              Bcc     0.0296     3.974     1.418     1.326  0.0162  0.3244  0.9458
 
              Baa    -0.0262    -3.520    -1.256    -1.174  0.7875 -0.3235 -0.5246
     5 C(13)  Bbb    -0.0224    -3.009    -1.074    -1.004  0.3519  0.9348 -0.0483
              Bcc     0.0487     6.529     2.330     2.178  0.5060 -0.1466  0.8500
 
              Baa    -0.0199   -10.019    -3.575    -3.342  0.8738 -0.4593 -0.1598
     6 F(19)  Bbb    -0.0150    -7.521    -2.684    -2.509  0.4713  0.8808  0.0456
              Bcc     0.0349    17.540     6.259     5.851  0.1198 -0.1151  0.9861
 
              Baa    -0.0590   -29.628   -10.572    -9.883  0.8722 -0.0930 -0.4802
     7 F(19)  Bbb    -0.0564   -28.313   -10.103    -9.444  0.0748  0.9956 -0.0568
              Bcc     0.1154    57.941    20.675    19.327  0.4834  0.0136  0.8753
 
              Baa    -0.0061    -0.820    -0.293    -0.273 -0.1547 -0.2649  0.9518
     8 C(13)  Bbb    -0.0057    -0.761    -0.272    -0.254  0.0133  0.9627  0.2701
              Bcc     0.0118     1.581     0.564     0.527  0.9879 -0.0544  0.1454
 
              Baa    -0.0107    -5.366    -1.915    -1.790 -0.4321  0.0459  0.9007
     9 F(19)  Bbb    -0.0094    -4.712    -1.681    -1.572  0.1442  0.9894  0.0187
              Bcc     0.0201    10.078     3.596     3.361  0.8902 -0.1379  0.4341
 
              Baa    -0.0023     0.163     0.058     0.054 -0.1377 -0.3803  0.9146
    10 O(17)  Bbb    -0.0015     0.109     0.039     0.036 -0.0258  0.9244  0.3805
              Bcc     0.0038    -0.272    -0.097    -0.091  0.9901 -0.0288  0.1371
 
              Baa    -0.0009    -0.118    -0.042    -0.040 -0.2448  0.1802  0.9527
    11 C(13)  Bbb    -0.0007    -0.095    -0.034    -0.032 -0.1485  0.9640 -0.2205
              Bcc     0.0016     0.213     0.076     0.071  0.9581  0.1954  0.2093
 
              Baa    -0.0006    -0.319    -0.114    -0.106 -0.2847  0.1132  0.9519
    12 F(19)  Bbb    -0.0005    -0.252    -0.090    -0.084 -0.3220  0.9240 -0.2062
              Bcc     0.0011     0.571     0.204     0.190  0.9029  0.3652  0.2266
 
              Baa    -0.0008    -0.412    -0.147    -0.137  0.0412 -0.1340  0.9901
    13 F(19)  Bbb    -0.0007    -0.360    -0.128    -0.120 -0.0649  0.9885  0.1365
              Bcc     0.0015     0.771     0.275     0.257  0.9970  0.0699 -0.0321
 
              Baa    -0.0007    -0.347    -0.124    -0.116 -0.2812  0.6812  0.6760
    14 F(19)  Bbb    -0.0006    -0.311    -0.111    -0.104  0.0784  0.7183 -0.6913
              Bcc     0.0013     0.658     0.235     0.219  0.9564  0.1414  0.2554
 
              Baa    -0.0016    -0.215    -0.077    -0.072 -0.2593 -0.5796  0.7726
    15 C(13)  Bbb    -0.0009    -0.116    -0.041    -0.039  0.1122  0.7764  0.6201
              Bcc     0.0025     0.330     0.118     0.110  0.9593 -0.2474  0.1363
 
              Baa    -0.0014    -0.714    -0.255    -0.238 -0.4589 -0.6005  0.6548
    16 F(19)  Bbb    -0.0013    -0.631    -0.225    -0.210  0.0952  0.6995  0.7082
              Bcc     0.0027     1.345     0.480     0.449  0.8834 -0.3873  0.2638
 
              Baa    -0.0026    -1.301    -0.464    -0.434  0.1065  0.9893 -0.0996
    17 F(19)  Bbb    -0.0024    -1.225    -0.437    -0.408 -0.1532  0.1153  0.9814
              Bcc     0.0050     2.526     0.901     0.843  0.9824 -0.0892  0.1638
 
              Baa    -0.0013    -0.673    -0.240    -0.224  0.2082  0.7785 -0.5921
    18 F(19)  Bbb    -0.0003    -0.138    -0.049    -0.046  0.5840  0.3867  0.7137
              Bcc     0.0016     0.811     0.290     0.271  0.7846 -0.4944 -0.3741
 
              Baa    -0.1089   -14.617    -5.216    -4.876 -0.0278 -0.0341  0.9990
    19 C(13)  Bbb     0.0345     4.628     1.652     1.544  0.9642 -0.2647  0.0178
              Bcc     0.0744     9.989     3.564     3.332  0.2638  0.9637  0.0403
 
              Baa    -0.5630    40.741    14.537    13.590  0.8607 -0.1521  0.4859
    20 O(17)  Bbb    -0.5308    38.405    13.704    12.810  0.3091  0.9144 -0.2614
              Bcc     1.0938   -79.146   -28.241   -26.400 -0.4046  0.3752  0.8340
 
              Baa    -0.0549    -2.118    -0.756    -0.706  0.3284 -0.2101  0.9209
    21 N(14)  Bbb     0.0055     0.212     0.076     0.071 -0.1788  0.9435  0.2791
              Bcc     0.0494     1.906     0.680     0.636  0.9275  0.2563 -0.2722
 
              Baa    -0.0027    -0.364    -0.130    -0.121  0.0125 -0.3800  0.9249
    22 C(13)  Bbb    -0.0011    -0.143    -0.051    -0.048  0.1876  0.9094  0.3711
              Bcc     0.0038     0.507     0.181     0.169  0.9822 -0.1689 -0.0826
 
              Baa    -0.0292   -14.669    -5.234    -4.893  0.2780  0.8539 -0.4399
    23 F(19)  Bbb    -0.0290   -14.555    -5.193    -4.855  0.4870  0.2695  0.8308
              Bcc     0.0582    29.224    10.428     9.748  0.8280 -0.4452 -0.3409
 
              Baa    -0.0106    -5.338    -1.905    -1.781 -0.6244  0.6306  0.4610
    24 F(19)  Bbb    -0.0096    -4.805    -1.714    -1.603  0.1073 -0.5154  0.8502
              Bcc     0.0202    10.143     3.619     3.383  0.7737  0.5804  0.2541
 
              Baa    -0.0018    -0.236    -0.084    -0.079 -0.1775 -0.1829  0.9670
    25 C(13)  Bbb    -0.0003    -0.036    -0.013    -0.012  0.4883  0.8367  0.2479
              Bcc     0.0020     0.272     0.097     0.091  0.8544 -0.5162  0.0593
 
              Baa    -0.0012    -0.609    -0.217    -0.203 -0.3674  0.4463  0.8160
    26 F(19)  Bbb    -0.0006    -0.283    -0.101    -0.094  0.7649  0.6441 -0.0078
              Bcc     0.0018     0.892     0.318     0.297 -0.5291  0.6213 -0.5780
 
              Baa    -0.0007     0.050     0.018     0.017  0.0086 -0.1473  0.9891
    27 O(17)  Bbb    -0.0002     0.015     0.005     0.005  0.6573  0.7462  0.1055
              Bcc     0.0009    -0.065    -0.023    -0.022  0.7536 -0.6492 -0.1032
 
              Baa    -0.0005    -0.070    -0.025    -0.023 -0.0993 -0.1049  0.9895
    28 C(13)  Bbb    -0.0004    -0.056    -0.020    -0.019  0.7730  0.6180  0.1431
              Bcc     0.0009     0.126     0.045     0.042 -0.6266  0.7791  0.0198
 
              Baa    -0.0012    -0.617    -0.220    -0.206  0.1302 -0.1059  0.9858
    29 F(19)  Bbb    -0.0011    -0.564    -0.201    -0.188  0.7760  0.6298 -0.0349
              Bcc     0.0024     1.180     0.421     0.394 -0.6172  0.7695  0.1642
 
              Baa    -0.0004    -0.184    -0.066    -0.061 -0.0627 -0.1364  0.9887
    30 F(19)  Bbb    -0.0003    -0.132    -0.047    -0.044  0.7321  0.6670  0.1385
              Bcc     0.0006     0.316     0.113     0.105 -0.6783  0.7325  0.0580
 
              Baa    -0.0004    -0.219    -0.078    -0.073  0.7071  0.4573  0.5394
    31 F(19)  Bbb    -0.0004    -0.206    -0.073    -0.069 -0.5164 -0.1872  0.8356
              Bcc     0.0008     0.424     0.151     0.142 -0.4831  0.8694 -0.1038
 
              Baa    -0.0016    -0.209    -0.075    -0.070  0.7267  0.1499 -0.6704
    32 C(13)  Bbb    -0.0012    -0.167    -0.060    -0.056  0.4239  0.6700  0.6094
              Bcc     0.0028     0.376     0.134     0.125 -0.5405  0.7270 -0.4234
 
              Baa    -0.0041    -2.067    -0.737    -0.689  0.7333 -0.2173 -0.6442
    33 F(19)  Bbb    -0.0036    -1.800    -0.642    -0.600  0.5096  0.8029  0.3093
              Bcc     0.0077     3.867     1.380     1.290  0.4500 -0.5551  0.6996
 
              Baa    -0.0017    -0.856    -0.305    -0.286  0.7292  0.3793  0.5696
    34 F(19)  Bbb    -0.0016    -0.799    -0.285    -0.267 -0.6171  0.0049  0.7868
              Bcc     0.0033     1.655     0.591     0.552 -0.2956  0.9253 -0.2376
 
              Baa    -0.0011    -0.552    -0.197    -0.184  0.8256  0.1982 -0.5284
    35 F(19)  Bbb    -0.0006    -0.310    -0.111    -0.103  0.3922  0.4717  0.7897
              Bcc     0.0017     0.862     0.308     0.288 -0.4057  0.8592 -0.3117
 
              Baa    -0.0088    -1.175    -0.419    -0.392 -0.0481 -0.3292  0.9430
    36 C(13)  Bbb    -0.0014    -0.193    -0.069    -0.064  0.3057  0.8939  0.3277
              Bcc     0.0102     1.367     0.488     0.456  0.9509 -0.3041 -0.0576
 
              Baa    -0.1309     9.473     3.380     3.160 -0.0936 -0.5668  0.8185
    37 O(17)  Bbb    -0.0955     6.909     2.465     2.304  0.9944 -0.0933  0.0492
              Bcc     0.2264   -16.381    -5.845    -5.464  0.0485  0.8186  0.5724
 
              Baa    -0.0863    -3.330    -1.188    -1.111 -0.3454 -0.1591  0.9249
    38 N(14)  Bbb    -0.0103    -0.398    -0.142    -0.133  0.3778  0.8785  0.2923
              Bcc     0.0967     3.728     1.330     1.243  0.8590 -0.4504  0.2433
 
              Baa    -0.0043    -0.582    -0.208    -0.194 -0.2075 -0.4884  0.8476
    39 C(13)  Bbb    -0.0023    -0.314    -0.112    -0.105  0.1337  0.8442  0.5191
              Bcc     0.0067     0.895     0.319     0.299  0.9691 -0.2210  0.1098
 
              Baa    -0.0136    -6.844    -2.442    -2.283  0.6399  0.5228  0.5632
    40 F(19)  Bbb    -0.0110    -5.541    -1.977    -1.848 -0.3341 -0.4707  0.8166
              Bcc     0.0247    12.384     4.419     4.131 -0.6921  0.7107  0.1265
 
              Baa    -0.0702   -35.270   -12.585   -11.765  0.1046  0.7877 -0.6071
    41 F(19)  Bbb    -0.0682   -34.239   -12.217   -11.421 -0.3765  0.5964  0.7090
              Bcc     0.1384    69.508    24.802    23.186  0.9205  0.1544  0.3589
 
              Baa    -0.0023    -0.311    -0.111    -0.104  0.1178 -0.3398  0.9331
    42 C(13)  Bbb    -0.0008    -0.108    -0.039    -0.036 -0.0503  0.9364  0.3473
              Bcc     0.0031     0.419     0.150     0.140  0.9918  0.0878 -0.0932
 
              Baa    -0.0022    -1.117    -0.399    -0.373  0.3297  0.4365  0.8371
    43 F(19)  Bbb    -0.0005    -0.235    -0.084    -0.079 -0.6760  0.7281 -0.1134
              Bcc     0.0027     1.353     0.483     0.451  0.6590  0.5286 -0.5351
 
              Baa    -0.0011     0.079     0.028     0.026  0.1482 -0.3400  0.9287
    44 O(17)  Bbb    -0.0006     0.042     0.015     0.014 -0.1338  0.9235  0.3594
              Bcc     0.0017    -0.122    -0.043    -0.041  0.9799  0.1775 -0.0914
 
              Baa    -0.0006    -0.076    -0.027    -0.025  0.2319 -0.1090  0.9666
    45 C(13)  Bbb    -0.0005    -0.062    -0.022    -0.021 -0.4120  0.8891  0.1991
              Bcc     0.0010     0.137     0.049     0.046  0.8812  0.4445 -0.1613
 
              Baa    -0.0005    -0.230    -0.082    -0.077  0.4567 -0.3436  0.8206
    46 F(19)  Bbb    -0.0004    -0.199    -0.071    -0.066 -0.1702  0.8716  0.4597
              Bcc     0.0009     0.428     0.153     0.143  0.8732  0.3496 -0.3396
 
              Baa    -0.0003    -0.161    -0.058    -0.054  0.0676 -0.0571  0.9961
    47 F(19)  Bbb    -0.0003    -0.136    -0.048    -0.045 -0.4501  0.8892  0.0815
              Bcc     0.0006     0.297     0.106     0.099  0.8904  0.4539 -0.0344
 
              Baa    -0.0006    -0.282    -0.101    -0.094  0.3113 -0.0213  0.9501
    48 F(19)  Bbb    -0.0005    -0.255    -0.091    -0.085 -0.5720  0.7942  0.2052
              Bcc     0.0011     0.537     0.192     0.179  0.7589  0.6073 -0.2351
 
              Baa    -0.0023    -0.310    -0.111    -0.103 -0.6137  0.6428 -0.4585
    49 C(13)  Bbb    -0.0022    -0.299    -0.107    -0.100  0.1655  0.6726  0.7213
              Bcc     0.0045     0.609     0.217     0.203  0.7720  0.3668 -0.5191
 
              Baa    -0.0037    -1.838    -0.656    -0.613  0.7572 -0.1038  0.6449
    50 F(19)  Bbb    -0.0030    -1.524    -0.544    -0.508 -0.0079  0.9858  0.1679
              Bcc     0.0067     3.362     1.200     1.122 -0.6532 -0.1323  0.7456
 
              Baa    -0.0012    -0.590    -0.211    -0.197  0.7265 -0.5237  0.4449
    51 F(19)  Bbb    -0.0005    -0.271    -0.097    -0.090  0.1282  0.7394  0.6610
              Bcc     0.0017     0.861     0.307     0.287  0.6751  0.4231 -0.6043
 
              Baa    -0.0042    -2.124    -0.758    -0.709 -0.5987  0.6837  0.4172
    52 F(19)  Bbb    -0.0037    -1.842    -0.657    -0.614  0.6195  0.0651  0.7823
              Bcc     0.0079     3.966     1.415     1.323  0.5077  0.7268 -0.4625
 
              Baa    -0.0076    -4.062    -1.449    -1.355  0.1726 -0.0902  0.9809
    53 H(1)   Bbb     0.0019     1.019     0.364     0.340 -0.3651  0.9190  0.1488
              Bcc     0.0057     3.042     1.086     1.015  0.9148  0.3838 -0.1257
 
              Baa    -0.0106    -5.663    -2.021    -1.889  0.3137 -0.1707  0.9340
    54 H(1)   Bbb     0.0040     2.143     0.765     0.715  0.2950  0.9525  0.0750
              Bcc     0.0066     3.521     1.256     1.174  0.9025 -0.2521 -0.3492
 

 ---------------------------------------------------------------------------------

 No NMR shielding tensors so no spin-rotation constants.
 Leave Link  601 at Sun Mar  3 17:45:15 2024, MaxMem=  5368709120 cpu:         8.2
 (Enter /home/k0335/k033513/app/g09/l9999.exe)
 1\1\GINC-C24U18N3\SP\UCAM-B3LYP\6-31G(d,p)\C16H2F27N3O6(1+,2)\K033513\
 03-Mar-2024\0\\#p CAM-B3LYP/6-31G(d,p) SCRF=(PCM,Solvent=Generic,Read)
  NoSymm out=wfn\\Title A1400116031_p1\\1,2\O,0,0.466958,-2.430431,-0.9
 27199\C,0,0.018507,-1.287172,-0.921499\N,0,0.844237,-0.20068,-0.740885
 \C,0,2.297019,-0.429864,-0.638643\C,0,2.740065,-0.698677,0.810601\F,0,
 2.151791,0.245106,1.611191\F,0,2.2172,-1.8814,1.228821\C,0,4.257829,-0
 .666152,1.05188\F,0,4.466096,-0.857111,2.390015\O,0,4.723386,0.654788,
 0.749089\C,0,6.120953,0.779692,0.840547\F,0,6.430369,2.084655,0.941351
 \F,0,6.668566,0.295042,-0.287255\F,0,6.60976,0.127995,1.905309\C,0,4.8
 97752,-1.813327,0.25527\F,0,4.310529,-3.004622,0.487473\F,0,4.807537,-
 1.57569,-1.076128\F,0,6.211003,-1.959385,0.537883\C,0,0.370377,1.07336
 5,-0.517614\O,0,1.134797,2.033948,-0.467112\N,0,-0.985319,1.198514,-0.
 376724\C,0,-1.537643,2.515884,-0.082001\F,0,-0.669576,3.22103,0.690754
 \F,0,-2.607277,2.331309,0.757567\C,0,-2.019738,3.36496,-1.294155\F,0,-
 2.566591,2.505899,-2.226013\O,0,-3.122537,4.237554,-1.000537\C,0,-2.78
 2609,5.375859,-0.252784\F,0,-2.077108,5.036723,0.832432\F,0,-3.913137,
 5.99038,0.136863\F,0,-2.070686,6.221083,-1.012845\C,0,-0.819889,4.0178
 38,-1.978742\F,0,-0.003756,3.088722,-2.529403\F,0,-0.084485,4.779802,-
 1.147178\F,0,-1.225232,4.814758,-2.998883\C,0,-1.861875,0.200349,-0.73
 3959\O,0,-3.075414,0.382634,-0.744144\N,0,-1.314414,-1.012664,-1.07748
 3\C,0,-2.224987,-2.106243,-1.392002\F,0,-3.122798,-1.623525,-2.31398\F
 ,0,-1.574226,-3.075153,-2.103614\C,0,-3.027332,-2.776462,-0.242454\F,0
 ,-3.733028,-1.82454,0.43518\O,0,-4.003312,-3.640905,-0.849233\C,0,-4.7
 05584,-4.427236,0.075069\F,0,-5.034913,-3.725598,1.169996\F,0,-5.83061
 9,-4.877029,-0.510404\F,0,-3.94732,-5.483326,0.413979\C,0,-2.031859,-3
 .436633,0.713102\F,0,-1.162383,-2.529013,1.218325\F,0,-2.650439,-3.986
 209,1.784517\F,0,-1.323679,-4.417634,0.120962\H,0,2.814231,0.450081,-1
 .03562\H,0,2.550807,-1.28129,-1.277648\\Version=ES64L-G09RevD.01\HF=-3
 920.79335\S2=0.783543\S2-1=0.\S2A=0.75054\RMSD=2.086e-09\Dipole=1.5314
 031,-0.7526982,-1.2076541\Quadrupole=3.9383767,0.8810798,-4.8194565,-0
 .3238977,-3.5243734,1.0313897\PG=C01 [X(C16H2F27N3O6)]\\@

 Writing a WFN file to "A1400116031/A1400116031_p1.wfn"


 DON'T WORRY CHARLIE BROWN...WE LEARN MORE FROM LOSING  THAN WE DO FROM WINNING.
 THEN THAT MAKES ME THE SMARTEST PERSON IN THE WORLD...
 CHARLES SCHULZ 'PEANUTS'
 Job cpu time:       0 days  2 hours 21 minutes 33.3 seconds.
 File lengths (MBytes):  RWF=    914 Int=      0 D2E=      0 Chk=     31 Scr=      1
 Normal termination of Gaussian 09 at Sun Mar  3 17:45:16 2024.
