 Entering Gaussian System, Link 0=g09
 Initial command:
 /home/k0335/k033513/app/g09/l1.exe "/home/k0335/k033513/app/g09/scratch/Gau-662776.inp" -scrdir="/home/k0335/k033513/app/g09/scratch/"
 Default is to use a total of  36 processors:
                               36 via shared-memory
                                1 via Linda
 Entering Link 1 = /home/k0335/k033513/app/g09/l1.exe PID=    662777.
  
 Copyright (c) 1988,1990,1992,1993,1995,1998,2003,2009,2013,
            Gaussian, Inc.  All Rights Reserved.
  
 This is part of the Gaussian(R) 09 program.  It is based on
 the Gaussian(R) 03 system (copyright 2003, Gaussian, Inc.),
 the Gaussian(R) 98 system (copyright 1998, Gaussian, Inc.),
 the Gaussian(R) 94 system (copyright 1995, Gaussian, Inc.),
 the Gaussian 92(TM) system (copyright 1992, Gaussian, Inc.),
 the Gaussian 90(TM) system (copyright 1990, Gaussian, Inc.),
 the Gaussian 88(TM) system (copyright 1988, Gaussian, Inc.),
 the Gaussian 86(TM) system (copyright 1986, Carnegie Mellon
 University), and the Gaussian 82(TM) system (copyright 1983,
 Carnegie Mellon University). Gaussian is a federally registered
 trademark of Gaussian, Inc.
  
 This software contains proprietary and confidential information,
 including trade secrets, belonging to Gaussian, Inc.
  
 This software is provided under written license and may be
 used, copied, transmitted, or stored only in accord with that
 written license.
  
 The following legend is applicable only to US Government
 contracts under FAR:
  
                    RESTRICTED RIGHTS LEGEND
  
 Use, reproduction and disclosure by the US Government is
 subject to restrictions as set forth in subparagraphs (a)
 and (c) of the Commercial Computer Software - Restricted
 Rights clause in FAR 52.227-19.
  
 Gaussian, Inc.
 340 Quinnipiac St., Bldg. 40, Wallingford CT 06492
  
  
 ---------------------------------------------------------------
 Warning -- This program may not be used in any manner that
 competes with the business of Gaussian, Inc. or will provide
 assistance to any competitor of Gaussian, Inc.  The licensee
 of this program is prohibited from giving any competitor of
 Gaussian, Inc. access to this program.  By using this program,
 the user acknowledges that Gaussian, Inc. is engaged in the
 business of creating and licensing software in the field of
 computational chemistry and represents and warrants to the
 licensee that it is not a competitor of Gaussian, Inc. and that
 it will not use this program in any manner prohibited above.
 ---------------------------------------------------------------
  

 Cite this work as:
 Gaussian 09, Revision D.01,
 M. J. Frisch, G. W. Trucks, H. B. Schlegel, G. E. Scuseria, 
 M. A. Robb, J. R. Cheeseman, G. Scalmani, V. Barone, B. Mennucci, 
 G. A. Petersson, H. Nakatsuji, M. Caricato, X. Li, H. P. Hratchian, 
 A. F. Izmaylov, J. Bloino, G. Zheng, J. L. Sonnenberg, M. Hada, 
 M. Ehara, K. Toyota, R. Fukuda, J. Hasegawa, M. Ishida, T. Nakajima, 
 Y. Honda, O. Kitao, H. Nakai, T. Vreven, J. A. Montgomery, Jr., 
 J. E. Peralta, F. Ogliaro, M. Bearpark, J. J. Heyd, E. Brothers, 
 K. N. Kudin, V. N. Staroverov, T. Keith, R. Kobayashi, J. Normand, 
 K. Raghavachari, A. Rendell, J. C. Burant, S. S. Iyengar, J. Tomasi, 
 M. Cossi, N. Rega, J. M. Millam, M. Klene, J. E. Knox, J. B. Cross, 
 V. Bakken, C. Adamo, J. Jaramillo, R. Gomperts, R. E. Stratmann, 
 O. Yazyev, A. J. Austin, R. Cammi, C. Pomelli, J. W. Ochterski, 
 R. L. Martin, K. Morokuma, V. G. Zakrzewski, G. A. Voth, 
 P. Salvador, J. J. Dannenberg, S. Dapprich, A. D. Daniels, 
 O. Farkas, J. B. Foresman, J. V. Ortiz, J. Cioslowski, 
 and D. J. Fox, Gaussian, Inc., Wallingford CT, 2013.
 
 ******************************************
 Gaussian 09:  ES64L-G09RevD.01 24-Apr-2013
                 6-Feb-2025 
 ******************************************
 %nprocshared=24
 Will use up to   24 processors via shared memory.
 %mem=40GB
 %rwf=cytopopt/A2/A2_neu.rwf
 %nosave
 %chk=cytopopt/A2/A2_neu.chk
 ----------------------------------------------------------------------
 #p CAM-B3LYP/6-31G(d,p) opt SCRF=(PCM,Solvent=Generic,Read) NoSymm out
 =wfn
 ----------------------------------------------------------------------
 1/14=-1,18=20,19=15,26=3,38=1,40=2/1,3;
 2/9=110,12=2,15=1,17=6,18=5,40=1/2;
 3/5=1,6=6,7=101,11=2,16=1,25=1,30=1,70=2203,71=1,72=-2,74=-40/1,2,3;
 4//1;
 5/5=2,38=5/2;
 6/7=2,8=2,9=2,10=2,28=1/1;
 7/30=1/1,2,3,16;
 1/14=-1,18=20,19=15,26=3/3(2);
 2/9=110,15=1/2;
 99/6=100/99;
 2/9=110,15=1/2;
 3/5=1,6=6,7=101,11=2,16=1,25=1,30=1,70=2205,71=1,72=-2,74=-40/1,2,3;
 4/5=5,16=3,69=1/1;
 5/5=2,38=5/2;
 7/30=1/1,2,3,16;
 1/14=-1,18=20,19=15,26=3/3(-5);
 2/9=110,15=1/2;
 6/7=2,8=2,9=2,10=2,19=2,28=1/1;
 99/6=100,9=1/99;
 Leave Link    1 at Thu Feb  6 02:19:58 2025, MaxMem=  5368709120 cpu:         0.9
 (Enter /home/k0335/k033513/app/g09/l101.exe)
 ------------
 Title A2_neu
 ------------
 Symbolic Z-matrix:
 Charge =  0 Multiplicity = 1
 F                     0.94184   1.40137   0.98715 
 C                     0.75621   0.12929   0.54479 
 C                     2.01922  -0.3101   -0.17817 
 F                     1.80587  -1.4702   -0.84827 
 C                     2.57006   0.76836  -1.11856 
 F                     1.67927   1.16361  -2.05142 
 F                     2.94024   1.87954  -0.43839 
 F                     3.66987   0.32945  -1.77727 
 F                     2.98808  -0.59615   0.74186 
 C                    -0.50799  -0.03353  -0.31243 
 O                    -1.12256  -1.30139  -0.0002 
 C                    -0.36027  -1.87637   1.05672 
 F                    -1.19081  -2.52215   1.89659 
 F                     0.45057  -2.79787   0.50106 
 C                     0.40371  -0.75132   1.71272 
 F                    -0.43846  -0.06804   2.53915 
 F                     1.4389   -1.13582   2.47405 
 C                    -1.49579   1.13304  -0.15239 
 F                    -0.85761   2.29848  -0.46944 
 C                    -2.69987   0.90283  -1.05575 
 O                    -3.74366   0.30304  -0.43724 
 O                    -2.79163   1.19153  -2.24002 
 F                    -1.85521   1.25592   1.15612 
 F                    -0.15994  -0.12418  -1.62201 
 H                    -4.44005   0.23066  -1.12584 
 
 NAtoms=     25 NQM=       25 NQMF=       0 NMMI=      0 NMMIF=      0
                NMic=       0 NMicF=      0.
                    Isotopes and Nuclear Properties:
 (Nuclear quadrupole moments (NQMom) in fm**2, nuclear magnetic moments (NMagM)
  in nuclear magnetons)

  Atom         1           2           3           4           5           6           7           8           9          10
 IAtWgt=          19          12          12          19          12          19          19          19          19          12
 AtmWgt=  18.9984033  12.0000000  12.0000000  18.9984033  12.0000000  18.9984033  18.9984033  18.9984033  18.9984033  12.0000000
 NucSpn=           1           0           0           1           0           1           1           1           1           0
 AtZEff=   0.0000000   0.0000000   0.0000000   0.0000000   0.0000000   0.0000000   0.0000000   0.0000000   0.0000000   0.0000000
 NQMom=    0.0000000   0.0000000   0.0000000   0.0000000   0.0000000   0.0000000   0.0000000   0.0000000   0.0000000   0.0000000
 NMagM=    2.6288670   0.0000000   0.0000000   2.6288670   0.0000000   2.6288670   2.6288670   2.6288670   2.6288670   0.0000000
 AtZNuc=   9.0000000   6.0000000   6.0000000   9.0000000   6.0000000   9.0000000   9.0000000   9.0000000   9.0000000   6.0000000

  Atom        11          12          13          14          15          16          17          18          19          20
 IAtWgt=          16          12          19          19          12          19          19          12          19          12
 AtmWgt=  15.9949146  12.0000000  18.9984033  18.9984033  12.0000000  18.9984033  18.9984033  12.0000000  18.9984033  12.0000000
 NucSpn=           0           0           1           1           0           1           1           0           1           0
 AtZEff=   0.0000000   0.0000000   0.0000000   0.0000000   0.0000000   0.0000000   0.0000000   0.0000000   0.0000000   0.0000000
 NQMom=    0.0000000   0.0000000   0.0000000   0.0000000   0.0000000   0.0000000   0.0000000   0.0000000   0.0000000   0.0000000
 NMagM=    0.0000000   0.0000000   2.6288670   2.6288670   0.0000000   2.6288670   2.6288670   0.0000000   2.6288670   0.0000000
 AtZNuc=   8.0000000   6.0000000   9.0000000   9.0000000   6.0000000   9.0000000   9.0000000   6.0000000   9.0000000   6.0000000

  Atom        21          22          23          24          25
 IAtWgt=          16          16          19          19           1
 AtmWgt=  15.9949146  15.9949146  18.9984033  18.9984033   1.0078250
 NucSpn=           0           0           1           1           1
 AtZEff=   0.0000000   0.0000000   0.0000000   0.0000000   0.0000000
 NQMom=    0.0000000   0.0000000   0.0000000   0.0000000   0.0000000
 NMagM=    0.0000000   0.0000000   2.6288670   2.6288670   2.7928460
 AtZNuc=   8.0000000   8.0000000   9.0000000   9.0000000   1.0000000
 Leave Link  101 at Thu Feb  6 02:19:59 2025, MaxMem=  5368709120 cpu:         2.9
 (Enter /home/k0335/k033513/app/g09/l103.exe)

 GradGradGradGradGradGradGradGradGradGradGradGradGradGradGradGradGradGrad
 Berny optimization.
 Initialization pass.
                           ----------------------------
                           !    Initial Parameters    !
                           ! (Angstroms and Degrees)  !
 --------------------------                            --------------------------
 ! Name  Definition              Value          Derivative Info.                !
 --------------------------------------------------------------------------------
 ! R1    R(1,2)                  1.3595         estimate D2E/DX2                !
 ! R2    R(2,3)                  1.5202         estimate D2E/DX2                !
 ! R3    R(2,10)                 1.5361         estimate D2E/DX2                !
 ! R4    R(2,15)                 1.5046         estimate D2E/DX2                !
 ! R5    R(3,4)                  1.3566         estimate D2E/DX2                !
 ! R6    R(3,5)                  1.5332         estimate D2E/DX2                !
 ! R7    R(3,9)                  1.3664         estimate D2E/DX2                !
 ! R8    R(5,6)                  1.3491         estimate D2E/DX2                !
 ! R9    R(5,7)                  1.3544         estimate D2E/DX2                !
 ! R10   R(5,8)                  1.355          estimate D2E/DX2                !
 ! R11   R(10,11)                1.4431         estimate D2E/DX2                !
 ! R12   R(10,18)                1.537          estimate D2E/DX2                !
 ! R13   R(10,24)                1.3581         estimate D2E/DX2                !
 ! R14   R(11,12)                1.4243         estimate D2E/DX2                !
 ! R15   R(12,13)                1.3462         estimate D2E/DX2                !
 ! R16   R(12,14)                1.3474         estimate D2E/DX2                !
 ! R17   R(12,15)                1.5099         estimate D2E/DX2                !
 ! R18   R(15,16)                1.3635         estimate D2E/DX2                !
 ! R19   R(15,17)                1.3413         estimate D2E/DX2                !
 ! R20   R(18,19)                1.366          estimate D2E/DX2                !
 ! R21   R(18,20)                1.5228         estimate D2E/DX2                !
 ! R22   R(18,23)                1.3625         estimate D2E/DX2                !
 ! R23   R(20,21)                1.3534         estimate D2E/DX2                !
 ! R24   R(20,22)                1.2224         estimate D2E/DX2                !
 ! R25   R(21,25)                0.982          estimate D2E/DX2                !
 ! A1    A(1,2,3)              108.1646         estimate D2E/DX2                !
 ! A2    A(1,2,10)             113.1499         estimate D2E/DX2                !
 ! A3    A(1,2,15)             109.0897         estimate D2E/DX2                !
 ! A4    A(3,2,10)             112.8142         estimate D2E/DX2                !
 ! A5    A(3,2,15)             113.2435         estimate D2E/DX2                !
 ! A6    A(10,2,15)            100.2726         estimate D2E/DX2                !
 ! A7    A(2,3,4)              110.5745         estimate D2E/DX2                !
 ! A8    A(2,3,5)              112.7596         estimate D2E/DX2                !
 ! A9    A(2,3,9)              109.2333         estimate D2E/DX2                !
 ! A10   A(4,3,5)              110.7962         estimate D2E/DX2                !
 ! A11   A(4,3,9)              105.3719         estimate D2E/DX2                !
 ! A12   A(5,3,9)              107.7872         estimate D2E/DX2                !
 ! A13   A(3,5,6)              113.1392         estimate D2E/DX2                !
 ! A14   A(3,5,7)              111.5464         estimate D2E/DX2                !
 ! A15   A(3,5,8)              111.2176         estimate D2E/DX2                !
 ! A16   A(6,5,7)              106.7006         estimate D2E/DX2                !
 ! A17   A(6,5,8)              107.1385         estimate D2E/DX2                !
 ! A18   A(7,5,8)              106.7408         estimate D2E/DX2                !
 ! A19   A(2,10,11)            108.8366         estimate D2E/DX2                !
 ! A20   A(2,10,18)            112.978          estimate D2E/DX2                !
 ! A21   A(2,10,24)            109.5288         estimate D2E/DX2                !
 ! A22   A(11,10,18)           111.7526         estimate D2E/DX2                !
 ! A23   A(11,10,24)           105.0186         estimate D2E/DX2                !
 ! A24   A(18,10,24)           108.4081         estimate D2E/DX2                !
 ! A25   A(10,11,12)           106.6953         estimate D2E/DX2                !
 ! A26   A(11,12,13)           109.0511         estimate D2E/DX2                !
 ! A27   A(11,12,14)           106.9859         estimate D2E/DX2                !
 ! A28   A(11,12,15)           107.0017         estimate D2E/DX2                !
 ! A29   A(13,12,14)           107.487          estimate D2E/DX2                !
 ! A30   A(13,12,15)           113.4883         estimate D2E/DX2                !
 ! A31   A(14,12,15)           112.5995         estimate D2E/DX2                !
 ! A32   A(2,15,12)            102.5562         estimate D2E/DX2                !
 ! A33   A(2,15,16)            108.7777         estimate D2E/DX2                !
 ! A34   A(2,15,17)            115.3131         estimate D2E/DX2                !
 ! A35   A(12,15,16)           108.9177         estimate D2E/DX2                !
 ! A36   A(12,15,17)           115.0573         estimate D2E/DX2                !
 ! A37   A(16,15,17)           106.0405         estimate D2E/DX2                !
 ! A38   A(10,18,19)           108.8525         estimate D2E/DX2                !
 ! A39   A(10,18,20)           109.3701         estimate D2E/DX2                !
 ! A40   A(10,18,23)           109.7542         estimate D2E/DX2                !
 ! A41   A(19,18,20)           111.1433         estimate D2E/DX2                !
 ! A42   A(19,18,23)           105.6155         estimate D2E/DX2                !
 ! A43   A(20,18,23)           112.0101         estimate D2E/DX2                !
 ! A44   A(18,20,21)           113.9353         estimate D2E/DX2                !
 ! A45   A(18,20,22)           126.7534         estimate D2E/DX2                !
 ! A46   A(21,20,22)           119.3083         estimate D2E/DX2                !
 ! A47   A(20,21,25)           105.0178         estimate D2E/DX2                !
 ! D1    D(1,2,3,4)           -168.8536         estimate D2E/DX2                !
 ! D2    D(1,2,3,5)            -44.1916         estimate D2E/DX2                !
 ! D3    D(1,2,3,9)             75.6254         estimate D2E/DX2                !
 ! D4    D(10,2,3,4)           -42.917          estimate D2E/DX2                !
 ! D5    D(10,2,3,5)            81.7451         estimate D2E/DX2                !
 ! D6    D(10,2,3,9)          -158.438          estimate D2E/DX2                !
 ! D7    D(15,2,3,4)            70.1139         estimate D2E/DX2                !
 ! D8    D(15,2,3,5)          -165.224          estimate D2E/DX2                !
 ! D9    D(15,2,3,9)           -45.4071         estimate D2E/DX2                !
 ! D10   D(1,2,10,11)         -141.6898         estimate D2E/DX2                !
 ! D11   D(1,2,10,18)          -16.9418         estimate D2E/DX2                !
 ! D12   D(1,2,10,24)          104.0108         estimate D2E/DX2                !
 ! D13   D(3,2,10,11)           95.1021         estimate D2E/DX2                !
 ! D14   D(3,2,10,18)         -140.15           estimate D2E/DX2                !
 ! D15   D(3,2,10,24)          -19.1973         estimate D2E/DX2                !
 ! D16   D(15,2,10,11)         -25.6515         estimate D2E/DX2                !
 ! D17   D(15,2,10,18)          99.0965         estimate D2E/DX2                !
 ! D18   D(15,2,10,24)        -139.9509         estimate D2E/DX2                !
 ! D19   D(1,2,15,12)          155.0833         estimate D2E/DX2                !
 ! D20   D(1,2,15,16)           39.8344         estimate D2E/DX2                !
 ! D21   D(1,2,15,17)          -79.0902         estimate D2E/DX2                !
 ! D22   D(3,2,15,12)          -84.4079         estimate D2E/DX2                !
 ! D23   D(3,2,15,16)          160.3432         estimate D2E/DX2                !
 ! D24   D(3,2,15,17)           41.4186         estimate D2E/DX2                !
 ! D25   D(10,2,15,12)          36.0371         estimate D2E/DX2                !
 ! D26   D(10,2,15,16)         -79.2118         estimate D2E/DX2                !
 ! D27   D(10,2,15,17)         161.8636         estimate D2E/DX2                !
 ! D28   D(2,3,5,6)            -57.4318         estimate D2E/DX2                !
 ! D29   D(2,3,5,7)             62.8814         estimate D2E/DX2                !
 ! D30   D(2,3,5,8)           -178.0738         estimate D2E/DX2                !
 ! D31   D(4,3,5,6)             67.1089         estimate D2E/DX2                !
 ! D32   D(4,3,5,7)           -172.5779         estimate D2E/DX2                !
 ! D33   D(4,3,5,8)            -53.5331         estimate D2E/DX2                !
 ! D34   D(9,3,5,6)           -178.0795         estimate D2E/DX2                !
 ! D35   D(9,3,5,7)            -57.7663         estimate D2E/DX2                !
 ! D36   D(9,3,5,8)             61.2785         estimate D2E/DX2                !
 ! D37   D(2,10,11,12)           3.8301         estimate D2E/DX2                !
 ! D38   D(18,10,11,12)       -121.6352         estimate D2E/DX2                !
 ! D39   D(24,10,11,12)        121.0376         estimate D2E/DX2                !
 ! D40   D(2,10,18,19)          57.2327         estimate D2E/DX2                !
 ! D41   D(2,10,18,20)         178.8378         estimate D2E/DX2                !
 ! D42   D(2,10,18,23)         -57.9082         estimate D2E/DX2                !
 ! D43   D(11,10,18,19)       -179.6214         estimate D2E/DX2                !
 ! D44   D(11,10,18,20)        -58.0164         estimate D2E/DX2                !
 ! D45   D(11,10,18,23)         65.2376         estimate D2E/DX2                !
 ! D46   D(24,10,18,19)        -64.3542         estimate D2E/DX2                !
 ! D47   D(24,10,18,20)         57.2509         estimate D2E/DX2                !
 ! D48   D(24,10,18,23)       -179.4951         estimate D2E/DX2                !
 ! D49   D(10,11,12,13)        143.2451         estimate D2E/DX2                !
 ! D50   D(10,11,12,14)       -100.7858         estimate D2E/DX2                !
 ! D51   D(10,11,12,15)         20.1168         estimate D2E/DX2                !
 ! D52   D(11,12,15,2)         -36.4881         estimate D2E/DX2                !
 ! D53   D(11,12,15,16)         78.6591         estimate D2E/DX2                !
 ! D54   D(11,12,15,17)       -162.4808         estimate D2E/DX2                !
 ! D55   D(13,12,15,2)        -156.8223         estimate D2E/DX2                !
 ! D56   D(13,12,15,16)        -41.675          estimate D2E/DX2                !
 ! D57   D(13,12,15,17)         77.185          estimate D2E/DX2                !
 ! D58   D(14,12,15,2)          80.781          estimate D2E/DX2                !
 ! D59   D(14,12,15,16)       -164.0717         estimate D2E/DX2                !
 ! D60   D(14,12,15,17)        -45.2117         estimate D2E/DX2                !
 ! D61   D(10,18,20,21)         94.8113         estimate D2E/DX2                !
 ! D62   D(10,18,20,22)        -84.5464         estimate D2E/DX2                !
 ! D63   D(19,18,20,21)       -144.9763         estimate D2E/DX2                !
 ! D64   D(19,18,20,22)         35.6661         estimate D2E/DX2                !
 ! D65   D(23,18,20,21)        -27.0958         estimate D2E/DX2                !
 ! D66   D(23,18,20,22)        153.5465         estimate D2E/DX2                !
 ! D67   D(18,20,21,25)        179.2792         estimate D2E/DX2                !
 ! D68   D(22,20,21,25)         -1.311          estimate D2E/DX2                !
 --------------------------------------------------------------------------------
 Trust Radius=3.00D-01 FncErr=1.00D-07 GrdErr=1.00D-06
 Number of steps in this run=    150 maximum allowed number of steps=    150.
 GradGradGradGradGradGradGradGradGradGradGradGradGradGradGradGradGradGrad

 Leave Link  103 at Thu Feb  6 02:19:59 2025, MaxMem=  5368709120 cpu:         0.1
 (Enter /home/k0335/k033513/app/g09/l202.exe)
                          Input orientation:                          
 ---------------------------------------------------------------------
 Center     Atomic      Atomic             Coordinates (Angstroms)
 Number     Number       Type             X           Y           Z
 ---------------------------------------------------------------------
      1          9           0        0.941843    1.401371    0.987152
      2          6           0        0.756210    0.129293    0.544786
      3          6           0        2.019219   -0.310101   -0.178170
      4          9           0        1.805874   -1.470200   -0.848265
      5          6           0        2.570060    0.768363   -1.118556
      6          9           0        1.679266    1.163610   -2.051421
      7          9           0        2.940237    1.879536   -0.438385
      8          9           0        3.669865    0.329445   -1.777272
      9          9           0        2.988084   -0.596148    0.741855
     10          6           0       -0.507993   -0.033534   -0.312431
     11          8           0       -1.122560   -1.301387   -0.000199
     12          6           0       -0.360271   -1.876366    1.056724
     13          9           0       -1.190811   -2.522148    1.896590
     14          9           0        0.450573   -2.797874    0.501057
     15          6           0        0.403713   -0.751320    1.712719
     16          9           0       -0.438455   -0.068041    2.539146
     17          9           0        1.438900   -1.135816    2.474045
     18          6           0       -1.495794    1.133040   -0.152391
     19          9           0       -0.857610    2.298477   -0.469435
     20          6           0       -2.699870    0.902827   -1.055747
     21          8           0       -3.743661    0.303043   -0.437240
     22          8           0       -2.791627    1.191530   -2.240024
     23          9           0       -1.855205    1.255924    1.156118
     24          9           0       -0.159942   -0.124181   -1.622008
     25          1           0       -4.440046    0.230655   -1.125837
 ---------------------------------------------------------------------
                    Distance matrix (angstroms):
                    1          2          3          4          5
     1  F    0.000000
     2  C    1.359533   0.000000
     3  C    2.334063   1.520172   0.000000
     4  F    3.515853   2.366593   1.356604   0.000000
     5  C    2.736018   2.542670   1.533244   2.380799   0.000000
     6  F    3.135801   2.943150   2.407584   2.898374   1.349063
     7  F    2.500875   2.966471   2.389664   3.560269   1.354389
     8  F    4.029041   3.731139   2.385535   2.752497   1.355038
     9  F    2.870079   2.355072   1.366370   2.165657   2.344731
    10  C    2.418655   1.536080   2.545843   2.775808   3.281354
    11  O    3.541401   2.423557   3.299257   3.053431   4.378359
    12  C    3.527591   2.351867   3.104855   2.913098   4.507025
    13  F    4.557334   3.556460   4.416115   4.197731   5.836328
    14  F    4.255736   2.943405   3.018446   2.328139   4.453473
    15  C    2.334547   1.504593   2.525865   3.006906   3.875386
    16  F    2.544225   2.333160   3.671861   4.298560   4.809316
    17  F    2.982488   2.405952   2.837749   3.359200   4.220451
    18  C    2.704188   2.562242   3.799821   4.261703   4.194953
    19  F    2.482836   2.887632   3.894311   4.630398   3.809400
    20  C    4.205241   3.886457   4.950872   5.096669   5.272019
    21  O    5.018881   4.609057   5.801194   5.840434   6.367400
    22  O    4.939382   4.633645   5.445216   5.491704   5.494038
    23  F    2.805919   2.909040   4.386789   4.985259   4.999483
    24  F    3.216979   2.366132   2.620683   2.504971   2.915992
    25  H    5.899155   5.459151   6.550770   6.479311   7.030702
                    6          7          8          9         10
     6  F    0.000000
     7  F    2.168982   0.000000
     8  F    2.175655   2.174341   0.000000
     9  F    3.551358   2.743040   2.769034   0.000000
    10  C    3.039958   3.945376   4.442073   3.694673   0.000000
    11  O    4.258398   5.178474   5.365160   4.236201   1.443133
    12  C    4.802263   5.218765   5.398067   3.598553   2.300530
    13  F    6.116285   6.472441   6.727185   4.744054   3.396942
    14  F    4.870132   5.381370   5.033364   3.368166   3.036805
    15  C    4.411660   4.240590   4.900596   2.765073   2.334022
    16  F    5.203365   4.906558   5.972249   3.905166   2.852633
    17  F    5.081828   4.452933   5.019750   2.385727   3.573495
    18  C    3.699764   4.507485   5.474490   4.888244   1.536964
    19  F    3.197865   3.821010   5.107402   4.963410   2.363294
    20  C    4.498467   5.757248   6.436062   6.150701   2.496721
    21  O    5.723137   6.867301   7.533708   6.893127   3.255520
    22  O    4.474956   6.047605   6.535152   6.744809   3.229765
    23  F    4.773815   5.091915   6.323728   5.201849   2.373672
    24  F    2.285932   3.876462   3.859703   3.964930   1.358068
    25  H    6.258841   7.593417   8.136632   7.703830   4.023986
                   11         12         13         14         15
    11  O    0.000000
    12  C    1.424350   0.000000
    13  F    2.256706   1.346182   0.000000
    14  F    2.228335   1.347372   2.172022   0.000000
    15  C    2.359273   1.509877   2.390010   2.378803   0.000000
    16  F    2.904723   2.339600   2.646046   3.520819   1.363488
    17  F    3.565161   2.407121   3.028325   2.762591   1.341293
    18  C    2.467570   3.436262   4.201397   4.434797   3.261530
    19  F    3.639973   4.472787   5.380290   5.350326   3.956513
    20  C    2.908719   4.202401   4.766970   5.103344   4.475805
    21  O    3.104089   4.292910   4.466040   5.299782   4.789020
    22  O    3.743960   5.117814   5.784945   5.825867   5.441419
    23  F    2.900634   3.472168   3.906859   4.709458   3.072710
    24  F    2.223221   3.207162   4.381035   3.468251   3.439682
    25  H    3.823601   5.084061   5.222118   5.978037   5.699445
                   16         17         18         19         20
    16  F    0.000000
    17  F    2.160751   0.000000
    18  C    3.131283   4.545141   0.000000
    19  F    3.850670   5.072711   1.366030   0.000000
    20  C    4.356586   5.809037   1.522777   2.384433   0.000000
    21  O    4.463291   6.115949   2.413077   3.508858   1.353437
    22  O    5.473975   6.748062   2.457807   2.846180   1.222408
    23  F    2.381770   4.278841   1.362524   2.173600   2.393843
    24  F    4.170842   4.511912   2.350506   2.772082   2.797612
    25  H    5.434524   7.027688   3.229631   4.188150   1.866799
                   21         22         23         24         25
    21  O    0.000000
    22  O    2.223917   0.000000
    23  F    2.648214   3.523466   0.000000
    24  F    3.798584   3.006461   3.535052   0.000000
    25  H    0.982017   2.209520   3.597207   4.323353   0.000000
 Symmetry turned off by external request.
 Stoichiometry    C8HF13O3
 Framework group  C1[X(C8HF13O3)]
 Deg. of freedom    69
 Full point group                 C1      NOp   1
 Rotational constants (GHZ):      0.3425298      0.2608290      0.1986755
 Leave Link  202 at Thu Feb  6 02:19:59 2025, MaxMem=  5368709120 cpu:         0.0
 (Enter /home/k0335/k033513/app/g09/l301.exe)
 Standard basis: 6-31G(d,p) (6D, 7F)
 Ernie: Thresh=  0.10000D-02 Tol=  0.10000D-05 Strict=F.
   365 basis functions,   679 primitive gaussians,   365 cartesian basis functions
    95 alpha electrons       95 beta electrons
       nuclear repulsion energy      2870.0287907916 Hartrees.
 IExCor=20419 DFT=T Ex+Corr=CAM-B3LYP ExCW=0 ScaHFX=  1.000000
 ScaDFX=  1.000000  1.000000  1.000000  0.810000 ScalE2=  1.000000  1.000000
 IRadAn=      0 IRanWt=     -1 IRanGd=            0 ICorTp=0 IEmpDi=  4
  HFx wShort=  0.000000 wLong=  0.330000 cFull=  0.190000 cShort=  0.000000 cLong=  0.460000
  DFx wShort=  0.000000 wLong=  0.330000 cFull=  0.190000 cShort=  0.000000 cLong=  0.460000
 NAtoms=   25 NActive=   25 NUniq=   25 SFac= 1.00D+00 NAtFMM=   60 NAOKFM=F Big=F
 Integral buffers will be    131072 words long.
 Raffenetti 2 integral format.
 Two-electron integral symmetry is turned off.
 Using the following non-standard input for PCM:
 eps=2.05
 --- end of non-standard input.
 ------------------------------------------------------------------------------
 Polarizable Continuum Model (PCM)
 =================================
 Model                : PCM (using non-symmetric T matrix).
 Atomic radii         : UFF (Universal Force Field).
 Polarization charges : Total charges.
 Charge compensation  : None.
 Solution method      : On-the-fly selection.
 Cavity type          : Scaled VdW (van der Waals Surface) (Alpha=1.100).
 Cavity algorithm     : GePol (No added spheres)
                        Default sphere list used, NSphG=   25.
                        Lebedev-Laikov grids with approx.  5.0 points / Ang**2.
                        Smoothing algorithm: Karplus/York (Gamma=1.0000).
                        Polarization charges: spherical gaussians, with
                                              point-specific exponents (IZeta= 3).
                        Self-potential: point-specific (ISelfS= 7).
                        Self-field    : sphere-specific E.n sum rule (ISelfD= 2).
 1st derivatives      : Analytical E(r).r(x)/FMM algorithm (CHGder, D1EAlg=3).
                        Cavity 1st derivative terms included.
 Solvent              : Generic,
                        Eps                           =   2.050000
                        Eps(infinity)                 =   0.000000
                        RSolv                         =   0.000000 Ang.
                        Molar volume                  =   0.000000 cm**3/mol
                        Thermal expansion coefficient =   0.000000 K**-1
                        Absolute temperature          = 298.150000 K
                        Numeral density               =   0.000000 Ang**-3
                        Hydrogen bond acidity         =   0.000000
                        Hydrogen bond basicity        =   0.000000
                        Surface tension at interface  =   0.000000 (cal/mol)*Ang**-2
                        Carbon aromaticity            =   0.000000
                        Electronegative halogenicity  =   0.000000
 ------------------------------------------------------------------------------
 GePol: Number of generator spheres                  =      25
 GePol: Total number of spheres                      =      25
 GePol: Number of exposed spheres                    =      25 (100.00%)
 GePol: Number of points                             =    2231
 GePol: Average weight of points                     =       0.13
 GePol: Minimum weight of points                     =   0.52D-11
 GePol: Maximum weight of points                     =    0.20577
 GePol: Number of points with low weight             =      84
 GePol: Fraction of low-weight points (<1% of avg)   =       3.77%
 GePol: Cavity surface area                          =    281.386 Ang**2
 GePol: Cavity volume                                =    314.722 Ang**3
 Leave Link  301 at Thu Feb  6 02:19:59 2025, MaxMem=  5368709120 cpu:         0.6
 (Enter /home/k0335/k033513/app/g09/l302.exe)
 NPDir=0 NMtPBC=     1 NCelOv=     1 NCel=       1 NClECP=     1 NCelD=      1
         NCelK=      1 NCelE2=     1 NClLst=     1 CellRange=     0.0.
 One-electron integrals computed using PRISM.
 NBasis=   365 RedAO= T EigKep=  8.57D-04  NBF=   365
 NBsUse=   365 1.00D-06 EigRej= -1.00D+00 NBFU=   365
 Precomputing XC quadrature grid using
 IXCGrd= 4 IRadAn=           0 IRanWt=          -1 IRanGd=           0 AccXCQ= 0.00D+00.
 Generated NRdTot=       0 NPtTot=           0 NUsed=           0 NTot=          32
 NSgBfM=   362   362   362   362   362 MxSgAt=    25 MxSgA2=    25.
 Leave Link  302 at Thu Feb  6 02:19:59 2025, MaxMem=  5368709120 cpu:         4.8
 (Enter /home/k0335/k033513/app/g09/l303.exe)
 DipDrv:  MaxL=1.
 Leave Link  303 at Thu Feb  6 02:19:59 2025, MaxMem=  5368709120 cpu:         0.4
 (Enter /home/k0335/k033513/app/g09/l401.exe)
 ExpMin= 1.61D-01 ExpMax= 7.00D+03 ExpMxC= 1.05D+03 IAcc=1 IRadAn=         1 AccDes= 0.00D+00
 Harris functional with IExCor=20419 and IRadAn=       1 diagonalized for initial guess.
 HarFok:  IExCor=20419 AccDes= 0.00D+00 IRadAn=         1 IDoV= 1 UseB2=F ITyADJ=14
 ICtDFT=  3500011 ScaDFX=  1.000000  1.000000  1.000000  1.000000
 FoFCou: FMM=F IPFlag=           0 FMFlag=      100000 FMFlg1=           0
         NFxFlg=           0 DoJE=T BraDBF=F KetDBF=T FulRan=T
         wScrn=  0.000000 ICntrl=     500 IOpCl=  0 I1Cent=   200000004 NGrid=           0
         NMat0=    1 NMatS0=      1 NMatT0=    0 NMatD0=    1 NMtDS0=    0 NMtDT0=    0
 Symmetry not used in FoFCou.
 Harris En= -1774.89574202860    
 JPrj=0 DoOrth=F DoCkMO=F.
 Leave Link  401 at Thu Feb  6 02:20:00 2025, MaxMem=  5368709120 cpu:         5.8
 (Enter /home/k0335/k033513/app/g09/l502.exe)
 Closed shell SCF:
 Using DIIS extrapolation, IDIIS=  1040.
 Two-electron integral symmetry not used.
 Keep R1 ints in memory in canonical form, NReq=4486581810.
 IVT=      429225 IEndB=      429225 NGot=  5368709120 MDV=   906641076
 LenX=   906641076 LenY=   906507410
 Requested convergence on RMS density matrix=1.00D-08 within 128 cycles.
 Requested convergence on MAX density matrix=1.00D-06.
 Requested convergence on             energy=1.00D-06.
 No special actions if energy rises.
 FoFCou: FMM=F IPFlag=           0 FMFlag=           0 FMFlg1=           0
         NFxFlg=           0 DoJE=F BraDBF=F KetDBF=F FulRan=T
         wScrn=  0.000000 ICntrl=     600 IOpCl=  0 I1Cent=           0 NGrid=           0
         NMat0=    1 NMatS0=  66795 NMatT0=    0 NMatD0=    1 NMtDS0=    0 NMtDT0=    0
 Symmetry not used in FoFCou.

 Cycle   1  Pass 1  IDiag  1:
 Inv3:  Mode=1 IEnd=    14932083.
 Iteration    1 A*A^-1 deviation from unit magnitude is 6.00D-15 for   2225.
 Iteration    1 A*A^-1 deviation from orthogonality  is 2.90D-15 for   2218   1725.
 Iteration    1 A^-1*A deviation from unit magnitude is 6.22D-15 for   2225.
 Iteration    1 A^-1*A deviation from orthogonality  is 3.23D-15 for   2186   1952.
 E= -1827.95773731976    
 DIIS: error= 4.76D-02 at cycle   1 NSaved=   1.
 NSaved= 1 IEnMin= 1 EnMin= -1827.95773731976     IErMin= 1 ErrMin= 4.76D-02
 ErrMax= 4.76D-02  0.00D+00 EMaxC= 1.00D-01 BMatC= 1.49D+00 BMatP= 1.49D+00
 IDIUse=3 WtCom= 5.24D-01 WtEn= 4.76D-01
 Coeff-Com:  0.100D+01
 Coeff-En:   0.100D+01
 Coeff:      0.100D+01
 Gap=     0.458 Goal=   None    Shift=    0.000
 GapD=    0.458 DampG=2.000 DampE=0.500 DampFc=1.0000 IDamp=-1.
 RMSDP=3.89D-03 MaxDP=1.65D-01              OVMax= 1.22D-01

 Cycle   2  Pass 1  IDiag  1:
 E= -1828.19066058744     Delta-E=       -0.232923267685 Rises=F Damp=F
 DIIS: error= 2.24D-02 at cycle   2 NSaved=   2.
 NSaved= 2 IEnMin= 2 EnMin= -1828.19066058744     IErMin= 2 ErrMin= 2.24D-02
 ErrMax= 2.24D-02  0.00D+00 EMaxC= 1.00D-01 BMatC= 5.71D-01 BMatP= 1.49D+00
 IDIUse=3 WtCom= 7.76D-01 WtEn= 2.24D-01
 Coeff-Com:  0.365D+00 0.635D+00
 Coeff-En:   0.327D+00 0.673D+00
 Coeff:      0.356D+00 0.644D+00
 Gap=     0.403 Goal=   None    Shift=    0.000
 RMSDP=1.74D-03 MaxDP=8.85D-02 DE=-2.33D-01 OVMax= 8.56D-02

 Cycle   3  Pass 1  IDiag  1:
 E= -1828.44706740882     Delta-E=       -0.256406821378 Rises=F Damp=F
 DIIS: error= 7.26D-03 at cycle   3 NSaved=   3.
 NSaved= 3 IEnMin= 3 EnMin= -1828.44706740882     IErMin= 3 ErrMin= 7.26D-03
 ErrMax= 7.26D-03  0.00D+00 EMaxC= 1.00D-01 BMatC= 9.83D-02 BMatP= 5.71D-01
 IDIUse=3 WtCom= 9.27D-01 WtEn= 7.26D-02
 Coeff-Com:  0.884D-01 0.321D+00 0.591D+00
 Coeff-En:   0.000D+00 0.109D+00 0.891D+00
 Coeff:      0.820D-01 0.306D+00 0.612D+00
 Gap=     0.372 Goal=   None    Shift=    0.000
 RMSDP=7.99D-04 MaxDP=4.32D-02 DE=-2.56D-01 OVMax= 5.76D-02

 Cycle   4  Pass 1  IDiag  1:
 E= -1828.50478398045     Delta-E=       -0.057716571625 Rises=F Damp=F
 DIIS: error= 2.30D-03 at cycle   4 NSaved=   4.
 NSaved= 4 IEnMin= 4 EnMin= -1828.50478398045     IErMin= 4 ErrMin= 2.30D-03
 ErrMax= 2.30D-03  0.00D+00 EMaxC= 1.00D-01 BMatC= 7.38D-03 BMatP= 9.83D-02
 IDIUse=3 WtCom= 9.77D-01 WtEn= 2.30D-02
 Coeff-Com:  0.410D-02 0.734D-01 0.287D+00 0.636D+00
 Coeff-En:   0.000D+00 0.000D+00 0.669D-02 0.993D+00
 Coeff:      0.401D-02 0.718D-01 0.280D+00 0.644D+00
 Gap=     0.373 Goal=   None    Shift=    0.000
 RMSDP=2.07D-04 MaxDP=1.39D-02 DE=-5.77D-02 OVMax= 2.13D-02

 Cycle   5  Pass 1  IDiag  1:
 E= -1828.50983659375     Delta-E=       -0.005052613304 Rises=F Damp=F
 DIIS: error= 9.39D-04 at cycle   5 NSaved=   5.
 NSaved= 5 IEnMin= 5 EnMin= -1828.50983659375     IErMin= 5 ErrMin= 9.39D-04
 ErrMax= 9.39D-04  0.00D+00 EMaxC= 1.00D-01 BMatC= 4.71D-04 BMatP= 7.38D-03
 IDIUse=3 WtCom= 9.91D-01 WtEn= 9.39D-03
 Coeff-Com: -0.284D-03 0.318D-01 0.146D+00 0.374D+00 0.448D+00
 Coeff-En:   0.000D+00 0.000D+00 0.000D+00 0.000D+00 0.100D+01
 Coeff:     -0.281D-03 0.315D-01 0.145D+00 0.370D+00 0.453D+00
 Gap=     0.369 Goal=   None    Shift=    0.000
 RMSDP=4.46D-05 MaxDP=4.22D-03 DE=-5.05D-03 OVMax= 7.34D-03

 Cycle   6  Pass 1  IDiag  1:
 E= -1828.51016262358     Delta-E=       -0.000326029829 Rises=F Damp=F
 DIIS: error= 1.35D-04 at cycle   6 NSaved=   6.
 NSaved= 6 IEnMin= 6 EnMin= -1828.51016262358     IErMin= 6 ErrMin= 1.35D-04
 ErrMax= 1.35D-04  0.00D+00 EMaxC= 1.00D-01 BMatC= 1.26D-05 BMatP= 4.71D-04
 IDIUse=3 WtCom= 9.99D-01 WtEn= 1.35D-03
 Coeff-Com: -0.498D-03 0.854D-04 0.737D-02 0.260D-01 0.143D+00 0.824D+00
 Coeff-En:   0.000D+00 0.000D+00 0.000D+00 0.000D+00 0.000D+00 0.100D+01
 Coeff:     -0.497D-03 0.853D-04 0.736D-02 0.259D-01 0.143D+00 0.824D+00
 Gap=     0.370 Goal=   None    Shift=    0.000
 RMSDP=1.28D-05 MaxDP=8.17D-04 DE=-3.26D-04 OVMax= 1.16D-03

 Cycle   7  Pass 1  IDiag  1:
 E= -1828.51017230662     Delta-E=       -0.000009683042 Rises=F Damp=F
 DIIS: error= 3.73D-05 at cycle   7 NSaved=   7.
 NSaved= 7 IEnMin= 7 EnMin= -1828.51017230662     IErMin= 7 ErrMin= 3.73D-05
 ErrMax= 3.73D-05  0.00D+00 EMaxC= 1.00D-01 BMatC= 2.48D-06 BMatP= 1.26D-05
 IDIUse=1 WtCom= 1.00D+00 WtEn= 0.00D+00
 Coeff-Com: -0.196D-03-0.308D-02-0.103D-01-0.232D-01 0.323D-01 0.410D+00
 Coeff-Com:  0.595D+00
 Coeff:     -0.196D-03-0.308D-02-0.103D-01-0.232D-01 0.323D-01 0.410D+00
 Coeff:      0.595D+00
 Gap=     0.370 Goal=   None    Shift=    0.000
 RMSDP=3.91D-06 MaxDP=2.44D-04 DE=-9.68D-06 OVMax= 4.01D-04

 Cycle   8  Pass 1  IDiag  1:
 E= -1828.51017411764     Delta-E=       -0.000001811016 Rises=F Damp=F
 DIIS: error= 1.14D-05 at cycle   8 NSaved=   8.
 NSaved= 8 IEnMin= 8 EnMin= -1828.51017411764     IErMin= 8 ErrMin= 1.14D-05
 ErrMax= 1.14D-05  0.00D+00 EMaxC= 1.00D-01 BMatC= 1.30D-07 BMatP= 2.48D-06
 IDIUse=1 WtCom= 1.00D+00 WtEn= 0.00D+00
 Coeff-Com: -0.129D-04-0.113D-02-0.447D-02-0.116D-01-0.209D-02 0.475D-01
 Coeff-Com:  0.200D+00 0.772D+00
 Coeff:     -0.129D-04-0.113D-02-0.447D-02-0.116D-01-0.209D-02 0.475D-01
 Coeff:      0.200D+00 0.772D+00
 Gap=     0.370 Goal=   None    Shift=    0.000
 RMSDP=1.35D-06 MaxDP=7.90D-05 DE=-1.81D-06 OVMax= 1.40D-04

 Cycle   9  Pass 1  IDiag  1:
 E= -1828.51017425323     Delta-E=       -0.000000135591 Rises=F Damp=F
 DIIS: error= 3.37D-06 at cycle   9 NSaved=   9.
 NSaved= 9 IEnMin= 9 EnMin= -1828.51017425323     IErMin= 9 ErrMin= 3.37D-06
 ErrMax= 3.37D-06  0.00D+00 EMaxC= 1.00D-01 BMatC= 1.19D-08 BMatP= 1.30D-07
 IDIUse=1 WtCom= 1.00D+00 WtEn= 0.00D+00
 Coeff-Com:  0.165D-04-0.186D-04-0.269D-03-0.118D-02-0.297D-02-0.325D-01
 Coeff-Com: -0.285D-02 0.203D+00 0.837D+00
 Coeff:      0.165D-04-0.186D-04-0.269D-03-0.118D-02-0.297D-02-0.325D-01
 Coeff:     -0.285D-02 0.203D+00 0.837D+00
 Gap=     0.370 Goal=   None    Shift=    0.000
 RMSDP=5.46D-07 MaxDP=3.33D-05 DE=-1.36D-07 OVMax= 5.86D-05

 Cycle  10  Pass 1  IDiag  1:
 E= -1828.51017426897     Delta-E=       -0.000000015747 Rises=F Damp=F
 DIIS: error= 1.23D-06 at cycle  10 NSaved=  10.
 NSaved=10 IEnMin=10 EnMin= -1828.51017426897     IErMin=10 ErrMin= 1.23D-06
 ErrMax= 1.23D-06  0.00D+00 EMaxC= 1.00D-01 BMatC= 1.79D-09 BMatP= 1.19D-08
 IDIUse=1 WtCom= 1.00D+00 WtEn= 0.00D+00
 Coeff-Com:  0.731D-05 0.131D-03 0.449D-03 0.964D-03-0.358D-03-0.181D-01
 Coeff-Com: -0.239D-01-0.228D-01 0.310D+00 0.754D+00
 Coeff:      0.731D-05 0.131D-03 0.449D-03 0.964D-03-0.358D-03-0.181D-01
 Coeff:     -0.239D-01-0.228D-01 0.310D+00 0.754D+00
 Gap=     0.370 Goal=   None    Shift=    0.000
 RMSDP=1.80D-07 MaxDP=1.00D-05 DE=-1.57D-08 OVMax= 1.89D-05

 Cycle  11  Pass 1  IDiag  1:
 E= -1828.51017427085     Delta-E=       -0.000000001874 Rises=F Damp=F
 DIIS: error= 3.43D-07 at cycle  11 NSaved=  11.
 NSaved=11 IEnMin=11 EnMin= -1828.51017427085     IErMin=11 ErrMin= 3.43D-07
 ErrMax= 3.43D-07  0.00D+00 EMaxC= 1.00D-01 BMatC= 1.94D-10 BMatP= 1.79D-09
 IDIUse=1 WtCom= 1.00D+00 WtEn= 0.00D+00
 Coeff-Com:  0.148D-05 0.561D-04 0.210D-03 0.503D-03 0.264D-03-0.455D-02
 Coeff-Com: -0.868D-02-0.260D-01 0.527D-01 0.298D+00 0.687D+00
 Coeff:      0.148D-05 0.561D-04 0.210D-03 0.503D-03 0.264D-03-0.455D-02
 Coeff:     -0.868D-02-0.260D-01 0.527D-01 0.298D+00 0.687D+00
 Gap=     0.370 Goal=   None    Shift=    0.000
 RMSDP=4.72D-08 MaxDP=2.06D-06 DE=-1.87D-09 OVMax= 4.77D-06

 Cycle  12  Pass 1  IDiag  1:
 E= -1828.51017427104     Delta-E=       -0.000000000188 Rises=F Damp=F
 DIIS: error= 1.49D-07 at cycle  12 NSaved=  12.
 NSaved=12 IEnMin=12 EnMin= -1828.51017427104     IErMin=12 ErrMin= 1.49D-07
 ErrMax= 1.49D-07  0.00D+00 EMaxC= 1.00D-01 BMatC= 2.33D-11 BMatP= 1.94D-10
 IDIUse=1 WtCom= 1.00D+00 WtEn= 0.00D+00
 Coeff-Com: -0.683D-06-0.106D-05 0.319D-05 0.262D-04 0.220D-03 0.132D-02
 Coeff-Com:  0.106D-02-0.571D-02-0.329D-01-0.247D-01 0.240D+00 0.821D+00
 Coeff:     -0.683D-06-0.106D-05 0.319D-05 0.262D-04 0.220D-03 0.132D-02
 Coeff:      0.106D-02-0.571D-02-0.329D-01-0.247D-01 0.240D+00 0.821D+00
 Gap=     0.370 Goal=   None    Shift=    0.000
 RMSDP=2.00D-08 MaxDP=8.27D-07 DE=-1.88D-10 OVMax= 1.96D-06

 Cycle  13  Pass 1  IDiag  1:
 E= -1828.51017427111     Delta-E=       -0.000000000075 Rises=F Damp=F
 DIIS: error= 2.83D-08 at cycle  13 NSaved=  13.
 NSaved=13 IEnMin=13 EnMin= -1828.51017427111     IErMin=13 ErrMin= 2.83D-08
 ErrMax= 2.83D-08  0.00D+00 EMaxC= 1.00D-01 BMatC= 1.46D-12 BMatP= 2.33D-11
 IDIUse=1 WtCom= 1.00D+00 WtEn= 0.00D+00
 Coeff-Com: -0.301D-06-0.410D-05-0.128D-04-0.267D-04 0.581D-04 0.670D-03
 Coeff-Com:  0.927D-03-0.128D-03-0.133D-01-0.270D-01 0.309D-01 0.260D+00
 Coeff-Com:  0.748D+00
 Coeff:     -0.301D-06-0.410D-05-0.128D-04-0.267D-04 0.581D-04 0.670D-03
 Coeff:      0.927D-03-0.128D-03-0.133D-01-0.270D-01 0.309D-01 0.260D+00
 Coeff:      0.748D+00
 Gap=     0.370 Goal=   None    Shift=    0.000
 RMSDP=4.72D-09 MaxDP=2.09D-07 DE=-7.46D-11 OVMax= 5.30D-07

 Error on total polarization charges =  0.00065
 SCF Done:  E(RCAM-B3LYP) =  -1828.51017427     A.U. after   13 cycles
            NFock= 13  Conv=0.47D-08     -V/T= 2.0069
 KE= 1.815895199467D+03 PE=-1.007013960519D+04 EE= 3.555705440662D+03
 Leave Link  502 at Thu Feb  6 02:20:36 2025, MaxMem=  5368709120 cpu:       338.0
 (Enter /home/k0335/k033513/app/g09/l601.exe)
 Copying SCF densities to generalized density rwf, IOpCl= 0 IROHF=0.

 **********************************************************************

            Population analysis using the SCF density.

 **********************************************************************

 Alpha  occ. eigenvalues --  -24.83769 -24.83662 -24.83638 -24.83339 -24.83237
 Alpha  occ. eigenvalues --  -24.83171 -24.83107 -24.83046 -24.82949 -24.82853
 Alpha  occ. eigenvalues --  -24.82832 -24.82631 -24.82516 -19.32643 -19.30197
 Alpha  occ. eigenvalues --  -19.25555 -10.55142 -10.53295 -10.50319 -10.49359
 Alpha  occ. eigenvalues --  -10.49305 -10.48088 -10.44503 -10.43684  -1.42097
 Alpha  occ. eigenvalues --   -1.40921  -1.38899  -1.38631  -1.38281  -1.36116
 Alpha  occ. eigenvalues --   -1.35718  -1.33078  -1.32956  -1.32384  -1.32119
 Alpha  occ. eigenvalues --   -1.31767  -1.31307  -1.22132  -1.20833  -1.12298
 Alpha  occ. eigenvalues --   -0.98252  -0.91982  -0.90305  -0.85123  -0.80361
 Alpha  occ. eigenvalues --   -0.78062  -0.76031  -0.74124  -0.72075  -0.71395
 Alpha  occ. eigenvalues --   -0.70988  -0.69979  -0.69181  -0.68412  -0.67876
 Alpha  occ. eigenvalues --   -0.67485  -0.66772  -0.65636  -0.65441  -0.64665
 Alpha  occ. eigenvalues --   -0.63331  -0.62551  -0.58675  -0.58245  -0.57864
 Alpha  occ. eigenvalues --   -0.57607  -0.57090  -0.56210  -0.55817  -0.55632
 Alpha  occ. eigenvalues --   -0.55301  -0.54543  -0.54279  -0.54199  -0.53823
 Alpha  occ. eigenvalues --   -0.53154  -0.52882  -0.52728  -0.52286  -0.51603
 Alpha  occ. eigenvalues --   -0.51312  -0.51078  -0.50810  -0.50291  -0.49985
 Alpha  occ. eigenvalues --   -0.49930  -0.49514  -0.49272  -0.48215  -0.47208
 Alpha  occ. eigenvalues --   -0.44945  -0.43533  -0.42930  -0.41125  -0.37767
 Alpha virt. eigenvalues --   -0.00746   0.04017   0.06680   0.07838   0.10932
 Alpha virt. eigenvalues --    0.12080   0.12932   0.16061   0.16662   0.20091
 Alpha virt. eigenvalues --    0.21551   0.23495   0.24383   0.25089   0.25568
 Alpha virt. eigenvalues --    0.26618   0.27705   0.28829   0.29598   0.30510
 Alpha virt. eigenvalues --    0.31823   0.34589   0.35133   0.35487   0.38695
 Alpha virt. eigenvalues --    0.41158   0.45909   0.48795   0.50259   0.51449
 Alpha virt. eigenvalues --    0.52298   0.52906   0.54264   0.55358   0.56812
 Alpha virt. eigenvalues --    0.58522   0.59454   0.60722   0.61271   0.62728
 Alpha virt. eigenvalues --    0.65685   0.66779   0.67956   0.69725   0.70630
 Alpha virt. eigenvalues --    0.71582   0.74291   0.76392   0.79124   0.79809
 Alpha virt. eigenvalues --    0.81202   0.85546   0.89267   0.90988   0.91938
 Alpha virt. eigenvalues --    0.93127   0.94946   0.97000   0.98336   0.99596
 Alpha virt. eigenvalues --    1.00105   1.03696   1.04698   1.06143   1.07768
 Alpha virt. eigenvalues --    1.08102   1.10373   1.11343   1.12339   1.13127
 Alpha virt. eigenvalues --    1.14171   1.16032   1.17175   1.18889   1.19602
 Alpha virt. eigenvalues --    1.21186   1.22882   1.23799   1.25132   1.26084
 Alpha virt. eigenvalues --    1.27944   1.28221   1.29617   1.30109   1.30523
 Alpha virt. eigenvalues --    1.31976   1.33275   1.33902   1.34936   1.36113
 Alpha virt. eigenvalues --    1.36849   1.37158   1.37238   1.38700   1.39556
 Alpha virt. eigenvalues --    1.40321   1.41214   1.41545   1.42029   1.42172
 Alpha virt. eigenvalues --    1.42847   1.43599   1.44753   1.45491   1.46644
 Alpha virt. eigenvalues --    1.48148   1.48809   1.50443   1.51083   1.52343
 Alpha virt. eigenvalues --    1.54423   1.55596   1.55765   1.57241   1.59017
 Alpha virt. eigenvalues --    1.59789   1.60929   1.62828   1.63698   1.64167
 Alpha virt. eigenvalues --    1.67043   1.67519   1.68798   1.71073   1.71705
 Alpha virt. eigenvalues --    1.72054   1.73915   1.74560   1.75458   1.76555
 Alpha virt. eigenvalues --    1.78125   1.78237   1.79623   1.80469   1.80721
 Alpha virt. eigenvalues --    1.82563   1.83562   1.84270   1.84677   1.85626
 Alpha virt. eigenvalues --    1.85835   1.87169   1.88168   1.89050   1.89669
 Alpha virt. eigenvalues --    1.90327   1.92050   1.92377   1.93807   1.94027
 Alpha virt. eigenvalues --    1.95585   1.96189   1.97539   1.98494   2.00324
 Alpha virt. eigenvalues --    2.01125   2.02232   2.02497   2.03913   2.04326
 Alpha virt. eigenvalues --    2.04543   2.05274   2.05922   2.06279   2.06657
 Alpha virt. eigenvalues --    2.06810   2.07658   2.09158   2.10192   2.10575
 Alpha virt. eigenvalues --    2.11320   2.11465   2.12312   2.13723   2.15888
 Alpha virt. eigenvalues --    2.16927   2.18409   2.19181   2.19712   2.21205
 Alpha virt. eigenvalues --    2.24319   2.24660   2.27458   2.27868   2.30108
 Alpha virt. eigenvalues --    2.31685   2.32765   2.33026   2.35432   2.36874
 Alpha virt. eigenvalues --    2.37294   2.39152   2.39611   2.40384   2.40850
 Alpha virt. eigenvalues --    2.43177   2.44571   2.46078   2.48196   2.50021
 Alpha virt. eigenvalues --    2.52488   2.53440   2.57352   2.58462   2.59194
 Alpha virt. eigenvalues --    2.60606   2.66232   2.66927   2.67193   2.69097
 Alpha virt. eigenvalues --    2.70786   2.74213   2.75455   2.76385   2.77062
 Alpha virt. eigenvalues --    2.81165   2.82010   2.83464   2.85998   2.87888
 Alpha virt. eigenvalues --    2.88926   2.90346   2.91593   2.92292   2.94340
 Alpha virt. eigenvalues --    2.95928   2.97771   3.00227   3.01979   3.06666
 Alpha virt. eigenvalues --    3.08134   3.10211   3.10758   3.11597   3.13133
 Alpha virt. eigenvalues --    3.13372   3.17711   3.19331   3.22040   3.23318
 Alpha virt. eigenvalues --    3.25767   3.29686   3.31389   3.32409   3.35683
 Alpha virt. eigenvalues --    3.47321   3.94731   4.19798   4.24135   4.32603
 Alpha virt. eigenvalues --    4.35859   4.40397   4.47304   4.61637   4.71059
 Alpha virt. eigenvalues --    4.74502   4.77246   4.80044   4.87457   5.09327
 Alpha virt. eigenvalues --    5.18830   5.23756   5.30368   5.39630   5.63310
 Alpha virt. eigenvalues --    5.77693   5.93637   6.19760   6.84325   7.28000
          Condensed to atoms (all electrons):
               1          2          3          4          5          6
     1  F    9.125958   0.204719  -0.025186   0.000351   0.010366  -0.000801
     2  C    0.204719   5.659273   0.083795  -0.042763  -0.052350   0.007838
     3  C   -0.025186   0.083795   4.846741   0.229797   0.225679  -0.042514
     4  F    0.000351  -0.042763   0.229797   9.112873  -0.014398  -0.000144
     5  C    0.010366  -0.052350   0.225679  -0.014398   4.187787   0.287384
     6  F   -0.000801   0.007838  -0.042514  -0.000144   0.287384   9.066383
     7  F   -0.001361   0.000770  -0.031151   0.000282   0.280249  -0.039821
     8  F    0.000002   0.002457  -0.024436  -0.000551   0.300902  -0.039835
     9  F   -0.000637  -0.023862   0.236865  -0.038673  -0.014162   0.000299
    10  C   -0.034937   0.116246  -0.030395   0.015533  -0.005608   0.006016
    11  O    0.000792  -0.022689  -0.002301  -0.001577   0.000137   0.000001
    12  C    0.001811  -0.087210  -0.001923   0.009227  -0.000231  -0.000007
    13  F   -0.000001   0.002545   0.000041   0.000000   0.000000   0.000000
    14  F   -0.000001  -0.003397   0.012468  -0.008661   0.000091   0.000000
    15  C   -0.008732   0.154780  -0.024679  -0.001323   0.002310   0.000093
    16  F   -0.001622  -0.037076   0.001997  -0.000001  -0.000025   0.000000
    17  F   -0.000325  -0.036987   0.005890  -0.000224   0.000069   0.000000
    18  C    0.016738  -0.031434   0.002557   0.000134   0.000457  -0.000690
    19  F   -0.002634  -0.000783  -0.000839   0.000000   0.000803   0.000077
    20  C    0.000241   0.003740  -0.000094   0.000000  -0.000022   0.000006
    21  O    0.000000  -0.000088   0.000000   0.000000   0.000000   0.000000
    22  O    0.000000  -0.000089   0.000001   0.000000   0.000000   0.000000
    23  F   -0.001394   0.004110   0.000079   0.000000   0.000001   0.000000
    24  F    0.000353  -0.032169   0.010693  -0.004290   0.000615  -0.007245
    25  H    0.000000   0.000009   0.000000   0.000000   0.000000   0.000000
               7          8          9         10         11         12
     1  F   -0.001361   0.000002  -0.000637  -0.034937   0.000792   0.001811
     2  C    0.000770   0.002457  -0.023862   0.116246  -0.022689  -0.087210
     3  C   -0.031151  -0.024436   0.236865  -0.030395  -0.002301  -0.001923
     4  F    0.000282  -0.000551  -0.038673   0.015533  -0.001577   0.009227
     5  C    0.280249   0.300902  -0.014162  -0.005608   0.000137  -0.000231
     6  F   -0.039821  -0.039835   0.000299   0.006016   0.000001  -0.000007
     7  F    9.077396  -0.039893  -0.000559  -0.000337   0.000000   0.000002
     8  F   -0.039893   9.050515  -0.000631   0.000030   0.000000   0.000000
     9  F   -0.000559  -0.000631   9.110575   0.002477  -0.000006  -0.001010
    10  C   -0.000337   0.000030   0.002477   5.027032   0.143713  -0.003848
    11  O    0.000000   0.000000  -0.000006   0.143713   8.402956   0.177027
    12  C    0.000002   0.000000  -0.001010  -0.003848   0.177027   4.425646
    13  F    0.000000   0.000000   0.000000   0.000658  -0.040791   0.307275
    14  F    0.000000   0.000000  -0.000181   0.001660  -0.051161   0.273576
    15  C   -0.000057  -0.000024   0.001286  -0.060190  -0.031315   0.191073
    16  F    0.000000   0.000000   0.000002   0.005911  -0.001297  -0.022033
    17  F    0.000000   0.000000  -0.004250   0.002301   0.000763  -0.023048
    18  C    0.000058   0.000000  -0.000019   0.215910  -0.035010   0.002751
    19  F   -0.000015   0.000000   0.000000  -0.022645   0.000636   0.000041
    20  C    0.000000   0.000000   0.000000  -0.062103  -0.000527  -0.000230
    21  O    0.000000   0.000000   0.000000   0.000361   0.001288   0.000167
    22  O    0.000000   0.000000   0.000000   0.002509  -0.000260  -0.000007
    23  F    0.000000   0.000000   0.000000  -0.034334   0.001015   0.000427
    24  F   -0.000003  -0.000010   0.000004   0.236575  -0.046790   0.000314
    25  H    0.000000   0.000000   0.000000  -0.000207   0.000061  -0.000002
              13         14         15         16         17         18
     1  F   -0.000001  -0.000001  -0.008732  -0.001622  -0.000325   0.016738
     2  C    0.002545  -0.003397   0.154780  -0.037076  -0.036987  -0.031434
     3  C    0.000041   0.012468  -0.024679   0.001997   0.005890   0.002557
     4  F    0.000000  -0.008661  -0.001323  -0.000001  -0.000224   0.000134
     5  C    0.000000   0.000091   0.002310  -0.000025   0.000069   0.000457
     6  F    0.000000   0.000000   0.000093   0.000000   0.000000  -0.000690
     7  F    0.000000   0.000000  -0.000057   0.000000   0.000000   0.000058
     8  F    0.000000   0.000000  -0.000024   0.000000   0.000000   0.000000
     9  F    0.000000  -0.000181   0.001286   0.000002  -0.004250  -0.000019
    10  C    0.000658   0.001660  -0.060190   0.005911   0.002301   0.215910
    11  O   -0.040791  -0.051161  -0.031315  -0.001297   0.000763  -0.035010
    12  C    0.307275   0.273576   0.191073  -0.022033  -0.023048   0.002751
    13  F    9.036495  -0.041362  -0.021495  -0.000518  -0.000170   0.000048
    14  F   -0.041362   9.085225  -0.030485   0.000340  -0.000020  -0.000004
    15  C   -0.021495  -0.030485   4.739806   0.257662   0.281304  -0.006439
    16  F   -0.000518   0.000340   0.257662   9.102260  -0.041784   0.002004
    17  F   -0.000170  -0.000020   0.281304  -0.041784   9.063281   0.000014
    18  C    0.000048  -0.000004  -0.006439   0.002004   0.000014   4.593265
    19  F    0.000000   0.000000   0.000148  -0.000008   0.000000   0.259731
    20  C   -0.000012  -0.000002   0.000291  -0.000074   0.000000   0.241812
    21  O    0.000000   0.000000  -0.000022   0.000001   0.000000  -0.072608
    22  O    0.000000   0.000000   0.000002   0.000000   0.000000  -0.050667
    23  F   -0.000009   0.000000   0.002308  -0.002686   0.000000   0.263898
    24  F   -0.000003  -0.000022   0.001560   0.000000  -0.000001  -0.032880
    25  H    0.000000   0.000000   0.000001   0.000000   0.000000   0.007565
              19         20         21         22         23         24
     1  F   -0.002634   0.000241   0.000000   0.000000  -0.001394   0.000353
     2  C   -0.000783   0.003740  -0.000088  -0.000089   0.004110  -0.032169
     3  C   -0.000839  -0.000094   0.000000   0.000001   0.000079   0.010693
     4  F    0.000000   0.000000   0.000000   0.000000   0.000000  -0.004290
     5  C    0.000803  -0.000022   0.000000   0.000000   0.000001   0.000615
     6  F    0.000077   0.000006   0.000000   0.000000   0.000000  -0.007245
     7  F   -0.000015   0.000000   0.000000   0.000000   0.000000  -0.000003
     8  F    0.000000   0.000000   0.000000   0.000000   0.000000  -0.000010
     9  F    0.000000   0.000000   0.000000   0.000000   0.000000   0.000004
    10  C   -0.022645  -0.062103   0.000361   0.002509  -0.034334   0.236575
    11  O    0.000636  -0.000527   0.001288  -0.000260   0.001015  -0.046790
    12  C    0.000041  -0.000230   0.000167  -0.000007   0.000427   0.000314
    13  F    0.000000  -0.000012   0.000000   0.000000  -0.000009  -0.000003
    14  F    0.000000  -0.000002   0.000000   0.000000   0.000000  -0.000022
    15  C    0.000148   0.000291  -0.000022   0.000002   0.002308   0.001560
    16  F   -0.000008  -0.000074   0.000001   0.000000  -0.002686   0.000000
    17  F    0.000000   0.000000   0.000000   0.000000   0.000000  -0.000001
    18  C    0.259731   0.241812  -0.072608  -0.050667   0.263898  -0.032880
    19  F    9.101941  -0.026762   0.000632  -0.001600  -0.039366  -0.000203
    20  C   -0.026762   4.535360   0.259180   0.560061  -0.030106   0.006971
    21  O    0.000632   0.259180   8.092881  -0.096731   0.002605   0.000040
    22  O   -0.001600   0.560061  -0.096731   8.019347   0.000643  -0.001081
    23  F   -0.039366  -0.030106   0.002605   0.000643   9.098476   0.000325
    24  F   -0.000203   0.006971   0.000040  -0.001081   0.000325   9.134954
    25  H   -0.000044  -0.012648   0.281498   0.009122  -0.000104   0.000003
              25
     1  F    0.000000
     2  C    0.000009
     3  C    0.000000
     4  F    0.000000
     5  C    0.000000
     6  F    0.000000
     7  F    0.000000
     8  F    0.000000
     9  F    0.000000
    10  C   -0.000207
    11  O    0.000061
    12  C   -0.000002
    13  F    0.000000
    14  F    0.000000
    15  C    0.000001
    16  F    0.000000
    17  F    0.000000
    18  C    0.007565
    19  F   -0.000044
    20  C   -0.012648
    21  O    0.281498
    22  O    0.009122
    23  F   -0.000104
    24  F    0.000003
    25  H    0.353584
 Mulliken charges:
               1
     1  F   -0.283700
     2  C    0.130617
     3  C    0.526914
     4  F   -0.255591
     5  C    0.789947
     6  F   -0.237037
     7  F   -0.245558
     8  F   -0.248526
     9  F   -0.267518
    10  C    0.477671
    11  O   -0.494665
    12  C    0.750212
    13  F   -0.242701
    14  F   -0.238067
    15  C    0.552140
    16  F   -0.263055
    17  F   -0.246813
    18  C    0.622809
    19  F   -0.269107
    20  C    0.524917
    21  O   -0.469204
    22  O   -0.441251
    23  F   -0.265888
    24  F   -0.267710
    25  H    0.361163
 Sum of Mulliken charges =   0.00000
 Mulliken charges with hydrogens summed into heavy atoms:
               1
     1  F   -0.283700
     2  C    0.130617
     3  C    0.526914
     4  F   -0.255591
     5  C    0.789947
     6  F   -0.237037
     7  F   -0.245558
     8  F   -0.248526
     9  F   -0.267518
    10  C    0.477671
    11  O   -0.494665
    12  C    0.750212
    13  F   -0.242701
    14  F   -0.238067
    15  C    0.552140
    16  F   -0.263055
    17  F   -0.246813
    18  C    0.622809
    19  F   -0.269107
    20  C    0.524917
    21  O   -0.108041
    22  O   -0.441251
    23  F   -0.265888
    24  F   -0.267710
 Electronic spatial extent (au):  <R**2>=           5486.5287
 Charge=              0.0000 electrons
 Dipole moment (field-independent basis, Debye):
    X=             -1.6274    Y=             -0.6974    Z=              0.6103  Tot=              1.8728
 Quadrupole moment (field-independent basis, Debye-Ang):
   XX=           -114.7684   YY=           -128.2444   ZZ=           -131.2509
   XY=              0.2470   XZ=              2.4287   YZ=              2.2179
 Traceless Quadrupole moment (field-independent basis, Debye-Ang):
   XX=              9.9862   YY=             -3.4899   ZZ=             -6.4963
   XY=              0.2470   XZ=              2.4287   YZ=              2.2179
 Octapole moment (field-independent basis, Debye-Ang**2):
  XXX=           -130.5669  YYY=              3.9132  ZZZ=              5.1861  XYY=            -16.9473
  XXY=              1.4800  XXZ=            -21.6512  XZZ=             -7.3869  YZZ=             -8.4919
  YYZ=              0.7818  XYZ=             -6.3089
 Hexadecapole moment (field-independent basis, Debye-Ang**3):
 XXXX=          -2531.8266 YYYY=          -1329.0919 ZZZZ=          -1392.7498 XXXY=             55.1593
 XXXZ=            134.0073 YYYX=             61.2888 YYYZ=            282.8359 ZZZX=            -25.8173
 ZZZY=            300.8604 XXYY=           -710.1785 XXZZ=           -725.7920 YYZZ=           -454.0793
 XXYZ=            111.5782 YYXZ=             -4.4430 ZZXY=             46.1493
 N-N= 2.870028790792D+03 E-N=-1.007013960611D+04  KE= 1.815895199467D+03
 No NMR shielding tensors so no spin-rotation constants.
 Leave Link  601 at Thu Feb  6 02:20:36 2025, MaxMem=  5368709120 cpu:         2.5
 (Enter /home/k0335/k033513/app/g09/l701.exe)
 Compute integral first derivatives.
 ... and contract with generalized density number  0.
 D1PCM: PCM CHGder 1st derivatives, ID1Alg=3 FixD1E=F DoIter=F DoCFld=F I1PDM=0.
 GePol: Maximum number of non-zero 1st derivatives   =     206
 Leave Link  701 at Thu Feb  6 02:20:37 2025, MaxMem=  5368709120 cpu:        17.2
 (Enter /home/k0335/k033513/app/g09/l702.exe)
 L702 exits ... SP integral derivatives will be done elsewhere.
 Leave Link  702 at Thu Feb  6 02:20:37 2025, MaxMem=  5368709120 cpu:         0.2
 (Enter /home/k0335/k033513/app/g09/l703.exe)
 Compute integral first derivatives, UseDBF=F ICtDFT=           0.
 Integral derivatives from FoFJK, PRISM(SPDF).
 Calling FoFJK, ICntrl=      2127 FMM=F ISym2X=0 I1Cent= 0 IOpClX= 0 NMat=1 NMatS=1 NMatT=0.
 FoFJK:  IHMeth= 1 ICntrl=    2127 DoSepK=T KAlg= 0 I1Cent=   0 FoldK=F
 IRaf=         1 NMat=   1 IRICut=       1 DoRegI=T DoRafI=F ISym2E= 0.
 FoFCou: FMM=F IPFlag=           0 FMFlag=      100000 FMFlg1=         800
         NFxFlg=           0 DoJE=F BraDBF=F KetDBF=F FulRan=T
         wScrn=  0.000000 ICntrl=    2527 IOpCl=  0 I1Cent=           0 NGrid=           0
         NMat0=    1 NMatS0=      1 NMatT0=    0 NMatD0=    1 NMtDS0=    0 NMtDT0=    0
 Symmetry not used in FoFCou.
 Leave Link  703 at Thu Feb  6 02:20:42 2025, MaxMem=  5368709120 cpu:       123.0
 (Enter /home/k0335/k033513/app/g09/l716.exe)
 Dipole        =-6.40286065D-01-2.74362229D-01 2.40123933D-01
 -------------------------------------------------------------------
 Center     Atomic                   Forces (Hartrees/Bohr)
 Number     Number              X              Y              Z
 -------------------------------------------------------------------
      1        9          -0.000133092    0.000226253    0.001272522
      2        6          -0.003642112    0.007245302    0.008144070
      3        6           0.020480081   -0.021132273    0.002779584
      4        9           0.007226076    0.019364176   -0.006521443
      5        6           0.024036024    0.032103326   -0.029525826
      6        9           0.015873351   -0.004058020    0.013662150
      7        9          -0.004396196   -0.020007234   -0.003341795
      8        9          -0.018103274   -0.002586473    0.014058790
      9        9          -0.004541397    0.014000254   -0.013992113
     10        6          -0.004329241   -0.018741547   -0.020137904
     11        8           0.027554472    0.028253006    0.031207208
     12        6          -0.034729182   -0.035431239   -0.017307371
     13        9           0.009733914    0.011436635   -0.008152704
     14        9          -0.004681564    0.000678318    0.016997400
     15        6           0.002170215    0.003549887    0.035209395
     16        9           0.008433847   -0.011140650   -0.007805748
     17        9          -0.007060702   -0.007282923   -0.004792996
     18        6           0.004475311    0.015949261    0.014826350
     19        9          -0.011452903   -0.017222397   -0.009936059
     20        6          -0.050029779   -0.000370816   -0.038892997
     21        8           0.016912957    0.007556285    0.000799226
     22        8           0.022925834   -0.000132048    0.033501625
     23        9          -0.005997221   -0.004729277   -0.020171538
     24        9          -0.017854744    0.002768271    0.001572564
     25        1           0.007129324   -0.000296076    0.006547609
 -------------------------------------------------------------------
 Cartesian Forces:  Max     0.050029779 RMS     0.017132499
 Leave Link  716 at Thu Feb  6 02:20:42 2025, MaxMem=  5368709120 cpu:         0.3
 (Enter /home/k0335/k033513/app/g09/l103.exe)

 GradGradGradGradGradGradGradGradGradGradGradGradGradGradGradGradGradGrad
 Berny optimization.
 FormGI is forming the generalized inverse of G from B-inverse, IUseBI=4.
 Internal  Forces:  Max     0.039490145 RMS     0.012293972
 Search for a local minimum.
 Step number   1 out of a maximum of  150
 All quantities printed in internal units (Hartrees-Bohrs-Radians)
 RMS Force = .12294D-01 SwitMx=.10000D-02 MixMth= 1
 Mixed Optimization -- RFO/linear search
 Second derivative matrix not updated -- first step.
 ITU=  0
     Eigenvalues ---    0.00277   0.00326   0.00465   0.00499   0.00644
     Eigenvalues ---    0.00870   0.00973   0.02308   0.03799   0.04785
     Eigenvalues ---    0.05254   0.05624   0.05737   0.06529   0.06535
     Eigenvalues ---    0.06758   0.07000   0.07799   0.07870   0.08017
     Eigenvalues ---    0.08352   0.08614   0.09534   0.10250   0.10778
     Eigenvalues ---    0.11535   0.13051   0.13555   0.14550   0.16000
     Eigenvalues ---    0.17504   0.17623   0.18786   0.19128   0.19378
     Eigenvalues ---    0.19466   0.23223   0.24999   0.25000   0.25000
     Eigenvalues ---    0.25000   0.25000   0.25000   0.25000   0.27372
     Eigenvalues ---    0.28790   0.29126   0.30101   0.30205   0.30350
     Eigenvalues ---    0.30626   0.37729   0.39760   0.50995   0.51680
     Eigenvalues ---    0.51747   0.52249   0.52441   0.53042   0.53340
     Eigenvalues ---    0.53640   0.53963   0.54098   0.54297   0.55221
     Eigenvalues ---    0.55584   0.55842   0.56916   0.94324
 RFO step:  Lambda=-7.21372874D-02 EMin= 2.76983818D-03
 Linear search not attempted -- first point.
 Maximum step size (   0.300) exceeded in Quadratic search.
    -- Step size scaled by   0.749
 Iteration  1 RMS(Cart)=  0.12232336 RMS(Int)=  0.00421579
 Iteration  2 RMS(Cart)=  0.00532903 RMS(Int)=  0.00061126
 Iteration  3 RMS(Cart)=  0.00001652 RMS(Int)=  0.00061113
 Iteration  4 RMS(Cart)=  0.00000001 RMS(Int)=  0.00061113
 ITry= 1 IFail=0 DXMaxC= 5.05D-01 DCOld= 1.00D+10 DXMaxT= 3.00D-01 DXLimC= 3.00D+00 Rises=F
 Variable       Old X    -DE/DX   Delta X   Delta X   Delta X     New X
                                 (Linear)    (Quad)   (Total)
    R1        2.56914   0.00061   0.00000   0.00076   0.00076   2.56990
    R2        2.87271   0.03949   0.00000   0.07878   0.07878   2.95148
    R3        2.90277   0.03486   0.00000   0.07505   0.07518   2.97795
    R4        2.84327   0.03936   0.00000   0.07910   0.07911   2.92238
    R5        2.56361  -0.01447   0.00000  -0.01782  -0.01782   2.54579
    R6        2.89741   0.01325   0.00000   0.02731   0.02731   2.92472
    R7        2.58207  -0.01557   0.00000  -0.01981  -0.01981   2.56225
    R8        2.54936  -0.02112   0.00000  -0.02534  -0.02534   2.52402
    R9        2.55942  -0.01930   0.00000  -0.02359  -0.02359   2.53584
   R10        2.56065  -0.02069   0.00000  -0.02534  -0.02534   2.53531
   R11        2.72713  -0.01283   0.00000  -0.02172  -0.02156   2.70557
   R12        2.90444   0.00949   0.00000   0.01974   0.01974   2.92418
   R13        2.56638  -0.00628   0.00000  -0.00777  -0.00777   2.55861
   R14        2.69163  -0.01735   0.00000  -0.02924  -0.02927   2.66236
   R15        2.54392  -0.01658   0.00000  -0.01970  -0.01970   2.52422
   R16        2.54616  -0.01029   0.00000  -0.01228  -0.01228   2.53388
   R17        2.85325   0.00875   0.00000   0.01513   0.01486   2.86811
   R18        2.57662  -0.01552   0.00000  -0.01956  -0.01956   2.55706
   R19        2.53468  -0.00608   0.00000  -0.00711  -0.00711   2.52757
   R20        2.58142  -0.01774   0.00000  -0.02254  -0.02254   2.55888
   R21        2.87763   0.00024   0.00000   0.00049   0.00049   2.87812
   R22        2.57480  -0.01822   0.00000  -0.02288  -0.02288   2.55191
   R23        2.55763  -0.01840   0.00000  -0.02241  -0.02241   2.53521
   R24        2.31002  -0.03421   0.00000  -0.02525  -0.02525   2.28477
   R25        1.85574  -0.00963   0.00000  -0.01239  -0.01239   1.84335
    A1        1.88783  -0.01399   0.00000  -0.04563  -0.04537   1.84246
    A2        1.97484   0.00597   0.00000   0.01419   0.01430   1.98914
    A3        1.90397   0.00108   0.00000  -0.01394  -0.01363   1.89034
    A4        1.96898   0.01063   0.00000   0.03224   0.03217   2.00115
    A5        1.97647   0.01393   0.00000   0.04696   0.04748   2.02395
    A6        1.75009  -0.01662   0.00000  -0.03027  -0.03143   1.71866
    A7        1.92989   0.00010   0.00000   0.02133   0.02157   1.95146
    A8        1.96803   0.02782   0.00000   0.06380   0.06403   2.03205
    A9        1.90648  -0.00168   0.00000  -0.00154   0.00008   1.90656
   A10        1.93376  -0.01500   0.00000  -0.03628  -0.03813   1.89563
   A11        1.83909   0.00970   0.00000   0.02437   0.02234   1.86143
   A12        1.88124  -0.02270   0.00000  -0.07683  -0.07715   1.80410
   A13        1.97465   0.01168   0.00000   0.03153   0.03181   2.00646
   A14        1.94685  -0.01056   0.00000  -0.02510  -0.02553   1.92132
   A15        1.94111  -0.01790   0.00000  -0.04540  -0.04571   1.89541
   A16        1.86228   0.00307   0.00000   0.01402   0.01416   1.87643
   A17        1.86992   0.00431   0.00000   0.01114   0.01154   1.88146
   A18        1.86298   0.01074   0.00000   0.01664   0.01556   1.87854
   A19        1.89956  -0.01104   0.00000  -0.02120  -0.02023   1.87932
   A20        1.97184   0.02296   0.00000   0.05992   0.05968   2.03152
   A21        1.91164   0.00914   0.00000   0.04620   0.04719   1.95883
   A22        1.95045  -0.01027   0.00000  -0.03798  -0.03789   1.91256
   A23        1.83292   0.00813   0.00000   0.01217   0.01039   1.84331
   A24        1.89208  -0.01961   0.00000  -0.06086  -0.06260   1.82948
   A25        1.86218   0.03540   0.00000   0.08059   0.08054   1.94273
   A26        1.90330   0.00702   0.00000   0.01377   0.01342   1.91672
   A27        1.86726   0.01403   0.00000   0.04483   0.04475   1.91200
   A28        1.86753  -0.01707   0.00000  -0.04009  -0.04035   1.82718
   A29        1.87600  -0.00284   0.00000  -0.00722  -0.00757   1.86844
   A30        1.98075   0.00038   0.00000  -0.00864  -0.00877   1.97198
   A31        1.96523  -0.00020   0.00000   0.00162   0.00209   1.96732
   A32        1.78994   0.01138   0.00000   0.04235   0.04233   1.83227
   A33        1.89853  -0.00467   0.00000  -0.01689  -0.01636   1.88217
   A34        2.01259   0.00477   0.00000   0.02427   0.02444   2.03703
   A35        1.90097  -0.00750   0.00000  -0.03642  -0.03660   1.86437
   A36        2.00813  -0.00806   0.00000  -0.02045  -0.02164   1.98649
   A37        1.85076   0.00312   0.00000   0.00286   0.00233   1.85308
   A38        1.89983  -0.00237   0.00000  -0.00473  -0.00483   1.89500
   A39        1.90887   0.00768   0.00000   0.01141   0.01148   1.92034
   A40        1.91557   0.00547   0.00000   0.02432   0.02436   1.93993
   A41        1.93982  -0.00872   0.00000  -0.03378  -0.03390   1.90592
   A42        1.84334   0.00820   0.00000   0.03338   0.03283   1.87617
   A43        1.95495  -0.01016   0.00000  -0.02934  -0.02951   1.92543
   A44        1.98855  -0.01505   0.00000  -0.03502  -0.03503   1.95351
   A45        2.21226  -0.01772   0.00000  -0.04125  -0.04125   2.17101
   A46        2.08232   0.03277   0.00000   0.07620   0.07619   2.15851
   A47        1.83291   0.00024   0.00000   0.00076   0.00076   1.83367
    D1       -2.94705   0.00706   0.00000   0.05010   0.04958  -2.89747
    D2       -0.77129   0.00815   0.00000   0.06637   0.06674  -0.70455
    D3        1.31991  -0.00374   0.00000   0.00947   0.00961   1.32952
    D4       -0.74904   0.01175   0.00000   0.05683   0.05577  -0.69328
    D5        1.42672   0.01284   0.00000   0.07310   0.07293   1.49965
    D6       -2.76526   0.00095   0.00000   0.01620   0.01580  -2.74946
    D7        1.22372   0.00654   0.00000   0.06947   0.06951   1.29323
    D8       -2.88370   0.00763   0.00000   0.08574   0.08667  -2.79704
    D9       -0.79250  -0.00426   0.00000   0.02884   0.02954  -0.76296
   D10       -2.47295   0.01108   0.00000   0.07243   0.07217  -2.40078
   D11       -0.29569   0.00575   0.00000   0.04971   0.04914  -0.24655
   D12        1.81533   0.00254   0.00000   0.04479   0.04573   1.86106
   D13        1.65984   0.01680   0.00000   0.09712   0.09645   1.75630
   D14       -2.44608   0.01146   0.00000   0.07439   0.07342  -2.37266
   D15       -0.33506   0.00826   0.00000   0.06948   0.07001  -0.26504
   D16       -0.44770   0.00540   0.00000   0.04497   0.04434  -0.40337
   D17        1.72956   0.00007   0.00000   0.02224   0.02130   1.75086
   D18       -2.44260  -0.00314   0.00000   0.01733   0.01790  -2.42471
   D19        2.70671  -0.00301   0.00000  -0.04008  -0.04053   2.66618
   D20        0.69524   0.00191   0.00000  -0.01236  -0.01227   0.68298
   D21       -1.38038  -0.00180   0.00000  -0.01951  -0.01901  -1.39940
   D22       -1.47320  -0.01090   0.00000  -0.07708  -0.07748  -1.55067
   D23        2.79852  -0.00599   0.00000  -0.04936  -0.04921   2.74931
   D24        0.72289  -0.00970   0.00000  -0.05650  -0.05596   0.66694
   D25        0.62897  -0.00193   0.00000  -0.03553  -0.03642   0.59255
   D26       -1.38251   0.00298   0.00000  -0.00781  -0.00815  -1.39066
   D27        2.82505  -0.00073   0.00000  -0.01495  -0.01489   2.81016
   D28       -1.00237  -0.00331   0.00000  -0.01546  -0.01565  -1.01802
   D29        1.09749   0.00127   0.00000   0.00681   0.00635   1.10384
   D30       -3.10797  -0.00411   0.00000  -0.01911  -0.01883  -3.12680
   D31        1.17127   0.00612   0.00000   0.03254   0.03147   1.20274
   D32       -3.01205   0.01070   0.00000   0.05480   0.05347  -2.95858
   D33       -0.93433   0.00531   0.00000   0.02889   0.02829  -0.90604
   D34       -3.10807  -0.00311   0.00000  -0.00111  -0.00006  -3.10813
   D35       -1.00821   0.00147   0.00000   0.02115   0.02194  -0.98628
   D36        1.06951  -0.00391   0.00000  -0.00477  -0.00324   1.06627
   D37        0.06685   0.00140   0.00000  -0.01318  -0.01354   0.05331
   D38       -2.12293  -0.01283   0.00000  -0.04798  -0.04890  -2.17183
   D39        2.11250   0.01096   0.00000   0.03662   0.03682   2.14933
   D40        0.99890   0.01295   0.00000   0.05838   0.05802   1.05692
   D41        3.12131   0.00552   0.00000   0.02104   0.02055  -3.14132
   D42       -1.01069   0.00149   0.00000   0.00788   0.00741  -1.00327
   D43       -3.13499   0.00779   0.00000   0.04637   0.04565  -3.08934
   D44       -1.01258   0.00036   0.00000   0.00903   0.00818  -1.00439
   D45        1.13861  -0.00367   0.00000  -0.00413  -0.00496   1.13365
   D46       -1.12319   0.00020   0.00000   0.00358   0.00489  -1.11830
   D47        0.99922  -0.00724   0.00000  -0.03376  -0.03258   0.96664
   D48       -3.13278  -0.01126   0.00000  -0.04692  -0.04572   3.10469
   D49        2.50010  -0.00840   0.00000  -0.04117  -0.04140   2.45870
   D50       -1.75904  -0.00069   0.00000  -0.01876  -0.01802  -1.77706
   D51        0.35110  -0.00256   0.00000  -0.01430  -0.01428   0.33682
   D52       -0.63684   0.00432   0.00000   0.03626   0.03666  -0.60018
   D53        1.37286   0.00148   0.00000   0.02277   0.02265   1.39551
   D54       -2.83582  -0.00517   0.00000  -0.01315  -0.01257  -2.84839
   D55       -2.73707   0.00697   0.00000   0.05168   0.05175  -2.68532
   D56       -0.72737   0.00413   0.00000   0.03819   0.03774  -0.68963
   D57        1.34713  -0.00252   0.00000   0.00227   0.00252   1.34965
   D58        1.40989   0.01062   0.00000   0.06670   0.06686   1.47675
   D59       -2.86359   0.00778   0.00000   0.05321   0.05284  -2.81075
   D60       -0.78909   0.00113   0.00000   0.01729   0.01763  -0.77147
   D61        1.65477   0.00257   0.00000   0.00883   0.00880   1.66357
   D62       -1.47561   0.00326   0.00000   0.01575   0.01558  -1.46003
   D63       -2.53031  -0.00089   0.00000  -0.01097  -0.01102  -2.54134
   D64        0.62249  -0.00020   0.00000  -0.00405  -0.00424   0.61825
   D65       -0.47291  -0.00294   0.00000  -0.01039  -0.01010  -0.48301
   D66        2.67989  -0.00225   0.00000  -0.00347  -0.00332   2.67657
   D67        3.12901   0.00143   0.00000   0.01106   0.01127   3.14029
   D68       -0.02288   0.00047   0.00000   0.00394   0.00373  -0.01915
         Item               Value     Threshold  Converged?
 Maximum Force            0.039490     0.000450     NO 
 RMS     Force            0.012294     0.000300     NO 
 Maximum Displacement     0.504538     0.001800     NO 
 RMS     Displacement     0.122080     0.001200     NO 
 Predicted change in Energy=-4.097075D-02
 Lowest energy point so far.  Saving SCF results.
 GradGradGradGradGradGradGradGradGradGradGradGradGradGradGradGradGradGrad

 Leave Link  103 at Thu Feb  6 02:20:43 2025, MaxMem=  5368709120 cpu:         4.9
 (Enter /home/k0335/k033513/app/g09/l202.exe)
                          Input orientation:                          
 ---------------------------------------------------------------------
 Center     Atomic      Atomic             Coordinates (Angstroms)
 Number     Number       Type             X           Y           Z
 ---------------------------------------------------------------------
      1          9           0        1.000801    1.371510    0.998653
      2          6           0        0.782488    0.117586    0.519660
      3          6           0        2.083797   -0.268351   -0.253029
      4          9           0        1.901063   -1.353132   -1.030675
      5          6           0        2.734798    0.846936   -1.106083
      6          9           0        1.946256    1.367249   -2.050247
      7          9           0        3.138539    1.854357   -0.316899
      8          9           0        3.821586    0.343812   -1.710834
[...]
    23  F    2.678125   3.358233   0.000000
    24  F    3.343749   3.223410   3.498388   0.000000
    25  H    0.972143   2.344142   3.588800   3.958191   0.000000
 Symmetry turned off by external request.
 Stoichiometry    C8HF13O3
 Framework group  C1[X(C8HF13O3)]
 Deg. of freedom    69
 Full point group                 C1      NOp   1
 Rotational constants (GHZ):      0.3064066      0.2855279      0.1920319
 Leave Link  202 at Thu Feb  6 02:48:05 2025, MaxMem=  5368709120 cpu:         0.4
 (Enter /home/k0335/k033513/app/g09/l601.exe)
 Copying SCF densities to generalized density rwf, IOpCl= 0 IROHF=0.

 **********************************************************************

            Population analysis using the SCF density.

 **********************************************************************

 Alpha  occ. eigenvalues --  -24.83454 -24.83243 -24.83182 -24.83161 -24.83126
 Alpha  occ. eigenvalues --  -24.83037 -24.82910 -24.82796 -24.82785 -24.82745
 Alpha  occ. eigenvalues --  -24.82654 -24.82370 -24.82196 -19.32234 -19.30672
 Alpha  occ. eigenvalues --  -19.25294 -10.54295 -10.52501 -10.48869 -10.48651
 Alpha  occ. eigenvalues --  -10.48030 -10.47299 -10.43783 -10.43056  -1.42841
 Alpha  occ. eigenvalues --   -1.41263  -1.39044  -1.38542  -1.38165  -1.35660
 Alpha  occ. eigenvalues --   -1.34981  -1.33595  -1.33374  -1.33000  -1.32312
 Alpha  occ. eigenvalues --   -1.32152  -1.31936  -1.22992  -1.22634  -1.13967
 Alpha  occ. eigenvalues --   -0.95081  -0.91572  -0.88267  -0.84340  -0.80289
 Alpha  occ. eigenvalues --   -0.77553  -0.75804  -0.73675  -0.72089  -0.71304
 Alpha  occ. eigenvalues --   -0.70102  -0.69990  -0.69653  -0.69005  -0.67579
 Alpha  occ. eigenvalues --   -0.67434  -0.66878  -0.66060  -0.65339  -0.64557
 Alpha  occ. eigenvalues --   -0.64081  -0.62524  -0.58694  -0.58184  -0.57793
 Alpha  occ. eigenvalues --   -0.57009  -0.56215  -0.56153  -0.55614  -0.55265
 Alpha  occ. eigenvalues --   -0.54913  -0.54773  -0.54213  -0.53960  -0.53679
 Alpha  occ. eigenvalues --   -0.53339  -0.52750  -0.52557  -0.52311  -0.51918
 Alpha  occ. eigenvalues --   -0.51457  -0.51213  -0.50779  -0.50473  -0.50302
 Alpha  occ. eigenvalues --   -0.49656  -0.49227  -0.49019  -0.47462  -0.46877
 Alpha  occ. eigenvalues --   -0.44632  -0.43198  -0.41999  -0.41568  -0.37707
 Alpha virt. eigenvalues --    0.00957   0.05342   0.09308   0.09757   0.11446
 Alpha virt. eigenvalues --    0.13409   0.15468   0.17809   0.18680   0.22563
 Alpha virt. eigenvalues --    0.23341   0.24552   0.25429   0.26133   0.26756
 Alpha virt. eigenvalues --    0.27914   0.28690   0.30074   0.30868   0.31229
 Alpha virt. eigenvalues --    0.31943   0.35073   0.35273   0.37709   0.38961
 Alpha virt. eigenvalues --    0.43388   0.46491   0.49165   0.50438   0.51032
 Alpha virt. eigenvalues --    0.51935   0.52979   0.54588   0.55957   0.56319
 Alpha virt. eigenvalues --    0.58880   0.60257   0.61128   0.63262   0.63777
 Alpha virt. eigenvalues --    0.65209   0.67529   0.69026   0.69444   0.70921
 Alpha virt. eigenvalues --    0.71988   0.74636   0.76688   0.78714   0.79135
 Alpha virt. eigenvalues --    0.80451   0.85641   0.87680   0.89375   0.90444
 Alpha virt. eigenvalues --    0.92782   0.94559   0.95596   0.98375   1.00758
 Alpha virt. eigenvalues --    1.03078   1.05662   1.07236   1.07748   1.08640
 Alpha virt. eigenvalues --    1.09998   1.10449   1.11853   1.13084   1.13532
 Alpha virt. eigenvalues --    1.14837   1.15971   1.16478   1.18042   1.19197
 Alpha virt. eigenvalues --    1.20455   1.22010   1.23446   1.24520   1.27590
 Alpha virt. eigenvalues --    1.28057   1.30643   1.31013   1.31891   1.33365
 Alpha virt. eigenvalues --    1.33942   1.35244   1.35726   1.36755   1.37468
 Alpha virt. eigenvalues --    1.37668   1.38297   1.38738   1.39318   1.39824
 Alpha virt. eigenvalues --    1.40633   1.41948   1.42329   1.42944   1.43346
 Alpha virt. eigenvalues --    1.44192   1.44677   1.45395   1.46543   1.47901
 Alpha virt. eigenvalues --    1.48506   1.49145   1.50474   1.51162   1.51980
 Alpha virt. eigenvalues --    1.53301   1.54540   1.56080   1.57031   1.58131
 Alpha virt. eigenvalues --    1.58829   1.59896   1.60796   1.61381   1.63450
 Alpha virt. eigenvalues --    1.65703   1.68081   1.68650   1.69575   1.70817
 Alpha virt. eigenvalues --    1.71123   1.71811   1.74150   1.75383   1.76025
 Alpha virt. eigenvalues --    1.76946   1.77796   1.79407   1.79558   1.80874
 Alpha virt. eigenvalues --    1.82136   1.83164   1.83676   1.84553   1.85864
 Alpha virt. eigenvalues --    1.86363   1.87099   1.87596   1.87950   1.88446
 Alpha virt. eigenvalues --    1.88901   1.89315   1.90057   1.91162   1.91973
 Alpha virt. eigenvalues --    1.93059   1.94178   1.95215   1.97088   1.97773
 Alpha virt. eigenvalues --    1.98955   2.00331   2.01206   2.02342   2.03259
 Alpha virt. eigenvalues --    2.03688   2.04283   2.04426   2.04984   2.05506
 Alpha virt. eigenvalues --    2.07162   2.07201   2.08972   2.09674   2.10374
 Alpha virt. eigenvalues --    2.11622   2.12577   2.13411   2.14924   2.16146
 Alpha virt. eigenvalues --    2.16896   2.19022   2.20302   2.22298   2.23265
 Alpha virt. eigenvalues --    2.24414   2.26871   2.27762   2.28739   2.30299
 Alpha virt. eigenvalues --    2.32410   2.34789   2.35593   2.37399   2.37727
 Alpha virt. eigenvalues --    2.39070   2.40890   2.41294   2.43786   2.45501
 Alpha virt. eigenvalues --    2.46975   2.48298   2.50841   2.51722   2.52708
 Alpha virt. eigenvalues --    2.52922   2.56897   2.58630   2.59993   2.61574
 Alpha virt. eigenvalues --    2.64456   2.65033   2.66630   2.70567   2.72496
 Alpha virt. eigenvalues --    2.73792   2.75854   2.76915   2.78163   2.81300
 Alpha virt. eigenvalues --    2.84539   2.84939   2.86793   2.89061   2.90692
 Alpha virt. eigenvalues --    2.91331   2.94059   2.95482   2.96071   2.97860
 Alpha virt. eigenvalues --    2.98237   3.01001   3.01363   3.02558   3.07868
 Alpha virt. eigenvalues --    3.09692   3.10984   3.12332   3.13317   3.14231
 Alpha virt. eigenvalues --    3.17233   3.17678   3.20157   3.21958   3.22882
 Alpha virt. eigenvalues --    3.25526   3.26533   3.30197   3.34059   3.48906
 Alpha virt. eigenvalues --    3.54636   3.93247   4.07828   4.19031   4.24573
 Alpha virt. eigenvalues --    4.34609   4.41267   4.50835   4.58100   4.65916
 Alpha virt. eigenvalues --    4.68513   4.74696   4.81915   4.92902   4.97831
 Alpha virt. eigenvalues --    5.15294   5.23201   5.29895   5.54873   5.66408
 Alpha virt. eigenvalues --    5.84050   6.06502   6.25350   6.83156   7.28865
          Condensed to atoms (all electrons):
               1          2          3          4          5          6
     1  F    9.130540   0.211859  -0.023544   0.000344  -0.000103  -0.000032
     2  C    0.211859   5.518136   0.122246  -0.038027  -0.041397  -0.002411
     3  C   -0.023544   0.122246   4.792277   0.228675   0.263472  -0.038014
     4  F    0.000344  -0.038027   0.228675   9.116981  -0.016166  -0.000008
     5  C   -0.000103  -0.041397   0.263472  -0.016166   4.142459   0.289769
     6  F   -0.000032  -0.002411  -0.038014  -0.000008   0.289769   9.055602
     7  F    0.000589   0.005070  -0.039930   0.000353   0.289352  -0.037432
     8  F   -0.000001   0.002444  -0.025431  -0.000717   0.300826  -0.039406
     9  F   -0.000362  -0.031187   0.226722  -0.031410  -0.016533   0.000363
    10  C   -0.036145   0.172748  -0.033278   0.003891  -0.005911   0.008133
    11  O    0.000592  -0.022297   0.001719  -0.000105   0.000021   0.000004
    12  C    0.001490  -0.087719   0.001353  -0.000135  -0.000091   0.000000
    13  F   -0.000002   0.001814  -0.000012   0.000000   0.000000   0.000000
    14  F   -0.000001  -0.000903   0.000361   0.000086   0.000000   0.000000
    15  C   -0.014583   0.183922  -0.030096   0.005778   0.002467  -0.000005
    16  F   -0.002141  -0.028233   0.000306   0.000004  -0.000016   0.000000
    17  F    0.000263  -0.046044   0.019331  -0.002080   0.000205   0.000000
    18  C    0.018609  -0.046357  -0.000799   0.000079   0.001372  -0.000684
    19  F   -0.002376   0.008190  -0.003923   0.000001   0.009243  -0.000322
    20  C    0.000199   0.003777   0.000017   0.000002  -0.000012  -0.000008
    21  O    0.000000  -0.000018   0.000001   0.000000   0.000000   0.000000
    22  O    0.000000  -0.000129  -0.000001   0.000000  -0.000001   0.000001
    23  F   -0.000970   0.002320   0.000081   0.000000   0.000004   0.000000
    24  F    0.000356  -0.036057   0.010679  -0.001052  -0.001220  -0.000208
    25  H    0.000000   0.000010   0.000000   0.000000   0.000000   0.000000
               7          8          9         10         11         12
     1  F    0.000589  -0.000001  -0.000362  -0.036145   0.000592   0.001490
     2  C    0.005070   0.002444  -0.031187   0.172748  -0.022297  -0.087719
     3  C   -0.039930  -0.025431   0.226722  -0.033278   0.001719   0.001353
     4  F    0.000353  -0.000717  -0.031410   0.003891  -0.000105  -0.000135
     5  C    0.289352   0.300826  -0.016533  -0.005911   0.000021  -0.000091
     6  F   -0.037432  -0.039406   0.000363   0.008133   0.000004   0.000000
     7  F    9.059615  -0.038545  -0.000295  -0.001144   0.000000  -0.000002
     8  F   -0.038545   9.043048  -0.000535  -0.000001   0.000000   0.000000
     9  F   -0.000295  -0.000535   9.119907   0.002102  -0.000007   0.000207
    10  C   -0.001144  -0.000001   0.002102   4.994622   0.137972   0.000371
    11  O    0.000000   0.000000  -0.000007   0.137972   8.378955   0.199154
    12  C   -0.000002   0.000000   0.000207   0.000371   0.199154   4.325620
    13  F    0.000000   0.000000   0.000000   0.001264  -0.044091   0.325515
    14  F    0.000000   0.000000   0.000000   0.007440  -0.048371   0.272831
    15  C    0.000060  -0.000030   0.005813  -0.050107  -0.050087   0.255425
    16  F    0.000000   0.000000  -0.000076   0.001288   0.000092  -0.025749
    17  F    0.000000   0.000000  -0.001986   0.002200   0.000920  -0.025708
    18  C    0.000388   0.000000   0.000001   0.208871  -0.034001   0.000090
    19  F   -0.000094   0.000001   0.000001  -0.033603   0.000856  -0.000011
    20  C   -0.000005   0.000000   0.000000  -0.059092  -0.002526  -0.000243
    21  O    0.000000   0.000000   0.000000   0.008890   0.001046   0.000138
    22  O    0.000000   0.000000   0.000000  -0.000166   0.000019   0.000000
    23  F    0.000000   0.000000   0.000000  -0.037774   0.002297   0.000288
    24  F    0.000004   0.000001   0.000002   0.237541  -0.046706   0.003156
    25  H    0.000000   0.000000   0.000000  -0.000410   0.000099  -0.000005
              13         14         15         16         17         18
     1  F   -0.000002  -0.000001  -0.014583  -0.002141   0.000263   0.018609
     2  C    0.001814  -0.000903   0.183922  -0.028233  -0.046044  -0.046357
     3  C   -0.000012   0.000361  -0.030096   0.000306   0.019331  -0.000799
     4  F    0.000000   0.000086   0.005778   0.000004  -0.002080   0.000079
     5  C    0.000000   0.000000   0.002467  -0.000016   0.000205   0.001372
     6  F    0.000000   0.000000  -0.000005   0.000000   0.000000  -0.000684
     7  F    0.000000   0.000000   0.000060   0.000000   0.000000   0.000388
     8  F    0.000000   0.000000  -0.000030   0.000000   0.000000   0.000000
     9  F    0.000000   0.000000   0.005813  -0.000076  -0.001986   0.000001
    10  C    0.001264   0.007440  -0.050107   0.001288   0.002200   0.208871
    11  O   -0.044091  -0.048371  -0.050087   0.000092   0.000920  -0.034001
    12  C    0.325515   0.272831   0.255425  -0.025749  -0.025708   0.000090
    13  F    9.019925  -0.040452  -0.027623   0.000194   0.000001  -0.000024
    14  F   -0.040452   9.089410  -0.030825   0.000406   0.000357   0.000060
    15  C   -0.027623  -0.030825   4.678241   0.259359   0.272200   0.002387
    16  F    0.000194   0.000406   0.259359   9.082539  -0.036592  -0.000011
    17  F    0.000001   0.000357   0.272200  -0.036592   9.065117  -0.000017
    18  C   -0.000024   0.000060   0.002387  -0.000011  -0.000017   4.666908
    19  F    0.000000   0.000000   0.000130   0.000000   0.000000   0.262176
    20  C    0.000000  -0.000005   0.000001  -0.000001   0.000000   0.261160
    21  O    0.000000   0.000000  -0.000007   0.000000   0.000000  -0.096343
    22  O    0.000000   0.000000   0.000000   0.000000   0.000000  -0.059640
    23  F   -0.000001   0.000000  -0.000383   0.000002   0.000000   0.256464
    24  F   -0.000004  -0.000111  -0.000663  -0.000001  -0.000002  -0.039914
    25  H    0.000000   0.000000   0.000000   0.000000   0.000000   0.008268
              19         20         21         22         23         24
     1  F   -0.002376   0.000199   0.000000   0.000000  -0.000970   0.000356
     2  C    0.008190   0.003777  -0.000018  -0.000129   0.002320  -0.036057
     3  C   -0.003923   0.000017   0.000001  -0.000001   0.000081   0.010679
     4  F    0.000001   0.000002   0.000000   0.000000   0.000000  -0.001052
     5  C    0.009243  -0.000012   0.000000  -0.000001   0.000004  -0.001220
     6  F   -0.000322  -0.000008   0.000000   0.000001   0.000000  -0.000208
     7  F   -0.000094  -0.000005   0.000000   0.000000   0.000000   0.000004
     8  F    0.000001   0.000000   0.000000   0.000000   0.000000   0.000001
     9  F    0.000001   0.000000   0.000000   0.000000   0.000000   0.000002
    10  C   -0.033603  -0.059092   0.008890  -0.000166  -0.037774   0.237541
    11  O    0.000856  -0.002526   0.001046   0.000019   0.002297  -0.046706
    12  C   -0.000011  -0.000243   0.000138   0.000000   0.000288   0.003156
    13  F    0.000000   0.000000   0.000000   0.000000  -0.000001  -0.000004
    14  F    0.000000  -0.000005   0.000000   0.000000   0.000000  -0.000111
    15  C    0.000130   0.000001  -0.000007   0.000000  -0.000383  -0.000663
    16  F    0.000000  -0.000001   0.000000   0.000000   0.000002  -0.000001
    17  F    0.000000   0.000000   0.000000   0.000000   0.000000  -0.000002
    18  C    0.262176   0.261160  -0.096343  -0.059640   0.256464  -0.039914
    19  F    9.089112  -0.028161   0.000821  -0.002101  -0.033419   0.000155
    20  C   -0.028161   4.487401   0.254854   0.585085  -0.029770   0.016451
    21  O    0.000821   0.254854   8.084084  -0.079880   0.002904  -0.000669
    22  O   -0.002101   0.585085  -0.079880   7.973953   0.000605  -0.001026
    23  F   -0.033419  -0.029770   0.002904   0.000605   9.100981   0.000353
    24  F    0.000155   0.016451  -0.000669  -0.001026   0.000353   9.138263
    25  H   -0.000047  -0.011038   0.285672   0.004205  -0.000179  -0.000008
              25
     1  F    0.000000
     2  C    0.000010
     3  C    0.000000
     4  F    0.000000
     5  C    0.000000
     6  F    0.000000
     7  F    0.000000
     8  F    0.000000
     9  F    0.000000
    10  C   -0.000410
    11  O    0.000099
    12  C   -0.000005
    13  F    0.000000
    14  F    0.000000
    15  C    0.000000
    16  F    0.000000
    17  F    0.000000
    18  C    0.008268
    19  F   -0.000047
    20  C   -0.011038
    21  O    0.285672
    22  O    0.004205
    23  F   -0.000179
    24  F   -0.000008
    25  H    0.354710
 Mulliken charges:
               1
     1  F   -0.284579
     2  C    0.148243
     3  C    0.527788
     4  F   -0.266495
     5  C    0.782259
     6  F   -0.235343
     7  F   -0.237985
     8  F   -0.241653
     9  F   -0.272727
    10  C    0.470298
    11  O   -0.475556
    12  C    0.754025
    13  F   -0.236504
    14  F   -0.250282
    15  C    0.538626
    16  F   -0.251372
    17  F   -0.248165
    18  C    0.590956
    19  F   -0.266627
    20  C    0.521915
    21  O   -0.461492
    22  O   -0.420925
    23  F   -0.263803
    24  F   -0.279323
    25  H    0.358722
 Sum of Mulliken charges =   0.00000
 Mulliken charges with hydrogens summed into heavy atoms:
               1
     1  F   -0.284579
     2  C    0.148243
     3  C    0.527788
     4  F   -0.266495
     5  C    0.782259
     6  F   -0.235343
     7  F   -0.237985
     8  F   -0.241653
     9  F   -0.272727
    10  C    0.470298
    11  O   -0.475556
    12  C    0.754025
    13  F   -0.236504
    14  F   -0.250282
    15  C    0.538626
    16  F   -0.251372
    17  F   -0.248165
    18  C    0.590956
    19  F   -0.266627
    20  C    0.521915
    21  O   -0.102770
    22  O   -0.420925
    23  F   -0.263803
    24  F   -0.279323
 Electronic spatial extent (au):  <R**2>=           5560.5927
 Charge=              0.0000 electrons
 Dipole moment (field-independent basis, Debye):
    X=             -2.2174    Y=             -0.9556    Z=              0.1669  Tot=              2.4203
 Quadrupole moment (field-independent basis, Debye-Ang):
   XX=           -113.0996   YY=           -128.4609   ZZ=           -129.8982
   XY=              1.2063   XZ=              3.7748   YZ=              2.8139
 Traceless Quadrupole moment (field-independent basis, Debye-Ang):
   XX=             10.7200   YY=             -4.6413   ZZ=             -6.0786
   XY=              1.2063   XZ=              3.7748   YZ=              2.8139
 Octapole moment (field-independent basis, Debye-Ang**2):
  XXX=           -127.5252  YYY=              2.2937  ZZZ=             -1.6786  XYY=            -14.2934
  XXY=              2.8788  XXZ=            -33.1933  XZZ=            -13.1053  YZZ=            -11.7581
  YYZ=              1.4965  XYZ=             -7.8789
 Hexadecapole moment (field-independent basis, Debye-Ang**3):
 XXXX=          -2313.3619 YYYY=          -1491.3934 ZZZZ=          -1561.3795 XXXY=             14.3428
 XXXZ=            110.3126 YYYX=             25.2957 YYYZ=            408.5667 ZZZX=            -66.3702
 ZZZY=            435.8088 XXYY=           -696.1578 XXZZ=           -676.1847 YYZZ=           -514.9656
 XXYZ=            149.9651 YYXZ=            -26.8844 ZZXY=             36.0744
 N-N= 2.852646416266D+03 E-N=-1.003609392914D+04  KE= 1.816236929553D+03
 No NMR shielding tensors so no spin-rotation constants.
 Leave Link  601 at Thu Feb  6 02:48:06 2025, MaxMem=  5368709120 cpu:         3.2
 (Enter /home/k0335/k033513/app/g09/l9999.exe)
 1\1\GINC-C18U05N1\FOpt\RCAM-B3LYP\6-31G(d,p)\C8H1F13O3\K033513\06-Feb-
 2025\0\\#p CAM-B3LYP/6-31G(d,p) opt SCRF=(PCM,Solvent=Generic,Read) No
 Symm out=wfn\\Title A2_neu\\0,1\F,0.7706751196,1.1889695708,1.35231039
 39\C,0.7493252326,0.0028937517,0.6821509181\C,2.0472372889,-0.09015396
 99,-0.141369858\F,2.0953984295,-1.2858424628,-0.7575086933\C,2.3185753
 934,1.0025284616,-1.1982735802\F,1.4503747953,0.9368882403,-2.20280633
 31\F,2.2592282895,2.2097122468,-0.6419849004\F,3.5445445083,0.80993536
 06,-1.6826627527\F,3.0651313486,-0.0006718446,0.7423694518\C,-0.599198
 5952,-0.1386957709,-0.0951857006\O,-1.403117741,-0.9903056264,0.650390
 3185\C,-0.6350432516,-1.9095946921,1.3350668888\F,-1.3220684971,-2.346
 2171939,2.3804848675\F,-0.3253442075,-2.9521031952,0.5500812098\C,0.65
 01892846,-1.1554251107,1.7318277179\F,0.4856703127,-0.6259621456,2.950
 3082004\F,1.7040289666,-1.9802271471,1.7502233338\C,-1.3693335222,1.17
 99958914,-0.3139575681\F,-0.5103087907,2.0955829923,-0.7955332469\C,-2
 .5182597349,1.0305147974,-1.3328925679\O,-3.5219833828,0.3376492463,-0
 .8073522328\O,-2.4743151099,1.500011752,-2.433929007\F,-1.8584989361,1
 .6049716787,0.865689488\F,-0.3817197496,-0.687224458,-1.3260402067\H,-
 4.221188451,0.2627676275,-1.4785951409\\Version=ES64L-G09RevD.01\HF=-1
 828.5448136\RMSD=8.142e-09\RMSF=5.249e-06\Dipole=-0.8723789,-0.3759547
 ,0.0656784\Quadrupole=7.9700283,-3.4507297,-4.5192985,0.8968916,2.8064
 359,2.0920466\PG=C01 [X(C8H1F13O3)]\\@

 Writing a WFN file to "cytopopt/A2/A2_neu.wfn"


 ART, GLORY, FREEDOM FAIL, BUT NATURE STILL IS FAIR.

                                           -- BYRON
 Job cpu time:       0 days  5 hours 40 minutes 50.1 seconds.
 File lengths (MBytes):  RWF=    227 Int=      0 D2E=      0 Chk=     13 Scr=      1
 Normal termination of Gaussian 09 at Thu Feb  6 02:48:06 2025.
