 Entering Gaussian System, Link 0=g09
 Initial command:
 /home/k0335/k033513/app/g09/l1.exe "/home/k0335/k033513/app/g09/scratch/Gau-1501375.inp" -scrdir="/home/k0335/k033513/app/g09/scratch/"
 Default is to use a total of  36 processors:
                               36 via shared-memory
                                1 via Linda
 Entering Link 1 = /home/k0335/k033513/app/g09/l1.exe PID=   1501376.
  
 Copyright (c) 1988,1990,1992,1993,1995,1998,2003,2009,2013,
            Gaussian, Inc.  All Rights Reserved.
  
 This is part of the Gaussian(R) 09 program.  It is based on
 the Gaussian(R) 03 system (copyright 2003, Gaussian, Inc.),
 the Gaussian(R) 98 system (copyright 1998, Gaussian, Inc.),
 the Gaussian(R) 94 system (copyright 1995, Gaussian, Inc.),
 the Gaussian 92(TM) system (copyright 1992, Gaussian, Inc.),
 the Gaussian 90(TM) system (copyright 1990, Gaussian, Inc.),
 the Gaussian 88(TM) system (copyright 1988, Gaussian, Inc.),
 the Gaussian 86(TM) system (copyright 1986, Carnegie Mellon
 University), and the Gaussian 82(TM) system (copyright 1983,
 Carnegie Mellon University). Gaussian is a federally registered
 trademark of Gaussian, Inc.
  
 This software contains proprietary and confidential information,
 including trade secrets, belonging to Gaussian, Inc.
  
 This software is provided under written license and may be
 used, copied, transmitted, or stored only in accord with that
 written license.
  
 The following legend is applicable only to US Government
 contracts under FAR:
  
                    RESTRICTED RIGHTS LEGEND
  
 Use, reproduction and disclosure by the US Government is
 subject to restrictions as set forth in subparagraphs (a)
 and (c) of the Commercial Computer Software - Restricted
 Rights clause in FAR 52.227-19.
  
 Gaussian, Inc.
 340 Quinnipiac St., Bldg. 40, Wallingford CT 06492
  
  
 ---------------------------------------------------------------
 Warning -- This program may not be used in any manner that
 competes with the business of Gaussian, Inc. or will provide
 assistance to any competitor of Gaussian, Inc.  The licensee
 of this program is prohibited from giving any competitor of
 Gaussian, Inc. access to this program.  By using this program,
 the user acknowledges that Gaussian, Inc. is engaged in the
 business of creating and licensing software in the field of
 computational chemistry and represents and warrants to the
 licensee that it is not a competitor of Gaussian, Inc. and that
 it will not use this program in any manner prohibited above.
 ---------------------------------------------------------------
  

 Cite this work as:
 Gaussian 09, Revision D.01,
 M. J. Frisch, G. W. Trucks, H. B. Schlegel, G. E. Scuseria, 
 M. A. Robb, J. R. Cheeseman, G. Scalmani, V. Barone, B. Mennucci, 
 G. A. Petersson, H. Nakatsuji, M. Caricato, X. Li, H. P. Hratchian, 
 A. F. Izmaylov, J. Bloino, G. Zheng, J. L. Sonnenberg, M. Hada, 
 M. Ehara, K. Toyota, R. Fukuda, J. Hasegawa, M. Ishida, T. Nakajima, 
 Y. Honda, O. Kitao, H. Nakai, T. Vreven, J. A. Montgomery, Jr., 
 J. E. Peralta, F. Ogliaro, M. Bearpark, J. J. Heyd, E. Brothers, 
 K. N. Kudin, V. N. Staroverov, T. Keith, R. Kobayashi, J. Normand, 
 K. Raghavachari, A. Rendell, J. C. Burant, S. S. Iyengar, J. Tomasi, 
 M. Cossi, N. Rega, J. M. Millam, M. Klene, J. E. Knox, J. B. Cross, 
 V. Bakken, C. Adamo, J. Jaramillo, R. Gomperts, R. E. Stratmann, 
 O. Yazyev, A. J. Austin, R. Cammi, C. Pomelli, J. W. Ochterski, 
 R. L. Martin, K. Morokuma, V. G. Zakrzewski, G. A. Voth, 
 P. Salvador, J. J. Dannenberg, S. Dapprich, A. D. Daniels, 
 O. Farkas, J. B. Foresman, J. V. Ortiz, J. Cioslowski, 
 and D. J. Fox, Gaussian, Inc., Wallingford CT, 2013.
 
 ******************************************
 Gaussian 09:  ES64L-G09RevD.01 24-Apr-2013
                 3-Feb-2025 
 ******************************************
 %nprocshared=24
 Will use up to   24 processors via shared memory.
 %mem=40GB
 %rwf=cytopopt/A0/A0_neu.rwf
 %nosave
 %chk=cytopopt/A0/A0_neu.chk
 ----------------------------------------------------------------------
 #p CAM-B3LYP/6-31G(d,p) opt SCRF=(PCM,Solvent=Generic,Read) NoSymm out
 =wfn
 ----------------------------------------------------------------------
 1/14=-1,18=20,19=15,26=3,38=1,40=2/1,3;
 2/9=110,12=2,15=1,17=6,18=5,40=1/2;
 3/5=1,6=6,7=101,11=2,16=1,25=1,30=1,70=2203,71=1,72=-2,74=-40/1,2,3;
 4//1;
 5/5=2,38=5/2;
 6/7=2,8=2,9=2,10=2,28=1/1;
 7/30=1/1,2,3,16;
 1/14=-1,18=20,19=15,26=3/3(2);
 2/9=110,15=1/2;
 99/6=100/99;
 2/9=110,15=1/2;
 3/5=1,6=6,7=101,11=2,16=1,25=1,30=1,70=2205,71=1,72=-2,74=-40/1,2,3;
 4/5=5,16=3,69=1/1;
 5/5=2,38=5/2;
 7/30=1/1,2,3,16;
 1/14=-1,18=20,19=15,26=3/3(-5);
 2/9=110,15=1/2;
 6/7=2,8=2,9=2,10=2,19=2,28=1/1;
 99/6=100,9=1/99;
 Leave Link    1 at Mon Feb  3 22:27:51 2025, MaxMem=  5368709120 cpu:         1.3
 (Enter /home/k0335/k033513/app/g09/l101.exe)
 ------------
 Title A0_neu
 ------------
 Symbolic Z-matrix:
 Charge =  0 Multiplicity = 1
 F                    -0.51954  -0.38073  -1.49558 
 C                    -0.49006  -0.16273  -0.14995 
 C                    -0.76292   1.29767   0.13733 
 F                    -0.66699   1.54704   1.47194 
 C                    -2.11404   1.78916  -0.37782 
 F                    -2.25314   3.12404  -0.19438 
 F                    -2.26812   1.54754  -1.69797 
 F                    -3.14466   1.19877   0.26548 
 F                     0.23162   2.03941  -0.42799 
 C                     0.83539  -0.69681   0.41024 
 O                     0.6253   -2.08052   0.81143 
 C                    -0.71583  -2.38148   0.4687 
 F                    -1.19682  -3.3177    1.30599 
 F                    -0.6877   -2.90881  -0.77422 
 C                    -1.47256  -1.07857   0.51365 
 F                    -1.69823  -0.68771   1.7905 
 F                    -2.66224  -1.11359  -0.11113 
 C                     2.03998  -0.66933  -0.55043 
 F                     1.74912  -1.45956  -1.63049 
 C                     2.4232    0.73378  -0.9853 
 O                     3.06679   1.45125  -0.03946 
 O                     2.18365   1.24281  -2.0709 
 F                     3.10098  -1.29031   0.05713 
 F                     1.13249  -0.06069   1.57111 
 H                     3.26435   2.31706  -0.45973 
 
 NAtoms=     25 NQM=       25 NQMF=       0 NMMI=      0 NMMIF=      0
                NMic=       0 NMicF=      0.
                    Isotopes and Nuclear Properties:
 (Nuclear quadrupole moments (NQMom) in fm**2, nuclear magnetic moments (NMagM)
  in nuclear magnetons)

  Atom         1           2           3           4           5           6           7           8           9          10
 IAtWgt=          19          12          12          19          12          19          19          19          19          12
 AtmWgt=  18.9984033  12.0000000  12.0000000  18.9984033  12.0000000  18.9984033  18.9984033  18.9984033  18.9984033  12.0000000
 NucSpn=           1           0           0           1           0           1           1           1           1           0
 AtZEff=   0.0000000   0.0000000   0.0000000   0.0000000   0.0000000   0.0000000   0.0000000   0.0000000   0.0000000   0.0000000
 NQMom=    0.0000000   0.0000000   0.0000000   0.0000000   0.0000000   0.0000000   0.0000000   0.0000000   0.0000000   0.0000000
 NMagM=    2.6288670   0.0000000   0.0000000   2.6288670   0.0000000   2.6288670   2.6288670   2.6288670   2.6288670   0.0000000
 AtZNuc=   9.0000000   6.0000000   6.0000000   9.0000000   6.0000000   9.0000000   9.0000000   9.0000000   9.0000000   6.0000000

  Atom        11          12          13          14          15          16          17          18          19          20
 IAtWgt=          16          12          19          19          12          19          19          12          19          12
 AtmWgt=  15.9949146  12.0000000  18.9984033  18.9984033  12.0000000  18.9984033  18.9984033  12.0000000  18.9984033  12.0000000
 NucSpn=           0           0           1           1           0           1           1           0           1           0
 AtZEff=   0.0000000   0.0000000   0.0000000   0.0000000   0.0000000   0.0000000   0.0000000   0.0000000   0.0000000   0.0000000
 NQMom=    0.0000000   0.0000000   0.0000000   0.0000000   0.0000000   0.0000000   0.0000000   0.0000000   0.0000000   0.0000000
 NMagM=    0.0000000   0.0000000   2.6288670   2.6288670   0.0000000   2.6288670   2.6288670   0.0000000   2.6288670   0.0000000
 AtZNuc=   8.0000000   6.0000000   9.0000000   9.0000000   6.0000000   9.0000000   9.0000000   6.0000000   9.0000000   6.0000000

  Atom        21          22          23          24          25
 IAtWgt=          16          16          19          19           1
 AtmWgt=  15.9949146  15.9949146  18.9984033  18.9984033   1.0078250
 NucSpn=           0           0           1           1           1
 AtZEff=   0.0000000   0.0000000   0.0000000   0.0000000   0.0000000
 NQMom=    0.0000000   0.0000000   0.0000000   0.0000000   0.0000000
 NMagM=    0.0000000   0.0000000   2.6288670   2.6288670   2.7928460
 AtZNuc=   8.0000000   8.0000000   9.0000000   9.0000000   1.0000000
 Leave Link  101 at Mon Feb  3 22:27:51 2025, MaxMem=  5368709120 cpu:         2.9
 (Enter /home/k0335/k033513/app/g09/l103.exe)

 GradGradGradGradGradGradGradGradGradGradGradGradGradGradGradGradGradGrad
 Berny optimization.
 Initialization pass.
                           ----------------------------
                           !    Initial Parameters    !
                           ! (Angstroms and Degrees)  !
 --------------------------                            --------------------------
 ! Name  Definition              Value          Derivative Info.                !
 --------------------------------------------------------------------------------
 ! R1    R(1,2)                  1.3635         estimate D2E/DX2                !
 ! R2    R(2,3)                  1.5132         estimate D2E/DX2                !
 ! R3    R(2,10)                 1.5349         estimate D2E/DX2                !
 ! R4    R(2,15)                 1.4981         estimate D2E/DX2                !
 ! R5    R(3,4)                  1.3611         estimate D2E/DX2                !
 ! R6    R(3,5)                  1.5272         estimate D2E/DX2                !
 ! R7    R(3,9)                  1.3634         estimate D2E/DX2                !
 ! R8    R(5,6)                  1.3546         estimate D2E/DX2                !
 ! R9    R(5,7)                  1.3509         estimate D2E/DX2                !
 ! R10   R(5,8)                  1.3508         estimate D2E/DX2                !
 ! R11   R(10,11)                1.4559         estimate D2E/DX2                !
 ! R12   R(10,18)                1.541          estimate D2E/DX2                !
 ! R13   R(10,24)                1.3567         estimate D2E/DX2                !
 ! R14   R(11,12)                1.4166         estimate D2E/DX2                !
 ! R15   R(12,13)                1.345          estimate D2E/DX2                !
 ! R16   R(12,14)                1.3504         estimate D2E/DX2                !
 ! R17   R(12,15)                1.5074         estimate D2E/DX2                !
 ! R18   R(15,16)                1.3543         estimate D2E/DX2                !
 ! R19   R(15,17)                1.3442         estimate D2E/DX2                !
 ! R20   R(18,19)                1.3695         estimate D2E/DX2                !
 ! R21   R(18,20)                1.5181         estimate D2E/DX2                !
 ! R22   R(18,23)                1.3713         estimate D2E/DX2                !
 ! R23   R(20,21)                1.3504         estimate D2E/DX2                !
 ! R24   R(20,22)                1.2227         estimate D2E/DX2                !
 ! R25   R(21,25)                0.9825         estimate D2E/DX2                !
 ! A1    A(1,2,3)              109.7412         estimate D2E/DX2                !
 ! A2    A(1,2,10)             108.8582         estimate D2E/DX2                !
 ! A3    A(1,2,15)             108.9794         estimate D2E/DX2                !
 ! A4    A(3,2,10)             114.9765         estimate D2E/DX2                !
 ! A5    A(3,2,15)             112.8076         estimate D2E/DX2                !
 ! A6    A(10,2,15)            101.0664         estimate D2E/DX2                !
 ! A7    A(2,3,4)              110.5042         estimate D2E/DX2                !
 ! A8    A(2,3,5)              113.9585         estimate D2E/DX2                !
 ! A9    A(2,3,9)              108.3487         estimate D2E/DX2                !
 ! A10   A(4,3,5)              109.5199         estimate D2E/DX2                !
 ! A11   A(4,3,9)              104.802          estimate D2E/DX2                !
 ! A12   A(5,3,9)              109.2927         estimate D2E/DX2                !
 ! A13   A(3,5,6)              111.2413         estimate D2E/DX2                !
 ! A14   A(3,5,7)              111.899          estimate D2E/DX2                !
 ! A15   A(3,5,8)              111.9441         estimate D2E/DX2                !
 ! A16   A(6,5,7)              107.2707         estimate D2E/DX2                !
 ! A17   A(6,5,8)              106.7309         estimate D2E/DX2                !
 ! A18   A(7,5,8)              107.4704         estimate D2E/DX2                !
 ! A19   A(2,10,11)            107.8584         estimate D2E/DX2                !
 ! A20   A(2,10,18)            116.1869         estimate D2E/DX2                !
 ! A21   A(2,10,24)            109.7708         estimate D2E/DX2                !
 ! A22   A(11,10,18)           107.5493         estimate D2E/DX2                !
 ! A23   A(11,10,24)           103.9713         estimate D2E/DX2                !
 ! A24   A(18,10,24)           110.7253         estimate D2E/DX2                !
 ! A25   A(10,11,12)           105.7747         estimate D2E/DX2                !
 ! A26   A(11,12,13)           109.6238         estimate D2E/DX2                !
 ! A27   A(11,12,14)           106.6137         estimate D2E/DX2                !
 ! A28   A(11,12,15)           106.5244         estimate D2E/DX2                !
 ! A29   A(13,12,14)           107.9756         estimate D2E/DX2                !
 ! A30   A(13,12,15)           113.8016         estimate D2E/DX2                !
 ! A31   A(14,12,15)           112.0502         estimate D2E/DX2                !
 ! A32   A(2,15,12)            100.7171         estimate D2E/DX2                !
 ! A33   A(2,15,16)            110.5164         estimate D2E/DX2                !
 ! A34   A(2,15,17)            112.9836         estimate D2E/DX2                !
 ! A35   A(12,15,16)           111.1758         estimate D2E/DX2                !
 ! A36   A(12,15,17)           114.0741         estimate D2E/DX2                !
 ! A37   A(16,15,17)           107.3529         estimate D2E/DX2                !
 ! A38   A(10,18,19)           108.3814         estimate D2E/DX2                !
 ! A39   A(10,18,20)           113.1028         estimate D2E/DX2                !
 ! A40   A(10,18,23)           108.695          estimate D2E/DX2                !
 ! A41   A(19,18,20)           111.1621         estimate D2E/DX2                !
 ! A42   A(19,18,23)           104.6218         estimate D2E/DX2                !
 ! A43   A(20,18,23)           110.4954         estimate D2E/DX2                !
 ! A44   A(18,20,21)           114.2503         estimate D2E/DX2                !
 ! A45   A(18,20,22)           126.1317         estimate D2E/DX2                !
 ! A46   A(21,20,22)           119.6079         estimate D2E/DX2                !
 ! A47   A(20,21,25)           105.3325         estimate D2E/DX2                !
 ! D1    D(1,2,3,4)           -176.7736         estimate D2E/DX2                !
 ! D2    D(1,2,3,5)             59.4092         estimate D2E/DX2                !
 ! D3    D(1,2,3,9)            -62.4806         estimate D2E/DX2                !
 ! D4    D(10,2,3,4)           -53.6805         estimate D2E/DX2                !
 ! D5    D(10,2,3,5)          -177.4978         estimate D2E/DX2                !
 ! D6    D(10,2,3,9)            60.6124         estimate D2E/DX2                !
 ! D7    D(15,2,3,4)            61.5075         estimate D2E/DX2                !
 ! D8    D(15,2,3,5)           -62.3097         estimate D2E/DX2                !
 ! D9    D(15,2,3,9)           175.8004         estimate D2E/DX2                !
 ! D10   D(1,2,10,11)          -91.1294         estimate D2E/DX2                !
 ! D11   D(1,2,10,18)           29.6324         estimate D2E/DX2                !
 ! D12   D(1,2,10,24)          156.2047         estimate D2E/DX2                !
 ! D13   D(3,2,10,11)          145.3073         estimate D2E/DX2                !
 ! D14   D(3,2,10,18)          -93.9309         estimate D2E/DX2                !
 ! D15   D(3,2,10,24)           32.6414         estimate D2E/DX2                !
 ! D16   D(15,2,10,11)          23.5154         estimate D2E/DX2                !
 ! D17   D(15,2,10,18)         144.2772         estimate D2E/DX2                !
 ! D18   D(15,2,10,24)         -89.1505         estimate D2E/DX2                !
 ! D19   D(1,2,15,12)           76.478          estimate D2E/DX2                !
 ! D20   D(1,2,15,16)         -165.9175         estimate D2E/DX2                !
 ! D21   D(1,2,15,17)          -45.6106         estimate D2E/DX2                !
 ! D22   D(3,2,15,12)         -161.3735         estimate D2E/DX2                !
 ! D23   D(3,2,15,16)          -43.7691         estimate D2E/DX2                !
 ! D24   D(3,2,15,17)           76.5378         estimate D2E/DX2                !
 ! D25   D(10,2,15,12)         -38.076          estimate D2E/DX2                !
 ! D26   D(10,2,15,16)          79.5284         estimate D2E/DX2                !
 ! D27   D(10,2,15,17)        -160.1647         estimate D2E/DX2                !
 ! D28   D(2,3,5,6)           -174.7467         estimate D2E/DX2                !
 ! D29   D(2,3,5,7)            -54.7766         estimate D2E/DX2                !
 ! D30   D(2,3,5,8)             65.9397         estimate D2E/DX2                !
 ! D31   D(4,3,5,6)             60.9062         estimate D2E/DX2                !
 ! D32   D(4,3,5,7)           -179.1237         estimate D2E/DX2                !
 ! D33   D(4,3,5,8)            -58.4074         estimate D2E/DX2                !
 ! D34   D(9,3,5,6)            -53.3792         estimate D2E/DX2                !
 ! D35   D(9,3,5,7)             66.5909         estimate D2E/DX2                !
 ! D36   D(9,3,5,8)           -172.6928         estimate D2E/DX2                !
 ! D37   D(2,10,11,12)           2.18           estimate D2E/DX2                !
 ! D38   D(18,10,11,12)       -123.8468         estimate D2E/DX2                !
 ! D39   D(24,10,11,12)        118.6913         estimate D2E/DX2                !
 ! D40   D(2,10,18,19)         -61.2491         estimate D2E/DX2                !
 ! D41   D(2,10,18,20)          62.485          estimate D2E/DX2                !
 ! D42   D(2,10,18,23)        -174.4072         estimate D2E/DX2                !
 ! D43   D(11,10,18,19)         59.6779         estimate D2E/DX2                !
 ! D44   D(11,10,18,20)       -176.588          estimate D2E/DX2                !
 ! D45   D(11,10,18,23)        -53.4802         estimate D2E/DX2                !
 ! D46   D(24,10,18,19)        172.6574         estimate D2E/DX2                !
 ! D47   D(24,10,18,20)        -63.6085         estimate D2E/DX2                !
 ! D48   D(24,10,18,23)         59.4993         estimate D2E/DX2                !
 ! D49   D(10,11,12,13)       -151.0804         estimate D2E/DX2                !
 ! D50   D(10,11,12,14)         92.2848         estimate D2E/DX2                !
 ! D51   D(10,11,12,15)        -27.5283         estimate D2E/DX2                !
 ! D52   D(11,12,15,2)          42.3208         estimate D2E/DX2                !
 ! D53   D(11,12,15,16)        -74.7985         estimate D2E/DX2                !
 ! D54   D(11,12,15,17)        163.6408         estimate D2E/DX2                !
 ! D55   D(13,12,15,2)         163.2338         estimate D2E/DX2                !
 ! D56   D(13,12,15,16)         46.1145         estimate D2E/DX2                !
 ! D57   D(13,12,15,17)        -75.4462         estimate D2E/DX2                !
 ! D58   D(14,12,15,2)         -73.9068         estimate D2E/DX2                !
 ! D59   D(14,12,15,16)        168.9739         estimate D2E/DX2                !
 ! D60   D(14,12,15,17)         47.4132         estimate D2E/DX2                !
 ! D61   D(10,18,20,21)         75.0903         estimate D2E/DX2                !
 ! D62   D(10,18,20,22)       -103.7371         estimate D2E/DX2                !
 ! D63   D(19,18,20,21)       -162.7172         estimate D2E/DX2                !
 ! D64   D(19,18,20,22)         18.4555         estimate D2E/DX2                !
 ! D65   D(23,18,20,21)        -47.0155         estimate D2E/DX2                !
 ! D66   D(23,18,20,22)        134.1571         estimate D2E/DX2                !
 ! D67   D(18,20,21,25)        178.9767         estimate D2E/DX2                !
 ! D68   D(22,20,21,25)         -2.1126         estimate D2E/DX2                !
 --------------------------------------------------------------------------------
 Trust Radius=3.00D-01 FncErr=1.00D-07 GrdErr=1.00D-06
 Number of steps in this run=    150 maximum allowed number of steps=    150.
 GradGradGradGradGradGradGradGradGradGradGradGradGradGradGradGradGradGrad

 Leave Link  103 at Mon Feb  3 22:27:51 2025, MaxMem=  5368709120 cpu:         0.1
 (Enter /home/k0335/k033513/app/g09/l202.exe)
                          Input orientation:                          
 ---------------------------------------------------------------------
 Center     Atomic      Atomic             Coordinates (Angstroms)
 Number     Number       Type             X           Y           Z
 ---------------------------------------------------------------------
      1          9           0       -0.519540   -0.380727   -1.495581
      2          6           0       -0.490062   -0.162729   -0.149953
      3          6           0       -0.762921    1.297667    0.137332
      4          9           0       -0.666994    1.547042    1.471935
      5          6           0       -2.114043    1.789158   -0.377820
      6          9           0       -2.253137    3.124044   -0.194377
      7          9           0       -2.268116    1.547539   -1.697973
      8          9           0       -3.144662    1.198772    0.265477
      9          9           0        0.231623    2.039411   -0.427986
     10          6           0        0.835385   -0.696809    0.410236
     11          8           0        0.625301   -2.080524    0.811430
     12          6           0       -0.715834   -2.381483    0.468695
     13          9           0       -1.196822   -3.317696    1.305992
     14          9           0       -0.687699   -2.908811   -0.774219
     15          6           0       -1.472559   -1.078568    0.513646
     16          9           0       -1.698232   -0.687709    1.790499
     17          9           0       -2.662239   -1.113588   -0.111128
     18          6           0        2.039975   -0.669329   -0.550434
     19          9           0        1.749122   -1.459561   -1.630491
     20          6           0        2.423200    0.733782   -0.985297
     21          8           0        3.066792    1.451246   -0.039456
     22          8           0        2.183650    1.242811   -2.070900
     23          9           0        3.100980   -1.290310    0.057134
     24          9           0        1.132488   -0.060689    1.571108
     25          1           0        3.264345    2.317060   -0.459731
 ---------------------------------------------------------------------
                    Distance matrix (angstroms):
                    1          2          3          4          5
     1  F    0.000000
     2  C    1.363491   0.000000
     3  C    2.354282   1.513189   0.000000
     4  F    3.541777   2.363291   1.361086   0.000000
     5  C    2.915515   2.549333   1.527244   2.360967   0.000000
     6  F    4.120911   3.730051   2.380426   2.789154   1.354592
     7  F    2.610879   2.912535   2.386712   3.551325   1.350897
     8  F    3.533753   3.012170   2.387235   2.777710   1.350764
     9  F    2.749741   2.333999   1.363410   2.158620   2.359511
    10  C    2.359633   1.534882   2.570407   2.901588   3.937028
    11  O    3.085818   2.417898   3.713993   3.907113   4.888022
    12  C    2.810682   2.314426   3.694342   4.054896   4.479489
    13  F    4.115010   3.545857   4.780754   4.896318   5.454950
    14  F    2.634359   2.823072   4.304770   4.990016   4.925698
    15  C    2.330712   1.498141   2.508324   2.908794   3.070841
    16  F    3.504551   2.345343   2.747633   2.481743   3.318038
    17  F    2.654233   2.371496   3.079495   3.683211   2.966071
    18  C    2.743667   2.611152   3.492610   4.041034   4.830095
    19  F    2.515733   2.981226   4.127695   4.949982   5.200712
    20  C    3.187827   3.160479   3.424855   4.030965   4.697810
    21  O    4.282313   3.907472   3.836866   4.029223   5.202857
    22  O    3.205324   3.579709   3.682605   4.557456   4.651363
    23  F    4.043072   3.769603   4.651214   4.924414   6.071966
    24  F    3.498028   2.367516   2.737411   2.415113   4.214287
    25  H    4.761179   4.510087   4.196965   4.447436   5.404854
                    6          7          8          9         10
     6  F    0.000000
     7  F    2.178622   0.000000
     8  F    2.170934   2.178327   0.000000
     9  F    2.721219   2.846665   3.547797   0.000000
    10  C    4.950095   4.371883   4.410777   2.924730   0.000000
    11  O    6.031963   5.275586   5.026377   4.320301   1.455939
    12  C    5.754458   4.747762   4.331135   4.609340   2.290813
    13  F    6.697979   5.817387   5.027448   5.809108   3.435301
    14  F    6.259565   4.817686   4.897946   5.044792   2.935246
    15  C    4.332730   3.524288   2.836158   3.675962   2.341589
    16  F    4.333257   4.182169   2.824299   4.010386   2.885208
    17  F    4.258147   3.123301   2.391981   4.291415   3.560744
    18  C    5.739971   4.979056   5.570994   3.259203   1.540999
    19  F    6.252194   5.018506   5.883073   3.998953   2.362472
    20  C    5.311030   4.814411   5.725534   2.611182   2.552501
    21  O    5.578880   5.587593   6.224057   2.921485   3.129783
    22  O    5.171601   4.477740   5.818205   2.672854   3.425782
    23  F    6.943799   6.321470   6.726588   4.422171   2.368511
    24  F    4.972114   4.983713   4.645958   3.036174   1.356666
    25  H    5.582494   5.721322   6.546134   3.045570   3.967379
                   11         12         13         14         15
    11  O    0.000000
    12  C    1.416576   0.000000
    13  F    2.257281   1.344957   0.000000
    14  F    2.219079   1.350445   2.180291   0.000000
    15  C    2.343845   1.507395   2.391137   2.371580   0.000000
    16  F    2.880506   2.362444   2.720844   3.540092   1.354272
    17  F    3.548802   2.394211   3.002294   2.749786   1.344213
    18  C    2.418150   3.400673   4.575699   3.536321   3.692917
    19  F    2.758903   3.366382   4.555676   2.961693   3.888664
    20  C    3.792227   4.655374   5.896528   4.794865   4.550646
    21  O    4.377018   5.408908   6.536929   5.800532   5.226049
    22  O    4.666994   5.290752   6.605241   5.211717   5.043465
    23  F    2.705991   3.991004   4.913353   4.202949   4.601141
    24  F    2.216773   3.165074   4.012987   4.114054   2.990079
    25  H    5.283857   6.227368   7.400693   6.559518   5.908977
                   16         17         18         19         20
    16  F    0.000000
    17  F    2.174136   0.000000
    18  C    4.410725   4.743540   0.000000
    19  F    4.917639   4.678490   1.369520   0.000000
    20  C    5.168354   5.480752   1.518120   2.383571   0.000000
    21  O    5.534376   6.277365   2.410869   3.569376   1.350400
    22  O    5.805714   5.733756   2.447190   2.772290   1.222714
    23  F    5.138105   5.768382   1.371309   2.168927   2.375499
    24  F    2.907621   4.282344   2.386402   3.547861   2.971923
    25  H    6.222487   6.856768   3.228905   4.234318   1.868292
                   21         22         23         24         25
    21  O    0.000000
    22  O    2.224893   0.000000
    23  F    2.743470   3.433180   0.000000
    24  F    2.936221   4.008525   2.771109   0.000000
    25  H    0.982493   2.217606   3.647870   3.784549   0.000000
 Symmetry turned off by external request.
 Stoichiometry    C8HF13O3
 Framework group  C1[X(C8HF13O3)]
 Deg. of freedom    69
 Full point group                 C1      NOp   1
 Rotational constants (GHZ):      0.3319411      0.2794219      0.1983755
 Leave Link  202 at Mon Feb  3 22:27:51 2025, MaxMem=  5368709120 cpu:         0.0
 (Enter /home/k0335/k033513/app/g09/l301.exe)
 Standard basis: 6-31G(d,p) (6D, 7F)
 Ernie: Thresh=  0.10000D-02 Tol=  0.10000D-05 Strict=F.
   365 basis functions,   679 primitive gaussians,   365 cartesian basis functions
    95 alpha electrons       95 beta electrons
       nuclear repulsion energy      2876.3601381705 Hartrees.
 IExCor=20419 DFT=T Ex+Corr=CAM-B3LYP ExCW=0 ScaHFX=  1.000000
 ScaDFX=  1.000000  1.000000  1.000000  0.810000 ScalE2=  1.000000  1.000000
 IRadAn=      0 IRanWt=     -1 IRanGd=            0 ICorTp=0 IEmpDi=  4
  HFx wShort=  0.000000 wLong=  0.330000 cFull=  0.190000 cShort=  0.000000 cLong=  0.460000
  DFx wShort=  0.000000 wLong=  0.330000 cFull=  0.190000 cShort=  0.000000 cLong=  0.460000
 NAtoms=   25 NActive=   25 NUniq=   25 SFac= 1.00D+00 NAtFMM=   60 NAOKFM=F Big=F
 Integral buffers will be    131072 words long.
 Raffenetti 2 integral format.
 Two-electron integral symmetry is turned off.
 Using the following non-standard input for PCM:
 eps=2.05
 --- end of non-standard input.
 ------------------------------------------------------------------------------
 Polarizable Continuum Model (PCM)
 =================================
 Model                : PCM (using non-symmetric T matrix).
 Atomic radii         : UFF (Universal Force Field).
 Polarization charges : Total charges.
 Charge compensation  : None.
 Solution method      : On-the-fly selection.
 Cavity type          : Scaled VdW (van der Waals Surface) (Alpha=1.100).
 Cavity algorithm     : GePol (No added spheres)
                        Default sphere list used, NSphG=   25.
                        Lebedev-Laikov grids with approx.  5.0 points / Ang**2.
                        Smoothing algorithm: Karplus/York (Gamma=1.0000).
                        Polarization charges: spherical gaussians, with
                                              point-specific exponents (IZeta= 3).
                        Self-potential: point-specific (ISelfS= 7).
                        Self-field    : sphere-specific E.n sum rule (ISelfD= 2).
 1st derivatives      : Analytical E(r).r(x)/FMM algorithm (CHGder, D1EAlg=3).
                        Cavity 1st derivative terms included.
 Solvent              : Generic,
                        Eps                           =   2.050000
                        Eps(infinity)                 =   0.000000
                        RSolv                         =   0.000000 Ang.
                        Molar volume                  =   0.000000 cm**3/mol
                        Thermal expansion coefficient =   0.000000 K**-1
                        Absolute temperature          = 298.150000 K
                        Numeral density               =   0.000000 Ang**-3
                        Hydrogen bond acidity         =   0.000000
                        Hydrogen bond basicity        =   0.000000
                        Surface tension at interface  =   0.000000 (cal/mol)*Ang**-2
                        Carbon aromaticity            =   0.000000
                        Electronegative halogenicity  =   0.000000
 ------------------------------------------------------------------------------
 GePol: Number of generator spheres                  =      25
 GePol: Total number of spheres                      =      25
 GePol: Number of exposed spheres                    =      24 ( 96.00%)
 GePol: Number of points                             =    2191
 GePol: Average weight of points                     =       0.13
 GePol: Minimum weight of points                     =   0.63D-09
 GePol: Maximum weight of points                     =    0.20322
 GePol: Number of points with low weight             =      95
 GePol: Fraction of low-weight points (<1% of avg)   =       4.34%
 GePol: Cavity surface area                          =    278.441 Ang**2
 GePol: Cavity volume                                =    315.361 Ang**3
 Leave Link  301 at Mon Feb  3 22:27:52 2025, MaxMem=  5368709120 cpu:         0.6
 (Enter /home/k0335/k033513/app/g09/l302.exe)
 NPDir=0 NMtPBC=     1 NCelOv=     1 NCel=       1 NClECP=     1 NCelD=      1
         NCelK=      1 NCelE2=     1 NClLst=     1 CellRange=     0.0.
 One-electron integrals computed using PRISM.
 NBasis=   365 RedAO= T EigKep=  8.85D-04  NBF=   365
 NBsUse=   365 1.00D-06 EigRej= -1.00D+00 NBFU=   365
 Precomputing XC quadrature grid using
 IXCGrd= 4 IRadAn=           0 IRanWt=          -1 IRanGd=           0 AccXCQ= 0.00D+00.
 Generated NRdTot=       0 NPtTot=           0 NUsed=           0 NTot=          32
 NSgBfM=   363   363   363   363   363 MxSgAt=    25 MxSgA2=    25.
 Leave Link  302 at Mon Feb  3 22:27:52 2025, MaxMem=  5368709120 cpu:         4.9
 (Enter /home/k0335/k033513/app/g09/l303.exe)
 DipDrv:  MaxL=1.
 Leave Link  303 at Mon Feb  3 22:27:52 2025, MaxMem=  5368709120 cpu:         0.4
 (Enter /home/k0335/k033513/app/g09/l401.exe)
 ExpMin= 1.61D-01 ExpMax= 7.00D+03 ExpMxC= 1.05D+03 IAcc=1 IRadAn=         1 AccDes= 0.00D+00
 Harris functional with IExCor=20419 and IRadAn=       1 diagonalized for initial guess.
 HarFok:  IExCor=20419 AccDes= 0.00D+00 IRadAn=         1 IDoV= 1 UseB2=F ITyADJ=14
 ICtDFT=  3500011 ScaDFX=  1.000000  1.000000  1.000000  1.000000
 FoFCou: FMM=F IPFlag=           0 FMFlag=      100000 FMFlg1=           0
         NFxFlg=           0 DoJE=T BraDBF=F KetDBF=T FulRan=T
         wScrn=  0.000000 ICntrl=     500 IOpCl=  0 I1Cent=   200000004 NGrid=           0
         NMat0=    1 NMatS0=      1 NMatT0=    0 NMatD0=    1 NMtDS0=    0 NMtDT0=    0
 Symmetry not used in FoFCou.
 Harris En= -1774.90904978068    
 JPrj=0 DoOrth=F DoCkMO=F.
 Leave Link  401 at Mon Feb  3 22:27:52 2025, MaxMem=  5368709120 cpu:         5.9
 (Enter /home/k0335/k033513/app/g09/l502.exe)
 Closed shell SCF:
 Using DIIS extrapolation, IDIIS=  1040.
 Two-electron integral symmetry not used.
 Keep R1 ints in memory in canonical form, NReq=4486581810.
 IVT=      429225 IEndB=      429225 NGot=  5368709120 MDV=   906641076
 LenX=   906641076 LenY=   906507410
 Requested convergence on RMS density matrix=1.00D-08 within 128 cycles.
 Requested convergence on MAX density matrix=1.00D-06.
 Requested convergence on             energy=1.00D-06.
 No special actions if energy rises.
 FoFCou: FMM=F IPFlag=           0 FMFlag=           0 FMFlg1=           0
         NFxFlg=           0 DoJE=F BraDBF=F KetDBF=F FulRan=T
         wScrn=  0.000000 ICntrl=     600 IOpCl=  0 I1Cent=           0 NGrid=           0
         NMat0=    1 NMatS0=  66795 NMatT0=    0 NMatD0=    1 NMtDS0=    0 NMtDT0=    0
 Symmetry not used in FoFCou.

 Cycle   1  Pass 1  IDiag  1:
 Inv3:  Mode=1 IEnd=    14401443.
 Iteration    1 A*A^-1 deviation from unit magnitude is 5.11D-15 for   2184.
 Iteration    1 A*A^-1 deviation from orthogonality  is 3.13D-15 for   2173    205.
 Iteration    1 A^-1*A deviation from unit magnitude is 5.11D-15 for   2184.
 Iteration    1 A^-1*A deviation from orthogonality  is 1.74D-15 for   2179   1301.
 E= -1827.95479389806    
 DIIS: error= 4.47D-02 at cycle   1 NSaved=   1.
 NSaved= 1 IEnMin= 1 EnMin= -1827.95479389806     IErMin= 1 ErrMin= 4.47D-02
 ErrMax= 4.47D-02  0.00D+00 EMaxC= 1.00D-01 BMatC= 1.51D+00 BMatP= 1.51D+00
 IDIUse=3 WtCom= 5.53D-01 WtEn= 4.47D-01
 Coeff-Com:  0.100D+01
 Coeff-En:   0.100D+01
 Coeff:      0.100D+01
 Gap=     0.469 Goal=   None    Shift=    0.000
 GapD=    0.469 DampG=2.000 DampE=0.500 DampFc=1.0000 IDamp=-1.
 RMSDP=3.98D-03 MaxDP=1.75D-01              OVMax= 1.32D-01

 Cycle   2  Pass 1  IDiag  1:
 E= -1828.18213302051     Delta-E=       -0.227339122450 Rises=F Damp=F
 DIIS: error= 1.84D-02 at cycle   2 NSaved=   2.
 NSaved= 2 IEnMin= 2 EnMin= -1828.18213302051     IErMin= 2 ErrMin= 1.84D-02
 ErrMax= 1.84D-02  0.00D+00 EMaxC= 1.00D-01 BMatC= 5.99D-01 BMatP= 1.51D+00
 IDIUse=3 WtCom= 8.16D-01 WtEn= 1.84D-01
 Coeff-Com:  0.369D+00 0.631D+00
 Coeff-En:   0.338D+00 0.662D+00
 Coeff:      0.364D+00 0.636D+00
 Gap=     0.424 Goal=   None    Shift=    0.000
 RMSDP=1.77D-03 MaxDP=8.71D-02 DE=-2.27D-01 OVMax= 9.01D-02

 Cycle   3  Pass 1  IDiag  1:
 E= -1828.45438460375     Delta-E=       -0.272251583246 Rises=F Damp=F
 DIIS: error= 8.25D-03 at cycle   3 NSaved=   3.
 NSaved= 3 IEnMin= 3 EnMin= -1828.45438460375     IErMin= 3 ErrMin= 8.25D-03
 ErrMax= 8.25D-03  0.00D+00 EMaxC= 1.00D-01 BMatC= 9.83D-02 BMatP= 5.99D-01
 IDIUse=3 WtCom= 9.17D-01 WtEn= 8.25D-02
 Coeff-Com:  0.896D-01 0.316D+00 0.594D+00
 Coeff-En:   0.000D+00 0.102D+00 0.898D+00
 Coeff:      0.822D-01 0.299D+00 0.619D+00
 Gap=     0.374 Goal=   None    Shift=    0.000
 RMSDP=8.00D-04 MaxDP=4.09D-02 DE=-2.72D-01 OVMax= 6.26D-02

 Cycle   4  Pass 1  IDiag  1:
 E= -1828.51205579951     Delta-E=       -0.057671195759 Rises=F Damp=F
 DIIS: error= 2.64D-03 at cycle   4 NSaved=   4.
 NSaved= 4 IEnMin= 4 EnMin= -1828.51205579951     IErMin= 4 ErrMin= 2.64D-03
 ErrMax= 2.64D-03  0.00D+00 EMaxC= 1.00D-01 BMatC= 7.96D-03 BMatP= 9.83D-02
 IDIUse=3 WtCom= 9.74D-01 WtEn= 2.64D-02
 Coeff-Com:  0.460D-02 0.720D-01 0.292D+00 0.631D+00
 Coeff-En:   0.000D+00 0.000D+00 0.178D-01 0.982D+00
 Coeff:      0.448D-02 0.701D-01 0.285D+00 0.641D+00
 Gap=     0.378 Goal=   None    Shift=    0.000
 RMSDP=2.14D-04 MaxDP=1.57D-02 DE=-5.77D-02 OVMax= 2.40D-02

 Cycle   5  Pass 1  IDiag  1:
 E= -1828.51742578889     Delta-E=       -0.005369989378 Rises=F Damp=F
 DIIS: error= 8.23D-04 at cycle   5 NSaved=   5.
 NSaved= 5 IEnMin= 5 EnMin= -1828.51742578889     IErMin= 5 ErrMin= 8.23D-04
 ErrMax= 8.23D-04  0.00D+00 EMaxC= 1.00D-01 BMatC= 5.85D-04 BMatP= 7.96D-03
 IDIUse=3 WtCom= 9.92D-01 WtEn= 8.23D-03
 Coeff-Com: -0.376D-03 0.305D-01 0.150D+00 0.380D+00 0.441D+00
 Coeff-En:   0.000D+00 0.000D+00 0.000D+00 0.000D+00 0.100D+01
 Coeff:     -0.373D-03 0.302D-01 0.149D+00 0.376D+00 0.445D+00
 Gap=     0.374 Goal=   None    Shift=    0.000
 RMSDP=4.99D-05 MaxDP=4.55D-03 DE=-5.37D-03 OVMax= 8.02D-03

 Cycle   6  Pass 1  IDiag  1:
 E= -1828.51783537434     Delta-E=       -0.000409585455 Rises=F Damp=F
 DIIS: error= 1.06D-04 at cycle   6 NSaved=   6.
 NSaved= 6 IEnMin= 6 EnMin= -1828.51783537434     IErMin= 6 ErrMin= 1.06D-04
 ErrMax= 1.06D-04  0.00D+00 EMaxC= 1.00D-01 BMatC= 1.04D-05 BMatP= 5.85D-04
 IDIUse=3 WtCom= 9.99D-01 WtEn= 1.06D-03
 Coeff-Com: -0.488D-03-0.817D-03 0.362D-02 0.163D-01 0.115D+00 0.866D+00
 Coeff-En:   0.000D+00 0.000D+00 0.000D+00 0.000D+00 0.000D+00 0.100D+01
 Coeff:     -0.487D-03-0.816D-03 0.362D-02 0.163D-01 0.115D+00 0.866D+00
 Gap=     0.375 Goal=   None    Shift=    0.000
 RMSDP=1.21D-05 MaxDP=6.95D-04 DE=-4.10D-04 OVMax= 1.12D-03

 Cycle   7  Pass 1  IDiag  1:
 E= -1828.51784374026     Delta-E=       -0.000008365920 Rises=F Damp=F
 DIIS: error= 3.66D-05 at cycle   7 NSaved=   7.
 NSaved= 7 IEnMin= 7 EnMin= -1828.51784374026     IErMin= 7 ErrMin= 3.66D-05
 ErrMax= 3.66D-05  0.00D+00 EMaxC= 1.00D-01 BMatC= 2.42D-06 BMatP= 1.04D-05
 IDIUse=1 WtCom= 1.00D+00 WtEn= 0.00D+00
 Coeff-Com: -0.194D-03-0.309D-02-0.109D-01-0.244D-01 0.243D-01 0.436D+00
 Coeff-Com:  0.578D+00
 Coeff:     -0.194D-03-0.309D-02-0.109D-01-0.244D-01 0.243D-01 0.436D+00
 Coeff:      0.578D+00
 Gap=     0.374 Goal=   None    Shift=    0.000
 RMSDP=3.76D-06 MaxDP=2.04D-04 DE=-8.37D-06 OVMax= 3.47D-04

 Cycle   8  Pass 1  IDiag  1:
 E= -1828.51784549894     Delta-E=       -0.000001758681 Rises=F Damp=F
 DIIS: error= 1.00D-05 at cycle   8 NSaved=   8.
 NSaved= 8 IEnMin= 8 EnMin= -1828.51784549894     IErMin= 8 ErrMin= 1.00D-05
 ErrMax= 1.00D-05  0.00D+00 EMaxC= 1.00D-01 BMatC= 1.18D-07 BMatP= 2.42D-06
 IDIUse=1 WtCom= 1.00D+00 WtEn= 0.00D+00
 Coeff-Com: -0.403D-05-0.944D-03-0.401D-02-0.105D-01-0.340D-02 0.331D-01
 Coeff-Com:  0.180D+00 0.806D+00
 Coeff:     -0.403D-05-0.944D-03-0.401D-02-0.105D-01-0.340D-02 0.331D-01
 Coeff:      0.180D+00 0.806D+00
 Gap=     0.375 Goal=   None    Shift=    0.000
 RMSDP=1.38D-06 MaxDP=7.34D-05 DE=-1.76D-06 OVMax= 1.50D-04

 Cycle   9  Pass 1  IDiag  1:
 E= -1828.51784563298     Delta-E=       -0.000000134040 Rises=F Damp=F
 DIIS: error= 2.97D-06 at cycle   9 NSaved=   9.
 NSaved= 9 IEnMin= 9 EnMin= -1828.51784563298     IErMin= 9 ErrMin= 2.97D-06
 ErrMax= 2.97D-06  0.00D+00 EMaxC= 1.00D-01 BMatC= 1.11D-08 BMatP= 1.18D-07
 IDIUse=1 WtCom= 1.00D+00 WtEn= 0.00D+00
 Coeff-Com:  0.165D-04-0.278D-05-0.214D-03-0.105D-02-0.241D-02-0.339D-01
 Coeff-Com: -0.444D-04 0.214D+00 0.823D+00
 Coeff:      0.165D-04-0.278D-05-0.214D-03-0.105D-02-0.241D-02-0.339D-01
 Coeff:     -0.444D-04 0.214D+00 0.823D+00
 Gap=     0.375 Goal=   None    Shift=    0.000
 RMSDP=5.25D-07 MaxDP=2.73D-05 DE=-1.34D-07 OVMax= 5.98D-05

 Cycle  10  Pass 1  IDiag  1:
 E= -1828.51784564670     Delta-E=       -0.000000013715 Rises=F Damp=F
 DIIS: error= 1.42D-06 at cycle  10 NSaved=  10.
 NSaved=10 IEnMin=10 EnMin= -1828.51784564670     IErMin=10 ErrMin= 1.42D-06
 ErrMax= 1.42D-06  0.00D+00 EMaxC= 1.00D-01 BMatC= 2.62D-09 BMatP= 1.11D-08
 IDIUse=1 WtCom= 1.00D+00 WtEn= 0.00D+00
 Coeff-Com:  0.779D-05 0.134D-03 0.479D-03 0.100D-02-0.189D-03-0.202D-01
 Coeff-Com: -0.239D-01-0.182D-01 0.383D+00 0.678D+00
 Coeff:      0.779D-05 0.134D-03 0.479D-03 0.100D-02-0.189D-03-0.202D-01
 Coeff:     -0.239D-01-0.182D-01 0.383D+00 0.678D+00
 Gap=     0.375 Goal=   None    Shift=    0.000
 RMSDP=1.83D-07 MaxDP=8.97D-06 DE=-1.37D-08 OVMax= 1.90D-05

 Cycle  11  Pass 1  IDiag  1:
 E= -1828.51784564896     Delta-E=       -0.000000002265 Rises=F Damp=F
 DIIS: error= 3.34D-07 at cycle  11 NSaved=  11.
 NSaved=11 IEnMin=11 EnMin= -1828.51784564896     IErMin=11 ErrMin= 3.34D-07
 ErrMax= 3.34D-07  0.00D+00 EMaxC= 1.00D-01 BMatC= 2.08D-10 BMatP= 2.62D-09
 IDIUse=1 WtCom= 1.00D+00 WtEn= 0.00D+00
 Coeff-Com:  0.141D-05 0.538D-04 0.212D-03 0.502D-03 0.301D-03-0.471D-02
 Coeff-Com: -0.867D-02-0.277D-01 0.682D-01 0.258D+00 0.714D+00
 Coeff:      0.141D-05 0.538D-04 0.212D-03 0.502D-03 0.301D-03-0.471D-02
 Coeff:     -0.867D-02-0.277D-01 0.682D-01 0.258D+00 0.714D+00
 Gap=     0.375 Goal=   None    Shift=    0.000
 RMSDP=5.30D-08 MaxDP=2.39D-06 DE=-2.26D-09 OVMax= 5.70D-06

 Cycle  12  Pass 1  IDiag  1:
 E= -1828.51784564926     Delta-E=       -0.000000000299 Rises=F Damp=F
 DIIS: error= 1.35D-07 at cycle  12 NSaved=  12.
 NSaved=12 IEnMin=12 EnMin= -1828.51784564926     IErMin=12 ErrMin= 1.35D-07
 ErrMax= 1.35D-07  0.00D+00 EMaxC= 1.00D-01 BMatC= 2.42D-11 BMatP= 2.08D-10
 IDIUse=1 WtCom= 1.00D+00 WtEn= 0.00D+00
 Coeff-Com: -0.755D-06-0.236D-05-0.162D-05 0.162D-04 0.201D-03 0.159D-02
 Coeff-Com:  0.116D-02-0.640D-02-0.377D-01-0.237D-01 0.236D+00 0.829D+00
 Coeff:     -0.755D-06-0.236D-05-0.162D-05 0.162D-04 0.201D-03 0.159D-02
 Coeff:      0.116D-02-0.640D-02-0.377D-01-0.237D-01 0.236D+00 0.829D+00
 Gap=     0.375 Goal=   None    Shift=    0.000
 RMSDP=2.17D-08 MaxDP=8.56D-07 DE=-2.99D-10 OVMax= 2.80D-06

 Cycle  13  Pass 1  IDiag  1:
 E= -1828.51784564931     Delta-E=       -0.000000000046 Rises=F Damp=F
 DIIS: error= 3.35D-08 at cycle  13 NSaved=  13.
 NSaved=13 IEnMin=13 EnMin= -1828.51784564931     IErMin=13 ErrMin= 3.35D-08
 ErrMax= 3.35D-08  0.00D+00 EMaxC= 1.00D-01 BMatC= 1.93D-12 BMatP= 2.42D-11
 IDIUse=1 WtCom= 1.00D+00 WtEn= 0.00D+00
 Coeff-Com: -0.327D-06-0.440D-05-0.145D-04-0.297D-04 0.512D-04 0.792D-03
 Coeff-Com:  0.940D-03-0.381D-03-0.167D-01-0.242D-01 0.278D-01 0.277D+00
 Coeff-Com:  0.735D+00
 Coeff:     -0.327D-06-0.440D-05-0.145D-04-0.297D-04 0.512D-04 0.792D-03
 Coeff:      0.940D-03-0.381D-03-0.167D-01-0.242D-01 0.278D-01 0.277D+00
 Coeff:      0.735D+00
 Gap=     0.375 Goal=   None    Shift=    0.000
 RMSDP=5.57D-09 MaxDP=2.66D-07 DE=-4.64D-11 OVMax= 8.98D-07

 Error on total polarization charges =  0.00064
 SCF Done:  E(RCAM-B3LYP) =  -1828.51784565     A.U. after   13 cycles
            NFock= 13  Conv=0.56D-08     -V/T= 2.0070
 KE= 1.815854556902D+03 PE=-1.008248350693D+04 EE= 3.561750966208D+03
 Leave Link  502 at Mon Feb  3 22:28:26 2025, MaxMem=  5368709120 cpu:       340.2
 (Enter /home/k0335/k033513/app/g09/l601.exe)
 Copying SCF densities to generalized density rwf, IOpCl= 0 IROHF=0.

 **********************************************************************

            Population analysis using the SCF density.

 **********************************************************************

 Alpha  occ. eigenvalues --  -24.84338 -24.84095 -24.84026 -24.83897 -24.83877
 Alpha  occ. eigenvalues --  -24.83748 -24.83637 -24.83470 -24.83387 -24.83131
 Alpha  occ. eigenvalues --  -24.82702 -24.82154 -24.82088 -19.31914 -19.30367
 Alpha  occ. eigenvalues --  -19.25428 -10.55753 -10.52919 -10.50565 -10.49471
 Alpha  occ. eigenvalues --  -10.49194 -10.48175 -10.44485 -10.43954  -1.42714
 Alpha  occ. eigenvalues --   -1.41001  -1.39455  -1.38628  -1.37713  -1.36328
 Alpha  occ. eigenvalues --   -1.35844  -1.33561  -1.33423  -1.32820  -1.32557
 Alpha  occ. eigenvalues --   -1.32289  -1.30667  -1.22277  -1.20161  -1.12378
 Alpha  occ. eigenvalues --   -0.98353  -0.92110  -0.90819  -0.85273  -0.81007
 Alpha  occ. eigenvalues --   -0.77548  -0.76569  -0.73793  -0.72560  -0.71452
 Alpha  occ. eigenvalues --   -0.70653  -0.70066  -0.69996  -0.68789  -0.68283
 Alpha  occ. eigenvalues --   -0.66923  -0.66404  -0.66042  -0.65849  -0.64631
 Alpha  occ. eigenvalues --   -0.64184  -0.62621  -0.58916  -0.58446  -0.58241
 Alpha  occ. eigenvalues --   -0.57203  -0.56653  -0.56490  -0.56174  -0.55671
 Alpha  occ. eigenvalues --   -0.55296  -0.54682  -0.54417  -0.54208  -0.53952
 Alpha  occ. eigenvalues --   -0.53674  -0.53173  -0.52831  -0.52236  -0.51974
 Alpha  occ. eigenvalues --   -0.51672  -0.51543  -0.51041  -0.50885  -0.50617
 Alpha  occ. eigenvalues --   -0.50076  -0.49676  -0.49633  -0.48765  -0.46203
 Alpha  occ. eigenvalues --   -0.44928  -0.44256  -0.42571  -0.41192  -0.37912
 Alpha virt. eigenvalues --   -0.00455   0.02618   0.06354   0.09385   0.10390
 Alpha virt. eigenvalues --    0.12148   0.12386   0.14240   0.17699   0.20137
 Alpha virt. eigenvalues --    0.22758   0.23794   0.24297   0.24857   0.25623
 Alpha virt. eigenvalues --    0.26343   0.27081   0.28378   0.29591   0.30633
 Alpha virt. eigenvalues --    0.32067   0.33088   0.35438   0.35619   0.38183
 Alpha virt. eigenvalues --    0.42103   0.45050   0.48650   0.49573   0.51012
 Alpha virt. eigenvalues --    0.52251   0.53266   0.54914   0.55072   0.57676
 Alpha virt. eigenvalues --    0.57810   0.60102   0.61201   0.61955   0.62916
 Alpha virt. eigenvalues --    0.64538   0.67619   0.68139   0.68918   0.70329
 Alpha virt. eigenvalues --    0.71579   0.74589   0.75085   0.78705   0.79898
 Alpha virt. eigenvalues --    0.82904   0.86549   0.88361   0.90663   0.92904
 Alpha virt. eigenvalues --    0.93484   0.95386   0.97529   1.00709   1.01649
 Alpha virt. eigenvalues --    1.02088   1.03374   1.06509   1.07841   1.09430
 Alpha virt. eigenvalues --    1.10012   1.11103   1.11387   1.12371   1.13123
 Alpha virt. eigenvalues --    1.14485   1.16021   1.17478   1.18382   1.19030
 Alpha virt. eigenvalues --    1.20426   1.22469   1.23658   1.24973   1.26988
 Alpha virt. eigenvalues --    1.27905   1.28340   1.28704   1.31342   1.33092
 Alpha virt. eigenvalues --    1.33648   1.34806   1.35762   1.36341   1.36567
 Alpha virt. eigenvalues --    1.37008   1.37699   1.37951   1.39108   1.39930
 Alpha virt. eigenvalues --    1.40536   1.41003   1.41221   1.41696   1.42276
 Alpha virt. eigenvalues --    1.43048   1.44014   1.45025   1.45622   1.46387
 Alpha virt. eigenvalues --    1.46560   1.47209   1.47812   1.49993   1.51175
 Alpha virt. eigenvalues --    1.52092   1.53063   1.55043   1.56712   1.57022
 Alpha virt. eigenvalues --    1.59447   1.59673   1.61728   1.62272   1.63854
 Alpha virt. eigenvalues --    1.65692   1.67278   1.67661   1.70655   1.72072
 Alpha virt. eigenvalues --    1.72472   1.73226   1.73811   1.74415   1.75272
 Alpha virt. eigenvalues --    1.76659   1.77461   1.77960   1.79231   1.81250
 Alpha virt. eigenvalues --    1.81689   1.82746   1.82984   1.84868   1.85363
 Alpha virt. eigenvalues --    1.85741   1.86651   1.88167   1.88791   1.89196
 Alpha virt. eigenvalues --    1.89475   1.90576   1.91402   1.92861   1.93768
 Alpha virt. eigenvalues --    1.96458   1.96902   1.97280   1.98250   1.99577
 Alpha virt. eigenvalues --    2.00420   2.01305   2.01930   2.02685   2.03554
 Alpha virt. eigenvalues --    2.04723   2.05371   2.05928   2.06295   2.06543
 Alpha virt. eigenvalues --    2.07090   2.07493   2.09173   2.09318   2.10035
 Alpha virt. eigenvalues --    2.10561   2.11490   2.11756   2.13883   2.14441
 Alpha virt. eigenvalues --    2.16721   2.18666   2.20555   2.22082   2.23746
 Alpha virt. eigenvalues --    2.24886   2.26163   2.27105   2.28934   2.30527
 Alpha virt. eigenvalues --    2.31597   2.32795   2.34043   2.35977   2.38012
 Alpha virt. eigenvalues --    2.38807   2.39474   2.40517   2.41832   2.42553
 Alpha virt. eigenvalues --    2.42770   2.44184   2.46175   2.47485   2.49178
 Alpha virt. eigenvalues --    2.51522   2.53086   2.55750   2.57806   2.58963
 Alpha virt. eigenvalues --    2.60120   2.61654   2.65817   2.67618   2.68560
 Alpha virt. eigenvalues --    2.71749   2.73952   2.77760   2.79079   2.80149
 Alpha virt. eigenvalues --    2.81679   2.84217   2.85994   2.86777   2.87685
 Alpha virt. eigenvalues --    2.88240   2.90906   2.91562   2.93816   2.95248
 Alpha virt. eigenvalues --    2.99027   2.99470   3.00753   3.03211   3.05621
 Alpha virt. eigenvalues --    3.07080   3.07719   3.08454   3.10083   3.12553
 Alpha virt. eigenvalues --    3.13994   3.16435   3.17437   3.19888   3.23083
 Alpha virt. eigenvalues --    3.23537   3.27036   3.32104   3.36593   3.37781
 Alpha virt. eigenvalues --    3.48183   4.00060   4.18623   4.28185   4.34166
 Alpha virt. eigenvalues --    4.37504   4.42239   4.49926   4.60295   4.66448
 Alpha virt. eigenvalues --    4.71360   4.77261   4.86747   4.95840   5.03753
 Alpha virt. eigenvalues --    5.11849   5.21931   5.28515   5.44724   5.56802
 Alpha virt. eigenvalues --    5.68644   6.27890   6.32242   6.60022   6.78571
          Condensed to atoms (all electrons):
               1          2          3          4          5          6
     1  F    9.136485   0.198512  -0.019670   0.000296   0.001155   0.000000
     2  C    0.198512   5.719685   0.109346  -0.035004  -0.047718   0.002531
     3  C   -0.019670   0.109346   4.789660   0.239509   0.238737  -0.021954
     4  F    0.000296  -0.035004   0.239509   9.111661  -0.014603  -0.000760
     5  C    0.001155  -0.047718   0.238737  -0.014603   4.188850   0.299315
     6  F    0.000000   0.002531  -0.021954  -0.000760   0.299315   9.047093
     7  F    0.000133   0.007445  -0.037033   0.000300   0.284544  -0.039198
     8  F   -0.000047  -0.005230  -0.033091  -0.000303   0.273954  -0.039773
     9  F   -0.000590  -0.035785   0.238208  -0.039447  -0.016875  -0.000533
    10  C   -0.027944   0.117477  -0.027261  -0.000718   0.003447  -0.000025
    11  O   -0.000226  -0.026978   0.002937  -0.000029  -0.000031   0.000000
    12  C    0.006569  -0.058256   0.002456  -0.000139   0.000123   0.000000
    13  F    0.000000   0.002228  -0.000023   0.000000   0.000000   0.000000
    14  F   -0.000137   0.006137   0.000130   0.000000  -0.000011   0.000000
    15  C   -0.021868   0.074741  -0.027513   0.002209  -0.009767   0.000016
    16  F    0.000366  -0.051710   0.007925  -0.001533  -0.001926   0.000001
    17  F   -0.000498  -0.027976  -0.007846   0.000002   0.012176   0.000000
    18  C    0.008020  -0.042766  -0.005765   0.000149  -0.000118   0.000000
    19  F   -0.001333   0.001716   0.000165   0.000000   0.000005   0.000000
    20  C    0.000049  -0.001276   0.000597  -0.000096   0.000026   0.000000
    21  O    0.000010  -0.001330   0.001283  -0.000009   0.000002   0.000000
    22  O   -0.000340   0.003970  -0.000840   0.000000  -0.000010   0.000000
    23  F    0.000004   0.001897   0.000031   0.000000   0.000000   0.000000
    24  F    0.000365  -0.044943   0.016079  -0.003796   0.000173   0.000000
    25  H    0.000001  -0.000021   0.000038   0.000001   0.000000   0.000000
               7          8          9         10         11         12
     1  F    0.000133  -0.000047  -0.000590  -0.027944  -0.000226   0.006569
     2  C    0.007445  -0.005230  -0.035785   0.117477  -0.026978  -0.058256
     3  C   -0.037033  -0.033091   0.238208  -0.027261   0.002937   0.002456
     4  F    0.000300  -0.000303  -0.039447  -0.000718  -0.000029  -0.000139
     5  C    0.284544   0.273954  -0.016875   0.003447  -0.000031   0.000123
     6  F   -0.039198  -0.039773  -0.000533  -0.000025   0.000000   0.000000
     7  F    9.063329  -0.038009  -0.000278   0.000055   0.000000   0.000014
     8  F   -0.038009   9.068488   0.000294   0.000073   0.000000   0.000200
     9  F   -0.000278   0.000294   9.104478   0.006585   0.000005  -0.000071
    10  C    0.000055   0.000073   0.006585   4.956373   0.193254  -0.039018
    11  O    0.000000   0.000000   0.000005   0.193254   8.367502   0.194992
    12  C    0.000014   0.000200  -0.000071  -0.039018   0.194992   4.326971
    13  F    0.000000   0.000000   0.000000   0.001597  -0.040467   0.322482
    14  F    0.000000   0.000000   0.000000   0.000432  -0.054038   0.273095
    15  C   -0.001773   0.020230   0.002158  -0.034999  -0.047618   0.236481
    16  F    0.000003  -0.000579   0.000001   0.015818  -0.002573  -0.016052
    17  F   -0.000304  -0.007766   0.000000   0.002276   0.000776  -0.019164
    18  C    0.000004   0.000000  -0.005591   0.216269  -0.034928  -0.002511
    19  F    0.000000   0.000000   0.000003  -0.028769  -0.001022   0.001839
    20  C   -0.000004   0.000000   0.020729  -0.072838   0.002306   0.000278
    21  O    0.000000   0.000000  -0.001938   0.007431  -0.000007  -0.000002
    22  O    0.000000   0.000000  -0.005413  -0.002108  -0.000012  -0.000005
    23  F    0.000000   0.000000   0.000001  -0.023164  -0.000084   0.000257
    24  F    0.000000   0.000000  -0.000932   0.256867  -0.049369  -0.000057
    25  H    0.000000   0.000000   0.000260  -0.000277   0.000002   0.000000
              13         14         15         16         17         18
     1  F    0.000000  -0.000137  -0.021868   0.000366  -0.000498   0.008020
     2  C    0.002228   0.006137   0.074741  -0.051710  -0.027976  -0.042766
     3  C   -0.000023   0.000130  -0.027513   0.007925  -0.007846  -0.005765
     4  F    0.000000   0.000000   0.002209  -0.001533   0.000002   0.000149
     5  C    0.000000  -0.000011  -0.009767  -0.001926   0.012176  -0.000118
     6  F    0.000000   0.000000   0.000016   0.000001   0.000000   0.000000
     7  F    0.000000   0.000000  -0.001773   0.000003  -0.000304   0.000004
     8  F    0.000000   0.000000   0.020230  -0.000579  -0.007766   0.000000
     9  F    0.000000   0.000000   0.002158   0.000001   0.000000  -0.005591
    10  C    0.001597   0.000432  -0.034999   0.015818   0.002276   0.216269
    11  O   -0.040467  -0.054038  -0.047618  -0.002573   0.000776  -0.034928
    12  C    0.322482   0.273095   0.236481  -0.016052  -0.019164  -0.002511
    13  F    9.026013  -0.040678  -0.026074  -0.000544  -0.000205  -0.000051
    14  F   -0.040678   9.096784  -0.035173   0.000308  -0.000037   0.000261
    15  C   -0.026074  -0.035173   4.822124   0.237685   0.262794   0.003644
    16  F   -0.000544   0.000308   0.237685   9.108906  -0.038580   0.000068
    17  F   -0.000205  -0.000037   0.262794  -0.038580   9.080022  -0.000012
    18  C   -0.000051   0.000261   0.003644   0.000068  -0.000012   4.640256
    19  F    0.000000   0.000307  -0.000643   0.000000   0.000000   0.270049
    20  C    0.000000  -0.000003  -0.000085  -0.000001   0.000000   0.218429
    21  O    0.000000   0.000000  -0.000006   0.000000   0.000000  -0.074566
    22  O    0.000000   0.000000   0.000020   0.000000   0.000000  -0.049241
    23  F    0.000000   0.000000  -0.000091   0.000000   0.000000   0.265105
    24  F   -0.000001  -0.000007   0.003847  -0.000424  -0.000001  -0.030626
    25  H    0.000000   0.000000  -0.000001   0.000000   0.000000   0.007085
              19         20         21         22         23         24
     1  F   -0.001333   0.000049   0.000010  -0.000340   0.000004   0.000365
     2  C    0.001716  -0.001276  -0.001330   0.003970   0.001897  -0.044943
     3  C    0.000165   0.000597   0.001283  -0.000840   0.000031   0.016079
     4  F    0.000000  -0.000096  -0.000009   0.000000   0.000000  -0.003796
     5  C    0.000005   0.000026   0.000002  -0.000010   0.000000   0.000173
     6  F    0.000000   0.000000   0.000000   0.000000   0.000000   0.000000
     7  F    0.000000  -0.000004   0.000000   0.000000   0.000000   0.000000
     8  F    0.000000   0.000000   0.000000   0.000000   0.000000   0.000000
     9  F    0.000003   0.020729  -0.001938  -0.005413   0.000001  -0.000932
    10  C   -0.028769  -0.072838   0.007431  -0.002108  -0.023164   0.256867
    11  O   -0.001022   0.002306  -0.000007  -0.000012  -0.000084  -0.049369
    12  C    0.001839   0.000278  -0.000002  -0.000005   0.000257  -0.000057
    13  F    0.000000   0.000000   0.000000   0.000000   0.000000  -0.000001
    14  F    0.000307  -0.000003   0.000000   0.000000   0.000000  -0.000007
    15  C   -0.000643  -0.000085  -0.000006   0.000020  -0.000091   0.003847
    16  F    0.000000  -0.000001   0.000000   0.000000   0.000000  -0.000424
    17  F    0.000000   0.000000   0.000000   0.000000   0.000000  -0.000001
    18  C    0.270049   0.218429  -0.074566  -0.049241   0.265105  -0.030626
    19  F    9.093425  -0.029646   0.000653  -0.001408  -0.040112   0.000297
    20  C   -0.029646   4.602519   0.244057   0.534896  -0.030505   0.001639
    21  O    0.000653   0.244057   8.111373  -0.095378   0.001778   0.000554
    22  O   -0.001408   0.534896  -0.095378   8.051037   0.000674   0.000017
    23  F   -0.040112  -0.030505   0.001778   0.000674   9.092059  -0.000340
    24  F    0.000297   0.001639   0.000554   0.000017  -0.000340   9.105447
    25  H   -0.000037  -0.012585   0.282511   0.008808  -0.000142   0.000090
              25
     1  F    0.000001
     2  C   -0.000021
     3  C    0.000038
     4  F    0.000001
     5  C    0.000000
     6  F    0.000000
     7  F    0.000000
     8  F    0.000000
     9  F    0.000260
    10  C   -0.000277
    11  O    0.000002
    12  C    0.000000
    13  F    0.000000
    14  F    0.000000
    15  C   -0.000001
    16  F    0.000000
    17  F    0.000000
    18  C    0.007085
    19  F   -0.000037
    20  C   -0.012585
    21  O    0.282511
    22  O    0.008808
    23  F   -0.000142
    24  F    0.000090
    25  H    0.352415
 Mulliken charges:
               1
     1  F   -0.279313
     2  C    0.133310
     3  C    0.533895
     4  F   -0.257688
     5  C    0.788555
     6  F   -0.246711
     7  F   -0.239227
     8  F   -0.238442
     9  F   -0.265268
    10  C    0.479168
    11  O   -0.504392
    12  C    0.769519
    13  F   -0.244275
    14  F   -0.247367
    15  C    0.539664
    16  F   -0.257158
    17  F   -0.255656
    18  C    0.616834
    19  F   -0.265489
    20  C    0.521515
    21  O   -0.476415
    22  O   -0.444667
    23  F   -0.267367
    24  F   -0.254878
    25  H    0.361851
 Sum of Mulliken charges =   0.00000
 Mulliken charges with hydrogens summed into heavy atoms:
               1
     1  F   -0.279313
     2  C    0.133310
     3  C    0.533895
     4  F   -0.257688
     5  C    0.788555
     6  F   -0.246711
     7  F   -0.239227
     8  F   -0.238442
     9  F   -0.265268
    10  C    0.479168
    11  O   -0.504392
    12  C    0.769519
    13  F   -0.244275
    14  F   -0.247367
    15  C    0.539664
    16  F   -0.257158
    17  F   -0.255656
    18  C    0.616834
    19  F   -0.265489
    20  C    0.521515
    21  O   -0.114563
    22  O   -0.444667
    23  F   -0.267367
    24  F   -0.254878
 Electronic spatial extent (au):  <R**2>=           5394.8103
 Charge=              0.0000 electrons
 Dipole moment (field-independent basis, Debye):
    X=              0.3966    Y=              1.8000    Z=              0.7754  Tot=              1.9996
 Quadrupole moment (field-independent basis, Debye-Ang):
   XX=           -120.9175   YY=           -123.0256   ZZ=           -132.6891
   XY=              7.0628   XZ=             -0.3270   YZ=              0.6235
 Traceless Quadrupole moment (field-independent basis, Debye-Ang):
   XX=              4.6266   YY=              2.5184   ZZ=             -7.1450
   XY=              7.0628   XZ=             -0.3270   YZ=              0.6235
 Octapole moment (field-independent basis, Debye-Ang**2):
  XXX=             59.7842  YYY=             53.9739  ZZZ=             41.4647  XYY=             28.6618
  XXY=             33.7257  XXZ=              2.6964  XZZ=              1.7018  YZZ=              5.5145
  YYZ=              8.7926  XYZ=              0.0980
 Hexadecapole moment (field-independent basis, Debye-Ang**3):
 XXXX=          -2458.0877 YYYY=          -2067.8439 ZZZZ=           -857.9393 XXXY=            175.9437
 XXXZ=            112.0226 YYYX=            155.4064 YYYZ=            143.2224 ZZZX=            175.7909
 ZZZY=            164.8169 XXYY=           -706.6173 XXZZ=           -578.8349 YYZZ=           -500.7536
 XXYZ=             38.7033 YYXZ=             43.0600 ZZXY=             14.4114
 N-N= 2.876360138170D+03 E-N=-1.008248350388D+04  KE= 1.815854556902D+03
 No NMR shielding tensors so no spin-rotation constants.
 Leave Link  601 at Mon Feb  3 22:28:27 2025, MaxMem=  5368709120 cpu:         4.9
 (Enter /home/k0335/k033513/app/g09/l701.exe)
 Compute integral first derivatives.
 ... and contract with generalized density number  0.
 D1PCM: PCM CHGder 1st derivatives, ID1Alg=3 FixD1E=F DoIter=F DoCFld=F I1PDM=0.
 GePol: Maximum number of non-zero 1st derivatives   =     208
 Leave Link  701 at Mon Feb  3 22:28:27 2025, MaxMem=  5368709120 cpu:        15.2
 (Enter /home/k0335/k033513/app/g09/l702.exe)
 L702 exits ... SP integral derivatives will be done elsewhere.
 Leave Link  702 at Mon Feb  3 22:28:28 2025, MaxMem=  5368709120 cpu:         0.1
 (Enter /home/k0335/k033513/app/g09/l703.exe)
 Compute integral first derivatives, UseDBF=F ICtDFT=           0.
 Integral derivatives from FoFJK, PRISM(SPDF).
 Calling FoFJK, ICntrl=      2127 FMM=F ISym2X=0 I1Cent= 0 IOpClX= 0 NMat=1 NMatS=1 NMatT=0.
 FoFJK:  IHMeth= 1 ICntrl=    2127 DoSepK=T KAlg= 0 I1Cent=   0 FoldK=F
 IRaf=         1 NMat=   1 IRICut=       1 DoRegI=T DoRafI=F ISym2E= 0.
 FoFCou: FMM=F IPFlag=           0 FMFlag=      100000 FMFlg1=         800
         NFxFlg=           0 DoJE=F BraDBF=F KetDBF=F FulRan=T
         wScrn=  0.000000 ICntrl=    2527 IOpCl=  0 I1Cent=           0 NGrid=           0
         NMat0=    1 NMatS0=      1 NMatT0=    0 NMatD0=    1 NMtDS0=    0 NMtDT0=    0
 Symmetry not used in FoFCou.
 Leave Link  703 at Mon Feb  3 22:28:33 2025, MaxMem=  5368709120 cpu:       123.8
 (Enter /home/k0335/k033513/app/g09/l716.exe)
 Dipole        = 1.56033776D-01 7.08179376D-01 3.05058717D-01
 -------------------------------------------------------------------
 Center     Atomic                   Forces (Hartrees/Bohr)
 Number     Number              X              Y              Z
 -------------------------------------------------------------------
      1        9          -0.004143365    0.004692272    0.000243154
      2        6           0.005613746    0.005528309   -0.003627253
      3        6           0.023195890    0.022029126    0.016989619
      4        9          -0.014589607    0.000299976   -0.014312435
      5        6          -0.039110073    0.024292171   -0.015289980
      6        9           0.010981237   -0.020167914    0.000372863
      7        9           0.008590510    0.000560843    0.018071175
      8        9           0.017464490    0.010244720   -0.002245655
      9        9          -0.014490773   -0.002420448   -0.004287422
     10        6           0.014241297   -0.028618053    0.030410368
     11        8          -0.030434822    0.029347215   -0.019945587
     12        6           0.027219637   -0.044750743    0.010925655
     13        9           0.005797116    0.014094997   -0.007531675
     14        9          -0.011883367    0.005276729    0.006031364
     15        6          -0.029794254   -0.001149747    0.004382630
     16        9           0.006166197   -0.010601149   -0.005382381
     17        9           0.009742457   -0.013042804   -0.003705718
     18        6           0.011794441   -0.031860490   -0.006993508
     19        9           0.000545236    0.020065830    0.013301931
     20        6           0.015937709    0.053737150   -0.031336241
     21        8          -0.005800215   -0.015951058   -0.004505918
     22        8           0.000978783   -0.032902913    0.023673144
     23        9          -0.014537841    0.016865415    0.000256935
     24        9           0.009575836    0.003195358   -0.009968109
     25        1          -0.003060268   -0.008764792    0.004473044
 -------------------------------------------------------------------
 Cartesian Forces:  Max     0.053737150 RMS     0.017623132
 Leave Link  716 at Mon Feb  3 22:28:33 2025, MaxMem=  5368709120 cpu:         0.2
 (Enter /home/k0335/k033513/app/g09/l103.exe)

 GradGradGradGradGradGradGradGradGradGradGradGradGradGradGradGradGradGrad
 Berny optimization.
 FormGI is forming the generalized inverse of G from B-inverse, IUseBI=4.
 Internal  Forces:  Max     0.034930200 RMS     0.011115580
 Search for a local minimum.
 Step number   1 out of a maximum of  150
 All quantities printed in internal units (Hartrees-Bohrs-Radians)
 RMS Force = .11116D-01 SwitMx=.10000D-02 MixMth= 1
 Mixed Optimization -- RFO/linear search
 Second derivative matrix not updated -- first step.
 ITU=  0
     Eigenvalues ---    0.00230   0.00406   0.00526   0.00591   0.00648
     Eigenvalues ---    0.00934   0.01077   0.02348   0.03682   0.04421
     Eigenvalues ---    0.05161   0.05300   0.05733   0.05902   0.06547
     Eigenvalues ---    0.06793   0.06988   0.07762   0.08087   0.08235
     Eigenvalues ---    0.08401   0.08699   0.09853   0.10230   0.10887
     Eigenvalues ---    0.12119   0.13432   0.14507   0.14539   0.16000
     Eigenvalues ---    0.17283   0.17563   0.18327   0.19378   0.20130
     Eigenvalues ---    0.20492   0.23332   0.24997   0.25000   0.25000
     Eigenvalues ---    0.25000   0.25000   0.25000   0.25000   0.27368
     Eigenvalues ---    0.28431   0.29679   0.30299   0.30548   0.31032
     Eigenvalues ---    0.31081   0.36276   0.40688   0.50726   0.50904
     Eigenvalues ---    0.51069   0.52248   0.52264   0.52729   0.53627
     Eigenvalues ---    0.54056   0.54122   0.54831   0.54859   0.54927
     Eigenvalues ---    0.54936   0.56108   0.56271   0.94191
 RFO step:  Lambda=-5.46403366D-02 EMin= 2.30000000D-03
 Linear search not attempted -- first point.
 Maximum step size (   0.300) exceeded in Quadratic search.
    -- Step size scaled by   0.791
 Iteration  1 RMS(Cart)=  0.10949499 RMS(Int)=  0.00318750
 Iteration  2 RMS(Cart)=  0.00447253 RMS(Int)=  0.00051571
 Iteration  3 RMS(Cart)=  0.00000713 RMS(Int)=  0.00051568
 Iteration  4 RMS(Cart)=  0.00000001 RMS(Int)=  0.00051568
 ITry= 1 IFail=0 DXMaxC= 4.48D-01 DCOld= 1.00D+10 DXMaxT= 3.00D-01 DXLimC= 3.00D+00 Rises=F
 Variable       Old X    -DE/DX   Delta X   Delta X   Delta X     New X
                                 (Linear)    (Quad)   (Total)
    R1        2.57662  -0.00090   0.00000  -0.00124  -0.00124   2.57539
    R2        2.85951   0.03493   0.00000   0.07571   0.07571   2.93522
    R3        2.90051   0.02435   0.00000   0.05773   0.05777   2.95828
    R4        2.83108   0.03237   0.00000   0.07415   0.07393   2.90501
    R5        2.57208  -0.01501   0.00000  -0.02040  -0.02040   2.55168
    R6        2.88607   0.00633   0.00000   0.01425   0.01425   2.90032
    R7        2.57647  -0.01011   0.00000  -0.01385  -0.01385   2.56262
    R8        2.55981  -0.02095   0.00000  -0.02784  -0.02784   2.53196
    R9        2.55282  -0.01874   0.00000  -0.02459  -0.02459   2.52824
   R10        2.55257  -0.01887   0.00000  -0.02475  -0.02475   2.52783
   R11        2.75133  -0.01738   0.00000  -0.03628  -0.03594   2.71539
   R12        2.91207   0.00533   0.00000   0.01244   0.01244   2.92451
   R13        2.56373  -0.00493   0.00000  -0.00661  -0.00661   2.55712
   R14        2.67694  -0.02034   0.00000  -0.03661  -0.03642   2.64052
   R15        2.54160  -0.01657   0.00000  -0.02129  -0.02129   2.52031
   R16        2.55197  -0.00787   0.00000  -0.01031  -0.01031   2.54167
   R17        2.84856   0.00830   0.00000   0.01796   0.01765   2.86622
   R18        2.55920  -0.00915   0.00000  -0.01215  -0.01215   2.54705
   R19        2.54019  -0.00656   0.00000  -0.00841  -0.00841   2.53178
   R20        2.58802  -0.02218   0.00000  -0.03103  -0.03103   2.55698
   R21        2.86883   0.00065   0.00000   0.00143   0.00143   2.87026
   R22        2.59140  -0.01877   0.00000  -0.02643  -0.02643   2.56497
   R23        2.55189  -0.01740   0.00000  -0.02279  -0.02279   2.52910
   R24        2.31059  -0.03490   0.00000  -0.02770  -0.02770   2.28289
   R25        1.85664  -0.01025   0.00000  -0.01438  -0.01438   1.84226
    A1        1.91535  -0.00861   0.00000  -0.02960  -0.02938   1.88596
    A2        1.89993   0.00531   0.00000   0.00302   0.00236   1.90229
    A3        1.90205  -0.00439   0.00000  -0.02608  -0.02547   1.87658
    A4        2.00672   0.00097   0.00000  -0.00083  -0.00064   2.00608
    A5        1.96886   0.02104   0.00000   0.07789   0.07793   2.04680
    A6        1.76394  -0.01476   0.00000  -0.02575  -0.02686   1.73708
    A7        1.92866   0.00083   0.00000   0.02113   0.02195   1.95061
    A8        1.98895   0.02855   0.00000   0.07269   0.07312   2.06207
    A9        1.89104  -0.00676   0.00000  -0.01506  -0.01356   1.87748
   A10        1.91148  -0.01850   0.00000  -0.05381  -0.05551   1.85597
   A11        1.82914   0.01008   0.00000   0.02942   0.02757   1.85671
   A12        1.90752  -0.01582   0.00000  -0.05856  -0.05881   1.84870
   A13        1.94153  -0.01458   0.00000  -0.04275  -0.04323   1.89830
   A14        1.95301  -0.00731   0.00000  -0.01603  -0.01626   1.93675
   A15        1.95379  -0.00305   0.00000  -0.00597  -0.00612   1.94767
   A16        1.87223   0.01033   0.00000   0.02325   0.02272   1.89495
   A17        1.86280   0.00718   0.00000   0.01313   0.01274   1.87555
   A18        1.87571   0.00933   0.00000   0.03309   0.03315   1.90886
   A19        1.88248  -0.00538   0.00000  -0.01288  -0.01219   1.87029
   A20        2.02784   0.01608   0.00000   0.04581   0.04603   2.07388
   A21        1.91586   0.00051   0.00000   0.01124   0.01137   1.92723
   A22        1.87709  -0.01017   0.00000  -0.04346  -0.04372   1.83337
   A23        1.81464   0.00906   0.00000   0.03378   0.03333   1.84798
   A24        1.93252  -0.01088   0.00000  -0.03619  -0.03653   1.89599
   A25        1.84612   0.02749   0.00000   0.06692   0.06689   1.91301
   A26        1.91330   0.00539   0.00000   0.01027   0.01022   1.92352
   A27        1.86076   0.01243   0.00000   0.04433   0.04385   1.90461
   A28        1.85920  -0.01227   0.00000  -0.02931  -0.02954   1.82966
   A29        1.88453   0.00195   0.00000   0.00836   0.00785   1.89238
   A30        1.98621  -0.00016   0.00000  -0.00420  -0.00438   1.98183
   A31        1.95565  -0.00626   0.00000  -0.02562  -0.02520   1.93044
   A32        1.75784   0.00674   0.00000   0.02491   0.02514   1.78298
   A33        1.92888  -0.00144   0.00000   0.00309   0.00311   1.93199
   A34        1.97194   0.00526   0.00000   0.02388   0.02445   1.99638
   A35        1.94038  -0.00828   0.00000  -0.03922  -0.03970   1.90068
   A36        1.99097  -0.00999   0.00000  -0.04463  -0.04495   1.94602
   A37        1.87366   0.00713   0.00000   0.02979   0.02830   1.90196
   A38        1.89161  -0.00405   0.00000  -0.00304  -0.00280   1.88881
   A39        1.97402   0.02549   0.00000   0.06220   0.06259   2.03661
   A40        1.89709  -0.01267   0.00000  -0.03715  -0.03661   1.86048
   A41        1.94014  -0.01247   0.00000  -0.03286  -0.03323   1.90692
   A42        1.82599   0.01097   0.00000   0.03754   0.03724   1.86323
   A43        1.92851  -0.00852   0.00000  -0.02886  -0.02837   1.90013
   A44        1.99404  -0.01745   0.00000  -0.04521  -0.04527   1.94878
   A45        2.20141  -0.01470   0.00000  -0.03809  -0.03815   2.16327
   A46        2.08755   0.03217   0.00000   0.08365   0.08359   2.17114
   A47        1.83840  -0.00055   0.00000  -0.00202  -0.00202   1.83638
    D1       -3.08528  -0.00387   0.00000  -0.01539  -0.01482  -3.10011
    D2        1.03689  -0.00135   0.00000  -0.01503  -0.01552   1.02136
    D3       -1.09049   0.00481   0.00000   0.02253   0.02230  -1.06819
    D4       -0.93690  -0.00293   0.00000  -0.03538  -0.03482  -0.97172
    D5       -3.09792  -0.00041   0.00000  -0.03502  -0.03552  -3.13344
    D6        1.05789   0.00576   0.00000   0.00254   0.00231   1.06019
    D7        1.07351  -0.00643   0.00000  -0.01387  -0.01314   1.06037
    D8       -1.08751  -0.00390   0.00000  -0.01350  -0.01384  -1.10135
    D9        3.06830   0.00226   0.00000   0.02405   0.02399   3.09229
   D10       -1.59051   0.00402   0.00000  -0.00044  -0.00011  -1.59061
   D11        0.51718  -0.00257   0.00000  -0.03616  -0.03634   0.48084
   D12        2.72629  -0.00406   0.00000  -0.03897  -0.03859   2.68770
   D13        2.53609   0.01048   0.00000   0.03676   0.03696   2.57305
   D14       -1.63940   0.00389   0.00000   0.00104   0.00072  -1.63868
   D15        0.56970   0.00240   0.00000  -0.00176  -0.00152   0.56818
   D16        0.41042  -0.00580   0.00000  -0.04053  -0.03980   0.37062
   D17        2.51811  -0.01238   0.00000  -0.07624  -0.07604   2.44207
   D18       -1.55597  -0.01387   0.00000  -0.07905  -0.07828  -1.63425
   D19        1.33479   0.00130   0.00000   0.01389   0.01444   1.34923
   D20       -2.89581  -0.00524   0.00000  -0.01670  -0.01664  -2.91245
   D21       -0.79606   0.00645   0.00000   0.03996   0.04018  -0.75588
   D22       -2.81650   0.00130   0.00000   0.00977   0.01012  -2.80638
   D23       -0.76391  -0.00524   0.00000  -0.02083  -0.02096  -0.78487
   D24        1.33584   0.00645   0.00000   0.03583   0.03586   1.37170
   D25       -0.66455   0.00388   0.00000   0.03225   0.03251  -0.63204
   D26        1.38803  -0.00266   0.00000   0.00165   0.00143   1.38947
   D27       -2.79540   0.00903   0.00000   0.05831   0.05825  -2.73715
   D28       -3.04990   0.00424   0.00000   0.03909   0.03893  -3.01098
   D29       -0.95603   0.00240   0.00000   0.02840   0.02843  -0.92760
   D30        1.15086   0.00709   0.00000   0.05550   0.05526   1.20612
   D31        1.06301  -0.00334   0.00000  -0.00003   0.00109   1.06411
   D32       -3.12630  -0.00518   0.00000  -0.01072  -0.00940  -3.13570
   D33       -1.01940  -0.00049   0.00000   0.01638   0.01742  -1.00198
   D34       -0.93164   0.00336   0.00000   0.02620   0.02512  -0.90652
   D35        1.16223   0.00152   0.00000   0.01550   0.01463   1.17686
   D36       -3.01406   0.00621   0.00000   0.04261   0.04145  -2.97260
   D37        0.03805   0.00292   0.00000   0.02337   0.02397   0.06202
   D38       -2.16153  -0.00699   0.00000   0.00273   0.00237  -2.15916
   D39        2.07155   0.00553   0.00000   0.04687   0.04776   2.11931
   D40       -1.06900   0.00417   0.00000   0.01357   0.01342  -1.05557
   D41        1.09057   0.00261   0.00000   0.01170   0.01197   1.10254
   D42       -3.04398  -0.00019   0.00000  -0.01003  -0.01014  -3.05412
   D43        1.04158   0.00011   0.00000  -0.00590  -0.00665   1.03493
   D44       -3.08204  -0.00145   0.00000  -0.00777  -0.00810  -3.09014
   D45       -0.93340  -0.00425   0.00000  -0.02950  -0.03021  -0.96361
   D46        3.01344  -0.00021   0.00000  -0.00790  -0.00746   3.00598
   D47       -1.11018  -0.00177   0.00000  -0.00977  -0.00891  -1.11909
   D48        1.03846  -0.00457   0.00000  -0.03149  -0.03102   1.00743
   D49       -2.63685   0.00286   0.00000   0.01440   0.01454  -2.62231
   D50        1.61067  -0.00902   0.00000  -0.02504  -0.02598   1.58469
   D51       -0.48046  -0.00181   0.00000  -0.00293  -0.00308  -0.48354
   D52        0.73864  -0.00320   0.00000  -0.02576  -0.02612   0.71251
   D53       -1.30548  -0.00173   0.00000  -0.02645  -0.02614  -1.33162
   D54        2.85607   0.00249   0.00000  -0.00320  -0.00380   2.85227
   D55        2.84897  -0.00504   0.00000  -0.03575  -0.03599   2.81298
   D56        0.80485  -0.00357   0.00000  -0.03643  -0.03601   0.76884
   D57       -1.31679   0.00065   0.00000  -0.01319  -0.01366  -1.33045
   D58       -1.28992  -0.00748   0.00000  -0.04796  -0.04824  -1.33816
   D59        2.94915  -0.00601   0.00000  -0.04865  -0.04826   2.90089
   D60        0.82752  -0.00179   0.00000  -0.02540  -0.02592   0.80160
   D61        1.31057  -0.00281   0.00000  -0.01485  -0.01491   1.29566
   D62       -1.81055  -0.00462   0.00000  -0.03610  -0.03579  -1.84634
   D63       -2.83995   0.00107   0.00000   0.00176   0.00122  -2.83873
   D64        0.32211  -0.00075   0.00000  -0.01948  -0.01965   0.30246
   D65       -0.82058   0.00186   0.00000   0.01057   0.01062  -0.80996
   D66        2.34148   0.00004   0.00000  -0.01067  -0.01026   2.33123
   D67        3.12373   0.00032   0.00000  -0.00015  -0.00071   3.12303
   D68       -0.03687   0.00146   0.00000   0.01816   0.01871  -0.01816
         Item               Value     Threshold  Converged?
 Maximum Force            0.034930     0.000450     NO 
 RMS     Force            0.011116     0.000300     NO 
 Maximum Displacement     0.448250     0.001800     NO 
 RMS     Displacement     0.108828     0.001200     NO 
 Predicted change in Energy=-3.010374D-02
 Lowest energy point so far.  Saving SCF results.
 GradGradGradGradGradGradGradGradGradGradGradGradGradGradGradGradGradGrad

 Leave Link  103 at Mon Feb  3 22:28:34 2025, MaxMem=  5368709120 cpu:         8.6
 (Enter /home/k0335/k033513/app/g09/l202.exe)
                          Input orientation:                          
 ---------------------------------------------------------------------
 Center     Atomic      Atomic             Coordinates (Angstroms)
 Number     Number       Type             X           Y           Z
 ---------------------------------------------------------------------
      1          9           0       -0.593085   -0.349072   -1.485390
      2          6           0       -0.556454   -0.151545   -0.137442
      3          6           0       -0.860126    1.346613    0.138058
      4          9           0       -0.791928    1.637306    1.454922
      5          6           0       -2.193534    1.918950   -0.361959
      6          9           0       -2.190931    3.245480   -0.173468
      7          9           0       -2.360357    1.674266   -1.666657
      8          9           0       -3.230344    1.418764    0.319358
[...]
 Symmetry turned off by external request.
 Stoichiometry    C8HF13O3
 Framework group  C1[X(C8HF13O3)]
 Deg. of freedom    69
 Full point group                 C1      NOp   1
 Rotational constants (GHZ):      0.3240535      0.2757315      0.1948589
 Leave Link  202 at Mon Feb  3 22:36:58 2025, MaxMem=  5368709120 cpu:         0.0
 (Enter /home/k0335/k033513/app/g09/l601.exe)
 Copying SCF densities to generalized density rwf, IOpCl= 0 IROHF=0.

 **********************************************************************

            Population analysis using the SCF density.

 **********************************************************************

 Alpha  occ. eigenvalues --  -24.84026 -24.83951 -24.83673 -24.83665 -24.83661
 Alpha  occ. eigenvalues --  -24.83542 -24.83390 -24.83234 -24.83109 -24.82743
 Alpha  occ. eigenvalues --  -24.82472 -24.81898 -24.81668 -19.31875 -19.30472
 Alpha  occ. eigenvalues --  -19.25134 -10.54935 -10.52438 -10.49522 -10.48770
 Alpha  occ. eigenvalues --  -10.47567 -10.47368 -10.43623 -10.43241  -1.43547
 Alpha  occ. eigenvalues --   -1.41105  -1.39479  -1.38605  -1.38133  -1.35670
 Alpha  occ. eigenvalues --   -1.35525  -1.34186  -1.33785  -1.33483  -1.32987
 Alpha  occ. eigenvalues --   -1.32289  -1.31303  -1.22810  -1.22167  -1.13810
 Alpha  occ. eigenvalues --   -0.95634  -0.90905  -0.89118  -0.84579  -0.80990
 Alpha  occ. eigenvalues --   -0.76908  -0.76534  -0.73844  -0.72038  -0.71522
 Alpha  occ. eigenvalues --   -0.70617  -0.70375  -0.69900  -0.68928  -0.68379
 Alpha  occ. eigenvalues --   -0.67274  -0.66742  -0.66468  -0.65808  -0.64490
 Alpha  occ. eigenvalues --   -0.64148  -0.62758  -0.58504  -0.58385  -0.57598
 Alpha  occ. eigenvalues --   -0.57128  -0.56490  -0.56275  -0.55958  -0.55477
 Alpha  occ. eigenvalues --   -0.55119  -0.54685  -0.54501  -0.54037  -0.53809
 Alpha  occ. eigenvalues --   -0.53547  -0.53405  -0.52742  -0.52341  -0.52119
 Alpha  occ. eigenvalues --   -0.51808  -0.51669  -0.51011  -0.50661  -0.50300
 Alpha  occ. eigenvalues --   -0.50193  -0.49742  -0.48836  -0.48033  -0.46136
 Alpha  occ. eigenvalues --   -0.45002  -0.43165  -0.41943  -0.41287  -0.37560
 Alpha virt. eigenvalues --    0.01518   0.03861   0.08245   0.11322   0.12435
 Alpha virt. eigenvalues --    0.13507   0.14999   0.16296   0.19357   0.21577
 Alpha virt. eigenvalues --    0.23944   0.24513   0.24802   0.26702   0.27191
 Alpha virt. eigenvalues --    0.27790   0.28377   0.29707   0.30167   0.31175
 Alpha virt. eigenvalues --    0.33113   0.34069   0.35108   0.37447   0.38500
 Alpha virt. eigenvalues --    0.43875   0.45672   0.48489   0.49933   0.50397
 Alpha virt. eigenvalues --    0.51636   0.52797   0.54234   0.55943   0.57026
 Alpha virt. eigenvalues --    0.57640   0.60287   0.61976   0.62353   0.63514
 Alpha virt. eigenvalues --    0.65347   0.66793   0.69007   0.69871   0.70990
 Alpha virt. eigenvalues --    0.71762   0.73601   0.75057   0.78341   0.79151
 Alpha virt. eigenvalues --    0.82043   0.85522   0.87291   0.89245   0.91961
 Alpha virt. eigenvalues --    0.93314   0.94818   0.98163   0.98807   1.01028
 Alpha virt. eigenvalues --    1.01814   1.05477   1.06775   1.08228   1.08513
 Alpha virt. eigenvalues --    1.10044   1.11456   1.11971   1.12641   1.13621
 Alpha virt. eigenvalues --    1.13932   1.15562   1.17492   1.17881   1.19118
 Alpha virt. eigenvalues --    1.20994   1.22523   1.24383   1.24748   1.26548
 Alpha virt. eigenvalues --    1.27903   1.29009   1.30765   1.31561   1.33416
 Alpha virt. eigenvalues --    1.33781   1.35779   1.35958   1.36406   1.37126
 Alpha virt. eigenvalues --    1.38483   1.39333   1.39621   1.39765   1.40293
 Alpha virt. eigenvalues --    1.40483   1.41711   1.42337   1.43021   1.43051
 Alpha virt. eigenvalues --    1.43975   1.45241   1.45360   1.45642   1.46743
 Alpha virt. eigenvalues --    1.47175   1.48308   1.48817   1.49971   1.53036
 Alpha virt. eigenvalues --    1.53244   1.53728   1.54083   1.56262   1.57185
 Alpha virt. eigenvalues --    1.57506   1.60327   1.61605   1.61888   1.64013
 Alpha virt. eigenvalues --    1.64984   1.65626   1.67780   1.70078   1.71596
 Alpha virt. eigenvalues --    1.72114   1.72730   1.73904   1.74584   1.75511
 Alpha virt. eigenvalues --    1.76725   1.77482   1.77833   1.79165   1.81285
 Alpha virt. eigenvalues --    1.81810   1.82845   1.83950   1.84416   1.84721
 Alpha virt. eigenvalues --    1.85990   1.86627   1.87318   1.87426   1.88141
 Alpha virt. eigenvalues --    1.88675   1.90467   1.91057   1.92310   1.93360
 Alpha virt. eigenvalues --    1.93656   1.94287   1.96593   1.96762   1.98254
 Alpha virt. eigenvalues --    1.98834   2.00247   2.00957   2.01721   2.02597
 Alpha virt. eigenvalues --    2.03093   2.03279   2.03581   2.05400   2.05769
 Alpha virt. eigenvalues --    2.06598   2.07581   2.09517   2.10032   2.10916
 Alpha virt. eigenvalues --    2.13302   2.13788   2.14904   2.15410   2.15890
 Alpha virt. eigenvalues --    2.17295   2.18987   2.19821   2.21070   2.23515
 Alpha virt. eigenvalues --    2.24944   2.27650   2.28821   2.30322   2.30911
 Alpha virt. eigenvalues --    2.32046   2.32992   2.35446   2.36701   2.38194
 Alpha virt. eigenvalues --    2.39870   2.41427   2.43904   2.44618   2.45771
 Alpha virt. eigenvalues --    2.46322   2.47619   2.48182   2.50028   2.52871
 Alpha virt. eigenvalues --    2.53629   2.55466   2.56506   2.60093   2.61477
 Alpha virt. eigenvalues --    2.62552   2.63731   2.68836   2.69391   2.72068
 Alpha virt. eigenvalues --    2.72370   2.74477   2.77359   2.80014   2.81191
 Alpha virt. eigenvalues --    2.82748   2.84930   2.86799   2.88814   2.90543
 Alpha virt. eigenvalues --    2.91662   2.93104   2.95225   2.97753   2.97981
 Alpha virt. eigenvalues --    2.99257   3.01069   3.01628   3.04832   3.07327
 Alpha virt. eigenvalues --    3.08873   3.10346   3.11871   3.12105   3.12891
 Alpha virt. eigenvalues --    3.13586   3.17246   3.20286   3.21222   3.23996
 Alpha virt. eigenvalues --    3.24592   3.25515   3.29900   3.35158   3.37249
 Alpha virt. eigenvalues --    3.49177   4.02377   4.16729   4.24590   4.32611
 Alpha virt. eigenvalues --    4.33419   4.42013   4.51643   4.61589   4.64360
 Alpha virt. eigenvalues --    4.65421   4.78292   4.90928   4.93912   5.00536
 Alpha virt. eigenvalues --    5.10145   5.14371   5.38717   5.55645   5.67077
 Alpha virt. eigenvalues --    5.73929   6.09265   6.19892   6.42267   6.69218
          Condensed to atoms (all electrons):
               1          2          3          4          5          6
     1  F    9.140976   0.198368  -0.026296   0.000337   0.007195   0.000002
     2  C    0.198368   5.664192   0.136625  -0.036954  -0.047534   0.002504
     3  C   -0.026296   0.136625   4.782392   0.240070   0.258129  -0.025169
     4  F    0.000337  -0.036954   0.240070   9.099668  -0.015682  -0.000705
     5  C    0.007195  -0.047534   0.258129  -0.015682   4.151667   0.303745
     6  F    0.000002   0.002504  -0.025169  -0.000705   0.303745   9.036258
     7  F    0.000177   0.001042  -0.037610   0.000351   0.297226  -0.039801
     8  F   -0.000374   0.001070  -0.040536  -0.000397   0.281360  -0.039180
     9  F   -0.000273  -0.034033   0.223960  -0.032689  -0.015476  -0.000488
    10  C   -0.028530   0.141977  -0.034394   0.001519   0.003571  -0.000028
    11  O    0.000266  -0.027986   0.002597  -0.000066  -0.000036   0.000000
    12  C    0.005994  -0.062223   0.003195  -0.000186   0.000078   0.000000
    13  F    0.000000   0.002154  -0.000008   0.000000   0.000000   0.000000
    14  F   -0.000191   0.003650   0.000028   0.000000  -0.000001   0.000000
    15  C   -0.024218   0.110348  -0.032099   0.003137  -0.006987   0.000034
    16  F    0.000349  -0.049929   0.007921  -0.000821  -0.001277   0.000001
    17  F   -0.000395  -0.029898  -0.003327   0.000006   0.003448   0.000000
    18  C    0.009499  -0.050686  -0.001695   0.000093  -0.000053   0.000000
    19  F   -0.001212   0.004046   0.000154   0.000000   0.000003   0.000000
    20  C    0.003266   0.000322   0.000249  -0.000003  -0.000002   0.000000
    21  O    0.000023  -0.001087   0.000679  -0.000001  -0.000005   0.000000
    22  O   -0.000992   0.002339  -0.000457   0.000000   0.000013   0.000000
    23  F    0.000006   0.001985   0.000034   0.000000   0.000000   0.000000
    24  F    0.000361  -0.045170   0.020182  -0.001512   0.000196   0.000000
    25  H    0.000000  -0.000007   0.000022   0.000000   0.000000   0.000000
               7          8          9         10         11         12
     1  F    0.000177  -0.000374  -0.000273  -0.028530   0.000266   0.005994
     2  C    0.001042   0.001070  -0.034033   0.141977  -0.027986  -0.062223
     3  C   -0.037610  -0.040536   0.223960  -0.034394   0.002597   0.003195
     4  F    0.000351  -0.000397  -0.032689   0.001519  -0.000066  -0.000186
     5  C    0.297226   0.281360  -0.015476   0.003571  -0.000036   0.000078
     6  F   -0.039801  -0.039180  -0.000488  -0.000028   0.000000   0.000000
     7  F    9.045510  -0.037807  -0.000090  -0.000035   0.000000   0.000001
     8  F   -0.037807   9.058510   0.000365   0.000125   0.000000   0.000156
     9  F   -0.000090   0.000365   9.114070   0.008289   0.000014  -0.000050
    10  C   -0.000035   0.000125   0.008289   4.899392   0.187917  -0.035222
    11  O    0.000000   0.000000   0.000014   0.187917   8.348504   0.203867
    12  C    0.000001   0.000156  -0.000050  -0.035222   0.203867   4.307248
    13  F    0.000000   0.000000   0.000000   0.001558  -0.045969   0.320110
    14  F    0.000000   0.000000   0.000000  -0.000162  -0.047737   0.290785
    15  C   -0.000366   0.016014   0.001835  -0.024073  -0.048739   0.249298
    16  F    0.000000  -0.000513   0.000001   0.009097  -0.001743  -0.019384
    17  F   -0.000037  -0.001240  -0.000001   0.001987   0.000938  -0.023241
    18  C    0.000005   0.000000  -0.005451   0.221223  -0.039365  -0.002802
    19  F    0.000000   0.000000   0.000002  -0.034622  -0.001039   0.004823
    20  C   -0.000001   0.000000   0.016601  -0.066844   0.002395   0.000284
    21  O    0.000000   0.000000  -0.001370   0.007674  -0.000008  -0.000001
    22  O    0.000000   0.000000  -0.001550  -0.000225  -0.000019  -0.000007
    23  F    0.000000   0.000000   0.000001  -0.025774   0.000326   0.000287
    24  F    0.000000   0.000000  -0.001708   0.271900  -0.044050   0.000377
    25  H    0.000000   0.000000   0.000196  -0.000325   0.000003   0.000000
              13         14         15         16         17         18
     1  F    0.000000  -0.000191  -0.024218   0.000349  -0.000395   0.009499
     2  C    0.002154   0.003650   0.110348  -0.049929  -0.029898  -0.050686
     3  C   -0.000008   0.000028  -0.032099   0.007921  -0.003327  -0.001695
     4  F    0.000000   0.000000   0.003137  -0.000821   0.000006   0.000093
     5  C    0.000000  -0.000001  -0.006987  -0.001277   0.003448  -0.000053
     6  F    0.000000   0.000000   0.000034   0.000001   0.000000   0.000000
     7  F    0.000000   0.000000  -0.000366   0.000000  -0.000037   0.000005
     8  F    0.000000   0.000000   0.016014  -0.000513  -0.001240   0.000000
     9  F    0.000000   0.000000   0.001835   0.000001  -0.000001  -0.005451
    10  C    0.001558  -0.000162  -0.024073   0.009097   0.001987   0.221223
    11  O   -0.045969  -0.047737  -0.048739  -0.001743   0.000938  -0.039365
    12  C    0.320110   0.290785   0.249298  -0.019384  -0.023241  -0.002802
    13  F    9.029524  -0.041564  -0.028517  -0.000314   0.000020  -0.000062
    14  F   -0.041564   9.076109  -0.038827   0.000361   0.000583   0.000917
    15  C   -0.028517  -0.038827   4.771012   0.251508   0.262528   0.003123
    16  F   -0.000314   0.000361   0.251508   9.096536  -0.034955   0.000020
    17  F    0.000020   0.000583   0.262528  -0.034955   9.075100   0.000014
    18  C   -0.000062   0.000917   0.003123   0.000020   0.000014   4.661315
    19  F    0.000001   0.000071  -0.001558   0.000000   0.000001   0.275289
    20  C    0.000000  -0.000007  -0.000027   0.000000  -0.000001   0.243842
    21  O    0.000000   0.000000  -0.000006   0.000000   0.000000  -0.088393
    22  O    0.000000   0.000000   0.000009   0.000000   0.000000  -0.060524
    23  F    0.000000  -0.000001  -0.000082   0.000000   0.000000   0.262533
    24  F   -0.000001  -0.000005   0.001677  -0.000135  -0.000001  -0.034283
    25  H    0.000000   0.000000   0.000000   0.000000   0.000000   0.007707
              19         20         21         22         23         24
     1  F   -0.001212   0.003266   0.000023  -0.000992   0.000006   0.000361
     2  C    0.004046   0.000322  -0.001087   0.002339   0.001985  -0.045170
     3  C    0.000154   0.000249   0.000679  -0.000457   0.000034   0.020182
     4  F    0.000000  -0.000003  -0.000001   0.000000   0.000000  -0.001512
     5  C    0.000003  -0.000002  -0.000005   0.000013   0.000000   0.000196
     6  F    0.000000   0.000000   0.000000   0.000000   0.000000   0.000000
     7  F    0.000000  -0.000001   0.000000   0.000000   0.000000   0.000000
     8  F    0.000000   0.000000   0.000000   0.000000   0.000000   0.000000
     9  F    0.000002   0.016601  -0.001370  -0.001550   0.000001  -0.001708
    10  C   -0.034622  -0.066844   0.007674  -0.000225  -0.025774   0.271900
    11  O   -0.001039   0.002395  -0.000008  -0.000019   0.000326  -0.044050
    12  C    0.004823   0.000284  -0.000001  -0.000007   0.000287   0.000377
    13  F    0.000001   0.000000   0.000000   0.000000   0.000000  -0.000001
    14  F    0.000071  -0.000007   0.000000   0.000000  -0.000001  -0.000005
    15  C   -0.001558  -0.000027  -0.000006   0.000009  -0.000082   0.001677
    16  F    0.000000   0.000000   0.000000   0.000000   0.000000  -0.000135
    17  F    0.000001  -0.000001   0.000000   0.000000   0.000000  -0.000001
    18  C    0.275289   0.243842  -0.088393  -0.060524   0.262533  -0.034283
    19  F    9.084575  -0.035629   0.000844  -0.001018  -0.034618   0.000365
    20  C   -0.035629   4.560087   0.244129   0.564969  -0.035894   0.000447
    21  O    0.000844   0.244129   8.093402  -0.078834   0.002874   0.000860
    22  O   -0.001018   0.564969  -0.078834   7.997479   0.000743   0.000015
    23  F   -0.034618  -0.035894   0.002874   0.000743   9.096660  -0.000247
    24  F    0.000365   0.000447   0.000860   0.000015  -0.000247   9.087781
    25  H   -0.000048  -0.010717   0.284992   0.004473  -0.000177   0.000095
              25
     1  F    0.000000
     2  C   -0.000007
     3  C    0.000022
     4  F    0.000000
     5  C    0.000000
     6  F    0.000000
     7  F    0.000000
     8  F    0.000000
     9  F    0.000196
    10  C   -0.000325
    11  O    0.000003
    12  C    0.000000
    13  F    0.000000
    14  F    0.000000
    15  C    0.000000
    16  F    0.000000
    17  F    0.000000
    18  C    0.007707
    19  F   -0.000048
    20  C   -0.010717
    21  O    0.284992
    22  O    0.004473
    23  F   -0.000177
    24  F    0.000095
    25  H    0.356688
 Mulliken charges:
               1
     1  F   -0.284338
     2  C    0.114885
     3  C    0.525353
     4  F   -0.256164
     5  C    0.780424
     6  F   -0.237173
     7  F   -0.228567
     8  F   -0.237551
     9  F   -0.272154
    10  C    0.494004
    11  O   -0.490070
    12  C    0.756614
    13  F   -0.236932
    14  F   -0.244009
    15  C    0.534977
    16  F   -0.256723
    17  F   -0.251530
    18  C    0.597737
    19  F   -0.260430
    20  C    0.512535
    21  O   -0.465773
    22  O   -0.426414
    23  F   -0.268657
    24  F   -0.257143
    25  H    0.357100
 Sum of Mulliken charges =   0.00000
 Mulliken charges with hydrogens summed into heavy atoms:
               1
     1  F   -0.284338
     2  C    0.114885
     3  C    0.525353
     4  F   -0.256164
     5  C    0.780424
     6  F   -0.237173
     7  F   -0.228567
     8  F   -0.237551
     9  F   -0.272154
    10  C    0.494004
    11  O   -0.490070
    12  C    0.756614
    13  F   -0.236932
    14  F   -0.244009
    15  C    0.534977
    16  F   -0.256723
    17  F   -0.251530
    18  C    0.597737
    19  F   -0.260430
    20  C    0.512535
    21  O   -0.108673
    22  O   -0.426414
    23  F   -0.268657
    24  F   -0.257143
 Electronic spatial extent (au):  <R**2>=           5482.9208
 Charge=              0.0000 electrons
 Dipole moment (field-independent basis, Debye):
    X=              0.5405    Y=              2.1119    Z=              0.7501  Tot=              2.3054
 Quadrupole moment (field-independent basis, Debye-Ang):
   XX=           -119.6458   YY=           -121.1814   ZZ=           -132.8533
   XY=              6.8830   XZ=             -0.8836   YZ=             -0.7002
 Traceless Quadrupole moment (field-independent basis, Debye-Ang):
   XX=              4.9144   YY=              3.3787   ZZ=             -8.2931
   XY=              6.8830   XZ=             -0.8836   YZ=             -0.7002
 Octapole moment (field-independent basis, Debye-Ang**2):
  XXX=             61.7734  YYY=             54.2086  ZZZ=             41.6669  XYY=             30.4451
  XXY=             37.0966  XXZ=             -2.4532  XZZ=              2.6834  YZZ=              7.4345
  YYZ=              3.3191  XYZ=             -3.2402
 Hexadecapole moment (field-independent basis, Debye-Ang**3):
 XXXX=          -2397.8183 YYYY=          -2154.6688 ZZZZ=           -912.8284 XXXY=            195.5940
 XXXZ=            127.4363 YYYX=            172.5274 YYYZ=            129.2136 ZZZX=            208.9174
 ZZZY=            164.1834 XXYY=           -705.9625 XXZZ=           -573.4499 YYZZ=           -517.9394
 XXYZ=             26.0930 YYXZ=             42.5953 ZZXY=             27.1573
 N-N= 2.860190050402D+03 E-N=-1.005083007392D+04  KE= 1.816220519226D+03
 No NMR shielding tensors so no spin-rotation constants.
 Leave Link  601 at Mon Feb  3 22:36:59 2025, MaxMem=  5368709120 cpu:         3.1
 (Enter /home/k0335/k033513/app/g09/l9999.exe)
 1\1\GINC-C18U06N1\FOpt\RCAM-B3LYP\6-31G(d,p)\C8H1F13O3\K033513\03-Feb-
 2025\0\\#p CAM-B3LYP/6-31G(d,p) opt SCRF=(PCM,Solvent=Generic,Read) No
 Symm out=wfn\\Title A0_neu\\0,1\F,-0.488610028,-0.151620501,-1.4579907
 884\C,-0.52081778,-0.1152160884,-0.0913612974\C,-0.82279678,1.33632782
 56,0.316516766\F,-0.9560039236,1.43972989,1.6466564589\C,-2.0859082788
 ,1.9441826073,-0.3275305483\F,-2.2911351849,3.150643804,0.1925012533\F
 ,-1.9423725581,2.0568203878,-1.6423761685\F,-3.1439733207,1.1739629479
 ,-0.0646662493\F,0.2242039383,2.0988974542,-0.0805164313\C,0.837529992
 7,-0.6440789048,0.4716471602\O,0.6159444157,-1.9556705118,0.9040522613
 \C,-0.6258078104,-2.4366965202,0.5532387416\F,-1.0617360873,-3.2495916
 998,1.5088171118\F,-0.5627552007,-3.122161269,-0.5963970755\C,-1.52078
 78928,-1.1957511567,0.374829085\F,-2.0599264209,-0.8830515721,1.565345
 1515\F,-2.4875042638,-1.4034841089,-0.5205041037\C,2.0115183773,-0.685
 0054151,-0.538570481\F,1.6952512032,-1.5542036111,-1.5109645107\C,2.40
 01077127,0.6593773205,-1.1790677482\O,3.0527403252,1.4187859121,-0.305
 7901386\O,2.1444254872,0.9393995236,-2.3157092485\F,3.0737572847,-1.16
 4069851,0.1450309732\F,1.2391995652,0.0858954874,1.5362567493\H,3.2754
 582281,2.2565770495,-0.7453089226\\Version=ES64L-G09RevD.01\HF=-1828.5
 45891\RMSD=7.458e-09\RMSF=1.211e-05\Dipole=0.2126638,0.8308687,0.29512
 92\Quadrupole=3.6537094,2.5120026,-6.165712,5.1173101,-0.6569713,-0.52
 0575\PG=C01 [X(C8H1F13O3)]\\@

 Writing a WFN file to "cytopopt/A0/A0_neu.wfn"


 ASKING FOR EFFICIENCY AND ADAPTABILITY IN THE SAME PROGRAM IS LIKE
 ASKING FOR A BEAUTIFUL AND MODEST WIFE ...
 WE'LL PROBABLY HAVE TO SETTLE FOR ONE OR THE OTHER.

             -- THE PSYCHOLOGY OF COMPUTER PROGRAMMING
                GERALD M. WEINBERG
 Job cpu time:       0 days  1 hours 50 minutes  4.1 seconds.
 File lengths (MBytes):  RWF=    219 Int=      0 D2E=      0 Chk=     13 Scr=      1
 Normal termination of Gaussian 09 at Mon Feb  3 22:36:59 2025.
