 Entering Gaussian System, Link 0=g09
 Initial command:
 /home/k0335/k033513/app/g09/l1.exe "/home/k0335/k033513/app/g09/scratch/Gau-386072.inp" -scrdir="/home/k0335/k033513/app/g09/scratch/"
 Default is to use a total of  36 processors:
                               36 via shared-memory
                                1 via Linda
 Entering Link 1 = /home/k0335/k033513/app/g09/l1.exe PID=    386073.
  
 Copyright (c) 1988,1990,1992,1993,1995,1998,2003,2009,2013,
            Gaussian, Inc.  All Rights Reserved.
  
 This is part of the Gaussian(R) 09 program.  It is based on
 the Gaussian(R) 03 system (copyright 2003, Gaussian, Inc.),
 the Gaussian(R) 98 system (copyright 1998, Gaussian, Inc.),
 the Gaussian(R) 94 system (copyright 1995, Gaussian, Inc.),
 the Gaussian 92(TM) system (copyright 1992, Gaussian, Inc.),
 the Gaussian 90(TM) system (copyright 1990, Gaussian, Inc.),
 the Gaussian 88(TM) system (copyright 1988, Gaussian, Inc.),
 the Gaussian 86(TM) system (copyright 1986, Carnegie Mellon
 University), and the Gaussian 82(TM) system (copyright 1983,
 Carnegie Mellon University). Gaussian is a federally registered
 trademark of Gaussian, Inc.
  
 This software contains proprietary and confidential information,
 including trade secrets, belonging to Gaussian, Inc.
  
 This software is provided under written license and may be
 used, copied, transmitted, or stored only in accord with that
 written license.
  
 The following legend is applicable only to US Government
 contracts under FAR:
  
                    RESTRICTED RIGHTS LEGEND
  
 Use, reproduction and disclosure by the US Government is
 subject to restrictions as set forth in subparagraphs (a)
 and (c) of the Commercial Computer Software - Restricted
 Rights clause in FAR 52.227-19.
  
 Gaussian, Inc.
 340 Quinnipiac St., Bldg. 40, Wallingford CT 06492
  
  
 ---------------------------------------------------------------
 Warning -- This program may not be used in any manner that
 competes with the business of Gaussian, Inc. or will provide
 assistance to any competitor of Gaussian, Inc.  The licensee
 of this program is prohibited from giving any competitor of
 Gaussian, Inc. access to this program.  By using this program,
 the user acknowledges that Gaussian, Inc. is engaged in the
 business of creating and licensing software in the field of
 computational chemistry and represents and warrants to the
 licensee that it is not a competitor of Gaussian, Inc. and that
 it will not use this program in any manner prohibited above.
 ---------------------------------------------------------------
  

 Cite this work as:
 Gaussian 09, Revision D.01,
 M. J. Frisch, G. W. Trucks, H. B. Schlegel, G. E. Scuseria, 
 M. A. Robb, J. R. Cheeseman, G. Scalmani, V. Barone, B. Mennucci, 
 G. A. Petersson, H. Nakatsuji, M. Caricato, X. Li, H. P. Hratchian, 
 A. F. Izmaylov, J. Bloino, G. Zheng, J. L. Sonnenberg, M. Hada, 
 M. Ehara, K. Toyota, R. Fukuda, J. Hasegawa, M. Ishida, T. Nakajima, 
 Y. Honda, O. Kitao, H. Nakai, T. Vreven, J. A. Montgomery, Jr., 
 J. E. Peralta, F. Ogliaro, M. Bearpark, J. J. Heyd, E. Brothers, 
 K. N. Kudin, V. N. Staroverov, T. Keith, R. Kobayashi, J. Normand, 
 K. Raghavachari, A. Rendell, J. C. Burant, S. S. Iyengar, J. Tomasi, 
 M. Cossi, N. Rega, J. M. Millam, M. Klene, J. E. Knox, J. B. Cross, 
 V. Bakken, C. Adamo, J. Jaramillo, R. Gomperts, R. E. Stratmann, 
 O. Yazyev, A. J. Austin, R. Cammi, C. Pomelli, J. W. Ochterski, 
 R. L. Martin, K. Morokuma, V. G. Zakrzewski, G. A. Voth, 
 P. Salvador, J. J. Dannenberg, S. Dapprich, A. D. Daniels, 
 O. Farkas, J. B. Foresman, J. V. Ortiz, J. Cioslowski, 
 and D. J. Fox, Gaussian, Inc., Wallingford CT, 2013.
 
 ******************************************
 Gaussian 09:  ES64L-G09RevD.01 24-Apr-2013
                 3-Mar-2024 
 ******************************************
 %nprocshared=24
 Will use up to   24 processors via shared memory.
 %mem=40GB
 %rwf=A230421840/A230421840_p1.rwf
 %nosave
 %chk=A230421840/A230421840_p1.chk
 ----------------------------------------------------------------------
 #p CAM-B3LYP/6-31G(d,p) SCRF=(PCM,Solvent=Generic,Read) NoSymm out=wfn
 ----------------------------------------------------------------------
 1/38=1,40=2/1;
 2/12=2,15=1,17=6,18=5,40=1/2;
 3/5=1,6=6,7=101,11=2,16=1,25=1,30=1,70=2203,72=-2,74=-40/1,2,3;
 4//1;
 5/5=2,38=5/2;
 6/7=2,8=2,9=2,10=2,28=1/1;
 99/5=1,6=100,9=1/99;
 Leave Link    1 at Sun Mar  3 18:09:28 2024, MaxMem=  5368709120 cpu:         2.1
 (Enter /home/k0335/k033513/app/g09/l101.exe)
 -------------------
 Title A230421840_p1
 -------------------
 Symbolic Z-matrix:
 Charge =  1 Multiplicity = 2
 C                    -3.25263   2.87147   0.31302 
 C                    -2.49021   1.8643    1.16244 
 N                    -1.67331   0.97339   0.33799 
 C                    -2.24655  -0.19384  -0.12102 
 O                    -3.41786  -0.48787   0.1213 
 N                    -1.41913  -1.02085  -0.85117 
 C                    -1.93804  -2.32582  -1.26042 
 C                    -1.74253  -3.37721  -0.17657 
 C                    -0.09499  -0.73181  -1.1091 
 O                     0.66259  -1.58551  -1.56723 
 N                     0.32493   0.53948  -0.80599 
 C                     1.68996   0.91411  -1.15646 
 F                     1.77403   2.26594  -1.33407 
 F                     1.92809   0.44221  -2.42676 
 C                     2.86112   0.43358  -0.25314 
 F                     4.02887   0.79969  -0.8764 
 O                     2.87665  -0.99606  -0.19892 
 C                     3.85383  -1.52572   0.65412 
 F                     5.0133   -0.85828   0.55883 
 F                     4.06308  -2.814     0.32627 
 F                     3.39552  -1.47718   1.91727 
 C                     2.77223   1.15395   1.09355 
 F                     1.68954   0.73739   1.79282 
 F                     3.85044   0.89051   1.87171 
 F                     2.71676   2.49445   0.9773 
 C                    -0.39553   1.37093   0.01015 
 O                     0.08358   2.4121    0.45638 
 H                    -3.85636   3.52552   0.94955 
 H                    -2.56687   3.49695  -0.26774 
 H                    -3.92157   2.3668   -0.39165 
 H                    -3.19974   1.27388   1.75319 
 H                    -1.85071   2.39791   1.87463 
 H                    -1.43376  -2.64899  -2.17835 
 H                    -3.00483  -2.23882  -1.49589 
 H                    -2.26116  -3.0951    0.74545 
 H                    -2.13666  -4.34249  -0.50875 
 H                    -0.68206  -3.505     0.06368 
 
 NAtoms=     37 NQM=       37 NQMF=       0 NMMI=      0 NMMIF=      0
                NMic=       0 NMicF=      0.
                    Isotopes and Nuclear Properties:
 (Nuclear quadrupole moments (NQMom) in fm**2, nuclear magnetic moments (NMagM)
  in nuclear magnetons)

  Atom         1           2           3           4           5           6           7           8           9          10
 IAtWgt=          12          12          14          12          16          14          12          12          12          16
 AtmWgt=  12.0000000  12.0000000  14.0030740  12.0000000  15.9949146  14.0030740  12.0000000  12.0000000  12.0000000  15.9949146
 NucSpn=           0           0           2           0           0           2           0           0           0           0
 AtZEff=   0.0000000   0.0000000   0.0000000   0.0000000   0.0000000   0.0000000   0.0000000   0.0000000   0.0000000   0.0000000
 NQMom=    0.0000000   0.0000000   2.0440000   0.0000000   0.0000000   2.0440000   0.0000000   0.0000000   0.0000000   0.0000000
 NMagM=    0.0000000   0.0000000   0.4037610   0.0000000   0.0000000   0.4037610   0.0000000   0.0000000   0.0000000   0.0000000
 AtZNuc=   6.0000000   6.0000000   7.0000000   6.0000000   8.0000000   7.0000000   6.0000000   6.0000000   6.0000000   8.0000000

  Atom        11          12          13          14          15          16          17          18          19          20
 IAtWgt=          14          12          19          19          12          19          16          12          19          19
 AtmWgt=  14.0030740  12.0000000  18.9984033  18.9984033  12.0000000  18.9984033  15.9949146  12.0000000  18.9984033  18.9984033
 NucSpn=           2           0           1           1           0           1           0           0           1           1
 AtZEff=   0.0000000   0.0000000   0.0000000   0.0000000   0.0000000   0.0000000   0.0000000   0.0000000   0.0000000   0.0000000
 NQMom=    2.0440000   0.0000000   0.0000000   0.0000000   0.0000000   0.0000000   0.0000000   0.0000000   0.0000000   0.0000000
 NMagM=    0.4037610   0.0000000   2.6288670   2.6288670   0.0000000   2.6288670   0.0000000   0.0000000   2.6288670   2.6288670
 AtZNuc=   7.0000000   6.0000000   9.0000000   9.0000000   6.0000000   9.0000000   8.0000000   6.0000000   9.0000000   9.0000000

  Atom        21          22          23          24          25          26          27          28          29          30
 IAtWgt=          19          12          19          19          19          12          16           1           1           1
 AtmWgt=  18.9984033  12.0000000  18.9984033  18.9984033  18.9984033  12.0000000  15.9949146   1.0078250   1.0078250   1.0078250
 NucSpn=           1           0           1           1           1           0           0           1           1           1
 AtZEff=   0.0000000   0.0000000   0.0000000   0.0000000   0.0000000   0.0000000   0.0000000   0.0000000   0.0000000   0.0000000
 NQMom=    0.0000000   0.0000000   0.0000000   0.0000000   0.0000000   0.0000000   0.0000000   0.0000000   0.0000000   0.0000000
 NMagM=    2.6288670   0.0000000   2.6288670   2.6288670   2.6288670   0.0000000   0.0000000   2.7928460   2.7928460   2.7928460
 AtZNuc=   9.0000000   6.0000000   9.0000000   9.0000000   9.0000000   6.0000000   8.0000000   1.0000000   1.0000000   1.0000000

  Atom        31          32          33          34          35          36          37
 IAtWgt=           1           1           1           1           1           1           1
 AtmWgt=   1.0078250   1.0078250   1.0078250   1.0078250   1.0078250   1.0078250   1.0078250
 NucSpn=           1           1           1           1           1           1           1
 AtZEff=   0.0000000   0.0000000   0.0000000   0.0000000   0.0000000   0.0000000   0.0000000
 NQMom=    0.0000000   0.0000000   0.0000000   0.0000000   0.0000000   0.0000000   0.0000000
 NMagM=    2.7928460   2.7928460   2.7928460   2.7928460   2.7928460   2.7928460   2.7928460
 AtZNuc=   1.0000000   1.0000000   1.0000000   1.0000000   1.0000000   1.0000000   1.0000000
 Leave Link  101 at Sun Mar  3 18:09:28 2024, MaxMem=  5368709120 cpu:         1.1
 (Enter /home/k0335/k033513/app/g09/l202.exe)
                          Input orientation:                          
 ---------------------------------------------------------------------
 Center     Atomic      Atomic             Coordinates (Angstroms)
 Number     Number       Type             X           Y           Z
 ---------------------------------------------------------------------
      1          6           0       -3.252630    2.871470    0.313017
      2          6           0       -2.490210    1.864303    1.162439
      3          7           0       -1.673308    0.973390    0.337985
      4          6           0       -2.246554   -0.193835   -0.121018
      5          8           0       -3.417865   -0.487873    0.121302
      6          7           0       -1.419133   -1.020852   -0.851165
      7          6           0       -1.938041   -2.325820   -1.260423
      8          6           0       -1.742527   -3.377205   -0.176566
      9          6           0       -0.094986   -0.731811   -1.109103
     10          8           0        0.662591   -1.585512   -1.567233
     11          7           0        0.324934    0.539477   -0.805990
     12          6           0        1.689955    0.914113   -1.156462
     13          9           0        1.774028    2.265944   -1.334069
     14          9           0        1.928091    0.442210   -2.426762
     15          6           0        2.861123    0.433577   -0.253140
     16          9           0        4.028866    0.799691   -0.876404
     17          8           0        2.876645   -0.996060   -0.198922
     18          6           0        3.853827   -1.525721    0.654121
     19          9           0        5.013299   -0.858280    0.558825
     20          9           0        4.063080   -2.813998    0.326271
     21          9           0        3.395520   -1.477184    1.917265
     22          6           0        2.772230    1.153950    1.093546
     23          9           0        1.689538    0.737391    1.792819
     24          9           0        3.850441    0.890513    1.871710
     25          9           0        2.716758    2.494450    0.977295
     26          6           0       -0.395530    1.370933    0.010146
     27          8           0        0.083583    2.412104    0.456379
     28          1           0       -3.856360    3.525516    0.949554
     29          1           0       -2.566874    3.496948   -0.267739
     30          1           0       -3.921570    2.366797   -0.391651
     31          1           0       -3.199744    1.273884    1.753194
     32          1           0       -1.850711    2.397905    1.874632
     33          1           0       -1.433756   -2.648992   -2.178345
     34          1           0       -3.004831   -2.238819   -1.495890
     35          1           0       -2.261156   -3.095102    0.745449
     36          1           0       -2.136663   -4.342494   -0.508750
     37          1           0       -0.682062   -3.505004    0.063679
 ---------------------------------------------------------------------
                    Distance matrix (angstroms):
                    1          2          3          4          5
     1  C    0.000000
     2  C    1.522231   0.000000
     3  N    2.469330   1.463140   0.000000
     4  C    3.255253   2.437737   1.379025   0.000000
     5  O    3.368864   2.734455   2.285983   1.231725   0.000000
     6  N    4.457264   3.677761   2.335741   1.379020   2.285758
     7  C    5.587100   4.871579   3.675565   2.436962   2.734427
     8  C    6.447173   5.461261   4.381464   3.223503   3.353166
     9  C    4.997677   4.199620   2.737312   2.427957   3.551750
    10  O    6.223262   5.412253   3.954018   3.534321   4.550394
    11  N    4.414672   3.681700   2.343060   2.760341   3.990472
    12  C    5.515411   4.873802   3.680818   4.218506   5.448676
    13  F    5.324175   4.957579   4.043586   4.866938   6.054533
    14  F    6.344097   5.867376   4.571220   4.811306   5.994742
    15  C    6.606196   5.717308   4.604551   5.147763   6.357277
    16  F    7.663366   6.912932   5.832641   6.398328   7.622797
    17  O    7.265527   6.232023   4.986890   5.186213   6.323105
    18  C    8.363813   7.210926   6.074102   6.292012   7.364681
    19  F    9.071772   8.004964   6.936462   7.321826   8.450630
    20  F    9.265222   8.095140   6.873907   6.846664   7.836926
    21  F    8.104462   6.810075   5.847432   6.134703   7.115226
    22  C    6.313322   5.310614   4.512902   5.336655   6.477509
    23  F    5.582932   4.374655   3.671644   4.474681   5.511879
    24  F    7.537064   6.454083   5.733322   6.505392   7.602115
    25  F    6.018056   5.248226   4.689885   5.750446   6.874633
    26  C    3.241352   2.441081   1.377765   2.427343   3.549933
    27  O    3.370740   2.724521   2.273891   3.543140   4.558759
    28  H    1.094278   2.161322   3.413661   4.191798   4.121355
    29  H    1.094880   2.171823   2.744760   3.707561   4.093206
    30  H    1.094866   2.171748   2.743836   3.071768   2.943804
    31  H    2.151555   1.095913   2.103121   2.564262   2.411314
    32  H    2.151344   1.095860   2.102855   3.294909   3.722614
    33  H    6.323819   5.713735   4.417120   3.304698   3.727667
    34  H    5.426657   4.916010   3.931201   2.578220   2.419033
    35  H    6.063827   4.982173   4.130886   3.027925   2.919791
    36  H    7.345880   6.437561   5.402803   4.168187   4.110541
    37  H    6.879637   5.771146   4.594978   3.666823   4.073207
                    6          7          8          9         10
     6  N    0.000000
     7  C    1.462771   0.000000
     8  C    2.472259   1.522623   0.000000
     9  C    1.379653   2.441437   3.253018   0.000000
    10  O    2.272701   2.721300   3.305860   1.229883   0.000000
    11  N    2.340606   3.679333   4.473362   1.372728   2.282341
    12  C    3.674741   4.865216   5.581894   2.428440   2.733557
    13  F    4.607874   5.905013   6.749156   3.539825   4.015392
    14  F    3.978312   4.895847   5.755410   2.684658   2.540066
    15  C    4.559999   5.626799   5.976748   3.290803   3.261457
    16  F    5.744189   6.746871   7.158576   4.405202   4.183090
    17  O    4.345083   5.106491   5.196836   3.119110   2.668663
    18  C    5.506804   6.152347   5.952916   4.396860   3.888698
    19  F    6.587160   7.333789   7.247549   5.375179   4.896698
    20  F    5.886968   6.226505   5.854496   4.866756   4.081404
    21  F    5.572551   6.266160   5.864617   4.679542   4.429714
    22  C    5.106779   6.311626   6.521317   4.077828   4.362909
    23  F    4.443636   5.644898   5.708542   3.710018   4.211941
    24  F    6.231836   7.325406   7.327356   5.204188   5.302774
    25  F    5.727670   7.064668   7.462771   4.761063   5.228797
    26  C    2.740484   4.202341   4.939036   2.400953   3.514016
    27  O    3.969007   5.429760   6.103392   3.516649   4.517874
    28  H    5.463710   6.542330   7.306435   6.042420   7.271708
    29  H    4.697682   5.940158   6.924005   4.969962   6.160319
    30  H    4.236686   5.168153   6.147198   4.975827   6.165815
    31  H    3.901163   4.861240   5.242145   4.674942   5.841148
    32  H    4.393646   5.670077   6.129520   4.666944   5.833587
    33  H    2.100586   1.096049   2.152383   2.571219   2.428810
    34  H    2.100846   1.095926   2.151732   3.299678   3.725840
    35  H    2.749671   2.172492   1.094838   3.703620   4.021897
    36  H    3.415465   2.161351   1.094291   4.191169   4.069049
    37  H    2.747949   2.172833   1.094822   3.067682   2.855243
                   11         12         13         14         15
    11  N    0.000000
    12  C    1.458240   0.000000
    13  F    2.315044   1.366038   0.000000
    14  F    2.281770   1.375886   2.131600   0.000000
    15  C    2.597905   1.555166   2.389090   2.365429   0.000000
    16  F    3.713729   2.358396   2.728305   2.635272   1.373361
    17  O    3.039348   2.444152   3.625602   2.816318   1.430749
    18  C    4.341665   3.730059   4.759747   4.131955   2.376433
    19  F    5.079095   4.138623   4.882284   4.485924   2.638189
    20  F    5.147965   4.661441   5.813974   4.768675   3.511006
    21  F    4.572913   4.251476   5.216456   4.970713   2.940620
    22  C    3.158334   2.508262   2.850658   3.689405   1.529837
    23  F    2.941959   2.954571   3.481529   4.236615   2.377154
    24  F    4.441002   3.719957   4.059596   4.730039   2.387997
    25  F    3.566910   2.846877   2.506663   4.052319   2.404581
    26  C    1.369841   2.432880   2.704615   3.492887   3.399080
    27  O    2.271246   2.725007   2.466713   3.949075   3.483205
    28  H    5.429695   6.482001   6.205056   7.373341   7.492072
    29  H    4.171199   5.057812   4.636363   5.847864   6.232785
    30  H    4.641505   5.846746   5.773921   6.485695   7.054180
    31  H    4.417254   5.701288   5.937490   6.667714   6.439379
    32  H    3.920832   4.891368   4.842717   6.050296   5.530586
    33  H    3.891360   4.847425   5.929526   4.573757   5.626245
    34  H    4.391153   5.665440   6.569366   5.691060   6.564720
    35  H    4.722816   5.941578   7.024807   6.334453   6.299722
    36  H    5.475532   6.534099   7.723089   6.564632   6.917663
    37  H    4.257721   5.161764   6.425723   5.347494   5.307255
                   16         17         18         19         20
    16  F    0.000000
    17  O    2.238597   0.000000
    18  C    2.789388   1.401109   0.000000
    19  F    2.403718   2.271223   1.341244   0.000000
    20  F    3.808720   2.233462   1.345708   2.186740   0.000000
    21  F    3.659218   2.231358   1.344594   2.201275   2.182652
    22  C    2.363332   2.510761   2.922941   3.058985   4.242595
    23  F    3.549801   2.895014   3.332035   3.887968   4.516285
    24  F    2.755397   2.965629   2.705683   2.476728   4.019577
    25  F    2.833732   3.686829   4.190363   4.085342   5.515073
    26  C    4.548359   4.043945   5.182889   5.875872   6.123135
    27  O    4.465584   4.454907   5.455301   5.916756   6.570043
    28  H    8.540552   8.191276   9.222216   9.901575  10.163437
    29  H    7.151885   7.058594   8.203806   8.781244   9.172632
    30  H    8.117896   7.586941   8.757975   9.546539   9.545192
    31  H    7.706650   6.773914   7.668025   8.568939   8.455501
    32  H    6.685201   6.177906   7.030380   7.710300   8.033323
    33  H    6.590046   5.022933   6.102715   7.229334   6.042808
    34  H    7.686950   6.149661   7.223036   8.391552   7.321644
    35  H    7.573916   5.629815   6.313819   7.612877   6.344343
    36  H    8.036852   6.035551   6.721045   8.025050   6.439749
    37  H    6.450349   4.362127   4.984022   6.299798   4.802376
                   21         22         23         24         25
    21  F    0.000000
    22  C    2.826636   0.000000
    23  F    2.798250   1.354521   0.000000
    24  F    2.411435   1.355536   2.167757   0.000000
    25  F    4.137407   1.346674   2.192605   2.158200   0.000000
    26  C    5.110864   3.354928   2.815459   4.660954   3.447318
    27  O    5.313161   3.036076   2.677653   4.302048   2.685469
    28  H    8.863026   7.041538   6.264321   8.196853   6.653551
    29  H    8.066373   5.987384   5.475226   7.249323   5.520134
    30  H    8.581788   6.963029   6.237901   8.228388   6.779211
    31  H    7.147923   6.009492   4.918788   7.061595   6.090714
    32  H    6.522352   4.850681   3.911184   5.897065   4.655782
    33  H    6.439648   6.546599   6.082162   7.540145   7.323921
    34  H    7.293436   7.182652   6.458369   8.253981   7.826689
    35  H    5.999066   6.596256   5.602943   7.382764   7.488423
    36  H    6.685851   7.541583   6.763303   8.300384   8.515153
    37  H    4.916758   5.890553   5.158714   6.567582   6.955582
                   26         27         28         29         30
    26  C    0.000000
    27  O    1.229923   0.000000
    28  H    4.183546   4.123840   0.000000
    29  H    3.051540   2.954007   1.773525   0.000000
    30  H    3.685939   4.094198   1.773616   1.768558   0.000000
    31  H    3.303218   3.709112   2.479280   3.070294   2.513136
    32  H    2.578475   2.398570   2.479900   2.512079   3.070092
    33  H    4.693315   5.904133   7.333302   6.535055   5.877043
    34  H    4.701798   5.914452   6.319245   5.882107   4.824049
    35  H    4.895580   5.992552   6.813143   6.676461   5.820851
    36  H    5.995335   7.175344   8.184717   7.854936   6.943644
    37  H    4.884642   5.979347   7.764609   7.258766   6.721591
                   31         32         33         34         35
    31  H    0.000000
    32  H    1.760131   0.000000
    33  H    5.827921   6.486266   0.000000
    34  H    4.788906   5.847360   1.761324   0.000000
    35  H    4.580888   5.622868   3.071185   2.511946   0.000000
    36  H    6.147376   7.155086   2.479834   2.480647   1.773274
    37  H    5.659590   6.284077   2.514850   3.070950   1.768154
                   36         37
    36  H    0.000000
    37  H    1.773395   0.000000
 Symmetry turned off by external request.
 Stoichiometry    C11H10F9N3O4(1+,2)
 Framework group  C1[X(C11H10F9N3O4)]
 Deg. of freedom   105
 Full point group                 C1      NOp   1
 Rotational constants (GHZ):      0.3021592      0.1597176      0.1320963
 Leave Link  202 at Sun Mar  3 18:09:28 2024, MaxMem=  5368709120 cpu:         0.1
 (Enter /home/k0335/k033513/app/g09/l301.exe)
 Standard basis: 6-31G(d,p) (6D, 7F)
 Ernie: Thresh=  0.10000D-02 Tol=  0.10000D-05 Strict=F.
   455 basis functions,   826 primitive gaussians,   455 cartesian basis functions
   105 alpha electrons      104 beta electrons
       nuclear repulsion energy      3202.6769059101 Hartrees.
 IExCor=20419 DFT=T Ex+Corr=CAM-B3LYP ExCW=0 ScaHFX=  1.000000
 ScaDFX=  1.000000  1.000000  1.000000  0.810000 ScalE2=  1.000000  1.000000
 IRadAn=      0 IRanWt=     -1 IRanGd=            0 ICorTp=0 IEmpDi=  4
  HFx wShort=  0.000000 wLong=  0.330000 cFull=  0.190000 cShort=  0.000000 cLong=  0.460000
  DFx wShort=  0.000000 wLong=  0.330000 cFull=  0.190000 cShort=  0.000000 cLong=  0.460000
 NAtoms=   37 NActive=   37 NUniq=   37 SFac= 1.00D+00 NAtFMM=   60 NAOKFM=F Big=F
 Integral buffers will be    131072 words long.
 Raffenetti 2 integral format.
 Two-electron integral symmetry is turned off.
 Using the following non-standard input for PCM:
 eps=4.9
 --- end of non-standard input.
 ------------------------------------------------------------------------------
 Polarizable Continuum Model (PCM)
 =================================
 Model                : PCM (using non-symmetric T matrix).
 Atomic radii         : UFF (Universal Force Field).
 Polarization charges : Total charges.
 Charge compensation  : None.
 Solution method      : On-the-fly selection.
 Cavity type          : Scaled VdW (van der Waals Surface) (Alpha=1.100).
 Cavity algorithm     : GePol (No added spheres)
                        Default sphere list used, NSphG=   37.
                        Lebedev-Laikov grids with approx.  5.0 points / Ang**2.
                        Smoothing algorithm: Karplus/York (Gamma=1.0000).
                        Polarization charges: spherical gaussians, with
                                              point-specific exponents (IZeta= 3).
                        Self-potential: point-specific (ISelfS= 7).
                        Self-field    : sphere-specific E.n sum rule (ISelfD= 2).
 Solvent              : Generic,
                        Eps                           =   4.900000
                        Eps(infinity)                 =   0.000000
                        RSolv                         =   0.000000 Ang.
                        Molar volume                  =   0.000000 cm**3/mol
                        Thermal expansion coefficient =   0.000000 K**-1
                        Absolute temperature          = 298.150000 K
                        Numeral density               =   0.000000 Ang**-3
                        Hydrogen bond acidity         =   0.000000
                        Hydrogen bond basicity        =   0.000000
                        Surface tension at interface  =   0.000000 (cal/mol)*Ang**-2
                        Carbon aromaticity            =   0.000000
                        Electronegative halogenicity  =   0.000000
 ------------------------------------------------------------------------------
 GePol: Number of generator spheres                  =      37
 GePol: Total number of spheres                      =      37
 GePol: Number of exposed spheres                    =      37 (100.00%)
 GePol: Number of points                             =    2874
 GePol: Average weight of points                     =       0.13
 GePol: Minimum weight of points                     =   0.93D-09
 GePol: Maximum weight of points                     =    0.20577
 GePol: Number of points with low weight             =     145
 GePol: Fraction of low-weight points (<1% of avg)   =       5.05%
 GePol: Cavity surface area                          =    363.708 Ang**2
 GePol: Cavity volume                                =    410.348 Ang**3
 Leave Link  301 at Sun Mar  3 18:09:28 2024, MaxMem=  5368709120 cpu:         1.0
 (Enter /home/k0335/k033513/app/g09/l302.exe)
 NPDir=0 NMtPBC=     1 NCelOv=     1 NCel=       1 NClECP=     1 NCelD=      1
         NCelK=      1 NCelE2=     1 NClLst=     1 CellRange=     0.0.
 One-electron integrals computed using PRISM.
 NBasis=   455 RedAO= T EigKep=  1.33D-03  NBF=   455
 NBsUse=   455 1.00D-06 EigRej= -1.00D+00 NBFU=   455
 Precomputing XC quadrature grid using
 IXCGrd= 4 IRadAn=           0 IRanWt=          -1 IRanGd=           0 AccXCQ= 0.00D+00.
 Generated NRdTot=       0 NPtTot=           0 NUsed=           0 NTot=          32
 NSgBfM=   450   450   450   450   450 MxSgAt=    37 MxSgA2=    37.
 Leave Link  302 at Sun Mar  3 18:09:28 2024, MaxMem=  5368709120 cpu:         8.8
 (Enter /home/k0335/k033513/app/g09/l303.exe)
 DipDrv:  MaxL=1.
 Leave Link  303 at Sun Mar  3 18:09:28 2024, MaxMem=  5368709120 cpu:         0.7
 (Enter /home/k0335/k033513/app/g09/l401.exe)
 ExpMin= 1.61D-01 ExpMax= 7.00D+03 ExpMxC= 1.05D+03 IAcc=1 IRadAn=         1 AccDes= 0.00D+00
 Harris functional with IExCor=20419 and IRadAn=       1 diagonalized for initial guess.
 HarFok:  IExCor=20419 AccDes= 0.00D+00 IRadAn=         1 IDoV= 1 UseB2=F ITyADJ=14
 ICtDFT=  3500011 ScaDFX=  1.000000  1.000000  1.000000  1.000000
 FoFCou: FMM=F IPFlag=           0 FMFlag=      100000 FMFlg1=           0
         NFxFlg=           0 DoJE=T BraDBF=F KetDBF=T FulRan=T
         wScrn=  0.000000 ICntrl=     500 IOpCl=  0 I1Cent=   200000004 NGrid=           0
         NMat0=    1 NMatS0=      1 NMatT0=    0 NMatD0=    1 NMtDS0=    0 NMtDT0=    0
 Symmetry not used in FoFCou.
 Harris En= -1732.02756766073    
 JPrj=0 DoOrth=F DoCkMO=F.
 Initial guess <Sx>= 0.0000 <Sy>= 0.0000 <Sz>= 0.5000 <S**2>= 0.7500 S= 0.5000
 Leave Link  401 at Sun Mar  3 18:09:29 2024, MaxMem=  5368709120 cpu:        10.6
 (Enter /home/k0335/k033513/app/g09/l502.exe)
 UHF open shell SCF:
 Using DIIS extrapolation, IDIIS=  1040.
 Two-electron integral symmetry not used.
 IVT=      653349 IEndB=      653349 NGot=  5368709120 MDV=  5368279892
 LenX=  5368279892 LenY=  5368072412
 Requested convergence on RMS density matrix=1.00D-08 within 128 cycles.
 Requested convergence on MAX density matrix=1.00D-06.
 Requested convergence on             energy=1.00D-06.
 No special actions if energy rises.
 Fock matrices will be formed incrementally for  20 cycles.

 Cycle   1  Pass 1  IDiag  1:
 FoFJK:  IHMeth= 1 ICntrl=       0 DoSepK=T KAlg= 0 I1Cent=   0 FoldK=F
 IRaf=         1 NMat=   1 IRICut=       1 DoRegI=T DoRafI=F ISym2E= 0.
 FoFCou: FMM=F IPFlag=           0 FMFlag=      100000 FMFlg1=           0
         NFxFlg=           0 DoJE=T BraDBF=F KetDBF=F FulRan=T
         wScrn=  0.000000 ICntrl=     500 IOpCl=  0 I1Cent=           0 NGrid=           0
         NMat0=    1 NMatS0=      1 NMatT0=    0 NMatD0=    1 NMtDS0=    0 NMtDT0=    0
 Symmetry not used in FoFCou.
 Inv3:  Mode=1 IEnd=    24779628.
 Iteration    1 A*A^-1 deviation from unit magnitude is 5.33D-15 for   2860.
 Iteration    1 A*A^-1 deviation from orthogonality  is 3.51D-15 for   2864    320.
 Iteration    1 A^-1*A deviation from unit magnitude is 5.11D-15 for   2861.
 Iteration    1 A^-1*A deviation from orthogonality  is 2.83D-13 for   2867   2840.
 E= -1787.28108060713    
 DIIS: error= 4.87D-02 at cycle   1 NSaved=   1.
 NSaved= 1 IEnMin= 1 EnMin= -1787.28108060713     IErMin= 1 ErrMin= 4.87D-02
 ErrMax= 4.87D-02  0.00D+00 EMaxC= 1.00D-01 BMatC= 6.63D+00 BMatP= 6.63D+00
 IDIUse=3 WtCom= 5.13D-01 WtEn= 4.87D-01
 Coeff-Com:  0.100D+01
 Coeff-En:   0.100D+01
 Coeff:      0.100D+01
 Gap=     0.534 Goal=   None    Shift=    0.000
 Gap=    -0.027 Goal=   None    Shift=    0.000
 GapD=   -0.027 DampG=0.250 DampE=0.500 DampFc=0.2500 IDamp=-1.
 Damping current iteration by 2.50D-01
 RMSDP=4.08D-03 MaxDP=1.65D-01              OVMax= 5.76D-01

 Cycle   2  Pass 1  IDiag  1:
 RMSU=  1.02D-03    CP:  1.00D+00
 E= -1787.53738905473     Delta-E=       -0.256308447603 Rises=F Damp=T
 DIIS: error= 3.79D-02 at cycle   2 NSaved=   2.
 NSaved= 2 IEnMin= 2 EnMin= -1787.53738905473     IErMin= 2 ErrMin= 3.79D-02
 ErrMax= 3.79D-02  0.00D+00 EMaxC= 1.00D-01 BMatC= 2.71D+00 BMatP= 6.63D+00
 IDIUse=3 WtCom= 6.21D-01 WtEn= 3.79D-01
 Coeff-Com: -0.136D+01 0.236D+01
 Coeff-En:   0.000D+00 0.100D+01
 Coeff:     -0.847D+00 0.185D+01
 Gap=     0.450 Goal=   None    Shift=    0.000
 Gap=     0.050 Goal=   None    Shift=    0.000
 RMSDP=2.03D-03 MaxDP=5.72D-02 DE=-2.56D-01 OVMax= 6.30D-01

 Cycle   3  Pass 1  IDiag  1:
 RMSU=  1.38D-03    CP:  1.00D+00  2.46D+00
 E= -1787.99189059857     Delta-E=       -0.454501543845 Rises=F Damp=F
 DIIS: error= 9.93D-03 at cycle   3 NSaved=   3.
 NSaved= 3 IEnMin= 3 EnMin= -1787.99189059857     IErMin= 3 ErrMin= 9.93D-03
 ErrMax= 9.93D-03  0.00D+00 EMaxC= 1.00D-01 BMatC= 3.49D-01 BMatP= 2.71D+00
 IDIUse=3 WtCom= 9.01D-01 WtEn= 9.93D-02
 Coeff-Com: -0.525D+00 0.903D+00 0.622D+00
 Coeff-En:   0.000D+00 0.000D+00 0.100D+01
 Coeff:     -0.473D+00 0.813D+00 0.659D+00
 Gap=     0.370 Goal=   None    Shift=    0.000
 Gap=     0.080 Goal=   None    Shift=    0.000
 RMSDP=8.94D-04 MaxDP=8.88D-02 DE=-4.55D-01 OVMax= 2.17D-01

 Cycle   4  Pass 1  IDiag  1:
 RMSU=  7.54D-04    CP:  1.00D+00  2.63D+00  6.76D-01
 E= -1788.03785998680     Delta-E=       -0.045969388230 Rises=F Damp=F
 DIIS: error= 7.34D-03 at cycle   4 NSaved=   4.
 NSaved= 4 IEnMin= 4 EnMin= -1788.03785998680     IErMin= 4 ErrMin= 7.34D-03
 ErrMax= 7.34D-03  0.00D+00 EMaxC= 1.00D-01 BMatC= 1.53D-01 BMatP= 3.49D-01
 IDIUse=3 WtCom= 9.27D-01 WtEn= 7.34D-02
 Coeff-Com: -0.269D-01 0.586D-01 0.395D+00 0.573D+00
 Coeff-En:   0.000D+00 0.000D+00 0.270D+00 0.730D+00
 Coeff:     -0.249D-01 0.543D-01 0.386D+00 0.584D+00
 Gap=     0.379 Goal=   None    Shift=    0.000
 Gap=     0.104 Goal=   None    Shift=    0.000
 RMSDP=4.06D-04 MaxDP=3.80D-02 DE=-4.60D-02 OVMax= 7.25D-02

 Cycle   5  Pass 1  IDiag  1:
 RMSU=  2.82D-04    CP:  9.99D-01  2.58D+00  8.53D-01  8.02D-01
 E= -1788.06737052362     Delta-E=       -0.029510536820 Rises=F Damp=F
 DIIS: error= 1.58D-03 at cycle   5 NSaved=   5.
 NSaved= 5 IEnMin= 5 EnMin= -1788.06737052362     IErMin= 5 ErrMin= 1.58D-03
 ErrMax= 1.58D-03  0.00D+00 EMaxC= 1.00D-01 BMatC= 8.35D-03 BMatP= 1.53D-01
 IDIUse=3 WtCom= 9.84D-01 WtEn= 1.58D-02
 Coeff-Com:  0.235D-01-0.312D-01 0.157D+00 0.283D+00 0.567D+00
 Coeff-En:   0.000D+00 0.000D+00 0.000D+00 0.000D+00 0.100D+01
 Coeff:      0.232D-01-0.307D-01 0.155D+00 0.278D+00 0.574D+00
 Gap=     0.357 Goal=   None    Shift=    0.000
 Gap=     0.104 Goal=   None    Shift=    0.000
 RMSDP=1.74D-04 MaxDP=2.04D-02 DE=-2.95D-02 OVMax= 5.07D-02

 Cycle   6  Pass 1  IDiag  1:
 RMSU=  1.52D-04    CP:  9.99D-01  2.59D+00  8.45D-01  9.01D-01  1.12D+00
 E= -1788.07115705965     Delta-E=       -0.003786536022 Rises=F Damp=F
 DIIS: error= 1.46D-03 at cycle   6 NSaved=   6.
 NSaved= 6 IEnMin= 6 EnMin= -1788.07115705965     IErMin= 6 ErrMin= 1.46D-03
 ErrMax= 1.46D-03  0.00D+00 EMaxC= 1.00D-01 BMatC= 3.08D-03 BMatP= 8.35D-03
 IDIUse=3 WtCom= 9.85D-01 WtEn= 1.46D-02
 Coeff-Com:  0.176D-01-0.257D-01 0.107D-01 0.165D-01 0.339D+00 0.642D+00
 Coeff-En:   0.000D+00 0.000D+00 0.000D+00 0.000D+00 0.000D+00 0.100D+01
 Coeff:      0.173D-01-0.253D-01 0.105D-01 0.162D-01 0.334D+00 0.647D+00
 Gap=     0.355 Goal=   None    Shift=    0.000
 Gap=     0.109 Goal=   None    Shift=    0.000
 RMSDP=1.45D-04 MaxDP=7.79D-03 DE=-3.79D-03 OVMax= 4.81D-02

 Cycle   7  Pass 1  IDiag  1:
 RMSU=  7.99D-05    CP:  9.99D-01  2.60D+00  8.46D-01  9.54D-01  1.50D+00
                    CP:  1.25D+00
 E= -1788.07370495416     Delta-E=       -0.002547894512 Rises=F Damp=F
 DIIS: error= 7.62D-04 at cycle   7 NSaved=   7.
 NSaved= 7 IEnMin= 7 EnMin= -1788.07370495416     IErMin= 7 ErrMin= 7.62D-04
 ErrMax= 7.62D-04  0.00D+00 EMaxC= 1.00D-01 BMatC= 1.28D-03 BMatP= 3.08D-03
 IDIUse=3 WtCom= 9.92D-01 WtEn= 7.62D-03
 Coeff-Com:  0.258D-02-0.373D-02-0.679D-01-0.147D+00-0.298D-01 0.433D+00
 Coeff-Com:  0.813D+00
 Coeff-En:   0.000D+00 0.000D+00 0.000D+00 0.000D+00 0.000D+00 0.000D+00
 Coeff-En:   0.100D+01
 Coeff:      0.256D-02-0.370D-02-0.673D-01-0.146D+00-0.296D-01 0.430D+00
 Coeff:      0.814D+00
 Gap=     0.354 Goal=   None    Shift=    0.000
 Gap=     0.116 Goal=   None    Shift=    0.000
 RMSDP=1.67D-04 MaxDP=8.69D-03 DE=-2.55D-03 OVMax= 6.28D-02

 Cycle   8  Pass 1  IDiag  1:
 RMSU=  6.04D-05    CP:  9.99D-01  2.60D+00  8.36D-01  1.00D+00  1.88D+00
                    CP:  1.90D+00  1.56D+00
 E= -1788.07602547413     Delta-E=       -0.002320519975 Rises=F Damp=F
 DIIS: error= 5.58D-04 at cycle   8 NSaved=   8.
 NSaved= 8 IEnMin= 8 EnMin= -1788.07602547413     IErMin= 8 ErrMin= 5.58D-04
 ErrMax= 5.58D-04  0.00D+00 EMaxC= 1.00D-01 BMatC= 3.82D-04 BMatP= 1.28D-03
 IDIUse=3 WtCom= 9.94D-01 WtEn= 5.58D-03
 Coeff-Com: -0.777D-03 0.209D-02-0.874D-02-0.280D-01-0.652D-01-0.731D-01
 Coeff-Com:  0.217D+00 0.957D+00
 Coeff-En:   0.000D+00 0.000D+00 0.000D+00 0.000D+00 0.000D+00 0.000D+00
 Coeff-En:   0.000D+00 0.100D+01
 Coeff:     -0.773D-03 0.208D-02-0.869D-02-0.278D-01-0.648D-01-0.727D-01
 Coeff:      0.216D+00 0.957D+00
 Gap=     0.353 Goal=   None    Shift=    0.000
 Gap=     0.118 Goal=   None    Shift=    0.000
 RMSDP=1.25D-04 MaxDP=8.06D-03 DE=-2.32D-03 OVMax= 4.50D-02

 Cycle   9  Pass 1  IDiag  1:
 RMSU=  3.46D-05    CP:  9.99D-01  2.60D+00  8.20D-01  1.02D+00  2.09D+00
                    CP:  2.31D+00  2.32D+00  1.81D+00
 E= -1788.07736201205     Delta-E=       -0.001336537921 Rises=F Damp=F
 DIIS: error= 5.95D-04 at cycle   9 NSaved=   9.
 NSaved= 9 IEnMin= 9 EnMin= -1788.07736201205     IErMin= 8 ErrMin= 5.58D-04
 ErrMax= 5.95D-04  0.00D+00 EMaxC= 1.00D-01 BMatC= 3.86D-04 BMatP= 3.82D-04
 IDIUse=3 WtCom= 9.94D-01 WtEn= 5.58D-03
 Coeff-Com:  0.853D-03-0.375D-03 0.314D-01 0.572D-01-0.790D-02-0.242D+00
 Coeff-Com: -0.215D+00 0.731D+00 0.644D+00
 Coeff-En:   0.000D+00 0.000D+00 0.000D+00 0.000D+00 0.000D+00 0.000D+00
 Coeff-En:   0.000D+00 0.000D+00 0.100D+01
 Coeff:      0.849D-03-0.373D-03 0.312D-01 0.569D-01-0.785D-02-0.240D+00
 Coeff:     -0.214D+00 0.727D+00 0.646D+00
 Gap=     0.353 Goal=   None    Shift=    0.000
 Gap=     0.119 Goal=   None    Shift=    0.000
 RMSDP=9.46D-05 MaxDP=6.59D-03 DE=-1.34D-03 OVMax= 3.10D-02

 Cycle  10  Pass 1  IDiag  1:
 RMSU=  2.33D-05    CP:  9.98D-01  2.60D+00  8.06D-01  1.02D+00  2.21D+00
                    CP:  2.58D+00  2.90D+00  2.67D+00  1.63D+00
 E= -1788.07828322910     Delta-E=       -0.000921217050 Rises=F Damp=F
 DIIS: error= 5.47D-04 at cycle  10 NSaved=  10.
 NSaved=10 IEnMin=10 EnMin= -1788.07828322910     IErMin=10 ErrMin= 5.47D-04
 ErrMax= 5.47D-04  0.00D+00 EMaxC= 1.00D-01 BMatC= 1.95D-04 BMatP= 3.82D-04
 IDIUse=3 WtCom= 9.95D-01 WtEn= 5.47D-03
 Coeff-Com:  0.319D-02-0.444D-02 0.253D-01 0.529D-01 0.387D-01-0.114D+00
 Coeff-Com: -0.247D+00 0.480D-01 0.644D-01 0.113D+01
 Coeff-En:   0.000D+00 0.000D+00 0.000D+00 0.000D+00 0.000D+00 0.000D+00
 Coeff-En:   0.000D+00 0.000D+00 0.000D+00 0.100D+01
 Coeff:      0.317D-02-0.441D-02 0.252D-01 0.526D-01 0.385D-01-0.113D+00
 Coeff:     -0.246D+00 0.477D-01 0.640D-01 0.113D+01
 Gap=     0.353 Goal=   None    Shift=    0.000
 Gap=     0.121 Goal=   None    Shift=    0.000
 RMSDP=1.25D-04 MaxDP=9.38D-03 DE=-9.21D-04 OVMax= 3.93D-02

 Cycle  11  Pass 1  IDiag  1:
 RMSU=  7.37D-05    CP:  9.98D-01  2.60D+00  7.89D-01  1.01D+00  2.34D+00
                    CP:  2.88D+00  3.00D+00  3.00D+00  2.98D+00  2.05D+00
 E= -1788.07931158384     Delta-E=       -0.001028354735 Rises=F Damp=F
 DIIS: error= 5.26D-04 at cycle  11 NSaved=  11.
 NSaved=11 IEnMin=11 EnMin= -1788.07931158384     IErMin=11 ErrMin= 5.26D-04
 ErrMax= 5.26D-04  0.00D+00 EMaxC= 1.00D-01 BMatC= 2.36D-04 BMatP= 1.95D-04
 IDIUse=3 WtCom= 9.95D-01 WtEn= 5.47D-03
 Coeff-Com:  0.301D-02-0.462D-02-0.211D-01-0.284D-01 0.385D-01 0.225D+00
 Coeff-Com:  0.123D+00-0.487D+00-0.129D+01 0.110D+01 0.134D+01
 Coeff-En:   0.000D+00 0.000D+00 0.000D+00 0.000D+00 0.000D+00 0.000D+00
 Coeff-En:   0.000D+00 0.000D+00 0.000D+00 0.000D+00 0.100D+01
 Coeff:      0.300D-02-0.459D-02-0.210D-01-0.282D-01 0.383D-01 0.224D+00
 Coeff:      0.122D+00-0.484D+00-0.128D+01 0.110D+01 0.134D+01
 Gap=     0.351 Goal=   None    Shift=    0.000
 Gap=     0.123 Goal=   None    Shift=    0.000
 RMSDP=1.91D-04 MaxDP=1.43D-02 DE=-1.03D-03 OVMax= 5.92D-02

 Cycle  12  Pass 1  IDiag  1:
 RMSU=  9.74D-05    CP:  9.98D-01  2.59D+00  7.61D-01  9.70D-01  2.46D+00
                    CP:  3.00D+00  3.00D+00  3.00D+00  3.00D+00  3.00D+00
                    CP:  2.88D+00
 E= -1788.08062660508     Delta-E=       -0.001315021237 Rises=F Damp=F
 DIIS: error= 4.16D-04 at cycle  12 NSaved=  12.
 NSaved=12 IEnMin=12 EnMin= -1788.08062660508     IErMin=12 ErrMin= 4.16D-04
 ErrMax= 4.16D-04  0.00D+00 EMaxC= 1.00D-01 BMatC= 2.09D-04 BMatP= 1.95D-04
 IDIUse=3 WtCom= 9.96D-01 WtEn= 4.16D-03
 Coeff-Com: -0.361D-02 0.509D-02-0.108D-01-0.488D-02 0.321D-02 0.137D+00
 Coeff-Com:  0.728D-01 0.251D-01-0.799D+00 0.322D+00 0.271D+00 0.982D+00
 Coeff-En:   0.000D+00 0.000D+00 0.000D+00 0.000D+00 0.000D+00 0.000D+00
 Coeff-En:   0.000D+00 0.000D+00 0.000D+00 0.000D+00 0.000D+00 0.100D+01
 Coeff:     -0.359D-02 0.507D-02-0.108D-01-0.486D-02 0.320D-02 0.137D+00
 Coeff:      0.724D-01 0.250D-01-0.796D+00 0.320D+00 0.270D+00 0.982D+00
 Gap=     0.351 Goal=   None    Shift=    0.000
 Gap=     0.123 Goal=   None    Shift=    0.000
 RMSDP=8.92D-05 MaxDP=6.99D-03 DE=-1.32D-03 OVMax= 3.37D-02

 Cycle  13  Pass 1  IDiag  1:
 RMSU=  5.58D-05    CP:  9.98D-01  2.59D+00  7.48D-01  9.43D-01  2.46D+00
                    CP:  3.00D+00  3.00D+00  3.00D+00  3.00D+00  3.00D+00
                    CP:  3.00D+00  1.58D+00
 E= -1788.08116784200     Delta-E=       -0.000541236920 Rises=F Damp=F
 DIIS: error= 3.73D-04 at cycle  13 NSaved=  13.
 NSaved=13 IEnMin=13 EnMin= -1788.08116784200     IErMin=13 ErrMin= 3.73D-04
 ErrMax= 3.73D-04  0.00D+00 EMaxC= 1.00D-01 BMatC= 1.67D-04 BMatP= 1.95D-04
 IDIUse=3 WtCom= 9.96D-01 WtEn= 3.73D-03
 Coeff-Com: -0.426D-02 0.597D-02-0.903D-02-0.800D-03-0.876D-02 0.999D-01
 Coeff-Com:  0.529D-01 0.107D+00-0.621D+00 0.179D+00 0.579D-01 0.822D+00
 Coeff-Com:  0.320D+00
 Coeff-En:   0.000D+00 0.000D+00 0.000D+00 0.000D+00 0.000D+00 0.000D+00
 Coeff-En:   0.000D+00 0.000D+00 0.000D+00 0.000D+00 0.000D+00 0.000D+00
 Coeff-En:   0.100D+01
 Coeff:     -0.425D-02 0.595D-02-0.899D-02-0.797D-03-0.873D-02 0.995D-01
 Coeff:      0.527D-01 0.106D+00-0.619D+00 0.178D+00 0.577D-01 0.819D+00
 Coeff:      0.322D+00
 Gap=     0.351 Goal=   None    Shift=    0.000
 Gap=     0.124 Goal=   None    Shift=    0.000
 RMSDP=3.94D-05 MaxDP=2.95D-03 DE=-5.41D-04 OVMax= 1.51D-02

 Cycle  14  Pass 1  IDiag  1:
 RMSU=  7.43D-06    CP:  9.98D-01  2.59D+00  7.43D-01  9.31D-01  2.47D+00
                    CP:  3.00D+00  3.00D+00  3.00D+00  3.00D+00  3.00D+00
                    CP:  3.00D+00  1.83D+00  1.51D+00
 E= -1788.08139600381     Delta-E=       -0.000228161811 Rises=F Damp=F
 DIIS: error= 3.63D-04 at cycle  14 NSaved=  14.
 NSaved=14 IEnMin=14 EnMin= -1788.08139600381     IErMin=14 ErrMin= 3.63D-04
 ErrMax= 3.63D-04  0.00D+00 EMaxC= 1.00D-01 BMatC= 1.50D-04 BMatP= 1.67D-04
 IDIUse=3 WtCom= 9.96D-01 WtEn= 3.63D-03
 Coeff-Com: -0.354D-02 0.497D-02 0.102D-01 0.334D-01-0.226D-01-0.552D-01
 Coeff-Com: -0.111D+00 0.301D+00 0.227D+00-0.587D-01-0.416D+00-0.326D+00
 Coeff-Com: -0.234D+01 0.375D+01
 Coeff-En:   0.000D+00 0.000D+00 0.000D+00 0.000D+00 0.000D+00 0.000D+00
 Coeff-En:   0.000D+00 0.000D+00 0.000D+00 0.000D+00 0.000D+00 0.000D+00
 Coeff-En:   0.000D+00 0.100D+01
 Coeff:     -0.353D-02 0.495D-02 0.102D-01 0.333D-01-0.225D-01-0.550D-01
 Coeff:     -0.111D+00 0.300D+00 0.227D+00-0.585D-01-0.414D+00-0.325D+00
 Coeff:     -0.233D+01 0.374D+01
 Gap=     0.351 Goal=   None    Shift=    0.000
 Gap=     0.122 Goal=   None    Shift=    0.000
 RMSDP=1.61D-04 MaxDP=1.21D-02 DE=-2.28D-04 OVMax= 6.01D-02

 Cycle  15  Pass 1  IDiag  1:
 RMSU=  5.39D-05    CP:  9.98D-01  2.59D+00  7.25D-01  8.77D-01  2.46D+00
                    CP:  3.00D+00  3.00D+00  3.00D+00  3.00D+00  3.00D+00
                    CP:  3.00D+00  2.75D+00  3.00D+00  3.00D+00
 E= -1788.08225828087     Delta-E=       -0.000862277066 Rises=F Damp=F
 DIIS: error= 3.41D-04 at cycle  15 NSaved=  15.
 NSaved=15 IEnMin=15 EnMin= -1788.08225828087     IErMin=15 ErrMin= 3.41D-04
 ErrMax= 3.41D-04  0.00D+00 EMaxC= 1.00D-01 BMatC= 2.00D-04 BMatP= 1.50D-04
 IDIUse=3 WtCom= 9.96D-01 WtEn= 3.63D-03
 Coeff-Com: -0.217D-02 0.307D-02 0.714D-02 0.262D-01-0.994D-02-0.558D-02
 Coeff-Com: -0.848D-01 0.112D+00 0.703D-01 0.858D-01-0.136D-01-0.491D+00
 Coeff-Com: -0.334D+01 0.426D+01 0.380D+00
 Coeff-En:   0.000D+00 0.000D+00 0.000D+00 0.000D+00 0.000D+00 0.000D+00
 Coeff-En:   0.000D+00 0.000D+00 0.000D+00 0.000D+00 0.000D+00 0.000D+00
 Coeff-En:   0.000D+00 0.000D+00 0.100D+01
 Coeff:     -0.216D-02 0.305D-02 0.712D-02 0.261D-01-0.991D-02-0.556D-02
 Coeff:     -0.845D-01 0.112D+00 0.701D-01 0.855D-01-0.135D-01-0.489D+00
 Coeff:     -0.333D+01 0.424D+01 0.383D+00
 Gap=     0.351 Goal=   None    Shift=    0.000
 Gap=     0.125 Goal=   None    Shift=    0.000
 RMSDP=6.56D-05 MaxDP=4.91D-03 DE=-8.62D-04 OVMax= 2.25D-02

 Cycle  16  Pass 1  IDiag  1:
 RMSU=  3.07D-05    CP:  9.98D-01  2.58D+00  7.16D-01  8.54D-01  2.45D+00
                    CP:  3.00D+00  3.00D+00  3.00D+00  3.00D+00  3.00D+00
                    CP:  3.00D+00  3.00D+00  3.00D+00  3.00D+00  1.80D+00
 E= -1788.08260043607     Delta-E=       -0.000342155198 Rises=F Damp=F
 DIIS: error= 3.11D-04 at cycle  16 NSaved=  16.
 NSaved=16 IEnMin=16 EnMin= -1788.08260043607     IErMin=16 ErrMin= 3.11D-04
 ErrMax= 3.11D-04  0.00D+00 EMaxC= 1.00D-01 BMatC= 1.68D-04 BMatP= 1.50D-04
 IDIUse=3 WtCom= 9.96D-01 WtEn= 3.63D-03
 Coeff-Com: -0.199D-02 0.280D-02-0.311D-02 0.600D-02 0.501D-02 0.103D+00
 Coeff-Com: -0.247D-01-0.146D-01-0.350D+00 0.250D+00 0.396D+00 0.160D+00
 Coeff-Com: -0.158D+01 0.954D+00-0.260D+01 0.371D+01
 Coeff-En:   0.000D+00 0.000D+00 0.000D+00 0.000D+00 0.000D+00 0.000D+00
 Coeff-En:   0.000D+00 0.000D+00 0.000D+00 0.000D+00 0.000D+00 0.000D+00
 Coeff-En:   0.000D+00 0.000D+00 0.000D+00 0.100D+01
 Coeff:     -0.198D-02 0.279D-02-0.309D-02 0.598D-02 0.499D-02 0.103D+00
 Coeff:     -0.246D-01-0.146D-01-0.348D+00 0.249D+00 0.395D+00 0.159D+00
 Coeff:     -0.158D+01 0.951D+00-0.260D+01 0.370D+01
 Gap=     0.352 Goal=   None    Shift=    0.000
 Gap=     0.122 Goal=   None    Shift=    0.000
 RMSDP=1.97D-04 MaxDP=1.56D-02 DE=-3.42D-04 OVMax= 7.75D-02

 Cycle  17  Pass 1  IDiag  1:
 RMSU=  1.12D-04    CP:  9.98D-01  2.58D+00  6.95D-01  7.81D-01  2.38D+00
                    CP:  3.00D+00  3.00D+00  3.00D+00  3.00D+00  3.00D+00
                    CP:  3.00D+00  3.00D+00  3.00D+00  3.00D+00  3.00D+00
                    CP:  3.00D+00
 E= -1788.08352540797     Delta-E=       -0.000924971898 Rises=F Damp=F
 DIIS: error= 3.06D-04 at cycle  17 NSaved=  17.
 NSaved=17 IEnMin=17 EnMin= -1788.08352540797     IErMin=17 ErrMin= 3.06D-04
 ErrMax= 3.06D-04  0.00D+00 EMaxC= 1.00D-01 BMatC= 1.49D-04 BMatP= 1.50D-04
 IDIUse=3 WtCom= 9.97D-01 WtEn= 3.06D-03
 Coeff-Com: -0.316D-02 0.435D-02-0.599D-02-0.224D-03-0.723D-02 0.607D-01
 Coeff-Com:  0.207D-01 0.163D+00-0.230D+00-0.750D-01-0.303D-01 0.658D+00
 Coeff-Com:  0.691D+00-0.786D+00-0.412D+01 0.297D+01 0.169D+01
 Coeff-En:   0.000D+00 0.000D+00 0.000D+00 0.000D+00 0.000D+00 0.000D+00
 Coeff-En:   0.000D+00 0.000D+00 0.000D+00 0.000D+00 0.000D+00 0.000D+00
 Coeff-En:   0.000D+00 0.000D+00 0.000D+00 0.000D+00 0.100D+01
 Coeff:     -0.315D-02 0.433D-02-0.597D-02-0.224D-03-0.720D-02 0.605D-01
 Coeff:      0.207D-01 0.163D+00-0.229D+00-0.747D-01-0.302D-01 0.656D+00
 Coeff:      0.689D+00-0.784D+00-0.411D+01 0.296D+01 0.168D+01
 Gap=     0.353 Goal=   None    Shift=    0.000
 Gap=     0.124 Goal=   None    Shift=    0.000
 RMSDP=2.56D-04 MaxDP=2.02D-02 DE=-9.25D-04 OVMax= 1.10D-01

 Cycle  18  Pass 1  IDiag  1:
 RMSU=  9.44D-05    CP:  9.98D-01  2.58D+00  6.60D-01  6.84D-01  2.23D+00
                    CP:  3.00D+00  3.00D+00  3.00D+00  3.00D+00  3.00D+00
                    CP:  3.00D+00  3.00D+00  3.00D+00  3.00D+00  3.00D+00
                    CP:  3.00D+00  2.93D+00
 E= -1788.08451143731     Delta-E=       -0.000986029345 Rises=F Damp=F
 DIIS: error= 2.12D-04 at cycle  18 NSaved=  18.
 NSaved=18 IEnMin=18 EnMin= -1788.08451143731     IErMin=18 ErrMin= 2.12D-04
 ErrMax= 2.12D-04  0.00D+00 EMaxC= 1.00D-01 BMatC= 5.33D-05 BMatP= 1.49D-04
 IDIUse=3 WtCom= 9.98D-01 WtEn= 2.12D-03
 Coeff-Com: -0.806D-03 0.122D-02 0.366D-02 0.685D-02 0.184D-02-0.392D-01
 Coeff-Com:  0.980D-02 0.127D+00 0.190D+00-0.290D+00-0.263D+00 0.274D+00
 Coeff-Com:  0.127D-01 0.568D+00-0.112D+01-0.597D-01 0.705D+00 0.873D+00
 Coeff-En:   0.000D+00 0.000D+00 0.000D+00 0.000D+00 0.000D+00 0.000D+00
 Coeff-En:   0.000D+00 0.000D+00 0.000D+00 0.000D+00 0.000D+00 0.000D+00
 Coeff-En:   0.000D+00 0.000D+00 0.000D+00 0.000D+00 0.000D+00 0.100D+01
 Coeff:     -0.805D-03 0.122D-02 0.365D-02 0.683D-02 0.184D-02-0.391D-01
 Coeff:      0.977D-02 0.127D+00 0.189D+00-0.290D+00-0.262D+00 0.274D+00
 Coeff:      0.127D-01 0.567D+00-0.112D+01-0.596D-01 0.704D+00 0.873D+00
 Gap=     0.353 Goal=   None    Shift=    0.000
 Gap=     0.125 Goal=   None    Shift=    0.000
 RMSDP=6.86D-05 MaxDP=5.59D-03 DE=-9.86D-04 OVMax= 2.91D-02

 Cycle  19  Pass 1  IDiag  1:
 RMSU=  4.77D-05    CP:  9.98D-01  2.57D+00  6.51D-01  6.54D-01  2.19D+00
                    CP:  3.00D+00  3.00D+00  3.00D+00  3.00D+00  3.00D+00
                    CP:  3.00D+00  3.00D+00  3.00D+00  3.00D+00  3.00D+00
                    CP:  3.00D+00  3.00D+00  1.32D+00
 E= -1788.08472631340     Delta-E=       -0.000214876081 Rises=F Damp=F
 DIIS: error= 1.84D-04 at cycle  19 NSaved=  19.
 NSaved=19 IEnMin=19 EnMin= -1788.08472631340     IErMin=19 ErrMin= 1.84D-04
 ErrMax= 1.84D-04  0.00D+00 EMaxC= 1.00D-01 BMatC= 3.17D-05 BMatP= 5.33D-05
 IDIUse=3 WtCom= 9.98D-01 WtEn= 1.84D-03
 Coeff-Com:  0.112D-02-0.146D-02 0.423D-02 0.733D-02 0.954D-02-0.180D-01
 Coeff-Com: -0.315D-02-0.397D-01 0.960D-01 0.402D-01 0.916D-01-0.293D+00
 Coeff-Com: -0.108D+01 0.109D+01 0.816D+00-0.586D+00-0.715D+00-0.503D+00
 Coeff-Com:  0.208D+01
 Coeff-En:   0.000D+00 0.000D+00 0.000D+00 0.000D+00 0.000D+00 0.000D+00
 Coeff-En:   0.000D+00 0.000D+00 0.000D+00 0.000D+00 0.000D+00 0.000D+00
 Coeff-En:   0.000D+00 0.000D+00 0.000D+00 0.000D+00 0.000D+00 0.000D+00
 Coeff-En:   0.100D+01
 Coeff:      0.112D-02-0.146D-02 0.422D-02 0.731D-02 0.952D-02-0.180D-01
 Coeff:     -0.315D-02-0.397D-01 0.958D-01 0.401D-01 0.914D-01-0.292D+00
 Coeff:     -0.107D+01 0.109D+01 0.815D+00-0.585D+00-0.714D+00-0.502D+00
 Coeff:      0.208D+01
 Gap=     0.354 Goal=   None    Shift=    0.000
 Gap=     0.125 Goal=   None    Shift=    0.000
 RMSDP=1.97D-04 MaxDP=1.46D-02 DE=-2.15D-04 OVMax= 8.54D-02

 Cycle  20  Pass 1  IDiag  1:
 RMSU=  6.33D-05    CP:  9.98D-01  2.57D+00  6.21D-01  5.78D-01  2.02D+00
                    CP:  2.89D+00  3.00D+00  3.00D+00  3.00D+00  3.00D+00
                    CP:  3.00D+00  3.00D+00  3.00D+00  3.00D+00  3.00D+00
                    CP:  3.00D+00  3.00D+00  2.24D+00  3.00D+00
 E= -1788.08515185001     Delta-E=       -0.000425536612 Rises=F Damp=F
 DIIS: error= 1.74D-04 at cycle  20 NSaved=  20.
 NSaved=20 IEnMin=20 EnMin= -1788.08515185001     IErMin=20 ErrMin= 1.74D-04
 ErrMax= 1.74D-04  0.00D+00 EMaxC= 1.00D-01 BMatC= 4.84D-05 BMatP= 3.17D-05
 IDIUse=3 WtCom= 9.98D-01 WtEn= 1.84D-03
 Coeff-Com:  0.173D-02-0.242D-02-0.528D-02-0.941D-02 0.137D-01 0.749D-01
 Coeff-Com:  0.176D-01-0.176D+00-0.315D+00 0.360D+00 0.476D+00-0.167D+00
 Coeff-Com: -0.109D+01 0.627D-01 0.102D+00 0.150D+01-0.668D+00-0.164D+01
 Coeff-Com:  0.145D+01 0.102D+01
 Coeff-En:   0.000D+00 0.000D+00 0.000D+00 0.000D+00 0.000D+00 0.000D+00
 Coeff-En:   0.000D+00 0.000D+00 0.000D+00 0.000D+00 0.000D+00 0.000D+00
 Coeff-En:   0.000D+00 0.000D+00 0.000D+00 0.000D+00 0.000D+00 0.000D+00
 Coeff-En:   0.000D+00 0.100D+01
 Coeff:      0.173D-02-0.242D-02-0.527D-02-0.940D-02 0.137D-01 0.747D-01
 Coeff:      0.175D-01-0.176D+00-0.314D+00 0.360D+00 0.475D+00-0.166D+00
 Coeff:     -0.109D+01 0.626D-01 0.102D+00 0.150D+01-0.666D+00-0.164D+01
 Coeff:      0.144D+01 0.102D+01
 Gap=     0.354 Goal=   None    Shift=    0.000
 Gap=     0.125 Goal=   None    Shift=    0.000
 RMSDP=3.96D-05 MaxDP=3.13D-03 DE=-4.26D-04 OVMax= 1.52D-02

 Cycle  21  Pass 1  IDiag  1:
 Restarting incremental Fock formation.
 E= -1788.08522507573     Delta-E=       -0.000073225723 Rises=F Damp=F
 DIIS: error= 9.64D-05 at cycle  21 NSaved=  20.
 NSaved=20 IEnMin=20 EnMin= -1788.08522507573     IErMin=20 ErrMin= 9.64D-05
 ErrMax= 9.64D-05  0.00D+00 EMaxC= 1.00D-01 BMatC= 8.84D-06 BMatP= 3.17D-05
 IDIUse=1 WtCom= 1.00D+00 WtEn= 0.00D+00
 Coeff-Com: -0.351D-04-0.453D-02-0.612D-02 0.241D-02 0.563D-01 0.425D-02
 Coeff-Com: -0.585D-01-0.220D+00 0.199D+00 0.245D+00-0.431D-02 0.765D-01
 Coeff-Com: -0.686D+00-0.367D+00 0.104D+01-0.830D-01-0.102D+01 0.491D+00
 Coeff-Com:  0.500D+00 0.827D+00
 Coeff:     -0.351D-04-0.453D-02-0.612D-02 0.241D-02 0.563D-01 0.425D-02
 Coeff:     -0.585D-01-0.220D+00 0.199D+00 0.245D+00-0.431D-02 0.765D-01
 Coeff:     -0.686D+00-0.367D+00 0.104D+01-0.830D-01-0.102D+01 0.491D+00
 Coeff:      0.500D+00 0.827D+00
 Gap=     0.354 Goal=   None    Shift=    0.000
 Gap=     0.126 Goal=   None    Shift=    0.000
 RMSDP=8.08D-05 MaxDP=5.35D-03 DE=-7.32D-05 OVMax= 3.54D-02

 Cycle  22  Pass 1  IDiag  1:
 RMSU=  8.08D-05    CP:  1.00D+00
 E= -1788.08531157160     Delta-E=       -0.000086495868 Rises=F Damp=F
 DIIS: error= 9.58D-05 at cycle  22 NSaved=  20.
 NSaved=20 IEnMin=20 EnMin= -1788.08531157160     IErMin=20 ErrMin= 9.58D-05
 ErrMax= 9.58D-05  0.00D+00 EMaxC= 1.00D-01 BMatC= 1.34D-05 BMatP= 8.84D-06
 IDIUse=1 WtCom= 1.00D+00 WtEn= 0.00D+00
 Coeff-Com: -0.941D-03-0.168D-02 0.354D-03 0.133D-01 0.993D-04 0.104D-02
 Coeff-Com: -0.383D-01-0.479D-02 0.306D-01 0.702D-01 0.371D+00-0.475D+00
 Coeff-Com: -0.444D+00 0.288D+00 0.429D+00 0.443D-01-0.535D+00-0.344D+00
 Coeff-Com:  0.623D+00 0.973D+00
 Coeff:     -0.941D-03-0.168D-02 0.354D-03 0.133D-01 0.993D-04 0.104D-02
 Coeff:     -0.383D-01-0.479D-02 0.306D-01 0.702D-01 0.371D+00-0.475D+00
 Coeff:     -0.444D+00 0.288D+00 0.429D+00 0.443D-01-0.535D+00-0.344D+00
 Coeff:      0.623D+00 0.973D+00
 Gap=     0.353 Goal=   None    Shift=    0.000
 Gap=     0.126 Goal=   None    Shift=    0.000
 RMSDP=4.28D-05 MaxDP=3.01D-03 DE=-8.65D-05 OVMax= 1.80D-02

 Cycle  23  Pass 1  IDiag  1:
 RMSU=  1.13D-05    CP:  1.00D+00  1.51D+00
 E= -1788.08534580014     Delta-E=       -0.000034228540 Rises=F Damp=F
 DIIS: error= 7.07D-05 at cycle  23 NSaved=  20.
 NSaved=20 IEnMin=20 EnMin= -1788.08534580014     IErMin=20 ErrMin= 7.07D-05
 ErrMax= 7.07D-05  0.00D+00 EMaxC= 1.00D-01 BMatC= 1.01D-05 BMatP= 8.84D-06
 IDIUse=1 WtCom= 1.00D+00 WtEn= 0.00D+00
 Coeff-Com: -0.118D-02-0.879D-03-0.455D-02 0.172D-02 0.170D-01 0.336D-01
 Coeff-Com: -0.784D-01-0.548D-01 0.100D+00 0.533D+00-0.488D+00-0.229D+00
 Coeff-Com: -0.395D-01 0.393D+00 0.300D+00-0.482D+00-0.542D+00 0.109D+00
 Coeff-Com:  0.528D+00 0.904D+00
 Coeff:     -0.118D-02-0.879D-03-0.455D-02 0.172D-02 0.170D-01 0.336D-01
 Coeff:     -0.784D-01-0.548D-01 0.100D+00 0.533D+00-0.488D+00-0.229D+00
 Coeff:     -0.395D-01 0.393D+00 0.300D+00-0.482D+00-0.542D+00 0.109D+00
 Coeff:      0.528D+00 0.904D+00
 Gap=     0.354 Goal=   None    Shift=    0.000
 Gap=     0.125 Goal=   None    Shift=    0.000
 RMSDP=1.61D-05 MaxDP=1.41D-03 DE=-3.42D-05 OVMax= 4.40D-03

 Cycle  24  Pass 1  IDiag  1:
 RMSU=  7.60D-06    CP:  1.00D+00  1.63D+00  1.93D+00
 E= -1788.08535577300     Delta-E=       -0.000009972859 Rises=F Damp=F
 DIIS: error= 7.04D-05 at cycle  24 NSaved=  20.
 NSaved=20 IEnMin=20 EnMin= -1788.08535577300     IErMin=20 ErrMin= 7.04D-05
 ErrMax= 7.04D-05  0.00D+00 EMaxC= 1.00D-01 BMatC= 8.32D-06 BMatP= 8.84D-06
 IDIUse=1 WtCom= 1.00D+00 WtEn= 0.00D+00
 Coeff-Com: -0.137D-02-0.682D-02 0.132D-01-0.651D-02 0.391D-01-0.473D-01
 Coeff-Com:  0.184D-02-0.496D-01 0.165D+00-0.382D-01 0.843D-01-0.277D+00
 Coeff-Com:  0.417D-01 0.136D+00 0.239D-01-0.176D+00-0.389D+00 0.297D+00
 Coeff-Com:  0.333D+00 0.856D+00
 Coeff:     -0.137D-02-0.682D-02 0.132D-01-0.651D-02 0.391D-01-0.473D-01
 Coeff:      0.184D-02-0.496D-01 0.165D+00-0.382D-01 0.843D-01-0.277D+00
 Coeff:      0.417D-01 0.136D+00 0.239D-01-0.176D+00-0.389D+00 0.297D+00
 Coeff:      0.333D+00 0.856D+00
 Gap=     0.353 Goal=   None    Shift=    0.000
 Gap=     0.126 Goal=   None    Shift=    0.000
 RMSDP=5.50D-05 MaxDP=3.52D-03 DE=-9.97D-06 OVMax= 2.40D-02

 Cycle  25  Pass 1  IDiag  1:
 RMSU=  7.22D-06    CP:  1.00D+00  2.30D+00  2.10D+00  6.68D-01
 E= -1788.08537171770     Delta-E=       -0.000015944702 Rises=F Damp=F
 DIIS: error= 8.57D-05 at cycle  25 NSaved=  20.
 NSaved=20 IEnMin=20 EnMin= -1788.08537171770     IErMin=19 ErrMin= 7.04D-05
 ErrMax= 8.57D-05  0.00D+00 EMaxC= 1.00D-01 BMatC= 1.11D-05 BMatP= 8.32D-06
 IDIUse=1 WtCom= 1.00D+00 WtEn= 0.00D+00
 Coeff-Com: -0.273D-02 0.566D-02-0.699D-02-0.175D-02 0.196D-01 0.165D-01
 Coeff-Com: -0.388D-01-0.606D-01 0.265D-01 0.573D-01 0.576D-01-0.127D+00
 Coeff-Com: -0.177D+00 0.355D+00 0.159D+00-0.284D+00-0.275D+00-0.415D+00
 Coeff-Com:  0.729D+00 0.962D+00
 Coeff:     -0.273D-02 0.566D-02-0.699D-02-0.175D-02 0.196D-01 0.165D-01
 Coeff:     -0.388D-01-0.606D-01 0.265D-01 0.573D-01 0.576D-01-0.127D+00
 Coeff:     -0.177D+00 0.355D+00 0.159D+00-0.284D+00-0.275D+00-0.415D+00
 Coeff:      0.729D+00 0.962D+00
 Gap=     0.354 Goal=   None    Shift=    0.000
 Gap=     0.125 Goal=   None    Shift=    0.000
 RMSDP=1.05D-05 MaxDP=8.74D-04 DE=-1.59D-05 OVMax= 3.75D-03

 Cycle  26  Pass 1  IDiag  1:
 RMSU=  3.07D-06    CP:  1.00D+00  2.35D+00  2.74D+00  1.44D+00  1.23D+00
 E= -1788.08537707645     Delta-E=       -0.000005358750 Rises=F Damp=F
 DIIS: error= 1.93D-05 at cycle  26 NSaved=  20.
 NSaved=20 IEnMin=20 EnMin= -1788.08537707645     IErMin=20 ErrMin= 1.93D-05
 ErrMax= 1.93D-05  0.00D+00 EMaxC= 1.00D-01 BMatC= 3.87D-07 BMatP= 8.32D-06
 IDIUse=1 WtCom= 1.00D+00 WtEn= 0.00D+00
 Coeff-Com:  0.821D-03-0.126D-02-0.501D-02 0.121D-01 0.910D-02-0.134D-01
 Coeff-Com: -0.660D-01 0.391D-01-0.434D-01 0.124D+00-0.621D-01-0.131D+00
 Coeff-Com:  0.166D+00 0.918D-01-0.489D-01-0.539D-01-0.426D+00 0.140D+00
 Coeff-Com:  0.493D+00 0.776D+00
 Coeff:      0.821D-03-0.126D-02-0.501D-02 0.121D-01 0.910D-02-0.134D-01
 Coeff:     -0.660D-01 0.391D-01-0.434D-01 0.124D+00-0.621D-01-0.131D+00
 Coeff:      0.166D+00 0.918D-01-0.489D-01-0.539D-01-0.426D+00 0.140D+00
 Coeff:      0.493D+00 0.776D+00
 Gap=     0.354 Goal=   None    Shift=    0.000
 Gap=     0.125 Goal=   None    Shift=    0.000
 RMSDP=9.72D-06 MaxDP=7.18D-04 DE=-5.36D-06 OVMax= 3.89D-03

 Cycle  27  Pass 1  IDiag  1:
 RMSU=  9.45D-07    CP:  1.00D+00  2.46D+00  2.96D+00  1.53D+00  1.49D+00
                    CP:  1.38D+00
 E= -1788.08537824474     Delta-E=       -0.000001168293 Rises=F Damp=F
 DIIS: error= 1.62D-05 at cycle  27 NSaved=  20.
 NSaved=20 IEnMin=20 EnMin= -1788.08537824474     IErMin=20 ErrMin= 1.62D-05
 ErrMax= 1.62D-05  0.00D+00 EMaxC= 1.00D-01 BMatC= 2.16D-07 BMatP= 3.87D-07
 IDIUse=1 WtCom= 1.00D+00 WtEn= 0.00D+00
 Coeff-Com:  0.179D-02 0.107D-01-0.178D-01-0.219D-02 0.162D-02 0.349D-01
 Coeff-Com: -0.991D-02-0.106D-01-0.227D-01 0.111D-01 0.173D-01 0.400D-02
 Coeff-Com: -0.412D-01-0.351D-01 0.158D+00-0.120D+00-0.457D-01-0.563D-01
 Coeff-Com: -0.402D-01 0.116D+01
 Coeff:      0.179D-02 0.107D-01-0.178D-01-0.219D-02 0.162D-02 0.349D-01
 Coeff:     -0.991D-02-0.106D-01-0.227D-01 0.111D-01 0.173D-01 0.400D-02
 Coeff:     -0.412D-01-0.351D-01 0.158D+00-0.120D+00-0.457D-01-0.563D-01
 Coeff:     -0.402D-01 0.116D+01
 Gap=     0.354 Goal=   None    Shift=    0.000
 Gap=     0.125 Goal=   None    Shift=    0.000
 RMSDP=5.00D-06 MaxDP=3.74D-04 DE=-1.17D-06 OVMax= 1.66D-03

 Cycle  28  Pass 1  IDiag  1:
 RMSU=  1.21D-06    CP:  1.00D+00  2.51D+00  3.00D+00  1.74D+00  1.68D+00
                    CP:  1.87D+00  1.99D+00
 E= -1788.08537878313     Delta-E=       -0.000000538384 Rises=F Damp=F
 DIIS: error= 1.33D-05 at cycle  28 NSaved=  20.
 NSaved=20 IEnMin=20 EnMin= -1788.08537878313     IErMin=20 ErrMin= 1.33D-05
 ErrMax= 1.33D-05  0.00D+00 EMaxC= 1.00D-01 BMatC= 2.66D-07 BMatP= 2.16D-07
 IDIUse=1 WtCom= 1.00D+00 WtEn= 0.00D+00
 Coeff-Com:  0.825D-02-0.141D-01 0.209D-02-0.324D-02 0.284D-01-0.176D-01
 Coeff-Com:  0.182D-02-0.217D-01 0.261D-01 0.434D-01-0.428D-01-0.649D-01
 Coeff-Com: -0.562D-01 0.194D+00 0.611D-01-0.502D-01-0.123D+00-0.619D+00
 Coeff-Com:  0.576D+00 0.107D+01
 Coeff:      0.825D-02-0.141D-01 0.209D-02-0.324D-02 0.284D-01-0.176D-01
 Coeff:      0.182D-02-0.217D-01 0.261D-01 0.434D-01-0.428D-01-0.649D-01
 Coeff:     -0.562D-01 0.194D+00 0.611D-01-0.502D-01-0.123D+00-0.619D+00
 Coeff:      0.576D+00 0.107D+01
 Gap=     0.354 Goal=   None    Shift=    0.000
 Gap=     0.125 Goal=   None    Shift=    0.000
 RMSDP=2.94D-06 MaxDP=1.91D-04 DE=-5.38D-07 OVMax= 1.47D-03

 Cycle  29  Pass 1  IDiag  1:
 RMSU=  5.89D-07    CP:  1.00D+00  2.52D+00  3.00D+00  1.81D+00  1.79D+00
                    CP:  2.44D+00  3.00D+00  1.87D+00
 E= -1788.08537918942     Delta-E=       -0.000000406297 Rises=F Damp=F
 DIIS: error= 1.37D-05 at cycle  29 NSaved=  20.
 NSaved=20 IEnMin=20 EnMin= -1788.08537918942     IErMin=19 ErrMin= 1.33D-05
 ErrMax= 1.37D-05  0.00D+00 EMaxC= 1.00D-01 BMatC= 2.30D-07 BMatP= 2.16D-07
 IDIUse=1 WtCom= 1.00D+00 WtEn= 0.00D+00
 Coeff-Com: -0.795D-03 0.295D-02-0.381D-02 0.333D-01-0.429D-01 0.208D-02
 Coeff-Com:  0.748D-02-0.570D-02-0.206D-01 0.653D-01 0.150D-01-0.112D+00
 Coeff-Com:  0.464D-01-0.888D-01 0.147D+00 0.227D+00-0.275D+00-0.497D+00
 Coeff-Com: -0.285D-01 0.153D+01
 Coeff:     -0.795D-03 0.295D-02-0.381D-02 0.333D-01-0.429D-01 0.208D-02
 Coeff:      0.748D-02-0.570D-02-0.206D-01 0.653D-01 0.150D-01-0.112D+00
 Coeff:      0.464D-01-0.888D-01 0.147D+00 0.227D+00-0.275D+00-0.497D+00
 Coeff:     -0.285D-01 0.153D+01
 Gap=     0.354 Goal=   None    Shift=    0.000
 Gap=     0.125 Goal=   None    Shift=    0.000
 RMSDP=3.13D-06 MaxDP=2.14D-04 DE=-4.06D-07 OVMax= 1.59D-03

 Cycle  30  Pass 1  IDiag  1:
 RMSU=  1.20D-06    CP:  1.00D+00  2.53D+00  3.00D+00  1.81D+00  1.91D+00
                    CP:  3.00D+00  3.00D+00  2.38D+00  3.00D+00
 E= -1788.08537959436     Delta-E=       -0.000000404937 Rises=F Damp=F
 DIIS: error= 1.23D-05 at cycle  30 NSaved=  20.
 NSaved=20 IEnMin=20 EnMin= -1788.08537959436     IErMin=20 ErrMin= 1.23D-05
 ErrMax= 1.23D-05  0.00D+00 EMaxC= 1.00D-01 BMatC= 1.66D-07 BMatP= 2.16D-07
 IDIUse=1 WtCom= 1.00D+00 WtEn= 0.00D+00
 Coeff-Com:  0.384D-02-0.129D-01 0.130D-01-0.207D-01 0.159D-01 0.572D-02
 Coeff-Com: -0.198D-01-0.472D-01 0.951D-01 0.330D-01-0.851D-01 0.634D-02
 Coeff-Com: -0.201D+00 0.228D+00 0.198D+00 0.148D+00-0.542D+00-0.683D+00
 Coeff-Com:  0.594D+00 0.127D+01
 Coeff:      0.384D-02-0.129D-01 0.130D-01-0.207D-01 0.159D-01 0.572D-02
 Coeff:     -0.198D-01-0.472D-01 0.951D-01 0.330D-01-0.851D-01 0.634D-02
 Coeff:     -0.201D+00 0.228D+00 0.198D+00 0.148D+00-0.542D+00-0.683D+00
 Coeff:      0.594D+00 0.127D+01
 Gap=     0.354 Goal=   None    Shift=    0.000
 Gap=     0.125 Goal=   None    Shift=    0.000
 RMSDP=3.49D-06 MaxDP=2.54D-04 DE=-4.05D-07 OVMax= 1.78D-03

 Cycle  31  Pass 1  IDiag  1:
 RMSU=  2.24D-06    CP:  1.00D+00  2.53D+00  3.00D+00  1.75D+00  2.00D+00
                    CP:  3.00D+00  3.00D+00  3.00D+00  3.00D+00  2.99D+00
 E= -1788.08537984088     Delta-E=       -0.000000246518 Rises=F Damp=F
 DIIS: error= 2.03D-05 at cycle  31 NSaved=  20.
 NSaved=20 IEnMin=20 EnMin= -1788.08537984088     IErMin=19 ErrMin= 1.23D-05
 ErrMax= 2.03D-05  0.00D+00 EMaxC= 1.00D-01 BMatC= 8.24D-07 BMatP= 1.66D-07
 IDIUse=1 WtCom= 1.00D+00 WtEn= 0.00D+00
 Coeff-Com: -0.697D-02 0.405D-01-0.469D-01 0.288D-01-0.166D-01-0.132D-01
 Coeff-Com: -0.454D-01 0.869D-01 0.247D-01-0.576D-01 0.497D-02-0.220D+00
 Coeff-Com:  0.249D+00 0.693D-01 0.230D+00-0.346D+00-0.382D+00-0.998D-01
 Coeff-Com:  0.695D+00 0.805D+00
 Coeff:     -0.697D-02 0.405D-01-0.469D-01 0.288D-01-0.166D-01-0.132D-01
 Coeff:     -0.454D-01 0.869D-01 0.247D-01-0.576D-01 0.497D-02-0.220D+00
 Coeff:      0.249D+00 0.693D-01 0.230D+00-0.346D+00-0.382D+00-0.998D-01
 Coeff:      0.695D+00 0.805D+00
 Gap=     0.354 Goal=   None    Shift=    0.000
 Gap=     0.125 Goal=   None    Shift=    0.000
 RMSDP=2.59D-06 MaxDP=2.21D-04 DE=-2.47D-07 OVMax= 1.03D-03

 Cycle  32  Pass 1  IDiag  1:
 RMSU=  1.65D-06    CP:  1.00D+00  2.52D+00  3.00D+00  1.80D+00  2.02D+00
                    CP:  3.00D+00  3.00D+00  3.00D+00  3.00D+00  3.00D+00
                    CP:  1.63D+00
 E= -1788.08538016099     Delta-E=       -0.000000320112 Rises=F Damp=F
 DIIS: error= 1.58D-05 at cycle  32 NSaved=  20.
 NSaved=20 IEnMin=20 EnMin= -1788.08538016099     IErMin=18 ErrMin= 1.23D-05
 ErrMax= 1.58D-05  0.00D+00 EMaxC= 1.00D-01 BMatC= 4.70D-07 BMatP= 1.66D-07
 IDIUse=1 WtCom= 1.00D+00 WtEn= 0.00D+00
 Coeff-Com:  0.305D-01-0.426D-01 0.445D-03-0.854D-02 0.272D-01 0.998D-02
 Coeff-Com: -0.281D-01-0.337D-01 0.244D-02 0.116D+00-0.650D-01 0.637D-01
 Coeff-Com: -0.190D+00-0.330D-01 0.159D+00 0.482D+00-0.571D+00-0.528D+00
 Coeff-Com: -0.459D+00 0.207D+01
 Coeff:      0.305D-01-0.426D-01 0.445D-03-0.854D-02 0.272D-01 0.998D-02
 Coeff:     -0.281D-01-0.337D-01 0.244D-02 0.116D+00-0.650D-01 0.637D-01
 Coeff:     -0.190D+00-0.330D-01 0.159D+00 0.482D+00-0.571D+00-0.528D+00
 Coeff:     -0.459D+00 0.207D+01
 Gap=     0.354 Goal=   None    Shift=    0.000
 Gap=     0.125 Goal=   None    Shift=    0.000
 RMSDP=4.73D-06 MaxDP=3.59D-04 DE=-3.20D-07 OVMax= 2.54D-03

 Cycle  33  Pass 1  IDiag  1:
 RMSU=  4.72D-07    CP:  1.00D+00  2.53D+00  3.00D+00  1.77D+00  2.12D+00
                    CP:  3.00D+00  3.00D+00  3.00D+00  3.00D+00  3.00D+00
                    CP:  3.00D+00  3.00D+00
 E= -1788.08538052329     Delta-E=       -0.000000362300 Rises=F Damp=F
 DIIS: error= 2.13D-05 at cycle  33 NSaved=  20.
 NSaved=20 IEnMin=20 EnMin= -1788.08538052329     IErMin=17 ErrMin= 1.23D-05
 ErrMax= 2.13D-05  0.00D+00 EMaxC= 1.00D-01 BMatC= 8.96D-07 BMatP= 1.66D-07
 IDIUse=1 WtCom= 1.00D+00 WtEn= 0.00D+00
 Coeff-Com: -0.928D-02 0.242D-01-0.179D-01 0.422D-02 0.875D-02-0.910D-02
 Coeff-Com: -0.136D-01-0.385D-01 0.784D-01-0.152D-01 0.463D-01-0.502D-01
 Coeff-Com: -0.171D+00-0.981D-01 0.408D+00 0.540D+00-0.558D+00-0.204D+01
 Coeff-Com:  0.146D+01 0.146D+01
 Coeff:     -0.928D-02 0.242D-01-0.179D-01 0.422D-02 0.875D-02-0.910D-02
 Coeff:     -0.136D-01-0.385D-01 0.784D-01-0.152D-01 0.463D-01-0.502D-01
 Coeff:     -0.171D+00-0.981D-01 0.408D+00 0.540D+00-0.558D+00-0.204D+01
 Coeff:      0.146D+01 0.146D+01
 Gap=     0.354 Goal=   None    Shift=    0.000
 Gap=     0.125 Goal=   None    Shift=    0.000
 RMSDP=5.17D-06 MaxDP=3.48D-04 DE=-3.62D-07 OVMax= 2.63D-03

 Cycle  34  Pass 1  IDiag  1:
 RMSU=  4.73D-06    CP:  1.00D+00  2.52D+00  3.00D+00  1.90D+00  2.17D+00
                    CP:  3.00D+00  3.00D+00  3.00D+00  3.00D+00  3.00D+00
                    CP:  3.00D+00  3.00D+00  3.00D+00
 E= -1788.08538112193     Delta-E=       -0.000000598645 Rises=F Damp=F
 DIIS: error= 6.08D-06 at cycle  34 NSaved=  20.
 NSaved=20 IEnMin=20 EnMin= -1788.08538112193     IErMin=20 ErrMin= 6.08D-06
 ErrMax= 6.08D-06  0.00D+00 EMaxC= 1.00D-01 BMatC= 8.58D-08 BMatP= 1.66D-07
 IDIUse=1 WtCom= 1.00D+00 WtEn= 0.00D+00
 Coeff-Com:  0.299D-01-0.255D-01-0.212D-01-0.137D-01 0.467D-01 0.274D-01
 Coeff-Com: -0.844D-01 0.355D-02-0.601D-01 0.964D-01 0.240D+00 0.267D-01
 Coeff-Com: -0.519D+00-0.541D+00 0.877D+00 0.575D+00-0.942D+00-0.681D+00
 Coeff-Com:  0.234D+00 0.173D+01
 Coeff:      0.299D-01-0.255D-01-0.212D-01-0.137D-01 0.467D-01 0.274D-01
 Coeff:     -0.844D-01 0.355D-02-0.601D-01 0.964D-01 0.240D+00 0.267D-01
 Coeff:     -0.519D+00-0.541D+00 0.877D+00 0.575D+00-0.942D+00-0.681D+00
 Coeff:      0.234D+00 0.173D+01
 Gap=     0.354 Goal=   None    Shift=    0.000
 Gap=     0.125 Goal=   None    Shift=    0.000
 RMSDP=8.67D-06 MaxDP=6.66D-04 DE=-5.99D-07 OVMax= 4.64D-03

 Cycle  35  Pass 1  IDiag  1:
 RMSU=  1.78D-06    CP:  1.00D+00  2.56D+00  3.00D+00  1.98D+00  2.38D+00
                    CP:  3.00D+00  3.00D+00  3.00D+00  3.00D+00  3.00D+00
                    CP:  3.00D+00  3.00D+00  3.00D+00  2.61D+00
 E= -1788.08538165022     Delta-E=       -0.000000528282 Rises=F Damp=F
 DIIS: error= 5.40D-06 at cycle  35 NSaved=  20.
 NSaved=20 IEnMin=20 EnMin= -1788.08538165022     IErMin=20 ErrMin= 5.40D-06
 ErrMax= 5.40D-06  0.00D+00 EMaxC= 1.00D-01 BMatC= 5.11D-08 BMatP= 8.58D-08
 IDIUse=1 WtCom= 1.00D+00 WtEn= 0.00D+00
 Coeff-Com: -0.105D-02-0.462D-02-0.977D-02 0.285D-01 0.101D-01-0.286D-01
 Coeff-Com: -0.419D-02-0.526D-01 0.541D-01 0.990D-01 0.702D-01-0.551D-01
 Coeff-Com: -0.394D+00-0.522D-01 0.442D+00 0.946D+00-0.116D+01-0.846D+00
 Coeff-Com:  0.732D+00 0.123D+01
 Coeff:     -0.105D-02-0.462D-02-0.977D-02 0.285D-01 0.101D-01-0.286D-01
 Coeff:     -0.419D-02-0.526D-01 0.541D-01 0.990D-01 0.702D-01-0.551D-01
 Coeff:     -0.394D+00-0.522D-01 0.442D+00 0.946D+00-0.116D+01-0.846D+00
 Coeff:      0.732D+00 0.123D+01
 Gap=     0.354 Goal=   None    Shift=    0.000
 Gap=     0.125 Goal=   None    Shift=    0.000
 RMSDP=5.76D-06 MaxDP=4.21D-04 DE=-5.28D-07 OVMax= 3.17D-03

 Cycle  36  Pass 1  IDiag  1:
 RMSU=  3.66D-06    CP:  1.00D+00  2.57D+00  3.00D+00  2.01D+00  2.49D+00
                    CP:  3.00D+00  3.00D+00  3.00D+00  3.00D+00  3.00D+00
                    CP:  3.00D+00  3.00D+00  3.00D+00  3.00D+00  1.76D+00
 E= -1788.08538186343     Delta-E=       -0.000000213210 Rises=F Damp=F
 DIIS: error= 3.87D-06 at cycle  36 NSaved=  20.
 NSaved=20 IEnMin=20 EnMin= -1788.08538186343     IErMin=20 ErrMin= 3.87D-06
 ErrMax= 3.87D-06  0.00D+00 EMaxC= 1.00D-01 BMatC= 3.33D-08 BMatP= 5.11D-08
 IDIUse=1 WtCom= 1.00D+00 WtEn= 0.00D+00
 Coeff-Com:  0.566D-02-0.860D-02 0.585D-03-0.149D-02 0.182D-01 0.141D-01
 Coeff-Com: -0.426D-01-0.263D-02-0.288D-01 0.701D-01 0.102D+00-0.715D-01
 Coeff-Com: -0.293D+00-0.193D-01 0.632D+00-0.129D+00-0.571D+00-0.996D-01
 Coeff-Com:  0.501D+00 0.924D+00
 Coeff:      0.566D-02-0.860D-02 0.585D-03-0.149D-02 0.182D-01 0.141D-01
 Coeff:     -0.426D-01-0.263D-02-0.288D-01 0.701D-01 0.102D+00-0.715D-01
 Coeff:     -0.293D+00-0.193D-01 0.632D+00-0.129D+00-0.571D+00-0.996D-01
 Coeff:      0.501D+00 0.924D+00
 Gap=     0.355 Goal=   None    Shift=    0.000
 Gap=     0.125 Goal=   None    Shift=    0.000
 RMSDP=4.07D-06 MaxDP=2.75D-04 DE=-2.13D-07 OVMax= 2.15D-03

 Cycle  37  Pass 1  IDiag  1:
 RMSU=  2.62D-07    CP:  1.00D+00  2.56D+00  3.00D+00  2.10D+00  2.56D+00
                    CP:  3.00D+00  3.00D+00  3.00D+00  3.00D+00  3.00D+00
                    CP:  3.00D+00  3.00D+00  3.00D+00  3.00D+00  2.19D+00
                    CP:  2.05D+00
 E= -1788.08538192932     Delta-E=       -0.000000065890 Rises=F Damp=F
 DIIS: error= 5.32D-06 at cycle  37 NSaved=  20.
 NSaved=20 IEnMin=20 EnMin= -1788.08538192932     IErMin=19 ErrMin= 3.87D-06
 ErrMax= 5.32D-06  0.00D+00 EMaxC= 1.00D-01 BMatC= 4.58D-08 BMatP= 3.33D-08
 IDIUse=1 WtCom= 1.00D+00 WtEn= 0.00D+00
 Coeff-Com: -0.528D-02 0.231D-02 0.322D-04-0.928D-03 0.164D-01-0.238D-01
 Coeff-Com: -0.701D-02 0.129D-01 0.209D-01 0.246D-01-0.171D-01-0.677D-01
 Coeff-Com: -0.143D+00 0.764D-01 0.241D+00 0.510D-01-0.215D+00-0.208D+00
 Coeff-Com:  0.109D+00 0.113D+01
 Coeff:     -0.528D-02 0.231D-02 0.322D-04-0.928D-03 0.164D-01-0.238D-01
 Coeff:     -0.701D-02 0.129D-01 0.209D-01 0.246D-01-0.171D-01-0.677D-01
 Coeff:     -0.143D+00 0.764D-01 0.241D+00 0.510D-01-0.215D+00-0.208D+00
 Coeff:      0.109D+00 0.113D+01
 Gap=     0.355 Goal=   None    Shift=    0.000
 Gap=     0.125 Goal=   None    Shift=    0.000
 RMSDP=2.43D-06 MaxDP=1.89D-04 DE=-6.59D-08 OVMax= 1.03D-03

 Cycle  38  Pass 1  IDiag  1:
 RMSU=  2.29D-07    CP:  1.00D+00  2.58D+00  3.00D+00  2.07D+00  2.62D+00
                    CP:  3.00D+00  3.00D+00  3.00D+00  3.00D+00  3.00D+00
                    CP:  3.00D+00  3.00D+00  3.00D+00  3.00D+00  2.48D+00
                    CP:  2.45D+00  1.58D+00
 E= -1788.08538196532     Delta-E=       -0.000000036005 Rises=F Damp=F
 DIIS: error= 2.71D-06 at cycle  38 NSaved=  20.
 NSaved=20 IEnMin=20 EnMin= -1788.08538196532     IErMin=20 ErrMin= 2.71D-06
 ErrMax= 2.71D-06  0.00D+00 EMaxC= 1.00D-01 BMatC= 1.32D-08 BMatP= 3.33D-08
 IDIUse=1 WtCom= 1.00D+00 WtEn= 0.00D+00
 Coeff-Com:  0.113D-02-0.552D-03-0.874D-02 0.547D-02-0.447D-03 0.137D-02
 Coeff-Com:  0.147D-01-0.225D-01-0.203D-02 0.463D-01 0.946D-01-0.118D+00
 Coeff-Com: -0.154D+00 0.169D+00 0.211D+00-0.173D+00-0.399D+00-0.729D-01
 Coeff-Com:  0.650D+00 0.758D+00
 Coeff:      0.113D-02-0.552D-03-0.874D-02 0.547D-02-0.447D-03 0.137D-02
 Coeff:      0.147D-01-0.225D-01-0.203D-02 0.463D-01 0.946D-01-0.118D+00
 Coeff:     -0.154D+00 0.169D+00 0.211D+00-0.173D+00-0.399D+00-0.729D-01
 Coeff:      0.650D+00 0.758D+00
 Gap=     0.355 Goal=   None    Shift=    0.000
 Gap=     0.125 Goal=   None    Shift=    0.000
 RMSDP=1.22D-06 MaxDP=8.51D-05 DE=-3.60D-08 OVMax= 6.64D-04

 Cycle  39  Pass 1  IDiag  1:
 RMSU=  1.51D-07    CP:  1.00D+00  2.59D+00  3.00D+00  2.09D+00  2.64D+00
                    CP:  3.00D+00  3.00D+00  3.00D+00  3.00D+00  3.00D+00
                    CP:  3.00D+00  3.00D+00  3.00D+00  3.00D+00  2.68D+00
                    CP:  2.76D+00  1.69D+00  1.16D+00
 E= -1788.08538197492     Delta-E=       -0.000000009602 Rises=F Damp=F
 DIIS: error= 5.03D-07 at cycle  39 NSaved=  20.
 NSaved=20 IEnMin=20 EnMin= -1788.08538197492     IErMin=20 ErrMin= 5.03D-07
 ErrMax= 5.03D-07  0.00D+00 EMaxC= 1.00D-01 BMatC= 2.29D-10 BMatP= 1.32D-08
 IDIUse=1 WtCom= 1.00D+00 WtEn= 0.00D+00
 Coeff-Com:  0.195D-02-0.398D-02-0.741D-03 0.282D-03 0.409D-02 0.307D-04
 Coeff-Com:  0.786D-02-0.262D-01-0.165D-01 0.274D-01 0.471D-01-0.828D-01
 Coeff-Com: -0.368D-02 0.405D-01 0.727D-01-0.101D+00 0.392D-01-0.142D+00
 Coeff-Com: -0.695D-01 0.121D+01
 Coeff:      0.195D-02-0.398D-02-0.741D-03 0.282D-03 0.409D-02 0.307D-04
 Coeff:      0.786D-02-0.262D-01-0.165D-01 0.274D-01 0.471D-01-0.828D-01
 Coeff:     -0.368D-02 0.405D-01 0.727D-01-0.101D+00 0.392D-01-0.142D+00
 Coeff:     -0.695D-01 0.121D+01
 Gap=     0.355 Goal=   None    Shift=    0.000
 Gap=     0.125 Goal=   None    Shift=    0.000
 RMSDP=4.58D-07 MaxDP=3.35D-05 DE=-9.60D-09 OVMax= 2.45D-04

 Cycle  40  Pass 1  IDiag  1:
 RMSU=  6.12D-08    CP:  1.00D+00  2.59D+00  3.00D+00  2.09D+00  2.65D+00
                    CP:  3.00D+00  3.00D+00  3.00D+00  3.00D+00  3.00D+00
                    CP:  3.00D+00  3.00D+00  3.00D+00  3.00D+00  2.72D+00
                    CP:  2.87D+00  1.79D+00  1.29D+00  1.28D+00
 E= -1788.08538197628     Delta-E=       -0.000000001356 Rises=F Damp=F
 DIIS: error= 2.46D-07 at cycle  40 NSaved=  20.
 NSaved=20 IEnMin=20 EnMin= -1788.08538197628     IErMin=20 ErrMin= 2.46D-07
 ErrMax= 2.46D-07  0.00D+00 EMaxC= 1.00D-01 BMatC= 9.95D-11 BMatP= 2.29D-10
 IDIUse=1 WtCom= 1.00D+00 WtEn= 0.00D+00
 Coeff-Com: -0.137D-02 0.505D-03 0.139D-02 0.125D-02-0.349D-02 0.397D-02
 Coeff-Com: -0.699D-02-0.111D-01-0.837D-02 0.268D-01-0.278D-01 0.337D-02
 Coeff-Com:  0.110D-02 0.499D-01 0.108D-01-0.523D-03-0.114D+00-0.214D+00
 Coeff-Com:  0.344D+00 0.944D+00
 Coeff:     -0.137D-02 0.505D-03 0.139D-02 0.125D-02-0.349D-02 0.397D-02
 Coeff:     -0.699D-02-0.111D-01-0.837D-02 0.268D-01-0.278D-01 0.337D-02
 Coeff:      0.110D-02 0.499D-01 0.108D-01-0.523D-03-0.114D+00-0.214D+00
 Coeff:      0.344D+00 0.944D+00
 Gap=     0.355 Goal=   None    Shift=    0.000
 Gap=     0.125 Goal=   None    Shift=    0.000
 RMSDP=2.13D-07 MaxDP=1.60D-05 DE=-1.36D-09 OVMax= 1.14D-04

 Cycle  41  Pass 1  IDiag  1:
 Restarting incremental Fock formation.
 E= -1788.08538197683     Delta-E=       -0.000000000550 Rises=F Damp=F
 DIIS: error= 1.17D-07 at cycle  41 NSaved=  20.
 NSaved=20 IEnMin=20 EnMin= -1788.08538197683     IErMin=20 ErrMin= 1.17D-07
 ErrMax= 1.17D-07  0.00D+00 EMaxC= 1.00D-01 BMatC= 5.13D-11 BMatP= 9.95D-11
 IDIUse=1 WtCom= 1.00D+00 WtEn= 0.00D+00
 Coeff-Com:  0.195D-03 0.273D-04 0.317D-03-0.232D-03 0.767D-04-0.116D-03
 Coeff-Com: -0.125D-01 0.105D-02 0.107D-01 0.130D-01-0.228D-01-0.224D-01
 Coeff-Com:  0.272D-01 0.489D-01 0.573D-03-0.648D-01-0.134D+00-0.119D+00
 Coeff-Com:  0.511D+00 0.762D+00
 Coeff:      0.195D-03 0.273D-04 0.317D-03-0.232D-03 0.767D-04-0.116D-03
 Coeff:     -0.125D-01 0.105D-02 0.107D-01 0.130D-01-0.228D-01-0.224D-01
 Coeff:      0.272D-01 0.489D-01 0.573D-03-0.648D-01-0.134D+00-0.119D+00
 Coeff:      0.511D+00 0.762D+00
 Gap=     0.355 Goal=   None    Shift=    0.000
 Gap=     0.125 Goal=   None    Shift=    0.000
 RMSDP=1.59D-07 MaxDP=1.18D-05 DE=-5.50D-10 OVMax= 8.53D-05

 Cycle  42  Pass 1  IDiag  1:
 RMSU=  1.59D-07    CP:  1.00D+00
 E= -1788.08538197687     Delta-E=       -0.000000000045 Rises=F Damp=F
 DIIS: error= 6.07D-08 at cycle  42 NSaved=  20.
 NSaved=20 IEnMin=20 EnMin= -1788.08538197687     IErMin=20 ErrMin= 6.07D-08
 ErrMax= 6.07D-08  0.00D+00 EMaxC= 1.00D-01 BMatC= 6.35D-12 BMatP= 5.13D-11
 IDIUse=1 WtCom= 1.00D+00 WtEn= 0.00D+00
 Coeff-Com: -0.679D-03 0.112D-03 0.279D-02-0.260D-02 0.449D-02-0.663D-03
 Coeff-Com:  0.914D-02-0.160D-01 0.949D-02 0.262D-02 0.676D-03-0.171D-01
 Coeff-Com: -0.216D-02-0.185D-01 0.576D-01 0.600D-01-0.213D+00-0.122D+00
 Coeff-Com:  0.168D+00 0.108D+01
 Coeff:     -0.679D-03 0.112D-03 0.279D-02-0.260D-02 0.449D-02-0.663D-03
 Coeff:      0.914D-02-0.160D-01 0.949D-02 0.262D-02 0.676D-03-0.171D-01
 Coeff:     -0.216D-02-0.185D-01 0.576D-01 0.600D-01-0.213D+00-0.122D+00
 Coeff:      0.168D+00 0.108D+01
 Gap=     0.355 Goal=   None    Shift=    0.000
 Gap=     0.125 Goal=   None    Shift=    0.000
 RMSDP=5.35D-08 MaxDP=4.37D-06 DE=-4.55D-11 OVMax= 2.40D-05

 Cycle  43  Pass 1  IDiag  1:
 RMSU=  1.95D-08    CP:  1.00D+00  1.31D+00
 E= -1788.08538197700     Delta-E=       -0.000000000120 Rises=F Damp=F
 DIIS: error= 3.44D-08 at cycle  43 NSaved=  20.
 NSaved=20 IEnMin=20 EnMin= -1788.08538197700     IErMin=20 ErrMin= 3.44D-08
 ErrMax= 3.44D-08  0.00D+00 EMaxC= 1.00D-01 BMatC= 3.62D-12 BMatP= 6.35D-12
 IDIUse=1 WtCom= 1.00D+00 WtEn= 0.00D+00
 Coeff-Com: -0.692D-04 0.472D-03-0.184D-02 0.317D-02 0.338D-02 0.151D-02
 Coeff-Com: -0.765D-02 0.641D-02 0.130D-02 0.502D-03-0.117D-01-0.518D-02
 Coeff-Com:  0.443D-02 0.295D-01 0.381D-01-0.606D-01-0.147D+00-0.869D-01
 Coeff-Com:  0.415D+00 0.817D+00
 Coeff:     -0.692D-04 0.472D-03-0.184D-02 0.317D-02 0.338D-02 0.151D-02
 Coeff:     -0.765D-02 0.641D-02 0.130D-02 0.502D-03-0.117D-01-0.518D-02
 Coeff:      0.443D-02 0.295D-01 0.381D-01-0.606D-01-0.147D+00-0.869D-01
 Coeff:      0.415D+00 0.817D+00
 Gap=     0.355 Goal=   None    Shift=    0.000
 Gap=     0.125 Goal=   None    Shift=    0.000
 RMSDP=5.58D-08 MaxDP=3.73D-06 DE=-1.20D-10 OVMax= 2.95D-05

 Cycle  44  Pass 1  IDiag  1:
 RMSU=  1.80D-08    CP:  1.00D+00  1.02D+00  2.20D+00
 E= -1788.08538197697     Delta-E=        0.000000000028 Rises=F Damp=F
 DIIS: error= 2.18D-08 at cycle  44 NSaved=  20.
 NSaved=20 IEnMin=19 EnMin= -1788.08538197700     IErMin=20 ErrMin= 2.18D-08
 ErrMax= 2.18D-08  0.00D+00 EMaxC= 1.00D-01 BMatC= 7.12D-13 BMatP= 3.62D-12
 IDIUse=1 WtCom= 1.00D+00 WtEn= 0.00D+00
 Coeff-Com: -0.220D-03-0.171D-03-0.154D-03 0.154D-02-0.971D-03-0.110D-02
 Coeff-Com:  0.164D-02 0.118D-02 0.128D-02-0.354D-02-0.543D-02 0.728D-02
 Coeff-Com:  0.657D-02 0.646D-02 0.746D-02-0.387D-01-0.603D-01-0.301D-01
 Coeff-Com:  0.163D+00 0.944D+00
 Coeff:     -0.220D-03-0.171D-03-0.154D-03 0.154D-02-0.971D-03-0.110D-02
 Coeff:      0.164D-02 0.118D-02 0.128D-02-0.354D-02-0.543D-02 0.728D-02
 Coeff:      0.657D-02 0.646D-02 0.746D-02-0.387D-01-0.603D-01-0.301D-01
 Coeff:      0.163D+00 0.944D+00
 Gap=     0.355 Goal=   None    Shift=    0.000
 Gap=     0.125 Goal=   None    Shift=    0.000
 RMSDP=8.04D-09 MaxDP=5.69D-07 DE= 2.82D-11 OVMax= 3.70D-06

 Error on total polarization charges =  0.00326
 SCF Done:  E(UCAM-B3LYP) =  -1788.08538198     A.U. after   44 cycles
            NFock= 44  Conv=0.80D-08     -V/T= 2.0078
 <Sx>= 0.0000 <Sy>= 0.0000 <Sz>= 0.5000 <S**2>= 0.7769 S= 0.5134
 <L.S>= 0.000000000000E+00
[...]
 XXXZ=           -180.4514 YYYX=            181.8911 YYYZ=            -93.2688 ZZZX=           -183.1995
 ZZZY=           -114.0461 XXYY=          -1287.3396 XXZZ=          -1157.2765 YYZZ=           -579.0718
 XXYZ=              7.3721 YYXZ=            -47.5817 ZZXY=             49.9438
 N-N= 3.202676905910D+03 E-N=-1.058945881281D+04  KE= 1.774306678634D+03
                          Isotropic Fermi Contact Couplings
        Atom                 a.u.       MegaHertz       Gauss      10(-4) cm-1
     1  C(13)              0.00822       9.23936       3.29683       3.08192
     2  C(13)             -0.00531      -5.97256      -2.13116      -1.99223
     3  N(14)              0.02658       8.58968       3.06501       2.86521
     4  C(13)             -0.01909     -21.46051      -7.65764      -7.15846
     5  O(17)              0.00125      -0.75524      -0.26949      -0.25192
     6  N(14)              0.09394      30.35223      10.83043      10.12441
     7  C(13)             -0.01777     -19.97350      -7.12704      -6.66244
     8  C(13)              0.02007      22.56464       8.05163       7.52675
     9  C(13)             -0.02914     -32.76107     -11.68997     -10.92792
    10  O(17)              0.03305     -20.03326      -7.14836      -6.68238
    11  N(14)             -0.00987      -3.19017      -1.13833      -1.06413
    12  C(13)              0.00002       0.01861       0.00664       0.00621
    13  F(19)             -0.00017      -0.73510      -0.26230      -0.24520
    14  F(19)              0.00209       8.80456       3.14169       2.93688
    15  C(13)             -0.00102      -1.14745      -0.40944      -0.38275
    16  F(19)             -0.00016      -0.68644      -0.24494      -0.22897
    17  O(17)              0.00048      -0.29037      -0.10361      -0.09686
    18  C(13)             -0.00007      -0.07435      -0.02653      -0.02480
    19  F(19)             -0.00001      -0.05268      -0.01880      -0.01757
    20  F(19)              0.00000      -0.01884      -0.00672      -0.00628
    21  F(19)             -0.00001      -0.05459      -0.01948      -0.01821
    22  C(13)              0.00001       0.00869       0.00310       0.00290
    23  F(19)              0.00009       0.36144       0.12897       0.12056
    24  F(19)             -0.00002      -0.06476      -0.02311      -0.02160
    25  F(19)             -0.00002      -0.07880      -0.02812      -0.02628
    26  C(13)             -0.00897     -10.08556      -3.59878      -3.36418
    27  O(17)              0.00838      -5.08053      -1.81286      -1.69468
    28  H(1)               0.00100       4.47098       1.59536       1.49136
    29  H(1)               0.00011       0.49648       0.17716       0.16561
    30  H(1)              -0.00035      -1.55084      -0.55338      -0.51730
    31  H(1)               0.00365      16.32352       5.82464       5.44494
    32  H(1)               0.00141       6.31823       2.25450       2.10753
    33  H(1)               0.00789      35.27185      12.58587      11.76542
    34  H(1)               0.00921      41.16875      14.69003      13.73242
    35  H(1)              -0.00107      -4.79181      -1.70984      -1.59838
    36  H(1)               0.00232      10.35278       3.69413       3.45332
    37  H(1)              -0.00013      -0.58365      -0.20826      -0.19468
 --------------------------------------------------------
       Center         ----  Spin Dipole Couplings  ----
                      3XX-RR        3YY-RR        3ZZ-RR
 --------------------------------------------------------
     1   Atom       -0.006790      0.017723     -0.010933
     2   Atom       -0.012141      0.003793      0.008348
     3   Atom       -0.104477     -0.068539      0.173016
     4   Atom        0.021006      0.015733     -0.036740
     5   Atom       -0.043351     -0.105132      0.148483
     6   Atom       -0.401294     -0.279722      0.681016
     7   Atom       -0.036054     -0.007666      0.043721
     8   Atom       -0.055422      0.050348      0.005074
     9   Atom        0.083082      0.036458     -0.119540
    10   Atom       -0.567695     -0.171158      0.738853
    11   Atom        0.018283      0.028963     -0.047246
    12   Atom       -0.001135      0.002944     -0.001809
    13   Atom       -0.000002      0.000013     -0.000011
    14   Atom        0.001689      0.015545     -0.017234
    15   Atom        0.001144      0.000332     -0.001475
    16   Atom       -0.000534      0.000528      0.000005
    17   Atom        0.005856     -0.003166     -0.002689
    18   Atom        0.001497     -0.001061     -0.000436
    19   Atom        0.001215     -0.000730     -0.000484
    20   Atom        0.001291     -0.000734     -0.000557
    21   Atom        0.000741     -0.000833      0.000091
    22   Atom        0.001021     -0.000281     -0.000740
    23   Atom        0.000820      0.000862     -0.001683
    24   Atom        0.000688     -0.000392     -0.000296
    25   Atom        0.001781     -0.000602     -0.001179
    26   Atom        0.015537      0.008581     -0.024118
    27   Atom       -0.140352     -0.062982      0.203334
    28   Atom       -0.000412      0.000521     -0.000109
    29   Atom       -0.000302      0.002429     -0.002127
    30   Atom        0.001308     -0.000154     -0.001154
    31   Atom        0.001916     -0.001481     -0.000435
    32   Atom       -0.001201      0.001134      0.000067
    33   Atom        0.000359      0.000233     -0.000592
    34   Atom        0.012277     -0.004485     -0.007792
    35   Atom       -0.005367     -0.000244      0.005611
    36   Atom       -0.004658      0.007880     -0.003222
    37   Atom        0.004323      0.001996     -0.006319
 --------------------------------------------------------
                        XY            XZ            YZ
 --------------------------------------------------------
     1   Atom       -0.020086      0.009041     -0.015393
     2   Atom       -0.006713      0.002582     -0.014527
     3   Atom       -0.098050      0.170548     -0.194544
     4   Atom       -0.002375     -0.029415      0.044185
     5   Atom        0.016740      0.029764      0.011738
     6   Atom       -0.286180      0.552598     -0.676479
     7   Atom       -0.005830      0.028871     -0.041474
     8   Atom       -0.017667      0.013765     -0.084127
     9   Atom        0.000391     -0.053002      0.069176
    10   Atom        0.062067     -0.139746     -0.736761
    11   Atom        0.013079     -0.032091      0.024715
    12   Atom        0.002117     -0.000133      0.001375
    13   Atom       -0.004141     -0.004534      0.003655
    14   Atom        0.025510     -0.005516     -0.010446
    15   Atom        0.001920     -0.000043      0.001233
    16   Atom        0.000889     -0.000193     -0.000298
    17   Atom        0.003049      0.001387      0.000329
    18   Atom       -0.000055      0.001186      0.000043
    19   Atom        0.000140      0.000717      0.000093
    20   Atom       -0.000706      0.000822     -0.000257
    21   Atom       -0.000102      0.001180      0.000041
    22   Atom        0.000474      0.000796      0.000601
    23   Atom       -0.001927      0.002063     -0.000413
    24   Atom        0.000246      0.000618      0.000290
    25   Atom        0.000479      0.000473      0.000370
    26   Atom        0.020964     -0.014789      0.029017
    27   Atom       -0.023749      0.064239     -0.169667
    28   Atom       -0.002631     -0.001801      0.001526
    29   Atom       -0.000692     -0.000974     -0.001693
    30   Atom       -0.002114      0.002733      0.000428
    31   Atom        0.000856     -0.004211      0.001354
    32   Atom        0.001053     -0.000349      0.003734
    33   Atom       -0.001869     -0.003830      0.010576
    34   Atom        0.006004      0.001066      0.002966
    35   Atom        0.000738     -0.007144     -0.003851
    36   Atom        0.005946      0.003093      0.002432
    37   Atom       -0.001332      0.001994     -0.006540
 --------------------------------------------------------


 ---------------------------------------------------------------------------------
              Anisotropic Spin Dipole Couplings in Principal Axis System
 ---------------------------------------------------------------------------------

       Atom             a.u.   MegaHertz   Gauss  10(-4) cm-1        Axes

              Baa    -0.0183    -2.451    -0.875    -0.818  0.8304  0.2507 -0.4975
     1 C(13)  Bbb    -0.0175    -2.354    -0.840    -0.785  0.3153  0.5247  0.7907
              Bcc     0.0358     4.806     1.715     1.603 -0.4593  0.8135 -0.3567
 
              Baa    -0.0151    -2.023    -0.722    -0.675  0.8726  0.4524  0.1844
     2 C(13)  Bbb    -0.0069    -0.924    -0.330    -0.308 -0.4524  0.6059  0.6544
              Bcc     0.0220     2.947     1.052     0.983  0.1843 -0.6544  0.7333
 
              Baa    -0.1877    -7.239    -2.583    -2.415  0.8978  0.3827 -0.2181
     3 N(14)  Bbb    -0.1761    -6.794    -2.424    -2.266 -0.2098  0.8069  0.5521
              Bcc     0.3638    14.033     5.007     4.681  0.3873 -0.4499  0.8048
 
              Baa    -0.0687    -9.221    -3.290    -3.076  0.2691 -0.4406  0.8564
     4 C(13)  Bbb     0.0170     2.280     0.814     0.761  0.7958  0.6026  0.0599
              Bcc     0.0517     6.940     2.476     2.315 -0.5425  0.6654  0.5128
 
              Baa    -0.1094     7.919     2.826     2.642 -0.2384  0.9710 -0.0167
     5 O(17)  Bbb    -0.0443     3.207     1.144     1.070  0.9589  0.2327 -0.1622
              Bcc     0.1538   -11.127    -3.970    -3.711  0.1536  0.0547  0.9866
 
              Baa    -0.6341   -24.455    -8.726    -8.157  0.9279  0.2802 -0.2458
     6 N(14)  Bbb    -0.6289   -24.257    -8.655    -8.091 -0.1276  0.8583  0.4970
              Bcc     1.2630    48.712    17.382    16.249  0.3502 -0.4299  0.8322
 
              Baa    -0.0477    -6.397    -2.283    -2.134  0.8638 -0.2965 -0.4074
     7 C(13)  Bbb    -0.0263    -3.536    -1.262    -1.179  0.4383  0.8410  0.3172
              Bcc     0.0740     9.933     3.544     3.313  0.2486 -0.4526  0.8564
 
              Baa    -0.0594    -7.976    -2.846    -2.660 -0.1541  0.5852  0.7961
     8 C(13)  Bbb    -0.0583    -7.822    -2.791    -2.609  0.9797  0.1951  0.0462
              Bcc     0.1177    15.798     5.637     5.270 -0.1283  0.7870 -0.6034
 
              Baa    -0.1562   -20.958    -7.478    -6.991  0.2046 -0.3312  0.9211
     9 C(13)  Bbb     0.0544     7.302     2.606     2.436  0.4081  0.8842  0.2272
              Bcc     0.1018    13.656     4.873     4.555  0.8897 -0.3295 -0.3161
 
              Baa    -0.5954    43.084    15.373    14.371  0.6916  0.5992  0.4033
    10 O(17)  Bbb    -0.5678    41.083    14.660    13.704  0.7169 -0.6373 -0.2827
              Bcc     1.1632   -84.167   -30.033   -28.075 -0.0876 -0.4846  0.8703
 
              Baa    -0.0683    -2.635    -0.940    -0.879  0.3704 -0.2752  0.8872
    11 N(14)  Bbb     0.0303     1.169     0.417     0.390  0.8173 -0.3574 -0.4520
              Bcc     0.0380     1.465     0.523     0.489  0.4414  0.8925  0.0926
 
              Baa    -0.0027    -0.362    -0.129    -0.121  0.5947 -0.3941  0.7007
    12 C(13)  Bbb    -0.0014    -0.188    -0.067    -0.063  0.7174 -0.1332 -0.6838
              Bcc     0.0041     0.550     0.196     0.183  0.3628  0.9094  0.2035
 
              Baa    -0.0046    -2.324    -0.829    -0.775  0.7819  0.2469  0.5724
    13 F(19)  Bbb    -0.0036    -1.809    -0.646    -0.603  0.1769  0.7926 -0.5835
              Bcc     0.0082     4.134     1.475     1.379  0.5977 -0.5575 -0.5761
 
              Baa    -0.0209   -10.500    -3.747    -3.502 -0.3145  0.4583  0.8313
    14 F(19)  Bbb    -0.0166    -8.349    -2.979    -2.785  0.7450 -0.4235  0.5153
              Bcc     0.0375    18.849     6.726     6.287  0.5882  0.7814 -0.2083
 
              Baa    -0.0024    -0.323    -0.115    -0.108  0.3149 -0.5646  0.7629
    15 C(13)  Bbb    -0.0004    -0.058    -0.021    -0.019 -0.5992  0.5052  0.6211
              Bcc     0.0028     0.381     0.136     0.127  0.7361  0.6527  0.1793
 
              Baa    -0.0010    -0.522    -0.186    -0.174  0.8712 -0.4904  0.0211
    16 F(19)  Bbb    -0.0001    -0.052    -0.019    -0.017  0.1282  0.2688  0.9546
              Bcc     0.0011     0.574     0.205     0.192  0.4739  0.8290 -0.2970
 
              Baa    -0.0041     0.297     0.106     0.099 -0.3013  0.9506  0.0745
    17 O(17)  Bbb    -0.0029     0.209     0.075     0.070 -0.1166 -0.1142  0.9866
              Bcc     0.0070    -0.506    -0.181    -0.169  0.9464  0.2886  0.1453
 
              Baa    -0.0011    -0.148    -0.053    -0.049  0.2340  0.8495 -0.4728
    18 C(13)  Bbb    -0.0010    -0.129    -0.046    -0.043 -0.3597  0.5275  0.7697
              Bcc     0.0021     0.277     0.099     0.092  0.9033 -0.0100  0.4290
 
              Baa    -0.0008    -0.393    -0.140    -0.131 -0.2033 -0.6849  0.6997
    19 F(19)  Bbb    -0.0007    -0.354    -0.126    -0.118 -0.2867  0.7250  0.6263
              Bcc     0.0015     0.748     0.267     0.249  0.9362  0.0733  0.3437
 
              Baa    -0.0010    -0.480    -0.171    -0.160  0.3039  0.9526 -0.0129
    20 F(19)  Bbb    -0.0009    -0.436    -0.156    -0.145 -0.3204  0.1150  0.9403
              Bcc     0.0018     0.916     0.327     0.306  0.8972 -0.2817  0.3402
 
              Baa    -0.0009    -0.460    -0.164    -0.153  0.4114  0.7537 -0.5126
    21 F(19)  Bbb    -0.0007    -0.365    -0.130    -0.122 -0.4445  0.6568  0.6091
              Bcc     0.0016     0.825     0.294     0.275  0.7958 -0.0228  0.6052
 
              Baa    -0.0012    -0.166    -0.059    -0.055 -0.2147 -0.4402  0.8718
    22 C(13)  Bbb    -0.0003    -0.044    -0.016    -0.015 -0.4696  0.8292  0.3031
              Bcc     0.0016     0.211     0.075     0.070  0.8563  0.3444  0.3848
 
              Baa    -0.0030    -1.484    -0.529    -0.495 -0.5423 -0.1853  0.8195
    23 F(19)  Bbb    -0.0005    -0.226    -0.081    -0.075  0.4304  0.7765  0.4603
              Bcc     0.0034     1.710     0.610     0.570  0.7216 -0.6023  0.3414
 
              Baa    -0.0007    -0.350    -0.125    -0.117 -0.2565 -0.5502  0.7947
    24 F(19)  Bbb    -0.0004    -0.187    -0.067    -0.062 -0.4287  0.8016  0.4166
              Bcc     0.0011     0.537     0.192     0.179  0.8663  0.2339  0.4415
 
              Baa    -0.0014    -0.691    -0.247    -0.231 -0.0782 -0.3899  0.9175
    25 F(19)  Bbb    -0.0006    -0.296    -0.106    -0.099 -0.2531  0.8979  0.3600
              Bcc     0.0020     0.987     0.352     0.329  0.9643  0.2041  0.1689
 
              Baa    -0.0496    -6.661    -2.377    -2.222  0.3439 -0.5152  0.7851
    26 C(13)  Bbb     0.0148     1.983     0.708     0.661  0.6816 -0.4381 -0.5860
              Bcc     0.0349     4.678     1.669     1.560  0.6458  0.7367  0.2005
 
              Baa    -0.1554    11.248     4.014     3.752  0.8211 -0.4450 -0.3575
    27 O(17)  Bbb    -0.1410    10.206     3.642     3.404  0.5496  0.7855  0.2845
              Bcc     0.2965   -21.454    -7.655    -7.156  0.1542 -0.4300  0.8895
 
              Baa    -0.0027    -1.449    -0.517    -0.483  0.8057  0.5419  0.2393
    28 H(1)   Bbb    -0.0013    -0.705    -0.252    -0.235  0.1110 -0.5349  0.8376
              Bcc     0.0040     2.155     0.769     0.719 -0.5819  0.6483  0.4911
 
              Baa    -0.0031    -1.680    -0.600    -0.560  0.3746  0.3116  0.8733
    29 H(1)   Bbb     0.0001     0.064     0.023     0.021  0.9204 -0.0108 -0.3909
              Bcc     0.0030     1.616     0.577     0.539 -0.1123  0.9501 -0.2909
 
              Baa    -0.0036    -1.945    -0.694    -0.649 -0.5700 -0.4310  0.6995
    30 H(1)   Bbb    -0.0001    -0.053    -0.019    -0.018  0.0959  0.8107  0.5776
              Bcc     0.0037     1.997     0.713     0.666  0.8160 -0.3963  0.4208
 
              Baa    -0.0045    -2.391    -0.853    -0.797  0.5283 -0.4700  0.7071
    31 H(1)   Bbb    -0.0006    -0.339    -0.121    -0.113  0.3009  0.8824  0.3617
              Bcc     0.0051     2.729     0.974     0.910  0.7940 -0.0217 -0.6076
 
              Baa    -0.0036    -1.901    -0.678    -0.634  0.3798 -0.6263  0.6808
    32 H(1)   Bbb    -0.0009    -0.463    -0.165    -0.154  0.9194  0.1742 -0.3526
              Bcc     0.0044     2.364     0.844     0.789  0.1023  0.7598  0.6420
 
              Baa    -0.0110    -5.851    -2.088    -1.952  0.1372 -0.6679  0.7315
    33 H(1)   Bbb    -0.0008    -0.453    -0.161    -0.151  0.9332  0.3348  0.1307
              Bcc     0.0118     6.304     2.249     2.103 -0.3322  0.6647  0.6692
 
              Baa    -0.0098    -5.225    -1.864    -1.743  0.1202 -0.5844  0.8025
    34 H(1)   Bbb    -0.0046    -2.445    -0.872    -0.816 -0.3037  0.7479  0.5902
              Bcc     0.0144     7.670     2.737     2.558  0.9452  0.3147  0.0876
 
              Baa    -0.0090    -4.814    -1.718    -1.606  0.8773  0.1290  0.4622
    35 H(1)   Bbb    -0.0014    -0.773    -0.276    -0.258 -0.2646  0.9336  0.2415
              Bcc     0.0105     5.587     1.994     1.864 -0.4004 -0.3342  0.8532
 
              Baa    -0.0080    -4.255    -1.518    -1.419  0.8648 -0.2583 -0.4306
    36 H(1)   Bbb    -0.0031    -1.654    -0.590    -0.552  0.3239 -0.3684  0.8714
              Bcc     0.0111     5.909     2.108     1.971  0.3837  0.8931  0.2349
 
              Baa    -0.0100    -5.335    -1.904    -1.780 -0.0786  0.4705  0.8789
    37 H(1)   Bbb     0.0028     1.493     0.533     0.498  0.7934  0.5633 -0.2306
              Bcc     0.0072     3.842     1.371     1.282 -0.6036  0.6792 -0.4176
 

 ---------------------------------------------------------------------------------

 No NMR shielding tensors so no spin-rotation constants.
 Leave Link  601 at Sun Mar  3 18:11:35 2024, MaxMem=  5368709120 cpu:         5.7
 (Enter /home/k0335/k033513/app/g09/l9999.exe)
 1\1\GINC-C24U17N2\SP\UCAM-B3LYP\6-31G(d,p)\C11H10F9N3O4(1+,2)\K033513\
 03-Mar-2024\0\\#p CAM-B3LYP/6-31G(d,p) SCRF=(PCM,Solvent=Generic,Read)
  NoSymm out=wfn\\Title A230421840_p1\\1,2\C,0,-3.25263,2.87147,0.31301
 7\C,0,-2.49021,1.864303,1.162439\N,0,-1.673308,0.97339,0.337985\C,0,-2
 .246554,-0.193835,-0.121018\O,0,-3.417865,-0.487873,0.121302\N,0,-1.41
 9133,-1.020852,-0.851165\C,0,-1.938041,-2.32582,-1.260423\C,0,-1.74252
 7,-3.377205,-0.176566\C,0,-0.094986,-0.731811,-1.109103\O,0,0.662591,-
 1.585512,-1.567233\N,0,0.324934,0.539477,-0.80599\C,0,1.689955,0.91411
 3,-1.156462\F,0,1.774028,2.265944,-1.334069\F,0,1.928091,0.44221,-2.42
 6762\C,0,2.861123,0.433577,-0.25314\F,0,4.028866,0.799691,-0.876404\O,
 0,2.876645,-0.99606,-0.198922\C,0,3.853827,-1.525721,0.654121\F,0,5.01
 3299,-0.85828,0.558825\F,0,4.06308,-2.813998,0.326271\F,0,3.39552,-1.4
 77184,1.917265\C,0,2.77223,1.15395,1.093546\F,0,1.689538,0.737391,1.79
 2819\F,0,3.850441,0.890513,1.87171\F,0,2.716758,2.49445,0.977295\C,0,-
 0.39553,1.370933,0.010146\O,0,0.083583,2.412104,0.456379\H,0,-3.85636,
 3.525516,0.949554\H,0,-2.566874,3.496948,-0.267739\H,0,-3.92157,2.3667
 97,-0.391651\H,0,-3.199744,1.273884,1.753194\H,0,-1.850711,2.397905,1.
 874632\H,0,-1.433756,-2.648992,-2.178345\H,0,-3.004831,-2.238819,-1.49
 589\H,0,-2.261156,-3.095102,0.745449\H,0,-2.136663,-4.342494,-0.50875\
 H,0,-0.682062,-3.505004,0.063679\\Version=ES64L-G09RevD.01\HF=-1788.08
 5382\S2=0.776917\S2-1=0.\S2A=0.750414\RMSD=8.043e-09\Dipole=-5.0020367
 ,-1.5392683,-0.8003953\Quadrupole=0.5213404,4.6875868,-5.2089272,0.640
 106,2.8472181,4.8107468\PG=C01 [X(C11H10F9N3O4)]\\@

 Writing a WFN file to "A230421840/A230421840_p1.wfn"


 THE CAUTIOUS SELDOM ERR...CONFUCIUS                   
 Job cpu time:       0 days  0 hours 49 minutes 51.9 seconds.
 File lengths (MBytes):  RWF=    332 Int=      0 D2E=      0 Chk=     12 Scr=      1
 Normal termination of Gaussian 09 at Sun Mar  3 18:11:35 2024.
