 Entering Gaussian System, Link 0=g09
 Initial command:
 /home/k0335/k033513/app/g09/l1.exe "/home/k0335/k033513/app/g09/scratch/Gau-527964.inp" -scrdir="/home/k0335/k033513/app/g09/scratch/"
 Default is to use a total of  36 processors:
                               36 via shared-memory
                                1 via Linda
 Entering Link 1 = /home/k0335/k033513/app/g09/l1.exe PID=    527965.
  
 Copyright (c) 1988,1990,1992,1993,1995,1998,2003,2009,2013,
            Gaussian, Inc.  All Rights Reserved.
  
 This is part of the Gaussian(R) 09 program.  It is based on
 the Gaussian(R) 03 system (copyright 2003, Gaussian, Inc.),
 the Gaussian(R) 98 system (copyright 1998, Gaussian, Inc.),
 the Gaussian(R) 94 system (copyright 1995, Gaussian, Inc.),
 the Gaussian 92(TM) system (copyright 1992, Gaussian, Inc.),
 the Gaussian 90(TM) system (copyright 1990, Gaussian, Inc.),
 the Gaussian 88(TM) system (copyright 1988, Gaussian, Inc.),
 the Gaussian 86(TM) system (copyright 1986, Carnegie Mellon
 University), and the Gaussian 82(TM) system (copyright 1983,
 Carnegie Mellon University). Gaussian is a federally registered
 trademark of Gaussian, Inc.
  
 This software contains proprietary and confidential information,
 including trade secrets, belonging to Gaussian, Inc.
  
 This software is provided under written license and may be
 used, copied, transmitted, or stored only in accord with that
 written license.
  
 The following legend is applicable only to US Government
 contracts under FAR:
  
                    RESTRICTED RIGHTS LEGEND
  
 Use, reproduction and disclosure by the US Government is
 subject to restrictions as set forth in subparagraphs (a)
 and (c) of the Commercial Computer Software - Restricted
 Rights clause in FAR 52.227-19.
  
 Gaussian, Inc.
 340 Quinnipiac St., Bldg. 40, Wallingford CT 06492
  
  
 ---------------------------------------------------------------
 Warning -- This program may not be used in any manner that
 competes with the business of Gaussian, Inc. or will provide
 assistance to any competitor of Gaussian, Inc.  The licensee
 of this program is prohibited from giving any competitor of
 Gaussian, Inc. access to this program.  By using this program,
 the user acknowledges that Gaussian, Inc. is engaged in the
 business of creating and licensing software in the field of
 computational chemistry and represents and warrants to the
 licensee that it is not a competitor of Gaussian, Inc. and that
 it will not use this program in any manner prohibited above.
 ---------------------------------------------------------------
  

 Cite this work as:
 Gaussian 09, Revision D.01,
 M. J. Frisch, G. W. Trucks, H. B. Schlegel, G. E. Scuseria, 
 M. A. Robb, J. R. Cheeseman, G. Scalmani, V. Barone, B. Mennucci, 
 G. A. Petersson, H. Nakatsuji, M. Caricato, X. Li, H. P. Hratchian, 
 A. F. Izmaylov, J. Bloino, G. Zheng, J. L. Sonnenberg, M. Hada, 
 M. Ehara, K. Toyota, R. Fukuda, J. Hasegawa, M. Ishida, T. Nakajima, 
 Y. Honda, O. Kitao, H. Nakai, T. Vreven, J. A. Montgomery, Jr., 
 J. E. Peralta, F. Ogliaro, M. Bearpark, J. J. Heyd, E. Brothers, 
 K. N. Kudin, V. N. Staroverov, T. Keith, R. Kobayashi, J. Normand, 
 K. Raghavachari, A. Rendell, J. C. Burant, S. S. Iyengar, J. Tomasi, 
 M. Cossi, N. Rega, J. M. Millam, M. Klene, J. E. Knox, J. B. Cross, 
 V. Bakken, C. Adamo, J. Jaramillo, R. Gomperts, R. E. Stratmann, 
 O. Yazyev, A. J. Austin, R. Cammi, C. Pomelli, J. W. Ochterski, 
 R. L. Martin, K. Morokuma, V. G. Zakrzewski, G. A. Voth, 
 P. Salvador, J. J. Dannenberg, S. Dapprich, A. D. Daniels, 
 O. Farkas, J. B. Foresman, J. V. Ortiz, J. Cioslowski, 
 and D. J. Fox, Gaussian, Inc., Wallingford CT, 2013.
 
 ******************************************
 Gaussian 09:  ES64L-G09RevD.01 24-Apr-2013
                 3-Mar-2024 
 ******************************************
 %nprocshared=24
 Will use up to   24 processors via shared memory.
 %mem=40GB
 %rwf=A904173280/A904173280_0.rwf
 %nosave
 %chk=A904173280/A904173280_0.chk
 ----------------------------------------------------------------------
 #p CAM-B3LYP/6-31G(d,p) SCRF=(PCM,Solvent=Generic,Read) NoSymm out=wfn
 ----------------------------------------------------------------------
 1/38=1,40=2/1;
 2/12=2,15=1,17=6,18=5,40=1/2;
 3/5=1,6=6,7=101,11=2,16=1,25=1,30=1,70=2203,72=-2,74=-40/1,2,3;
 4//1;
 5/5=2,38=5/2;
 6/7=2,8=2,9=2,10=2,28=1/1;
 99/5=1,6=100,9=1/99;
 Leave Link    1 at Sun Mar  3 17:55:01 2024, MaxMem=  5368709120 cpu:         1.6
 (Enter /home/k0335/k033513/app/g09/l101.exe)
 ------------------
 Title A904173280_0
 ------------------
 Symbolic Z-matrix:
 Charge =  0 Multiplicity = 1
 O                    -3.97731   0.90898   0.18824 
 C                    -2.83526   0.50686  -0.03212 
 N                    -2.07115   1.00249  -1.06148 
 C                    -2.57866   2.14061  -1.78631 
 F                    -2.22615   3.26935  -1.11361 
 C                    -0.79767   0.56889  -1.34344 
 O                    -0.0867    1.14864  -2.16179 
 N                    -0.36483  -0.53477  -0.6506 
 C                     0.98493  -1.01062  -0.92274 
 F                     1.07048  -2.32367  -0.56013 
 F                     1.16358  -1.04985  -2.27488 
 C                     2.12395  -0.20109  -0.24989 
 F                     2.14079   1.06376  -0.76304 
 O                     1.8378   -0.03601   1.14401 
 C                     2.92238   0.46844   1.87707 
 F                     3.50699   1.49114   1.23558 
 F                     3.81009  -0.51483   2.09267 
 F                     2.46443   0.90661   3.06454 
 C                     3.41986  -0.93408  -0.62481 
 F                     3.55923  -1.11097  -1.95655 
 F                     4.5145   -0.24441  -0.22072 
 F                     3.49639  -2.15276  -0.04463 
 C                    -0.96608  -0.93643   0.51823 
 O                    -0.39965  -1.66138   1.33505 
 N                    -2.23073  -0.44838   0.74922 
 C                    -2.97595  -0.98582   1.86079 
 F                    -3.65015  -2.08627   1.42978 
 H                    -3.6697    2.11792  -1.86239 
 H                    -2.15713   2.19955  -2.79412 
 H                    -3.70759  -0.2701    2.24676 
 H                    -2.32069  -1.29183   2.68132 
 
 NAtoms=     31 NQM=       31 NQMF=       0 NMMI=      0 NMMIF=      0
                NMic=       0 NMicF=      0.
                    Isotopes and Nuclear Properties:
 (Nuclear quadrupole moments (NQMom) in fm**2, nuclear magnetic moments (NMagM)
  in nuclear magnetons)

  Atom         1           2           3           4           5           6           7           8           9          10
 IAtWgt=          16          12          14          12          19          12          16          14          12          19
 AtmWgt=  15.9949146  12.0000000  14.0030740  12.0000000  18.9984033  12.0000000  15.9949146  14.0030740  12.0000000  18.9984033
 NucSpn=           0           0           2           0           1           0           0           2           0           1
 AtZEff=   0.0000000   0.0000000   0.0000000   0.0000000   0.0000000   0.0000000   0.0000000   0.0000000   0.0000000   0.0000000
 NQMom=    0.0000000   0.0000000   2.0440000   0.0000000   0.0000000   0.0000000   0.0000000   2.0440000   0.0000000   0.0000000
 NMagM=    0.0000000   0.0000000   0.4037610   0.0000000   2.6288670   0.0000000   0.0000000   0.4037610   0.0000000   2.6288670
 AtZNuc=   8.0000000   6.0000000   7.0000000   6.0000000   9.0000000   6.0000000   8.0000000   7.0000000   6.0000000   9.0000000

  Atom        11          12          13          14          15          16          17          18          19          20
 IAtWgt=          19          12          19          16          12          19          19          19          12          19
 AtmWgt=  18.9984033  12.0000000  18.9984033  15.9949146  12.0000000  18.9984033  18.9984033  18.9984033  12.0000000  18.9984033
 NucSpn=           1           0           1           0           0           1           1           1           0           1
 AtZEff=   0.0000000   0.0000000   0.0000000   0.0000000   0.0000000   0.0000000   0.0000000   0.0000000   0.0000000   0.0000000
 NQMom=    0.0000000   0.0000000   0.0000000   0.0000000   0.0000000   0.0000000   0.0000000   0.0000000   0.0000000   0.0000000
 NMagM=    2.6288670   0.0000000   2.6288670   0.0000000   0.0000000   2.6288670   2.6288670   2.6288670   0.0000000   2.6288670
 AtZNuc=   9.0000000   6.0000000   9.0000000   8.0000000   6.0000000   9.0000000   9.0000000   9.0000000   6.0000000   9.0000000

  Atom        21          22          23          24          25          26          27          28          29          30
 IAtWgt=          19          19          12          16          14          12          19           1           1           1
 AtmWgt=  18.9984033  18.9984033  12.0000000  15.9949146  14.0030740  12.0000000  18.9984033   1.0078250   1.0078250   1.0078250
 NucSpn=           1           1           0           0           2           0           1           1           1           1
 AtZEff=   0.0000000   0.0000000   0.0000000   0.0000000   0.0000000   0.0000000   0.0000000   0.0000000   0.0000000   0.0000000
 NQMom=    0.0000000   0.0000000   0.0000000   0.0000000   2.0440000   0.0000000   0.0000000   0.0000000   0.0000000   0.0000000
 NMagM=    2.6288670   2.6288670   0.0000000   0.0000000   0.4037610   0.0000000   2.6288670   2.7928460   2.7928460   2.7928460
 AtZNuc=   9.0000000   9.0000000   6.0000000   8.0000000   7.0000000   6.0000000   9.0000000   1.0000000   1.0000000   1.0000000

  Atom        31
 IAtWgt=           1
 AtmWgt=   1.0078250
 NucSpn=           1
 AtZEff=   0.0000000
 NQMom=    0.0000000
 NMagM=    2.7928460
 AtZNuc=   1.0000000
 Leave Link  101 at Sun Mar  3 17:55:01 2024, MaxMem=  5368709120 cpu:         0.7
 (Enter /home/k0335/k033513/app/g09/l202.exe)
                          Input orientation:                          
 ---------------------------------------------------------------------
 Center     Atomic      Atomic             Coordinates (Angstroms)
 Number     Number       Type             X           Y           Z
 ---------------------------------------------------------------------
      1          8           0       -3.977314    0.908981    0.188241
      2          6           0       -2.835263    0.506861   -0.032119
      3          7           0       -2.071153    1.002492   -1.061482
      4          6           0       -2.578660    2.140613   -1.786309
      5          9           0       -2.226147    3.269353   -1.113610
      6          6           0       -0.797672    0.568888   -1.343436
      7          8           0       -0.086695    1.148642   -2.161794
      8          7           0       -0.364827   -0.534769   -0.650603
      9          6           0        0.984927   -1.010622   -0.922741
     10          9           0        1.070478   -2.323670   -0.560134
     11          9           0        1.163581   -1.049849   -2.274880
     12          6           0        2.123948   -0.201093   -0.249885
     13          9           0        2.140792    1.063756   -0.763038
     14          8           0        1.837795   -0.036007    1.144014
     15          6           0        2.922380    0.468443    1.877068
     16          9           0        3.506987    1.491144    1.235581
     17          9           0        3.810087   -0.514827    2.092666
     18          9           0        2.464435    0.906606    3.064537
     19          6           0        3.419858   -0.934078   -0.624810
     20          9           0        3.559234   -1.110967   -1.956551
     21          9           0        4.514505   -0.244405   -0.220722
     22          9           0        3.496387   -2.152763   -0.044633
     23          6           0       -0.966078   -0.936425    0.518233
     24          8           0       -0.399649   -1.661380    1.335048
     25          7           0       -2.230729   -0.448375    0.749221
     26          6           0       -2.975949   -0.985820    1.860789
     27          9           0       -3.650151   -2.086268    1.429780
     28          1           0       -3.669703    2.117919   -1.862387
     29          1           0       -2.157132    2.199547   -2.794117
     30          1           0       -3.707586   -0.270101    2.246758
     31          1           0       -2.320687   -1.291825    2.681316
 ---------------------------------------------------------------------
                    Distance matrix (angstroms):
                    1          2          3          4          5
     1  O    0.000000
     2  C    1.230666   0.000000
     3  N    2.281228   1.374446   0.000000
     4  C    2.715142   2.410845   1.441616   0.000000
     5  F    3.214461   3.028532   2.272751   1.360457   0.000000
     6  C    3.545676   2.423876   1.374505   2.416273   3.063637
     7  O    4.551595   3.535820   2.273790   2.708299   3.189570
     8  N    3.979716   2.751467   2.333140   3.653567   4.260309
     9  C    5.435347   4.205926   3.662172   4.834789   5.354028
    10  F    6.040720   4.852372   4.602668   5.894874   6.515825
    11  F    6.027668   4.841908   4.018450   4.941874   5.611979
    12  C    6.216882   5.014219   4.439164   5.473455   5.631460
    13  F    6.193554   5.060188   4.222950   4.947720   4.904866
    14  O    5.968417   4.849275   4.606796   5.729707   5.704200
    15  C    7.117021   6.066047   5.818561   6.817472   6.580014
    16  F    7.579617   6.542172   6.052349   6.825594   6.445894
    17  F    8.142339   7.051187   6.843967   7.931828   7.812576
    18  F    7.054730   6.151087   6.132274   7.105370   6.711263
    19  C    7.666555   6.446249   5.838852   6.839958   7.055858
    20  F    8.091964   6.870982   6.080223   6.948057   7.305367
    21  F    8.579542   7.390471   6.755185   7.645415   7.653766
    22  F    8.079896   6.867572   6.479747   7.640203   7.955467
    23  C    3.547106   2.424833   2.734244   4.168872   4.683936
    24  O    4.552099   3.535906   3.953922   5.380159   5.800358
    25  N    2.282033   1.374201   2.325753   3.640443   4.158324
    26  C    2.718533   2.414744   3.648521   4.820140   5.245546
    27  F    3.258830   3.086342   4.270838   5.418288   6.097483
    28  H    2.400256   2.577146   2.107365   1.093928   1.992566
    29  H    3.724659   3.309634   2.107690   1.094000   1.993327
    30  H    2.387568   2.560839   3.904082   4.832354   5.100438
    31  H    3.715290   3.295875   4.397123   5.639845   5.934201
                    6          7          8          9         10
     6  C    0.000000
     7  O    1.229355   0.000000
     8  N    1.373110   2.279239   0.000000
     9  C    2.418573   2.710359   1.456822   0.000000
    10  F    3.531351   3.995161   2.295311   1.364880   0.000000
    11  F    2.708212   2.531668   2.289020   1.364454   2.138140
    12  C    3.213190   3.219336   2.542816   1.550948   2.389851
    13  F    3.035840   2.631620   2.974231   2.380036   3.558286
    14  O    3.674097   4.004425   2.884607   2.439003   2.954031
    15  C    4.921435   5.082284   4.266296   3.712181   4.143114
    16  F    5.102154   4.957218   4.759512   4.156678   4.869700
    17  F    5.849160   6.004371   4.995581   4.161733   4.220749
    18  F    5.494144   5.820772   4.887182   4.665093   5.051340
    19  C    4.534632   4.358435   3.805779   2.454284   2.730336
    20  F    4.709613   4.294270   4.175615   2.775948   3.100731
    21  F    5.490096   5.184533   4.906831   3.679380   4.037309
    22  F    5.247210   5.312262   4.230139   2.895340   2.485958
    23  C    2.400029   3.507615   1.374412   2.426589   2.689774
    24  O    3.508104   4.496895   2.283260   2.727297   2.488296
    25  N    2.732707   3.952386   2.334215   3.667700   4.016106
    26  C    4.174813   5.393041   3.650821   4.841197   4.901457
    27  F    4.783013   6.005187   4.186705   5.308043   5.128397
    28  H    3.304144   3.723854   4.407650   5.686500   6.625171
    29  H    2.571314   2.406438   3.909411   4.866186   5.988960
    30  H    4.696913   5.878692   4.431567   5.710847   5.909796
    31  H    4.688332   5.865349   3.937030   4.898509   4.803301
                   11         12         13         14         15
    11  F    0.000000
    12  C    2.396518   0.000000
    13  F    2.776317   1.365083   0.000000
    14  O    3.629225   1.432512   2.222191   0.000000
    15  C    4.757863   2.368481   2.816991   1.402912   0.000000
    16  F    4.926615   2.642550   2.458379   2.264239   1.341338
    17  F    5.134754   2.903281   3.665176   2.240345   1.342135
    18  F    5.833465   3.511171   3.844447   2.229261   1.346025
    19  C    2.797663   1.535324   2.376228   2.537359   2.911004
    20  F    2.417483   2.408449   2.857599   3.705725   4.194848
    21  F    4.012106   2.391127   2.764038   3.011762   2.728321
    22  F    3.410631   2.394730   3.563669   2.940147   3.300476
    23  C    3.514227   3.267871   3.910885   3.010657   4.352033
    24  O    3.981110   3.318583   4.275766   2.772091   3.983191
    25  N    4.585662   4.474659   4.866586   4.108381   5.354169
    26  C    5.851800   5.574916   6.104610   4.958633   6.074984
    27  F    6.162036   6.302014   6.947382   5.865389   7.065747
    28  H    5.793577   6.445492   6.006803   6.634032   7.756278
    29  H    4.674967   5.528457   4.887479   6.038710   7.114642
    30  H    6.691897   6.343877   6.711302   5.658807   6.681210
    31  H    6.063213   5.434742   6.108775   4.607966   5.588838
                   16         17         18         19         20
    16  F    0.000000
    17  F    2.202359   0.000000
    18  F    2.184875   2.185357   0.000000
    19  C    3.057834   2.777179   4.232284   0.000000
    20  F    4.118667   4.100545   5.520916   1.350648   0.000000
    21  F    2.479524   2.433330   4.039869   1.355429   2.162539
    22  F    3.862269   2.710957   4.482366   1.351908   2.178238
    23  C    5.139649   5.046616   4.652832   4.532437   5.160762
    24  O    5.020967   4.428368   4.217661   4.354153   5.177870
    25  N    6.076155   6.188757   5.407516   5.835495   6.425255
    26  C    6.968120   6.806312   5.884561   6.862013   7.569436
    27  F    8.003763   7.652712   7.001278   7.452108   8.024567
    28  H    7.841883   8.861211   7.960497   7.817171   7.917834
    29  H    6.987313   8.176563   7.573269   6.754873   6.658668
    30  H    7.494967   7.523234   6.336185   7.712796   8.436915
    31  H    6.617919   6.207787   5.279901   6.634177   7.491061
                   21         22         23         24         25
    21  F    0.000000
    22  F    2.170116   0.000000
    23  C    5.573306   4.659387   0.000000
    24  O    5.345760   4.162220   1.230280   0.000000
    25  N    6.817666   6.027852   1.375097   2.273198   0.000000
    26  C    7.809564   6.847154   2.417536   2.714794   1.442145
    27  F    8.531015   7.297350   3.058971   3.279522   2.271698
    28  H    8.675073   8.537904   4.722918   5.932954   3.934083
    29  H    7.556851   7.646211   4.714297   5.919925   4.424042
    30  H    8.584399   7.790514   3.308724   3.702610   2.110807
    31  H    7.499251   6.481540   2.576859   2.374741   2.110093
                   26         27         28         29         30
    26  C    0.000000
    27  F    1.360626   0.000000
    28  H    4.896583   5.339844   0.000000
    29  H    5.699577   6.199889   1.778385   0.000000
    30  H    1.093855   1.992289   4.752804   5.823529   0.000000
    31  H    1.093742   1.991220   5.838787   6.495906   1.776584
                   31
    31  H    0.000000
 Symmetry turned off by external request.
 Stoichiometry    C9H4F11N3O4
 Framework group  C1[X(C9H4F11N3O4)]
 Deg. of freedom    87
 Full point group                 C1      NOp   1
 Rotational constants (GHZ):      0.3047336      0.1374415      0.1298253
 Leave Link  202 at Sun Mar  3 17:55:01 2024, MaxMem=  5368709120 cpu:         0.1
 (Enter /home/k0335/k033513/app/g09/l301.exe)
 Standard basis: 6-31G(d,p) (6D, 7F)
 Ernie: Thresh=  0.10000D-02 Tol=  0.10000D-05 Strict=F.
   425 basis functions,   784 primitive gaussians,   425 cartesian basis functions
   105 alpha electrons      105 beta electrons
       nuclear repulsion energy      3187.4144994982 Hartrees.
 IExCor=20419 DFT=T Ex+Corr=CAM-B3LYP ExCW=0 ScaHFX=  1.000000
 ScaDFX=  1.000000  1.000000  1.000000  0.810000 ScalE2=  1.000000  1.000000
 IRadAn=      0 IRanWt=     -1 IRanGd=            0 ICorTp=0 IEmpDi=  4
  HFx wShort=  0.000000 wLong=  0.330000 cFull=  0.190000 cShort=  0.000000 cLong=  0.460000
  DFx wShort=  0.000000 wLong=  0.330000 cFull=  0.190000 cShort=  0.000000 cLong=  0.460000
 NAtoms=   31 NActive=   31 NUniq=   31 SFac= 1.00D+00 NAtFMM=   60 NAOKFM=F Big=F
 Integral buffers will be    131072 words long.
 Raffenetti 2 integral format.
 Two-electron integral symmetry is turned off.
 Using the following non-standard input for PCM:
 eps=4.9
 --- end of non-standard input.
 ------------------------------------------------------------------------------
 Polarizable Continuum Model (PCM)
 =================================
 Model                : PCM (using non-symmetric T matrix).
 Atomic radii         : UFF (Universal Force Field).
 Polarization charges : Total charges.
 Charge compensation  : None.
 Solution method      : On-the-fly selection.
 Cavity type          : Scaled VdW (van der Waals Surface) (Alpha=1.100).
 Cavity algorithm     : GePol (No added spheres)
                        Default sphere list used, NSphG=   31.
                        Lebedev-Laikov grids with approx.  5.0 points / Ang**2.
                        Smoothing algorithm: Karplus/York (Gamma=1.0000).
                        Polarization charges: spherical gaussians, with
                                              point-specific exponents (IZeta= 3).
                        Self-potential: point-specific (ISelfS= 7).
                        Self-field    : sphere-specific E.n sum rule (ISelfD= 2).
 Solvent              : Generic,
                        Eps                           =   4.900000
                        Eps(infinity)                 =   0.000000
                        RSolv                         =   0.000000 Ang.
                        Molar volume                  =   0.000000 cm**3/mol
                        Thermal expansion coefficient =   0.000000 K**-1
                        Absolute temperature          = 298.150000 K
                        Numeral density               =   0.000000 Ang**-3
                        Hydrogen bond acidity         =   0.000000
                        Hydrogen bond basicity        =   0.000000
                        Surface tension at interface  =   0.000000 (cal/mol)*Ang**-2
                        Carbon aromaticity            =   0.000000
                        Electronegative halogenicity  =   0.000000
 ------------------------------------------------------------------------------
 GePol: Number of generator spheres                  =      31
 GePol: Total number of spheres                      =      31
 GePol: Number of exposed spheres                    =      31 (100.00%)
 GePol: Number of points                             =    2658
 GePol: Average weight of points                     =       0.13
 GePol: Minimum weight of points                     =   0.73D-10
 GePol: Maximum weight of points                     =    0.20577
 GePol: Number of points with low weight             =     129
 GePol: Fraction of low-weight points (<1% of avg)   =       4.85%
 GePol: Cavity surface area                          =    337.139 Ang**2
 GePol: Cavity volume                                =    375.676 Ang**3
 Leave Link  301 at Sun Mar  3 17:55:01 2024, MaxMem=  5368709120 cpu:         0.7
 (Enter /home/k0335/k033513/app/g09/l302.exe)
 NPDir=0 NMtPBC=     1 NCelOv=     1 NCel=       1 NClECP=     1 NCelD=      1
         NCelK=      1 NCelE2=     1 NClLst=     1 CellRange=     0.0.
 One-electron integrals computed using PRISM.
 NBasis=   425 RedAO= T EigKep=  1.23D-03  NBF=   425
 NBsUse=   425 1.00D-06 EigRej= -1.00D+00 NBFU=   425
 Precomputing XC quadrature grid using
 IXCGrd= 4 IRadAn=           0 IRanWt=          -1 IRanGd=           0 AccXCQ= 0.00D+00.
 Generated NRdTot=       0 NPtTot=           0 NUsed=           0 NTot=          32
 NSgBfM=   417   418   418   418   418 MxSgAt=    31 MxSgA2=    31.
 Leave Link  302 at Sun Mar  3 17:55:01 2024, MaxMem=  5368709120 cpu:         6.1
 (Enter /home/k0335/k033513/app/g09/l303.exe)
 DipDrv:  MaxL=1.
 Leave Link  303 at Sun Mar  3 17:55:01 2024, MaxMem=  5368709120 cpu:         0.6
 (Enter /home/k0335/k033513/app/g09/l401.exe)
 ExpMin= 1.61D-01 ExpMax= 7.00D+03 ExpMxC= 1.05D+03 IAcc=1 IRadAn=         1 AccDes= 0.00D+00
 Harris functional with IExCor=20419 and IRadAn=       1 diagonalized for initial guess.
 HarFok:  IExCor=20419 AccDes= 0.00D+00 IRadAn=         1 IDoV= 1 UseB2=F ITyADJ=14
 ICtDFT=  3500011 ScaDFX=  1.000000  1.000000  1.000000  1.000000
 FoFCou: FMM=F IPFlag=           0 FMFlag=      100000 FMFlg1=           0
         NFxFlg=           0 DoJE=T BraDBF=F KetDBF=T FulRan=T
         wScrn=  0.000000 ICntrl=     500 IOpCl=  0 I1Cent=   200000004 NGrid=           0
         NMat0=    1 NMatS0=      1 NMatT0=    0 NMatD0=    1 NMtDS0=    0 NMtDT0=    0
 Symmetry not used in FoFCou.
 Harris En= -1850.32492858640    
 JPrj=0 DoOrth=F DoCkMO=F.
 Leave Link  401 at Sun Mar  3 17:55:02 2024, MaxMem=  5368709120 cpu:         7.1
 (Enter /home/k0335/k033513/app/g09/l502.exe)
 Closed shell SCF:
 Using DIIS extrapolation, IDIIS=  1040.
 Two-electron integral symmetry not used.
 IVT=      573237 IEndB=      573237 NGot=  5368709120 MDV=  5368333574
 LenX=  5368333574 LenY=  5368152508
 Requested convergence on RMS density matrix=1.00D-08 within 128 cycles.
 Requested convergence on MAX density matrix=1.00D-06.
 Requested convergence on             energy=1.00D-06.
 No special actions if energy rises.
 Fock matrices will be formed incrementally for  20 cycles.

 Cycle   1  Pass 1  IDiag  1:
 FoFJK:  IHMeth= 1 ICntrl=       0 DoSepK=T KAlg= 0 I1Cent=   0 FoldK=F
 IRaf=         1 NMat=   1 IRICut=       1 DoRegI=T DoRafI=F ISym2E= 0.
 FoFCou: FMM=F IPFlag=           0 FMFlag=      100000 FMFlg1=           0
         NFxFlg=           0 DoJE=T BraDBF=F KetDBF=F FulRan=T
         wScrn=  0.000000 ICntrl=     500 IOpCl=  0 I1Cent=           0 NGrid=           0
         NMat0=    1 NMatS0=      1 NMatT0=    0 NMatD0=    1 NMtDS0=    0 NMtDT0=    0
 Symmetry not used in FoFCou.
 Inv3:  Mode=1 IEnd=    21194892.
 Iteration    1 A*A^-1 deviation from unit magnitude is 8.66D-15 for    673.
 Iteration    1 A*A^-1 deviation from orthogonality  is 4.18D-15 for   2455   2295.
 Iteration    1 A^-1*A deviation from unit magnitude is 7.22D-15 for    536.
 Iteration    1 A^-1*A deviation from orthogonality  is 7.38D-14 for   2416   2358.
 E= -1907.62008659338    
 DIIS: error= 4.87D-02 at cycle   1 NSaved=   1.
 NSaved= 1 IEnMin= 1 EnMin= -1907.62008659338     IErMin= 1 ErrMin= 4.87D-02
 ErrMax= 4.87D-02  0.00D+00 EMaxC= 1.00D-01 BMatC= 1.55D+00 BMatP= 1.55D+00
 IDIUse=3 WtCom= 5.13D-01 WtEn= 4.87D-01
 Coeff-Com:  0.100D+01
 Coeff-En:   0.100D+01
 Coeff:      0.100D+01
 Gap=     0.452 Goal=   None    Shift=    0.000
 GapD=    0.452 DampG=2.000 DampE=0.500 DampFc=1.0000 IDamp=-1.
 RMSDP=3.60D-03 MaxDP=1.15D-01              OVMax= 2.05D-01

 Cycle   2  Pass 1  IDiag  1:
 RMSU=  3.60D-03    CP:  1.01D+00
 E= -1907.79125143752     Delta-E=       -0.171164844140 Rises=F Damp=F
 DIIS: error= 2.83D-02 at cycle   2 NSaved=   2.
 NSaved= 2 IEnMin= 2 EnMin= -1907.79125143752     IErMin= 2 ErrMin= 2.83D-02
 ErrMax= 2.83D-02  0.00D+00 EMaxC= 1.00D-01 BMatC= 6.75D-01 BMatP= 1.55D+00
 IDIUse=3 WtCom= 7.17D-01 WtEn= 2.83D-01
 Coeff-Com:  0.378D+00 0.622D+00
 Coeff-En:   0.399D+00 0.601D+00
 Coeff:      0.384D+00 0.616D+00
 Gap=     0.409 Goal=   None    Shift=    0.000
 RMSDP=1.98D-03 MaxDP=1.02D-01 DE=-1.71D-01 OVMax= 1.31D-01

 Cycle   3  Pass 1  IDiag  1:
 RMSU=  1.23D-03    CP:  1.00D+00  5.68D-01
 E= -1908.11224281929     Delta-E=       -0.320991381769 Rises=F Damp=F
 DIIS: error= 1.51D-02 at cycle   3 NSaved=   3.
 NSaved= 3 IEnMin= 3 EnMin= -1908.11224281929     IErMin= 3 ErrMin= 1.51D-02
 ErrMax= 1.51D-02  0.00D+00 EMaxC= 1.00D-01 BMatC= 1.64D-01 BMatP= 6.75D-01
 IDIUse=3 WtCom= 8.49D-01 WtEn= 1.51D-01
 Coeff-Com:  0.112D+00 0.344D+00 0.545D+00
 Coeff-En:   0.000D+00 0.198D+00 0.802D+00
 Coeff:      0.947D-01 0.322D+00 0.584D+00
 Gap=     0.396 Goal=   None    Shift=    0.000
 RMSDP=9.23D-04 MaxDP=5.68D-02 DE=-3.21D-01 OVMax= 8.29D-02

 Cycle   4  Pass 1  IDiag  1:
 RMSU=  3.89D-04    CP:  1.00D+00  6.88D-01  4.17D-01
 E= -1908.21482513922     Delta-E=       -0.102582319930 Rises=F Damp=F
 DIIS: error= 5.37D-03 at cycle   4 NSaved=   4.
 NSaved= 4 IEnMin= 4 EnMin= -1908.21482513922     IErMin= 4 ErrMin= 5.37D-03
 ErrMax= 5.37D-03  0.00D+00 EMaxC= 1.00D-01 BMatC= 1.92D-02 BMatP= 1.64D-01
 IDIUse=3 WtCom= 9.46D-01 WtEn= 5.37D-02
 Coeff-Com:  0.951D-02 0.974D-01 0.311D+00 0.582D+00
 Coeff-En:   0.000D+00 0.000D+00 0.766D-01 0.923D+00
 Coeff:      0.900D-02 0.922D-01 0.298D+00 0.600D+00
 Gap=     0.368 Goal=   None    Shift=    0.000
 RMSDP=3.02D-04 MaxDP=1.98D-02 DE=-1.03D-01 OVMax= 2.29D-02

 Cycle   5  Pass 1  IDiag  1:
 RMSU=  1.32D-04    CP:  1.00D+00  6.72D-01  5.99D-01  6.39D-01
 E= -1908.22724858677     Delta-E=       -0.012423447556 Rises=F Damp=F
 DIIS: error= 1.42D-03 at cycle   5 NSaved=   5.
 NSaved= 5 IEnMin= 5 EnMin= -1908.22724858677     IErMin= 5 ErrMin= 1.42D-03
 ErrMax= 1.42D-03  0.00D+00 EMaxC= 1.00D-01 BMatC= 1.31D-03 BMatP= 1.92D-02
 IDIUse=3 WtCom= 9.86D-01 WtEn= 1.42D-02
 Coeff-Com: -0.194D-02 0.260D-01 0.120D+00 0.328D+00 0.528D+00
 Coeff-En:   0.000D+00 0.000D+00 0.000D+00 0.000D+00 0.100D+01
 Coeff:     -0.191D-02 0.256D-01 0.119D+00 0.323D+00 0.535D+00
 Gap=     0.366 Goal=   None    Shift=    0.000
 RMSDP=6.82D-05 MaxDP=3.51D-03 DE=-1.24D-02 OVMax= 4.93D-03

 Cycle   6  Pass 1  IDiag  1:
 RMSU=  2.95D-05    CP:  1.00D+00  6.78D-01  5.85D-01  6.91D-01  6.15D-01
 E= -1908.22815879931     Delta-E=       -0.000910212540 Rises=F Damp=F
 DIIS: error= 1.14D-04 at cycle   6 NSaved=   6.
 NSaved= 6 IEnMin= 6 EnMin= -1908.22815879931     IErMin= 6 ErrMin= 1.14D-04
 ErrMax= 1.14D-04  0.00D+00 EMaxC= 1.00D-01 BMatC= 1.59D-05 BMatP= 1.31D-03
 IDIUse=3 WtCom= 9.99D-01 WtEn= 1.14D-03
 Coeff-Com: -0.624D-03-0.162D-02 0.144D-02 0.182D-01 0.109D+00 0.874D+00
 Coeff-En:   0.000D+00 0.000D+00 0.000D+00 0.000D+00 0.000D+00 0.100D+01
 Coeff:     -0.624D-03-0.162D-02 0.144D-02 0.182D-01 0.108D+00 0.874D+00
 Gap=     0.366 Goal=   None    Shift=    0.000
 RMSDP=1.32D-05 MaxDP=7.11D-04 DE=-9.10D-04 OVMax= 6.41D-04

 Cycle   7  Pass 1  IDiag  1:
 RMSU=  8.67D-06    CP:  1.00D+00  6.77D-01  5.88D-01  7.00D-01  6.77D-01
                    CP:  1.04D+00
 E= -1908.22817125386     Delta-E=       -0.000012454546 Rises=F Damp=F
 DIIS: error= 8.23D-05 at cycle   7 NSaved=   7.
 NSaved= 7 IEnMin= 7 EnMin= -1908.22817125386     IErMin= 7 ErrMin= 8.23D-05
 ErrMax= 8.23D-05  0.00D+00 EMaxC= 1.00D-01 BMatC= 5.27D-06 BMatP= 1.59D-05
 IDIUse=1 WtCom= 1.00D+00 WtEn= 0.00D+00
 Coeff-Com: -0.151D-03-0.322D-02-0.938D-02-0.181D-01 0.142D-01 0.452D+00
 Coeff-Com:  0.565D+00
 Coeff:     -0.151D-03-0.322D-02-0.938D-02-0.181D-01 0.142D-01 0.452D+00
 Coeff:      0.565D+00
 Gap=     0.366 Goal=   None    Shift=    0.000
 RMSDP=4.41D-06 MaxDP=2.81D-04 DE=-1.25D-05 OVMax= 3.08D-04

 Cycle   8  Pass 1  IDiag  1:
 RMSU=  2.72D-06    CP:  1.00D+00  6.77D-01  5.89D-01  7.00D-01  6.82D-01
                    CP:  1.12D+00  7.27D-01
 E= -1908.22817494563     Delta-E=       -0.000003691775 Rises=F Damp=F
 DIIS: error= 1.42D-05 at cycle   8 NSaved=   8.
 NSaved= 8 IEnMin= 8 EnMin= -1908.22817494563     IErMin= 8 ErrMin= 1.42D-05
 ErrMax= 1.42D-05  0.00D+00 EMaxC= 1.00D-01 BMatC= 1.62D-07 BMatP= 5.27D-06
 IDIUse=1 WtCom= 1.00D+00 WtEn= 0.00D+00
 Coeff-Com:  0.179D-04-0.580D-03-0.196D-02-0.586D-02-0.722D-02 0.454D-02
 Coeff-Com:  0.124D+00 0.887D+00
 Coeff:      0.179D-04-0.580D-03-0.196D-02-0.586D-02-0.722D-02 0.454D-02
 Coeff:      0.124D+00 0.887D+00
 Gap=     0.366 Goal=   None    Shift=    0.000
 RMSDP=1.66D-06 MaxDP=1.08D-04 DE=-3.69D-06 OVMax= 1.53D-04

 Cycle   9  Pass 1  IDiag  1:
 RMSU=  9.13D-07    CP:  1.00D+00  6.77D-01  5.89D-01  7.00D-01  6.86D-01
                    CP:  1.14D+00  8.15D-01  1.12D+00
 E= -1908.22817514355     Delta-E=       -0.000000197921 Rises=F Damp=F
 DIIS: error= 4.66D-06 at cycle   9 NSaved=   9.
 NSaved= 9 IEnMin= 9 EnMin= -1908.22817514355     IErMin= 9 ErrMin= 4.66D-06
 ErrMax= 4.66D-06  0.00D+00 EMaxC= 1.00D-01 BMatC= 2.60D-08 BMatP= 1.62D-07
 IDIUse=1 WtCom= 1.00D+00 WtEn= 0.00D+00
 Coeff-Com:  0.226D-04 0.982D-04 0.204D-03-0.631D-03-0.481D-02-0.514D-01
 Coeff-Com: -0.114D-01 0.349D+00 0.719D+00
 Coeff:      0.226D-04 0.982D-04 0.204D-03-0.631D-03-0.481D-02-0.514D-01
 Coeff:     -0.114D-01 0.349D+00 0.719D+00
 Gap=     0.366 Goal=   None    Shift=    0.000
 RMSDP=5.59D-07 MaxDP=4.45D-05 DE=-1.98D-07 OVMax= 5.47D-05

 Cycle  10  Pass 1  IDiag  1:
 RMSU=  3.15D-07    CP:  1.00D+00  6.77D-01  5.89D-01  7.00D-01  6.87D-01
                    CP:  1.15D+00  8.37D-01  1.21D+00  9.13D-01
 E= -1908.22817516946     Delta-E=       -0.000000025902 Rises=F Damp=F
 DIIS: error= 1.41D-06 at cycle  10 NSaved=  10.
 NSaved=10 IEnMin=10 EnMin= -1908.22817516946     IErMin=10 ErrMin= 1.41D-06
 ErrMax= 1.41D-06  0.00D+00 EMaxC= 1.00D-01 BMatC= 2.47D-09 BMatP= 2.60D-08
 IDIUse=1 WtCom= 1.00D+00 WtEn= 0.00D+00
 Coeff-Com:  0.603D-05 0.994D-04 0.316D-03 0.403D-03-0.809D-03-0.195D-01
 Coeff-Com: -0.155D-01 0.457D-01 0.279D+00 0.711D+00
 Coeff:      0.603D-05 0.994D-04 0.316D-03 0.403D-03-0.809D-03-0.195D-01
 Coeff:     -0.155D-01 0.457D-01 0.279D+00 0.711D+00
 Gap=     0.366 Goal=   None    Shift=    0.000
 RMSDP=1.55D-07 MaxDP=1.01D-05 DE=-2.59D-08 OVMax= 1.76D-05

 Cycle  11  Pass 1  IDiag  1:
 RMSU=  1.08D-07    CP:  1.00D+00  6.77D-01  5.89D-01  7.00D-01  6.87D-01
                    CP:  1.15D+00  8.43D-01  1.23D+00  9.85D-01  9.45D-01
 E= -1908.22817517141     Delta-E=       -0.000000001951 Rises=F Damp=F
 DIIS: error= 7.73D-07 at cycle  11 NSaved=  11.
 NSaved=11 IEnMin=11 EnMin= -1908.22817517141     IErMin=11 ErrMin= 7.73D-07
 ErrMax= 7.73D-07  0.00D+00 EMaxC= 1.00D-01 BMatC= 4.59D-10 BMatP= 2.47D-09
 IDIUse=1 WtCom= 1.00D+00 WtEn= 0.00D+00
 Coeff-Com:  0.803D-06 0.385D-04 0.141D-03 0.257D-03 0.191D-03-0.399D-02
 Coeff-Com: -0.585D-02-0.123D-01 0.629D-01 0.342D+00 0.617D+00
 Coeff:      0.803D-06 0.385D-04 0.141D-03 0.257D-03 0.191D-03-0.399D-02
 Coeff:     -0.585D-02-0.123D-01 0.629D-01 0.342D+00 0.617D+00
 Gap=     0.366 Goal=   None    Shift=    0.000
 RMSDP=5.40D-08 MaxDP=3.92D-06 DE=-1.95D-09 OVMax= 4.29D-06

 Cycle  12  Pass 1  IDiag  1:
 RMSU=  3.61D-08    CP:  1.00D+00  6.77D-01  5.89D-01  7.00D-01  6.88D-01
                    CP:  1.15D+00  8.43D-01  1.23D+00  1.00D+00  1.02D+00
                    CP:  8.24D-01
 E= -1908.22817517186     Delta-E=       -0.000000000448 Rises=F Damp=F
 DIIS: error= 2.51D-07 at cycle  12 NSaved=  12.
 NSaved=12 IEnMin=12 EnMin= -1908.22817517186     IErMin=12 ErrMin= 2.51D-07
 ErrMax= 2.51D-07  0.00D+00 EMaxC= 1.00D-01 BMatC= 5.28D-11 BMatP= 4.59D-10
 IDIUse=1 WtCom= 1.00D+00 WtEn= 0.00D+00
 Coeff-Com: -0.333D-06 0.304D-05 0.208D-04 0.524D-04 0.222D-03 0.912D-03
 Coeff-Com: -0.427D-03-0.125D-01-0.136D-01 0.386D-01 0.250D+00 0.736D+00
 Coeff:     -0.333D-06 0.304D-05 0.208D-04 0.524D-04 0.222D-03 0.912D-03
 Coeff:     -0.427D-03-0.125D-01-0.136D-01 0.386D-01 0.250D+00 0.736D+00
 Gap=     0.366 Goal=   None    Shift=    0.000
 RMSDP=2.35D-08 MaxDP=1.85D-06 DE=-4.48D-10 OVMax= 1.75D-06

 Cycle  13  Pass 1  IDiag  1:
 RMSU=  1.27D-08    CP:  1.00D+00  6.77D-01  5.89D-01  7.00D-01  6.88D-01
                    CP:  1.15D+00  8.43D-01  1.23D+00  1.01D+00  1.04D+00
                    CP:  9.14D-01  8.90D-01
 E= -1908.22817517198     Delta-E=       -0.000000000124 Rises=F Damp=F
 DIIS: error= 8.18D-08 at cycle  13 NSaved=  13.
 NSaved=13 IEnMin=13 EnMin= -1908.22817517198     IErMin=13 ErrMin= 8.18D-08
 ErrMax= 8.18D-08  0.00D+00 EMaxC= 1.00D-01 BMatC= 6.68D-12 BMatP= 5.28D-11
 IDIUse=1 WtCom= 1.00D+00 WtEn= 0.00D+00
 Coeff-Com: -0.249D-06-0.281D-05-0.453D-05-0.338D-05 0.874D-04 0.843D-03
 Coeff-Com:  0.478D-03-0.433D-02-0.134D-01-0.229D-01 0.363D-01 0.325D+00
 Coeff-Com:  0.678D+00
 Coeff:     -0.249D-06-0.281D-05-0.453D-05-0.338D-05 0.874D-04 0.843D-03
 Coeff:      0.478D-03-0.433D-02-0.134D-01-0.229D-01 0.363D-01 0.325D+00
 Coeff:      0.678D+00
 Gap=     0.366 Goal=   None    Shift=    0.000
 RMSDP=7.72D-09 MaxDP=4.21D-07 DE=-1.24D-10 OVMax= 6.95D-07

 Error on total polarization charges =  0.00212
 SCF Done:  E(RCAM-B3LYP) =  -1908.22817517     A.U. after   13 cycles
            NFock= 13  Conv=0.77D-08     -V/T= 2.0074
 KE= 1.894273937728D+03 PE=-1.088103000481D+04 EE= 3.891113392408D+03
 Leave Link  502 at Sun Mar  3 17:55:27 2024, MaxMem=  5368709120 cpu:       575.9
 (Enter /home/k0335/k033513/app/g09/l601.exe)
 Copying SCF densities to generalized density rwf, IOpCl= 0 IROHF=0.

 **********************************************************************

            Population analysis using the SCF density.

 **********************************************************************

 Alpha  occ. eigenvalues --  -24.83762 -24.83619 -24.83528 -24.83419 -24.83080
 Alpha  occ. eigenvalues --  -24.82980 -24.82954 -24.82882 -24.82798 -24.77334
 Alpha  occ. eigenvalues --  -24.77280 -19.33175 -19.24309 -19.24220 -19.24091
 Alpha  occ. eigenvalues --  -14.52982 -14.51036 -14.51025 -10.59702 -10.55475
 Alpha  occ. eigenvalues --  -10.53469 -10.49103 -10.46241 -10.46223 -10.45521
 Alpha  occ. eigenvalues --  -10.39251 -10.39164  -1.43350  -1.41816  -1.39147
 Alpha  occ. eigenvalues --   -1.35743  -1.33668  -1.33404  -1.32841  -1.32204
 Alpha  occ. eigenvalues --   -1.31649  -1.30110  -1.29999  -1.22882  -1.20717
 Alpha  occ. eigenvalues --   -1.17827  -1.17706  -1.09830  -1.07751  -1.06496
 Alpha  occ. eigenvalues --   -0.93641  -0.86338  -0.83807  -0.83622  -0.82123
 Alpha  occ. eigenvalues --   -0.78492  -0.76228  -0.75751  -0.74713  -0.73145
 Alpha  occ. eigenvalues --   -0.72285  -0.70602  -0.69972  -0.68640  -0.68281
 Alpha  occ. eigenvalues --   -0.67244  -0.66595  -0.64845  -0.63845  -0.63547
 Alpha  occ. eigenvalues --   -0.60565  -0.60260  -0.60010  -0.58374  -0.58185
 Alpha  occ. eigenvalues --   -0.57338  -0.57181  -0.57135  -0.56308  -0.56184
 Alpha  occ. eigenvalues --   -0.55960  -0.55645  -0.54959  -0.54239  -0.53915
 Alpha  occ. eigenvalues --   -0.53659  -0.53300  -0.52814  -0.52650  -0.52298
 Alpha  occ. eigenvalues --   -0.51768  -0.50905  -0.50802  -0.50494  -0.50052
 Alpha  occ. eigenvalues --   -0.49958  -0.49012  -0.48896  -0.46792  -0.46177
 Alpha  occ. eigenvalues --   -0.45870  -0.44747  -0.42645  -0.42559  -0.40413
 Alpha  occ. eigenvalues --   -0.39937  -0.38696  -0.38395  -0.38034  -0.36158
 Alpha virt. eigenvalues --    0.00479   0.00969   0.05644   0.08280   0.10738
 Alpha virt. eigenvalues --    0.13773   0.15361   0.16867   0.17288   0.18788
 Alpha virt. eigenvalues --    0.18926   0.19528   0.20202   0.20362   0.20968
 Alpha virt. eigenvalues --    0.21983   0.22500   0.22660   0.24757   0.24853
 Alpha virt. eigenvalues --    0.25431   0.25581   0.26864   0.27244   0.27596
 Alpha virt. eigenvalues --    0.29074   0.29881   0.32630   0.34595   0.37018
 Alpha virt. eigenvalues --    0.37927   0.38656   0.39298   0.46452   0.47359
 Alpha virt. eigenvalues --    0.48707   0.50702   0.50899   0.52305   0.53557
 Alpha virt. eigenvalues --    0.54068   0.54626   0.55277   0.55532   0.56787
 Alpha virt. eigenvalues --    0.57077   0.59189   0.59634   0.59943   0.61281
 Alpha virt. eigenvalues --    0.61950   0.63500   0.65352   0.68259   0.68279
 Alpha virt. eigenvalues --    0.69897   0.71029   0.72932   0.75120   0.75566
 Alpha virt. eigenvalues --    0.77078   0.80540   0.81517   0.83753   0.84717
 Alpha virt. eigenvalues --    0.85409   0.86120   0.87493   0.88249   0.88901
 Alpha virt. eigenvalues --    0.90032   0.90618   0.91498   0.92463   0.93975
 Alpha virt. eigenvalues --    0.94934   0.97025   0.97364   0.98849   1.00196
 Alpha virt. eigenvalues --    1.03117   1.03968   1.05249   1.06149   1.07645
 Alpha virt. eigenvalues --    1.08146   1.09291   1.09450   1.10158   1.11455
 Alpha virt. eigenvalues --    1.13118   1.13309   1.14451   1.15302   1.16677
 Alpha virt. eigenvalues --    1.17398   1.17899   1.19973   1.20308   1.21554
 Alpha virt. eigenvalues --    1.22365   1.23049   1.24585   1.25868   1.27098
 Alpha virt. eigenvalues --    1.27961   1.28731   1.30358   1.30881   1.32569
 Alpha virt. eigenvalues --    1.34312   1.34444   1.35331   1.36112   1.37490
 Alpha virt. eigenvalues --    1.37620   1.38744   1.39829   1.40037   1.40533
 Alpha virt. eigenvalues --    1.41533   1.41762   1.42413   1.42583   1.44145
 Alpha virt. eigenvalues --    1.44468   1.45388   1.46397   1.47092   1.47754
 Alpha virt. eigenvalues --    1.48529   1.49980   1.50250   1.51066   1.52308
 Alpha virt. eigenvalues --    1.53132   1.54983   1.55016   1.57000   1.58200
 Alpha virt. eigenvalues --    1.59367   1.60243   1.61862   1.65113   1.66671
 Alpha virt. eigenvalues --    1.67612   1.69281   1.70255   1.71594   1.72094
 Alpha virt. eigenvalues --    1.73018   1.73899   1.74707   1.75104   1.76643
 Alpha virt. eigenvalues --    1.78787   1.79288   1.79593   1.81613   1.82444
 Alpha virt. eigenvalues --    1.83698   1.83737   1.84431   1.84600   1.85386
 Alpha virt. eigenvalues --    1.86029   1.86773   1.87068   1.87261   1.87666
 Alpha virt. eigenvalues --    1.88912   1.89224   1.89812   1.90968   1.91545
 Alpha virt. eigenvalues --    1.93072   1.93392   1.93503   1.94200   1.94621
 Alpha virt. eigenvalues --    1.95185   1.96168   1.97155   1.97724   1.98984
 Alpha virt. eigenvalues --    1.99518   2.00015   2.00209   2.00978   2.01440
 Alpha virt. eigenvalues --    2.02259   2.02718   2.03468   2.03870   2.04688
 Alpha virt. eigenvalues --    2.04956   2.05900   2.06135   2.08178   2.08822
 Alpha virt. eigenvalues --    2.09002   2.09859   2.10315   2.10620   2.10901
 Alpha virt. eigenvalues --    2.11922   2.12067   2.13590   2.14050   2.14684
 Alpha virt. eigenvalues --    2.16439   2.17951   2.18566   2.19537   2.20565
 Alpha virt. eigenvalues --    2.20796   2.23008   2.23215   2.25260   2.27200
 Alpha virt. eigenvalues --    2.27675   2.28912   2.31037   2.32312   2.34332
 Alpha virt. eigenvalues --    2.35187   2.37118   2.37387   2.38370   2.40633
 Alpha virt. eigenvalues --    2.40834   2.41596   2.45001   2.46189   2.47460
 Alpha virt. eigenvalues --    2.48866   2.49336   2.51257   2.53020   2.54295
 Alpha virt. eigenvalues --    2.57938   2.59552   2.60708   2.61368   2.63814
 Alpha virt. eigenvalues --    2.66150   2.66955   2.68466   2.69766   2.72298
 Alpha virt. eigenvalues --    2.73693   2.75453   2.76206   2.77164   2.79236
 Alpha virt. eigenvalues --    2.80787   2.82472   2.83907   2.86269   2.88964
 Alpha virt. eigenvalues --    2.89561   2.91368   2.91638   2.93150   2.93561
 Alpha virt. eigenvalues --    2.94799   2.95566   2.96540   2.96901   2.99639
 Alpha virt. eigenvalues --    3.02427   3.04416   3.04890   3.05259   3.06680
 Alpha virt. eigenvalues --    3.07921   3.08834   3.10279   3.12955   3.16172
 Alpha virt. eigenvalues --    3.17271   3.18758   3.21794   3.22769   3.28844
 Alpha virt. eigenvalues --    3.30183   3.30708   3.32285   3.33965   3.42672
 Alpha virt. eigenvalues --    3.51526   3.53032   3.56255   4.04488   4.06037
 Alpha virt. eigenvalues --    4.11106   4.16886   4.19543   4.25882   4.28493
 Alpha virt. eigenvalues --    4.31300   4.36221   4.46887   4.47728   4.48240
 Alpha virt. eigenvalues --    4.57914   4.59356   4.65358   4.70818   4.77935
 Alpha virt. eigenvalues --    4.84500   4.87162   4.88072   5.08559   5.24315
 Alpha virt. eigenvalues --    5.31756   5.43007   5.66860   6.22123   6.63899
          Condensed to atoms (all electrons):
               1          2          3          4          5          6
     1  O    8.058628   0.607077  -0.087716   0.000497  -0.000823   0.000409
     2  C    0.607077   4.186571   0.219531  -0.014345   0.007082  -0.033397
     3  N   -0.087716   0.219531   7.417179   0.234397  -0.065992   0.226917
     4  C    0.000497  -0.014345   0.234397   4.487358   0.281583  -0.016005
     5  F   -0.000823   0.007082  -0.065992   0.281583   9.139437   0.005392
     6  C    0.000409  -0.033397   0.226917  -0.016005   0.005392   4.188265
     7  O   -0.000025   0.000178  -0.089347   0.001863  -0.000706   0.586701
     8  N    0.000036   0.000552  -0.095311   0.002861  -0.000016   0.214010
     9  C    0.000001   0.000185   0.001913  -0.000007   0.000002  -0.013147
    10  F    0.000000   0.000003  -0.000024   0.000000   0.000000   0.000740
    11  F    0.000000   0.000000   0.000022   0.000007   0.000000   0.006708
    12  C    0.000000   0.000045  -0.000304   0.000006   0.000000  -0.000295
    13  F    0.000000   0.000004   0.000001   0.000001   0.000000   0.008370
    14  O    0.000000   0.000024  -0.000009   0.000000   0.000000   0.000127
    15  C    0.000000   0.000000   0.000000   0.000000   0.000000  -0.000009
    16  F    0.000000   0.000000   0.000000   0.000000   0.000000   0.000001
    17  F    0.000000   0.000000   0.000000   0.000000   0.000000   0.000000
    18  F    0.000000   0.000000   0.000000   0.000000   0.000000   0.000000
    19  C    0.000000   0.000000  -0.000001   0.000000   0.000000   0.000290
    20  F    0.000000   0.000000   0.000000   0.000000   0.000000  -0.000005
    21  F    0.000000   0.000000   0.000000   0.000000   0.000000   0.000000
    22  F    0.000000   0.000000   0.000000   0.000000   0.000000   0.000000
    23  C    0.000321  -0.031437  -0.001376   0.000107   0.000001  -0.014151
    24  O   -0.000024   0.000418   0.000122   0.000002   0.000000  -0.000174
    25  N   -0.088515   0.226519  -0.097953   0.002356  -0.000050   0.000084
    26  C    0.000392  -0.015265   0.002345  -0.000072   0.000002   0.000516
    27  F   -0.000610   0.004584  -0.000039   0.000001   0.000000   0.000029
    28  H    0.009314  -0.011102  -0.034773   0.382423  -0.032628   0.007019
    29  H    0.000426   0.007019  -0.034505   0.382149  -0.032530  -0.010273
    30  H    0.009094  -0.009315   0.000459  -0.000002   0.000000  -0.000019
    31  H    0.000468   0.006533  -0.000103   0.000001   0.000000  -0.000027
               7          8          9         10         11         12
     1  O   -0.000025   0.000036   0.000001   0.000000   0.000000   0.000000
     2  C    0.000178   0.000552   0.000185   0.000003   0.000000   0.000045
     3  N   -0.089347  -0.095311   0.001913  -0.000024   0.000022  -0.000304
     4  C    0.001863   0.002861  -0.000007   0.000000   0.000007   0.000006
     5  F   -0.000706  -0.000016   0.000002   0.000000   0.000000   0.000000
     6  C    0.586701   0.214010  -0.013147   0.000740   0.006708  -0.000295
     7  O    8.077611  -0.090553   0.016161   0.000010  -0.009161  -0.002025
     8  N   -0.090553   7.556370   0.181365  -0.037824  -0.040368  -0.068472
     9  C    0.016161   0.181365   4.359038   0.268676   0.271838   0.212198
    10  F    0.000010  -0.037824   0.268676   9.097106  -0.041750  -0.035469
    11  F   -0.009161  -0.040368   0.271838  -0.041750   9.097013  -0.024384
    12  C   -0.002025  -0.068472   0.212198  -0.035469  -0.024384   4.990475
    13  F   -0.004161  -0.001232  -0.021817   0.000303  -0.000120   0.220296
    14  O   -0.000035   0.000264  -0.027004   0.000768   0.000544   0.155411
    15  C   -0.000004  -0.000200   0.001037  -0.000057   0.000004   0.001635
    16  F    0.000000  -0.000002   0.000193   0.000000   0.000000   0.012759
    17  F    0.000000   0.000001  -0.000169   0.000001   0.000000  -0.008971
    18  F    0.000000   0.000001  -0.000032   0.000000   0.000000   0.000539
    19  C   -0.000017   0.003123  -0.030223   0.007612  -0.001134   0.208311
    20  F   -0.000001   0.000046   0.006225  -0.000866  -0.002475  -0.029033
    21  F    0.000000  -0.000012   0.001323   0.000000  -0.000002  -0.031537
    22  F    0.000000  -0.000029  -0.000007  -0.000860  -0.000156  -0.032253
    23  C   -0.000076   0.204856  -0.007198   0.006503   0.000594  -0.003089
    24  O   -0.000028  -0.088874   0.015563  -0.011013   0.000013  -0.003314
    25  N    0.000103  -0.094991   0.001679   0.000046  -0.000027  -0.000112
    26  C    0.000003   0.002059  -0.000053   0.000004   0.000000   0.000002
    27  F    0.000000  -0.000078   0.000000   0.000000   0.000000   0.000000
    28  H    0.000441  -0.000098   0.000001   0.000000   0.000000   0.000000
    29  H    0.007800   0.000346  -0.000010   0.000000  -0.000001   0.000001
    30  H    0.000000  -0.000114   0.000001   0.000000   0.000000   0.000000
    31  H    0.000000   0.000523  -0.000001   0.000002   0.000000   0.000001
              13         14         15         16         17         18
     1  O    0.000000   0.000000   0.000000   0.000000   0.000000   0.000000
     2  C    0.000004   0.000024   0.000000   0.000000   0.000000   0.000000
     3  N    0.000001  -0.000009   0.000000   0.000000   0.000000   0.000000
     4  C    0.000001   0.000000   0.000000   0.000000   0.000000   0.000000
     5  F    0.000000   0.000000   0.000000   0.000000   0.000000   0.000000
     6  C    0.008370   0.000127  -0.000009   0.000001   0.000000   0.000000
     7  O   -0.004161  -0.000035  -0.000004   0.000000   0.000000   0.000000
     8  N   -0.001232   0.000264  -0.000200  -0.000002   0.000001   0.000001
     9  C   -0.021817  -0.027004   0.001037   0.000193  -0.000169  -0.000032
    10  F    0.000303   0.000768  -0.000057   0.000000   0.000001   0.000000
    11  F   -0.000120   0.000544   0.000004   0.000000   0.000000   0.000000
    12  C    0.220296   0.155411   0.001635   0.012759  -0.008971   0.000539
    13  F    9.124200  -0.053300  -0.001047  -0.001485  -0.000015  -0.000021
    14  O   -0.053300   8.354630   0.234452  -0.046206  -0.047470  -0.039477
    15  C   -0.001047   0.234452   3.821577   0.295679   0.302540   0.339110
    16  F   -0.001485  -0.046206   0.295679   9.057892  -0.033845  -0.036625
    17  F   -0.000015  -0.047470   0.302540  -0.033845   9.057493  -0.037343
    18  F   -0.000021  -0.039477   0.339110  -0.036625  -0.037343   9.013635
    19  C   -0.014897  -0.026786  -0.003586  -0.004257   0.017713  -0.000027
    20  F   -0.000262   0.000543   0.000059   0.000000   0.000000   0.000000
    21  F   -0.000057  -0.001508   0.012138  -0.001954  -0.006680  -0.000004
    22  F    0.000311   0.000300  -0.000391   0.000014  -0.000468   0.000000
    23  C   -0.000366   0.004700   0.000094   0.000000   0.000002  -0.000012
    24  O    0.000006  -0.002498   0.000438   0.000000  -0.000002  -0.000004
    25  N    0.000001  -0.000342  -0.000004   0.000000   0.000000   0.000000
    26  C    0.000000   0.000003   0.000000   0.000000   0.000000   0.000000
    27  F    0.000000   0.000000   0.000000   0.000000   0.000000   0.000000
    28  H    0.000000   0.000000   0.000000   0.000000   0.000000   0.000000
    29  H    0.000001   0.000000   0.000000   0.000000   0.000000   0.000000
    30  H    0.000000   0.000000   0.000000   0.000000   0.000000   0.000000
    31  H    0.000000  -0.000004   0.000000   0.000000   0.000000   0.000000
              19         20         21         22         23         24
     1  O    0.000000   0.000000   0.000000   0.000000   0.000321  -0.000024
     2  C    0.000000   0.000000   0.000000   0.000000  -0.031437   0.000418
     3  N   -0.000001   0.000000   0.000000   0.000000  -0.001376   0.000122
     4  C    0.000000   0.000000   0.000000   0.000000   0.000107   0.000002
     5  F    0.000000   0.000000   0.000000   0.000000   0.000001   0.000000
     6  C    0.000290  -0.000005   0.000000   0.000000  -0.014151  -0.000174
     7  O   -0.000017  -0.000001   0.000000   0.000000  -0.000076  -0.000028
     8  N    0.003123   0.000046  -0.000012  -0.000029   0.204856  -0.088874
     9  C   -0.030223   0.006225   0.001323  -0.000007  -0.007198   0.015563
    10  F    0.007612  -0.000866   0.000000  -0.000860   0.006503  -0.011013
    11  F   -0.001134  -0.002475  -0.000002  -0.000156   0.000594   0.000013
    12  C    0.208311  -0.029033  -0.031537  -0.032253  -0.003089  -0.003314
    13  F   -0.014897  -0.000262  -0.000057   0.000311  -0.000366   0.000006
    14  O   -0.026786   0.000543  -0.001508   0.000300   0.004700  -0.002498
    15  C   -0.003586   0.000059   0.012138  -0.000391   0.000094   0.000438
    16  F   -0.004257   0.000000  -0.001954   0.000014   0.000000   0.000000
    17  F    0.017713   0.000000  -0.006680  -0.000468   0.000002  -0.000002
    18  F   -0.000027   0.000000  -0.000004   0.000000  -0.000012  -0.000004
    19  C    4.194122   0.287721   0.280972   0.267588   0.000008  -0.000033
    20  F    0.287721   9.059557  -0.039925  -0.037936   0.000002   0.000000
    21  F    0.280972  -0.039925   9.085547  -0.038845   0.000000   0.000000
    22  F    0.267588  -0.037936  -0.038845   9.088534   0.000003  -0.000001
    23  C    0.000008   0.000002   0.000000   0.000003   4.193654   0.583252
    24  O   -0.000033   0.000000   0.000000  -0.000001   0.583252   8.081307
    25  N   -0.000001   0.000000   0.000000   0.000000   0.217551  -0.087094
    26  C    0.000000   0.000000   0.000000   0.000000  -0.013094  -0.001682
    27  F    0.000000   0.000000   0.000000   0.000000   0.006793  -0.000635
    28  H    0.000000   0.000000   0.000000   0.000000  -0.000017   0.000000
    29  H    0.000000   0.000000   0.000000   0.000000  -0.000003   0.000000
    30  H    0.000000   0.000000   0.000000   0.000000   0.006820   0.000433
    31  H    0.000000   0.000000   0.000000   0.000000  -0.010350   0.010209
              25         26         27         28         29         30
     1  O   -0.088515   0.000392  -0.000610   0.009314   0.000426   0.009094
     2  C    0.226519  -0.015265   0.004584  -0.011102   0.007019  -0.009315
     3  N   -0.097953   0.002345  -0.000039  -0.034773  -0.034505   0.000459
     4  C    0.002356  -0.000072   0.000001   0.382423   0.382149  -0.000002
     5  F   -0.000050   0.000002   0.000000  -0.032628  -0.032530   0.000000
     6  C    0.000084   0.000516   0.000029   0.007019  -0.010273  -0.000019
     7  O    0.000103   0.000003   0.000000   0.000441   0.007800   0.000000
     8  N   -0.094991   0.002059  -0.000078  -0.000098   0.000346  -0.000114
     9  C    0.001679  -0.000053   0.000000   0.000001  -0.000010   0.000001
    10  F    0.000046   0.000004   0.000000   0.000000   0.000000   0.000000
    11  F   -0.000027   0.000000   0.000000   0.000000  -0.000001   0.000000
    12  C   -0.000112   0.000002   0.000000   0.000000   0.000001   0.000000
    13  F    0.000001   0.000000   0.000000   0.000000   0.000001   0.000000
    14  O   -0.000342   0.000003   0.000000   0.000000   0.000000   0.000000
    15  C   -0.000004   0.000000   0.000000   0.000000   0.000000   0.000000
    16  F    0.000000   0.000000   0.000000   0.000000   0.000000   0.000000
    17  F    0.000000   0.000000   0.000000   0.000000   0.000000   0.000000
    18  F    0.000000   0.000000   0.000000   0.000000   0.000000   0.000000
    19  C   -0.000001   0.000000   0.000000   0.000000   0.000000   0.000000
    20  F    0.000000   0.000000   0.000000   0.000000   0.000000   0.000000
    21  F    0.000000   0.000000   0.000000   0.000000   0.000000   0.000000
    22  F    0.000000   0.000000   0.000000   0.000000   0.000000   0.000000
    23  C    0.217551  -0.013094   0.006793  -0.000017  -0.000003   0.006820
    24  O   -0.087094  -0.001682  -0.000635   0.000000   0.000000   0.000433
    25  N    7.417700   0.235107  -0.065268   0.000458  -0.000130  -0.035201
    26  C    0.235107   4.491302   0.282414  -0.000003   0.000001   0.381307
    27  F   -0.065268   0.282414   9.138945   0.000000   0.000000  -0.032439
    28  H    0.000458  -0.000003   0.000000   0.566936  -0.044716   0.000001
    29  H   -0.000130   0.000001   0.000000  -0.044716   0.569801   0.000000
    30  H   -0.035201   0.381307  -0.032439   0.000001   0.000000   0.567491
    31  H   -0.035576   0.381704  -0.032812   0.000000   0.000000  -0.044360
              31
     1  O    0.000468
     2  C    0.006533
     3  N   -0.000103
     4  C    0.000001
     5  F    0.000000
     6  C   -0.000027
     7  O    0.000000
     8  N    0.000523
     9  C   -0.000001
    10  F    0.000002
    11  F    0.000000
    12  C    0.000001
    13  F    0.000000
    14  O   -0.000004
    15  C    0.000000
    16  F    0.000000
    17  F    0.000000
    18  F    0.000000
    19  C    0.000000
    20  F    0.000000
    21  F    0.000000
    22  F    0.000000
    23  C   -0.010350
    24  O    0.010209
    25  N   -0.035576
    26  C    0.381704
    27  F   -0.032812
    28  H    0.000000
    29  H    0.000000
    30  H   -0.044360
    31  H    0.566850
 Mulliken charges:
               1
     1  O   -0.508951
     2  C    0.848536
     3  N   -0.595432
     4  C    0.254820
     5  F   -0.300753
     6  C    0.841927
     7  O   -0.494732
     8  N   -0.648236
     9  C    0.762267
    10  F   -0.253911
    11  F   -0.257165
    12  C    0.437582
    13  F   -0.254713
    14  O   -0.507128
    15  C    0.996536
    16  F   -0.242165
    17  F   -0.242787
    18  F   -0.239740
    19  C    0.813502
    20  F   -0.243649
    21  F   -0.259456
    22  F   -0.245804
    23  C    0.855909
    24  O   -0.496387
    25  N   -0.596343
    26  C    0.253008
    27  F   -0.300887
    28  H    0.156744
    29  H    0.154624
    30  H    0.155843
    31  H    0.156941
 Sum of Mulliken charges =   0.00000
 Mulliken charges with hydrogens summed into heavy atoms:
               1
     1  O   -0.508951
     2  C    0.848536
     3  N   -0.595432
     4  C    0.566189
     5  F   -0.300753
     6  C    0.841927
     7  O   -0.494732
     8  N   -0.648236
     9  C    0.762267
    10  F   -0.253911
    11  F   -0.257165
    12  C    0.437582
    13  F   -0.254713
    14  O   -0.507128
    15  C    0.996536
    16  F   -0.242165
    17  F   -0.242787
    18  F   -0.239740
    19  C    0.813502
    20  F   -0.243649
    21  F   -0.259456
    22  F   -0.245804
    23  C    0.855909
    24  O   -0.496387
    25  N   -0.596343
    26  C    0.565792
    27  F   -0.300887
 Electronic spatial extent (au):  <R**2>=           8671.9626
 Charge=              0.0000 electrons
 Dipole moment (field-independent basis, Debye):
    X=             -1.5372    Y=              0.5385    Z=             -0.0075  Tot=              1.6288
 Quadrupole moment (field-independent basis, Debye-Ang):
   XX=           -149.5242   YY=           -154.3214   ZZ=           -137.7904
   XY=             -0.5721   XZ=              5.1993   YZ=              2.6301
 Traceless Quadrupole moment (field-independent basis, Debye-Ang):
   XX=             -2.3122   YY=             -7.1094   ZZ=              9.4216
   XY=             -0.5721   XZ=              5.1993   YZ=              2.6301
 Octapole moment (field-independent basis, Debye-Ang**2):
  XXX=           -105.7655  YYY=             33.3184  ZZZ=             17.8196  XYY=            -36.3291
  XXY=             20.7065  XXZ=            -10.0120  XZZ=            -88.2907  YZZ=             19.4970
  YYZ=             -6.7192  XYZ=             10.9622
 Hexadecapole moment (field-independent basis, Debye-Ang**3):
 XXXX=          -6122.2277 YYYY=          -1650.1471 ZZZZ=          -1706.8824 XXXY=            298.5015
 XXXZ=            -45.8203 YYYX=            321.9607 YYYZ=            179.9806 ZZZX=           -105.8796
 ZZZY=            125.7144 XXYY=          -1281.6737 XXZZ=          -1149.5617 YYZZ=           -543.4971
 XXYZ=             23.9228 YYXZ=             -0.1188 ZZXY=             74.2868
 N-N= 3.187414499498D+03 E-N=-1.088103000554D+04  KE= 1.894273937728D+03
 No NMR shielding tensors so no spin-rotation constants.
 Leave Link  601 at Sun Mar  3 17:55:28 2024, MaxMem=  5368709120 cpu:         3.9
 (Enter /home/k0335/k033513/app/g09/l9999.exe)
 1\1\GINC-C18U06N4\SP\RCAM-B3LYP\6-31G(d,p)\C9H4F11N3O4\K033513\03-Mar-
 2024\0\\#p CAM-B3LYP/6-31G(d,p) SCRF=(PCM,Solvent=Generic,Read) NoSymm
  out=wfn\\Title A904173280_0\\0,1\O,0,-3.977314,0.908981,0.188241\C,0,
 -2.835263,0.506861,-0.032119\N,0,-2.071153,1.002492,-1.061482\C,0,-2.5
 7866,2.140613,-1.786309\F,0,-2.226147,3.269353,-1.11361\C,0,-0.797672,
 0.568888,-1.343436\O,0,-0.086695,1.148642,-2.161794\N,0,-0.364827,-0.5
 34769,-0.650603\C,0,0.984927,-1.010622,-0.922741\F,0,1.070478,-2.32367
 ,-0.560134\F,0,1.163581,-1.049849,-2.27488\C,0,2.123948,-0.201093,-0.2
 49885\F,0,2.140792,1.063756,-0.763038\O,0,1.837795,-0.036007,1.144014\
 C,0,2.92238,0.468443,1.877068\F,0,3.506987,1.491144,1.235581\F,0,3.810
 087,-0.514827,2.092666\F,0,2.464435,0.906606,3.064537\C,0,3.419858,-0.
 934078,-0.62481\F,0,3.559234,-1.110967,-1.956551\F,0,4.514505,-0.24440
 5,-0.220722\F,0,3.496387,-2.152763,-0.044633\C,0,-0.966078,-0.936425,0
 .518233\O,0,-0.399649,-1.66138,1.335048\N,0,-2.230729,-0.448375,0.7492
 21\C,0,-2.975949,-0.98582,1.860789\F,0,-3.650151,-2.086268,1.42978\H,0
 ,-3.669703,2.117919,-1.862387\H,0,-2.157132,2.199547,-2.794117\H,0,-3.
 707586,-0.270101,2.246758\H,0,-2.320687,-1.291825,2.681316\\Version=ES
 64L-G09RevD.01\HF=-1908.2281752\RMSD=7.718e-09\Dipole=-0.6047998,0.211
 8531,-0.002949\Quadrupole=-1.7190999,-5.2856495,7.0047494,-0.4253233,3
 .8655485,1.9554045\PG=C01 [X(C9H4F11N3O4)]\\@

 Writing a WFN file to "A904173280/A904173280_0.wfn"


 There are more things in heaven and earth, Horatio,
 than are dreamt of in your philosophy.
                   -- Hamlet, Act I, Scene 5
 Job cpu time:       0 days  0 hours 10 minutes  1.4 seconds.
 File lengths (MBytes):  RWF=    214 Int=      0 D2E=      0 Chk=      8 Scr=      1
 Normal termination of Gaussian 09 at Sun Mar  3 17:55:28 2024.
