 Entering Gaussian System, Link 0=g09
 Initial command:
 /home/k0335/k033513/app/g09/l1.exe "/home/k0335/k033513/app/g09/scratch/Gau-384484.inp" -scrdir="/home/k0335/k033513/app/g09/scratch/"
 Default is to use a total of  36 processors:
                               36 via shared-memory
                                1 via Linda
 Entering Link 1 = /home/k0335/k033513/app/g09/l1.exe PID=    384485.
  
 Copyright (c) 1988,1990,1992,1993,1995,1998,2003,2009,2013,
            Gaussian, Inc.  All Rights Reserved.
  
 This is part of the Gaussian(R) 09 program.  It is based on
 the Gaussian(R) 03 system (copyright 2003, Gaussian, Inc.),
 the Gaussian(R) 98 system (copyright 1998, Gaussian, Inc.),
 the Gaussian(R) 94 system (copyright 1995, Gaussian, Inc.),
 the Gaussian 92(TM) system (copyright 1992, Gaussian, Inc.),
 the Gaussian 90(TM) system (copyright 1990, Gaussian, Inc.),
 the Gaussian 88(TM) system (copyright 1988, Gaussian, Inc.),
 the Gaussian 86(TM) system (copyright 1986, Carnegie Mellon
 University), and the Gaussian 82(TM) system (copyright 1983,
 Carnegie Mellon University). Gaussian is a federally registered
 trademark of Gaussian, Inc.
  
 This software contains proprietary and confidential information,
 including trade secrets, belonging to Gaussian, Inc.
  
 This software is provided under written license and may be
 used, copied, transmitted, or stored only in accord with that
 written license.
  
 The following legend is applicable only to US Government
 contracts under FAR:
  
                    RESTRICTED RIGHTS LEGEND
  
 Use, reproduction and disclosure by the US Government is
 subject to restrictions as set forth in subparagraphs (a)
 and (c) of the Commercial Computer Software - Restricted
 Rights clause in FAR 52.227-19.
  
 Gaussian, Inc.
 340 Quinnipiac St., Bldg. 40, Wallingford CT 06492
  
  
 ---------------------------------------------------------------
 Warning -- This program may not be used in any manner that
 competes with the business of Gaussian, Inc. or will provide
 assistance to any competitor of Gaussian, Inc.  The licensee
 of this program is prohibited from giving any competitor of
 Gaussian, Inc. access to this program.  By using this program,
 the user acknowledges that Gaussian, Inc. is engaged in the
 business of creating and licensing software in the field of
 computational chemistry and represents and warrants to the
 licensee that it is not a competitor of Gaussian, Inc. and that
 it will not use this program in any manner prohibited above.
 ---------------------------------------------------------------
  

 Cite this work as:
 Gaussian 09, Revision D.01,
 M. J. Frisch, G. W. Trucks, H. B. Schlegel, G. E. Scuseria, 
 M. A. Robb, J. R. Cheeseman, G. Scalmani, V. Barone, B. Mennucci, 
 G. A. Petersson, H. Nakatsuji, M. Caricato, X. Li, H. P. Hratchian, 
 A. F. Izmaylov, J. Bloino, G. Zheng, J. L. Sonnenberg, M. Hada, 
 M. Ehara, K. Toyota, R. Fukuda, J. Hasegawa, M. Ishida, T. Nakajima, 
 Y. Honda, O. Kitao, H. Nakai, T. Vreven, J. A. Montgomery, Jr., 
 J. E. Peralta, F. Ogliaro, M. Bearpark, J. J. Heyd, E. Brothers, 
 K. N. Kudin, V. N. Staroverov, T. Keith, R. Kobayashi, J. Normand, 
 K. Raghavachari, A. Rendell, J. C. Burant, S. S. Iyengar, J. Tomasi, 
 M. Cossi, N. Rega, J. M. Millam, M. Klene, J. E. Knox, J. B. Cross, 
 V. Bakken, C. Adamo, J. Jaramillo, R. Gomperts, R. E. Stratmann, 
 O. Yazyev, A. J. Austin, R. Cammi, C. Pomelli, J. W. Ochterski, 
 R. L. Martin, K. Morokuma, V. G. Zakrzewski, G. A. Voth, 
 P. Salvador, J. J. Dannenberg, S. Dapprich, A. D. Daniels, 
 O. Farkas, J. B. Foresman, J. V. Ortiz, J. Cioslowski, 
 and D. J. Fox, Gaussian, Inc., Wallingford CT, 2013.
 
 ******************************************
 Gaussian 09:  ES64L-G09RevD.01 24-Apr-2013
                 3-Mar-2024 
 ******************************************
 %nprocshared=24
 Will use up to   24 processors via shared memory.
 %mem=40GB
 %rwf=A895623830/A895623830_p1.rwf
 %nosave
 %chk=A895623830/A895623830_p1.chk
 ----------------------------------------------------------------------
 #p CAM-B3LYP/6-31G(d,p) SCRF=(PCM,Solvent=Generic,Read) NoSymm out=wfn
 ----------------------------------------------------------------------
 1/38=1,40=2/1;
 2/12=2,15=1,17=6,18=5,40=1/2;
 3/5=1,6=6,7=101,11=2,16=1,25=1,30=1,70=2203,72=-2,74=-40/1,2,3;
 4//1;
 5/5=2,38=5/2;
 6/7=2,8=2,9=2,10=2,28=1/1;
 99/5=1,6=100,9=1/99;
 Leave Link    1 at Sun Mar  3 18:01:05 2024, MaxMem=  5368709120 cpu:         1.2
 (Enter /home/k0335/k033513/app/g09/l101.exe)
 -------------------
 Title A895623830_p1
 -------------------
 Symbolic Z-matrix:
 Charge =  1 Multiplicity = 2
 O                     1.81918  -3.09909   1.96304 
 C                     1.11835  -2.12317   1.72058 
 N                     0.06851  -1.82799   2.53936 
 C                    -0.94606  -0.96935   2.24978 
 O                    -1.96982  -0.97417   2.91902 
 N                    -0.74632  -0.15819   1.16869 
 C                    -1.63958   0.96894   0.96965 
 F                    -1.17982   1.65131  -0.13003 
 F                    -1.42062   1.83752   2.00178 
 C                    -3.17205   0.77495   0.76894 
 F                    -3.76825   0.31319   1.89668 
 O                    -3.72923   2.08563   0.54928 
 C                    -5.0706    2.05285   0.14138 
 F                    -5.61162   3.26749   0.34991 
 F                    -5.77564   1.13858   0.82354 
 F                    -5.11812   1.78472  -1.17477 
 C                    -3.32627  -0.22594  -0.38102 
 F                    -4.62203  -0.52131  -0.63334 
 F                    -2.80319   0.25918  -1.53222 
 F                    -2.71006  -1.40537  -0.13929 
 C                     0.59687  -0.02209   0.68113 
 N                     1.29106  -1.27803   0.65128 
 C                     2.55325  -1.42288  -0.07856 
 F                     2.6249   -2.71331  -0.49841 
 F                     3.56935  -1.23798   0.80954 
 C                     2.80519  -0.4941   -1.29426 
 F                     1.73717  -0.58735  -2.14267 
 O                     2.83555   0.86718  -0.8274 
 C                     3.25518   1.77808  -1.81306 
 F                     2.87358   3.00982  -1.4294 
 F                     4.59279   1.74713  -1.90235 
 F                     2.69475   1.49994  -2.99842 
 C                     4.08306  -1.01431  -1.9754 
 F                     5.16399  -0.88376  -1.17456 
 F                     4.35288  -0.31941  -3.10799 
 F                     4.00117  -2.30826  -2.34922 
 H                    -0.10141  -2.4843    3.28845 
 H                     0.53069   0.35378  -0.34018 
 H                     1.14324   0.68007   1.32117 
 
 NAtoms=     39 NQM=       39 NQMF=       0 NMMI=      0 NMMIF=      0
                NMic=       0 NMicF=      0.
                    Isotopes and Nuclear Properties:
 (Nuclear quadrupole moments (NQMom) in fm**2, nuclear magnetic moments (NMagM)
  in nuclear magnetons)

  Atom         1           2           3           4           5           6           7           8           9          10
 IAtWgt=          16          12          14          12          16          14          12          19          19          12
 AtmWgt=  15.9949146  12.0000000  14.0030740  12.0000000  15.9949146  14.0030740  12.0000000  18.9984033  18.9984033  12.0000000
 NucSpn=           0           0           2           0           0           2           0           1           1           0
 AtZEff=   0.0000000   0.0000000   0.0000000   0.0000000   0.0000000   0.0000000   0.0000000   0.0000000   0.0000000   0.0000000
 NQMom=    0.0000000   0.0000000   2.0440000   0.0000000   0.0000000   2.0440000   0.0000000   0.0000000   0.0000000   0.0000000
 NMagM=    0.0000000   0.0000000   0.4037610   0.0000000   0.0000000   0.4037610   0.0000000   2.6288670   2.6288670   0.0000000
 AtZNuc=   8.0000000   6.0000000   7.0000000   6.0000000   8.0000000   7.0000000   6.0000000   9.0000000   9.0000000   6.0000000

  Atom        11          12          13          14          15          16          17          18          19          20
 IAtWgt=          19          16          12          19          19          19          12          19          19          19
 AtmWgt=  18.9984033  15.9949146  12.0000000  18.9984033  18.9984033  18.9984033  12.0000000  18.9984033  18.9984033  18.9984033
 NucSpn=           1           0           0           1           1           1           0           1           1           1
 AtZEff=   0.0000000   0.0000000   0.0000000   0.0000000   0.0000000   0.0000000   0.0000000   0.0000000   0.0000000   0.0000000
 NQMom=    0.0000000   0.0000000   0.0000000   0.0000000   0.0000000   0.0000000   0.0000000   0.0000000   0.0000000   0.0000000
 NMagM=    2.6288670   0.0000000   0.0000000   2.6288670   2.6288670   2.6288670   0.0000000   2.6288670   2.6288670   2.6288670
 AtZNuc=   9.0000000   8.0000000   6.0000000   9.0000000   9.0000000   9.0000000   6.0000000   9.0000000   9.0000000   9.0000000

  Atom        21          22          23          24          25          26          27          28          29          30
 IAtWgt=          12          14          12          19          19          12          19          16          12          19
 AtmWgt=  12.0000000  14.0030740  12.0000000  18.9984033  18.9984033  12.0000000  18.9984033  15.9949146  12.0000000  18.9984033
 NucSpn=           0           2           0           1           1           0           1           0           0           1
 AtZEff=   0.0000000   0.0000000   0.0000000   0.0000000   0.0000000   0.0000000   0.0000000   0.0000000   0.0000000   0.0000000
 NQMom=    0.0000000   2.0440000   0.0000000   0.0000000   0.0000000   0.0000000   0.0000000   0.0000000   0.0000000   0.0000000
 NMagM=    0.0000000   0.4037610   0.0000000   2.6288670   2.6288670   0.0000000   2.6288670   0.0000000   0.0000000   2.6288670
 AtZNuc=   6.0000000   7.0000000   6.0000000   9.0000000   9.0000000   6.0000000   9.0000000   8.0000000   6.0000000   9.0000000

  Atom        31          32          33          34          35          36          37          38          39
 IAtWgt=          19          19          12          19          19          19           1           1           1
 AtmWgt=  18.9984033  18.9984033  12.0000000  18.9984033  18.9984033  18.9984033   1.0078250   1.0078250   1.0078250
 NucSpn=           1           1           0           1           1           1           1           1           1
 AtZEff=   0.0000000   0.0000000   0.0000000   0.0000000   0.0000000   0.0000000   0.0000000   0.0000000   0.0000000
 NQMom=    0.0000000   0.0000000   0.0000000   0.0000000   0.0000000   0.0000000   0.0000000   0.0000000   0.0000000
 NMagM=    2.6288670   2.6288670   0.0000000   2.6288670   2.6288670   2.6288670   2.7928460   2.7928460   2.7928460
 AtZNuc=   9.0000000   9.0000000   6.0000000   9.0000000   9.0000000   9.0000000   1.0000000   1.0000000   1.0000000
 Leave Link  101 at Sun Mar  3 18:01:05 2024, MaxMem=  5368709120 cpu:         0.9
 (Enter /home/k0335/k033513/app/g09/l202.exe)
                          Input orientation:                          
 ---------------------------------------------------------------------
 Center     Atomic      Atomic             Coordinates (Angstroms)
 Number     Number       Type             X           Y           Z
 ---------------------------------------------------------------------
      1          8           0        1.819181   -3.099091    1.963041
      2          6           0        1.118346   -2.123174    1.720576
      3          7           0        0.068513   -1.827989    2.539361
      4          6           0       -0.946055   -0.969350    2.249783
      5          8           0       -1.969824   -0.974174    2.919015
      6          7           0       -0.746317   -0.158191    1.168688
      7          6           0       -1.639582    0.968941    0.969646
      8          9           0       -1.179822    1.651305   -0.130030
      9          9           0       -1.420619    1.837518    2.001779
     10          6           0       -3.172053    0.774945    0.768940
     11          9           0       -3.768247    0.313192    1.896679
     12          8           0       -3.729226    2.085635    0.549278
     13          6           0       -5.070602    2.052848    0.141381
     14          9           0       -5.611622    3.267493    0.349908
     15          9           0       -5.775643    1.138584    0.823543
     16          9           0       -5.118123    1.784718   -1.174772
     17          6           0       -3.326271   -0.225943   -0.381016
     18          9           0       -4.622033   -0.521308   -0.633339
     19          9           0       -2.803189    0.259179   -1.532215
     20          9           0       -2.710063   -1.405370   -0.139293
     21          6           0        0.596872   -0.022087    0.681126
     22          7           0        1.291060   -1.278030    0.651284
     23          6           0        2.553248   -1.422876   -0.078558
     24          9           0        2.624902   -2.713313   -0.498413
     25          9           0        3.569352   -1.237982    0.809544
     26          6           0        2.805185   -0.494098   -1.294256
     27          9           0        1.737168   -0.587345   -2.142672
     28          8           0        2.835549    0.867183   -0.827403
     29          6           0        3.255177    1.778077   -1.813059
     30          9           0        2.873578    3.009819   -1.429396
     31          9           0        4.592794    1.747125   -1.902348
     32          9           0        2.694752    1.499938   -2.998421
     33          6           0        4.083061   -1.014309   -1.975398
     34          9           0        5.163985   -0.883761   -1.174564
     35          9           0        4.352881   -0.319405   -3.107985
     36          9           0        4.001174   -2.308260   -2.349219
     37          1           0       -0.101413   -2.484301    3.288453
     38          1           0        0.530691    0.353782   -0.340176
     39          1           0        1.143239    0.680071    1.321170
 ---------------------------------------------------------------------
                    Distance matrix (angstroms):
                    1          2          3          4          5
     1  O    0.000000
     2  C    1.225713   0.000000
     3  N    2.238902   1.363705   0.000000
     4  C    3.502078   2.423452   1.360318   0.000000
     5  O    4.448114   3.506173   2.242310   1.223110   0.000000
     6  N    3.982671   2.764545   2.308878   1.366251   2.286141
     7  C    5.431276   4.210848   3.633787   2.424191   2.772146
     8  F    5.995100   4.790930   4.559548   3.547674   4.100478
     9  F    5.904906   4.713014   3.992800   2.857486   3.008082
    10  C    6.430120   5.264241   4.517845   3.192261   3.021191
    11  F    6.547322   5.463120   4.440543   3.119994   2.436556
    12  O    7.724308   6.525716   5.805145   4.468858   4.251303
    13  C    8.793750   7.631258   6.871805   5.530907   5.147129
    14  F    9.917279   8.731007   7.938613   6.582392   6.152621
    15  F    8.771414   7.679246   6.774861   5.459164   4.831046
    16  F    9.045642   7.908742   7.331277   6.059589   5.855114
    17  C    6.342339   5.269800   4.756018   3.624801   3.645546
    18  F    7.407793   6.407717   5.811597   4.693181   4.456290
    19  F    6.697843   5.624473   5.401914   4.388820   4.693517
    20  F    5.272812   4.316372   3.882561   3.001587   3.176024
    21  C    3.550394   2.401449   2.644519   2.395541   3.535894
    22  N    2.305620   1.373857   2.315580   2.766797   3.983503
    23  C    2.741656   2.405461   3.632014   4.227526   5.444718
    24  F    2.618543   2.746250   4.067800   4.831741   5.984557
    25  F    2.803102   2.760611   3.949209   4.747141   5.933122
    26  C    4.285811   3.819493   4.895432   5.182459   6.386144
    27  F    4.813780   4.203141   5.122991   5.161325   6.285865
    28  O    4.954888   4.287566   5.124016   5.209842   6.365364
    29  C    6.333071   5.680879   6.488613   6.457971   7.567565
    30  F    7.066765   6.273020   6.857391   6.630214   7.631476
    31  F    6.791169   6.338500   7.278691   7.436281   8.585975
    32  F    6.821569   6.154749   6.974185   6.848102   7.930671
    33  C    4.998277   4.866142   6.096041   6.568575   7.784234
    34  F    5.093129   5.126907   6.375629   7.004717   8.225375
    35  F    6.313604   6.085294   7.247355   7.563520   8.759569
    36  F    4.897152   4.990810   6.292432   6.886115   8.073840
    37  H    2.413165   2.019025   1.010326   2.021715   2.430623
    38  H    4.345958   3.275263   3.642179   3.261801   4.317218
    39  H    3.892424   2.831665   2.988209   2.819231   3.870503
                    6          7          8          9         10
     6  N    0.000000
     7  C    1.451884   0.000000
     8  F    2.269112   1.373422   0.000000
     9  F    2.265299   1.366627   2.153432   0.000000
    10  C    2.629589   1.557686   2.354812   2.390915   0.000000
    11  F    3.143920   2.412594   3.549372   2.801066   1.356635
    12  O    3.783671   2.406310   2.673867   2.738793   1.441042
    13  C    4.964221   3.692259   3.920851   4.102417   2.373048
    14  F    6.006405   4.630823   4.741651   4.726311   3.512817
    15  F    5.205273   4.142116   4.721626   4.565412   2.629429
    16  F    5.327231   4.167045   4.076702   4.874915   2.929991
    17  C    3.010371   2.469201   2.862568   3.683353   1.532305
    18  F    4.289561   3.699381   4.101510   4.770425   2.397728
    19  F    3.420497   2.849044   2.557236   4.109960   2.386921
    20  F    2.668814   2.830729   3.418331   4.094286   2.406677
    21  C    1.435409   2.463150   2.571936   3.045082   3.853280
    22  N    2.381733   3.706602   3.911101   4.345536   4.914054
    23  C    3.747290   4.939569   4.836223   5.545231   6.190940
    24  F    4.546756   5.822372   5.801855   6.582345   6.883227
    25  F    4.463175   5.659429   5.637857   5.981633   7.035628
    26  C    4.334985   5.198239   4.673163   5.844459   6.449389
    27  F    4.161367   4.848813   4.191791   5.747004   5.868029
    28  O    4.226764   4.823540   4.150227   5.201998   6.216760
    29  C    5.352747   5.688305   4.745300   6.034865   6.998734
    30  F    5.467172   5.503562   4.468105   5.620265   6.810066
    31  F    6.447294   6.906260   6.039320   7.170182   8.268843
    32  F    5.652888   5.900336   4.823163   6.484770   7.009852
    33  C    5.825900   6.734628   6.181328   7.364873   7.960496
    34  F    6.399137   7.370120   6.910969   7.800739   8.718833
    35  F    6.657157   7.361829   6.585037   8.005954   8.535384
    36  F    6.287856   7.319361   6.888082   8.094103   8.407393
    37  H    3.212490   4.434829   5.472863   4.698293   5.138041
    38  H    2.041944   2.608474   2.157216   3.390256   3.888165
    39  H    2.072765   2.819771   2.906181   2.894180   4.351517
                   11         12         13         14         15
    11  F    0.000000
    12  O    2.226784   0.000000
    13  C    2.793493   1.402407   0.000000
    14  F    3.810305   2.231580   1.345938   0.000000
    15  F    2.421267   2.271552   1.341009   2.187118   0.000000
    16  F    3.663518   2.234264   1.344028   2.183303   2.200701
    17  C    2.381996   2.524126   2.916929   4.238063   3.051609
    18  F    2.797558   2.998640   2.725378   4.037459   2.491699
    19  F    3.562523   2.919948   3.340559   4.525443   3.893383
    20  F    2.866774   3.701343   4.196450   5.522138   4.098358
    21  C    4.543594   4.814042   6.059451   7.033949   6.478919
    22  N    5.447897   6.043833   7.198992   8.270407   7.470474
    23  C    6.846663   7.223109   8.381654   9.425935   8.760439
    24  F    7.467835   8.031345   9.074492  10.214207   9.335622
    25  F    7.578150   8.023927   9.269564  10.237229   9.642468
    26  C    7.351448   7.263069   8.400953   9.364587   8.987844
    27  F    6.887446   6.653787   7.650703   8.664724   8.259515
    28  O    7.165030   6.817342   8.053047   8.860149   8.772224
    29  C    8.076913   7.379506   8.556514   9.247535   9.429546
    30  F    7.902431   6.954588   8.154332   8.673577   9.131609
    31  F    9.294933   8.682228   9.881878  10.560032  10.738030
    32  F    8.193944   7.361841   8.394331   9.128604   9.299762
    33  C    8.854280   8.775846   9.883206  10.850242  10.472013
    34  F    9.521029   9.533003  10.728567  11.647774  11.302998
    35  F    9.560312   9.191313  10.246365  11.140654  10.962192
    36  F    9.233827   9.352362  10.369160  11.435915  10.841278
    37  H    4.817538   6.445807   7.428501   8.490029   7.169237
    38  H    4.846239   4.683731   5.873092   6.833296   6.460650
    39  H    4.958680   5.129556   6.472112   7.298373   6.951891
                   16         17         18         19         20
    16  F    0.000000
    17  C    2.807764   0.000000
    18  F    2.420126   1.352740   0.000000
    19  F    2.795345   1.354333   2.173783   0.000000
    20  F    4.128878   1.352476   2.163626   2.172470   0.000000
    21  C    6.274557   4.069491   5.404999   4.066744   3.677279
    22  N    7.334339   4.846883   6.098160   4.888103   4.080467
    23  C    8.386911   6.007734   7.252949   5.799469   5.263691
    24  F    8.980210   6.451143   7.572394   6.274442   5.504683
    25  F    9.409912   7.070451   8.348312   6.952309   6.352902
    26  C    8.245368   6.204891   7.456616   5.663736   5.708092
    27  F    7.318369   5.373310   6.536198   4.658766   4.945761
    28  O    8.013952   6.273931   7.588221   5.715050   6.032562
    29  C    8.397595   7.027254   8.290317   6.252177   6.965624
    30  F    8.089066   7.071590   8.323866   6.308904   7.234315
    31  F    9.738208   8.301749   9.574404   7.553247   8.147288
    32  F    8.027939   6.788387   7.950748   5.823796   6.769598
    33  C    9.650769   7.619828   8.821725   7.017024   7.047747
    34  F   10.622736   8.552596   9.807673   8.056680   7.958925
    35  F    9.892652   8.149507   9.312020   7.350316   7.738064
    36  F   10.064461   7.867739   8.972020   7.318374   7.123179
    37  H    7.956901   5.381904   6.298397   6.169693   4.440562
    38  H    5.886699   3.900501   5.234720   3.541845   3.692893
    39  H    6.830419   4.867732   6.204980   4.888072   4.618436
                   21         22         23         24         25
    21  C    0.000000
    22  N    1.435333   0.000000
    23  C    2.523239   1.465185   0.000000
    24  F    3.570282   2.271778   1.358911   0.000000
    25  F    3.214114   2.284133   1.362123   2.186170   0.000000
    26  C    3.000262   2.586938   1.550491   2.364484   2.358663
    27  F    3.097358   2.912430   2.371638   2.830442   3.534941
    28  O    2.842206   3.028845   2.425867   3.601744   2.765824
    29  C    4.065481   4.389821   3.707735   4.722089   4.009160
    30  F    4.339372   5.021876   4.645014   5.803689   4.851883
    31  F    5.076597   5.155002   4.187465   5.073376   4.160848
    32  F    4.500747   4.796645   4.133820   4.899633   4.770925
    33  C    4.493900   3.842431   2.470882   2.682224   2.840744
    34  F    5.004457   4.299851   2.882329   3.201778   2.570022
    35  F    5.343535   4.942248   3.692392   3.940377   4.099358
    36  F    5.098907   4.172423   2.834836   2.341725   3.362997
    37  H    3.653526   3.216944   4.417082   4.671787   4.601393
    38  H    1.090282   2.055229   2.704754   3.717234   3.617876
    39  H    1.095992   2.074791   2.893052   4.125683   3.134759
                   26         27         28         29         30
    26  C    0.000000
    27  F    1.367174   0.000000
    28  O    1.439430   2.247671   0.000000
    29  C    2.373695   2.829879   1.406177   0.000000
    30  F    3.507189   3.839242   2.225922   1.345364   0.000000
    31  F    2.930598   3.696229   2.240026   1.340951   2.184899
    32  F    2.625367   2.450719   2.265728   1.340343   2.184848
    33  C    1.538682   2.390291   2.532625   2.917047   4.237284
    34  F    2.393763   3.573258   2.933929   3.337155   4.524474
    35  F    2.390710   2.800995   2.985187   2.698373   4.011201
    36  F    2.415475   2.851304   3.709184   4.188333   5.513575
    37  H    5.780177   6.039532   6.066174   7.447146   7.829050
    38  H    2.608159   2.364381   2.411087   3.408933   3.705409
    39  H    3.313788   3.735947   2.741403   3.935644   3.998426
                   31         32         33         34         35
    31  F    0.000000
    32  F    2.205684   0.000000
    33  C    2.809036   3.048838   0.000000
    34  F    2.788815   3.886591   1.351582   0.000000
    35  F    2.404509   2.464022   1.355894   2.171291   0.000000
    36  F    4.122603   4.078060   1.349354   2.182004   2.157537
    37  H    8.178323   7.950942   6.883228   7.085525   8.089619
    38  H    4.569734   3.614291   4.143061   4.867764   4.766874
    39  H    4.840362   4.662429   4.730839   4.984040   5.560411
                   36         37         38         39
    36  F    0.000000
    37  H    6.974637   0.000000
    38  H    4.813208   4.649862   0.000000
    39  H    5.528985   3.928436   1.800486   0.000000
 Symmetry turned off by external request.
 Stoichiometry    C11H3F18N3O4(1+,2)
 Framework group  C1[X(C11H3F18N3O4)]
 Deg. of freedom   111
 Full point group                 C1      NOp   1
 Rotational constants (GHZ):      0.2038678      0.0635713      0.0561179
 Leave Link  202 at Sun Mar  3 18:01:05 2024, MaxMem=  5368709120 cpu:         0.1
 (Enter /home/k0335/k033513/app/g09/l301.exe)
 Standard basis: 6-31G(d,p) (6D, 7F)
 Ernie: Thresh=  0.10000D-02 Tol=  0.10000D-05 Strict=F.
   555 basis functions,  1029 primitive gaussians,   555 cartesian basis functions
   142 alpha electrons      141 beta electrons
       nuclear repulsion energy      5122.3782401159 Hartrees.
 IExCor=20419 DFT=T Ex+Corr=CAM-B3LYP ExCW=0 ScaHFX=  1.000000
 ScaDFX=  1.000000  1.000000  1.000000  0.810000 ScalE2=  1.000000  1.000000
 IRadAn=      0 IRanWt=     -1 IRanGd=            0 ICorTp=0 IEmpDi=  4
  HFx wShort=  0.000000 wLong=  0.330000 cFull=  0.190000 cShort=  0.000000 cLong=  0.460000
  DFx wShort=  0.000000 wLong=  0.330000 cFull=  0.190000 cShort=  0.000000 cLong=  0.460000
 NAtoms=   39 NActive=   39 NUniq=   39 SFac= 1.00D+00 NAtFMM=   60 NAOKFM=F Big=F
 Integral buffers will be    131072 words long.
 Raffenetti 2 integral format.
 Two-electron integral symmetry is turned off.
 Using the following non-standard input for PCM:
 eps=4.9
 --- end of non-standard input.
 ------------------------------------------------------------------------------
 Polarizable Continuum Model (PCM)
 =================================
 Model                : PCM (using non-symmetric T matrix).
 Atomic radii         : UFF (Universal Force Field).
 Polarization charges : Total charges.
 Charge compensation  : None.
 Solution method      : On-the-fly selection.
 Cavity type          : Scaled VdW (van der Waals Surface) (Alpha=1.100).
 Cavity algorithm     : GePol (No added spheres)
                        Default sphere list used, NSphG=   39.
                        Lebedev-Laikov grids with approx.  5.0 points / Ang**2.
                        Smoothing algorithm: Karplus/York (Gamma=1.0000).
                        Polarization charges: spherical gaussians, with
                                              point-specific exponents (IZeta= 3).
                        Self-potential: point-specific (ISelfS= 7).
                        Self-field    : sphere-specific E.n sum rule (ISelfD= 2).
 Solvent              : Generic,
                        Eps                           =   4.900000
                        Eps(infinity)                 =   0.000000
                        RSolv                         =   0.000000 Ang.
                        Molar volume                  =   0.000000 cm**3/mol
                        Thermal expansion coefficient =   0.000000 K**-1
                        Absolute temperature          = 298.150000 K
                        Numeral density               =   0.000000 Ang**-3
                        Hydrogen bond acidity         =   0.000000
                        Hydrogen bond basicity        =   0.000000
                        Surface tension at interface  =   0.000000 (cal/mol)*Ang**-2
                        Carbon aromaticity            =   0.000000
                        Electronegative halogenicity  =   0.000000
 ------------------------------------------------------------------------------
 GePol: Number of generator spheres                  =      39
 GePol: Total number of spheres                      =      39
 GePol: Number of exposed spheres                    =      38 ( 97.44%)
 GePol: Number of points                             =    3323
 GePol: Average weight of points                     =       0.13
 GePol: Minimum weight of points                     =   0.15D-09
 GePol: Maximum weight of points                     =    0.20577
 GePol: Number of points with low weight             =     135
 GePol: Fraction of low-weight points (<1% of avg)   =       4.06%
 GePol: Cavity surface area                          =    415.716 Ang**2
 GePol: Cavity volume                                =    475.803 Ang**3
 Leave Link  301 at Sun Mar  3 18:01:05 2024, MaxMem=  5368709120 cpu:         0.8
 (Enter /home/k0335/k033513/app/g09/l302.exe)
 NPDir=0 NMtPBC=     1 NCelOv=     1 NCel=       1 NClECP=     1 NCelD=      1
         NCelK=      1 NCelE2=     1 NClLst=     1 CellRange=     0.0.
 One-electron integrals computed using PRISM.
 NBasis=   555 RedAO= T EigKep=  1.22D-03  NBF=   555
 NBsUse=   555 1.00D-06 EigRej= -1.00D+00 NBFU=   555
 Precomputing XC quadrature grid using
 IXCGrd= 4 IRadAn=           0 IRanWt=          -1 IRanGd=           0 AccXCQ= 0.00D+00.
 Generated NRdTot=       0 NPtTot=           0 NUsed=           0 NTot=          32
 NSgBfM=   542   542   542   542   542 MxSgAt=    39 MxSgA2=    39.
 Leave Link  302 at Sun Mar  3 18:01:05 2024, MaxMem=  5368709120 cpu:         9.8
 (Enter /home/k0335/k033513/app/g09/l303.exe)
 DipDrv:  MaxL=1.
 Leave Link  303 at Sun Mar  3 18:01:05 2024, MaxMem=  5368709120 cpu:         0.9
 (Enter /home/k0335/k033513/app/g09/l401.exe)
 ExpMin= 1.61D-01 ExpMax= 7.00D+03 ExpMxC= 1.05D+03 IAcc=1 IRadAn=         1 AccDes= 0.00D+00
 Harris functional with IExCor=20419 and IRadAn=       1 diagonalized for initial guess.
 HarFok:  IExCor=20419 AccDes= 0.00D+00 IRadAn=         1 IDoV= 1 UseB2=F ITyADJ=14
 ICtDFT=  3500011 ScaDFX=  1.000000  1.000000  1.000000  1.000000
 FoFCou: FMM=F IPFlag=           0 FMFlag=      100000 FMFlg1=           0
         NFxFlg=           0 DoJE=T BraDBF=F KetDBF=T FulRan=T
         wScrn=  0.000000 ICntrl=     500 IOpCl=  0 I1Cent=   200000004 NGrid=           0
         NMat0=    1 NMatS0=      1 NMatT0=    0 NMatD0=    1 NMtDS0=    0 NMtDT0=    0
 Symmetry not used in FoFCou.
 Harris En= -2602.91988412767    
 JPrj=0 DoOrth=F DoCkMO=F.
 Initial guess <Sx>= 0.0000 <Sy>= 0.0000 <Sz>= 0.5000 <S**2>= 0.7500 S= 0.5000
 Leave Link  401 at Sun Mar  3 18:01:06 2024, MaxMem=  5368709120 cpu:        13.4
 (Enter /home/k0335/k033513/app/g09/l502.exe)
 UHF open shell SCF:
 Using DIIS extrapolation, IDIIS=  1040.
 Two-electron integral symmetry not used.
 IVT=      959353 IEndB=      959353 NGot=  5368709120 MDV=  5368074988
 LenX=  5368074988 LenY=  5367766408
 Requested convergence on RMS density matrix=1.00D-08 within 128 cycles.
 Requested convergence on MAX density matrix=1.00D-06.
 Requested convergence on             energy=1.00D-06.
 No special actions if energy rises.
 Fock matrices will be formed incrementally for  20 cycles.

 Cycle   1  Pass 1  IDiag  1:
 FoFJK:  IHMeth= 1 ICntrl=       0 DoSepK=T KAlg= 0 I1Cent=   0 FoldK=F
 IRaf=         1 NMat=   1 IRICut=       1 DoRegI=T DoRafI=F ISym2E= 0.
 FoFCou: FMM=F IPFlag=           0 FMFlag=      100000 FMFlg1=           0
         NFxFlg=           0 DoJE=T BraDBF=F KetDBF=F FulRan=T
         wScrn=  0.000000 ICntrl=     500 IOpCl=  0 I1Cent=           0 NGrid=           0
         NMat0=    1 NMatS0=      1 NMatT0=    0 NMatD0=    1 NMtDS0=    0 NMtDT0=    0
 Symmetry not used in FoFCou.
 Inv3:  Mode=1 IEnd=    33126987.
 Iteration    1 A*A^-1 deviation from unit magnitude is 7.66D-15 for   3313.
 Iteration    1 A*A^-1 deviation from orthogonality  is 8.94D-15 for   3322   2984.
 Iteration    1 A^-1*A deviation from unit magnitude is 7.11D-15 for    538.
 Iteration    1 A^-1*A deviation from orthogonality  is 4.17D-13 for   3266   3259.
 E= -2681.22945527829    
 DIIS: error= 5.75D-02 at cycle   1 NSaved=   1.
 NSaved= 1 IEnMin= 1 EnMin= -2681.22945527829     IErMin= 1 ErrMin= 5.75D-02
 ErrMax= 5.75D-02  0.00D+00 EMaxC= 1.00D-01 BMatC= 9.27D+00 BMatP= 9.27D+00
 IDIUse=3 WtCom= 4.25D-01 WtEn= 5.75D-01
 Coeff-Com:  0.100D+01
 Coeff-En:   0.100D+01
 Coeff:      0.100D+01
 Gap=     0.466 Goal=   None    Shift=    0.000
 Gap=     0.142 Goal=   None    Shift=    0.000
 GapD=    0.142 DampG=1.000 DampE=0.500 DampFc=0.5000 IDamp=-1.
 Damping current iteration by 5.00D-01
 RMSDP=3.49D-03 MaxDP=1.83D-01              OVMax= 6.61D-01

 Cycle   2  Pass 1  IDiag  1:
 RMSU=  1.75D-03    CP:  1.00D+00
 E= -2681.67081001163     Delta-E=       -0.441354733346 Rises=F Damp=T
 DIIS: error= 2.67D-02 at cycle   2 NSaved=   2.
 NSaved= 2 IEnMin= 2 EnMin= -2681.67081001163     IErMin= 2 ErrMin= 2.67D-02
 ErrMax= 2.67D-02  0.00D+00 EMaxC= 1.00D-01 BMatC= 1.30D+00 BMatP= 9.27D+00
 IDIUse=3 WtCom= 7.33D-01 WtEn= 2.67D-01
 Coeff-Com: -0.216D+00 0.122D+01
 Coeff-En:   0.000D+00 0.100D+01
 Coeff:     -0.158D+00 0.116D+01
 Gap=     0.626 Goal=   None    Shift=    0.000
 Gap=     0.026 Goal=   None    Shift=    0.000
 RMSDP=1.51D-03 MaxDP=1.90D-01 DE=-4.41D-01 OVMax= 6.68D-01

 Cycle   3  Pass 1  IDiag  1:
 RMSU=  1.51D-03    CP:  1.00D+00  1.06D+00
 E= -2681.85260749888     Delta-E=       -0.181797487247 Rises=F Damp=F
 DIIS: error= 1.75D-02 at cycle   3 NSaved=   3.
 NSaved= 3 IEnMin= 3 EnMin= -2681.85260749888     IErMin= 3 ErrMin= 1.75D-02
 ErrMax= 1.75D-02  0.00D+00 EMaxC= 1.00D-01 BMatC= 1.76D+00 BMatP= 1.30D+00
 IDIUse=2 WtCom= 0.00D+00 WtEn= 1.00D+00
 Coeff-En:   0.000D+00 0.292D+00 0.708D+00
 Coeff:      0.000D+00 0.292D+00 0.708D+00
 Gap=     0.506 Goal=   None    Shift=    0.000
 Gap=     0.101 Goal=   None    Shift=    0.000
 RMSDP=2.29D-03 MaxDP=3.58D-01 DE=-1.82D-01 OVMax= 7.77D-01

 Cycle   4  Pass 1  IDiag  1:
 RMSU=  8.30D-04    CP:  9.99D-01  1.68D+00 -2.16D-01
 E= -2681.48755825691     Delta-E=        0.365049241974 Rises=F Damp=F
 DIIS: error= 2.65D-02 at cycle   4 NSaved=   4.
 NSaved= 4 IEnMin= 3 EnMin= -2681.85260749888     IErMin= 3 ErrMin= 1.75D-02
 ErrMax= 2.65D-02  0.00D+00 EMaxC= 1.00D-01 BMatC= 3.40D+00 BMatP= 1.30D+00
 IDIUse=2 WtCom= 0.00D+00 WtEn= 1.00D+00
 Coeff-En:   0.000D+00 0.000D+00 0.631D+00 0.369D+00
 Coeff:      0.000D+00 0.000D+00 0.631D+00 0.369D+00
 Gap=     0.429 Goal=   None    Shift=    0.000
 Gap=     0.078 Goal=   None    Shift=    0.000
 RMSDP=1.46D-03 MaxDP=2.06D-01 DE= 3.65D-01 OVMax= 6.84D-01

 Cycle   5  Pass 1  IDiag  1:
 RMSU=  6.27D-04    CP:  9.99D-01  1.34D+00  4.15D-01  1.50D-01
 E= -2682.17214635439     Delta-E=       -0.684588097481 Rises=F Damp=F
 DIIS: error= 4.21D-03 at cycle   5 NSaved=   5.
 NSaved= 5 IEnMin= 5 EnMin= -2682.17214635439     IErMin= 5 ErrMin= 4.21D-03
 ErrMax= 4.21D-03  0.00D+00 EMaxC= 1.00D-01 BMatC= 9.36D-02 BMatP= 1.30D+00
 IDIUse=3 WtCom= 9.58D-01 WtEn= 4.21D-02
 Coeff-Com:  0.797D-02-0.429D-02 0.244D+00 0.974D-01 0.655D+00
 Coeff-En:   0.000D+00 0.000D+00 0.000D+00 0.000D+00 0.100D+01
 Coeff:      0.764D-02-0.411D-02 0.234D+00 0.933D-01 0.669D+00
 Gap=     0.399 Goal=   None    Shift=    0.000
 Gap=     0.084 Goal=   None    Shift=    0.000
 RMSDP=3.31D-04 MaxDP=3.78D-02 DE=-6.85D-01 OVMax= 7.64D-02

 Cycle   6  Pass 1  IDiag  1:
 RMSU=  2.75D-04    CP:  9.99D-01  1.30D+00  5.12D-01  1.57D-01  8.72D-01
 E= -2682.18478733865     Delta-E=       -0.012640984268 Rises=F Damp=F
 DIIS: error= 2.94D-03 at cycle   6 NSaved=   6.
 NSaved= 6 IEnMin= 6 EnMin= -2682.18478733865     IErMin= 6 ErrMin= 2.94D-03
 ErrMax= 2.94D-03  0.00D+00 EMaxC= 1.00D-01 BMatC= 2.69D-02 BMatP= 9.36D-02
 IDIUse=3 WtCom= 9.71D-01 WtEn= 2.94D-02
 Coeff-Com:  0.997D-04-0.602D-02 0.499D-01-0.125D-01 0.429D+00 0.540D+00
 Coeff-En:   0.000D+00 0.000D+00 0.000D+00 0.000D+00 0.191D+00 0.809D+00
 Coeff:      0.968D-04-0.584D-02 0.484D-01-0.122D-01 0.422D+00 0.548D+00
 Gap=     0.386 Goal=   None    Shift=    0.000
 Gap=     0.111 Goal=   None    Shift=    0.000
 RMSDP=1.44D-04 MaxDP=1.97D-02 DE=-1.26D-02 OVMax= 3.94D-02

 Cycle   7  Pass 1  IDiag  1:
 RMSU=  9.21D-05    CP:  9.99D-01  1.31D+00  5.03D-01  1.23D-01  9.36D-01
                    CP:  6.48D-01
 E= -2682.19016229414     Delta-E=       -0.005374955483 Rises=F Damp=F
 DIIS: error= 4.96D-04 at cycle   7 NSaved=   7.
 NSaved= 7 IEnMin= 7 EnMin= -2682.19016229414     IErMin= 7 ErrMin= 4.96D-04
 ErrMax= 4.96D-04  0.00D+00 EMaxC= 1.00D-01 BMatC= 1.36D-03 BMatP= 2.69D-02
 IDIUse=3 WtCom= 9.95D-01 WtEn= 4.96D-03
 Coeff-Com: -0.538D-02 0.128D-01 0.883D-02-0.168D-01 0.125D+00 0.233D+00
 Coeff-Com:  0.642D+00
 Coeff-En:   0.000D+00 0.000D+00 0.000D+00 0.000D+00 0.000D+00 0.000D+00
 Coeff-En:   0.100D+01
 Coeff:     -0.535D-02 0.128D-01 0.879D-02-0.167D-01 0.125D+00 0.232D+00
 Coeff:      0.644D+00
 Gap=     0.378 Goal=   None    Shift=    0.000
 Gap=     0.113 Goal=   None    Shift=    0.000
 RMSDP=5.16D-05 MaxDP=3.83D-03 DE=-5.37D-03 OVMax= 2.35D-02

 Cycle   8  Pass 1  IDiag  1:
 RMSU=  4.00D-05    CP:  9.99D-01  1.31D+00  5.04D-01  1.14D-01  9.36D-01
                    CP:  7.29D-01  1.24D+00
 E= -2682.19078703216     Delta-E=       -0.000624738027 Rises=F Damp=F
 DIIS: error= 3.68D-04 at cycle   8 NSaved=   8.
 NSaved= 8 IEnMin= 8 EnMin= -2682.19078703216     IErMin= 8 ErrMin= 3.68D-04
 ErrMax= 3.68D-04  0.00D+00 EMaxC= 1.00D-01 BMatC= 3.32D-04 BMatP= 1.36D-03
 IDIUse=3 WtCom= 9.96D-01 WtEn= 3.68D-03
 Coeff-Com:  0.401D-05 0.768D-03-0.380D-02-0.168D-02-0.502D-01-0.460D-01
 Coeff-Com:  0.207D+00 0.894D+00
 Coeff-En:   0.000D+00 0.000D+00 0.000D+00 0.000D+00 0.000D+00 0.000D+00
 Coeff-En:   0.000D+00 0.100D+01
 Coeff:      0.400D-05 0.766D-03-0.378D-02-0.167D-02-0.501D-01-0.458D-01
 Coeff:      0.206D+00 0.894D+00
 Gap=     0.377 Goal=   None    Shift=    0.000
 Gap=     0.115 Goal=   None    Shift=    0.000
 RMSDP=5.86D-05 MaxDP=6.56D-03 DE=-6.25D-04 OVMax= 3.42D-02

 Cycle   9  Pass 1  IDiag  1:
 RMSU=  2.30D-05    CP:  9.99D-01  1.31D+00  5.04D-01  1.04D-01  9.34D-01
                    CP:  7.61D-01  1.74D+00  1.63D+00
 E= -2682.19134979585     Delta-E=       -0.000562763683 Rises=F Damp=F
 DIIS: error= 3.28D-04 at cycle   9 NSaved=   9.
 NSaved= 9 IEnMin= 9 EnMin= -2682.19134979585     IErMin= 9 ErrMin= 3.28D-04
 ErrMax= 3.28D-04  0.00D+00 EMaxC= 1.00D-01 BMatC= 1.46D-04 BMatP= 3.32D-04
 IDIUse=3 WtCom= 9.97D-01 WtEn= 3.28D-03
 Coeff-Com:  0.388D-03-0.651D-03-0.362D-04 0.190D-02-0.264D-01-0.303D-01
 Coeff-Com: -0.140D+00 0.221D-02 0.119D+01
 Coeff-En:   0.000D+00 0.000D+00 0.000D+00 0.000D+00 0.000D+00 0.000D+00
 Coeff-En:   0.000D+00 0.000D+00 0.100D+01
 Coeff:      0.387D-03-0.649D-03-0.361D-04 0.190D-02-0.263D-01-0.302D-01
 Coeff:     -0.139D+00 0.220D-02 0.119D+01
 Gap=     0.377 Goal=   None    Shift=    0.000
 Gap=     0.117 Goal=   None    Shift=    0.000
 RMSDP=6.97D-05 MaxDP=7.31D-03 DE=-5.63D-04 OVMax= 4.18D-02

 Cycle  10  Pass 1  IDiag  1:
 RMSU=  1.59D-05    CP:  9.99D-01  1.31D+00  5.02D-01  9.84D-02  9.24D-01
                    CP:  8.07D-01  2.24D+00  2.59D+00  2.21D+00
 E= -2682.19191973154     Delta-E=       -0.000569935693 Rises=F Damp=F
 DIIS: error= 2.81D-04 at cycle  10 NSaved=  10.
 NSaved=10 IEnMin=10 EnMin= -2682.19191973154     IErMin=10 ErrMin= 2.81D-04
 ErrMax= 2.81D-04  0.00D+00 EMaxC= 1.00D-01 BMatC= 1.84D-04 BMatP= 1.46D-04
 IDIUse=3 WtCom= 9.97D-01 WtEn= 3.28D-03
 Coeff-Com: -0.350D-03 0.998D-03 0.432D-02 0.914D-03 0.118D-01 0.118D-01
 Coeff-Com: -0.229D+00-0.531D+00 0.105D+01 0.685D+00
 Coeff-En:   0.000D+00 0.000D+00 0.000D+00 0.000D+00 0.000D+00 0.000D+00
 Coeff-En:   0.000D+00 0.000D+00 0.000D+00 0.100D+01
 Coeff:     -0.349D-03 0.995D-03 0.430D-02 0.911D-03 0.118D-01 0.118D-01
 Coeff:     -0.229D+00-0.529D+00 0.104D+01 0.686D+00
 Gap=     0.376 Goal=   None    Shift=    0.000
 Gap=     0.119 Goal=   None    Shift=    0.000
 RMSDP=6.57D-05 MaxDP=6.46D-03 DE=-5.70D-04 OVMax= 3.76D-02

 Cycle  11  Pass 1  IDiag  1:
 RMSU=  2.53D-05    CP:  9.99D-01  1.31D+00  5.00D-01  9.38D-02  9.10D-01
                    CP:  8.40D-01  2.68D+00  3.00D+00  3.00D+00  1.76D+00
 E= -2682.19240972431     Delta-E=       -0.000489992768 Rises=F Damp=F
 DIIS: error= 2.62D-04 at cycle  11 NSaved=  11.
 NSaved=11 IEnMin=11 EnMin= -2682.19240972431     IErMin=11 ErrMin= 2.62D-04
 ErrMax= 2.62D-04  0.00D+00 EMaxC= 1.00D-01 BMatC= 1.40D-04 BMatP= 1.46D-04
 IDIUse=3 WtCom= 9.97D-01 WtEn= 2.62D-03
 Coeff-Com: -0.729D-03 0.160D-02 0.884D-02-0.350D-02 0.418D-01 0.246D-01
 Coeff-Com: -0.143D-01-0.337D+00 0.368D-01-0.706D+00 0.195D+01
 Coeff-En:   0.000D+00 0.000D+00 0.000D+00 0.000D+00 0.000D+00 0.000D+00
 Coeff-En:   0.000D+00 0.000D+00 0.000D+00 0.000D+00 0.100D+01
 Coeff:     -0.728D-03 0.160D-02 0.882D-02-0.349D-02 0.417D-01 0.245D-01
 Coeff:     -0.142D-01-0.337D+00 0.367D-01-0.704D+00 0.195D+01
 Gap=     0.374 Goal=   None    Shift=    0.000
 Gap=     0.122 Goal=   None    Shift=    0.000
 RMSDP=1.20D-04 MaxDP=1.11D-02 DE=-4.90D-04 OVMax= 4.94D-02

 Cycle  12  Pass 1  IDiag  1:
 RMSU=  5.78D-05    CP:  9.99D-01  1.31D+00  4.96D-01  9.18D-02  8.73D-01
                    CP:  8.81D-01  3.00D+00  3.00D+00  3.00D+00  3.00D+00
                    CP:  3.00D+00
 E= -2682.19315641558     Delta-E=       -0.000746691272 Rises=F Damp=F
 DIIS: error= 2.61D-04 at cycle  12 NSaved=  12.
 NSaved=12 IEnMin=12 EnMin= -2682.19315641558     IErMin=12 ErrMin= 2.61D-04
 ErrMax= 2.61D-04  0.00D+00 EMaxC= 1.00D-01 BMatC= 2.31D-04 BMatP= 1.40D-04
 IDIUse=3 WtCom= 9.97D-01 WtEn= 2.62D-03
 Coeff-Com: -0.217D-03 0.427D-03 0.823D-02-0.429D-02 0.239D-01-0.182D-01
 Coeff-Com:  0.100D+00 0.500D-01-0.153D+00-0.141D+01 0.165D+01 0.749D+00
 Coeff-En:   0.000D+00 0.000D+00 0.000D+00 0.000D+00 0.000D+00 0.000D+00
 Coeff-En:   0.000D+00 0.000D+00 0.000D+00 0.000D+00 0.000D+00 0.100D+01
 Coeff:     -0.217D-03 0.426D-03 0.821D-02-0.428D-02 0.239D-01-0.182D-01
 Coeff:      0.999D-01 0.498D-01-0.153D+00-0.140D+01 0.165D+01 0.749D+00
 Gap=     0.372 Goal=   None    Shift=    0.000
 Gap=     0.125 Goal=   None    Shift=    0.000
 RMSDP=7.51D-05 MaxDP=7.03D-03 DE=-7.47D-04 OVMax= 3.70D-02

 Cycle  13  Pass 1  IDiag  1:
 RMSU=  2.33D-05    CP:  9.99D-01  1.31D+00  4.95D-01  9.43D-02  8.46D-01
                    CP:  8.89D-01  3.00D+00  3.00D+00  3.00D+00  3.00D+00
                    CP:  3.00D+00  2.20D+00
 E= -2682.19356759375     Delta-E=       -0.000411178174 Rises=F Damp=F
 DIIS: error= 2.74D-04 at cycle  13 NSaved=  13.
 NSaved=13 IEnMin=13 EnMin= -2682.19356759375     IErMin=12 ErrMin= 2.61D-04
 ErrMax= 2.74D-04  0.00D+00 EMaxC= 1.00D-01 BMatC= 2.02D-04 BMatP= 1.40D-04
 IDIUse=3 WtCom= 9.97D-01 WtEn= 2.62D-03
 Coeff-Com:  0.261D-03-0.658D-03 0.552D-02-0.280D-02 0.895D-02-0.310D-01
 Coeff-Com:  0.270D-01 0.257D-01 0.242D+00-0.405D+00 0.116D+00-0.563D+00
 Coeff-Com:  0.158D+01
 Coeff-En:   0.000D+00 0.000D+00 0.000D+00 0.000D+00 0.000D+00 0.000D+00
 Coeff-En:   0.000D+00 0.000D+00 0.000D+00 0.000D+00 0.000D+00 0.000D+00
 Coeff-En:   0.100D+01
 Coeff:      0.260D-03-0.657D-03 0.551D-02-0.280D-02 0.893D-02-0.310D-01
 Coeff:      0.269D-01 0.257D-01 0.242D+00-0.404D+00 0.115D+00-0.562D+00
 Coeff:      0.158D+01
 Gap=     0.370 Goal=   None    Shift=    0.000
 Gap=     0.124 Goal=   None    Shift=    0.000
 RMSDP=6.49D-05 MaxDP=6.36D-03 DE=-4.11D-04 OVMax= 2.53D-02

 Cycle  14  Pass 1  IDiag  1:
 RMSU=  1.86D-05    CP:  9.99D-01  1.31D+00  4.95D-01  1.01D-01  8.24D-01
                    CP:  8.79D-01  3.00D+00  3.00D+00  3.00D+00  3.00D+00
                    CP:  3.00D+00  3.00D+00  2.08D+00
 E= -2682.19390018185     Delta-E=       -0.000332588093 Rises=F Damp=F
 DIIS: error= 2.23D-04 at cycle  14 NSaved=  14.
 NSaved=14 IEnMin=14 EnMin= -2682.19390018185     IErMin=14 ErrMin= 2.23D-04
 ErrMax= 2.23D-04  0.00D+00 EMaxC= 1.00D-01 BMatC= 1.49D-04 BMatP= 1.40D-04
 IDIUse=3 WtCom= 9.98D-01 WtEn= 2.23D-03
 Coeff-Com: -0.163D-03 0.391D-03 0.392D-02-0.237D-02 0.201D-01 0.105D-01
 Coeff-Com: -0.875D-01-0.296D+00 0.383D+00 0.465D+00-0.262D+00-0.177D+01
 Coeff-Com:  0.105D+01 0.148D+01
 Coeff-En:   0.000D+00 0.000D+00 0.000D+00 0.000D+00 0.000D+00 0.000D+00
 Coeff-En:   0.000D+00 0.000D+00 0.000D+00 0.000D+00 0.000D+00 0.000D+00
 Coeff-En:   0.000D+00 0.100D+01
 Coeff:     -0.163D-03 0.391D-03 0.391D-02-0.237D-02 0.201D-01 0.105D-01
 Coeff:     -0.873D-01-0.295D+00 0.382D+00 0.464D+00-0.261D+00-0.177D+01
 Coeff:      0.105D+01 0.148D+01
 Gap=     0.366 Goal=   None    Shift=    0.000
 Gap=     0.127 Goal=   None    Shift=    0.000
 RMSDP=1.25D-04 MaxDP=1.26D-02 DE=-3.33D-04 OVMax= 5.18D-02

 Cycle  15  Pass 1  IDiag  1:
 RMSU=  9.11D-05    CP:  9.99D-01  1.32D+00  4.94D-01  1.17D-01  7.71D-01
                    CP:  8.72D-01  3.00D+00  3.00D+00  3.00D+00  3.00D+00
                    CP:  3.00D+00  3.00D+00  3.00D+00  3.00D+00
 E= -2682.19442086184     Delta-E=       -0.000520679991 Rises=F Damp=F
 DIIS: error= 2.29D-04 at cycle  15 NSaved=  15.
 NSaved=15 IEnMin=15 EnMin= -2682.19442086184     IErMin=14 ErrMin= 2.23D-04
 ErrMax= 2.29D-04  0.00D+00 EMaxC= 1.00D-01 BMatC= 1.53D-04 BMatP= 1.40D-04
 IDIUse=3 WtCom= 9.98D-01 WtEn= 2.23D-03
 Coeff-Com: -0.437D-03 0.973D-03 0.385D-02-0.188D-02 0.290D-01 0.323D-01
 Coeff-Com: -0.127D+00-0.454D+00 0.353D+00 0.102D+01-0.309D+00-0.157D+01
 Coeff-Com: -0.242D-01 0.129D+01 0.762D+00
 Coeff-En:   0.000D+00 0.000D+00 0.000D+00 0.000D+00 0.000D+00 0.000D+00
 Coeff-En:   0.000D+00 0.000D+00 0.000D+00 0.000D+00 0.000D+00 0.000D+00
 Coeff-En:   0.000D+00 0.000D+00 0.100D+01
 Coeff:     -0.436D-03 0.970D-03 0.384D-02-0.188D-02 0.290D-01 0.322D-01
 Coeff:     -0.127D+00-0.453D+00 0.352D+00 0.102D+01-0.308D+00-0.157D+01
 Coeff:     -0.241D-01 0.129D+01 0.763D+00
 Gap=     0.363 Goal=   None    Shift=    0.000
 Gap=     0.127 Goal=   None    Shift=    0.000
 RMSDP=6.07D-05 MaxDP=6.24D-03 DE=-5.21D-04 OVMax= 2.40D-02

 Cycle  16  Pass 1  IDiag  1:
 RMSU=  3.57D-05    CP:  9.98D-01  1.32D+00  4.95D-01  1.29D-01  7.49D-01
                    CP:  8.53D-01  3.00D+00  3.00D+00  3.00D+00  3.00D+00
                    CP:  3.00D+00  3.00D+00  3.00D+00  3.00D+00  1.50D+00
 E= -2682.19464862676     Delta-E=       -0.000227764926 Rises=F Damp=F
 DIIS: error= 1.88D-04 at cycle  16 NSaved=  16.
 NSaved=16 IEnMin=16 EnMin= -2682.19464862676     IErMin=16 ErrMin= 1.88D-04
 ErrMax= 1.88D-04  0.00D+00 EMaxC= 1.00D-01 BMatC= 1.03D-04 BMatP= 1.40D-04
 IDIUse=3 WtCom= 9.98D-01 WtEn= 1.88D-03
 Coeff-Com: -0.421D-03 0.817D-03 0.517D-02-0.215D-02 0.317D-01 0.299D-01
 Coeff-Com: -0.469D-01-0.304D+00-0.718D-01 0.509D+00 0.336D+00-0.158D+00
 Coeff-Com: -0.118D+01 0.398D-01 0.216D+00 0.159D+01
 Coeff-En:   0.000D+00 0.000D+00 0.000D+00 0.000D+00 0.000D+00 0.000D+00
 Coeff-En:   0.000D+00 0.000D+00 0.000D+00 0.000D+00 0.000D+00 0.000D+00
 Coeff-En:   0.000D+00 0.000D+00 0.000D+00 0.100D+01
 Coeff:     -0.420D-03 0.816D-03 0.516D-02-0.215D-02 0.316D-01 0.298D-01
 Coeff:     -0.468D-01-0.303D+00-0.716D-01 0.508D+00 0.336D+00-0.158D+00
 Coeff:     -0.118D+01 0.397D-01 0.215D+00 0.159D+01
 Gap=     0.357 Goal=   None    Shift=    0.000
 Gap=     0.130 Goal=   None    Shift=    0.000
 RMSDP=1.47D-04 MaxDP=1.45D-02 DE=-2.28D-04 OVMax= 6.07D-02

 Cycle  17  Pass 1  IDiag  1:
 RMSU=  2.05D-05    CP:  9.98D-01  1.32D+00  4.97D-01  1.58D-01  6.78D-01
                    CP:  8.03D-01  3.00D+00  3.00D+00  3.00D+00  3.00D+00
                    CP:  3.00D+00  3.00D+00  3.00D+00  3.00D+00  2.74D+00
                    CP:  3.00D+00
 E= -2682.19503350690     Delta-E=       -0.000384880141 Rises=F Damp=F
 DIIS: error= 1.11D-04 at cycle  17 NSaved=  17.
 NSaved=17 IEnMin=17 EnMin= -2682.19503350690     IErMin=17 ErrMin= 1.11D-04
 ErrMax= 1.11D-04  0.00D+00 EMaxC= 1.00D-01 BMatC= 8.83D-05 BMatP= 1.03D-04
 IDIUse=3 WtCom= 9.99D-01 WtEn= 1.11D-03
 Coeff-Com: -0.449D-04 0.948D-04 0.383D-02-0.200D-02 0.163D-01 0.844D-02
 Coeff-Com:  0.122D-01-0.684D-01-0.157D+00 0.344D+00-0.160D+00 0.136D-01
 Coeff-Com:  0.129D+00 0.556D-01-0.106D+01 0.105D+01 0.815D+00
 Coeff-En:   0.000D+00 0.000D+00 0.000D+00 0.000D+00 0.000D+00 0.000D+00
 Coeff-En:   0.000D+00 0.000D+00 0.000D+00 0.000D+00 0.000D+00 0.000D+00
 Coeff-En:   0.000D+00 0.000D+00 0.000D+00 0.000D+00 0.100D+01
 Coeff:     -0.449D-04 0.947D-04 0.382D-02-0.200D-02 0.163D-01 0.843D-02
 Coeff:      0.122D-01-0.683D-01-0.156D+00 0.343D+00-0.160D+00 0.136D-01
 Coeff:      0.129D+00 0.555D-01-0.105D+01 0.104D+01 0.816D+00
 Gap=     0.357 Goal=   None    Shift=    0.000
 Gap=     0.129 Goal=   None    Shift=    0.000
 RMSDP=1.93D-05 MaxDP=1.93D-03 DE=-3.85D-04 OVMax= 6.02D-03

 Cycle  18  Pass 1  IDiag  1:
 RMSU=  1.85D-05    CP:  9.98D-01  1.32D+00  4.96D-01  1.62D-01  6.78D-01
                    CP:  7.99D-01  3.00D+00  3.00D+00  3.00D+00  3.00D+00
                    CP:  3.00D+00  3.00D+00  3.00D+00  3.00D+00  2.71D+00
                    CP:  3.00D+00  1.15D+00
 E= -2682.19507202827     Delta-E=       -0.000038521361 Rises=F Damp=F
 DIIS: error= 1.27D-04 at cycle  18 NSaved=  18.
 NSaved=18 IEnMin=18 EnMin= -2682.19507202827     IErMin=17 ErrMin= 1.11D-04
 ErrMax= 1.27D-04  0.00D+00 EMaxC= 1.00D-01 BMatC= 6.00D-05 BMatP= 8.83D-05
 IDIUse=3 WtCom= 9.99D-01 WtEn= 1.11D-03
 Coeff-Com:  0.828D-04-0.200D-03 0.314D-02-0.183D-02 0.103D-01 0.208D-02
 Coeff-Com:  0.534D-02-0.306D-01-0.581D-01 0.191D+00-0.179D+00-0.278D+00
 Coeff-Com:  0.619D+00 0.269D+00-0.951D+00 0.359D-01 0.576D+00 0.786D+00
 Coeff-En:   0.000D+00 0.000D+00 0.000D+00 0.000D+00 0.000D+00 0.000D+00
 Coeff-En:   0.000D+00 0.000D+00 0.000D+00 0.000D+00 0.000D+00 0.000D+00
 Coeff-En:   0.000D+00 0.000D+00 0.000D+00 0.000D+00 0.000D+00 0.100D+01
 Coeff:      0.827D-04-0.200D-03 0.314D-02-0.183D-02 0.103D-01 0.208D-02
 Coeff:      0.534D-02-0.305D-01-0.580D-01 0.190D+00-0.178D+00-0.278D+00
 Coeff:      0.619D+00 0.268D+00-0.949D+00 0.358D-01 0.576D+00 0.787D+00
 Gap=     0.356 Goal=   None    Shift=    0.000
 Gap=     0.128 Goal=   None    Shift=    0.000
 RMSDP=3.16D-05 MaxDP=3.38D-03 DE=-3.85D-05 OVMax= 1.44D-02

 Cycle  19  Pass 1  IDiag  1:
 RMSU=  4.23D-06    CP:  9.98D-01  1.32D+00  4.96D-01  1.68D-01  6.64D-01
                    CP:  7.85D-01  3.00D+00  3.00D+00  3.00D+00  3.00D+00
                    CP:  3.00D+00  3.00D+00  3.00D+00  3.00D+00  2.89D+00
                    CP:  3.00D+00  1.67D+00  2.17D+00
 E= -2682.19513834851     Delta-E=       -0.000066320243 Rises=F Damp=F
 DIIS: error= 1.21D-04 at cycle  19 NSaved=  19.
 NSaved=19 IEnMin=19 EnMin= -2682.19513834851     IErMin=17 ErrMin= 1.11D-04
 ErrMax= 1.21D-04  0.00D+00 EMaxC= 1.00D-01 BMatC= 5.39D-05 BMatP= 6.00D-05
 IDIUse=3 WtCom= 9.99D-01 WtEn= 1.11D-03
 Coeff-Com: -0.778D-04 0.155D-03 0.313D-02-0.203D-02 0.129D-01 0.627D-02
 Coeff-Com: -0.635D-02-0.763D-01-0.172D-01 0.126D+00 0.239D-02-0.381D+00
 Coeff-Com:  0.446D+00 0.335D+00-0.518D+00-0.262D+00 0.374D+00-0.242D+00
 Coeff-Com:  0.120D+01
 Coeff-En:   0.000D+00 0.000D+00 0.000D+00 0.000D+00 0.000D+00 0.000D+00
 Coeff-En:   0.000D+00 0.000D+00 0.000D+00 0.000D+00 0.000D+00 0.000D+00
 Coeff-En:   0.000D+00 0.000D+00 0.000D+00 0.000D+00 0.000D+00 0.000D+00
 Coeff-En:   0.100D+01
 Coeff:     -0.777D-04 0.155D-03 0.313D-02-0.203D-02 0.129D-01 0.626D-02
 Coeff:     -0.634D-02-0.762D-01-0.172D-01 0.126D+00 0.238D-02-0.381D+00
 Coeff:      0.446D+00 0.334D+00-0.517D+00-0.262D+00 0.373D+00-0.242D+00
 Coeff:      0.120D+01
 Gap=     0.355 Goal=   None    Shift=    0.000
 Gap=     0.128 Goal=   None    Shift=    0.000
 RMSDP=3.11D-05 MaxDP=3.39D-03 DE=-6.63D-05 OVMax= 1.49D-02

 Cycle  20  Pass 1  IDiag  1:
 RMSU=  8.60D-06    CP:  9.98D-01  1.32D+00  4.95D-01  1.73D-01  6.49D-01
                    CP:  7.71D-01  3.00D+00  3.00D+00  3.00D+00  3.00D+00
                    CP:  3.00D+00  3.00D+00  3.00D+00  3.00D+00  3.00D+00
                    CP:  3.00D+00  2.26D+00  3.00D+00  1.83D+00
 E= -2682.19520075934     Delta-E=       -0.000062410828 Rises=F Damp=F
 DIIS: error= 1.14D-04 at cycle  20 NSaved=  20.
 NSaved=20 IEnMin=20 EnMin= -2682.19520075934     IErMin=17 ErrMin= 1.11D-04
 ErrMax= 1.14D-04  0.00D+00 EMaxC= 1.00D-01 BMatC= 4.68D-05 BMatP= 5.39D-05
 IDIUse=3 WtCom= 9.99D-01 WtEn= 1.11D-03
 Coeff-Com: -0.142D-03 0.281D-03 0.293D-02-0.195D-02 0.153D-01 0.106D-01
 Coeff-Com: -0.126D-02-0.956D-01-0.802D-01 0.276D+00-0.409D-01-0.129D+00
 Coeff-Com:  0.800D-01 0.190D+00-0.550D+00 0.434D+00 0.404D+00-0.110D+01
 Coeff-Com: -0.293D+00 0.188D+01
 Coeff-En:   0.000D+00 0.000D+00 0.000D+00 0.000D+00 0.000D+00 0.000D+00
 Coeff-En:   0.000D+00 0.000D+00 0.000D+00 0.000D+00 0.000D+00 0.000D+00
 Coeff-En:   0.000D+00 0.000D+00 0.000D+00 0.000D+00 0.000D+00 0.000D+00
 Coeff-En:   0.000D+00 0.100D+01
 Coeff:     -0.142D-03 0.281D-03 0.292D-02-0.195D-02 0.153D-01 0.106D-01
 Coeff:     -0.125D-02-0.954D-01-0.801D-01 0.276D+00-0.409D-01-0.129D+00
 Coeff:      0.799D-01 0.189D+00-0.549D+00 0.433D+00 0.404D+00-0.110D+01
 Coeff:     -0.292D+00 0.188D+01
 Gap=     0.354 Goal=   None    Shift=    0.000
 Gap=     0.128 Goal=   None    Shift=    0.000
 RMSDP=3.48D-05 MaxDP=3.48D-03 DE=-6.24D-05 OVMax= 1.47D-02

 Cycle  21  Pass 1  IDiag  1:
 Restarting incremental Fock formation.
 E= -2682.19526625725     Delta-E=       -0.000065497915 Rises=F Damp=F
 DIIS: error= 1.18D-04 at cycle  21 NSaved=  20.
 NSaved=20 IEnMin=20 EnMin= -2682.19526625725     IErMin=16 ErrMin= 1.11D-04
 ErrMax= 1.18D-04  0.00D+00 EMaxC= 1.00D-01 BMatC= 5.09D-05 BMatP= 4.68D-05
 IDIUse=3 WtCom= 9.99D-01 WtEn= 1.11D-03
 Coeff-Com: -0.708D-04 0.283D-02-0.183D-02 0.138D-01 0.810D-02 0.597D-03
 Coeff-Com: -0.744D-01-0.829D-01 0.257D+00-0.660D-01-0.112D+00 0.140D+00
 Coeff-Com:  0.167D+00-0.607D+00 0.446D+00 0.446D+00-0.998D+00-0.484D+00
 Coeff-Com:  0.181D+01 0.134D+00
 Coeff-En:   0.000D+00 0.000D+00 0.000D+00 0.000D+00 0.000D+00 0.000D+00
 Coeff-En:   0.000D+00 0.000D+00 0.000D+00 0.000D+00 0.000D+00 0.000D+00
 Coeff-En:   0.000D+00 0.000D+00 0.000D+00 0.000D+00 0.000D+00 0.000D+00
 Coeff-En:   0.000D+00 0.100D+01
 Coeff:     -0.707D-04 0.282D-02-0.183D-02 0.138D-01 0.809D-02 0.597D-03
 Coeff:     -0.743D-01-0.829D-01 0.257D+00-0.659D-01-0.112D+00 0.140D+00
 Coeff:      0.167D+00-0.607D+00 0.446D+00 0.445D+00-0.997D+00-0.483D+00
 Coeff:      0.181D+01 0.135D+00
 Gap=     0.354 Goal=   None    Shift=    0.000
 Gap=     0.128 Goal=   None    Shift=    0.000
 RMSDP=3.73D-06 MaxDP=4.26D-04 DE=-6.55D-05 OVMax= 1.51D-03

 Cycle  22  Pass 1  IDiag  1:
 RMSU=  3.73D-06    CP:  1.00D+00
 E= -2682.19527306984     Delta-E=       -0.000006812588 Rises=F Damp=F
 DIIS: error= 1.19D-04 at cycle  22 NSaved=  20.
 NSaved=20 IEnMin=20 EnMin= -2682.19527306984     IErMin=15 ErrMin= 1.11D-04
 ErrMax= 1.19D-04  0.00D+00 EMaxC= 1.00D-01 BMatC= 5.15D-05 BMatP= 4.68D-05
 IDIUse=3 WtCom= 9.99D-01 WtEn= 1.11D-03
 Coeff-Com: -0.664D-04 0.323D-02 0.892D-02 0.431D-02-0.472D-01-0.135D+00
 Coeff-Com:  0.489D-01 0.531D+00-0.281D+00-0.284D+00 0.975D-01 0.258D+00
 Coeff-Com: -0.521D+00 0.466D+00 0.344D+00-0.112D+01-0.395D+00 0.220D+01
 Coeff-Com:  0.211D+01-0.229D+01
 Coeff-En:   0.000D+00 0.000D+00 0.000D+00 0.000D+00 0.000D+00 0.000D+00
 Coeff-En:   0.000D+00 0.000D+00 0.000D+00 0.000D+00 0.000D+00 0.000D+00
 Coeff-En:   0.000D+00 0.000D+00 0.000D+00 0.000D+00 0.000D+00 0.000D+00
 Coeff-En:   0.000D+00 0.100D+01
 Coeff:     -0.663D-04 0.323D-02 0.891D-02 0.431D-02-0.471D-01-0.135D+00
 Coeff:      0.488D-01 0.530D+00-0.281D+00-0.283D+00 0.974D-01 0.257D+00
 Coeff:     -0.520D+00 0.466D+00 0.343D+00-0.112D+01-0.395D+00 0.220D+01
 Coeff:      0.211D+01-0.228D+01
 Gap=     0.354 Goal=   None    Shift=    0.000
 Gap=     0.127 Goal=   None    Shift=    0.000
 RMSDP=1.40D-05 MaxDP=1.50D-03 DE=-6.81D-06 OVMax= 6.88D-03

 Cycle  23  Pass 1  IDiag  1:
 RMSU=  3.94D-06    CP:  1.00D+00 -2.60D+00
 E= -2682.19524602083     Delta-E=        0.000027049005 Rises=F Damp=F
 DIIS: error= 1.08D-04 at cycle  23 NSaved=  20.
 NSaved=20 IEnMin=19 EnMin= -2682.19527306984     IErMin=20 ErrMin= 1.08D-04
 ErrMax= 1.08D-04  0.00D+00 EMaxC= 1.00D-01 BMatC= 4.72D-05 BMatP= 4.68D-05
 IDIUse=3 WtCom= 9.99D-01 WtEn= 1.08D-03
 Rare condition: small coef for last iteration:  0.000D+00
 Coeff-Com:  0.325D-02 0.876D-02 0.397D-02-0.478D-01-0.136D+00 0.507D-01
 Coeff-Com:  0.538D+00-0.285D+00-0.284D+00 0.908D-01 0.264D+00-0.528D+00
 Coeff-Com:  0.465D+00 0.349D+00-0.111D+01-0.387D+00 0.215D+01 0.195D+01
 Coeff-Com: -0.199D+01-0.106D+00
 Coeff-En:   0.000D+00 0.000D+00 0.000D+00 0.000D+00 0.000D+00 0.000D+00
 Coeff-En:   0.000D+00 0.000D+00 0.000D+00 0.000D+00 0.000D+00 0.000D+00
 Coeff-En:   0.000D+00 0.000D+00 0.000D+00 0.000D+00 0.000D+00 0.000D+00
 Coeff-En:   0.000D+00 0.100D+01
 Coeff:      0.325D-02 0.876D-02 0.397D-02-0.478D-01-0.136D+00 0.507D-01
 Coeff:      0.538D+00-0.285D+00-0.284D+00 0.908D-01 0.264D+00-0.528D+00
 Coeff:      0.465D+00 0.349D+00-0.111D+01-0.387D+00 0.215D+01 0.195D+01
 Coeff:     -0.199D+01-0.106D+00
 Gap=     0.354 Goal=   None    Shift=    0.000
 Gap=     0.127 Goal=   None    Shift=    0.000
 RMSDP=2.43D-06 MaxDP=2.97D-04 DE= 2.70D-05 OVMax= 9.37D-04

 Cycle  24  Pass 1  IDiag  1:
 RMSU=  2.39D-07    CP:  1.00D+00 -1.96D+00  1.02D+00
 E= -2682.19525016453     Delta-E=       -0.000004143692 Rises=F Damp=F
 DIIS: error= 1.09D-04 at cycle  24 NSaved=  20.
 NSaved=20 IEnMin=18 EnMin= -2682.19527306984     IErMin=19 ErrMin= 1.08D-04
 ErrMax= 1.09D-04  0.00D+00 EMaxC= 1.00D-01 BMatC= 4.84D-05 BMatP= 4.68D-05
 IDIUse=3 WtCom= 9.99D-01 WtEn= 1.08D-03
 Large coefficients: NSaved= 20 BigCof=   38.65 CofMax=   10.00 Det=-1.01D-09
 Inversion failed.  Reducing to 19 matrices.
 Large coefficients: NSaved= 19 BigCof=   39.85 CofMax=   10.00 Det=-1.03D-09
 Inversion failed.  Reducing to 18 matrices.
 Large coefficients: NSaved= 18 BigCof=   39.69 CofMax=   10.00 Det=-1.03D-09
 Inversion failed.  Reducing to 17 matrices.
 Large coefficients: NSaved= 17 BigCof=   45.80 CofMax=   10.00 Det=-1.57D-09
 Inversion failed.  Reducing to 16 matrices.
 Large coefficients: NSaved= 16 BigCof=   45.70 CofMax=   10.00 Det=-1.63D-09
 Inversion failed.  Reducing to 15 matrices.
 Large coefficients: NSaved= 15 BigCof=   45.83 CofMax=   10.00 Det=-1.64D-09
 Inversion failed.  Reducing to 14 matrices.
 Large coefficients: NSaved= 14 BigCof=   50.36 CofMax=   10.00 Det=-1.67D-09
 Inversion failed.  Reducing to 13 matrices.
 Large coefficients: NSaved= 13 BigCof=   49.72 CofMax=   10.00 Det=-1.77D-09
 Inversion failed.  Reducing to 12 matrices.
 Large coefficients: NSaved= 12 BigCof=   49.78 CofMax=   10.00 Det=-1.80D-09
 Inversion failed.  Reducing to 11 matrices.
 Large coefficients: NSaved= 11 BigCof=   48.91 CofMax=   10.00 Det=-1.82D-09
 Inversion failed.  Reducing to 10 matrices.
 Large coefficients: NSaved= 10 BigCof=   48.42 CofMax=   10.00 Det=-1.83D-09
 Inversion failed.  Reducing to  9 matrices.
 Large coefficients: NSaved=  9 BigCof=   48.47 CofMax=   10.00 Det=-1.84D-09
 Inversion failed.  Reducing to  8 matrices.
 Large coefficients: NSaved=  8 BigCof=   48.66 CofMax=   10.00 Det=-1.84D-09
 Inversion failed.  Reducing to  7 matrices.
 Large coefficients: NSaved=  7 BigCof=   43.74 CofMax=   10.00 Det=-2.03D-09
 Inversion failed.  Reducing to  6 matrices.
 Large coefficients: NSaved=  6 BigCof=   54.63 CofMax=   10.00 Det=-2.69D-09
 Inversion failed.  Reducing to  5 matrices.
 Large coefficients: NSaved=  5 BigCof=   57.69 CofMax=   10.00 Det=-2.90D-09
 Inversion failed.  Reducing to  4 matrices.
 Large coefficients: NSaved=  4 BigCof=   66.46 CofMax=   10.00 Det=-5.95D-09
 Inversion failed.  Reducing to  3 matrices.
 Large coefficients: NSaved=  3 BigCof=   62.26 CofMax=   10.00 Det=-9.52D-09
 Inversion failed.  Reducing to  2 matrices.
 Large coefficients: NSaved=  2 BigCof=   41.79 CofMax=   10.00 Det=-1.37D-08
 Coeff-Com:  0.418D+02-0.408D+02
 Coeff-En:   0.000D+00 0.100D+01
 Coeff:      0.417D+02-0.407D+02
 Gap=     0.355 Goal=   None    Shift=    0.000
 Gap=     0.129 Goal=   None    Shift=    0.000
 RMSDP=8.94D-05 MaxDP=1.13D-02 DE=-4.14D-06 OVMax= 3.32D-02

 Cycle  25  Pass 1  IDiag  1:
 RMSU=  8.52D-05    CP:  1.00D+00 -3.00D+00 -2.98D-01 -3.00D+00
 E= -2682.19509193207     Delta-E=        0.000158232458 Rises=F Damp=F
 DIIS: error= 1.16D-04 at cycle  25 NSaved=   3.
 NSaved= 3 IEnMin= 2 EnMin= -2682.19525016453     IErMin= 1 ErrMin= 1.08D-04
 ErrMax= 1.16D-04  0.00D+00 EMaxC= 1.00D-01 BMatC= 1.90D-05 BMatP= 4.72D-05
 IDIUse=3 WtCom= 9.99D-01 WtEn= 1.08D-03
 Large coefficients: NSaved=  3 BigCof=   19.61 CofMax=   10.00 Det=-9.87D-09
 Inversion failed.  Reducing to  2 matrices.
 Coeff-Com:  0.317D+00 0.683D+00
 Coeff-En:   0.000D+00 0.100D+01
 Coeff:      0.317D+00 0.683D+00
 Gap=     0.354 Goal=   None    Shift=    0.000
 Gap=     0.129 Goal=   None    Shift=    0.000
 RMSDP=4.15D-05 MaxDP=4.89D-03 DE= 1.58D-04 OVMax= 1.77D-02

 Cycle  26  Pass 1  IDiag  1:
 RMSU=  4.78D-06    CP:  1.00D+00 -3.00D+00 -1.06D+00 -3.00D+00  5.17D-01
 E= -2682.19517066910     Delta-E=       -0.000078737028 Rises=F Damp=F
 DIIS: error= 8.21D-05 at cycle  26 NSaved=   3.
 NSaved= 3 IEnMin= 1 EnMin= -2682.19525016453     IErMin= 3 ErrMin= 8.21D-05
 ErrMax= 8.21D-05  0.00D+00 EMaxC= 1.00D-01 BMatC= 3.64D-05 BMatP= 1.90D-05
 IDIUse=1 WtCom= 1.00D+00 WtEn= 0.00D+00
 Coeff-Com:  0.916D-01 0.589D+00 0.319D+00
 Coeff:      0.916D-01 0.589D+00 0.319D+00
 Gap=     0.354 Goal=   None    Shift=    0.000
 Gap=     0.129 Goal=   None    Shift=    0.000
 RMSDP=7.69D-06 MaxDP=1.07D-03 DE=-7.87D-05 OVMax= 2.53D-03

 Cycle  27  Pass 1  IDiag  1:
 RMSU=  2.57D-06    CP:  1.00D+00 -3.00D+00 -1.24D+00 -3.00D+00  6.02D-01
                    CP:  8.95D-01
 E= -2682.19516103252     Delta-E=        0.000009636580 Rises=F Damp=F
 DIIS: error= 8.27D-05 at cycle  27 NSaved=   4.
 NSaved= 4 IEnMin= 1 EnMin= -2682.19525016453     IErMin= 3 ErrMin= 8.21D-05
 ErrMax= 8.27D-05  0.00D+00 EMaxC= 1.00D-01 BMatC= 1.88D-05 BMatP= 1.90D-05
 IDIUse=1 WtCom= 1.00D+00 WtEn= 0.00D+00
 Coeff-Com: -0.210D+00 0.413D+00-0.248D+00 0.104D+01
 Coeff:     -0.210D+00 0.413D+00-0.248D+00 0.104D+01
 Gap=     0.354 Goal=   None    Shift=    0.000
 Gap=     0.129 Goal=   None    Shift=    0.000
 RMSDP=1.52D-05 MaxDP=2.22D-03 DE= 9.64D-06 OVMax= 5.01D-03

 Cycle  28  Pass 1  IDiag  1:
 RMSU=  1.21D-06    CP:  1.00D+00 -3.00D+00 -1.98D+00 -3.00D+00  7.73D-01
                    CP:  1.29D+00  1.95D+00
 E= -2682.19513491160     Delta-E=        0.000026120914 Rises=F Damp=F
 DIIS: error= 8.13D-05 at cycle  28 NSaved=   5.
 NSaved= 5 IEnMin= 1 EnMin= -2682.19525016453     IErMin= 5 ErrMin= 8.13D-05
 ErrMax= 8.13D-05  0.00D+00 EMaxC= 1.00D-01 BMatC= 2.00D-05 BMatP= 1.88D-05
 IDIUse=1 WtCom= 1.00D+00 WtEn= 0.00D+00
 Coeff-Com: -0.180D+00 0.438D+00-0.120D+00 0.140D+01-0.533D+00
 Coeff:     -0.180D+00 0.438D+00-0.120D+00 0.140D+01-0.533D+00
 Gap=     0.354 Goal=   None    Shift=    0.000
 Gap=     0.129 Goal=   None    Shift=    0.000
 RMSDP=9.82D-06 MaxDP=1.43D-03 DE= 2.61D-05 OVMax= 3.20D-03

 Cycle  29  Pass 1  IDiag  1:
 RMSU=  3.39D-07    CP:  1.00D+00 -3.00D+00 -1.60D+00 -3.00D+00  6.62D-01
                    CP:  1.03D+00  1.33D+00  4.22D-01
 E= -2682.19515182732     Delta-E=       -0.000016915715 Rises=F Damp=F
 DIIS: error= 8.15D-05 at cycle  29 NSaved=   6.
 NSaved= 6 IEnMin= 1 EnMin= -2682.19525016453     IErMin= 5 ErrMin= 8.13D-05
 ErrMax= 8.15D-05  0.00D+00 EMaxC= 1.00D-01 BMatC= 2.06D-05 BMatP= 1.88D-05
 IDIUse=1 WtCom= 1.00D+00 WtEn= 0.00D+00
 Coeff-Com: -0.249D+00 0.411D+00-0.197D+00 0.172D+01-0.135D+01 0.665D+00
 Coeff:     -0.249D+00 0.411D+00-0.197D+00 0.172D+01-0.135D+01 0.665D+00
 Gap=     0.354 Goal=   None    Shift=    0.000
 Gap=     0.129 Goal=   None    Shift=    0.000
 RMSDP=5.19D-06 MaxDP=7.62D-04 DE=-1.69D-05 OVMax= 1.68D-03

 Cycle  30  Pass 1  IDiag  1:
 RMSU=  1.95D-07    CP:  1.00D+00 -3.00D+00 -1.48D+00 -3.00D+00  6.03D-01
                    CP:  8.81D-01  1.03D+00  6.08D-02  1.51D+00
 E= -2682.19516075356     Delta-E=       -0.000008926243 Rises=F Damp=F
 DIIS: error= 8.18D-05 at cycle  30 NSaved=   7.
 NSaved= 7 IEnMin= 1 EnMin= -2682.19525016453     IErMin= 5 ErrMin= 8.13D-05
 ErrMax= 8.18D-05  0.00D+00 EMaxC= 1.00D-01 BMatC= 2.09D-05 BMatP= 1.88D-05
 IDIUse=1 WtCom= 1.00D+00 WtEn= 0.00D+00
 Coeff-Com: -0.226D+00 0.402D+00-0.189D+00 0.178D+01-0.136D+01 0.262D+01
 Coeff-Com: -0.203D+01
 Coeff:     -0.226D+00 0.402D+00-0.189D+00 0.178D+01-0.136D+01 0.262D+01
 Coeff:     -0.203D+01
 Gap=     0.354 Goal=   None    Shift=    0.000
 Gap=     0.129 Goal=   None    Shift=    0.000
 RMSDP=8.29D-06 MaxDP=1.22D-03 DE=-8.93D-06 OVMax= 2.83D-03

 Cycle  31  Pass 1  IDiag  1:
 RMSU=  2.13D-07    CP:  1.00D+00 -3.00D+00 -1.62D+00 -3.00D+00  6.97D-01
                    CP:  1.15D+00  1.52D+00  6.92D-01  4.72D-01 -1.20D+00
 E= -2682.19514645556     Delta-E=        0.000014297999 Rises=F Damp=F
 DIIS: error= 8.09D-05 at cycle  31 NSaved=   8.
 NSaved= 8 IEnMin= 1 EnMin= -2682.19525016453     IErMin= 8 ErrMin= 8.09D-05
 ErrMax= 8.09D-05  0.00D+00 EMaxC= 1.00D-01 BMatC= 2.08D-05 BMatP= 1.88D-05
 IDIUse=1 WtCom= 1.00D+00 WtEn= 0.00D+00
 Coeff-Com: -0.275D+00 0.376D+00-0.260D+00 0.204D+01-0.203D+01 0.328D+01
 Coeff-Com: -0.323D+01 0.111D+01
 Coeff:     -0.275D+00 0.376D+00-0.260D+00 0.204D+01-0.203D+01 0.328D+01
 Coeff:     -0.323D+01 0.111D+01
 Gap=     0.354 Goal=   None    Shift=    0.000
 Gap=     0.129 Goal=   None    Shift=    0.000
 RMSDP=4.87D-06 MaxDP=7.02D-04 DE= 1.43D-05 OVMax= 1.84D-03

 Cycle  32  Pass 1  IDiag  1:
 RMSU=  1.61D-07    CP:  1.00D+00 -3.00D+00 -1.64D+00 -3.00D+00  7.52D-01
                    CP:  1.33D+00  1.76D+00  1.09D+00 -2.39D-01 -3.00D+00
                    CP:  2.37D+00
 E= -2682.19513795087     Delta-E=        0.000008504688 Rises=F Damp=F
 DIIS: error= 8.08D-05 at cycle  32 NSaved=   9.
 NSaved= 9 IEnMin= 1 EnMin= -2682.19525016453     IErMin= 9 ErrMin= 8.08D-05
 ErrMax= 8.08D-05  0.00D+00 EMaxC= 1.00D-01 BMatC= 2.10D-05 BMatP= 1.88D-05
 IDIUse=1 WtCom= 1.00D+00 WtEn= 0.00D+00
 Coeff-Com: -0.292D+00 0.378D+00-0.275D+00 0.208D+01-0.219D+01 0.276D+01
 Coeff-Com: -0.292D+01 0.472D+00 0.980D+00
 Coeff:     -0.292D+00 0.378D+00-0.275D+00 0.208D+01-0.219D+01 0.276D+01
 Coeff:     -0.292D+01 0.472D+00 0.980D+00
 Gap=     0.354 Goal=   None    Shift=    0.000
 Gap=     0.129 Goal=   None    Shift=    0.000
 RMSDP=3.77D-06 MaxDP=5.22D-04 DE= 8.50D-06 OVMax= 1.58D-03

 Cycle  33  Pass 1  IDiag  1:
 RMSU=  3.93D-07    CP:  1.00D+00 -3.00D+00 -1.60D+00 -3.00D+00  7.95D-01
                    CP:  1.45D+00  1.90D+00  1.39D+00 -8.38D-01 -3.00D+00
                    CP:  3.00D+00  2.54D+00
 E= -2682.19513129016     Delta-E=        0.000006660718 Rises=F Damp=F
 DIIS: error= 8.09D-05 at cycle  33 NSaved=  10.
 NSaved=10 IEnMin= 1 EnMin= -2682.19525016453     IErMin= 9 ErrMin= 8.08D-05
 ErrMax= 8.09D-05  0.00D+00 EMaxC= 1.00D-01 BMatC= 2.09D-05 BMatP= 1.88D-05
 IDIUse=1 WtCom= 1.00D+00 WtEn= 0.00D+00
 Coeff-Com: -0.298D+00 0.374D+00-0.286D+00 0.212D+01-0.229D+01 0.297D+01
 Coeff-Com: -0.328D+01 0.831D+00 0.174D+01-0.890D+00
 Coeff:     -0.298D+00 0.374D+00-0.286D+00 0.212D+01-0.229D+01 0.297D+01
 Coeff:     -0.328D+01 0.831D+00 0.174D+01-0.890D+00
 Gap=     0.354 Goal=   None    Shift=    0.000
 Gap=     0.129 Goal=   None    Shift=    0.000
 RMSDP=2.27D-06 MaxDP=3.00D-04 DE= 6.66D-06 OVMax= 1.05D-03

 Cycle  34  Pass 1  IDiag  1:
 RMSU=  6.91D-08    CP:  1.00D+00 -3.00D+00 -1.65D+00 -3.00D+00  7.69D-01
                    CP:  1.38D+00  1.85D+00  1.22D+00 -4.48D-01 -3.00D+00
                    CP:  2.70D+00  1.27D+00  1.90D-01
 E= -2682.19513533111     Delta-E=       -0.000004040956 Rises=F Damp=F
 DIIS: error= 8.09D-05 at cycle  34 NSaved=  11.
 NSaved=11 IEnMin= 1 EnMin= -2682.19525016453     IErMin= 9 ErrMin= 8.08D-05
 ErrMax= 8.09D-05  0.00D+00 EMaxC= 1.00D-01 BMatC= 2.10D-05 BMatP= 1.88D-05
 IDIUse=1 WtCom= 1.00D+00 WtEn= 0.00D+00
 Large coefficients: NSaved= 11 BigCof=   24.75 CofMax=   10.00 Det=-8.88D-11
 Inversion failed.  Reducing to 10 matrices.
 Large coefficients: NSaved= 10 BigCof=   31.87 CofMax=   10.00 Det=-9.02D-11
 Inversion failed.  Reducing to  9 matrices.
 Large coefficients: NSaved=  9 BigCof=   63.97 CofMax=   10.00 Det=-1.33D-10
 Inversion failed.  Reducing to  8 matrices.
 Large coefficients: NSaved=  8 BigCof=   25.70 CofMax=   10.00 Det=-4.45D-10
 Inversion failed.  Reducing to  7 matrices.
 Large coefficients: NSaved=  7 BigCof=   23.58 CofMax=   10.00 Det=-4.80D-10
 Inversion failed.  Reducing to  6 matrices.
 Large coefficients: NSaved=  6 BigCof=   24.93 CofMax=   10.00 Det=-4.89D-10
 Inversion failed.  Reducing to  5 matrices.
 Large coefficients: NSaved=  5 BigCof=   24.64 CofMax=   10.00 Det=-4.90D-10
 Inversion failed.  Reducing to  4 matrices.
 Large coefficients: NSaved=  4 BigCof=   50.13 CofMax=   10.00 Det=-5.44D-10
 Inversion failed.  Reducing to  3 matrices.
 Large coefficients: NSaved=  3 BigCof=   83.87 CofMax=   10.00 Det=-6.23D-10
 Inversion failed.  Reducing to  2 matrices.
 Large coefficients: NSaved=  2 BigCof=   84.67 CofMax=   10.00 Det=-6.24D-10
 Coeff-Com:  0.847D+02-0.837D+02
 Coeff:      0.847D+02-0.837D+02
 Gap=     0.357 Goal=   None    Shift=    0.000
 Gap=     0.130 Goal=   None    Shift=    0.000
 RMSDP=1.77D-04 MaxDP=2.30D-02 DE=-4.04D-06 OVMax= 7.23D-02

 Cycle  35  Pass 1  IDiag  1:
 RMSU=  4.85D-05    CP:  1.00D+00 -3.00D+00  1.23D+00 -3.00D+00  2.74D+00
                    CP:  3.00D+00  3.00D+00  3.00D+00 -3.00D+00 -3.00D+00
                    CP:  3.00D+00  3.00D+00  3.00D+00 -3.00D+00
 E= -2682.19480613729     Delta-E=        0.000329193821 Rises=F Damp=F
 DIIS: error= 7.80D-05 at cycle  35 NSaved=   3.
 NSaved= 3 IEnMin= 2 EnMin= -2682.19513533111     IErMin= 3 ErrMin= 7.80D-05
 ErrMax= 7.80D-05  0.00D+00 EMaxC= 1.00D-01 BMatC= 2.00D-05 BMatP= 2.09D-05
 IDIUse=1 WtCom= 1.00D+00 WtEn= 0.00D+00
 Large coefficients: NSaved=  3 BigCof=   90.73 CofMax=   10.00 Det=-6.19D-10
 Inversion failed.  Reducing to  2 matrices.
 Coeff-Com:  0.452D+00 0.548D+00
 Coeff:      0.452D+00 0.548D+00
 Gap=     0.356 Goal=   None    Shift=    0.000
 Gap=     0.128 Goal=   None    Shift=    0.000
 RMSDP=9.17D-05 MaxDP=1.13D-02 DE= 3.29D-04 OVMax= 4.06D-02

 Cycle  36  Pass 1  IDiag  1:
 RMSU=  7.13D-06    CP:  1.00D+00 -3.00D+00 -3.06D-02 -3.00D+00  1.72D+00
                    CP:  3.00D+00  3.00D+00  3.00D+00 -3.00D+00 -3.00D+00
                    CP:  3.00D+00  3.00D+00  3.00D+00 -3.00D+00  4.22D-01
 E= -2682.19498197198     Delta-E=       -0.000175834693 Rises=F Damp=F
 DIIS: error= 9.84D-05 at cycle  36 NSaved=   3.
 NSaved= 3 IEnMin= 1 EnMin= -2682.19513533111     IErMin= 2 ErrMin= 7.80D-05
 ErrMax= 9.84D-05  0.00D+00 EMaxC= 1.00D-01 BMatC= 1.46D-05 BMatP= 2.00D-05
 IDIUse=1 WtCom= 1.00D+00 WtEn= 0.00D+00
 Coeff-Com:  0.306D+00 0.148D+00 0.546D+00
 Coeff:      0.306D+00 0.148D+00 0.546D+00
 Gap=     0.355 Goal=   None    Shift=    0.000
 Gap=     0.129 Goal=   None    Shift=    0.000
 RMSDP=2.54D-05 MaxDP=3.15D-03 DE=-1.76D-04 OVMax= 1.22D-02

 Cycle  37  Pass 1  IDiag  1:
 RMSU=  2.68D-06    CP:  1.00D+00 -3.00D+00 -9.27D-01 -3.00D+00  1.43D+00
                    CP:  3.00D+00  3.00D+00  3.00D+00 -3.00D+00 -3.00D+00
                    CP:  3.00D+00  3.00D+00  3.00D+00 -3.00D+00  3.29D-01
                    CP:  6.64D-01
 E= -2682.19503096384     Delta-E=       -0.000048991853 Rises=F Damp=F
 DIIS: error= 7.48D-05 at cycle  37 NSaved=   4.
 NSaved= 4 IEnMin= 1 EnMin= -2682.19513533111     IErMin= 4 ErrMin= 7.48D-05
 ErrMax= 7.48D-05  0.00D+00 EMaxC= 1.00D-01 BMatC= 1.80D-05 BMatP= 1.46D-05
 IDIUse=1 WtCom= 1.00D+00 WtEn= 0.00D+00
 Coeff-Com: -0.185D+00-0.163D-01 0.538D+00 0.663D+00
 Coeff:     -0.185D+00-0.163D-01 0.538D+00 0.663D+00
 Gap=     0.355 Goal=   None    Shift=    0.000
 Gap=     0.130 Goal=   None    Shift=    0.000
 RMSDP=1.13D-05 MaxDP=1.70D-03 DE=-4.90D-05 OVMax= 4.01D-03

 Cycle  38  Pass 1  IDiag  1:
 RMSU=  2.62D-06    CP:  1.00D+00 -3.00D+00 -1.05D+00 -3.00D+00  1.54D+00
                    CP:  3.00D+00  3.00D+00  3.00D+00 -3.00D+00 -3.00D+00
                    CP:  3.00D+00  3.00D+00  3.00D+00 -3.00D+00  4.53D-01
                    CP:  8.13D-01  1.46D+00
 E= -2682.19501356400     Delta-E=        0.000017399841 Rises=F Damp=F
 DIIS: error= 7.58D-05 at cycle  38 NSaved=   5.
 NSaved= 5 IEnMin= 1 EnMin= -2682.19513533111     IErMin= 4 ErrMin= 7.48D-05
 ErrMax= 7.58D-05  0.00D+00 EMaxC= 1.00D-01 BMatC= 2.04D-05 BMatP= 1.46D-05
 IDIUse=1 WtCom= 1.00D+00 WtEn= 0.00D+00
 Coeff-Com: -0.444D+00-0.541D-01 0.553D+00 0.489D+00 0.456D+00
 Coeff:     -0.444D+00-0.541D-01 0.553D+00 0.489D+00 0.456D+00
 Gap=     0.356 Goal=   None    Shift=    0.000
 Gap=     0.130 Goal=   None    Shift=    0.000
 RMSDP=1.67D-05 MaxDP=2.41D-03 DE= 1.74D-05 OVMax= 6.78D-03

 Cycle  39  Pass 1  IDiag  1:
 RMSU=  5.87D-07    CP:  1.00D+00 -3.00D+00 -9.94D-01 -3.00D+00  1.71D+00
                    CP:  3.00D+00  3.00D+00  3.00D+00 -3.00D+00 -3.00D+00
                    CP:  3.00D+00  3.00D+00  3.00D+00 -3.00D+00  6.04D-01
                    CP:  9.43D-01  1.91D+00  1.88D+00
 E= -2682.19498438472     Delta-E=        0.000029179278 Rises=F Damp=F
 DIIS: error= 7.52D-05 at cycle  39 NSaved=   6.
 NSaved= 6 IEnMin= 1 EnMin= -2682.19513533111     IErMin= 4 ErrMin= 7.48D-05
 ErrMax= 7.52D-05  0.00D+00 EMaxC= 1.00D-01 BMatC= 2.17D-05 BMatP= 1.46D-05
 IDIUse=1 WtCom= 1.00D+00 WtEn= 0.00D+00
 Coeff-Com: -0.355D+00-0.470D-01 0.516D+00 0.659D+00 0.130D+01-0.107D+01
 Coeff:     -0.355D+00-0.470D-01 0.516D+00 0.659D+00 0.130D+01-0.107D+01
 Gap=     0.355 Goal=   None    Shift=    0.000
 Gap=     0.130 Goal=   None    Shift=    0.000
 RMSDP=2.57D-05 MaxDP=3.66D-03 DE= 2.92D-05 OVMax= 1.07D-02

 Cycle  40  Pass 1  IDiag  1:
 RMSU=  3.28D-07    CP:  1.00D+00 -3.00D+00 -1.15D+00 -3.00D+00  1.44D+00
                    CP:  3.00D+00  3.00D+00  3.00D+00 -3.00D+00 -3.00D+00
                    CP:  3.00D+00  3.00D+00  3.00D+00 -3.00D+00  3.83D-01
                    CP:  7.34D-01  1.32D+00  6.50D-01 -7.89D-02
 E= -2682.19502922890     Delta-E=       -0.000044844179 Rises=F Damp=F
 DIIS: error= 7.56D-05 at cycle  40 NSaved=   7.
 NSaved= 7 IEnMin= 1 EnMin= -2682.19513533111     IErMin= 4 ErrMin= 7.48D-05
 ErrMax= 7.56D-05  0.00D+00 EMaxC= 1.00D-01 BMatC= 2.24D-05 BMatP= 1.46D-05
 IDIUse=1 WtCom= 1.00D+00 WtEn= 0.00D+00
 Coeff-Com:  0.373D+00-0.943D-01 0.455D+00 0.143D+01-0.216D+00 0.192D+01
 Coeff-Com: -0.287D+01
 Coeff:      0.373D+00-0.943D-01 0.455D+00 0.143D+01-0.216D+00 0.192D+01
 Coeff:     -0.287D+01
 Gap=     0.355 Goal=   None    Shift=    0.000
 Gap=     0.129 Goal=   None    Shift=    0.000
 RMSDP=9.40D-06 MaxDP=1.38D-03 DE=-4.48D-05 OVMax= 3.88D-03

 Cycle  41  Pass 1  IDiag  1:
 Restarting incremental Fock formation.
 E= -2682.19501479144     Delta-E=        0.000014437458 Rises=F Damp=F
 DIIS: error= 7.44D-05 at cycle  41 NSaved=   8.
 NSaved= 8 IEnMin= 1 EnMin= -2682.19513533111     IErMin= 8 ErrMin= 7.44D-05
 ErrMax= 7.44D-05  0.00D+00 EMaxC= 1.00D-01 BMatC= 1.89D-05 BMatP= 1.46D-05
 IDIUse=1 WtCom= 1.00D+00 WtEn= 0.00D+00
 Coeff-Com:  0.118D+01-0.779D-01 0.312D+00 0.197D+01-0.131D+01 0.380D+01
 Coeff-Com: -0.600D+01 0.112D+01
 Coeff:      0.118D+01-0.779D-01 0.312D+00 0.197D+01-0.131D+01 0.380D+01
 Coeff:     -0.600D+01 0.112D+01
 Gap=     0.355 Goal=   None    Shift=    0.000
 Gap=     0.129 Goal=   None    Shift=    0.000
 RMSDP=5.18D-06 MaxDP=5.24D-04 DE= 1.44D-05 OVMax= 1.89D-03

 Cycle  42  Pass 1  IDiag  1:
 RMSU=  5.18D-06    CP:  1.00D+00
 E= -2682.19502498253     Delta-E=       -0.000010191090 Rises=F Damp=F
 DIIS: error= 7.20D-05 at cycle  42 NSaved=   9.
 NSaved= 9 IEnMin= 1 EnMin= -2682.19513533111     IErMin= 9 ErrMin= 7.20D-05
 ErrMax= 7.20D-05  0.00D+00 EMaxC= 1.00D-01 BMatC= 1.55D-05 BMatP= 1.46D-05
 IDIUse=1 WtCom= 1.00D+00 WtEn= 0.00D+00
 Coeff-Com:  0.115D+01-0.875D-01 0.321D+00 0.200D+01-0.124D+01 0.376D+01
 Coeff-Com: -0.599D+01 0.119D+01-0.102D+00
 Coeff:      0.115D+01-0.875D-01 0.321D+00 0.200D+01-0.124D+01 0.376D+01
 Coeff:     -0.599D+01 0.119D+01-0.102D+00
 Gap=     0.355 Goal=   None    Shift=    0.000
 Gap=     0.129 Goal=   None    Shift=    0.000
 RMSDP=6.99D-07 MaxDP=8.42D-05 DE=-1.02D-05 OVMax= 2.76D-04

 Cycle  43  Pass 1  IDiag  1:
 RMSU=  1.38D-07    CP:  1.00D+00  8.68D-01
 E= -2682.19502363724     Delta-E=        0.000001345288 Rises=F Damp=F
 DIIS: error= 7.21D-05 at cycle  43 NSaved=  10.
 NSaved=10 IEnMin= 1 EnMin= -2682.19513533111     IErMin= 9 ErrMin= 7.20D-05
 ErrMax= 7.21D-05  0.00D+00 EMaxC= 1.00D-01 BMatC= 1.56D-05 BMatP= 1.46D-05
 IDIUse=1 WtCom= 1.00D+00 WtEn= 0.00D+00
 Large coefficients: NSaved= 10 BigCof=   13.40 CofMax=   10.00 Det=-1.15D-10
 Inversion failed.  Reducing to  9 matrices.
 Coeff-Com:  0.161D+01 0.225D+00 0.201D+01-0.186D+01 0.424D+01-0.697D+01
 Coeff-Com:  0.110D+01-0.624D+01 0.689D+01
 Coeff:      0.161D+01 0.225D+00 0.201D+01-0.186D+01 0.424D+01-0.697D+01
 Coeff:      0.110D+01-0.624D+01 0.689D+01
 Gap=     0.355 Goal=   None    Shift=    0.000
 Gap=     0.129 Goal=   None    Shift=    0.000
 RMSDP=7.11D-06 MaxDP=9.93D-04 DE= 1.35D-06 OVMax= 2.91D-03

 Cycle  44  Pass 1  IDiag  1:
 RMSU=  2.60D-06    CP:  1.00D+00  2.10D+00 -3.00D+00
 E= -2682.19503644632     Delta-E=       -0.000012809083 Rises=F Damp=F
 DIIS: error= 7.23D-05 at cycle  44 NSaved=  10.
 NSaved=10 IEnMin= 1 EnMin= -2682.19513533111     IErMin= 8 ErrMin= 7.20D-05
 ErrMax= 7.23D-05  0.00D+00 EMaxC= 1.00D-01 BMatC= 1.40D-05 BMatP= 1.46D-05
 IDIUse=1 WtCom= 1.00D+00 WtEn= 0.00D+00
 Large coefficients: NSaved= 10 BigCof=   61.41 CofMax=   10.00 Det=-1.01D-11
 Inversion failed.  Reducing to  9 matrices.
 Large coefficients: NSaved=  9 BigCof=   22.53 CofMax=   10.00 Det=-1.18D-11
 Inversion failed.  Reducing to  8 matrices.
 Large coefficients: NSaved=  8 BigCof=   27.98 CofMax=   10.00 Det=-1.25D-11
 Inversion failed.  Reducing to  7 matrices.
 Large coefficients: NSaved=  7 BigCof=   11.97 CofMax=   10.00 Det=-1.64D-11
 Inversion failed.  Reducing to  6 matrices.
 Large coefficients: NSaved=  6 BigCof=   17.43 CofMax=   10.00 Det=-1.67D-11
 Inversion failed.  Reducing to  5 matrices.
 Coeff-Com:  0.173D+01 0.213D+01-0.540D+01 0.367D+01-0.114D+01
 Coeff:      0.173D+01 0.213D+01-0.540D+01 0.367D+01-0.114D+01
 Gap=     0.354 Goal=   None    Shift=    0.000
 Gap=     0.128 Goal=   None    Shift=    0.000
 RMSDP=1.00D-04 MaxDP=1.42D-02 DE=-1.28D-05 OVMax= 4.40D-02

 Cycle  45  Pass 1  IDiag  1:
 RMSU=  9.41D-05    CP:  1.00D+00  3.00D+00 -3.00D+00  3.00D+00
 E= -2682.19520961456     Delta-E=       -0.000173168238 Rises=F Damp=F
 DIIS: error= 7.96D-05 at cycle  45 NSaved=   6.
 NSaved= 6 IEnMin= 6 EnMin= -2682.19520961456     IErMin= 4 ErrMin= 7.21D-05
 ErrMax= 7.96D-05  0.00D+00 EMaxC= 1.00D-01 BMatC= 2.26D-05 BMatP= 1.40D-05
 IDIUse=1 WtCom= 1.00D+00 WtEn= 0.00D+00
 Coeff-Com:  0.175D+01 0.191D+01-0.444D+01 0.261D+01-0.178D+00-0.643D+00
 Coeff:      0.175D+01 0.191D+01-0.444D+01 0.261D+01-0.178D+00-0.643D+00
 Gap=     0.355 Goal=   None    Shift=    0.000
 Gap=     0.129 Goal=   None    Shift=    0.000
 RMSDP=5.73D-05 MaxDP=7.93D-03 DE=-1.73D-04 OVMax= 2.51D-02

 Cycle  46  Pass 1  IDiag  1:
 RMSU=  2.51D-06    CP:  1.00D+00  3.00D+00 -3.00D+00  3.00D+00  3.93D-01
 E= -2682.19510964196     Delta-E=        0.000099972603 Rises=F Damp=F
 DIIS: error= 7.58D-05 at cycle  46 NSaved=   7.
 NSaved= 7 IEnMin= 6 EnMin= -2682.19520961456     IErMin= 4 ErrMin= 7.21D-05
[...]
     7  C(13)             -0.00059      -0.66426      -0.23702      -0.22157
     8  F(19)              0.00077       3.22347       1.15021       1.07523
     9  F(19)             -0.00064      -2.68596      -0.95842      -0.89594
    10  C(13)             -0.00010      -0.11387      -0.04063      -0.03798
    11  F(19)              0.00184       7.72394       2.75610       2.57643
    12  O(17)              0.00002      -0.00998      -0.00356      -0.00333
    13  C(13)              0.00000      -0.00502      -0.00179      -0.00167
    14  F(19)              0.00000       0.00103       0.00037       0.00034
    15  F(19)              0.00003       0.11257       0.04017       0.03755
    16  F(19)              0.00000      -0.00037      -0.00013      -0.00012
    17  C(13)              0.00001       0.01416       0.00505       0.00472
    18  F(19)              0.00000       0.00693       0.00247       0.00231
    19  F(19)              0.00000      -0.01916      -0.00684      -0.00639
    20  F(19)             -0.00001      -0.02642      -0.00943      -0.00881
    21  C(13)             -0.00640      -7.19822      -2.56850      -2.40107
    22  N(14)              0.01909       6.16704       2.20055       2.05710
    23  C(13)             -0.00453      -5.09173      -1.81685      -1.69842
    24  F(19)              0.00426      17.93170       6.39848       5.98137
    25  F(19)             -0.00171      -7.19763      -2.56829      -2.40087
    26  C(13)              0.00199       2.23383       0.79709       0.74512
    27  F(19)             -0.00007      -0.31509      -0.11243      -0.10510
    28  O(17)              0.00033      -0.20119      -0.07179      -0.06711
    29  C(13)              0.00011       0.12467       0.04448       0.04159
    30  F(19)              0.00000      -0.00038      -0.00014      -0.00013
    31  F(19)              0.00000      -0.01142      -0.00408      -0.00381
    32  F(19)             -0.00001      -0.02582      -0.00921      -0.00861
    33  C(13)              0.00014       0.16166       0.05768       0.05392
    34  F(19)             -0.00002      -0.06829      -0.02437      -0.02278
    35  F(19)              0.00008       0.33833       0.12072       0.11285
    36  F(19)              0.00027       1.15014       0.41040       0.38365
    37  H(1)              -0.00130      -5.78854      -2.06550      -1.93085
    38  H(1)               0.00687      30.70990      10.95806      10.24372
    39  H(1)               0.00847      37.84170      13.50286      12.62263
 --------------------------------------------------------
       Center         ----  Spin Dipole Couplings  ----
                      3XX-RR        3YY-RR        3ZZ-RR
 --------------------------------------------------------
     1   Atom        1.293567     -0.666015     -0.627553
     2   Atom       -0.023503      0.022086      0.001417
     3   Atom       -0.057623      0.048526      0.009096
     4   Atom        0.021695     -0.002665     -0.019030
     5   Atom        0.078727     -0.248889      0.170162
     6   Atom        0.009560     -0.000788     -0.008771
     7   Atom        0.000039      0.000580     -0.000619
     8   Atom        0.001493      0.002990     -0.004483
     9   Atom        0.002251     -0.002080     -0.000171
    10   Atom        0.000106     -0.000025     -0.000081
    11   Atom        0.007084      0.001005     -0.008089
    12   Atom       -0.000226      0.000460     -0.000234
    13   Atom        0.000232     -0.000012     -0.000220
    14   Atom        0.000147      0.000061     -0.000209
    15   Atom        0.000537     -0.000246     -0.000290
    16   Atom        0.000174     -0.000092     -0.000082
    17   Atom        0.000479     -0.000669      0.000191
    18   Atom        0.000521     -0.000476     -0.000045
    19   Atom        0.000278     -0.000351      0.000073
    20   Atom        0.000992     -0.001418      0.000427
    21   Atom        0.001579     -0.007524      0.005945
    22   Atom       -0.089590     -0.171374      0.260964
    23   Atom       -0.001530      0.000233      0.001297
    24   Atom       -0.003560     -0.054603      0.058164
    25   Atom       -0.013722      0.015665     -0.001942
    26   Atom       -0.003751     -0.001533      0.005285
    27   Atom       -0.000950     -0.001246      0.002196
    28   Atom        0.000403      0.000386     -0.000789
    29   Atom       -0.000546      0.000475      0.000071
    30   Atom       -0.000499      0.000699     -0.000200
    31   Atom       -0.000098      0.000035      0.000063
    32   Atom       -0.000454      0.000068      0.000386
    33   Atom        0.000143     -0.000823      0.000680
    34   Atom        0.000723     -0.000638     -0.000086
    35   Atom        0.000334     -0.001465      0.001131
    36   Atom        0.000493     -0.002802      0.002309
    37   Atom        0.001069     -0.004597      0.003528
    38   Atom       -0.003239      0.000590      0.002649
    39   Atom       -0.003842      0.007147     -0.003306
 --------------------------------------------------------
                        XY            XZ            YZ
 --------------------------------------------------------
     1   Atom        1.478580     -1.445448     -0.754784
     2   Atom       -0.098766     -0.020441     -0.044489
     3   Atom       -0.104330     -0.086962      0.127648
     4   Atom       -0.020590     -0.023869     -0.015627
     5   Atom       -0.054622      0.363072     -0.049488
     6   Atom       -0.000134     -0.012275     -0.018346
     7   Atom       -0.000892     -0.000610     -0.000945
     8   Atom       -0.007737      0.000093     -0.001378
     9   Atom        0.000186      0.000713     -0.002188
    10   Atom       -0.001118      0.000539     -0.001049
    11   Atom       -0.016242      0.008481     -0.007179
    12   Atom       -0.000781      0.000386     -0.000967
    13   Atom       -0.000431      0.000215     -0.000209
    14   Atom       -0.000349      0.000090     -0.000102
    15   Atom       -0.000599      0.000450     -0.000270
    16   Atom       -0.000294      0.000279     -0.000173
    17   Atom       -0.000626      0.000787     -0.000443
    18   Atom       -0.000289      0.000607     -0.000143
    19   Atom       -0.000540      0.000659     -0.000489
    20   Atom       -0.000606      0.000997     -0.000140
    21   Atom       -0.006920      0.019426     -0.004658
    22   Atom        0.015960      0.210655      0.040628
    23   Atom        0.001918     -0.005909     -0.006879
    24   Atom        0.009484     -0.076475     -0.012848
    25   Atom       -0.026707      0.025099     -0.046374
    26   Atom        0.002526     -0.004560     -0.006819
    27   Atom       -0.000086     -0.002103     -0.000666
    28   Atom        0.002213     -0.001571     -0.002350
    29   Atom        0.000567     -0.000524     -0.001110
    30   Atom        0.000352     -0.000219     -0.000775
    31   Atom        0.000608     -0.000700     -0.000705
    32   Atom        0.000204     -0.000336     -0.000814
    33   Atom        0.000241     -0.001694     -0.000806
    34   Atom        0.000631     -0.001373     -0.000681
    35   Atom        0.000731     -0.002467     -0.000945
    36   Atom        0.000797     -0.004262     -0.000964
    37   Atom       -0.005983     -0.013074     -0.002295
    38   Atom       -0.001596     -0.000775     -0.004799
    39   Atom        0.001000      0.000736      0.002497
 --------------------------------------------------------


 ---------------------------------------------------------------------------------
              Anisotropic Spin Dipole Couplings in Principal Axis System
 ---------------------------------------------------------------------------------

       Atom             a.u.   MegaHertz   Gauss  10(-4) cm-1        Axes

              Baa    -1.4640   105.935    37.800    35.336 -0.5449  0.8122 -0.2087
     1 O(17)  Bbb    -1.3877   100.412    35.829    33.494  0.2556  0.3979  0.8811
              Bcc     2.8517  -206.347   -73.630   -68.830  0.7986  0.4267 -0.4244
 
              Baa    -0.1183   -15.877    -5.665    -5.296  0.7112  0.6106  0.3483
     2 C(13)  Bbb     0.0125     1.682     0.600     0.561 -0.4134 -0.0374  0.9098
              Bcc     0.1058    14.195     5.065     4.735 -0.5686  0.7910 -0.2258
 
              Baa    -0.1233    -4.757    -1.697    -1.587  0.8981  0.3772  0.2261
     3 N(14)  Bbb    -0.1002    -3.865    -1.379    -1.289  0.0654 -0.6230  0.7795
              Bcc     0.2236     8.622     3.077     2.876 -0.4349  0.6852  0.5842
 
              Baa    -0.0434    -5.830    -2.080    -1.945  0.4332  0.5048  0.7467
     4 C(13)  Bbb     0.0062     0.826     0.295     0.276  0.1195  0.7889 -0.6028
              Bcc     0.0373     5.004     1.785     1.669  0.8934 -0.3503 -0.2814
 
              Baa    -0.2598    18.795     6.707     6.269  0.3657  0.9080 -0.2043
     5 O(17)  Bbb    -0.2378    17.208     6.140     5.740  0.6572 -0.4073 -0.6342
              Bcc     0.4976   -36.004   -12.847   -12.010  0.6591 -0.0977  0.7457
 
              Baa    -0.0263    -1.013    -0.361    -0.338  0.2696  0.5637  0.7807
     6 N(14)  Bbb     0.0057     0.221     0.079     0.074  0.7151 -0.6602  0.2297
              Bcc     0.0205     0.791     0.282     0.264  0.6449  0.4964 -0.5812
 
              Baa    -0.0017    -0.228    -0.081    -0.076  0.5016  0.4912  0.7121
     7 C(13)  Bbb     0.0003     0.047     0.017     0.016  0.7369  0.1886 -0.6492
              Bcc     0.0014     0.182     0.065     0.061 -0.4531  0.8504 -0.2674
 
              Baa    -0.0060    -3.029    -1.081    -1.010  0.6169  0.6059  0.5024
     8 F(19)  Bbb    -0.0041    -2.042    -0.728    -0.681 -0.4174 -0.2894  0.8614
              Bcc     0.0101     5.070     1.809     1.691 -0.6673  0.7411 -0.0743
 
              Baa    -0.0036    -1.790    -0.639    -0.597 -0.0943  0.8275  0.5534
     9 F(19)  Bbb     0.0011     0.535     0.191     0.179 -0.3672 -0.5456  0.7533
              Bcc     0.0025     1.255     0.448     0.419  0.9253 -0.1322  0.3554
 
              Baa    -0.0013    -0.174    -0.062    -0.058  0.4314  0.7688  0.4720
    10 C(13)  Bbb    -0.0005    -0.071    -0.025    -0.024 -0.6953 -0.0500  0.7170
              Bcc     0.0018     0.245     0.087     0.082 -0.5748  0.6375 -0.5130
 
              Baa    -0.0125    -6.276    -2.239    -2.093  0.5901  0.7923  0.1551
    11 F(19)  Bbb    -0.0119    -5.965    -2.128    -1.990 -0.3504  0.0783  0.9333
              Bcc     0.0244    12.240     4.368     4.083  0.7273 -0.6051  0.3239
 
              Baa    -0.0010     0.070     0.025     0.023  0.3267  0.6478  0.6882
    12 O(17)  Bbb    -0.0006     0.043     0.015     0.014  0.8385  0.1373 -0.5273
              Bcc     0.0016    -0.113    -0.040    -0.038 -0.4361  0.7493 -0.4983
 
              Baa    -0.0004    -0.049    -0.017    -0.016  0.3227  0.7419  0.5878
    13 C(13)  Bbb    -0.0003    -0.039    -0.014    -0.013 -0.5794 -0.3362  0.7424
              Bcc     0.0007     0.088     0.032     0.029  0.7484 -0.5802  0.3214
 
              Baa    -0.0003    -0.130    -0.046    -0.043  0.4716  0.6900  0.5491
    14 F(19)  Bbb    -0.0002    -0.113    -0.040    -0.038 -0.4911 -0.3117  0.8134
              Bcc     0.0005     0.242     0.087     0.081  0.7324 -0.6533  0.1919
 
              Baa    -0.0006    -0.289    -0.103    -0.097  0.3836  0.8922  0.2385
    15 F(19)  Bbb    -0.0005    -0.245    -0.087    -0.082 -0.4291 -0.0565  0.9015
              Bcc     0.0011     0.534     0.191     0.178  0.8177 -0.4482  0.3611
 
              Baa    -0.0003    -0.142    -0.051    -0.047  0.6033  0.7801 -0.1657
    16 F(19)  Bbb    -0.0003    -0.128    -0.046    -0.043 -0.2863  0.4058  0.8680
              Bcc     0.0005     0.270     0.096     0.090  0.7444 -0.4762  0.4681
 
              Baa    -0.0010    -0.128    -0.046    -0.043  0.3350  0.9331  0.1310
    17 C(13)  Bbb    -0.0005    -0.062    -0.022    -0.021 -0.5981  0.1031  0.7948
              Bcc     0.0014     0.190     0.068     0.063  0.7281 -0.3446  0.5926
 
              Baa    -0.0006    -0.279    -0.100    -0.093  0.3144  0.9430 -0.1092
    18 F(19)  Bbb    -0.0004    -0.212    -0.076    -0.071 -0.4671  0.2538  0.8470
              Bcc     0.0010     0.492     0.175     0.164  0.8264 -0.2153  0.5203
 
              Baa    -0.0007    -0.350    -0.125    -0.117  0.2666  0.9004  0.3437
    19 F(19)  Bbb    -0.0005    -0.246    -0.088    -0.082 -0.6802 -0.0769  0.7290
              Bcc     0.0012     0.596     0.213     0.199  0.6829 -0.4282  0.5919
 
              Baa    -0.0016    -0.787    -0.281    -0.263  0.2513  0.9662 -0.0580
    20 F(19)  Bbb    -0.0003    -0.139    -0.050    -0.047 -0.5483  0.1915  0.8141
              Bcc     0.0018     0.927     0.331     0.309  0.7977 -0.1727  0.5778
 
              Baa    -0.0164    -2.197    -0.784    -0.733  0.7530  0.2739 -0.5983
    21 C(13)  Bbb    -0.0089    -1.199    -0.428    -0.400 -0.0526  0.9314  0.3602
              Bcc     0.0253     3.396     1.212     1.133  0.6559 -0.2398  0.7157
 
              Baa    -0.1889    -7.286    -2.600    -2.430  0.8814  0.1948 -0.4303
    22 N(14)  Bbb    -0.1744    -6.725    -2.400    -2.243 -0.2108  0.9775  0.0108
              Bcc     0.3633    14.011     4.999     4.673  0.4227  0.0812  0.9026
 
              Baa    -0.0078    -1.042    -0.372    -0.347  0.5202  0.4818  0.7051
    23 C(13)  Bbb    -0.0027    -0.357    -0.127    -0.119  0.7331 -0.6754 -0.0794
              Bcc     0.0104     1.398     0.499     0.466 -0.4380 -0.5583  0.7046
 
              Baa    -0.0565   -28.366   -10.122    -9.462 -0.4248  0.8864 -0.1841
    24 F(19)  Bbb    -0.0548   -27.533    -9.825    -9.184  0.7135  0.4530  0.5345
              Bcc     0.1113    55.899    19.946    18.646 -0.5571 -0.0957  0.8249
 
              Baa    -0.0408   -20.466    -7.303    -6.827 -0.1748  0.5745  0.7996
    25 F(19)  Bbb    -0.0293   -14.712    -5.250    -4.908  0.8995  0.4234 -0.1076
              Bcc     0.0700    35.178    12.553    11.734 -0.4004  0.7005 -0.5908
 
              Baa    -0.0059    -0.792    -0.283    -0.264  0.5260  0.6139  0.5885
    26 C(13)  Bbb    -0.0054    -0.724    -0.258    -0.242  0.7851 -0.6166 -0.0585
              Bcc     0.0113     1.517     0.541     0.506 -0.3270 -0.4928  0.8064
 
              Baa    -0.0022    -1.088    -0.388    -0.363  0.8009  0.3984  0.4470
    27 F(19)  Bbb    -0.0012    -0.579    -0.206    -0.193 -0.4096  0.9091 -0.0764
              Bcc     0.0033     1.666     0.595     0.556 -0.4368 -0.1219  0.8913
 
              Baa    -0.0026     0.191     0.068     0.064 -0.0805  0.6482  0.7572
    28 O(17)  Bbb    -0.0015     0.111     0.040     0.037  0.8076 -0.4028  0.4307
              Bcc     0.0042    -0.302    -0.108    -0.101  0.5842  0.6462 -0.4911
 
              Baa    -0.0009    -0.118    -0.042    -0.039  0.4783  0.4288  0.7664
    29 C(13)  Bbb    -0.0008    -0.106    -0.038    -0.035  0.8144 -0.5432 -0.2043
              Bcc     0.0017     0.224     0.080     0.075  0.3287  0.7219 -0.6090
 
              Baa    -0.0007    -0.326    -0.116    -0.109  0.2478  0.4332  0.8666
    30 F(19)  Bbb    -0.0006    -0.298    -0.106    -0.100  0.9408 -0.3211 -0.1086
              Bcc     0.0012     0.625     0.223     0.208  0.2312  0.8422 -0.4871
 
              Baa    -0.0007    -0.363    -0.130    -0.121  0.6935  0.1065  0.7125
    31 F(19)  Bbb    -0.0006    -0.313    -0.112    -0.104 -0.4774  0.8086  0.3438
              Bcc     0.0013     0.676     0.241     0.226 -0.5395 -0.5786  0.6116
 
              Baa    -0.0006    -0.320    -0.114    -0.107  0.5146  0.5803  0.6312
    32 F(19)  Bbb    -0.0005    -0.258    -0.092    -0.086  0.8244 -0.5373 -0.1780
              Bcc     0.0012     0.578     0.206     0.193 -0.2359 -0.6119  0.7549
 
              Baa    -0.0015    -0.204    -0.073    -0.068  0.5645  0.5334  0.6299
    33 C(13)  Bbb    -0.0008    -0.107    -0.038    -0.036 -0.5527  0.8111 -0.1915
              Bcc     0.0023     0.311     0.111     0.104 -0.6131 -0.2400  0.7527
 
              Baa    -0.0012    -0.607    -0.217    -0.203  0.3909  0.4937  0.7768
    34 F(19)  Bbb    -0.0009    -0.427    -0.152    -0.143 -0.5363  0.8081 -0.2437
              Bcc     0.0021     1.035     0.369     0.345  0.7480  0.3213 -0.5807
 
              Baa    -0.0018    -0.911    -0.325    -0.304  0.4773  0.6378  0.6045
    35 F(19)  Bbb    -0.0017    -0.856    -0.305    -0.285 -0.6140  0.7342 -0.2897
              Bcc     0.0035     1.766     0.630     0.589 -0.6286 -0.2329  0.7420
 
              Baa    -0.0030    -1.500    -0.535    -0.500 -0.3892  0.9092 -0.1478
    36 F(19)  Bbb    -0.0030    -1.482    -0.529    -0.494  0.6786  0.3915  0.6215
              Bcc     0.0059     2.982     1.064     0.995 -0.6230 -0.1416  0.7693
 
              Baa    -0.0145    -7.736    -2.760    -2.580  0.6570  0.5229  0.5431
    37 H(1)   Bbb    -0.0012    -0.650    -0.232    -0.217 -0.3078  0.8437 -0.4399
              Bcc     0.0157     8.386     2.992     2.797 -0.6882  0.1218  0.7152
 
              Baa    -0.0050    -2.667    -0.952    -0.890  0.7032  0.5680  0.4276
    38 H(1)   Bbb    -0.0015    -0.825    -0.294    -0.275  0.7097 -0.5251 -0.4697
              Bcc     0.0065     3.492     1.246     1.165  0.0422 -0.6338  0.7724
 
              Baa    -0.0044    -2.352    -0.839    -0.785  0.7322  0.0827 -0.6760
    39 H(1)   Bbb    -0.0034    -1.823    -0.650    -0.608  0.6741 -0.2297  0.7020
              Bcc     0.0078     4.175     1.490     1.393  0.0972  0.9697  0.2240
 

 ---------------------------------------------------------------------------------

 No NMR shielding tensors so no spin-rotation constants.
 Leave Link  601 at Sun Mar  3 18:06:15 2024, MaxMem=  5368709120 cpu:         5.5
 (Enter /home/k0335/k033513/app/g09/l9999.exe)
 1\1\GINC-C24U17N2\SP\UCAM-B3LYP\6-31G(d,p)\C11H3F18N3O4(1+,2)\K033513\
 03-Mar-2024\0\\#p CAM-B3LYP/6-31G(d,p) SCRF=(PCM,Solvent=Generic,Read)
  NoSymm out=wfn\\Title A895623830_p1\\1,2\O,0,1.819181,-3.099091,1.963
 041\C,0,1.118346,-2.123174,1.720576\N,0,0.068513,-1.827989,2.539361\C,
 0,-0.946055,-0.96935,2.249783\O,0,-1.969824,-0.974174,2.919015\N,0,-0.
 746317,-0.158191,1.168688\C,0,-1.639582,0.968941,0.969646\F,0,-1.17982
 2,1.651305,-0.13003\F,0,-1.420619,1.837518,2.001779\C,0,-3.172053,0.77
 4945,0.76894\F,0,-3.768247,0.313192,1.896679\O,0,-3.729226,2.085635,0.
 549278\C,0,-5.070602,2.052848,0.141381\F,0,-5.611622,3.267493,0.349908
 \F,0,-5.775643,1.138584,0.823543\F,0,-5.118123,1.784718,-1.174772\C,0,
 -3.326271,-0.225943,-0.381016\F,0,-4.622033,-0.521308,-0.633339\F,0,-2
 .803189,0.259179,-1.532215\F,0,-2.710063,-1.40537,-0.139293\C,0,0.5968
 72,-0.022087,0.681126\N,0,1.29106,-1.27803,0.651284\C,0,2.553248,-1.42
 2876,-0.078558\F,0,2.624902,-2.713313,-0.498413\F,0,3.569352,-1.237982
 ,0.809544\C,0,2.805185,-0.494098,-1.294256\F,0,1.737168,-0.587345,-2.1
 42672\O,0,2.835549,0.867183,-0.827403\C,0,3.255177,1.778077,-1.813059\
 F,0,2.873578,3.009819,-1.429396\F,0,4.592794,1.747125,-1.902348\F,0,2.
 694752,1.499938,-2.998421\C,0,4.083061,-1.014309,-1.975398\F,0,5.16398
 5,-0.883761,-1.174564\F,0,4.352881,-0.319405,-3.107985\F,0,4.001174,-2
 .30826,-2.349219\H,0,-0.101413,-2.484301,3.288453\H,0,0.530691,0.35378
 2,-0.340176\H,0,1.143239,0.680071,1.32117\\Version=ES64L-G09RevD.01\HF
 =-2682.196087\S2=0.76338\S2-1=0.\S2A=0.750081\RMSD=2.170e-09\Dipole=2.
 1327913,-2.601574,2.5785531\Quadrupole=-4.1619674,1.9030609,2.2589065,
 -3.0155768,3.6685257,-11.9414719\PG=C01 [X(C11H3F18N3O4)]\\@

 Writing a WFN file to "A895623830/A895623830_p1.wfn"


 HOW IS IT THAT THE SKY FEEDS THE STARS?

                           -- LUCRETIUS
 Job cpu time:       0 days  2 hours  2 minutes 12.9 seconds.
 File lengths (MBytes):  RWF=    472 Int=      0 D2E=      0 Chk=     16 Scr=      1
 Normal termination of Gaussian 09 at Sun Mar  3 18:06:15 2024.
