 Entering Gaussian System, Link 0=g09
 Initial command:
 /home/k0335/k033513/app/g09/l1.exe "/home/k0335/k033513/app/g09/scratch/Gau-650398.inp" -scrdir="/home/k0335/k033513/app/g09/scratch/"
 Default is to use a total of  36 processors:
                               36 via shared-memory
                                1 via Linda
 Entering Link 1 = /home/k0335/k033513/app/g09/l1.exe PID=    650399.
  
 Copyright (c) 1988,1990,1992,1993,1995,1998,2003,2009,2013,
            Gaussian, Inc.  All Rights Reserved.
  
 This is part of the Gaussian(R) 09 program.  It is based on
 the Gaussian(R) 03 system (copyright 2003, Gaussian, Inc.),
 the Gaussian(R) 98 system (copyright 1998, Gaussian, Inc.),
 the Gaussian(R) 94 system (copyright 1995, Gaussian, Inc.),
 the Gaussian 92(TM) system (copyright 1992, Gaussian, Inc.),
 the Gaussian 90(TM) system (copyright 1990, Gaussian, Inc.),
 the Gaussian 88(TM) system (copyright 1988, Gaussian, Inc.),
 the Gaussian 86(TM) system (copyright 1986, Carnegie Mellon
 University), and the Gaussian 82(TM) system (copyright 1983,
 Carnegie Mellon University). Gaussian is a federally registered
 trademark of Gaussian, Inc.
  
 This software contains proprietary and confidential information,
 including trade secrets, belonging to Gaussian, Inc.
  
 This software is provided under written license and may be
 used, copied, transmitted, or stored only in accord with that
 written license.
  
 The following legend is applicable only to US Government
 contracts under FAR:
  
                    RESTRICTED RIGHTS LEGEND
  
 Use, reproduction and disclosure by the US Government is
 subject to restrictions as set forth in subparagraphs (a)
 and (c) of the Commercial Computer Software - Restricted
 Rights clause in FAR 52.227-19.
  
 Gaussian, Inc.
 340 Quinnipiac St., Bldg. 40, Wallingford CT 06492
  
  
 ---------------------------------------------------------------
 Warning -- This program may not be used in any manner that
 competes with the business of Gaussian, Inc. or will provide
 assistance to any competitor of Gaussian, Inc.  The licensee
 of this program is prohibited from giving any competitor of
 Gaussian, Inc. access to this program.  By using this program,
 the user acknowledges that Gaussian, Inc. is engaged in the
 business of creating and licensing software in the field of
 computational chemistry and represents and warrants to the
 licensee that it is not a competitor of Gaussian, Inc. and that
 it will not use this program in any manner prohibited above.
 ---------------------------------------------------------------
  

 Cite this work as:
 Gaussian 09, Revision D.01,
 M. J. Frisch, G. W. Trucks, H. B. Schlegel, G. E. Scuseria, 
 M. A. Robb, J. R. Cheeseman, G. Scalmani, V. Barone, B. Mennucci, 
 G. A. Petersson, H. Nakatsuji, M. Caricato, X. Li, H. P. Hratchian, 
 A. F. Izmaylov, J. Bloino, G. Zheng, J. L. Sonnenberg, M. Hada, 
 M. Ehara, K. Toyota, R. Fukuda, J. Hasegawa, M. Ishida, T. Nakajima, 
 Y. Honda, O. Kitao, H. Nakai, T. Vreven, J. A. Montgomery, Jr., 
 J. E. Peralta, F. Ogliaro, M. Bearpark, J. J. Heyd, E. Brothers, 
 K. N. Kudin, V. N. Staroverov, T. Keith, R. Kobayashi, J. Normand, 
 K. Raghavachari, A. Rendell, J. C. Burant, S. S. Iyengar, J. Tomasi, 
 M. Cossi, N. Rega, J. M. Millam, M. Klene, J. E. Knox, J. B. Cross, 
 V. Bakken, C. Adamo, J. Jaramillo, R. Gomperts, R. E. Stratmann, 
 O. Yazyev, A. J. Austin, R. Cammi, C. Pomelli, J. W. Ochterski, 
 R. L. Martin, K. Morokuma, V. G. Zakrzewski, G. A. Voth, 
 P. Salvador, J. J. Dannenberg, S. Dapprich, A. D. Daniels, 
 O. Farkas, J. B. Foresman, J. V. Ortiz, J. Cioslowski, 
 and D. J. Fox, Gaussian, Inc., Wallingford CT, 2013.
 
 ******************************************
 Gaussian 09:  ES64L-G09RevD.01 24-Apr-2013
                 3-Mar-2024 
 ******************************************
 %nprocshared=24
 Will use up to   24 processors via shared memory.
 %mem=40GB
 %rwf=A1386248940/A1386248940_0.rwf
 %nosave
 %chk=A1386248940/A1386248940_0.chk
 ----------------------------------------------------------------------
 #p CAM-B3LYP/6-31G(d,p) SCRF=(PCM,Solvent=Generic,Read) NoSymm out=wfn
 ----------------------------------------------------------------------
 1/38=1,40=2/1;
 2/12=2,15=1,17=6,18=5,40=1/2;
 3/5=1,6=6,7=101,11=2,16=1,25=1,30=1,70=2203,72=-2,74=-40/1,2,3;
 4//1;
 5/5=2,38=5/2;
 6/7=2,8=2,9=2,10=2,28=1/1;
 99/5=1,6=100,9=1/99;
 Leave Link    1 at Sun Mar  3 17:41:01 2024, MaxMem=  5368709120 cpu:         0.9
 (Enter /home/k0335/k033513/app/g09/l101.exe)
 -------------------
 Title A1386248940_0
 -------------------
 Symbolic Z-matrix:
 Charge =  0 Multiplicity = 1
 C                     3.99462  -3.71387  -0.49677 
 O                     3.06887  -2.73285  -0.05103 
 C                     2.5429   -1.98112  -1.1434 
 N                     1.60255  -1.02819  -0.59688 
 C                     2.07643   0.21107  -0.23869 
 O                     3.25146   0.54095  -0.40927 
 N                     1.14997   1.06212   0.3173 
 C                     1.57004   2.41352   0.61712 
 O                     1.29035   3.2109   -0.53185 
 C                     1.66712   4.56512  -0.32586 
 C                    -0.16013   0.71984   0.55734 
 O                    -0.93157   1.52118   1.07793 
 N                    -0.554    -0.53767   0.19214 
 C                    -1.92148  -1.02191   0.36954 
 F                    -2.4322   -1.30065  -0.86656 
 F                    -1.81511  -2.23288   1.00132 
 C                    -3.00097  -0.21356   1.14891 
 F                    -2.52191   0.02221   2.42226 
 O                    -3.41127   1.08033   0.68523 
 C                    -3.61381   1.18297  -0.69607 
 F                    -2.44671   1.03421  -1.34507 
 F                    -4.48681   0.25693  -1.1119 
 F                    -4.11166   2.40111  -0.9743 
 C                    -4.20757  -1.156     1.31598 
 F                    -4.65637  -1.67567   0.15517 
 F                    -3.93517  -2.20027   2.13396 
 F                    -5.25547  -0.49797   1.87807 
 C                     0.2891   -1.41594  -0.46031 
 O                    -0.1079   -2.48772  -0.92077 
 H                     4.84206  -3.24034  -1.00185 
 H                     4.3677   -4.25678   0.37576 
 H                     3.50528  -4.42627  -1.16797 
 H                     3.35867  -1.46824  -1.6654 
 H                     2.04805  -2.65436  -1.85239 
 H                     2.64201   2.44983   0.8415 
 H                     1.02186   2.80431   1.48207 
 H                     1.1062    4.99659   0.50881 
 H                     1.43252   5.12942  -1.23238 
 H                     2.74235   4.63969  -0.1367 
 
 NAtoms=     39 NQM=       39 NQMF=       0 NMMI=      0 NMMIF=      0
                NMic=       0 NMicF=      0.
                    Isotopes and Nuclear Properties:
 (Nuclear quadrupole moments (NQMom) in fm**2, nuclear magnetic moments (NMagM)
  in nuclear magnetons)

  Atom         1           2           3           4           5           6           7           8           9          10
 IAtWgt=          12          16          12          14          12          16          14          12          16          12
 AtmWgt=  12.0000000  15.9949146  12.0000000  14.0030740  12.0000000  15.9949146  14.0030740  12.0000000  15.9949146  12.0000000
 NucSpn=           0           0           0           2           0           0           2           0           0           0
 AtZEff=   0.0000000   0.0000000   0.0000000   0.0000000   0.0000000   0.0000000   0.0000000   0.0000000   0.0000000   0.0000000
 NQMom=    0.0000000   0.0000000   0.0000000   2.0440000   0.0000000   0.0000000   2.0440000   0.0000000   0.0000000   0.0000000
 NMagM=    0.0000000   0.0000000   0.0000000   0.4037610   0.0000000   0.0000000   0.4037610   0.0000000   0.0000000   0.0000000
 AtZNuc=   6.0000000   8.0000000   6.0000000   7.0000000   6.0000000   8.0000000   7.0000000   6.0000000   8.0000000   6.0000000

  Atom        11          12          13          14          15          16          17          18          19          20
 IAtWgt=          12          16          14          12          19          19          12          19          16          12
 AtmWgt=  12.0000000  15.9949146  14.0030740  12.0000000  18.9984033  18.9984033  12.0000000  18.9984033  15.9949146  12.0000000
 NucSpn=           0           0           2           0           1           1           0           1           0           0
 AtZEff=   0.0000000   0.0000000   0.0000000   0.0000000   0.0000000   0.0000000   0.0000000   0.0000000   0.0000000   0.0000000
 NQMom=    0.0000000   0.0000000   2.0440000   0.0000000   0.0000000   0.0000000   0.0000000   0.0000000   0.0000000   0.0000000
 NMagM=    0.0000000   0.0000000   0.4037610   0.0000000   2.6288670   2.6288670   0.0000000   2.6288670   0.0000000   0.0000000
 AtZNuc=   6.0000000   8.0000000   7.0000000   6.0000000   9.0000000   9.0000000   6.0000000   9.0000000   8.0000000   6.0000000

  Atom        21          22          23          24          25          26          27          28          29          30
 IAtWgt=          19          19          19          12          19          19          19          12          16           1
 AtmWgt=  18.9984033  18.9984033  18.9984033  12.0000000  18.9984033  18.9984033  18.9984033  12.0000000  15.9949146   1.0078250
 NucSpn=           1           1           1           0           1           1           1           0           0           1
 AtZEff=   0.0000000   0.0000000   0.0000000   0.0000000   0.0000000   0.0000000   0.0000000   0.0000000   0.0000000   0.0000000
 NQMom=    0.0000000   0.0000000   0.0000000   0.0000000   0.0000000   0.0000000   0.0000000   0.0000000   0.0000000   0.0000000
 NMagM=    2.6288670   2.6288670   2.6288670   0.0000000   2.6288670   2.6288670   2.6288670   0.0000000   0.0000000   2.7928460
 AtZNuc=   9.0000000   9.0000000   9.0000000   6.0000000   9.0000000   9.0000000   9.0000000   6.0000000   8.0000000   1.0000000

  Atom        31          32          33          34          35          36          37          38          39
 IAtWgt=           1           1           1           1           1           1           1           1           1
 AtmWgt=   1.0078250   1.0078250   1.0078250   1.0078250   1.0078250   1.0078250   1.0078250   1.0078250   1.0078250
 NucSpn=           1           1           1           1           1           1           1           1           1
 AtZEff=   0.0000000   0.0000000   0.0000000   0.0000000   0.0000000   0.0000000   0.0000000   0.0000000   0.0000000
 NQMom=    0.0000000   0.0000000   0.0000000   0.0000000   0.0000000   0.0000000   0.0000000   0.0000000   0.0000000
 NMagM=    2.7928460   2.7928460   2.7928460   2.7928460   2.7928460   2.7928460   2.7928460   2.7928460   2.7928460
 AtZNuc=   1.0000000   1.0000000   1.0000000   1.0000000   1.0000000   1.0000000   1.0000000   1.0000000   1.0000000
 Leave Link  101 at Sun Mar  3 17:41:01 2024, MaxMem=  5368709120 cpu:         0.8
 (Enter /home/k0335/k033513/app/g09/l202.exe)
                          Input orientation:                          
 ---------------------------------------------------------------------
 Center     Atomic      Atomic             Coordinates (Angstroms)
 Number     Number       Type             X           Y           Z
 ---------------------------------------------------------------------
      1          6           0        3.994620   -3.713866   -0.496772
      2          8           0        3.068866   -2.732845   -0.051030
      3          6           0        2.542902   -1.981123   -1.143399
      4          7           0        1.602550   -1.028193   -0.596884
      5          6           0        2.076430    0.211071   -0.238686
      6          8           0        3.251459    0.540945   -0.409269
      7          7           0        1.149969    1.062119    0.317295
      8          6           0        1.570039    2.413525    0.617123
      9          8           0        1.290352    3.210900   -0.531854
     10          6           0        1.667118    4.565115   -0.325859
     11          6           0       -0.160127    0.719836    0.557335
     12          8           0       -0.931565    1.521181    1.077927
     13          7           0       -0.553999   -0.537669    0.192140
     14          6           0       -1.921481   -1.021907    0.369542
     15          9           0       -2.432200   -1.300650   -0.866560
     16          9           0       -1.815110   -2.232884    1.001324
     17          6           0       -3.000970   -0.213558    1.148914
     18          9           0       -2.521911    0.022205    2.422258
     19          8           0       -3.411265    1.080327    0.685231
     20          6           0       -3.613811    1.182966   -0.696071
     21          9           0       -2.446713    1.034205   -1.345073
     22          9           0       -4.486811    0.256926   -1.111900
     23          9           0       -4.111659    2.401114   -0.974304
     24          6           0       -4.207571   -1.156005    1.315976
     25          9           0       -4.656371   -1.675672    0.155166
     26          9           0       -3.935172   -2.200266    2.133955
     27          9           0       -5.255468   -0.497971    1.878070
     28          6           0        0.289100   -1.415942   -0.460314
     29          8           0       -0.107900   -2.487719   -0.920768
     30          1           0        4.842055   -3.240341   -1.001855
     31          1           0        4.367702   -4.256785    0.375756
     32          1           0        3.505280   -4.426268   -1.167970
     33          1           0        3.358666   -1.468241   -1.665398
     34          1           0        2.048053   -2.654363   -1.852389
     35          1           0        2.642007    2.449831    0.841503
     36          1           0        1.021864    2.804306    1.482072
     37          1           0        1.106200    4.996594    0.508809
     38          1           0        1.432520    5.129418   -1.232376
     39          1           0        2.742349    4.639685   -0.136701
 ---------------------------------------------------------------------
                    Distance matrix (angstroms):
                    1          2          3          4          5
     1  C    0.000000
     2  O    1.420601   0.000000
     3  C    2.351172   1.426532   0.000000
     4  N    3.597897   2.313845   1.446035   0.000000
     5  C    4.376207   3.112360   2.416985   1.374279   0.000000
     6  O    4.320111   3.298390   2.720630   2.283921   1.232318
     7  N    5.618254   4.268440   3.651741   2.325931   1.375401
     8  C    6.683134   5.401670   4.833097   3.649698   2.416536
     9  O    7.434156   6.222733   5.375869   4.251071   3.114938
    10  C    8.601628   7.436441   6.654968   5.600243   4.374110
    11  C    6.166910   4.766289   4.182588   2.737674   2.427896
    12  O    7.358851   5.947666   5.410392   3.965607   3.535236
    13  N    5.590417   4.243004   3.668517   2.348164   2.768642
    14  C    6.557240   5.292235   4.810385   3.654150   4.227702
    15  F    6.874909   5.742647   5.029048   4.052921   4.796589
    16  F    6.179851   5.021019   4.863691   3.960549   4.759687
    17  C    7.993667   6.680538   6.254079   4.990374   5.280694
    18  F    8.058793   6.705538   6.509959   5.218212   5.316111
    19  O    8.901042   7.554764   6.940351   5.588203   5.632408
    20  C    9.050243   7.772247   6.936619   5.666523   5.790736
    21  F    8.047022   6.803442   5.833450   4.605410   4.728685
    22  F    9.385108   8.194659   7.377447   6.244765   6.621234
    23  F   10.165273   8.875241   7.969679   6.674936   6.605291
    24  C    8.780925   7.569786   7.231752   6.118241   6.616233
    25  F    8.911728   7.799963   7.321824   6.337105   7.003251
    26  F    8.490778   7.356246   7.263230   6.284712   6.898067
    27  F   10.077003   8.832362   8.493738   7.310194   7.664211
    28  C    4.360351   3.103038   2.421912   1.376282   2.427105
    29  O    4.302776   3.302783   2.707943   2.271730   3.538361
    30  H    1.094295   2.075047   2.625218   3.943602   4.488135
    31  H    1.093278   2.047319   3.288824   4.360722   5.058577
    32  H    1.094293   2.075017   2.627834   3.936170   4.940657
    33  H    2.610164   2.071085   1.095902   2.102215   2.549456
    34  H    2.597954   2.071983   1.095808   2.102188   3.288701
    35  H    6.450713   5.276263   4.856234   3.904623   2.549261
    36  H    7.432339   6.099234   5.666303   4.398557   3.286029
    37  H    9.231808   7.994355   7.313169   6.145484   4.939770
    38  H    9.236295   8.117166   7.197267   6.192652   5.058871
    39  H    8.454564   7.380254   6.699875   5.799634   4.479561
                    6          7          8          9         10
     6  O    0.000000
     7  N    2.283808   0.000000
     8  C    2.717942   1.446601   0.000000
     9  O    3.315061   2.314740   1.426247   0.000000
    10  C    4.325626   3.598899   2.351165   1.420664   0.000000
    11  C    3.550387   1.375183   2.421907   3.081497   4.347991
    12  O    4.546461   2.263202   2.695671   3.222338   4.241380
    13  N    4.000826   2.340618   3.660832   4.239996   5.589283
    14  C    5.459703   3.712102   4.904508   5.389345   6.676559
    15  F    5.992042   4.451531   5.658121   5.858627   7.176626
    16  F    5.945925   4.485157   5.761594   6.452078   7.752427
    17  C    6.487687   4.421452   5.298914   5.741719   6.841178
    18  F    6.451235   4.358325   5.071585   5.781687   6.762998
    19  O    6.773533   4.576086   5.157077   5.303380   6.241476
    20  C    6.901187   4.871870   5.487354   5.309454   6.282054
    21  F    5.795533   3.962369   4.678358   4.400566   5.516315
    22  F    7.775293   5.870624   6.657768   6.514448   7.553092
    23  F    7.615445   5.580848   5.900380   5.480259   6.204647
    24  C    7.841762   5.883933   6.827204   7.260268   8.362942
    25  F    8.231996   6.421477   7.463452   7.727490   8.897490
    26  F    8.101228   6.308888   7.341335   7.980812   9.121772
    27  F    8.870122   6.774919   7.526908   7.900077   8.855187
    28  C    3.550716   2.736157   4.179293   4.734479   6.139223
    29  O    4.551893   3.964390   5.403960   5.880529   7.297059
    30  H    4.144789   5.820895   6.730036   7.379296   8.453540
    31  H    4.988033   6.216749   7.237279   8.127740   9.252639
    32  H    5.031228   6.154339   7.329017   7.977273   9.215908
    33  H    2.371957   3.900274   4.845327   5.239962   6.407580
    34  H    3.706855   4.396171   5.657780   6.059640   7.388929
    35  H    2.362141   2.103976   1.095801   2.071788   2.605296
    36  H    3.697441   2.099603   1.096058   2.072029   2.604883
    37  H    5.029693   3.939376   2.626618   2.074993   1.094291
    38  H    5.004011   4.361678   3.288713   2.047353   1.093274
    39  H    4.139222   3.942178   2.626471   2.075058   1.094287
                   11         12         13         14         15
    11  C    0.000000
    12  O    1.228123   0.000000
    13  N    1.367414   2.272892   0.000000
    14  C    2.484211   2.819404   1.461494   0.000000
    15  F    3.357403   3.741078   2.287056   1.366192   0.000000
    16  F    3.413891   3.857399   2.262506   1.370010   2.176890
    17  C    3.048209   2.701258   2.647288   1.557609   2.359535
    18  F    3.089118   2.565805   3.026477   2.379985   3.546028
    19  O    3.273562   2.549014   3.320394   2.595863   3.005940
    20  C    3.703167   3.233559   3.621043   2.976739   2.755652
    21  F    2.991063   2.898922   2.901065   2.728254   2.383429
    22  F    4.660561   4.362735   4.218876   3.226608   2.589915
    23  F    4.559300   3.885734   4.759620   4.280172   4.066356
    24  C    4.525055   4.237477   3.872200   2.477888   2.817149
    25  F    5.110422   4.994551   4.257449   2.820104   2.476187
    26  F    5.026300   4.897552   4.238774   2.925173   3.474381
    27  F    5.402767   4.838733   4.994772   3.696706   4.018474
    28  C    2.408103   3.533115   1.381259   2.393866   2.753870
    29  O    3.532128   4.554611   2.289162   2.665067   2.610449
    30  H    6.567793   7.767385   6.152029   7.248972   7.529641
    31  H    6.730599   7.871478   6.171603   7.072361   7.518028
    32  H    6.549372   7.752535   5.783498   6.588122   6.716696
    33  H    4.702141   5.904960   4.430052   5.676279   5.848107
    34  H    4.697664   5.907626   3.928252   4.833124   4.782997
    35  H    3.305388   3.699825   4.422814   5.753359   6.536908
    36  H    2.568512   2.371841   3.913575   4.953878   5.856389
    37  H    4.460560   4.068768   5.786589   6.738590   7.353040
    38  H    5.018367   4.893442   6.171821   7.187090   7.511036
    39  H    4.926588   4.969712   6.146466   7.352633   7.911778
                   16         17         18         19         20
    16  F    0.000000
    17  C    2.346428   0.000000
    18  F    2.757544   1.380756   0.000000
    19  O    3.691205   1.434393   2.219873   0.000000
    20  C    4.217168   2.393705   3.501941   1.399841   0.000000
    21  F    4.071655   2.843252   3.901613   2.248249   1.343671
    22  F    4.219343   2.745971   4.050457   2.250437   1.338877
    23  F    5.536351   3.546575   4.441074   2.233626   1.345047
    24  C    2.642450   1.540131   2.335270   2.456242   3.141921
    25  F    3.016493   2.421913   3.546606   3.070308   3.159643
    26  F    2.403868   2.406252   2.649491   3.624303   4.422508
    27  F    3.951540   2.386487   2.835323   2.704621   3.485224
    28  C    2.689141   3.854854   4.275426   4.608290   4.694957
    29  O    2.583398   4.221995   4.827317   5.120782   5.080928
    30  H    7.024638   8.677572   8.751957   9.467403   9.547817
    31  H    6.535646   8.440544   8.364490   9.438902   9.718243
    32  H    6.150067   8.089880   8.306966   9.033025   9.075663
    33  H    5.870608   7.066792   7.315159   7.606091   7.522229
    34  H    4.821343   6.360659   6.805968   7.084601   6.936777
    35  H    6.466781   6.247506   5.920997   6.208226   6.565390
    36  H    5.801105   5.040009   4.602432   4.822830   5.372386
    37  H    7.812936   6.665153   6.447404   5.981284   6.186598
    38  H    8.351048   7.339875   7.421422   6.598076   6.428652
    39  H    8.324526   7.628400   7.455322   7.156226   7.256898
                   21         22         23         24         25
    21  F    0.000000
    22  F    2.195571   0.000000
    23  F    2.185853   2.181104   0.000000
    24  C    3.870248   2.822929   4.231746   0.000000
    25  F    3.804831   2.317141   4.265278   1.348686   0.000000
    26  F    4.978047   4.108244   5.555639   1.354168   2.170468
    27  F    4.541511   3.178148   4.224811   1.359061   2.171243
    28  C    3.777657   5.102193   5.848143   4.841779   4.990387
    29  O    4.249003   5.171506   6.319307   4.856314   4.744011
    30  H    8.456694   9.963470  10.582805   9.571443   9.695720
    31  H    8.797277  10.049334  10.865075   9.167015   9.388541
    32  H    8.079254   9.263313  10.230758   8.738002   8.713726
    33  H    6.329871   8.051961   8.441284   8.138429   8.221818
    34  H    5.836594   7.192244   8.016915   7.170526   7.066641
    35  H    5.716658   7.710036   6.993678   7.755250   8.411727
    36  H    4.812175   6.600253   5.705209   6.561908   7.353451
    37  H    5.635654   7.508190   6.013501   8.169587   8.823345
    38  H    5.641978   7.667736   6.184510   8.821069   9.236293
    39  H    6.433196   8.510014   7.258802   9.165243   9.731905
                   26         27         28         29         30
    26  F    0.000000
    27  F    2.169439   0.000000
    28  C    5.018951   6.087113   0.000000
    29  O    4.905300   6.187895   1.232206   0.000000
    30  H    9.378421  10.852398   4.934683   5.007501   0.000000
    31  H    8.732597  10.439877   5.040277   4.984133   1.776508
    32  H    8.439083  10.072764   4.461687   4.107816   1.794710
    33  H    8.256574   9.364876   3.298060   3.689294   2.404386
    34  H    7.203896   8.479845   2.562318   2.354532   2.978796
    35  H    8.158009   8.493181   4.709044   5.920050   6.373087
    36  H    7.074101   7.103995   4.703222   5.920772   7.569776
    37  H    8.935957   8.516803   6.536625   7.715742   9.169832
    38  H    9.688579   9.277476   6.689187   7.777581   9.040516
    39  H    9.824973   9.716990   6.541695   7.716124   8.200736
                   31         32         33         34         35
    31  H    0.000000
    32  H    1.776397   0.000000
    33  H    3.600061   3.003141   0.000000
    34  H    3.593488   2.394073   1.777514   0.000000
    35  H    6.940723   7.215536   4.706319   5.801951   0.000000
    36  H    7.891614   8.091432   5.798437   6.478330   1.777876
    37  H    9.812243   9.866990   7.182957   8.062226   2.992556
    38  H    9.965048   9.778119   6.886701   7.832659   3.597780
    39  H    9.058232   9.156259   6.326415   7.525209   2.400502
                   36         37         38         39
    36  H    0.000000
    37  H    2.400100   0.000000
    38  H    3.597640   1.776472   0.000000
    39  H    2.991506   1.794729   1.776512   0.000000
 Symmetry turned off by external request.
 Stoichiometry    C11H10F9N3O6
 Framework group  C1[X(C11H10F9N3O6)]
 Deg. of freedom   111
 Full point group                 C1      NOp   1
 Rotational constants (GHZ):      0.2434016      0.1300152      0.0993214
 Leave Link  202 at Sun Mar  3 17:41:01 2024, MaxMem=  5368709120 cpu:         0.1
 (Enter /home/k0335/k033513/app/g09/l301.exe)
 Standard basis: 6-31G(d,p) (6D, 7F)
 Ernie: Thresh=  0.10000D-02 Tol=  0.10000D-05 Strict=F.
   485 basis functions,   882 primitive gaussians,   485 cartesian basis functions
   113 alpha electrons      113 beta electrons
       nuclear repulsion energy      3546.6060918924 Hartrees.
 IExCor=20419 DFT=T Ex+Corr=CAM-B3LYP ExCW=0 ScaHFX=  1.000000
 ScaDFX=  1.000000  1.000000  1.000000  0.810000 ScalE2=  1.000000  1.000000
 IRadAn=      0 IRanWt=     -1 IRanGd=            0 ICorTp=0 IEmpDi=  4
  HFx wShort=  0.000000 wLong=  0.330000 cFull=  0.190000 cShort=  0.000000 cLong=  0.460000
  DFx wShort=  0.000000 wLong=  0.330000 cFull=  0.190000 cShort=  0.000000 cLong=  0.460000
 NAtoms=   39 NActive=   39 NUniq=   39 SFac= 1.00D+00 NAtFMM=   60 NAOKFM=F Big=F
 Integral buffers will be    131072 words long.
 Raffenetti 2 integral format.
 Two-electron integral symmetry is turned off.
 Using the following non-standard input for PCM:
 eps=4.9
 --- end of non-standard input.
 ------------------------------------------------------------------------------
 Polarizable Continuum Model (PCM)
 =================================
 Model                : PCM (using non-symmetric T matrix).
 Atomic radii         : UFF (Universal Force Field).
 Polarization charges : Total charges.
 Charge compensation  : None.
 Solution method      : On-the-fly selection.
 Cavity type          : Scaled VdW (van der Waals Surface) (Alpha=1.100).
 Cavity algorithm     : GePol (No added spheres)
                        Default sphere list used, NSphG=   39.
                        Lebedev-Laikov grids with approx.  5.0 points / Ang**2.
                        Smoothing algorithm: Karplus/York (Gamma=1.0000).
                        Polarization charges: spherical gaussians, with
                                              point-specific exponents (IZeta= 3).
                        Self-potential: point-specific (ISelfS= 7).
                        Self-field    : sphere-specific E.n sum rule (ISelfD= 2).
 Solvent              : Generic,
                        Eps                           =   4.900000
                        Eps(infinity)                 =   0.000000
                        RSolv                         =   0.000000 Ang.
                        Molar volume                  =   0.000000 cm**3/mol
                        Thermal expansion coefficient =   0.000000 K**-1
                        Absolute temperature          = 298.150000 K
                        Numeral density               =   0.000000 Ang**-3
                        Hydrogen bond acidity         =   0.000000
                        Hydrogen bond basicity        =   0.000000
                        Surface tension at interface  =   0.000000 (cal/mol)*Ang**-2
                        Carbon aromaticity            =   0.000000
                        Electronegative halogenicity  =   0.000000
 ------------------------------------------------------------------------------
 GePol: Number of generator spheres                  =      39
 GePol: Total number of spheres                      =      39
 GePol: Number of exposed spheres                    =      39 (100.00%)
 GePol: Number of points                             =    3086
 GePol: Average weight of points                     =       0.13
 GePol: Minimum weight of points                     =   0.83D-11
 GePol: Maximum weight of points                     =    0.20577
 GePol: Number of points with low weight             =     133
 GePol: Fraction of low-weight points (<1% of avg)   =       4.31%
 GePol: Cavity surface area                          =    395.564 Ang**2
 GePol: Cavity volume                                =    439.163 Ang**3
 Leave Link  301 at Sun Mar  3 17:41:01 2024, MaxMem=  5368709120 cpu:         0.8
 (Enter /home/k0335/k033513/app/g09/l302.exe)
 NPDir=0 NMtPBC=     1 NCelOv=     1 NCel=       1 NClECP=     1 NCelD=      1
         NCelK=      1 NCelE2=     1 NClLst=     1 CellRange=     0.0.
 One-electron integrals computed using PRISM.
 NBasis=   485 RedAO= T EigKep=  1.13D-03  NBF=   485
 NBsUse=   485 1.00D-06 EigRej= -1.00D+00 NBFU=   485
 Precomputing XC quadrature grid using
 IXCGrd= 4 IRadAn=           0 IRanWt=          -1 IRanGd=           0 AccXCQ= 0.00D+00.
 Generated NRdTot=       0 NPtTot=           0 NUsed=           0 NTot=          32
 NSgBfM=   478   478   478   478   478 MxSgAt=    39 MxSgA2=    39.
 Leave Link  302 at Sun Mar  3 17:41:01 2024, MaxMem=  5368709120 cpu:         7.7
 (Enter /home/k0335/k033513/app/g09/l303.exe)
 DipDrv:  MaxL=1.
 Leave Link  303 at Sun Mar  3 17:41:01 2024, MaxMem=  5368709120 cpu:         0.8
 (Enter /home/k0335/k033513/app/g09/l401.exe)
 ExpMin= 1.61D-01 ExpMax= 7.00D+03 ExpMxC= 1.05D+03 IAcc=1 IRadAn=         1 AccDes= 0.00D+00
 Harris functional with IExCor=20419 and IRadAn=       1 diagonalized for initial guess.
 HarFok:  IExCor=20419 AccDes= 0.00D+00 IRadAn=         1 IDoV= 1 UseB2=F ITyADJ=14
 ICtDFT=  3500011 ScaDFX=  1.000000  1.000000  1.000000  1.000000
 FoFCou: FMM=F IPFlag=           0 FMFlag=      100000 FMFlg1=           0
         NFxFlg=           0 DoJE=T BraDBF=F KetDBF=T FulRan=T
         wScrn=  0.000000 ICntrl=     500 IOpCl=  0 I1Cent=   200000004 NGrid=           0
         NMat0=    1 NMatS0=      1 NMatT0=    0 NMatD0=    1 NMtDS0=    0 NMtDT0=    0
 Symmetry not used in FoFCou.
 Harris En= -1877.97531685918    
 JPrj=0 DoOrth=F DoCkMO=F.
 Leave Link  401 at Sun Mar  3 17:41:02 2024, MaxMem=  5368709120 cpu:         9.3
 (Enter /home/k0335/k033513/app/g09/l502.exe)
 Closed shell SCF:
 Using DIIS extrapolation, IDIIS=  1040.
 Two-electron integral symmetry not used.
 IVT=      738853 IEndB=      738853 NGot=  5368709120 MDV=  5368222618
 LenX=  5368222618 LenY=  5367986908
 Requested convergence on RMS density matrix=1.00D-08 within 128 cycles.
 Requested convergence on MAX density matrix=1.00D-06.
 Requested convergence on             energy=1.00D-06.
 No special actions if energy rises.
 Fock matrices will be formed incrementally for  20 cycles.

 Cycle   1  Pass 1  IDiag  1:
 FoFJK:  IHMeth= 1 ICntrl=       0 DoSepK=T KAlg= 0 I1Cent=   0 FoldK=F
 IRaf=         1 NMat=   1 IRICut=       1 DoRegI=T DoRafI=F ISym2E= 0.
 FoFCou: FMM=F IPFlag=           0 FMFlag=      100000 FMFlg1=           0
         NFxFlg=           0 DoJE=T BraDBF=F KetDBF=F FulRan=T
         wScrn=  0.000000 ICntrl=     500 IOpCl=  0 I1Cent=           0 NGrid=           0
         NMat0=    1 NMatS0=      1 NMatT0=    0 NMatD0=    1 NMtDS0=    0 NMtDT0=    0
 Symmetry not used in FoFCou.
 Inv3:  Mode=1 IEnd=    28570188.
 Iteration    1 A*A^-1 deviation from unit magnitude is 6.22D-15 for    250.
 Iteration    1 A*A^-1 deviation from orthogonality  is 2.95D-15 for   3005   2393.
 Iteration    1 A^-1*A deviation from unit magnitude is 5.55D-15 for   3080.
 Iteration    1 A^-1*A deviation from orthogonality  is 2.79D-08 for   3043   3005.
 Iteration    2 A*A^-1 deviation from unit magnitude is 1.09D-14 for   1160.
 Iteration    2 A*A^-1 deviation from orthogonality  is 4.08D-15 for   2654    637.
 Iteration    2 A^-1*A deviation from unit magnitude is 1.11D-15 for    379.
 Iteration    2 A^-1*A deviation from orthogonality  is 4.01D-16 for   2660    659.
 E= -1938.14926352100    
 DIIS: error= 5.21D-02 at cycle   1 NSaved=   1.
 NSaved= 1 IEnMin= 1 EnMin= -1938.14926352100     IErMin= 1 ErrMin= 5.21D-02
 ErrMax= 5.21D-02  0.00D+00 EMaxC= 1.00D-01 BMatC= 1.55D+00 BMatP= 1.55D+00
 IDIUse=3 WtCom= 4.79D-01 WtEn= 5.21D-01
 Coeff-Com:  0.100D+01
 Coeff-En:   0.100D+01
 Coeff:      0.100D+01
 Gap=     0.438 Goal=   None    Shift=    0.000
 GapD=    0.438 DampG=2.000 DampE=0.500 DampFc=1.0000 IDamp=-1.
 RMSDP=3.19D-03 MaxDP=1.28D-01              OVMax= 2.03D-01

 Cycle   2  Pass 1  IDiag  1:
 RMSU=  3.19D-03    CP:  1.01D+00
 E= -1938.30301876978     Delta-E=       -0.153755248777 Rises=F Damp=F
 DIIS: error= 2.15D-02 at cycle   2 NSaved=   2.
 NSaved= 2 IEnMin= 2 EnMin= -1938.30301876978     IErMin= 2 ErrMin= 2.15D-02
 ErrMax= 2.15D-02  0.00D+00 EMaxC= 1.00D-01 BMatC= 6.63D-01 BMatP= 1.55D+00
 IDIUse=3 WtCom= 7.85D-01 WtEn= 2.15D-01
 Coeff-Com:  0.372D+00 0.628D+00
 Coeff-En:   0.410D+00 0.590D+00
 Coeff:      0.380D+00 0.620D+00
 Gap=     0.398 Goal=   None    Shift=    0.000
 RMSDP=1.85D-03 MaxDP=1.20D-01 DE=-1.54D-01 OVMax= 1.39D-01

 Cycle   3  Pass 1  IDiag  1:
 RMSU=  1.15D-03    CP:  1.00D+00  5.44D-01
 E= -1938.61740777535     Delta-E=       -0.314389005571 Rises=F Damp=F
 DIIS: error= 1.31D-02 at cycle   3 NSaved=   3.
 NSaved= 3 IEnMin= 3 EnMin= -1938.61740777535     IErMin= 3 ErrMin= 1.31D-02
 ErrMax= 1.31D-02  0.00D+00 EMaxC= 1.00D-01 BMatC= 1.88D-01 BMatP= 6.63D-01
 IDIUse=3 WtCom= 8.69D-01 WtEn= 1.31D-01
 Coeff-Com:  0.106D+00 0.355D+00 0.538D+00
 Coeff-En:   0.000D+00 0.231D+00 0.769D+00
 Coeff:      0.925D-01 0.339D+00 0.569D+00
 Gap=     0.350 Goal=   None    Shift=    0.000
 RMSDP=8.52D-04 MaxDP=6.16D-02 DE=-3.14D-01 OVMax= 8.79D-02

 Cycle   4  Pass 1  IDiag  1:
 RMSU=  3.44D-04    CP:  1.00D+00  6.76D-01  4.28D-01
 E= -1938.74134134258     Delta-E=       -0.123933567233 Rises=F Damp=F
 DIIS: error= 4.13D-03 at cycle   4 NSaved=   4.
 NSaved= 4 IEnMin= 4 EnMin= -1938.74134134258     IErMin= 4 ErrMin= 4.13D-03
 ErrMax= 4.13D-03  0.00D+00 EMaxC= 1.00D-01 BMatC= 1.62D-02 BMatP= 1.88D-01
 IDIUse=3 WtCom= 9.59D-01 WtEn= 4.13D-02
 Coeff-Com:  0.654D-02 0.967D-01 0.285D+00 0.612D+00
 Coeff-En:   0.000D+00 0.000D+00 0.242D-01 0.976D+00
 Coeff:      0.627D-02 0.927D-01 0.274D+00 0.627D+00
 Gap=     0.350 Goal=   None    Shift=    0.000
 RMSDP=2.41D-04 MaxDP=1.72D-02 DE=-1.24D-01 OVMax= 2.03D-02

 Cycle   5  Pass 1  IDiag  1:
 RMSU=  1.09D-04    CP:  1.00D+00  6.65D-01  5.87D-01  6.89D-01
 E= -1938.75170141884     Delta-E=       -0.010360076255 Rises=F Damp=F
 DIIS: error= 7.26D-04 at cycle   5 NSaved=   5.
 NSaved= 5 IEnMin= 5 EnMin= -1938.75170141884     IErMin= 5 ErrMin= 7.26D-04
 ErrMax= 7.26D-04  0.00D+00 EMaxC= 1.00D-01 BMatC= 1.15D-03 BMatP= 1.62D-02
 IDIUse=3 WtCom= 9.93D-01 WtEn= 7.26D-03
 Coeff-Com: -0.172D-02 0.298D-01 0.114D+00 0.340D+00 0.518D+00
 Coeff-En:   0.000D+00 0.000D+00 0.000D+00 0.000D+00 0.100D+01
 Coeff:     -0.171D-02 0.296D-01 0.113D+00 0.337D+00 0.522D+00
 Gap=     0.343 Goal=   None    Shift=    0.000
 RMSDP=5.50D-05 MaxDP=2.83D-03 DE=-1.04D-02 OVMax= 4.34D-03

 Cycle   6  Pass 1  IDiag  1:
 RMSU=  2.76D-05    CP:  1.00D+00  6.70D-01  5.75D-01  7.25D-01  6.26D-01
 E= -1938.75251026468     Delta-E=       -0.000808845843 Rises=F Damp=F
 DIIS: error= 1.27D-04 at cycle   6 NSaved=   6.
 NSaved= 6 IEnMin= 6 EnMin= -1938.75251026468     IErMin= 6 ErrMin= 1.27D-04
 ErrMax= 1.27D-04  0.00D+00 EMaxC= 1.00D-01 BMatC= 1.65D-05 BMatP= 1.15D-03
 IDIUse=3 WtCom= 9.99D-01 WtEn= 1.27D-03
 Coeff-Com: -0.663D-03-0.297D-02-0.305D-02 0.118D-01 0.111D+00 0.884D+00
 Coeff-En:   0.000D+00 0.000D+00 0.000D+00 0.000D+00 0.000D+00 0.100D+01
 Coeff:     -0.662D-03-0.296D-02-0.304D-02 0.118D-01 0.110D+00 0.884D+00
 Gap=     0.344 Goal=   None    Shift=    0.000
 RMSDP=1.20D-05 MaxDP=7.58D-04 DE=-8.09D-04 OVMax= 6.39D-04

 Cycle   7  Pass 1  IDiag  1:
 RMSU=  7.55D-06    CP:  1.00D+00  6.69D-01  5.78D-01  7.38D-01  6.95D-01
                    CP:  1.00D+00
 E= -1938.75252523191     Delta-E=       -0.000014967224 Rises=F Damp=F
 DIIS: error= 4.68D-05 at cycle   7 NSaved=   7.
 NSaved= 7 IEnMin= 7 EnMin= -1938.75252523191     IErMin= 7 ErrMin= 4.68D-05
 ErrMax= 4.68D-05  0.00D+00 EMaxC= 1.00D-01 BMatC= 2.71D-06 BMatP= 1.65D-05
 IDIUse=1 WtCom= 1.00D+00 WtEn= 0.00D+00
 Coeff-Com: -0.143D-03-0.297D-02-0.741D-02-0.136D-01 0.190D-01 0.374D+00
 Coeff-Com:  0.631D+00
 Coeff:     -0.143D-03-0.297D-02-0.741D-02-0.136D-01 0.190D-01 0.374D+00
 Coeff:      0.631D+00
 Gap=     0.344 Goal=   None    Shift=    0.000
 RMSDP=3.38D-06 MaxDP=2.45D-04 DE=-1.50D-05 OVMax= 2.82D-04

 Cycle   8  Pass 1  IDiag  1:
 RMSU=  2.33D-06    CP:  1.00D+00  6.69D-01  5.78D-01  7.38D-01  7.01D-01
                    CP:  1.07D+00  8.11D-01
 E= -1938.75252745826     Delta-E=       -0.000002226350 Rises=F Damp=F
 DIIS: error= 9.52D-06 at cycle   8 NSaved=   8.
 NSaved= 8 IEnMin= 8 EnMin= -1938.75252745826     IErMin= 8 ErrMin= 9.52D-06
 ErrMax= 9.52D-06  0.00D+00 EMaxC= 1.00D-01 BMatC= 2.37D-07 BMatP= 2.71D-06
 IDIUse=1 WtCom= 1.00D+00 WtEn= 0.00D+00
 Coeff-Com:  0.136D-04-0.868D-03-0.249D-02-0.709D-02-0.616D-02 0.365D-01
 Coeff-Com:  0.230D+00 0.750D+00
 Coeff:      0.136D-04-0.868D-03-0.249D-02-0.709D-02-0.616D-02 0.365D-01
 Coeff:      0.230D+00 0.750D+00
 Gap=     0.344 Goal=   None    Shift=    0.000
 RMSDP=1.30D-06 MaxDP=9.54D-05 DE=-2.23D-06 OVMax= 1.15D-04

 Cycle   9  Pass 1  IDiag  1:
 RMSU=  8.89D-07    CP:  1.00D+00  6.69D-01  5.79D-01  7.39D-01  7.04D-01
                    CP:  1.08D+00  8.89D-01  1.00D+00
 E= -1938.75252766996     Delta-E=       -0.000000211703 Rises=F Damp=F
 DIIS: error= 4.28D-06 at cycle   9 NSaved=   9.
 NSaved= 9 IEnMin= 9 EnMin= -1938.75252766996     IErMin= 9 ErrMin= 4.28D-06
 ErrMax= 4.28D-06  0.00D+00 EMaxC= 1.00D-01 BMatC= 3.78D-08 BMatP= 2.37D-07
 IDIUse=1 WtCom= 1.00D+00 WtEn= 0.00D+00
 Coeff-Com:  0.203D-04 0.404D-04 0.328D-04-0.118D-02-0.570D-02-0.429D-01
 Coeff-Com:  0.101D-01 0.328D+00 0.712D+00
 Coeff:      0.203D-04 0.404D-04 0.328D-04-0.118D-02-0.570D-02-0.429D-01
 Coeff:      0.101D-01 0.328D+00 0.712D+00
 Gap=     0.344 Goal=   None    Shift=    0.000
 RMSDP=5.65D-07 MaxDP=4.66D-05 DE=-2.12D-07 OVMax= 5.08D-05

 Cycle  10  Pass 1  IDiag  1:
 RMSU=  3.21D-07    CP:  1.00D+00  6.69D-01  5.79D-01  7.39D-01  7.05D-01
                    CP:  1.09D+00  9.19D-01  1.11D+00  8.56D-01
 E= -1938.75252770620     Delta-E=       -0.000000036241 Rises=F Damp=F
 DIIS: error= 1.57D-06 at cycle  10 NSaved=  10.
 NSaved=10 IEnMin=10 EnMin= -1938.75252770620     IErMin=10 ErrMin= 1.57D-06
 ErrMax= 1.57D-06  0.00D+00 EMaxC= 1.00D-01 BMatC= 3.62D-09 BMatP= 3.78D-08
 IDIUse=1 WtCom= 1.00D+00 WtEn= 0.00D+00
 Coeff-Com:  0.681D-05 0.101D-03 0.276D-03 0.213D-03-0.145D-02-0.201D-01
 Coeff-Com: -0.160D-01 0.599D-01 0.291D+00 0.686D+00
 Coeff:      0.681D-05 0.101D-03 0.276D-03 0.213D-03-0.145D-02-0.201D-01
 Coeff:     -0.160D-01 0.599D-01 0.291D+00 0.686D+00
 Gap=     0.344 Goal=   None    Shift=    0.000
 RMSDP=1.59D-07 MaxDP=1.31D-05 DE=-3.62D-08 OVMax= 1.88D-05

 Cycle  11  Pass 1  IDiag  1:
 RMSU=  1.08D-07    CP:  1.00D+00  6.69D-01  5.79D-01  7.39D-01  7.06D-01
                    CP:  1.09D+00  9.26D-01  1.12D+00  9.50D-01  9.07D-01
 E= -1938.75252770909     Delta-E=       -0.000000002889 Rises=F Damp=F
 DIIS: error= 8.34D-07 at cycle  11 NSaved=  11.
 NSaved=11 IEnMin=11 EnMin= -1938.75252770909     IErMin=11 ErrMin= 8.34D-07
 ErrMax= 8.34D-07  0.00D+00 EMaxC= 1.00D-01 BMatC= 6.65D-10 BMatP= 3.62D-09
 IDIUse=1 WtCom= 1.00D+00 WtEn= 0.00D+00
 Coeff-Com:  0.168D-05 0.476D-04 0.145D-03 0.236D-03-0.252D-04-0.541D-02
 Coeff-Com: -0.929D-02-0.673D-02 0.670D-01 0.341D+00 0.613D+00
 Coeff:      0.168D-05 0.476D-04 0.145D-03 0.236D-03-0.252D-04-0.541D-02
 Coeff:     -0.929D-02-0.673D-02 0.670D-01 0.341D+00 0.613D+00
 Gap=     0.344 Goal=   None    Shift=    0.000
 RMSDP=5.78D-08 MaxDP=4.58D-06 DE=-2.89D-09 OVMax= 5.54D-06

 Cycle  12  Pass 1  IDiag  1:
 RMSU=  3.90D-08    CP:  1.00D+00  6.69D-01  5.79D-01  7.39D-01  7.06D-01
                    CP:  1.09D+00  9.27D-01  1.13D+00  9.64D-01  9.91D-01
                    CP:  8.45D-01
 E= -1938.75252770947     Delta-E=       -0.000000000382 Rises=F Damp=F
 DIIS: error= 1.76D-07 at cycle  12 NSaved=  12.
 NSaved=12 IEnMin=12 EnMin= -1938.75252770947     IErMin=12 ErrMin= 1.76D-07
 ErrMax= 1.76D-07  0.00D+00 EMaxC= 1.00D-01 BMatC= 5.76D-11 BMatP= 6.65D-10
 IDIUse=1 WtCom= 1.00D+00 WtEn= 0.00D+00
 Coeff-Com: -0.232D-06 0.375D-05 0.199D-04 0.572D-04 0.237D-03 0.734D-03
 Coeff-Com: -0.126D-02-0.109D-01-0.170D-01 0.197D-01 0.210D+00 0.798D+00
 Coeff:     -0.232D-06 0.375D-05 0.199D-04 0.572D-04 0.237D-03 0.734D-03
 Coeff:     -0.126D-02-0.109D-01-0.170D-01 0.197D-01 0.210D+00 0.798D+00
 Gap=     0.344 Goal=   None    Shift=    0.000
 RMSDP=2.37D-08 MaxDP=1.88D-06 DE=-3.82D-10 OVMax= 2.39D-06

 Cycle  13  Pass 1  IDiag  1:
 RMSU=  1.24D-08    CP:  1.00D+00  6.69D-01  5.79D-01  7.39D-01  7.06D-01
                    CP:  1.09D+00  9.27D-01  1.13D+00  9.74D-01  1.02D+00
                    CP:  9.48D-01  9.52D-01
 E= -1938.75252770955     Delta-E=       -0.000000000075 Rises=F Damp=F
 DIIS: error= 5.78D-08 at cycle  13 NSaved=  13.
 NSaved=13 IEnMin=13 EnMin= -1938.75252770955     IErMin=13 ErrMin= 5.78D-08
 ErrMax= 5.78D-08  0.00D+00 EMaxC= 1.00D-01 BMatC= 7.16D-12 BMatP= 5.76D-11
 IDIUse=1 WtCom= 1.00D+00 WtEn= 0.00D+00
 Coeff-Com: -0.293D-06-0.308D-05-0.416D-05 0.234D-05 0.117D-03 0.887D-03
 Coeff-Com:  0.516D-03-0.376D-02-0.137D-01-0.277D-01 0.209D-01 0.324D+00
 Coeff-Com:  0.699D+00
 Coeff:     -0.293D-06-0.308D-05-0.416D-05 0.234D-05 0.117D-03 0.887D-03
 Coeff:      0.516D-03-0.376D-02-0.137D-01-0.277D-01 0.209D-01 0.324D+00
 Coeff:      0.699D+00
 Gap=     0.344 Goal=   None    Shift=    0.000
 RMSDP=7.29D-09 MaxDP=3.48D-07 DE=-7.55D-11 OVMax= 8.72D-07

 Error on total polarization charges =  0.00480
 SCF Done:  E(RCAM-B3LYP) =  -1938.75252771     A.U. after   13 cycles
            NFock= 13  Conv=0.73D-08     -V/T= 2.0078
 KE= 1.923841188787D+03 PE=-1.166357725778D+04 EE= 4.254377449387D+03
 Leave Link  502 at Sun Mar  3 17:41:36 2024, MaxMem=  5368709120 cpu:       767.4
 (Enter /home/k0335/k033513/app/g09/l601.exe)
 Copying SCF densities to generalized density rwf, IOpCl= 0 IROHF=0.

 **********************************************************************

            Population analysis using the SCF density.

 **********************************************************************

 Alpha  occ. eigenvalues --  -24.83750 -24.83597 -24.83457 -24.82687 -24.82605
 Alpha  occ. eigenvalues --  -24.82543 -24.82543 -24.82325 -24.82319 -19.32415
 Alpha  occ. eigenvalues --  -19.23658 -19.23657 -19.23624 -19.23507 -19.23161
 Alpha  occ. eigenvalues --  -14.52694 -14.50328 -14.50295 -10.59505 -10.54743
 Alpha  occ. eigenvalues --  -10.53440 -10.49288 -10.45606 -10.45601 -10.44605
 Alpha  occ. eigenvalues --  -10.36250 -10.36230 -10.30609 -10.30606  -1.43245
 Alpha  occ. eigenvalues --   -1.41240  -1.38691  -1.34668  -1.33873  -1.33353
 Alpha  occ. eigenvalues --   -1.32142  -1.31647  -1.31277  -1.22389  -1.20192
 Alpha  occ. eigenvalues --   -1.17570  -1.16990  -1.13130  -1.12747  -1.09061
 Alpha  occ. eigenvalues --   -1.06512  -1.04880  -0.92731  -0.86141  -0.83521
 Alpha  occ. eigenvalues --   -0.83364  -0.81771  -0.78864  -0.77700  -0.75894
 Alpha  occ. eigenvalues --   -0.74609  -0.74296  -0.72572  -0.72288  -0.70789
 Alpha  occ. eigenvalues --   -0.70413  -0.69179  -0.68887  -0.67881  -0.67041
 Alpha  occ. eigenvalues --   -0.66577  -0.63653  -0.62283  -0.61816  -0.59101
 Alpha  occ. eigenvalues --   -0.58469  -0.57798  -0.57449  -0.57074  -0.56631
 Alpha  occ. eigenvalues --   -0.56339  -0.56108  -0.55710  -0.55552  -0.55381
 Alpha  occ. eigenvalues --   -0.54867  -0.54460  -0.53650  -0.53425  -0.53213
 Alpha  occ. eigenvalues --   -0.52875  -0.52520  -0.52262  -0.51239  -0.50899
 Alpha  occ. eigenvalues --   -0.50613  -0.50232  -0.50127  -0.49584  -0.49150
 Alpha  occ. eigenvalues --   -0.49106  -0.48645  -0.48547  -0.47979  -0.47872
 Alpha  occ. eigenvalues --   -0.47237  -0.47178  -0.42883  -0.40825  -0.40721
 Alpha  occ. eigenvalues --   -0.39437  -0.38892  -0.38770  -0.37246  -0.37142
 Alpha  occ. eigenvalues --   -0.35660  -0.33490  -0.33240
 Alpha virt. eigenvalues --    0.01172   0.01613   0.06302   0.07768   0.10965
 Alpha virt. eigenvalues --    0.13611   0.14952   0.16748   0.16946   0.17677
 Alpha virt. eigenvalues --    0.18514   0.19054   0.19229   0.19787   0.19940
 Alpha virt. eigenvalues --    0.20363   0.20627   0.21488   0.22032   0.22125
 Alpha virt. eigenvalues --    0.22353   0.23030   0.23235   0.23760   0.24339
 Alpha virt. eigenvalues --    0.24687   0.24977   0.25794   0.26446   0.27714
 Alpha virt. eigenvalues --    0.27728   0.29395   0.29544   0.30616   0.31173
 Alpha virt. eigenvalues --    0.34255   0.35549   0.37275   0.38335   0.39382
 Alpha virt. eigenvalues --    0.39726   0.47011   0.48200   0.49499   0.51124
 Alpha virt. eigenvalues --    0.51642   0.53461   0.53969   0.54764   0.55519
 Alpha virt. eigenvalues --    0.55901   0.56434   0.57255   0.57794   0.58093
 Alpha virt. eigenvalues --    0.58948   0.59735   0.60665   0.61501   0.61707
 Alpha virt. eigenvalues --    0.62627   0.62907   0.64006   0.64291   0.65439
 Alpha virt. eigenvalues --    0.66029   0.66838   0.67249   0.69750   0.71480
 Alpha virt. eigenvalues --    0.73998   0.76409   0.78391   0.78819   0.80698
 Alpha virt. eigenvalues --    0.80958   0.82735   0.83535   0.84532   0.85941
 Alpha virt. eigenvalues --    0.86241   0.86751   0.88256   0.88902   0.89443
 Alpha virt. eigenvalues --    0.90300   0.90772   0.91529   0.91826   0.92744
 Alpha virt. eigenvalues --    0.93347   0.93699   0.94868   0.95364   0.96361
 Alpha virt. eigenvalues --    0.97832   0.99240   0.99676   1.00507   1.01224
 Alpha virt. eigenvalues --    1.03256   1.03981   1.04839   1.05840   1.06434
 Alpha virt. eigenvalues --    1.07312   1.08189   1.08850   1.10265   1.10813
 Alpha virt. eigenvalues --    1.12092   1.12968   1.14126   1.15416   1.16058
 Alpha virt. eigenvalues --    1.16453   1.17746   1.18651   1.18975   1.19883
 Alpha virt. eigenvalues --    1.20035   1.20832   1.21129   1.23399   1.24395
 Alpha virt. eigenvalues --    1.25147   1.25907   1.26666   1.27135   1.29072
 Alpha virt. eigenvalues --    1.31001   1.32018   1.32489   1.33071   1.35423
 Alpha virt. eigenvalues --    1.35779   1.36791   1.37486   1.38277   1.39347
 Alpha virt. eigenvalues --    1.39790   1.39989   1.40889   1.41619   1.42044
 Alpha virt. eigenvalues --    1.42435   1.42641   1.43035   1.43889   1.45061
 Alpha virt. eigenvalues --    1.45458   1.47752   1.48915   1.49565   1.49724
 Alpha virt. eigenvalues --    1.50899   1.51853   1.52776   1.53828   1.54743
 Alpha virt. eigenvalues --    1.55999   1.57012   1.58230   1.59235   1.59693
 Alpha virt. eigenvalues --    1.60474   1.63243   1.64973   1.66792   1.67654
 Alpha virt. eigenvalues --    1.68671   1.69540   1.71123   1.72117   1.72175
 Alpha virt. eigenvalues --    1.72919   1.74029   1.75722   1.76400   1.76466
 Alpha virt. eigenvalues --    1.78003   1.78037   1.80792   1.81875   1.82487
 Alpha virt. eigenvalues --    1.83325   1.83776   1.84058   1.85147   1.85929
 Alpha virt. eigenvalues --    1.86746   1.87020   1.89068   1.89382   1.90033
 Alpha virt. eigenvalues --    1.90283   1.90448   1.91635   1.92235   1.92415
 Alpha virt. eigenvalues --    1.92886   1.93304   1.94059   1.94675   1.95720
 Alpha virt. eigenvalues --    1.96189   1.97633   1.97942   1.98498   1.98947
 Alpha virt. eigenvalues --    1.99876   2.00503   2.00602   2.01441   2.01907
 Alpha virt. eigenvalues --    2.02418   2.02525   2.03238   2.03514   2.03899
 Alpha virt. eigenvalues --    2.04482   2.04610   2.04782   2.05707   2.05775
 Alpha virt. eigenvalues --    2.06236   2.06684   2.07589   2.07828   2.08518
 Alpha virt. eigenvalues --    2.08765   2.09975   2.10405   2.10564   2.11637
 Alpha virt. eigenvalues --    2.12257   2.12725   2.12940   2.13303   2.15004
 Alpha virt. eigenvalues --    2.16295   2.16339   2.16672   2.18438   2.20237
 Alpha virt. eigenvalues --    2.21235   2.22104   2.23126   2.23904   2.26389
 Alpha virt. eigenvalues --    2.26653   2.29527   2.30066   2.30840   2.31770
 Alpha virt. eigenvalues --    2.33641   2.35082   2.35617   2.37072   2.38013
 Alpha virt. eigenvalues --    2.38383   2.40888   2.41823   2.43253   2.44014
 Alpha virt. eigenvalues --    2.44702   2.46003   2.46947   2.47424   2.48559
 Alpha virt. eigenvalues --    2.50964   2.52350   2.54255   2.58414   2.60029
 Alpha virt. eigenvalues --    2.60780   2.61331   2.62121   2.63153   2.64089
 Alpha virt. eigenvalues --    2.65019   2.65953   2.66422   2.66982   2.67010
 Alpha virt. eigenvalues --    2.68699   2.70465   2.70537   2.71283   2.73241
 Alpha virt. eigenvalues --    2.73925   2.75408   2.76187   2.77455   2.79557
 Alpha virt. eigenvalues --    2.80474   2.82019   2.83608   2.84048   2.85785
 Alpha virt. eigenvalues --    2.86888   2.87671   2.89850   2.90322   2.90856
 Alpha virt. eigenvalues --    2.92696   2.93495   2.94639   2.95967   2.96790
 Alpha virt. eigenvalues --    2.99035   2.99691   3.01777   3.04005   3.04496
 Alpha virt. eigenvalues --    3.05521   3.05918   3.07271   3.07515   3.09567
 Alpha virt. eigenvalues --    3.10430   3.11711   3.14350   3.15673   3.18163
 Alpha virt. eigenvalues --    3.20867   3.23316   3.24945   3.26261   3.26531
 Alpha virt. eigenvalues --    3.28832   3.31107   3.32568   3.34359   3.37422
 Alpha virt. eigenvalues --    3.45498   3.46372   3.46957   3.50662   3.51151
 Alpha virt. eigenvalues --    3.54288   3.55052   3.58735   3.95942   4.04349
 Alpha virt. eigenvalues --    4.11287   4.13709   4.18038   4.22319   4.28183
 Alpha virt. eigenvalues --    4.29076   4.34453   4.40195   4.41373   4.48002
 Alpha virt. eigenvalues --    4.50841   4.51044   4.56248   4.59425   4.62451
 Alpha virt. eigenvalues --    4.67935   4.73847   4.80745   4.88180   4.92286
 Alpha virt. eigenvalues --    4.96702   5.11593   5.30718   5.48199   5.62318
 Alpha virt. eigenvalues --    6.35786   6.92164
          Condensed to atoms (all electrons):
               1          2          3          4          5          6
     1  C    4.707295   0.250925  -0.039744   0.004519  -0.000025   0.000010
     2  O    0.250925   8.242557   0.254301  -0.066986   0.005441  -0.000813
     3  C   -0.039744   0.254301   4.592131   0.275733  -0.020223   0.000676
     4  N    0.004519  -0.066986   0.275733   7.326500   0.233823  -0.088830
     5  C   -0.000025   0.005441  -0.020223   0.233823   4.163425   0.606821
     6  O    0.000010  -0.000813   0.000676  -0.088830   0.606821   8.064702
     7  N    0.000002  -0.000104   0.002780  -0.094759   0.233620  -0.088828
     8  C    0.000000   0.000002  -0.000084   0.002832  -0.020424   0.000229
     9  O    0.000000   0.000000   0.000003  -0.000107   0.005782  -0.000786
    10  C    0.000000   0.000000   0.000000   0.000002  -0.000037   0.000008
    11  C    0.000000   0.000031   0.000279  -0.003486  -0.026107   0.000231
    12  O    0.000000   0.000000   0.000003   0.000115   0.000225  -0.000025
    13  N    0.000003  -0.000135   0.002689  -0.089004  -0.000752   0.000069
    14  C    0.000000   0.000004  -0.000055   0.001979   0.000410   0.000002
    15  F    0.000000   0.000000   0.000005   0.000022   0.000006   0.000000
    16  F    0.000000   0.000000   0.000005  -0.000025   0.000009   0.000000
    17  C    0.000000   0.000000   0.000001  -0.000070  -0.000008   0.000000
    18  F    0.000000   0.000000   0.000000  -0.000001   0.000001   0.000000
    19  O    0.000000   0.000000   0.000000   0.000000   0.000001   0.000000
    20  C    0.000000   0.000000   0.000000   0.000001   0.000000   0.000000
    21  F    0.000000   0.000000   0.000000  -0.000009   0.000021   0.000000
    22  F    0.000000   0.000000   0.000000   0.000000   0.000000   0.000000
    23  F    0.000000   0.000000   0.000000   0.000000   0.000000   0.000000
    24  C    0.000000   0.000000   0.000000   0.000000   0.000000   0.000000
    25  F    0.000000   0.000000   0.000000   0.000000   0.000000   0.000000
    26  F    0.000000   0.000000   0.000000   0.000000   0.000000   0.000000
    27  F    0.000000   0.000000   0.000000   0.000000   0.000000   0.000000
    28  C   -0.000063   0.007036  -0.020686   0.251112  -0.025831   0.000354
    29  O    0.000004  -0.000779  -0.000637  -0.086848   0.000401  -0.000024
    30  H    0.382466  -0.038129  -0.008209  -0.000016  -0.000123  -0.000005
    31  H    0.398068  -0.029369   0.004822  -0.000170  -0.000011   0.000002
    32  H    0.382676  -0.038133  -0.008128   0.000001   0.000065  -0.000002
    33  H   -0.002390  -0.042432   0.377570  -0.032977  -0.008946   0.010318
    34  H   -0.002468  -0.042537   0.377245  -0.032389   0.006526   0.000459
    35  H    0.000000   0.000000  -0.000004   0.000492  -0.009463   0.010783
    36  H    0.000000   0.000000   0.000001  -0.000109   0.006649   0.000466
    37  H    0.000000   0.000000   0.000000   0.000000   0.000066  -0.000002
    38  H    0.000000   0.000000   0.000000   0.000000  -0.000010   0.000001
    39  H    0.000000   0.000000   0.000000   0.000000  -0.000132  -0.000005
               7          8          9         10         11         12
     1  C    0.000002   0.000000   0.000000   0.000000   0.000000   0.000000
     2  O   -0.000104   0.000002   0.000000   0.000000   0.000031   0.000000
     3  C    0.002780  -0.000084   0.000003   0.000000   0.000279   0.000003
     4  N   -0.094759   0.002832  -0.000107   0.000002  -0.003486   0.000115
     5  C    0.233620  -0.020424   0.005782  -0.000037  -0.026107   0.000225
     6  O   -0.088828   0.000229  -0.000786   0.000008   0.000231  -0.000025
     7  N    7.350798   0.276600  -0.067065   0.004504   0.229821  -0.090676
     8  C    0.276600   4.588263   0.253819  -0.039452  -0.021829   0.000384
     9  O   -0.067065   0.253819   8.243185   0.250968   0.006726  -0.000885
    10  C    0.004504  -0.039452   0.250968   4.706942  -0.000050   0.000001
    11  C    0.229821  -0.021829   0.006726  -0.000050   4.181414   0.569805
    12  O   -0.090676   0.000384  -0.000885   0.000001   0.569805   8.112794
    13  N   -0.096308   0.002618  -0.000114   0.000002   0.229149  -0.087509
    14  C    0.001153  -0.000036   0.000001   0.000000  -0.015303   0.002765
    15  F   -0.000038   0.000000   0.000000   0.000000   0.000134   0.000065
    16  F   -0.000036   0.000000   0.000000   0.000000   0.000573   0.000058
    17  C    0.000243  -0.000003   0.000000   0.000000  -0.003680   0.015137
    18  F    0.000010   0.000003   0.000000   0.000000   0.006611  -0.007121
    19  O   -0.000010   0.000000   0.000000   0.000000   0.002594  -0.018199
    20  C   -0.000049   0.000004   0.000001   0.000000   0.000010   0.003413
    21  F   -0.000148  -0.000002   0.000000   0.000000   0.010063  -0.002177
    22  F    0.000000   0.000000   0.000000   0.000000  -0.000003  -0.000002
    23  F    0.000000   0.000000   0.000000   0.000000  -0.000030  -0.000056
    24  C    0.000002   0.000000   0.000000   0.000000   0.000551   0.000526
    25  F    0.000000   0.000000   0.000000   0.000000  -0.000002   0.000000
    26  F    0.000000   0.000000   0.000000   0.000000  -0.000005   0.000000
    27  F    0.000000   0.000000   0.000000   0.000000   0.000000  -0.000001
    28  C   -0.000436   0.000104   0.000022   0.000000  -0.014680   0.000189
    29  O    0.000120   0.000003   0.000000   0.000000   0.000163  -0.000029
    30  H    0.000000   0.000000   0.000000   0.000000   0.000000   0.000000
    31  H    0.000000   0.000000   0.000000   0.000000   0.000000   0.000000
    32  H    0.000000   0.000000   0.000000   0.000000   0.000000   0.000000
    33  H    0.000465  -0.000002  -0.000001   0.000000  -0.000014   0.000000
    34  H   -0.000095   0.000002   0.000000   0.000000  -0.000018   0.000000
    35  H   -0.032153   0.378281  -0.042007  -0.002426   0.006678   0.000435
    36  H   -0.032504   0.377424  -0.042849  -0.002472  -0.010166   0.009274
    37  H   -0.000011  -0.008273  -0.038078   0.382767  -0.000127   0.000008
    38  H   -0.000168   0.004807  -0.029372   0.398058  -0.000015   0.000002
    39  H   -0.000016  -0.008030  -0.038199   0.382387   0.000075  -0.000003
              13         14         15         16         17         18
     1  C    0.000003   0.000000   0.000000   0.000000   0.000000   0.000000
     2  O   -0.000135   0.000004   0.000000   0.000000   0.000000   0.000000
     3  C    0.002689  -0.000055   0.000005   0.000005   0.000001   0.000000
     4  N   -0.089004   0.001979   0.000022  -0.000025  -0.000070  -0.000001
     5  C   -0.000752   0.000410   0.000006   0.000009  -0.000008   0.000001
     6  O    0.000069   0.000002   0.000000   0.000000   0.000000   0.000000
     7  N   -0.096308   0.001153  -0.000038  -0.000036   0.000243   0.000010
     8  C    0.002618  -0.000036   0.000000   0.000000  -0.000003   0.000003
     9  O   -0.000114   0.000001   0.000000   0.000000   0.000000   0.000000
    10  C    0.000002   0.000000   0.000000   0.000000   0.000000   0.000000
    11  C    0.229149  -0.015303   0.000134   0.000573  -0.003680   0.006611
    12  O   -0.087509   0.002765   0.000065   0.000058   0.015137  -0.007121
    13  N    7.549859   0.187525  -0.049733  -0.049178  -0.036982  -0.003150
    14  C    0.187525   4.396075   0.231805   0.254108   0.178391  -0.016015
    15  F   -0.049733   0.231805   9.143031  -0.034953  -0.025202   0.000314
    16  F   -0.049178   0.254108  -0.034953   9.117067  -0.022647  -0.000766
    17  C   -0.036982   0.178391  -0.025202  -0.022647   4.984438   0.212957
    18  F   -0.003150  -0.016015   0.000314  -0.000766   0.212957   9.129320
    19  O   -0.000228  -0.034572  -0.001184   0.000546   0.149786  -0.035779
    20  C   -0.000055  -0.006683   0.013879   0.000104  -0.007493   0.000162
    21  F   -0.005645   0.019186  -0.007755   0.000002  -0.008671   0.000000
    22  F    0.000035  -0.003975  -0.000718   0.000000   0.002990  -0.000002
    23  F    0.000004  -0.000066  -0.000002   0.000000   0.001225  -0.000002
    24  C    0.001866  -0.029910  -0.000676   0.007706   0.232330  -0.006547
    25  F    0.000034   0.013654  -0.001414  -0.001170  -0.048346   0.000297
    26  F   -0.000026  -0.001455  -0.000084  -0.002717  -0.034330  -0.000787
    27  F   -0.000007   0.001564  -0.000001   0.000002  -0.027742  -0.000933
    28  C    0.188097   0.000429   0.006109   0.008303   0.002860  -0.000097
    29  O   -0.085461   0.019708  -0.006218  -0.007401   0.000277   0.000000
    30  H    0.000000   0.000000   0.000000   0.000000   0.000000   0.000000
    31  H    0.000000   0.000000   0.000000   0.000000   0.000000   0.000000
    32  H    0.000000   0.000000   0.000000   0.000000   0.000000   0.000000
    33  H   -0.000094   0.000001   0.000000   0.000000   0.000000   0.000000
    34  H    0.000451  -0.000008   0.000000   0.000002   0.000000   0.000000
    35  H   -0.000085   0.000001   0.000000   0.000000   0.000000   0.000000
    36  H    0.000348   0.000000   0.000000   0.000000  -0.000004  -0.000002
    37  H    0.000000   0.000000   0.000000   0.000000   0.000000   0.000000
    38  H    0.000000   0.000000   0.000000   0.000000   0.000000   0.000000
    39  H    0.000000   0.000000   0.000000   0.000000   0.000000   0.000000
              19         20         21         22         23         24
     1  C    0.000000   0.000000   0.000000   0.000000   0.000000   0.000000
     2  O    0.000000   0.000000   0.000000   0.000000   0.000000   0.000000
     3  C    0.000000   0.000000   0.000000   0.000000   0.000000   0.000000
     4  N    0.000000   0.000001  -0.000009   0.000000   0.000000   0.000000
     5  C    0.000001   0.000000   0.000021   0.000000   0.000000   0.000000
     6  O    0.000000   0.000000   0.000000   0.000000   0.000000   0.000000
     7  N   -0.000010  -0.000049  -0.000148   0.000000   0.000000   0.000002
     8  C    0.000000   0.000004  -0.000002   0.000000   0.000000   0.000000
     9  O    0.000000   0.000001   0.000000   0.000000   0.000000   0.000000
    10  C    0.000000   0.000000   0.000000   0.000000   0.000000   0.000000
    11  C    0.002594   0.000010   0.010063  -0.000003  -0.000030   0.000551
    12  O   -0.018199   0.003413  -0.002177  -0.000002  -0.000056   0.000526
    13  N   -0.000228  -0.000055  -0.005645   0.000035   0.000004   0.001866
    14  C   -0.034572  -0.006683   0.019186  -0.003975  -0.000066  -0.029910
    15  F   -0.001184   0.013879  -0.007755  -0.000718  -0.000002  -0.000676
    16  F    0.000546   0.000104   0.000002   0.000000   0.000000   0.007706
    17  C    0.149786  -0.007493  -0.008671   0.002990   0.001225   0.232330
    18  F   -0.035779   0.000162   0.000000  -0.000002  -0.000002  -0.006547
    19  O    8.338660   0.243715  -0.045302  -0.048600  -0.037917  -0.024891
    20  C    0.243715   3.840273   0.288372   0.298009   0.337214  -0.002551
    21  F   -0.045302   0.288372   9.071953  -0.033762  -0.036723  -0.000224
    22  F   -0.048600   0.298009  -0.033762   9.060096  -0.037169   0.010335
    23  F   -0.037917   0.337214  -0.036723  -0.037169   9.011754  -0.000141
    24  C   -0.024891  -0.002551  -0.000224   0.010335  -0.000141   4.137180
    25  F    0.000250   0.002408  -0.000009  -0.006795  -0.000001   0.275915
    26  F    0.000618   0.000093   0.000000   0.000000   0.000000   0.292755
    27  F   -0.001983   0.000995   0.000000  -0.000451   0.000000   0.302239
    28  C   -0.000065   0.000051  -0.000010   0.000000   0.000000  -0.000100
    29  O    0.000000   0.000008  -0.000003   0.000000   0.000000  -0.000014
    30  H    0.000000   0.000000   0.000000   0.000000   0.000000   0.000000
    31  H    0.000000   0.000000   0.000000   0.000000   0.000000   0.000000
    32  H    0.000000   0.000000   0.000000   0.000000   0.000000   0.000000
    33  H    0.000000   0.000000   0.000000   0.000000   0.000000   0.000000
    34  H    0.000000   0.000000   0.000000   0.000000   0.000000   0.000000
    35  H    0.000000   0.000000   0.000000   0.000000   0.000000   0.000000
    36  H    0.000003   0.000000   0.000001   0.000000   0.000000   0.000000
    37  H    0.000000   0.000000   0.000000   0.000000   0.000000   0.000000
    38  H    0.000000   0.000000   0.000000   0.000000   0.000000   0.000000
    39  H    0.000000   0.000000   0.000000   0.000000   0.000000   0.000000
              25         26         27         28         29         30
     1  C    0.000000   0.000000   0.000000  -0.000063   0.000004   0.382466
     2  O    0.000000   0.000000   0.000000   0.007036  -0.000779  -0.038129
     3  C    0.000000   0.000000   0.000000  -0.020686  -0.000637  -0.008209
     4  N    0.000000   0.000000   0.000000   0.251112  -0.086848  -0.000016
     5  C    0.000000   0.000000   0.000000  -0.025831   0.000401  -0.000123
     6  O    0.000000   0.000000   0.000000   0.000354  -0.000024  -0.000005
     7  N    0.000000   0.000000   0.000000  -0.000436   0.000120   0.000000
     8  C    0.000000   0.000000   0.000000   0.000104   0.000003   0.000000
     9  O    0.000000   0.000000   0.000000   0.000022   0.000000   0.000000
    10  C    0.000000   0.000000   0.000000   0.000000   0.000000   0.000000
    11  C   -0.000002  -0.000005   0.000000  -0.014680   0.000163   0.000000
    12  O    0.000000   0.000000  -0.000001   0.000189  -0.000029   0.000000
    13  N    0.000034  -0.000026  -0.000007   0.188097  -0.085461   0.000000
    14  C    0.013654  -0.001455   0.001564   0.000429   0.019708   0.000000
    15  F   -0.001414  -0.000084  -0.000001   0.006109  -0.006218   0.000000
    16  F   -0.001170  -0.002717   0.000002   0.008303  -0.007401   0.000000
    17  C   -0.048346  -0.034330  -0.027742   0.002860   0.000277   0.000000
    18  F    0.000297  -0.000787  -0.000933  -0.000097   0.000000   0.000000
    19  O    0.000250   0.000618  -0.001983  -0.000065   0.000000   0.000000
    20  C    0.002408   0.000093   0.000995   0.000051   0.000008   0.000000
    21  F   -0.000009   0.000000   0.000000  -0.000010  -0.000003   0.000000
    22  F   -0.006795   0.000000  -0.000451   0.000000   0.000000   0.000000
    23  F   -0.000001   0.000000   0.000000   0.000000   0.000000   0.000000
    24  C    0.275915   0.292755   0.302239  -0.000100  -0.000014   0.000000
    25  F    9.082998  -0.038791  -0.039807   0.000008   0.000000   0.000000
    26  F   -0.038791   9.072786  -0.040461   0.000005   0.000000   0.000000
    27  F   -0.039807  -0.040461   9.062473   0.000000   0.000000   0.000000
    28  C    0.000008   0.000005   0.000000   4.152583   0.580486   0.000073
    29  O    0.000000   0.000000   0.000000   0.580486   8.077394  -0.000002
    30  H    0.000000   0.000000   0.000000   0.000073  -0.000002   0.618920
    31  H    0.000000   0.000000   0.000000  -0.000011   0.000002  -0.031905
    32  H    0.000000   0.000000   0.000000  -0.000136  -0.000002  -0.045311
    33  H    0.000000   0.000000   0.000000   0.006633   0.000447   0.011153
    34  H    0.000000   0.000000   0.000000  -0.010045   0.010805  -0.002470
    35  H    0.000000   0.000000   0.000000  -0.000012   0.000000   0.000000
    36  H    0.000000   0.000000   0.000000  -0.000010   0.000000   0.000000
    37  H    0.000000   0.000000   0.000000   0.000000   0.000000   0.000000
    38  H    0.000000   0.000000   0.000000   0.000000   0.000000   0.000000
    39  H    0.000000   0.000000   0.000000   0.000000   0.000000   0.000000
              31         32         33         34         35         36
     1  C    0.398068   0.382676  -0.002390  -0.002468   0.000000   0.000000
     2  O   -0.029369  -0.038133  -0.042432  -0.042537   0.000000   0.000000
     3  C    0.004822  -0.008128   0.377570   0.377245  -0.000004   0.000001
     4  N   -0.000170   0.000001  -0.032977  -0.032389   0.000492  -0.000109
     5  C   -0.000011   0.000065  -0.008946   0.006526  -0.009463   0.006649
     6  O    0.000002  -0.000002   0.010318   0.000459   0.010783   0.000466
     7  N    0.000000   0.000000   0.000465  -0.000095  -0.032153  -0.032504
     8  C    0.000000   0.000000  -0.000002   0.000002   0.378281   0.377424
     9  O    0.000000   0.000000  -0.000001   0.000000  -0.042007  -0.042849
    10  C    0.000000   0.000000   0.000000   0.000000  -0.002426  -0.002472
    11  C    0.000000   0.000000  -0.000014  -0.000018   0.006678  -0.010166
    12  O    0.000000   0.000000   0.000000   0.000000   0.000435   0.009274
    13  N    0.000000   0.000000  -0.000094   0.000451  -0.000085   0.000348
    14  C    0.000000   0.000000   0.000001  -0.000008   0.000001   0.000000
    15  F    0.000000   0.000000   0.000000   0.000000   0.000000   0.000000
    16  F    0.000000   0.000000   0.000000   0.000002   0.000000   0.000000
    17  C    0.000000   0.000000   0.000000   0.000000   0.000000  -0.000004
    18  F    0.000000   0.000000   0.000000   0.000000   0.000000  -0.000002
    19  O    0.000000   0.000000   0.000000   0.000000   0.000000   0.000003
    20  C    0.000000   0.000000   0.000000   0.000000   0.000000   0.000000
    21  F    0.000000   0.000000   0.000000   0.000000   0.000000   0.000001
    22  F    0.000000   0.000000   0.000000   0.000000   0.000000   0.000000
    23  F    0.000000   0.000000   0.000000   0.000000   0.000000   0.000000
    24  C    0.000000   0.000000   0.000000   0.000000   0.000000   0.000000
    25  F    0.000000   0.000000   0.000000   0.000000   0.000000   0.000000
    26  F    0.000000   0.000000   0.000000   0.000000   0.000000   0.000000
    27  F    0.000000   0.000000   0.000000   0.000000   0.000000   0.000000
    28  C   -0.000011  -0.000136   0.006633  -0.010045  -0.000012  -0.000010
    29  O    0.000002  -0.000002   0.000447   0.010805   0.000000   0.000000
    30  H   -0.031905  -0.045311   0.011153  -0.002470   0.000000   0.000000
    31  H    0.556803  -0.031786  -0.000192  -0.000186   0.000000   0.000000
    32  H   -0.031786   0.617420  -0.002390   0.011315   0.000000   0.000000
    33  H   -0.000192  -0.002390   0.585237  -0.047754   0.000001   0.000000
    34  H   -0.000186   0.011315  -0.047754   0.585463   0.000000   0.000000
    35  H    0.000000   0.000000   0.000001   0.000000   0.582087  -0.047976
    36  H    0.000000   0.000000   0.000000   0.000000  -0.047976   0.589596
    37  H    0.000000   0.000000   0.000000   0.000000  -0.002382   0.011289
    38  H    0.000000   0.000000   0.000000   0.000000  -0.000193  -0.000186
    39  H    0.000000   0.000000   0.000000   0.000000   0.011113  -0.002456
              37         38         39
     1  C    0.000000   0.000000   0.000000
     2  O    0.000000   0.000000   0.000000
     3  C    0.000000   0.000000   0.000000
     4  N    0.000000   0.000000   0.000000
     5  C    0.000066  -0.000010  -0.000132
     6  O   -0.000002   0.000001  -0.000005
     7  N   -0.000011  -0.000168  -0.000016
     8  C   -0.008273   0.004807  -0.008030
     9  O   -0.038078  -0.029372  -0.038199
    10  C    0.382767   0.398058   0.382387
    11  C   -0.000127  -0.000015   0.000075
    12  O    0.000008   0.000002  -0.000003
    13  N    0.000000   0.000000   0.000000
    14  C    0.000000   0.000000   0.000000
    15  F    0.000000   0.000000   0.000000
    16  F    0.000000   0.000000   0.000000
    17  C    0.000000   0.000000   0.000000
    18  F    0.000000   0.000000   0.000000
    19  O    0.000000   0.000000   0.000000
    20  C    0.000000   0.000000   0.000000
    21  F    0.000000   0.000000   0.000000
    22  F    0.000000   0.000000   0.000000
    23  F    0.000000   0.000000   0.000000
    24  C    0.000000   0.000000   0.000000
    25  F    0.000000   0.000000   0.000000
    26  F    0.000000   0.000000   0.000000
    27  F    0.000000   0.000000   0.000000
    28  C    0.000000   0.000000   0.000000
    29  O    0.000000   0.000000   0.000000
    30  H    0.000000   0.000000   0.000000
    31  H    0.000000   0.000000   0.000000
    32  H    0.000000   0.000000   0.000000
    33  H    0.000000   0.000000   0.000000
    34  H    0.000000   0.000000   0.000000
    35  H   -0.002382  -0.000193   0.011113
    36  H    0.011289  -0.000186  -0.002456
    37  H    0.617449  -0.031776  -0.045316
    38  H   -0.031776   0.556933  -0.031932
    39  H   -0.045316  -0.031932   0.618965
 Mulliken charges:
               1
     1  C   -0.081279
     2  O   -0.500881
     3  C    0.209526
     4  N   -0.601345
     5  C    0.848800
     6  O   -0.515809
     7  N   -0.596715
     8  C    0.212762
     9  O   -0.501045
    10  C   -0.081203
    11  C    0.850608
    12  O   -0.508515
    13  N   -0.658281
    14  C    0.799315
    15  F   -0.267392
    16  F   -0.269592
    17  C    0.434545
    18  F   -0.278475
    19  O   -0.487443
    20  C    0.988120
    21  F   -0.249158
    22  F   -0.239989
    23  F   -0.238090
    24  C    0.803650
    25  F   -0.239229
    26  F   -0.247602
    27  F   -0.255887
    28  C    0.867730
    29  O   -0.502398
    30  H    0.113558
    31  H    0.133934
    32  H    0.114410
    33  H    0.145369
    34  H    0.145702
    35  H    0.146830
    36  H    0.143682
    37  H    0.114387
    38  H    0.133851
    39  H    0.113549
 Sum of Mulliken charges =   0.00000
 Mulliken charges with hydrogens summed into heavy atoms:
               1
     1  C    0.280624
     2  O   -0.500881
     3  C    0.500597
     4  N   -0.601345
     5  C    0.848800
     6  O   -0.515809
     7  N   -0.596715
     8  C    0.503274
     9  O   -0.501045
    10  C    0.280584
    11  C    0.850608
    12  O   -0.508515
    13  N   -0.658281
    14  C    0.799315
    15  F   -0.267392
    16  F   -0.269592
    17  C    0.434545
    18  F   -0.278475
    19  O   -0.487443
    20  C    0.988120
    21  F   -0.249158
    22  F   -0.239989
    23  F   -0.238090
    24  C    0.803650
    25  F   -0.239229
    26  F   -0.247602
    27  F   -0.255887
    28  C    0.867730
    29  O   -0.502398
 Electronic spatial extent (au):  <R**2>=          11389.3999
 Charge=              0.0000 electrons
 Dipole moment (field-independent basis, Debye):
    X=              3.8412    Y=              1.4315    Z=             -0.7495  Tot=              4.1672
 Quadrupole moment (field-independent basis, Debye-Ang):
   XX=           -160.9890   YY=           -147.7770   ZZ=           -156.7785
   XY=             -5.8346   XZ=              0.9092   YZ=              4.2400
 Traceless Quadrupole moment (field-independent basis, Debye-Ang):
   XX=             -5.8075   YY=              7.4045   ZZ=             -1.5970
   XY=             -5.8346   XZ=              0.9092   YZ=              4.2400
 Octapole moment (field-independent basis, Debye-Ang**2):
  XXX=            383.4737  YYY=            111.0909  ZZZ=            -58.8778  XYY=            199.3350
  XXY=            -15.3691  XXZ=            -38.2181  XZZ=            134.6345  YZZ=             14.7230
  YYZ=            -21.1814  XYZ=             25.8650
 Hexadecapole moment (field-independent basis, Debye-Ang**3):
 XXXX=          -7806.4698 YYYY=          -3390.8775 ZZZZ=          -1045.7339 XXXY=           -152.6321
 XXXZ=            528.8862 YYYX=             29.6464 YYYZ=             42.9783 ZZZX=            524.3642
 ZZZY=             41.3889 XXYY=          -1728.9273 XXZZ=          -1464.1829 YYZZ=           -802.0368
 XXYZ=             71.9040 YYXZ=            149.8690 ZZXY=             -0.7947
 N-N= 3.546606091892D+03 E-N=-1.166357725760D+04  KE= 1.923841188787D+03
 No NMR shielding tensors so no spin-rotation constants.
 Leave Link  601 at Sun Mar  3 17:41:36 2024, MaxMem=  5368709120 cpu:         4.2
 (Enter /home/k0335/k033513/app/g09/l9999.exe)
 1\1\GINC-C18U04N2\SP\RCAM-B3LYP\6-31G(d,p)\C11H10F9N3O6\K033513\03-Mar
 -2024\0\\#p CAM-B3LYP/6-31G(d,p) SCRF=(PCM,Solvent=Generic,Read) NoSym
 m out=wfn\\Title A1386248940_0\\0,1\C,0,3.99462,-3.713866,-0.496772\O,
 0,3.068866,-2.732845,-0.05103\C,0,2.542902,-1.981123,-1.143399\N,0,1.6
 0255,-1.028193,-0.596884\C,0,2.07643,0.211071,-0.238686\O,0,3.251459,0
 .540945,-0.409269\N,0,1.149969,1.062119,0.317295\C,0,1.570039,2.413525
 ,0.617123\O,0,1.290352,3.2109,-0.531854\C,0,1.667118,4.565115,-0.32585
 9\C,0,-0.160127,0.719836,0.557335\O,0,-0.931565,1.521181,1.077927\N,0,
 -0.553999,-0.537669,0.19214\C,0,-1.921481,-1.021907,0.369542\F,0,-2.43
 22,-1.30065,-0.86656\F,0,-1.81511,-2.232884,1.001324\C,0,-3.00097,-0.2
 13558,1.148914\F,0,-2.521911,0.022205,2.422258\O,0,-3.411265,1.080327,
 0.685231\C,0,-3.613811,1.182966,-0.696071\F,0,-2.446713,1.034205,-1.34
 5073\F,0,-4.486811,0.256926,-1.1119\F,0,-4.111659,2.401114,-0.974304\C
 ,0,-4.207571,-1.156005,1.315976\F,0,-4.656371,-1.675672,0.155166\F,0,-
 3.935172,-2.200266,2.133955\F,0,-5.255468,-0.497971,1.87807\C,0,0.2891
 ,-1.415942,-0.460314\O,0,-0.1079,-2.487719,-0.920768\H,0,4.842055,-3.2
 40341,-1.001855\H,0,4.367702,-4.256785,0.375756\H,0,3.50528,-4.426268,
 -1.16797\H,0,3.358666,-1.468241,-1.665398\H,0,2.048053,-2.654363,-1.85
 2389\H,0,2.642007,2.449831,0.841503\H,0,1.021864,2.804306,1.482072\H,0
 ,1.1062,4.996594,0.508809\H,0,1.43252,5.129418,-1.232376\H,0,2.742349,
 4.639685,-0.136701\\Version=ES64L-G09RevD.01\HF=-1938.7525277\RMSD=7.2
 88e-09\Dipole=1.5112336,0.5632045,-0.2948847\Quadrupole=-4.3177418,5.5
 050652,-1.1873235,-4.3379003,0.6759382,3.1523679\PG=C01 [X(C11H10F9N3O
 6)]\\@

 Writing a WFN file to "A1386248940/A1386248940_0.wfn"


 QUANTUM MECHANICS IS BOHRING -- M.S. GORDON
 Job cpu time:       0 days  0 hours 13 minutes 15.6 seconds.
 File lengths (MBytes):  RWF=    284 Int=      0 D2E=      0 Chk=     10 Scr=      1
 Normal termination of Gaussian 09 at Sun Mar  3 17:41:37 2024.
