 Entering Gaussian System, Link 0=g09
 Initial command:
 /home/k0335/k033513/app/g09/l1.exe "/home/k0335/k033513/app/g09/scratch/Gau-336715.inp" -scrdir="/home/k0335/k033513/app/g09/scratch/"
 Default is to use a total of  36 processors:
                               36 via shared-memory
                                1 via Linda
 Entering Link 1 = /home/k0335/k033513/app/g09/l1.exe PID=    336716.
  
 Copyright (c) 1988,1990,1992,1993,1995,1998,2003,2009,2013,
            Gaussian, Inc.  All Rights Reserved.
  
 This is part of the Gaussian(R) 09 program.  It is based on
 the Gaussian(R) 03 system (copyright 2003, Gaussian, Inc.),
 the Gaussian(R) 98 system (copyright 1998, Gaussian, Inc.),
 the Gaussian(R) 94 system (copyright 1995, Gaussian, Inc.),
 the Gaussian 92(TM) system (copyright 1992, Gaussian, Inc.),
 the Gaussian 90(TM) system (copyright 1990, Gaussian, Inc.),
 the Gaussian 88(TM) system (copyright 1988, Gaussian, Inc.),
 the Gaussian 86(TM) system (copyright 1986, Carnegie Mellon
 University), and the Gaussian 82(TM) system (copyright 1983,
 Carnegie Mellon University). Gaussian is a federally registered
 trademark of Gaussian, Inc.
  
 This software contains proprietary and confidential information,
 including trade secrets, belonging to Gaussian, Inc.
  
 This software is provided under written license and may be
 used, copied, transmitted, or stored only in accord with that
 written license.
  
 The following legend is applicable only to US Government
 contracts under FAR:
  
                    RESTRICTED RIGHTS LEGEND
  
 Use, reproduction and disclosure by the US Government is
 subject to restrictions as set forth in subparagraphs (a)
 and (c) of the Commercial Computer Software - Restricted
 Rights clause in FAR 52.227-19.
  
 Gaussian, Inc.
 340 Quinnipiac St., Bldg. 40, Wallingford CT 06492
  
  
 ---------------------------------------------------------------
 Warning -- This program may not be used in any manner that
 competes with the business of Gaussian, Inc. or will provide
 assistance to any competitor of Gaussian, Inc.  The licensee
 of this program is prohibited from giving any competitor of
 Gaussian, Inc. access to this program.  By using this program,
 the user acknowledges that Gaussian, Inc. is engaged in the
 business of creating and licensing software in the field of
 computational chemistry and represents and warrants to the
 licensee that it is not a competitor of Gaussian, Inc. and that
 it will not use this program in any manner prohibited above.
 ---------------------------------------------------------------
  

 Cite this work as:
 Gaussian 09, Revision D.01,
 M. J. Frisch, G. W. Trucks, H. B. Schlegel, G. E. Scuseria, 
 M. A. Robb, J. R. Cheeseman, G. Scalmani, V. Barone, B. Mennucci, 
 G. A. Petersson, H. Nakatsuji, M. Caricato, X. Li, H. P. Hratchian, 
 A. F. Izmaylov, J. Bloino, G. Zheng, J. L. Sonnenberg, M. Hada, 
 M. Ehara, K. Toyota, R. Fukuda, J. Hasegawa, M. Ishida, T. Nakajima, 
 Y. Honda, O. Kitao, H. Nakai, T. Vreven, J. A. Montgomery, Jr., 
 J. E. Peralta, F. Ogliaro, M. Bearpark, J. J. Heyd, E. Brothers, 
 K. N. Kudin, V. N. Staroverov, T. Keith, R. Kobayashi, J. Normand, 
 K. Raghavachari, A. Rendell, J. C. Burant, S. S. Iyengar, J. Tomasi, 
 M. Cossi, N. Rega, J. M. Millam, M. Klene, J. E. Knox, J. B. Cross, 
 V. Bakken, C. Adamo, J. Jaramillo, R. Gomperts, R. E. Stratmann, 
 O. Yazyev, A. J. Austin, R. Cammi, C. Pomelli, J. W. Ochterski, 
 R. L. Martin, K. Morokuma, V. G. Zakrzewski, G. A. Voth, 
 P. Salvador, J. J. Dannenberg, S. Dapprich, A. D. Daniels, 
 O. Farkas, J. B. Foresman, J. V. Ortiz, J. Cioslowski, 
 and D. J. Fox, Gaussian, Inc., Wallingford CT, 2013.
 
 ******************************************
 Gaussian 09:  ES64L-G09RevD.01 24-Apr-2013
                 3-Mar-2024 
 ******************************************
 %nprocshared=24
 Will use up to   24 processors via shared memory.
 %mem=40GB
 %rwf=A1320413501/A1320413501_0.rwf
 %nosave
 %chk=A1320413501/A1320413501_0.chk
 ----------------------------------------------------------------------
 #p CAM-B3LYP/6-31G(d,p) SCRF=(PCM,Solvent=Generic,Read) NoSymm out=wfn
 ----------------------------------------------------------------------
 1/38=1,40=2/1;
 2/12=2,15=1,17=6,18=5,40=1/2;
 3/5=1,6=6,7=101,11=2,16=1,25=1,30=1,70=2203,72=-2,74=-40/1,2,3;
 4//1;
 5/5=2,38=5/2;
 6/7=2,8=2,9=2,10=2,28=1/1;
 99/5=1,6=100,9=1/99;
 Leave Link    1 at Sun Mar  3 17:50:01 2024, MaxMem=  5368709120 cpu:         2.0
 (Enter /home/k0335/k033513/app/g09/l101.exe)
 -------------------
 Title A1320413501_0
 -------------------
 Symbolic Z-matrix:
 Charge =  0 Multiplicity = 1
 C                    -0.81826   4.20034  -0.1776 
 C                    -0.02061   3.25217  -1.07869 
 C                    -0.49344   3.32893  -2.53259 
 N                     0.00444   1.85798  -0.58121 
 C                     1.2033    1.17131  -0.66353 
 O                     2.24737   1.72388  -1.00219 
 N                     1.1635   -0.16532  -0.35119 
 C                     2.40383  -0.92095  -0.47461 
 F                     2.13331  -2.25716  -0.57902 
 F                     2.92302  -0.63449  -1.71553 
 C                     3.53137  -0.71649   0.57608 
 F                     3.86478   0.60535   0.64178 
 O                     4.69974  -1.39757   0.08519 
 C                     5.7603   -1.42259   1.00163 
 F                     5.54044  -2.39958   1.89735 
 F                     5.89867  -0.24473   1.62899 
 F                     6.89704  -1.69854   0.33624 
 C                     3.00577  -1.1664    1.94002 
 F                     1.90587  -0.46207   2.30036 
 F                     2.69698  -2.47709   1.96703 
 F                     3.91189  -0.9537    2.92364 
 C                     0.0931   -0.73621   0.28614 
 O                     0.16933  -1.84977   0.79586 
 N                    -1.0612   -0.00071   0.33606 
 C                    -2.25793  -0.6375    0.86638 
 F                    -3.1903    0.30505   1.20003 
 F                    -1.92     -1.15936   2.09253 
 C                    -2.94597  -1.75992   0.0417 
 F                    -2.03905  -2.74388  -0.23053 
 O                    -3.94394  -2.35981   0.886 
 C                    -4.7471   -3.29886   0.22384 
 F                    -4.02381  -4.0753   -0.59702 
 F                    -5.69515  -2.64876  -0.47179 
 F                    -5.34733  -4.07615   1.14384 
 C                    -3.43928  -1.1583   -1.27525 
 F                    -3.99263  -2.0965   -2.08016 
 F                    -2.41605  -0.62755  -1.98745 
 F                    -4.36998  -0.20251  -1.09005 
 C                    -1.18078   1.2059   -0.3026 
 O                    -2.2765    1.65144  -0.6326 
 H                    -0.65692   5.23996  -0.4833 
 H                    -1.89535   4.01598  -0.21893 
 H                    -0.49878   4.10256   0.86546 
 H                     1.00732   3.63471  -1.06502 
 H                     0.1107    2.67613  -3.17184 
 H                    -0.40306   4.3517   -2.91363 
 H                    -1.53866   3.02433  -2.64221 
 
 NAtoms=     47 NQM=       47 NQMF=       0 NMMI=      0 NMMIF=      0
                NMic=       0 NMicF=      0.
                    Isotopes and Nuclear Properties:
 (Nuclear quadrupole moments (NQMom) in fm**2, nuclear magnetic moments (NMagM)
  in nuclear magnetons)

  Atom         1           2           3           4           5           6           7           8           9          10
 IAtWgt=          12          12          12          14          12          16          14          12          19          19
 AtmWgt=  12.0000000  12.0000000  12.0000000  14.0030740  12.0000000  15.9949146  14.0030740  12.0000000  18.9984033  18.9984033
 NucSpn=           0           0           0           2           0           0           2           0           1           1
 AtZEff=   0.0000000   0.0000000   0.0000000   0.0000000   0.0000000   0.0000000   0.0000000   0.0000000   0.0000000   0.0000000
 NQMom=    0.0000000   0.0000000   0.0000000   2.0440000   0.0000000   0.0000000   2.0440000   0.0000000   0.0000000   0.0000000
 NMagM=    0.0000000   0.0000000   0.0000000   0.4037610   0.0000000   0.0000000   0.4037610   0.0000000   2.6288670   2.6288670
 AtZNuc=   6.0000000   6.0000000   6.0000000   7.0000000   6.0000000   8.0000000   7.0000000   6.0000000   9.0000000   9.0000000

  Atom        11          12          13          14          15          16          17          18          19          20
 IAtWgt=          12          19          16          12          19          19          19          12          19          19
 AtmWgt=  12.0000000  18.9984033  15.9949146  12.0000000  18.9984033  18.9984033  18.9984033  12.0000000  18.9984033  18.9984033
 NucSpn=           0           1           0           0           1           1           1           0           1           1
 AtZEff=   0.0000000   0.0000000   0.0000000   0.0000000   0.0000000   0.0000000   0.0000000   0.0000000   0.0000000   0.0000000
 NQMom=    0.0000000   0.0000000   0.0000000   0.0000000   0.0000000   0.0000000   0.0000000   0.0000000   0.0000000   0.0000000
 NMagM=    0.0000000   2.6288670   0.0000000   0.0000000   2.6288670   2.6288670   2.6288670   0.0000000   2.6288670   2.6288670
 AtZNuc=   6.0000000   9.0000000   8.0000000   6.0000000   9.0000000   9.0000000   9.0000000   6.0000000   9.0000000   9.0000000

  Atom        21          22          23          24          25          26          27          28          29          30
 IAtWgt=          19          12          16          14          12          19          19          12          19          16
 AtmWgt=  18.9984033  12.0000000  15.9949146  14.0030740  12.0000000  18.9984033  18.9984033  12.0000000  18.9984033  15.9949146
 NucSpn=           1           0           0           2           0           1           1           0           1           0
 AtZEff=   0.0000000   0.0000000   0.0000000   0.0000000   0.0000000   0.0000000   0.0000000   0.0000000   0.0000000   0.0000000
 NQMom=    0.0000000   0.0000000   0.0000000   2.0440000   0.0000000   0.0000000   0.0000000   0.0000000   0.0000000   0.0000000
 NMagM=    2.6288670   0.0000000   0.0000000   0.4037610   0.0000000   2.6288670   2.6288670   0.0000000   2.6288670   0.0000000
 AtZNuc=   9.0000000   6.0000000   8.0000000   7.0000000   6.0000000   9.0000000   9.0000000   6.0000000   9.0000000   8.0000000

  Atom        31          32          33          34          35          36          37          38          39          40
 IAtWgt=          12          19          19          19          12          19          19          19          12          16
 AtmWgt=  12.0000000  18.9984033  18.9984033  18.9984033  12.0000000  18.9984033  18.9984033  18.9984033  12.0000000  15.9949146
 NucSpn=           0           1           1           1           0           1           1           1           0           0
 AtZEff=   0.0000000   0.0000000   0.0000000   0.0000000   0.0000000   0.0000000   0.0000000   0.0000000   0.0000000   0.0000000
 NQMom=    0.0000000   0.0000000   0.0000000   0.0000000   0.0000000   0.0000000   0.0000000   0.0000000   0.0000000   0.0000000
 NMagM=    0.0000000   2.6288670   2.6288670   2.6288670   0.0000000   2.6288670   2.6288670   2.6288670   0.0000000   0.0000000
 AtZNuc=   6.0000000   9.0000000   9.0000000   9.0000000   6.0000000   9.0000000   9.0000000   9.0000000   6.0000000   8.0000000

  Atom        41          42          43          44          45          46          47
 IAtWgt=           1           1           1           1           1           1           1
 AtmWgt=   1.0078250   1.0078250   1.0078250   1.0078250   1.0078250   1.0078250   1.0078250
 NucSpn=           1           1           1           1           1           1           1
 AtZEff=   0.0000000   0.0000000   0.0000000   0.0000000   0.0000000   0.0000000   0.0000000
 NQMom=    0.0000000   0.0000000   0.0000000   0.0000000   0.0000000   0.0000000   0.0000000
 NMagM=    2.7928460   2.7928460   2.7928460   2.7928460   2.7928460   2.7928460   2.7928460
 AtZNuc=   1.0000000   1.0000000   1.0000000   1.0000000   1.0000000   1.0000000   1.0000000
 Leave Link  101 at Sun Mar  3 17:50:02 2024, MaxMem=  5368709120 cpu:         0.9
 (Enter /home/k0335/k033513/app/g09/l202.exe)
                          Input orientation:                          
 ---------------------------------------------------------------------
 Center     Atomic      Atomic             Coordinates (Angstroms)
 Number     Number       Type             X           Y           Z
 ---------------------------------------------------------------------
      1          6           0       -0.818255    4.200336   -0.177601
      2          6           0       -0.020607    3.252169   -1.078694
      3          6           0       -0.493439    3.328928   -2.532589
      4          7           0        0.004443    1.857981   -0.581212
      5          6           0        1.203302    1.171308   -0.663532
      6          8           0        2.247371    1.723883   -1.002185
      7          7           0        1.163499   -0.165323   -0.351187
      8          6           0        2.403827   -0.920945   -0.474607
      9          9           0        2.133314   -2.257163   -0.579015
     10          9           0        2.923021   -0.634490   -1.715529
     11          6           0        3.531374   -0.716489    0.576076
     12          9           0        3.864784    0.605352    0.641775
     13          8           0        4.699736   -1.397569    0.085188
     14          6           0        5.760302   -1.422591    1.001632
     15          9           0        5.540443   -2.399584    1.897353
     16          9           0        5.898669   -0.244728    1.628993
     17          9           0        6.897038   -1.698543    0.336243
     18          6           0        3.005772   -1.166395    1.940019
     19          9           0        1.905865   -0.462067    2.300364
     20          9           0        2.696976   -2.477089    1.967029
     21          9           0        3.911887   -0.953696    2.923642
     22          6           0        0.093096   -0.736205    0.286143
     23          8           0        0.169331   -1.849772    0.795864
     24          7           0       -1.061196   -0.000713    0.336060
     25          6           0       -2.257928   -0.637502    0.866376
     26          9           0       -3.190296    0.305052    1.200031
     27          9           0       -1.919995   -1.159355    2.092525
     28          6           0       -2.945968   -1.759915    0.041704
     29          9           0       -2.039053   -2.743878   -0.230534
     30          8           0       -3.943938   -2.359807    0.885998
     31          6           0       -4.747103   -3.298856    0.223839
     32          9           0       -4.023810   -4.075300   -0.597020
     33          9           0       -5.695149   -2.648759   -0.471786
     34          9           0       -5.347334   -4.076153    1.143843
     35          6           0       -3.439281   -1.158295   -1.275248
     36          9           0       -3.992633   -2.096504   -2.080163
     37          9           0       -2.416049   -0.627547   -1.987451
     38          9           0       -4.369982   -0.202508   -1.090055
     39          6           0       -1.180783    1.205898   -0.302600
     40          8           0       -2.276497    1.651435   -0.632595
     41          1           0       -0.656916    5.239965   -0.483300
     42          1           0       -1.895346    4.015984   -0.218929
     43          1           0       -0.498781    4.102561    0.865458
     44          1           0        1.007316    3.634714   -1.065024
     45          1           0        0.110700    2.676134   -3.171836
     46          1           0       -0.403063    4.351705   -2.913631
     47          1           0       -1.538663    3.024334   -2.642211
 ---------------------------------------------------------------------
                    Distance matrix (angstroms):
                    1          2          3          4          5
     1  C    0.000000
     2  C    1.532068   0.000000
     3  C    2.531961   1.530775   0.000000
     4  N    2.515226   1.480499   2.493881   0.000000
     5  C    3.673940   2.449550   3.320787   1.384037   0.000000
     6  O    4.026266   2.735916   3.525669   2.286029   1.228863
     7  N    4.797547   3.689258   4.440017   2.343092   1.373217
     8  C    6.057850   4.863916   5.539933   3.672988   2.419602
     9  F    7.111412   5.936480   6.474619   4.633196   3.553376
    10  F    6.303801   4.916973   5.296080   4.002147   2.706481
    11  C    6.607758   5.577193   6.498332   4.517350   3.243505
    12  F    5.960381   5.006188   6.040576   4.238751   3.017883
    13  O    7.864720   6.727282   7.494104   5.752258   4.402813
    14  C    8.734146   7.720107   8.612603   6.811568   5.501575
    15  F    9.396671   8.469029   9.425920   7.410630   6.174155
    16  F    8.254662   7.389025   8.423113   6.636889   5.413622
    17  F    9.725562   8.623538   9.387482   7.810151   6.454008
    18  C    6.921654   6.147789   7.242695   4.950902   3.936017
    19  F    5.941308   5.378185   6.594372   4.159508   3.456326
    20  F    7.845017   7.034635   8.008442   5.704042   4.739379
    21  F    7.652189   7.012311   8.216947   5.954632   4.971910
    22  C    5.041335   4.216970   4.981423   2.736780   2.402716
    23  O    6.206993   5.438736   6.191672   3.958656   3.510820
    24  N    4.239302   3.696701   4.431479   2.330605   2.738753
    25  C    5.154340   4.890649   5.513524   3.666234   4.194344
    26  F    4.764209   4.891320   5.509021   3.973760   4.850461
    27  F    5.923984   5.755506   6.600866   4.467286   4.773136
    28  C    6.332444   5.910500   6.207915   4.709790   5.128925
    29  F    7.050905   6.383266   6.675878   5.047371   5.101866
    30  O    7.344155   7.123680   7.480266   5.960885   6.431477
    31  C    8.475546   8.182438   8.343804   7.058205   7.495139
    32  F    8.884686   8.363579   8.428080   7.171534   7.406350
    33  F    8.413129   8.209124   8.187639   7.266913   7.887858
    34  F    9.526754   9.328344   9.587058   8.175040   8.585644
    35  C    6.065438   5.583741   5.513081   4.630210   5.230184
    36  F    7.303876   6.737079   6.471813   5.819057   6.299459
    37  F    5.397866   4.649320   4.432527   3.743546   4.253039
    38  F    5.729954   5.554456   5.438707   4.862112   5.755935
    39  C    3.018892   2.477005   3.154766   1.381158   2.411499
    40  O    2.971596   2.801855   3.098912   2.290849   3.512902
    41  H    1.095587   2.170418   2.806844   3.447434   4.477372
    42  H    1.093535   2.199376   2.791131   2.897831   4.229831
    43  H    1.095261   2.175211   3.485005   2.717394   3.718486
    44  H    2.107168   1.096883   2.121207   2.096809   2.503593
    45  H    3.485913   2.174926   1.095336   2.718823   3.122478
    46  H    2.771490   2.173073   1.095187   3.438735   4.214057
    47  H    2.824229   2.191116   1.094206   2.826530   3.855807
                    6          7          8          9         10
     6  O    0.000000
     7  N    2.273252   0.000000
     8  C    2.701469   1.457604   0.000000
     9  F    4.005098   2.316947   1.367317   0.000000
    10  F    2.554855   2.275404   1.375320   2.132691   0.000000
    11  C    3.177261   2.602006   1.554702   2.379597   2.372398
    12  F    2.563151   2.979405   2.389621   3.561223   2.825068
    13  O    4.115815   3.770123   2.410755   2.786860   2.642269
    14  C    5.124087   4.953932   3.700926   4.043513   4.006773
    15  F    6.021181   5.404211   4.201301   4.214405   4.797851
    16  F    4.912281   5.133152   4.134770   4.806568   4.493576
    17  F    5.926533   5.974679   4.631531   4.882911   4.597259
    18  C    4.193500   3.105759   2.500600   2.880363   3.694970
    19  F    3.975152   2.769456   2.856396   3.400724   4.146291
    20  F    5.163966   3.615237   2.910173   2.616949   4.124015
    21  F    5.035093   4.347375   3.717985   4.138956   4.754120
    22  C    3.514644   1.370350   2.439743   2.687806   3.467782
    23  O    4.508020   2.267480   2.733091   2.431767   3.920053
    24  N    3.963805   2.334239   3.675649   4.016693   4.526000
    25  C    5.418983   3.662182   4.859067   4.898516   5.788651
    26  F    6.035815   4.645757   5.966715   6.170152   6.837827
    27  F    5.937780   4.058049   5.034128   4.977110   6.183168
    28  C    6.340136   4.425472   5.439738   5.141172   6.228923
    29  F    6.239372   4.113374   4.808517   4.215089   5.592576
    30  O    7.653370   5.694936   6.649488   6.252183   7.543195
    31  C    8.697914   6.714529   7.568229   7.004987   8.348101
    32  F    8.551163   6.500502   7.160968   6.419978   7.832541
    33  F    9.082122   7.295413   8.281229   7.838985   8.937395
    34  F    9.794151   7.740843   8.523803   7.889047   9.403182
    35  C    6.381185   4.798486   5.902480   5.722418   6.398993
    36  F    7.395610   5.771006   6.698839   6.309238   7.077903
    37  F    5.314834   3.962849   5.060236   5.033492   5.345995
    38  F    6.892609   5.582716   6.839548   6.839271   7.332511
    39  C    3.536943   2.716296   4.171628   4.801295   4.714298
    40  O    4.539518   3.900432   5.342989   5.892915   5.782144
    41  H    4.589876   5.705130   6.879319   8.000092   6.988817
    42  H    4.798887   5.182408   6.551452   7.464056   6.861733
    43  H    4.085040   4.739012   5.954538   7.032817   6.388261
    44  H    2.278807   3.869656   4.801340   6.018163   4.724318
    45  H    3.190538   4.139846   5.047024   5.928837   4.581507
    46  H    4.193313   5.424369   6.452000   7.453910   6.112317
    47  H    4.326073   4.767010   5.983892   6.755324   5.844002
                   11         12         13         14         15
    11  C    0.000000
    12  F    1.364823   0.000000
    13  O    1.438718   2.240229   0.000000
    14  C    2.376510   2.799114   1.401890   0.000000
    15  F    2.935122   3.662506   2.234897   1.343566   0.000000
    16  F    2.633492   2.415352   2.269321   1.341674   2.200852
    17  F    3.514206   3.820451   2.231983   1.345757   2.183775
    18  C    1.529383   2.358480   2.522569   2.921240   2.819066
    19  F    2.383313   2.779868   3.686175   4.179234   4.138423
    20  F    2.393884   3.552677   2.952581   3.380521   2.845376
    21  F    2.390005   2.764013   2.979018   2.707512   2.407500
    22  C    3.450537   4.018940   4.658210   5.753284   5.919157
    23  O    3.554711   4.439341   4.608049   5.611041   5.510392
    24  N    4.654207   4.972530   5.933168   6.999826   7.195405
    25  C    5.797114   6.251619   7.042517   8.057709   8.061168
    26  F    6.827424   7.083501   8.148276   9.117967   9.166631
    27  F    5.675665   6.219528   6.921487   7.761849   7.565342
    28  C    6.582572   7.234702   7.654409   8.765523   8.710441
    29  F    5.982523   6.843505   6.879208   8.005871   7.880051
    30  O    7.660081   8.356312   8.733859   9.750078   9.538234
    31  C    8.679048   9.464783   9.637265  10.701911  10.461498
    32  F    8.350962   9.255973   9.150733  10.262622  10.025211
    33  F    9.484746  10.159802  10.484719  11.614724  11.485357
    34  F    9.510056  10.345612  10.451755  11.421085  11.041845
    35  C    7.225830   7.754663   8.255400   9.480842   9.604251
    36  F    8.097575   8.743453   8.985240  10.250432  10.334023
    37  F    6.476992   6.919663   7.451387   8.741821   9.029816
    38  F    8.091452   8.453594   9.223294  10.415681  10.581506
    39  C    5.164501   5.168196   6.442742   7.535824   7.938147
    40  O    6.387434   6.358745   7.647187   8.758451   9.160565
    41  H    7.358220   6.572001   8.548319   9.368851  10.121140
    42  H    7.244144   6.749246   8.537807   9.469784  10.046349
    43  H    6.288810   5.596535   7.608208   8.349968   8.933920
    44  H    5.291223   4.500591   6.346718   7.241428   8.107877
    45  H    6.103912   5.738023   6.947123   8.132366   8.996760
    46  H    7.303728   6.700044   8.251401   9.309073  10.200526
    47  H    7.075055   6.770028   8.118470   9.291266  10.007011
                   16         17         18         19         20
    16  F    0.000000
    17  F    2.186669   0.000000
    18  C    3.052058   4.242314   0.000000
    19  F    4.054684   5.504403   1.354888   0.000000
    20  F    3.917722   4.572321   1.346849   2.190270   0.000000
    21  F    2.475087   4.020020   1.354179   2.157382   2.170678
    22  C    5.979086   6.871843   3.376988   2.723668   3.554750
    23  O    6.007960   6.745084   3.133926   2.684175   2.855546
    24  N    7.083145   8.137329   4.524569   3.588146   4.787103
    25  C    8.201581   9.231482   5.398053   4.407297   5.398758
    26  F    9.115676  10.320602   6.411240   5.269731   6.556567
    27  F    7.885614   9.006404   4.928132   3.894434   4.802978
    28  C    9.112787   9.847603   6.275275   5.506926   6.005334
    29  F    8.527076   9.014859   5.714019   5.212915   5.227851
    30  O   10.094677  10.875029   7.129773   6.310471   6.729348
    31  C   11.163988  11.754134   8.221906   7.524713   7.689494
    32  F   10.866646  11.215386   8.019558   7.524050   7.368690
    33  F   12.025359  12.653813   9.149876   8.381041   8.740998
    34  F   11.890659  12.499196   8.881158   8.185845   8.242910
    35  C    9.821738  10.475126   7.202549   6.468409   7.064363
    36  F   10.724960  11.161645   8.124324   7.526797   7.827865
    37  F    9.075227   9.658166   6.716511   6.090294   6.723224
    38  F   10.622627  11.455051   8.031947   7.137827   8.028784
    39  C    7.480241   8.607850   5.308894   4.368630   5.809701
    40  O    8.691579   9.814008   6.516201   5.528227   6.966935
    41  H    8.804506  10.289644   7.767188   6.843230   8.763882
    42  H    9.072770  10.500955   7.452454   6.391321   8.247899
    43  H    7.772340   9.414405   6.418603   5.355101   7.397169
    44  H    6.799495   8.068210   6.006227   5.377438   7.028686
    45  H    8.067216   8.803340   7.019796   6.558650   7.723501
    46  H    9.026320  10.022907   8.101080   7.462526   8.947822
    47  H    9.178445  10.116215   7.694864   6.960518   8.333750
                   21         22         23         24         25
    21  F    0.000000
    22  C    4.646167   0.000000
    23  O    4.397399   1.227053   0.000000
    24  N    5.686415   1.369610   2.268179   0.000000
    25  C    6.511447   2.423577   2.714066   1.455645   0.000000
    26  F    7.415948   3.563716   4.011697   2.317974   1.367130
    27  F    5.894396   2.737628   2.554073   2.272698   1.374762
    28  C    7.482361   3.216153   3.206543   2.594957   1.553478
    29  F    6.969022   2.973847   2.594201   2.966848   2.384940
    30  O    8.236694   4.392443   4.145750   3.765363   2.410259
    31  C    9.368395   5.477097   5.157362   4.947348   3.700223
    32  F    9.225766   5.373867   4.947275   5.123473   4.132593
    33  F   10.329439   6.142972   6.052887   5.397989   4.201228
    34  F    9.932301   6.441210   5.959149   5.969313   4.630954
    35  C    8.468306   3.885073   4.217787   3.097030   2.500675
    36  F    9.424729   4.913553   5.065013   4.338640   3.717523
    37  F    8.016731   3.387749   3.990597   2.761748   2.858221
    38  F    9.233818   4.700832   5.184162   3.608683   2.911634
    39  C    6.403731   2.396070   3.516611   1.370437   2.434106
    40  O    7.598001   3.487101   4.503445   2.268224   2.736145
    41  H    8.416808   6.071999   7.251435   5.319727   6.239350
    42  H    8.264226   5.176128   6.300777   4.139767   4.792106
    43  H    7.018251   4.909132   5.990116   4.175336   5.055966
    44  H    6.737915   4.665446   5.851898   4.411135   5.713489
    45  H    8.048574   4.858188   6.019128   4.565543   5.735655
    46  H    8.991097   6.030883   7.248883   5.471487   6.528489
    47  H    8.747110   5.037812   6.204395   4.271883   5.122164
                   26         27         28         29         30
    26  F    0.000000
    27  F    2.134174   0.000000
    28  C    2.380232   2.370477   0.000000
    29  F    3.559192   2.814514   1.365574   0.000000
    30  O    2.787125   2.644454   1.438279   2.241147   0.000000
    31  C    4.045337   4.007741   2.376047   2.801426   1.401906
    32  F    4.807455   4.490259   2.632626   2.417903   2.269061
    33  F    4.218324   4.800604   2.934572   3.665281   2.234684
    34  F    4.883741   4.599387   3.513720   3.822119   2.232005
    35  C    2.886240   3.694608   1.529597   2.359267   2.523746
    36  F    4.143777   4.752410   2.389795   2.767073   2.978223
    37  F    3.410167   4.144284   2.383389   2.776282   3.686717
    38  F    2.625599   4.128778   2.394621   3.553951   2.956389
    39  C    2.666002   3.446372   3.468497   4.042592   4.664980
    40  O    2.450774   3.931147   3.541212   4.420046   4.601798
    41  H    5.796981   7.012955   7.383340   8.106537   8.392617
    42  H    4.178679   5.668118   5.876457   6.761399   6.787364
    43  H    4.666612   5.586887   6.405928   7.102631   7.323369
    44  H    5.816964   6.443785   6.779036   7.117807   8.015964
    45  H    5.969240   6.822624   6.272845   6.530637   7.633270
    46  H    6.408298   7.598320   7.249294   7.760333   8.486423
    47  H    4.988508   6.329802   5.663298   6.272069   6.871869
                   31         32         33         34         35
    31  C    0.000000
    32  F    1.341577   0.000000
    33  F    1.343619   2.200926   0.000000
    34  F    1.345688   2.186852   2.183732   0.000000
    35  C    2.922270   3.051325   2.820634   4.243414   0.000000
    36  F    2.706160   2.473119   2.406330   4.018512   1.354372
    37  F    4.178458   4.050333   4.139449   5.503664   1.354965
    38  F    3.384658   3.919367   2.849994   4.577187   1.346859
    39  C    5.769626   6.005043   5.938561   6.881309   3.411197
    40  O    5.598460   5.987475   5.495881   6.737287   3.107998
    41  H    9.494269   9.905709   9.360336  10.556404   7.021856
    42  H    7.863552   8.375093   7.676017   8.902587   5.502064
    43  H    8.558089   9.024527   8.623850   9.511957   6.395762
    44  H    9.102137   9.218220   9.206357  10.233188   6.541357
    45  H    8.416018   8.325005   8.327823   9.695803   5.558980
    46  H    9.340529   9.459963   9.109077  10.580062   6.501001
    47  H    7.647945   7.795099   7.360102   8.902645   4.793258
                   36         37         38         39         40
    36  F    0.000000
    37  F    2.156861   0.000000
    38  F    2.170237   2.191765   0.000000
    39  C    4.687440   2.779591   3.574169   0.000000
    40  O    4.368938   2.654971   2.833558   1.228002   0.000000
    41  H    8.215884   6.307513   6.616307   4.071951   3.939909
    42  H    6.724977   4.996117   4.967732   2.900721   2.430532
    43  H    7.701434   5.847130   6.110961   3.196896   3.378233
    44  H    7.673126   5.544111   6.606075   3.356816   3.860546
    45  H    6.388049   4.324527   5.718121   3.473044   3.632694
    46  H    7.426916   5.450034   6.308941   4.161542   4.000542
    47  H    5.706211   3.812447   4.564873   2.984722   2.543188
                   41         42         43         44         45
    41  H    0.000000
    42  H    1.761173   0.000000
    43  H    1.771396   1.770250   0.000000
    44  H    2.384303   3.047407   2.492784   0.000000
    45  H    3.793506   3.813014   4.325032   2.482227   0.000000
    46  H    2.599992   3.098554   3.788502   2.433227   1.771485
    47  H    3.216737   2.642515   3.814141   3.056484   1.766959
                   46         47
    46  H    0.000000
    47  H    1.767815   0.000000
 Symmetry turned off by external request.
 Stoichiometry    C14H7F18N3O5
 Framework group  C1[X(C14H7F18N3O5)]
 Deg. of freedom   135
 Full point group                 C1      NOp   1
 Rotational constants (GHZ):      0.1614792      0.0568309      0.0481316
 Leave Link  202 at Sun Mar  3 17:50:02 2024, MaxMem=  5368709120 cpu:         0.1
 (Enter /home/k0335/k033513/app/g09/l301.exe)
 Standard basis: 6-31G(d,p) (6D, 7F)
 Ernie: Thresh=  0.10000D-02 Tol=  0.10000D-05 Strict=F.
   635 basis functions,  1169 primitive gaussians,   635 cartesian basis functions
   157 alpha electrons      157 beta electrons
       nuclear repulsion energy      6094.2971152035 Hartrees.
 IExCor=20419 DFT=T Ex+Corr=CAM-B3LYP ExCW=0 ScaHFX=  1.000000
 ScaDFX=  1.000000  1.000000  1.000000  0.810000 ScalE2=  1.000000  1.000000
 IRadAn=      0 IRanWt=     -1 IRanGd=            0 ICorTp=0 IEmpDi=  4
  HFx wShort=  0.000000 wLong=  0.330000 cFull=  0.190000 cShort=  0.000000 cLong=  0.460000
  DFx wShort=  0.000000 wLong=  0.330000 cFull=  0.190000 cShort=  0.000000 cLong=  0.460000
 NAtoms=   47 NActive=   47 NUniq=   47 SFac= 1.00D+00 NAtFMM=   60 NAOKFM=F Big=F
 Integral buffers will be    131072 words long.
 Raffenetti 2 integral format.
 Two-electron integral symmetry is turned off.
 Using the following non-standard input for PCM:
 eps=4.9
 --- end of non-standard input.
 ------------------------------------------------------------------------------
 Polarizable Continuum Model (PCM)
 =================================
 Model                : PCM (using non-symmetric T matrix).
 Atomic radii         : UFF (Universal Force Field).
 Polarization charges : Total charges.
 Charge compensation  : None.
 Solution method      : On-the-fly selection.
 Cavity type          : Scaled VdW (van der Waals Surface) (Alpha=1.100).
 Cavity algorithm     : GePol (No added spheres)
                        Default sphere list used, NSphG=   47.
                        Lebedev-Laikov grids with approx.  5.0 points / Ang**2.
                        Smoothing algorithm: Karplus/York (Gamma=1.0000).
                        Polarization charges: spherical gaussians, with
                                              point-specific exponents (IZeta= 3).
                        Self-potential: point-specific (ISelfS= 7).
                        Self-field    : sphere-specific E.n sum rule (ISelfD= 2).
 Solvent              : Generic,
                        Eps                           =   4.900000
                        Eps(infinity)                 =   0.000000
                        RSolv                         =   0.000000 Ang.
                        Molar volume                  =   0.000000 cm**3/mol
                        Thermal expansion coefficient =   0.000000 K**-1
                        Absolute temperature          = 298.150000 K
                        Numeral density               =   0.000000 Ang**-3
                        Hydrogen bond acidity         =   0.000000
                        Hydrogen bond basicity        =   0.000000
                        Surface tension at interface  =   0.000000 (cal/mol)*Ang**-2
                        Carbon aromaticity            =   0.000000
                        Electronegative halogenicity  =   0.000000
 ------------------------------------------------------------------------------
 GePol: Number of generator spheres                  =      47
 GePol: Total number of spheres                      =      47
 GePol: Number of exposed spheres                    =      47 (100.00%)
 GePol: Number of points                             =    3691
 GePol: Average weight of points                     =       0.13
 GePol: Minimum weight of points                     =   0.80D-11
 GePol: Maximum weight of points                     =    0.20577
 GePol: Number of points with low weight             =     158
 GePol: Fraction of low-weight points (<1% of avg)   =       4.28%
 GePol: Cavity surface area                          =    465.194 Ang**2
 GePol: Cavity volume                                =    547.252 Ang**3
 Leave Link  301 at Sun Mar  3 17:50:02 2024, MaxMem=  5368709120 cpu:         0.8
 (Enter /home/k0335/k033513/app/g09/l302.exe)
 NPDir=0 NMtPBC=     1 NCelOv=     1 NCel=       1 NClECP=     1 NCelD=      1
         NCelK=      1 NCelE2=     1 NClLst=     1 CellRange=     0.0.
 One-electron integrals computed using PRISM.
 NBasis=   635 RedAO= T EigKep=  1.27D-03  NBF=   635
 NBsUse=   635 1.00D-06 EigRej= -1.00D+00 NBFU=   635
 Precomputing XC quadrature grid using
 IXCGrd= 4 IRadAn=           0 IRanWt=          -1 IRanGd=           0 AccXCQ= 0.00D+00.
 Generated NRdTot=       0 NPtTot=           0 NUsed=           0 NTot=          32
 NSgBfM=   615   615   615   615   615 MxSgAt=    47 MxSgA2=    47.
 Leave Link  302 at Sun Mar  3 17:50:02 2024, MaxMem=  5368709120 cpu:        14.4
 (Enter /home/k0335/k033513/app/g09/l303.exe)
 DipDrv:  MaxL=1.
 Leave Link  303 at Sun Mar  3 17:50:02 2024, MaxMem=  5368709120 cpu:         1.0
 (Enter /home/k0335/k033513/app/g09/l401.exe)
 ExpMin= 1.61D-01 ExpMax= 7.00D+03 ExpMxC= 1.05D+03 IAcc=1 IRadAn=         1 AccDes= 0.00D+00
 Harris functional with IExCor=20419 and IRadAn=       1 diagonalized for initial guess.
 HarFok:  IExCor=20419 AccDes= 0.00D+00 IRadAn=         1 IDoV= 1 UseB2=F ITyADJ=14
 ICtDFT=  3500011 ScaDFX=  1.000000  1.000000  1.000000  1.000000
 FoFCou: FMM=F IPFlag=           0 FMFlag=      100000 FMFlg1=           0
         NFxFlg=           0 DoJE=T BraDBF=F KetDBF=T FulRan=T
         wScrn=  0.000000 ICntrl=     500 IOpCl=  0 I1Cent=   200000004 NGrid=           0
         NMat0=    1 NMatS0=      1 NMatT0=    0 NMatD0=    1 NMtDS0=    0 NMtDT0=    0
 Symmetry not used in FoFCou.
 Harris En= -2787.72922851913    
 JPrj=0 DoOrth=F DoCkMO=F.
 Leave Link  401 at Sun Mar  3 17:50:03 2024, MaxMem=  5368709120 cpu:        17.0
 (Enter /home/k0335/k033513/app/g09/l502.exe)
 Closed shell SCF:
 Using DIIS extrapolation, IDIIS=  1040.
 Two-electron integral symmetry not used.
 IVT=     1247369 IEndB=     1247369 NGot=  5368709120 MDV=  5367882252
 LenX=  5367882252 LenY=  5367478392
 Requested convergence on RMS density matrix=1.00D-08 within 128 cycles.
 Requested convergence on MAX density matrix=1.00D-06.
 Requested convergence on             energy=1.00D-06.
 No special actions if energy rises.
 Fock matrices will be formed incrementally for  20 cycles.

 Cycle   1  Pass 1  IDiag  1:
 FoFJK:  IHMeth= 1 ICntrl=       0 DoSepK=T KAlg= 0 I1Cent=   0 FoldK=F
 IRaf=         1 NMat=   1 IRICut=       1 DoRegI=T DoRafI=F ISym2E= 0.
 FoFCou: FMM=F IPFlag=           0 FMFlag=      100000 FMFlg1=           0
         NFxFlg=           0 DoJE=T BraDBF=F KetDBF=F FulRan=T
         wScrn=  0.000000 ICntrl=     500 IOpCl=  0 I1Cent=           0 NGrid=           0
         NMat0=    1 NMatS0=      1 NMatT0=    0 NMatD0=    1 NMtDS0=    0 NMtDT0=    0
 Symmetry not used in FoFCou.
 Inv3:  Mode=1 IEnd=    40870443.
 Iteration    1 A*A^-1 deviation from unit magnitude is 6.44D-15 for    184.
 Iteration    1 A*A^-1 deviation from orthogonality  is 6.23D-15 for   3679    138.
 Iteration    1 A^-1*A deviation from unit magnitude is 6.00D-15 for   3676.
 Iteration    1 A^-1*A deviation from orthogonality  is 9.47D-13 for   3300   3291.
 E= -2873.43676901094    
 DIIS: error= 5.57D-02 at cycle   1 NSaved=   1.
 NSaved= 1 IEnMin= 1 EnMin= -2873.43676901094     IErMin= 1 ErrMin= 5.57D-02
 ErrMax= 5.57D-02  0.00D+00 EMaxC= 1.00D-01 BMatC= 2.40D+00 BMatP= 2.40D+00
 IDIUse=3 WtCom= 4.43D-01 WtEn= 5.57D-01
 Coeff-Com:  0.100D+01
 Coeff-En:   0.100D+01
 Coeff:      0.100D+01
 Gap=     0.440 Goal=   None    Shift=    0.000
 GapD=    0.440 DampG=2.000 DampE=0.500 DampFc=1.0000 IDamp=-1.
 RMSDP=3.01D-03 MaxDP=1.41D-01              OVMax= 1.97D-01

 Cycle   2  Pass 1  IDiag  1:
 RMSU=  3.01D-03    CP:  1.00D+00
 E= -2873.79762284343     Delta-E=       -0.360853832482 Rises=F Damp=F
 DIIS: error= 1.65D-02 at cycle   2 NSaved=   2.
 NSaved= 2 IEnMin= 2 EnMin= -2873.79762284343     IErMin= 2 ErrMin= 1.65D-02
 ErrMax= 1.65D-02  0.00D+00 EMaxC= 1.00D-01 BMatC= 9.31D-01 BMatP= 2.40D+00
 IDIUse=3 WtCom= 8.35D-01 WtEn= 1.65D-01
 Coeff-Com:  0.363D+00 0.637D+00
 Coeff-En:   0.351D+00 0.649D+00
 Coeff:      0.361D+00 0.639D+00
 Gap=     0.403 Goal=   None    Shift=    0.000
 RMSDP=1.62D-03 MaxDP=1.33D-01 DE=-3.61D-01 OVMax= 1.34D-01

 Cycle   3  Pass 1  IDiag  1:
 RMSU=  1.01D-03    CP:  1.00D+00  5.81D-01
 E= -2874.22006951523     Delta-E=       -0.422446671802 Rises=F Damp=F
 DIIS: error= 1.18D-02 at cycle   3 NSaved=   3.
 NSaved= 3 IEnMin= 3 EnMin= -2874.22006951523     IErMin= 3 ErrMin= 1.18D-02
 ErrMax= 1.18D-02  0.00D+00 EMaxC= 1.00D-01 BMatC= 2.52D-01 BMatP= 9.31D-01
 IDIUse=3 WtCom= 8.82D-01 WtEn= 1.18D-01
 Coeff-Com:  0.115D+00 0.359D+00 0.526D+00
 Coeff-En:   0.000D+00 0.216D+00 0.784D+00
 Coeff:      0.102D+00 0.342D+00 0.556D+00
 Gap=     0.376 Goal=   None    Shift=    0.000
 RMSDP=7.71D-04 MaxDP=7.28D-02 DE=-4.22D-01 OVMax= 9.64D-02

 Cycle   4  Pass 1  IDiag  1:
 RMSU=  3.30D-04    CP:  1.00D+00  6.94D-01  4.00D-01
 E= -2874.38129965584     Delta-E=       -0.161230140615 Rises=F Damp=F
 DIIS: error= 3.85D-03 at cycle   4 NSaved=   4.
 NSaved= 4 IEnMin= 4 EnMin= -2874.38129965584     IErMin= 4 ErrMin= 3.85D-03
 ErrMax= 3.85D-03  0.00D+00 EMaxC= 1.00D-01 BMatC= 2.56D-02 BMatP= 2.52D-01
 IDIUse=3 WtCom= 9.62D-01 WtEn= 3.85D-02
 Coeff-Com:  0.804D-02 0.938D-01 0.292D+00 0.606D+00
 Coeff-En:   0.000D+00 0.000D+00 0.596D-01 0.940D+00
 Coeff:      0.773D-02 0.902D-01 0.283D+00 0.619D+00
 Gap=     0.363 Goal=   None    Shift=    0.000
 RMSDP=2.37D-04 MaxDP=2.26D-02 DE=-1.61D-01 OVMax= 2.35D-02

 Cycle   5  Pass 1  IDiag  1:
 RMSU=  1.04D-04    CP:  9.99D-01  6.83D-01  5.80D-01  6.81D-01
 E= -2874.39819525776     Delta-E=       -0.016895601913 Rises=F Damp=F
 DIIS: error= 8.65D-04 at cycle   5 NSaved=   5.
 NSaved= 5 IEnMin= 5 EnMin= -2874.39819525776     IErMin= 5 ErrMin= 8.65D-04
 ErrMax= 8.65D-04  0.00D+00 EMaxC= 1.00D-01 BMatC= 1.71D-03 BMatP= 2.56D-02
 IDIUse=3 WtCom= 9.91D-01 WtEn= 8.65D-03
 Coeff-Com: -0.171D-02 0.276D-01 0.120D+00 0.339D+00 0.516D+00
 Coeff-En:   0.000D+00 0.000D+00 0.000D+00 0.000D+00 0.100D+01
 Coeff:     -0.169D-02 0.273D-01 0.119D+00 0.336D+00 0.520D+00
 Gap=     0.358 Goal=   None    Shift=    0.000
 RMSDP=5.43D-05 MaxDP=3.91D-03 DE=-1.69D-02 OVMax= 6.09D-03

 Cycle   6  Pass 1  IDiag  1:
 RMSU=  2.55D-05    CP:  1.00D+00  6.88D-01  5.65D-01  7.17D-01  6.04D-01
 E= -2874.39940255560     Delta-E=       -0.001207297844 Rises=F Damp=F
 DIIS: error= 1.33D-04 at cycle   6 NSaved=   6.
 NSaved= 6 IEnMin= 6 EnMin= -2874.39940255560     IErMin= 6 ErrMin= 1.33D-04
 ErrMax= 1.33D-04  0.00D+00 EMaxC= 1.00D-01 BMatC= 3.29D-05 BMatP= 1.71D-03
 IDIUse=3 WtCom= 9.99D-01 WtEn= 1.33D-03
 Coeff-Com: -0.830D-03-0.107D-02 0.444D-02 0.299D-01 0.142D+00 0.826D+00
 Coeff-En:   0.000D+00 0.000D+00 0.000D+00 0.000D+00 0.000D+00 0.100D+01
 Coeff:     -0.829D-03-0.107D-02 0.444D-02 0.299D-01 0.141D+00 0.826D+00
 Gap=     0.359 Goal=   None    Shift=    0.000
 RMSDP=1.15D-05 MaxDP=7.31D-04 DE=-1.21D-03 OVMax= 7.97D-04

 Cycle   7  Pass 1  IDiag  1:
 RMSU=  8.04D-06    CP:  1.00D+00  6.87D-01  5.68D-01  7.30D-01  6.62D-01
                    CP:  9.83D-01
 E= -2874.39942876285     Delta-E=       -0.000026207254 Rises=F Damp=F
 DIIS: error= 1.05D-04 at cycle   7 NSaved=   7.
 NSaved= 7 IEnMin= 7 EnMin= -2874.39942876285     IErMin= 7 ErrMin= 1.05D-04
 ErrMax= 1.05D-04  0.00D+00 EMaxC= 1.00D-01 BMatC= 5.17D-06 BMatP= 3.29D-05
 IDIUse=3 WtCom= 9.99D-01 WtEn= 1.05D-03
 Coeff-Com: -0.144D-03-0.271D-02-0.750D-02-0.144D-01 0.227D-01 0.355D+00
 Coeff-Com:  0.647D+00
 Coeff-En:   0.000D+00 0.000D+00 0.000D+00 0.000D+00 0.000D+00 0.000D+00
 Coeff-En:   0.100D+01
 Coeff:     -0.144D-03-0.270D-02-0.749D-02-0.144D-01 0.226D-01 0.355D+00
 Coeff:      0.648D+00
 Gap=     0.359 Goal=   None    Shift=    0.000
 RMSDP=3.62D-06 MaxDP=2.67D-04 DE=-2.62D-05 OVMax= 3.64D-04

 Cycle   8  Pass 1  IDiag  1:
 RMSU=  2.26D-06    CP:  1.00D+00  6.87D-01  5.69D-01  7.30D-01  6.74D-01
                    CP:  1.06D+00  8.01D-01
 E= -2874.39943346158     Delta-E=       -0.000004698728 Rises=F Damp=F
 DIIS: error= 7.90D-06 at cycle   8 NSaved=   8.
 NSaved= 8 IEnMin= 8 EnMin= -2874.39943346158     IErMin= 8 ErrMin= 7.90D-06
 ErrMax= 7.90D-06  0.00D+00 EMaxC= 1.00D-01 BMatC= 2.75D-07 BMatP= 5.17D-06
 IDIUse=1 WtCom= 1.00D+00 WtEn= 0.00D+00
 Coeff-Com:  0.873D-05-0.851D-03-0.271D-02-0.741D-02-0.442D-02 0.376D-01
 Coeff-Com:  0.190D+00 0.787D+00
 Coeff:      0.873D-05-0.851D-03-0.271D-02-0.741D-02-0.442D-02 0.376D-01
 Coeff:      0.190D+00 0.787D+00
 Gap=     0.359 Goal=   None    Shift=    0.000
 RMSDP=1.25D-06 MaxDP=1.06D-04 DE=-4.70D-06 OVMax= 1.52D-04

 Cycle   9  Pass 1  IDiag  1:
 RMSU=  8.31D-07    CP:  1.00D+00  6.87D-01  5.69D-01  7.30D-01  6.78D-01
                    CP:  1.07D+00  8.66D-01  1.07D+00
 E= -2874.39943374053     Delta-E=       -0.000000278946 Rises=F Damp=F
 DIIS: error= 7.12D-06 at cycle   9 NSaved=   9.
 NSaved= 9 IEnMin= 9 EnMin= -2874.39943374053     IErMin= 9 ErrMin= 7.12D-06
 ErrMax= 7.12D-06  0.00D+00 EMaxC= 1.00D-01 BMatC= 6.08D-08 BMatP= 2.75D-07
 IDIUse=1 WtCom= 1.00D+00 WtEn= 0.00D+00
 Coeff-Com:  0.212D-04 0.408D-04 0.301D-04-0.107D-02-0.547D-02-0.414D-01
 Coeff-Com: -0.161D-01 0.356D+00 0.708D+00
 Coeff:      0.212D-04 0.408D-04 0.301D-04-0.107D-02-0.547D-02-0.414D-01
 Coeff:     -0.161D-01 0.356D+00 0.708D+00
 Gap=     0.359 Goal=   None    Shift=    0.000
 RMSDP=5.27D-07 MaxDP=4.39D-05 DE=-2.79D-07 OVMax= 7.48D-05

 Cycle  10  Pass 1  IDiag  1:
 RMSU=  2.95D-07    CP:  1.00D+00  6.87D-01  5.69D-01  7.30D-01  6.79D-01
                    CP:  1.08D+00  8.90D-01  1.18D+00  9.21D-01
 E= -2874.39943379853     Delta-E=       -0.000000057998 Rises=F Damp=F
 DIIS: error= 1.33D-06 at cycle  10 NSaved=  10.
 NSaved=10 IEnMin=10 EnMin= -2874.39943379853     IErMin=10 ErrMin= 1.33D-06
 ErrMax= 1.33D-06  0.00D+00 EMaxC= 1.00D-01 BMatC= 4.23D-09 BMatP= 6.08D-08
 IDIUse=1 WtCom= 1.00D+00 WtEn= 0.00D+00
 Coeff-Com:  0.698D-05 0.916D-04 0.276D-03 0.272D-03-0.141D-02-0.186D-01
 Coeff-Com: -0.226D-01 0.605D-01 0.258D+00 0.724D+00
 Coeff:      0.698D-05 0.916D-04 0.276D-03 0.272D-03-0.141D-02-0.186D-01
 Coeff:     -0.226D-01 0.605D-01 0.258D+00 0.724D+00
 Gap=     0.359 Goal=   None    Shift=    0.000
 RMSDP=1.56D-07 MaxDP=1.57D-05 DE=-5.80D-08 OVMax= 2.11D-05

 Cycle  11  Pass 1  IDiag  1:
 RMSU=  1.08D-07    CP:  1.00D+00  6.87D-01  5.69D-01  7.30D-01  6.79D-01
                    CP:  1.08D+00  8.95D-01  1.20D+00  9.95D-01  9.25D-01
 E= -2874.39943380203     Delta-E=       -0.000000003505 Rises=F Damp=F
 DIIS: error= 1.04D-06 at cycle  11 NSaved=  11.
 NSaved=11 IEnMin=11 EnMin= -2874.39943380203     IErMin=11 ErrMin= 1.04D-06
 ErrMax= 1.04D-06  0.00D+00 EMaxC= 1.00D-01 BMatC= 1.06D-09 BMatP= 4.23D-09
 IDIUse=1 WtCom= 1.00D+00 WtEn= 0.00D+00
 Coeff-Com:  0.147D-05 0.441D-04 0.150D-03 0.255D-03-0.404D-04-0.510D-02
 Coeff-Com: -0.991D-02-0.711D-02 0.566D-01 0.374D+00 0.591D+00
 Coeff:      0.147D-05 0.441D-04 0.150D-03 0.255D-03-0.404D-04-0.510D-02
 Coeff:     -0.991D-02-0.711D-02 0.566D-01 0.374D+00 0.591D+00
 Gap=     0.359 Goal=   None    Shift=    0.000
 RMSDP=5.56D-08 MaxDP=6.43D-06 DE=-3.51D-09 OVMax= 6.55D-06

 Cycle  12  Pass 1  IDiag  1:
 RMSU=  3.54D-08    CP:  1.00D+00  6.87D-01  5.69D-01  7.30D-01  6.79D-01
                    CP:  1.08D+00  8.96D-01  1.21D+00  1.01D+00  1.02D+00
                    CP:  8.30D-01
 E= -2874.39943380268     Delta-E=       -0.000000000651 Rises=F Damp=F
 DIIS: error= 2.64D-07 at cycle  12 NSaved=  12.
 NSaved=12 IEnMin=12 EnMin= -2874.39943380268     IErMin=12 ErrMin= 2.64D-07
 ErrMax= 2.64D-07  0.00D+00 EMaxC= 1.00D-01 BMatC= 1.06D-10 BMatP= 1.06D-09
 IDIUse=1 WtCom= 1.00D+00 WtEn= 0.00D+00
 Coeff-Com: -0.412D-06 0.388D-05 0.236D-04 0.585D-04 0.259D-03 0.812D-03
 Coeff-Com: -0.482D-03-0.121D-01-0.168D-01 0.339D-01 0.231D+00 0.763D+00
 Coeff:     -0.412D-06 0.388D-05 0.236D-04 0.585D-04 0.259D-03 0.812D-03
 Coeff:     -0.482D-03-0.121D-01-0.168D-01 0.339D-01 0.231D+00 0.763D+00
 Gap=     0.359 Goal=   None    Shift=    0.000
 RMSDP=2.27D-08 MaxDP=2.79D-06 DE=-6.51D-10 OVMax= 2.91D-06

 Cycle  13  Pass 1  IDiag  1:
 RMSU=  1.18D-08    CP:  1.00D+00  6.87D-01  5.69D-01  7.30D-01  6.79D-01
                    CP:  1.08D+00  8.96D-01  1.21D+00  1.02D+00  1.04D+00
                    CP:  9.17D-01  9.03D-01
 E= -2874.39943380277     Delta-E=       -0.000000000085 Rises=F Damp=F
 DIIS: error= 6.49D-08 at cycle  13 NSaved=  13.
 NSaved=13 IEnMin=13 EnMin= -2874.39943380277     IErMin=13 ErrMin= 6.49D-08
 ErrMax= 6.49D-08  0.00D+00 EMaxC= 1.00D-01 BMatC= 8.85D-12 BMatP= 1.06D-10
 IDIUse=1 WtCom= 1.00D+00 WtEn= 0.00D+00
 Coeff-Com: -0.262D-06-0.239D-05-0.300D-05-0.494D-06 0.111D-03 0.749D-03
 Coeff-Com:  0.712D-03-0.386D-02-0.116D-01-0.249D-01 0.224D-01 0.266D+00
 Coeff-Com:  0.750D+00
 Coeff:     -0.262D-06-0.239D-05-0.300D-05-0.494D-06 0.111D-03 0.749D-03
 Coeff:      0.712D-03-0.386D-02-0.116D-01-0.249D-01 0.224D-01 0.266D+00
 Coeff:      0.750D+00
 Gap=     0.359 Goal=   None    Shift=    0.000
 RMSDP=6.91D-09 MaxDP=5.02D-07 DE=-8.55D-11 OVMax= 9.15D-07

 Error on total polarization charges =  0.00315
 SCF Done:  E(RCAM-B3LYP) =  -2874.39943380     A.U. after   13 cycles
            NFock= 13  Conv=0.69D-08     -V/T= 2.0074
 KE= 2.853251177915D+03 PE=-1.897996694306D+04 EE= 7.158019216141D+03
 Leave Link  502 at Sun Mar  3 17:51:02 2024, MaxMem=  5368709120 cpu:      1338.3
 (Enter /home/k0335/k033513/app/g09/l601.exe)
 Copying SCF densities to generalized density rwf, IOpCl= 0 IROHF=0.

 **********************************************************************

            Population analysis using the SCF density.

 **********************************************************************

 Alpha  occ. eigenvalues --  -24.84329 -24.84234 -24.83672 -24.83671 -24.83552
 Alpha  occ. eigenvalues --  -24.83549 -24.83491 -24.83490 -24.83248 -24.83243
 Alpha  occ. eigenvalues --  -24.83142 -24.83115 -24.83107 -24.83052 -24.82945
 Alpha  occ. eigenvalues --  -24.82916 -24.82086 -24.81991 -19.32990 -19.32966
 Alpha  occ. eigenvalues --  -19.24364 -19.24211 -19.24027 -14.53500 -14.53364
 Alpha  occ. eigenvalues --  -14.50492 -10.59554 -10.59549 -10.55813 -10.55801
 Alpha  occ. eigenvalues --  -10.53625 -10.53622 -10.49247 -10.49244 -10.47033
 Alpha  occ. eigenvalues --  -10.45924 -10.45919 -10.32489 -10.25863 -10.25762
 Alpha  occ. eigenvalues --   -1.43289  -1.43282  -1.42129  -1.42093  -1.38769
 Alpha  occ. eigenvalues --   -1.38687  -1.35816  -1.35749  -1.33577  -1.33528
 Alpha  occ. eigenvalues --   -1.33475  -1.33466  -1.33153  -1.33149  -1.32526
 Alpha  occ. eigenvalues --   -1.32493  -1.31163  -1.31114  -1.23572  -1.20455
 Alpha  occ. eigenvalues --   -1.20420  -1.18204  -1.18097  -1.10290  -1.08864
 Alpha  occ. eigenvalues --   -1.06652  -0.94180  -0.93445  -0.89251  -0.85629
 Alpha  occ. eigenvalues --   -0.84066  -0.82809  -0.82620  -0.80102  -0.78874
 Alpha  occ. eigenvalues --   -0.77754  -0.77293  -0.76064  -0.74881  -0.73912
 Alpha  occ. eigenvalues --   -0.73053  -0.72362  -0.71912  -0.71113  -0.70657
 Alpha  occ. eigenvalues --   -0.70202  -0.69753  -0.69652  -0.68911  -0.68899
 Alpha  occ. eigenvalues --   -0.68160  -0.67367  -0.67208  -0.66983  -0.66250
 Alpha  occ. eigenvalues --   -0.65729  -0.64399  -0.63965  -0.62188  -0.60395
 Alpha  occ. eigenvalues --   -0.60324  -0.58277  -0.57820  -0.57667  -0.57312
 Alpha  occ. eigenvalues --   -0.57180  -0.57093  -0.56622  -0.56340  -0.56085
 Alpha  occ. eigenvalues --   -0.55921  -0.55870  -0.55510  -0.54910  -0.54700
 Alpha  occ. eigenvalues --   -0.54561  -0.54427  -0.54281  -0.54148  -0.53744
 Alpha  occ. eigenvalues --   -0.53482  -0.53161  -0.53022  -0.52847  -0.52548
 Alpha  occ. eigenvalues --   -0.52304  -0.52041  -0.51898  -0.51793  -0.51376
 Alpha  occ. eigenvalues --   -0.50938  -0.50930  -0.50841  -0.50758  -0.50327
 Alpha  occ. eigenvalues --   -0.50242  -0.49695  -0.49467  -0.49233  -0.49130
 Alpha  occ. eigenvalues --   -0.48907  -0.48653  -0.47863  -0.46364  -0.46086
 Alpha  occ. eigenvalues --   -0.45948  -0.45411  -0.44578  -0.44566  -0.42509
 Alpha  occ. eigenvalues --   -0.42214  -0.40013  -0.39765  -0.38592  -0.38321
 Alpha  occ. eigenvalues --   -0.36454  -0.35923
 Alpha virt. eigenvalues --   -0.00057   0.00530   0.05608   0.06275   0.06608
 Alpha virt. eigenvalues --    0.07408   0.10097   0.13096   0.13925   0.14991
 Alpha virt. eigenvalues --    0.16043   0.17322   0.17927   0.19437   0.19674
 Alpha virt. eigenvalues --    0.19881   0.20095   0.20555   0.21438   0.21693
 Alpha virt. eigenvalues --    0.21978   0.22431   0.22695   0.22788   0.23411
 Alpha virt. eigenvalues --    0.23595   0.23861   0.24416   0.24660   0.24862
 Alpha virt. eigenvalues --    0.25157   0.25295   0.25573   0.26458   0.26750
 Alpha virt. eigenvalues --    0.27161   0.27941   0.28387   0.28829   0.29643
 Alpha virt. eigenvalues --    0.29781   0.31053   0.33618   0.33890   0.36968
 Alpha virt. eigenvalues --    0.38485   0.38866   0.40035   0.40380   0.45992
 Alpha virt. eigenvalues --    0.47209   0.48885   0.49228   0.50101   0.50767
 Alpha virt. eigenvalues --    0.50827   0.51294   0.52173   0.52770   0.53219
 Alpha virt. eigenvalues --    0.54364   0.54500   0.54958   0.55201   0.55812
 Alpha virt. eigenvalues --    0.56108   0.56382   0.56546   0.57878   0.58265
 Alpha virt. eigenvalues --    0.58950   0.59352   0.60407   0.61753   0.61962
 Alpha virt. eigenvalues --    0.62163   0.63295   0.64844   0.65994   0.67084
 Alpha virt. eigenvalues --    0.68009   0.68898   0.71535   0.72151   0.72550
 Alpha virt. eigenvalues --    0.72745   0.73909   0.75223   0.76247   0.78485
 Alpha virt. eigenvalues --    0.78921   0.80928   0.82243   0.83162   0.83797
 Alpha virt. eigenvalues --    0.84506   0.85219   0.86008   0.86487   0.87575
 Alpha virt. eigenvalues --    0.88810   0.89927   0.91109   0.91803   0.92635
 Alpha virt. eigenvalues --    0.93011   0.93850   0.94257   0.95032   0.96967
 Alpha virt. eigenvalues --    0.97083   0.97508   0.99344   1.00264   1.00526
 Alpha virt. eigenvalues --    1.01119   1.01688   1.02325   1.03150   1.03818
 Alpha virt. eigenvalues --    1.04875   1.06682   1.07292   1.08216   1.08567
 Alpha virt. eigenvalues --    1.09177   1.09827   1.10329   1.11035   1.11122
 Alpha virt. eigenvalues --    1.12333   1.12563   1.13249   1.14024   1.14754
 Alpha virt. eigenvalues --    1.15673   1.16928   1.17208   1.17799   1.18778
 Alpha virt. eigenvalues --    1.19002   1.19624   1.20336   1.20581   1.20927
 Alpha virt. eigenvalues --    1.21735   1.22760   1.22967   1.23339   1.24437
 Alpha virt. eigenvalues --    1.25436   1.26577   1.28067   1.28635   1.28816
 Alpha virt. eigenvalues --    1.29714   1.30622   1.31197   1.31913   1.32780
 Alpha virt. eigenvalues --    1.33143   1.33541   1.33780   1.34854   1.35453
 Alpha virt. eigenvalues --    1.35950   1.36212   1.37039   1.37713   1.37972
 Alpha virt. eigenvalues --    1.38242   1.38763   1.39284   1.39715   1.40109
 Alpha virt. eigenvalues --    1.40350   1.40592   1.41133   1.41999   1.42162
 Alpha virt. eigenvalues --    1.42751   1.43228   1.44105   1.44906   1.45205
 Alpha virt. eigenvalues --    1.45717   1.46308   1.46594   1.47875   1.48161
 Alpha virt. eigenvalues --    1.49212   1.49848   1.50021   1.50439   1.51402
 Alpha virt. eigenvalues --    1.51958   1.52908   1.53813   1.54483   1.54971
 Alpha virt. eigenvalues --    1.55101   1.55456   1.56535   1.56926   1.57268
 Alpha virt. eigenvalues --    1.57761   1.60104   1.60753   1.61591   1.62453
 Alpha virt. eigenvalues --    1.63852   1.64116   1.65231   1.66148   1.67313
 Alpha virt. eigenvalues --    1.67502   1.68310   1.68855   1.69016   1.70083
 Alpha virt. eigenvalues --    1.70367   1.71412   1.72094   1.72936   1.72986
 Alpha virt. eigenvalues --    1.73628   1.74586   1.76324   1.76599   1.77858
 Alpha virt. eigenvalues --    1.78457   1.78643   1.79886   1.80908   1.81392
 Alpha virt. eigenvalues --    1.82301   1.82931   1.83766   1.83945   1.84213
 Alpha virt. eigenvalues --    1.84551   1.84926   1.85185   1.85374   1.85845
 Alpha virt. eigenvalues --    1.86625   1.86968   1.87116   1.87595   1.88160
 Alpha virt. eigenvalues --    1.88308   1.88523   1.88787   1.89675   1.90269
 Alpha virt. eigenvalues --    1.90575   1.90971   1.91093   1.91518   1.92484
 Alpha virt. eigenvalues --    1.92632   1.92994   1.93579   1.94182   1.94521
 Alpha virt. eigenvalues --    1.95039   1.95480   1.96412   1.96717   1.97155
 Alpha virt. eigenvalues --    1.97670   1.98009   1.98877   1.99089   1.99559
 Alpha virt. eigenvalues --    1.99917   2.00437   2.00511   2.01042   2.01335
 Alpha virt. eigenvalues --    2.01639   2.01849   2.02081   2.02626   2.03256
 Alpha virt. eigenvalues --    2.03764   2.03883   2.04025   2.04267   2.04513
 Alpha virt. eigenvalues --    2.04925   2.05562   2.06897   2.07397   2.07672
 Alpha virt. eigenvalues --    2.08148   2.09212   2.09238   2.10153   2.10469
 Alpha virt. eigenvalues --    2.10776   2.11362   2.11677   2.12142   2.12767
 Alpha virt. eigenvalues --    2.13606   2.13922   2.15064   2.15939   2.16671
 Alpha virt. eigenvalues --    2.17516   2.18155   2.18285   2.18486   2.18905
 Alpha virt. eigenvalues --    2.19120   2.20021   2.20616   2.20980   2.21143
 Alpha virt. eigenvalues --    2.21813   2.22232   2.22928   2.24936   2.25287
 Alpha virt. eigenvalues --    2.26984   2.27360   2.27942   2.28263   2.28980
 Alpha virt. eigenvalues --    2.30104   2.30611   2.32136   2.32661   2.33908
 Alpha virt. eigenvalues --    2.35269   2.36661   2.37329   2.38808   2.40334
 Alpha virt. eigenvalues --    2.41362   2.42188   2.42529   2.43045   2.44001
 Alpha virt. eigenvalues --    2.44751   2.45620   2.46449   2.46741   2.48502
 Alpha virt. eigenvalues --    2.49586   2.49930   2.50484   2.51221   2.52789
 Alpha virt. eigenvalues --    2.55308   2.55983   2.56614   2.57974   2.58058
 Alpha virt. eigenvalues --    2.60531   2.61710   2.62552   2.63526   2.64599
 Alpha virt. eigenvalues --    2.65050   2.65183   2.66959   2.67811   2.69295
 Alpha virt. eigenvalues --    2.71964   2.72624   2.72994   2.73878   2.75263
 Alpha virt. eigenvalues --    2.76290   2.77206   2.78676   2.79310   2.79962
 Alpha virt. eigenvalues --    2.80534   2.82680   2.83679   2.84351   2.84813
 Alpha virt. eigenvalues --    2.85139   2.86768   2.88095   2.88450   2.88650
 Alpha virt. eigenvalues --    2.91461   2.91952   2.92391   2.92754   2.93232
 Alpha virt. eigenvalues --    2.94742   2.95646   2.95657   2.96062   2.96206
 Alpha virt. eigenvalues --    2.96806   2.98317   2.99500   3.00854   3.04236
 Alpha virt. eigenvalues --    3.04362   3.05379   3.05612   3.06116   3.06532
 Alpha virt. eigenvalues --    3.06777   3.09499   3.09640   3.12646   3.12709
 Alpha virt. eigenvalues --    3.13975   3.14750   3.17997   3.18786   3.18998
 Alpha virt. eigenvalues --    3.19721   3.25427   3.25781   3.26002   3.29085
 Alpha virt. eigenvalues --    3.29781   3.30067   3.30866   3.31164   3.35896
 Alpha virt. eigenvalues --    3.36800   3.40311   3.43391   3.49496   3.50580
 Alpha virt. eigenvalues --    3.55623   3.55954   3.62004   4.03842   4.05097
 Alpha virt. eigenvalues --    4.17043   4.21555   4.22475   4.26720   4.28606
 Alpha virt. eigenvalues --    4.33542   4.34808   4.39751   4.41917   4.43121
 Alpha virt. eigenvalues --    4.44461   4.48480   4.50089   4.54076   4.55633
 Alpha virt. eigenvalues --    4.57767   4.63467   4.63561   4.67666   4.69898
 Alpha virt. eigenvalues --    4.71970   4.78666   4.83701   4.88102   5.00169
 Alpha virt. eigenvalues --    5.02069   5.24129   5.24605   5.46750   5.50031
 Alpha virt. eigenvalues --    5.61207   5.61473   5.64331   5.66023   6.27420
 Alpha virt. eigenvalues --    6.33380   6.37488   6.40361
          Condensed to atoms (all electrons):
               1          2          3          4          5          6
     1  C    4.967584   0.369351  -0.054416  -0.042796   0.003288   0.000481
     2  C    0.369351   4.782545   0.373459   0.231966  -0.022904  -0.004144
     3  C   -0.054416   0.373459   4.959377  -0.054931  -0.000367  -0.000710
     4  N   -0.042796   0.231966  -0.054931   7.359057   0.262165  -0.088536
     5  C    0.003288  -0.022904  -0.000367   0.262165   4.176987   0.573133
     6  O    0.000481  -0.004144  -0.000710  -0.088536   0.573133   8.092657
     7  N   -0.000103   0.002437  -0.000193  -0.091757   0.196356  -0.087443
     8  C    0.000001  -0.000021   0.000001   0.002261  -0.012730   0.015748
     9  F    0.000000   0.000000   0.000000  -0.000019   0.000592   0.000012
    10  F    0.000000   0.000004   0.000000   0.000053   0.007510  -0.008356
    11  C    0.000000   0.000000   0.000000  -0.000271  -0.002674  -0.001431
    12  F    0.000000   0.000004   0.000000  -0.000001   0.009335  -0.006166
    13  O    0.000000   0.000000   0.000000   0.000000   0.000170  -0.000045
    14  C    0.000000   0.000000   0.000000   0.000000  -0.000003  -0.000004
    15  F    0.000000   0.000000   0.000000   0.000000   0.000000   0.000000
    16  F    0.000000   0.000000   0.000000   0.000000   0.000001   0.000000
    17  F    0.000000   0.000000   0.000000   0.000000   0.000000   0.000000
    18  C    0.000000   0.000000   0.000000   0.000026  -0.000262  -0.000084
    19  F    0.000000   0.000000   0.000000  -0.000119   0.002041  -0.000013
    20  F    0.000000   0.000000   0.000000   0.000000   0.000024   0.000000
    21  F    0.000000   0.000000   0.000000   0.000000   0.000003   0.000000
    22  C   -0.000019   0.000184   0.000046  -0.004640  -0.008138   0.000274
    23  O    0.000000   0.000002   0.000000   0.000158  -0.000172  -0.000033
    24  N   -0.000439   0.003216  -0.000230  -0.094968  -0.002685   0.000093
    25  C    0.000013  -0.000019   0.000005   0.001394   0.000213   0.000001
    26  F   -0.000011   0.000009   0.000000   0.000017   0.000002   0.000000
    27  F    0.000000   0.000000   0.000000  -0.000032  -0.000002   0.000000
    28  C    0.000000   0.000001   0.000000  -0.000194   0.000036   0.000000
    29  F    0.000000   0.000000   0.000000   0.000000   0.000002   0.000000
    30  O    0.000000   0.000000   0.000000   0.000000   0.000000   0.000000
    31  C    0.000000   0.000000   0.000000   0.000000   0.000000   0.000000
    32  F    0.000000   0.000000   0.000000   0.000000   0.000000   0.000000
    33  F    0.000000   0.000000   0.000000   0.000000   0.000000   0.000000
    34  F    0.000000   0.000000   0.000000   0.000000   0.000000   0.000000
    35  C    0.000000  -0.000001   0.000000  -0.000023  -0.000005   0.000000
    36  F    0.000000   0.000000   0.000000   0.000000   0.000000   0.000000
    37  F    0.000000   0.000000  -0.000011  -0.000597   0.000217   0.000000
    38  F    0.000000   0.000000   0.000000  -0.000004   0.000000   0.000000
    39  C   -0.004369  -0.023600  -0.004003   0.242881  -0.020927   0.000182
    40  O   -0.009024   0.007491  -0.006412  -0.086581   0.000527  -0.000022
    41  H    0.384837  -0.026493  -0.002571   0.003429  -0.000020  -0.000004
    42  H    0.385045  -0.027424  -0.006259  -0.005293  -0.000301  -0.000012
    43  H    0.380636  -0.031995   0.004854  -0.001157   0.000480   0.000015
    44  H   -0.042486   0.408253  -0.041936  -0.037597  -0.005222   0.012023
    45  H    0.004904  -0.029588   0.380439  -0.003961   0.002993   0.001281
    46  H   -0.002960  -0.027718   0.385491   0.004001  -0.000028  -0.000030
    47  H   -0.006697  -0.028283   0.387255  -0.006421  -0.000358  -0.000002
               7          8          9         10         11         12
     1  C   -0.000103   0.000001   0.000000   0.000000   0.000000   0.000000
     2  C    0.002437  -0.000021   0.000000   0.000004   0.000000   0.000004
     3  C   -0.000193   0.000001   0.000000   0.000000   0.000000   0.000000
     4  N   -0.091757   0.002261  -0.000019   0.000053  -0.000271  -0.000001
     5  C    0.196356  -0.012730   0.000592   0.007510  -0.002674   0.009335
     6  O   -0.087443   0.015748   0.000012  -0.008356  -0.001431  -0.006166
     7  N    7.616539   0.162264  -0.038714  -0.047511  -0.068222  -0.000724
     8  C    0.162264   4.378911   0.279947   0.272643   0.225227  -0.022832
     9  F   -0.038714   0.279947   9.087623  -0.043445  -0.037500   0.000285
    10  F   -0.047511   0.272643  -0.043445   9.106900  -0.023357  -0.000268
    11  C   -0.068222   0.225227  -0.037500  -0.023357   4.996889   0.226879
    12  F   -0.000724  -0.022832   0.000285  -0.000268   0.226879   9.116928
    13  O    0.001638  -0.020245   0.000130  -0.000259   0.161872  -0.049497
    14  C   -0.000004   0.000943  -0.000074   0.000023  -0.001638  -0.000685
    15  F    0.000000  -0.000173   0.000001   0.000000  -0.009388  -0.000016
    16  F    0.000000   0.000198   0.000000   0.000000   0.013017  -0.002505
    17  F    0.000000  -0.000042   0.000000   0.000000   0.000677  -0.000023
    18  C   -0.001782  -0.038122   0.005714   0.001496   0.172257  -0.016758
    19  F   -0.003490  -0.004406  -0.000181   0.000003  -0.022022  -0.000359
    20  F   -0.000446   0.002535   0.000150   0.000000  -0.034151   0.000318
    21  F   -0.000018   0.001481  -0.000001  -0.000001  -0.025969  -0.000168
    22  C    0.188301  -0.006388   0.007655   0.000417  -0.001571  -0.000224
    23  O   -0.086909   0.011257  -0.015205   0.000016  -0.004199   0.000005
    24  N   -0.092051   0.001386   0.000063  -0.000028  -0.000165   0.000001
    25  C    0.002105   0.000012   0.000011   0.000000   0.000000   0.000000
    26  F   -0.000021   0.000000   0.000000   0.000000   0.000000   0.000000
    27  F    0.000058   0.000005   0.000000   0.000000   0.000000   0.000000
    28  C   -0.000334  -0.000004  -0.000002   0.000000   0.000000   0.000000
    29  F   -0.000060   0.000011  -0.000001   0.000000   0.000000   0.000000
    30  O    0.000000   0.000000   0.000000   0.000000   0.000000   0.000000
    31  C    0.000000   0.000000   0.000000   0.000000   0.000000   0.000000
    32  F    0.000000   0.000000   0.000000   0.000000   0.000000   0.000000
    33  F    0.000000   0.000000   0.000000   0.000000   0.000000   0.000000
    34  F    0.000000   0.000000   0.000000   0.000000   0.000000   0.000000
    35  C    0.000045   0.000000   0.000000   0.000000   0.000000   0.000000
    36  F    0.000000   0.000000   0.000000   0.000000   0.000000   0.000000
    37  F   -0.000307  -0.000003   0.000000   0.000000   0.000000   0.000000
    38  F    0.000000   0.000000   0.000000   0.000000   0.000000   0.000000
    39  C    0.000752  -0.000070  -0.000003  -0.000009   0.000047   0.000003
    40  O    0.000000  -0.000001   0.000000   0.000000   0.000000   0.000000
    41  H    0.000001   0.000000   0.000000   0.000000   0.000000   0.000000
    42  H    0.000002   0.000000   0.000000   0.000000   0.000000   0.000000
    43  H   -0.000014   0.000000   0.000000   0.000000   0.000000   0.000000
    44  H    0.000768   0.000003   0.000000   0.000003   0.000000  -0.000002
    45  H   -0.000152  -0.000001   0.000000   0.000000   0.000000   0.000000
    46  H    0.000003   0.000000   0.000000   0.000000   0.000000   0.000000
    47  H    0.000007   0.000000   0.000000   0.000000   0.000000   0.000000
              13         14         15         16         17         18
     1  C    0.000000   0.000000   0.000000   0.000000   0.000000   0.000000
     2  C    0.000000   0.000000   0.000000   0.000000   0.000000   0.000000
     3  C    0.000000   0.000000   0.000000   0.000000   0.000000   0.000000
     4  N    0.000000   0.000000   0.000000   0.000000   0.000000   0.000026
     5  C    0.000170  -0.000003   0.000000   0.000001   0.000000  -0.000262
     6  O   -0.000045  -0.000004   0.000000   0.000000   0.000000  -0.000084
     7  N    0.001638  -0.000004   0.000000   0.000000   0.000000  -0.001782
     8  C   -0.020245   0.000943  -0.000173   0.000198  -0.000042  -0.038122
     9  F    0.000130  -0.000074   0.000001   0.000000   0.000000   0.005714
    10  F   -0.000259   0.000023   0.000000   0.000000   0.000000   0.001496
    11  C    0.161872  -0.001638  -0.009388   0.013017   0.000677   0.172257
    12  F   -0.049497  -0.000685  -0.000016  -0.002505  -0.000023  -0.016758
    13  O    8.345627   0.236245  -0.048309  -0.044956  -0.039110  -0.030304
    14  C    0.236245   3.825286   0.301374   0.295152   0.338853  -0.004149
    15  F   -0.048309   0.301374   9.063325  -0.033940  -0.037629   0.018047
    16  F   -0.044956   0.295152  -0.033940   9.059002  -0.036276  -0.004724
    17  F   -0.039110   0.338853  -0.037629  -0.036276   9.012139  -0.000012
    18  C   -0.030304  -0.004149   0.018047  -0.004724  -0.000012   4.255573
    19  F    0.000597   0.000053   0.000000   0.000000   0.000000   0.266652
    20  F    0.000524  -0.000351  -0.000451   0.000011   0.000000   0.275712
    21  F   -0.001425   0.011974  -0.007486  -0.001917  -0.000005   0.275489
    22  C    0.000046   0.000000   0.000000   0.000000   0.000000   0.001754
    23  O    0.000003   0.000000   0.000000   0.000000   0.000000   0.005949
    24  N    0.000000   0.000000   0.000000   0.000000   0.000000  -0.000084
    25  C    0.000000   0.000000   0.000000   0.000000   0.000000   0.000000
    26  F    0.000000   0.000000   0.000000   0.000000   0.000000   0.000000
    27  F    0.000000   0.000000   0.000000   0.000000   0.000000  -0.000002
    28  C    0.000000   0.000000   0.000000   0.000000   0.000000   0.000000
    29  F    0.000000   0.000000   0.000000   0.000000   0.000000   0.000000
    30  O    0.000000   0.000000   0.000000   0.000000   0.000000   0.000000
    31  C    0.000000   0.000000   0.000000   0.000000   0.000000   0.000000
    32  F    0.000000   0.000000   0.000000   0.000000   0.000000   0.000000
    33  F    0.000000   0.000000   0.000000   0.000000   0.000000   0.000000
    34  F    0.000000   0.000000   0.000000   0.000000   0.000000   0.000000
    35  C    0.000000   0.000000   0.000000   0.000000   0.000000   0.000000
    36  F    0.000000   0.000000   0.000000   0.000000   0.000000   0.000000
    37  F    0.000000   0.000000   0.000000   0.000000   0.000000   0.000000
    38  F    0.000000   0.000000   0.000000   0.000000   0.000000   0.000000
    39  C    0.000000   0.000000   0.000000   0.000000   0.000000  -0.000007
    40  O    0.000000   0.000000   0.000000   0.000000   0.000000   0.000000
    41  H    0.000000   0.000000   0.000000   0.000000   0.000000   0.000000
    42  H    0.000000   0.000000   0.000000   0.000000   0.000000   0.000000
    43  H    0.000000   0.000000   0.000000   0.000000   0.000000   0.000000
    44  H    0.000000   0.000000   0.000000   0.000000   0.000000   0.000000
    45  H    0.000000   0.000000   0.000000   0.000000   0.000000   0.000000
    46  H    0.000000   0.000000   0.000000   0.000000   0.000000   0.000000
    47  H    0.000000   0.000000   0.000000   0.000000   0.000000   0.000000
              19         20         21         22         23         24
     1  C    0.000000   0.000000   0.000000  -0.000019   0.000000  -0.000439
     2  C    0.000000   0.000000   0.000000   0.000184   0.000002   0.003216
     3  C    0.000000   0.000000   0.000000   0.000046   0.000000  -0.000230
     4  N   -0.000119   0.000000   0.000000  -0.004640   0.000158  -0.094968
     5  C    0.002041   0.000024   0.000003  -0.008138  -0.000172  -0.002685
     6  O   -0.000013   0.000000   0.000000   0.000274  -0.000033   0.000093
     7  N   -0.003490  -0.000446  -0.000018   0.188301  -0.086909  -0.092051
     8  C   -0.004406   0.002535   0.001481  -0.006388   0.011257   0.001386
     9  F   -0.000181   0.000150  -0.000001   0.007655  -0.015205   0.000063
    10  F    0.000003   0.000000  -0.000001   0.000417   0.000016  -0.000028
    11  C   -0.022022  -0.034151  -0.025969  -0.001571  -0.004199  -0.000165
    12  F   -0.000359   0.000318  -0.000168  -0.000224   0.000005   0.000001
    13  O    0.000597   0.000524  -0.001425   0.000046   0.000003   0.000000
    14  C    0.000053  -0.000351   0.011974   0.000000   0.000000   0.000000
    15  F    0.000000  -0.000451  -0.007486   0.000000   0.000000   0.000000
    16  F    0.000000   0.000011  -0.001917   0.000000   0.000000   0.000000
    17  F    0.000000   0.000000  -0.000005   0.000000   0.000000   0.000000
    18  C    0.266652   0.275712   0.275489   0.001754   0.005949  -0.000084
    19  F    9.077667  -0.035113  -0.039723   0.016491  -0.005736  -0.001266
    20  F   -0.035113   9.063677  -0.038547  -0.000433   0.000179  -0.000004
    21  F   -0.039723  -0.038547   9.079815   0.000010  -0.000002   0.000000
    22  C    0.016491  -0.000433   0.000010   4.225164   0.540759   0.197579
    23  O   -0.005736   0.000179  -0.000002   0.540759   8.133514  -0.087109
    24  N   -0.001266  -0.000004   0.000000   0.197579  -0.087109   7.610004
    25  C    0.000005   0.000000   0.000000  -0.014127   0.013008   0.163549
    26  F    0.000000   0.000000   0.000000   0.000574   0.000012  -0.037853
    27  F   -0.000004   0.000000   0.000000   0.004678  -0.007240  -0.048612
    28  C    0.000000   0.000000   0.000000  -0.003465  -0.001623  -0.067216
    29  F    0.000000   0.000000   0.000000   0.010779  -0.005706  -0.001305
    30  O    0.000000   0.000000   0.000000   0.000156  -0.000043   0.001693
    31  C    0.000000   0.000000   0.000000  -0.000003  -0.000004  -0.000002
    32  F    0.000000   0.000000   0.000000   0.000001   0.000000   0.000000
    33  F    0.000000   0.000000   0.000000   0.000000   0.000000   0.000000
    34  F    0.000000   0.000000   0.000000   0.000000   0.000000   0.000000
    35  C    0.000000   0.000000   0.000000  -0.000288  -0.000043  -0.002298
    36  F    0.000000   0.000000   0.000000   0.000003   0.000000  -0.000020
    37  F    0.000000   0.000000   0.000000   0.003170  -0.000004  -0.003692
    38  F    0.000000   0.000000   0.000000   0.000031   0.000000  -0.000421
    39  C    0.000162   0.000000   0.000000  -0.013249   0.000244   0.191175
    40  O    0.000000   0.000000   0.000000   0.000242  -0.000033  -0.087659
    41  H    0.000000   0.000000   0.000000   0.000000   0.000000   0.000003
    42  H    0.000000   0.000000   0.000000  -0.000001   0.000000   0.000068
    43  H    0.000000   0.000000   0.000000   0.000006   0.000000  -0.000064
    44  H    0.000000   0.000000   0.000000  -0.000023   0.000000  -0.000105
    45  H    0.000000   0.000000   0.000000   0.000003   0.000000  -0.000005
    46  H    0.000000   0.000000   0.000000   0.000000   0.000000   0.000002
    47  H    0.000000   0.000000   0.000000   0.000001   0.000000   0.000086
              25         26         27         28         29         30
     1  C    0.000013  -0.000011   0.000000   0.000000   0.000000   0.000000
     2  C   -0.000019   0.000009   0.000000   0.000001   0.000000   0.000000
     3  C    0.000005   0.000000   0.000000   0.000000   0.000000   0.000000
     4  N    0.001394   0.000017  -0.000032  -0.000194   0.000000   0.000000
     5  C    0.000213   0.000002  -0.000002   0.000036   0.000002   0.000000
     6  O    0.000001   0.000000   0.000000   0.000000   0.000000   0.000000
     7  N    0.002105  -0.000021   0.000058  -0.000334  -0.000060   0.000000
     8  C    0.000012   0.000000   0.000005  -0.000004   0.000011   0.000000
     9  F    0.000011   0.000000   0.000000  -0.000002  -0.000001   0.000000
    10  F    0.000000   0.000000   0.000000   0.000000   0.000000   0.000000
    11  C    0.000000   0.000000   0.000000   0.000000   0.000000   0.000000
    12  F    0.000000   0.000000   0.000000   0.000000   0.000000   0.000000
    13  O    0.000000   0.000000   0.000000   0.000000   0.000000   0.000000
    14  C    0.000000   0.000000   0.000000   0.000000   0.000000   0.000000
    15  F    0.000000   0.000000   0.000000   0.000000   0.000000   0.000000
    16  F    0.000000   0.000000   0.000000   0.000000   0.000000   0.000000
    17  F    0.000000   0.000000   0.000000   0.000000   0.000000   0.000000
    18  C    0.000000   0.000000  -0.000002   0.000000   0.000000   0.000000
    19  F    0.000005   0.000000  -0.000004   0.000000   0.000000   0.000000
    20  F    0.000000   0.000000   0.000000   0.000000   0.000000   0.000000
    21  F    0.000000   0.000000   0.000000   0.000000   0.000000   0.000000
    22  C   -0.014127   0.000574   0.004678  -0.003465   0.010779   0.000156
    23  O    0.013008   0.000012  -0.007240  -0.001623  -0.005706  -0.000043
    24  N    0.163549  -0.037853  -0.048612  -0.067216  -0.001305   0.001693
    25  C    4.374784   0.278628   0.275498   0.226113  -0.021870  -0.019856
    26  F    0.278628   9.086874  -0.043269  -0.037211   0.000289   0.000127
    27  F    0.275498  -0.043269   9.105537  -0.024022  -0.000294  -0.000207
    28  C    0.226113  -0.037211  -0.024022   5.002469   0.224148   0.161429
    29  F   -0.021870   0.000289  -0.000294   0.224148   9.118318  -0.049158
    30  O   -0.019856   0.000127  -0.000207   0.161429  -0.049158   8.345646
    31  C    0.000969  -0.000073   0.000020  -0.001618  -0.000667   0.236077
    32  F    0.000201   0.000000   0.000000   0.013091  -0.002429  -0.044994
    33  F   -0.000174   0.000001   0.000000  -0.009412  -0.000016  -0.048297
    34  F   -0.000042   0.000000   0.000000   0.000678  -0.000022  -0.039087
    35  C   -0.037956   0.005288   0.001480   0.171851  -0.016701  -0.030201
    36  F    0.001481  -0.000001  -0.000001  -0.025926  -0.000159  -0.001426
    37  F   -0.004887  -0.000166   0.000002  -0.021944  -0.000330   0.000594
    38  F    0.002623   0.000233   0.000000  -0.033919   0.000318   0.000489
    39  C   -0.004541   0.009356   0.000557  -0.001522  -0.000210   0.000038
    40  O    0.012275  -0.014789   0.000012  -0.004623   0.000005   0.000005
    41  H    0.000000   0.000000   0.000000   0.000000   0.000000   0.000000
    42  H    0.000004  -0.000002   0.000000   0.000000   0.000000   0.000000
    43  H   -0.000001   0.000001   0.000000   0.000000   0.000000   0.000000
    44  H    0.000001   0.000000   0.000000   0.000000   0.000000   0.000000
    45  H    0.000000   0.000000   0.000000   0.000000   0.000000   0.000000
    46  H    0.000000   0.000000   0.000000   0.000000   0.000000   0.000000
    47  H    0.000001   0.000001   0.000000   0.000000   0.000000   0.000000
              31         32         33         34         35         36
     1  C    0.000000   0.000000   0.000000   0.000000   0.000000   0.000000
     2  C    0.000000   0.000000   0.000000   0.000000  -0.000001   0.000000
     3  C    0.000000   0.000000   0.000000   0.000000   0.000000   0.000000
     4  N    0.000000   0.000000   0.000000   0.000000  -0.000023   0.000000
     5  C    0.000000   0.000000   0.000000   0.000000  -0.000005   0.000000
     6  O    0.000000   0.000000   0.000000   0.000000   0.000000   0.000000
     7  N    0.000000   0.000000   0.000000   0.000000   0.000045   0.000000
     8  C    0.000000   0.000000   0.000000   0.000000   0.000000   0.000000
     9  F    0.000000   0.000000   0.000000   0.000000   0.000000   0.000000
    10  F    0.000000   0.000000   0.000000   0.000000   0.000000   0.000000
    11  C    0.000000   0.000000   0.000000   0.000000   0.000000   0.000000
    12  F    0.000000   0.000000   0.000000   0.000000   0.000000   0.000000
    13  O    0.000000   0.000000   0.000000   0.000000   0.000000   0.000000
    14  C    0.000000   0.000000   0.000000   0.000000   0.000000   0.000000
    15  F    0.000000   0.000000   0.000000   0.000000   0.000000   0.000000
    16  F    0.000000   0.000000   0.000000   0.000000   0.000000   0.000000
    17  F    0.000000   0.000000   0.000000   0.000000   0.000000   0.000000
    18  C    0.000000   0.000000   0.000000   0.000000   0.000000   0.000000
    19  F    0.000000   0.000000   0.000000   0.000000   0.000000   0.000000
    20  F    0.000000   0.000000   0.000000   0.000000   0.000000   0.000000
    21  F    0.000000   0.000000   0.000000   0.000000   0.000000   0.000000
    22  C   -0.000003   0.000001   0.000000   0.000000  -0.000288   0.000003
    23  O   -0.000004   0.000000   0.000000   0.000000  -0.000043   0.000000
    24  N   -0.000002   0.000000   0.000000   0.000000  -0.002298  -0.000020
    25  C    0.000969   0.000201  -0.000174  -0.000042  -0.037956   0.001481
    26  F   -0.000073   0.000000   0.000001   0.000000   0.005288  -0.000001
    27  F    0.000020   0.000000   0.000000   0.000000   0.001480  -0.000001
    28  C   -0.001618   0.013091  -0.009412   0.000678   0.171851  -0.025926
    29  F   -0.000667  -0.002429  -0.000016  -0.000022  -0.016701  -0.000159
    30  O    0.236077  -0.044994  -0.048297  -0.039087  -0.030201  -0.001426
    31  C    3.825093   0.295157   0.301338   0.338962  -0.004119   0.012013
    32  F    0.295157   9.058592  -0.033923  -0.036242  -0.004733  -0.001958
    33  F    0.301338  -0.033923   9.063585  -0.037634   0.018062  -0.007542
    34  F    0.338962  -0.036242  -0.037634   9.011808  -0.000011  -0.000005
    35  C   -0.004119  -0.004733   0.018062  -0.000011   4.253240   0.275299
    36  F    0.012013  -0.001958  -0.007542  -0.000005   0.275299   9.080433
    37  F    0.000053   0.000000   0.000000   0.000000   0.267943  -0.039923
    38  F   -0.000351   0.000011  -0.000452   0.000000   0.274845  -0.038527
    39  C    0.000000   0.000000   0.000000   0.000000   0.001693   0.000011
    40  O    0.000000   0.000000   0.000000   0.000000   0.007081  -0.000002
    41  H    0.000000   0.000000   0.000000   0.000000   0.000000   0.000000
    42  H    0.000000   0.000000   0.000000   0.000000   0.000001   0.000000
    43  H    0.000000   0.000000   0.000000   0.000000   0.000000   0.000000
    44  H    0.000000   0.000000   0.000000   0.000000   0.000000   0.000000
    45  H    0.000000   0.000000   0.000000   0.000000   0.000000   0.000000
    46  H    0.000000   0.000000   0.000000   0.000000   0.000000   0.000000
    47  H    0.000000   0.000000   0.000000   0.000000   0.000007   0.000000
              37         38         39         40         41         42
     1  C    0.000000   0.000000  -0.004369  -0.009024   0.384837   0.385045
     2  C    0.000000   0.000000  -0.023600   0.007491  -0.026493  -0.027424
     3  C   -0.000011   0.000000  -0.004003  -0.006412  -0.002571  -0.006259
     4  N   -0.000597  -0.000004   0.242881  -0.086581   0.003429  -0.005293
     5  C    0.000217   0.000000  -0.020927   0.000527  -0.000020  -0.000301
     6  O    0.000000   0.000000   0.000182  -0.000022  -0.000004  -0.000012
     7  N   -0.000307   0.000000   0.000752   0.000000   0.000001   0.000002
     8  C   -0.000003   0.000000  -0.000070  -0.000001   0.000000   0.000000
     9  F    0.000000   0.000000  -0.000003   0.000000   0.000000   0.000000
    10  F    0.000000   0.000000  -0.000009   0.000000   0.000000   0.000000
    11  C    0.000000   0.000000   0.000047   0.000000   0.000000   0.000000
    12  F    0.000000   0.000000   0.000003   0.000000   0.000000   0.000000
    13  O    0.000000   0.000000   0.000000   0.000000   0.000000   0.000000
    14  C    0.000000   0.000000   0.000000   0.000000   0.000000   0.000000
    15  F    0.000000   0.000000   0.000000   0.000000   0.000000   0.000000
    16  F    0.000000   0.000000   0.000000   0.000000   0.000000   0.000000
    17  F    0.000000   0.000000   0.000000   0.000000   0.000000   0.000000
    18  C    0.000000   0.000000  -0.000007   0.000000   0.000000   0.000000
    19  F    0.000000   0.000000   0.000162   0.000000   0.000000   0.000000
    20  F    0.000000   0.000000   0.000000   0.000000   0.000000   0.000000
    21  F    0.000000   0.000000   0.000000   0.000000   0.000000   0.000000
    22  C    0.003170   0.000031  -0.013249   0.000242   0.000000  -0.000001
    23  O   -0.000004   0.000000   0.000244  -0.000033   0.000000   0.000000
    24  N   -0.003692  -0.000421   0.191175  -0.087659   0.000003   0.000068
    25  C   -0.004887   0.002623  -0.004541   0.012275   0.000000   0.000004
    26  F   -0.000166   0.000233   0.009356  -0.014789   0.000000  -0.000002
    27  F    0.000002   0.000000   0.000557   0.000012   0.000000   0.000000
    28  C   -0.021944  -0.033919  -0.001522  -0.004623   0.000000   0.000000
    29  F   -0.000330   0.000318  -0.000210   0.000005   0.000000   0.000000
    30  O    0.000594   0.000489   0.000038   0.000005   0.000000   0.000000
    31  C    0.000053  -0.000351   0.000000   0.000000   0.000000   0.000000
    32  F    0.000000   0.000011   0.000000   0.000000   0.000000   0.000000
    33  F    0.000000  -0.000452   0.000000   0.000000   0.000000   0.000000
    34  F    0.000000   0.000000   0.000000   0.000000   0.000000   0.000000
    35  C    0.267943   0.274845   0.001693   0.007081   0.000000   0.000001
    36  F   -0.039923  -0.038527   0.000011  -0.000002   0.000000   0.000000
    37  F    9.078828  -0.034921   0.013379  -0.005496   0.000000   0.000000
    38  F   -0.034921   9.064656  -0.000536   0.000091   0.000000   0.000000
    39  C    0.013379  -0.000536   4.220805   0.541831   0.000096   0.003291
    40  O   -0.005496   0.000091   0.541831   8.123190   0.000270   0.006800
    41  H    0.000000   0.000000   0.000096   0.000270   0.567034  -0.026764
    42  H    0.000000   0.000000   0.003291   0.006800  -0.026764   0.552712
    43  H    0.000000   0.000000   0.000318  -0.000184  -0.024727  -0.029243
    44  H    0.000000   0.000000   0.004566   0.000129  -0.004297   0.004355
    45  H    0.000002   0.000000  -0.000022   0.000047   0.000018  -0.000005
    46  H    0.000000   0.000000   0.000053   0.000150   0.002002  -0.000113
    47  H    0.000043   0.000000   0.004304   0.006669  -0.000106   0.003721
              43         44         45         46         47
     1  C    0.380636  -0.042486   0.004904  -0.002960  -0.006697
     2  C   -0.031995   0.408253  -0.029588  -0.027718  -0.028283
     3  C    0.004854  -0.041936   0.380439   0.385491   0.387255
     4  N   -0.001157  -0.037597  -0.003961   0.004001  -0.006421
     5  C    0.000480  -0.005222   0.002993  -0.000028  -0.000358
     6  O    0.000015   0.012023   0.001281  -0.000030  -0.000002
     7  N   -0.000014   0.000768  -0.000152   0.000003   0.000007
     8  C    0.000000   0.000003  -0.000001   0.000000   0.000000
     9  F    0.000000   0.000000   0.000000   0.000000   0.000000
    10  F    0.000000   0.000003   0.000000   0.000000   0.000000
    11  C    0.000000   0.000000   0.000000   0.000000   0.000000
    12  F    0.000000  -0.000002   0.000000   0.000000   0.000000
    13  O    0.000000   0.000000   0.000000   0.000000   0.000000
    14  C    0.000000   0.000000   0.000000   0.000000   0.000000
    15  F    0.000000   0.000000   0.000000   0.000000   0.000000
    16  F    0.000000   0.000000   0.000000   0.000000   0.000000
    17  F    0.000000   0.000000   0.000000   0.000000   0.000000
    18  C    0.000000   0.000000   0.000000   0.000000   0.000000
    19  F    0.000000   0.000000   0.000000   0.000000   0.000000
    20  F    0.000000   0.000000   0.000000   0.000000   0.000000
    21  F    0.000000   0.000000   0.000000   0.000000   0.000000
    22  C    0.000006  -0.000023   0.000003   0.000000   0.000001
    23  O    0.000000   0.000000   0.000000   0.000000   0.000000
    24  N   -0.000064  -0.000105  -0.000005   0.000002   0.000086
    25  C   -0.000001   0.000001   0.000000   0.000000   0.000001
    26  F    0.000001   0.000000   0.000000   0.000000   0.000001
    27  F    0.000000   0.000000   0.000000   0.000000   0.000000
    28  C    0.000000   0.000000   0.000000   0.000000   0.000000
    29  F    0.000000   0.000000   0.000000   0.000000   0.000000
    30  O    0.000000   0.000000   0.000000   0.000000   0.000000
    31  C    0.000000   0.000000   0.000000   0.000000   0.000000
    32  F    0.000000   0.000000   0.000000   0.000000   0.000000
    33  F    0.000000   0.000000   0.000000   0.000000   0.000000
    34  F    0.000000   0.000000   0.000000   0.000000   0.000000
    35  C    0.000000   0.000000   0.000000   0.000000   0.000007
    36  F    0.000000   0.000000   0.000000   0.000000   0.000000
    37  F    0.000000   0.000000   0.000002   0.000000   0.000043
    38  F    0.000000   0.000000   0.000000   0.000000   0.000000
    39  C    0.000318   0.004566  -0.000022   0.000053   0.004304
    40  O   -0.000184   0.000129   0.000047   0.000150   0.006669
    41  H   -0.024727  -0.004297   0.000018   0.002002  -0.000106
    42  H   -0.029243   0.004355  -0.000005  -0.000113   0.003721
    43  H    0.586355  -0.002973  -0.000188   0.000021   0.000010
    44  H   -0.002973   0.543372  -0.003782  -0.002974   0.004356
    45  H   -0.000188  -0.003782   0.585638  -0.025042  -0.029940
    46  H    0.000021  -0.002974  -0.025042   0.566811  -0.025935
    47  H    0.000010   0.004356  -0.029940  -0.025935   0.555666
 Mulliken charges:
               1
     1  C   -0.332819
     2  C    0.043267
     3  C   -0.318888
     4  N   -0.587508
     5  C    0.840723
     6  O   -0.498865
     7  N   -0.651022
     8  C    0.750205
     9  F   -0.247041
    10  F   -0.265833
    11  C    0.435692
    12  F   -0.253529
    13  O   -0.512704
    14  C    0.997004
    15  F   -0.245354
    16  F   -0.243062
    17  F   -0.238574
    18  C    0.817621
    19  F   -0.251238
    20  F   -0.233635
    21  F   -0.253510
    22  C    0.854244
    23  O   -0.491045
    24  N   -0.640636
    25  C    0.750580
    26  F   -0.248017
    27  F   -0.264163
    28  C    0.433218
    29  F   -0.254941
    30  O   -0.512986
    31  C    0.997155
    32  F   -0.242773
    33  F   -0.245536
    34  F   -0.238406
    35  C    0.819543
    36  F   -0.253752
    37  F   -0.251952
    38  F   -0.234166
    39  C    0.837323
    40  O   -0.491992
    41  H    0.127294
    42  H    0.139417
    43  H    0.117850
    44  H    0.163567
    45  H    0.117363
    46  H    0.126267
    47  H    0.135616
 Sum of Mulliken charges =   0.00000
 Mulliken charges with hydrogens summed into heavy atoms:
               1
     1  C    0.051742
     2  C    0.206835
     3  C    0.060358
     4  N   -0.587508
     5  C    0.840723
     6  O   -0.498865
     7  N   -0.651022
     8  C    0.750205
     9  F   -0.247041
    10  F   -0.265833
    11  C    0.435692
    12  F   -0.253529
    13  O   -0.512704
    14  C    0.997004
    15  F   -0.245354
    16  F   -0.243062
    17  F   -0.238574
    18  C    0.817621
    19  F   -0.251238
    20  F   -0.233635
    21  F   -0.253510
    22  C    0.854244
    23  O   -0.491045
    24  N   -0.640636
    25  C    0.750580
    26  F   -0.248017
    27  F   -0.264163
    28  C    0.433218
    29  F   -0.254941
    30  O   -0.512986
    31  C    0.997155
    32  F   -0.242773
    33  F   -0.245536
    34  F   -0.238406
    35  C    0.819543
    36  F   -0.253752
    37  F   -0.251952
    38  F   -0.234166
    39  C    0.837323
    40  O   -0.491992
 Electronic spatial extent (au):  <R**2>=          20825.3929
 Charge=              0.0000 electrons
 Dipole moment (field-independent basis, Debye):
    X=             -0.3875    Y=              3.1865    Z=             -0.6890  Tot=              3.2831
 Quadrupole moment (field-independent basis, Debye-Ang):
   XX=           -226.3326   YY=           -209.0891   ZZ=           -214.0409
   XY=              0.2860   XZ=              3.8133   YZ=              1.4233
 Traceless Quadrupole moment (field-independent basis, Debye-Ang):
   XX=             -9.8451   YY=              7.3984   ZZ=              2.4466
   XY=              0.2860   XZ=              3.8133   YZ=              1.4233
 Octapole moment (field-independent basis, Debye-Ang**2):
  XXX=            -49.7502  YYY=            415.2485  ZZZ=            -67.9191  XYY=            -25.7628
  XXY=             94.3048  XXZ=             -3.6950  XZZ=            -18.7635  YZZ=            130.2311
  YYZ=            -36.8032  XYZ=             -0.4801
 Hexadecapole moment (field-independent basis, Debye-Ang**3):
 XXXX=         -14478.6197 YYYY=          -5202.0178 ZZZZ=          -2172.5550 XXXY=           -492.6354
 XXXZ=           -846.6363 YYYX=           -500.7288 YYYZ=            529.6300 ZZZX=           -892.4816
 ZZZY=            572.0522 XXYY=          -3340.2400 XXZZ=          -2802.1694 YYZZ=          -1252.6656
 XXYZ=            212.4711 YYXZ=           -288.4488 ZZXY=           -180.6973
 N-N= 6.094297115204D+03 E-N=-1.897996694076D+04  KE= 2.853251177915D+03
 No NMR shielding tensors so no spin-rotation constants.
 Leave Link  601 at Sun Mar  3 17:51:03 2024, MaxMem=  5368709120 cpu:         5.1
 (Enter /home/k0335/k033513/app/g09/l9999.exe)
 1\1\GINC-C18U04N4\SP\RCAM-B3LYP\6-31G(d,p)\C14H7F18N3O5\K033513\03-Mar
 -2024\0\\#p CAM-B3LYP/6-31G(d,p) SCRF=(PCM,Solvent=Generic,Read) NoSym
 m out=wfn\\Title A1320413501_0\\0,1\C,0,-0.818255,4.200336,-0.177601\C
 ,0,-0.020607,3.252169,-1.078694\C,0,-0.493439,3.328928,-2.532589\N,0,0
 .004443,1.857981,-0.581212\C,0,1.203302,1.171308,-0.663532\O,0,2.24737
 1,1.723883,-1.002185\N,0,1.163499,-0.165323,-0.351187\C,0,2.403827,-0.
 920945,-0.474607\F,0,2.133314,-2.257163,-0.579015\F,0,2.923021,-0.6344
 9,-1.715529\C,0,3.531374,-0.716489,0.576076\F,0,3.864784,0.605352,0.64
 1775\O,0,4.699736,-1.397569,0.085188\C,0,5.760302,-1.422591,1.001632\F
 ,0,5.540443,-2.399584,1.897353\F,0,5.898669,-0.244728,1.628993\F,0,6.8
 97038,-1.698543,0.336243\C,0,3.005772,-1.166395,1.940019\F,0,1.905865,
 -0.462067,2.300364\F,0,2.696976,-2.477089,1.967029\F,0,3.911887,-0.953
 696,2.923642\C,0,0.093096,-0.736205,0.286143\O,0,0.169331,-1.849772,0.
 795864\N,0,-1.061196,-0.000713,0.33606\C,0,-2.257928,-0.637502,0.86637
 6\F,0,-3.190296,0.305052,1.200031\F,0,-1.919995,-1.159355,2.092525\C,0
 ,-2.945968,-1.759915,0.041704\F,0,-2.039053,-2.743878,-0.230534\O,0,-3
 .943938,-2.359807,0.885998\C,0,-4.747103,-3.298856,0.223839\F,0,-4.023
 81,-4.0753,-0.59702\F,0,-5.695149,-2.648759,-0.471786\F,0,-5.347334,-4
 .076153,1.143843\C,0,-3.439281,-1.158295,-1.275248\F,0,-3.992633,-2.09
 6504,-2.080163\F,0,-2.416049,-0.627547,-1.987451\F,0,-4.369982,-0.2025
 08,-1.090055\C,0,-1.180783,1.205898,-0.3026\O,0,-2.276497,1.651435,-0.
 632595\H,0,-0.656916,5.239965,-0.4833\H,0,-1.895346,4.015984,-0.218929
 \H,0,-0.498781,4.102561,0.865458\H,0,1.007316,3.634714,-1.065024\H,0,0
 .1107,2.676134,-3.171836\H,0,-0.403063,4.351705,-2.913631\H,0,-1.53866
 3,3.024334,-2.642211\\Version=ES64L-G09RevD.01\HF=-2874.3994338\RMSD=6
 .915e-09\Dipole=-0.1524358,1.2536661,-0.2710781\Quadrupole=-7.3195669,
 5.5005472,1.8190197,0.2126519,2.8351281,1.0581619\PG=C01 [X(C14H7F18N3
 O5)]\\@

 Writing a WFN file to "A1320413501/A1320413501_0.wfn"


 A ROPE OVER THE TOP OF A FENCE HAS THE SAME LENGTH ON EACH SIDE.
 WEIGHS 1/3 POUND PER FOOT.  ON ONE END HANGS A MONKEY HOLDING A
 BANANA, AND ON THE OTHER END A WEIGHT EQUAL TO THE WEIGHT
 OF THE MONKEY.  THE BANANA WEIGHS TWO OUNCES PER INCH.
 THE ROPE IS AS LONG AS THE AGE OF THE MONKEY, 
 AND THE WEIGHT OF THE MONKEY (IN OUNCES) IS AS MUCH
 AS THE AGE OF THE MONKEY'S MOTHER.  THE COMBINED AGES OF MONKEY
 AND MOTHER ARE THIRTY YEARS.  HALF THE WEIGHT OF THE MONKEY,
  PLUS THE WEIGHT OF THE BANANA, IS ONE FOURTH AS MUCH AS THE WEIGHT
 OF THE WEIGHT AND THE ROPE.
 THE MONKEY'S MOTHER IS HALF AS OLD AS THE MONKEY WILL BE
 WHEN IT IS 3 TIMES AS OLD AS ITS MOTHER WAS WHEN
 SHE WAS HALF AS OLD AS THE MONKEY WILL BE WHEN IT IS
 AS OLD AS ITS MOTHER WILL BE WHEN SHE IS 4 TIMES AS
 OLD AS THE MONKEY WAS WHEN IT WAS TWICE AS OLD AS 
 ITS MOTHER WAS WHEN SHE WAS ONE THIRD AS OLD AS THE
 MONKEY WAS WHEN IT WAS AS OLD AS ITS MOTHER WAS WHEN 
 SHE WAS 3 TIMES AS OLD AS THE MONKEY WAS WHEN IT WAS AS OLD AS ITS
 MOTHER WAS WHEN SHE WAS 3 TIMES AS OLD AS THE MONKEY 
 WAS WHEN IT WAS ONE FOURTH WAS OLD AS IT IS NOW.

 HOW LONG IS THE BANANA?
 Job cpu time:       0 days  0 hours 23 minutes  5.1 seconds.
 File lengths (MBytes):  RWF=    439 Int=      0 D2E=      0 Chk=     16 Scr=      1
 Normal termination of Gaussian 09 at Sun Mar  3 17:51:03 2024.
