 Entering Gaussian System, Link 0=g09
 Initial command:
 /home/k0335/k033513/app/g09/l1.exe "/home/k0335/k033513/app/g09/scratch/Gau-657669.inp" -scrdir="/home/k0335/k033513/app/g09/scratch/"
 Default is to use a total of  36 processors:
                               36 via shared-memory
                                1 via Linda
 Entering Link 1 = /home/k0335/k033513/app/g09/l1.exe PID=    657670.
  
 Copyright (c) 1988,1990,1992,1993,1995,1998,2003,2009,2013,
            Gaussian, Inc.  All Rights Reserved.
  
 This is part of the Gaussian(R) 09 program.  It is based on
 the Gaussian(R) 03 system (copyright 2003, Gaussian, Inc.),
 the Gaussian(R) 98 system (copyright 1998, Gaussian, Inc.),
 the Gaussian(R) 94 system (copyright 1995, Gaussian, Inc.),
 the Gaussian 92(TM) system (copyright 1992, Gaussian, Inc.),
 the Gaussian 90(TM) system (copyright 1990, Gaussian, Inc.),
 the Gaussian 88(TM) system (copyright 1988, Gaussian, Inc.),
 the Gaussian 86(TM) system (copyright 1986, Carnegie Mellon
 University), and the Gaussian 82(TM) system (copyright 1983,
 Carnegie Mellon University). Gaussian is a federally registered
 trademark of Gaussian, Inc.
  
 This software contains proprietary and confidential information,
 including trade secrets, belonging to Gaussian, Inc.
  
 This software is provided under written license and may be
 used, copied, transmitted, or stored only in accord with that
 written license.
  
 The following legend is applicable only to US Government
 contracts under FAR:
  
                    RESTRICTED RIGHTS LEGEND
  
 Use, reproduction and disclosure by the US Government is
 subject to restrictions as set forth in subparagraphs (a)
 and (c) of the Commercial Computer Software - Restricted
 Rights clause in FAR 52.227-19.
  
 Gaussian, Inc.
 340 Quinnipiac St., Bldg. 40, Wallingford CT 06492
  
  
 ---------------------------------------------------------------
 Warning -- This program may not be used in any manner that
 competes with the business of Gaussian, Inc. or will provide
 assistance to any competitor of Gaussian, Inc.  The licensee
 of this program is prohibited from giving any competitor of
 Gaussian, Inc. access to this program.  By using this program,
 the user acknowledges that Gaussian, Inc. is engaged in the
 business of creating and licensing software in the field of
 computational chemistry and represents and warrants to the
 licensee that it is not a competitor of Gaussian, Inc. and that
 it will not use this program in any manner prohibited above.
 ---------------------------------------------------------------
  

 Cite this work as:
 Gaussian 09, Revision D.01,
 M. J. Frisch, G. W. Trucks, H. B. Schlegel, G. E. Scuseria, 
 M. A. Robb, J. R. Cheeseman, G. Scalmani, V. Barone, B. Mennucci, 
 G. A. Petersson, H. Nakatsuji, M. Caricato, X. Li, H. P. Hratchian, 
 A. F. Izmaylov, J. Bloino, G. Zheng, J. L. Sonnenberg, M. Hada, 
 M. Ehara, K. Toyota, R. Fukuda, J. Hasegawa, M. Ishida, T. Nakajima, 
 Y. Honda, O. Kitao, H. Nakai, T. Vreven, J. A. Montgomery, Jr., 
 J. E. Peralta, F. Ogliaro, M. Bearpark, J. J. Heyd, E. Brothers, 
 K. N. Kudin, V. N. Staroverov, T. Keith, R. Kobayashi, J. Normand, 
 K. Raghavachari, A. Rendell, J. C. Burant, S. S. Iyengar, J. Tomasi, 
 M. Cossi, N. Rega, J. M. Millam, M. Klene, J. E. Knox, J. B. Cross, 
 V. Bakken, C. Adamo, J. Jaramillo, R. Gomperts, R. E. Stratmann, 
 O. Yazyev, A. J. Austin, R. Cammi, C. Pomelli, J. W. Ochterski, 
 R. L. Martin, K. Morokuma, V. G. Zakrzewski, G. A. Voth, 
 P. Salvador, J. J. Dannenberg, S. Dapprich, A. D. Daniels, 
 O. Farkas, J. B. Foresman, J. V. Ortiz, J. Cioslowski, 
 and D. J. Fox, Gaussian, Inc., Wallingford CT, 2013.
 
 ******************************************
 Gaussian 09:  ES64L-G09RevD.01 24-Apr-2013
                 5-Feb-2025 
 ******************************************
 %nprocshared=24
 Will use up to   24 processors via shared memory.
 %mem=40GB
 %rwf=cytopopt/APN1/APN1_neu.rwf
 %nosave
 %chk=cytopopt/APN1/APN1_neu.chk
 ----------------------------------------------------------------------
 #p CAM-B3LYP/6-31G(d,p) opt SCRF=(PCM,Solvent=Generic,Read) NoSymm out
 =wfn
 ----------------------------------------------------------------------
 1/14=-1,18=20,19=15,26=3,38=1,40=2/1,3;
 2/9=110,12=2,15=1,17=6,18=5,40=1/2;
 3/5=1,6=6,7=101,11=2,16=1,25=1,30=1,70=2203,71=1,72=-2,74=-40/1,2,3;
 4//1;
 5/5=2,38=5/2;
 6/7=2,8=2,9=2,10=2,28=1/1;
 7/30=1/1,2,3,16;
 1/14=-1,18=20,19=15,26=3/3(2);
 2/9=110,15=1/2;
 99/6=100/99;
 2/9=110,15=1/2;
 3/5=1,6=6,7=101,11=2,16=1,25=1,30=1,70=2205,71=1,72=-2,74=-40/1,2,3;
 4/5=5,16=3,69=1/1;
 5/5=2,38=5/2;
 7/30=1/1,2,3,16;
 1/14=-1,18=20,19=15,26=3/3(-5);
 2/9=110,15=1/2;
 6/7=2,8=2,9=2,10=2,19=2,28=1/1;
 99/6=100,9=1/99;
 Leave Link    1 at Wed Feb  5 05:48:52 2025, MaxMem=  5368709120 cpu:         0.9
 (Enter /home/k0335/k033513/app/g09/l101.exe)
 --------------
 Title APN1_neu
 --------------
 Symbolic Z-matrix:
 Charge =  0 Multiplicity = 1
 F                     3.04324   3.19876   1.3416 
 C                     2.14723   2.2521    1.69595 
 F                     1.24066   2.83101   2.51046 
 C                     2.80475   1.03342   2.30981 
 F                     1.90076   0.28431   2.98231 
 F                     3.79098   1.32457   3.17552 
 C                     3.26598   0.34016   1.067 
 F                     4.31926   1.07755   0.56541 
 C                     3.75586  -1.05737   1.34448 
 F                     2.74617  -1.81755   1.85459 
 C                     4.35594  -1.6827    0.08766 
 O                     5.50117  -2.36528   0.29736 
 O                     3.87501  -1.64754  -1.03287 
 F                     4.68649  -0.9952    2.34798 
 C                     2.05528   0.5533    0.14794 
 F                     2.52178   0.6763   -1.12365 
 C                     0.92413  -0.49519   0.18277 
 F                     1.41061  -1.73402  -0.09238 
 C                    -0.21628  -0.14466  -0.7954 
 N                    -1.47342  -0.35042  -0.22209 
 C                    -2.73666  -0.16581  -0.82048 
 C                    -2.92526   0.2904   -2.12733 
 C                    -4.21768   0.44527  -2.64934 
 C                    -4.39678   0.93723  -3.98501 
 N                    -4.55638   1.35689  -5.05644 
 C                    -5.33263   0.13769  -1.86437 
 C                    -5.15415  -0.31259  -0.55326 
 C                    -6.29156  -0.63375   0.25993 
 N                    -7.20638  -0.91242   0.91239 
 C                    -3.86067  -0.4602   -0.03437 
 O                    -0.02194   0.2057   -1.95478 
 F                     0.42611  -0.58509   1.45254 
 O                     1.49364   1.84428   0.4965 
 H                     5.75186  -2.73531  -0.57702 
 H                    -1.46766  -0.67067   0.74509 
 H                    -2.08225   0.53542  -2.76906 
 H                    -6.33713   0.25534  -2.27169 
 H                    -3.74007  -0.81394   0.99044 
 
 NAtoms=     38 NQM=       38 NQMF=       0 NMMI=      0 NMMIF=      0
                NMic=       0 NMicF=      0.
                    Isotopes and Nuclear Properties:
 (Nuclear quadrupole moments (NQMom) in fm**2, nuclear magnetic moments (NMagM)
  in nuclear magnetons)

  Atom         1           2           3           4           5           6           7           8           9          10
 IAtWgt=          19          12          19          12          19          19          12          19          12          19
 AtmWgt=  18.9984033  12.0000000  18.9984033  12.0000000  18.9984033  18.9984033  12.0000000  18.9984033  12.0000000  18.9984033
 NucSpn=           1           0           1           0           1           1           0           1           0           1
 AtZEff=   0.0000000   0.0000000   0.0000000   0.0000000   0.0000000   0.0000000   0.0000000   0.0000000   0.0000000   0.0000000
 NQMom=    0.0000000   0.0000000   0.0000000   0.0000000   0.0000000   0.0000000   0.0000000   0.0000000   0.0000000   0.0000000
 NMagM=    2.6288670   0.0000000   2.6288670   0.0000000   2.6288670   2.6288670   0.0000000   2.6288670   0.0000000   2.6288670
 AtZNuc=   9.0000000   6.0000000   9.0000000   6.0000000   9.0000000   9.0000000   6.0000000   9.0000000   6.0000000   9.0000000

  Atom        11          12          13          14          15          16          17          18          19          20
 IAtWgt=          12          16          16          19          12          19          12          19          12          14
 AtmWgt=  12.0000000  15.9949146  15.9949146  18.9984033  12.0000000  18.9984033  12.0000000  18.9984033  12.0000000  14.0030740
 NucSpn=           0           0           0           1           0           1           0           1           0           2
 AtZEff=   0.0000000   0.0000000   0.0000000   0.0000000   0.0000000   0.0000000   0.0000000   0.0000000   0.0000000   0.0000000
 NQMom=    0.0000000   0.0000000   0.0000000   0.0000000   0.0000000   0.0000000   0.0000000   0.0000000   0.0000000   2.0440000
 NMagM=    0.0000000   0.0000000   0.0000000   2.6288670   0.0000000   2.6288670   0.0000000   2.6288670   0.0000000   0.4037610
 AtZNuc=   6.0000000   8.0000000   8.0000000   9.0000000   6.0000000   9.0000000   6.0000000   9.0000000   6.0000000   7.0000000

  Atom        21          22          23          24          25          26          27          28          29          30
 IAtWgt=          12          12          12          12          14          12          12          12          14          12
 AtmWgt=  12.0000000  12.0000000  12.0000000  12.0000000  14.0030740  12.0000000  12.0000000  12.0000000  14.0030740  12.0000000
 NucSpn=           0           0           0           0           2           0           0           0           2           0
 AtZEff=   0.0000000   0.0000000   0.0000000   0.0000000   0.0000000   0.0000000   0.0000000   0.0000000   0.0000000   0.0000000
 NQMom=    0.0000000   0.0000000   0.0000000   0.0000000   2.0440000   0.0000000   0.0000000   0.0000000   2.0440000   0.0000000
 NMagM=    0.0000000   0.0000000   0.0000000   0.0000000   0.4037610   0.0000000   0.0000000   0.0000000   0.4037610   0.0000000
 AtZNuc=   6.0000000   6.0000000   6.0000000   6.0000000   7.0000000   6.0000000   6.0000000   6.0000000   7.0000000   6.0000000

  Atom        31          32          33          34          35          36          37          38
 IAtWgt=          16          19          16           1           1           1           1           1
 AtmWgt=  15.9949146  18.9984033  15.9949146   1.0078250   1.0078250   1.0078250   1.0078250   1.0078250
 NucSpn=           0           1           0           1           1           1           1           1
 AtZEff=   0.0000000   0.0000000   0.0000000   0.0000000   0.0000000   0.0000000   0.0000000   0.0000000
 NQMom=    0.0000000   0.0000000   0.0000000   0.0000000   0.0000000   0.0000000   0.0000000   0.0000000
 NMagM=    0.0000000   2.6288670   0.0000000   2.7928460   2.7928460   2.7928460   2.7928460   2.7928460
 AtZNuc=   8.0000000   9.0000000   8.0000000   1.0000000   1.0000000   1.0000000   1.0000000   1.0000000
 Leave Link  101 at Wed Feb  5 05:48:52 2025, MaxMem=  5368709120 cpu:         4.1
 (Enter /home/k0335/k033513/app/g09/l103.exe)

 GradGradGradGradGradGradGradGradGradGradGradGradGradGradGradGradGradGrad
 Berny optimization.
 Initialization pass.
                           ----------------------------
                           !    Initial Parameters    !
                           ! (Angstroms and Degrees)  !
 --------------------------                            --------------------------
 ! Name  Definition              Value          Derivative Info.                !
 --------------------------------------------------------------------------------
 ! R1    R(1,2)                  1.3508         estimate D2E/DX2                !
 ! R2    R(2,3)                  1.3492         estimate D2E/DX2                !
 ! R3    R(2,4)                  1.5147         estimate D2E/DX2                !
 ! R4    R(2,33)                 1.4255         estimate D2E/DX2                !
 ! R5    R(4,5)                  1.353          estimate D2E/DX2                !
 ! R6    R(4,6)                  1.3442         estimate D2E/DX2                !
 ! R7    R(4,7)                  1.496          estimate D2E/DX2                !
 ! R8    R(7,8)                  1.3801         estimate D2E/DX2                !
 ! R9    R(7,9)                  1.5067         estimate D2E/DX2                !
 ! R10   R(7,15)                 1.5349         estimate D2E/DX2                !
 ! R11   R(9,10)                 1.3629         estimate D2E/DX2                !
 ! R12   R(9,11)                 1.5267         estimate D2E/DX2                !
 ! R13   R(9,14)                 1.37           estimate D2E/DX2                !
 ! R14   R(11,12)                1.3496         estimate D2E/DX2                !
 ! R15   R(11,13)                1.2199         estimate D2E/DX2                !
 ! R16   R(12,34)                0.982          estimate D2E/DX2                !
 ! R17   R(15,16)                1.36           estimate D2E/DX2                !
 ! R18   R(15,17)                1.5427         estimate D2E/DX2                !
 ! R19   R(15,33)                1.4504         estimate D2E/DX2                !
 ! R20   R(17,18)                1.3591         estimate D2E/DX2                !
 ! R21   R(17,19)                1.5428         estimate D2E/DX2                !
 ! R22   R(17,32)                1.3669         estimate D2E/DX2                !
 ! R23   R(19,20)                1.3969         estimate D2E/DX2                !
 ! R24   R(19,31)                1.2267         estimate D2E/DX2                !
 ! R25   R(20,21)                1.4099         estimate D2E/DX2                !
 ! R26   R(20,35)                1.0188         estimate D2E/DX2                !
 ! R27   R(21,22)                1.397          estimate D2E/DX2                !
 ! R28   R(21,30)                1.4029         estimate D2E/DX2                !
 ! R29   R(22,23)                1.4024         estimate D2E/DX2                !
 ! R30   R(22,36)                1.0874         estimate D2E/DX2                !
 ! R31   R(23,24)                1.4346         estimate D2E/DX2                !
 ! R32   R(23,26)                1.3978         estimate D2E/DX2                !
 ! R33   R(24,25)                1.1617         estimate D2E/DX2                !
 ! R34   R(26,27)                1.3977         estimate D2E/DX2                !
 ! R35   R(26,37)                1.0903         estimate D2E/DX2                !
 ! R36   R(27,28)                1.4346         estimate D2E/DX2                !
 ! R37   R(27,30)                1.4015         estimate D2E/DX2                !
 ! R38   R(28,29)                1.1577         estimate D2E/DX2                !
 ! R39   R(30,38)                1.0908         estimate D2E/DX2                !
 ! A1    A(1,2,3)              107.6597         estimate D2E/DX2                !
 ! A2    A(1,2,4)              112.472          estimate D2E/DX2                !
 ! A3    A(1,2,33)             106.4929         estimate D2E/DX2                !
 ! A4    A(3,2,4)              113.0933         estimate D2E/DX2                !
 ! A5    A(3,2,33)             108.822          estimate D2E/DX2                !
 ! A6    A(4,2,33)             108.0498         estimate D2E/DX2                !
 ! A7    A(2,4,5)              110.9073         estimate D2E/DX2                !
 ! A8    A(2,4,6)              113.9055         estimate D2E/DX2                !
 ! A9    A(2,4,7)               99.7877         estimate D2E/DX2                !
 ! A10   A(5,4,6)              106.8592         estimate D2E/DX2                !
 ! A11   A(5,4,7)              111.2448         estimate D2E/DX2                !
 ! A12   A(6,4,7)              114.1552         estimate D2E/DX2                !
 ! A13   A(4,7,8)              106.8365         estimate D2E/DX2                !
 ! A14   A(4,7,9)              112.1536         estimate D2E/DX2                !
 ! A15   A(4,7,15)             100.9473         estimate D2E/DX2                !
 ! A16   A(8,7,9)              108.3235         estimate D2E/DX2                !
 ! A17   A(8,7,15)             108.0695         estimate D2E/DX2                !
 ! A18   A(9,7,15)             119.7052         estimate D2E/DX2                !
 ! A19   A(7,9,10)             110.2066         estimate D2E/DX2                !
 ! A20   A(7,9,11)             110.8622         estimate D2E/DX2                !
 ! A21   A(7,9,14)             108.2805         estimate D2E/DX2                !
 ! A22   A(10,9,11)            111.7685         estimate D2E/DX2                !
 ! A23   A(10,9,14)            104.7372         estimate D2E/DX2                !
 ! A24   A(11,9,14)            110.7684         estimate D2E/DX2                !
 ! A25   A(9,11,12)            114.3802         estimate D2E/DX2                !
 ! A26   A(9,11,13)            126.116          estimate D2E/DX2                !
 ! A27   A(12,11,13)           119.4616         estimate D2E/DX2                !
 ! A28   A(11,12,34)           105.5966         estimate D2E/DX2                !
 ! A29   A(7,15,16)            107.568          estimate D2E/DX2                !
 ! A30   A(7,15,17)            118.0638         estimate D2E/DX2                !
 ! A31   A(7,15,33)            106.5675         estimate D2E/DX2                !
 ! A32   A(16,15,17)           109.5166         estimate D2E/DX2                !
 ! A33   A(16,15,33)           106.0822         estimate D2E/DX2                !
 ! A34   A(17,15,33)           108.3961         estimate D2E/DX2                !
 ! A35   A(15,17,18)           110.6386         estimate D2E/DX2                !
 ! A36   A(15,17,19)           111.9158         estimate D2E/DX2                !
 ! A37   A(15,17,32)           109.4396         estimate D2E/DX2                !
 ! A38   A(18,17,19)           110.0799         estimate D2E/DX2                !
 ! A39   A(18,17,32)           104.9835         estimate D2E/DX2                !
 ! A40   A(19,17,32)           109.5482         estimate D2E/DX2                !
 ! A41   A(17,19,20)           111.8102         estimate D2E/DX2                !
 ! A42   A(17,19,31)           123.1641         estimate D2E/DX2                !
 ! A43   A(20,19,31)           124.928          estimate D2E/DX2                !
 ! A44   A(19,20,21)           127.794          estimate D2E/DX2                !
 ! A45   A(19,20,35)           115.519          estimate D2E/DX2                !
 ! A46   A(21,20,35)           116.6869         estimate D2E/DX2                !
 ! A47   A(20,21,22)           124.1074         estimate D2E/DX2                !
 ! A48   A(20,21,30)           116.9084         estimate D2E/DX2                !
 ! A49   A(22,21,30)           118.9838         estimate D2E/DX2                !
 ! A50   A(21,22,23)           120.5757         estimate D2E/DX2                !
 ! A51   A(21,22,36)           121.398          estimate D2E/DX2                !
 ! A52   A(23,22,36)           118.0262         estimate D2E/DX2                !
 ! A53   A(22,23,24)           119.9643         estimate D2E/DX2                !
 ! A54   A(22,23,26)           120.1155         estimate D2E/DX2                !
 ! A55   A(24,23,26)           119.9149         estimate D2E/DX2                !
 ! A56   A(23,26,27)           119.7226         estimate D2E/DX2                !
 ! A57   A(23,26,37)           120.0879         estimate D2E/DX2                !
 ! A58   A(27,26,37)           120.1882         estimate D2E/DX2                !
 ! A59   A(26,27,28)           120.1711         estimate D2E/DX2                !
 ! A60   A(26,27,30)           119.9396         estimate D2E/DX2                !
 ! A61   A(28,27,30)           119.8877         estimate D2E/DX2                !
 ! A62   A(21,30,27)           120.6585         estimate D2E/DX2                !
 ! A63   A(21,30,38)           120.3915         estimate D2E/DX2                !
 ! A64   A(27,30,38)           118.949          estimate D2E/DX2                !
 ! A65   A(2,33,15)            106.219          estimate D2E/DX2                !
 ! A66   L(23,24,25,16,-1)     180.5826         estimate D2E/DX2                !
 ! A67   L(27,28,29,38,-1)     179.8032         estimate D2E/DX2                !
 ! A68   L(23,24,25,16,-2)     181.4163         estimate D2E/DX2                !
 ! A69   L(27,28,29,38,-2)     181.2053         estimate D2E/DX2                !
 ! D1    D(1,2,4,5)            162.9334         estimate D2E/DX2                !
 ! D2    D(1,2,4,6)             42.3414         estimate D2E/DX2                !
 ! D3    D(1,2,4,7)            -79.7103         estimate D2E/DX2                !
 ! D4    D(3,2,4,5)             40.707          estimate D2E/DX2                !
 ! D5    D(3,2,4,6)            -79.885          estimate D2E/DX2                !
 ! D6    D(3,2,4,7)            158.0633         estimate D2E/DX2                !
 ! D7    D(33,2,4,5)           -79.8133         estimate D2E/DX2                !
 ! D8    D(33,2,4,6)           159.5947         estimate D2E/DX2                !
 ! D9    D(33,2,4,7)            37.543          estimate D2E/DX2                !
 ! D10   D(1,2,33,15)          104.1201         estimate D2E/DX2                !
 ! D11   D(3,2,33,15)         -140.0835         estimate D2E/DX2                !
 ! D12   D(4,2,33,15)          -16.9278         estimate D2E/DX2                !
 ! D13   D(2,4,7,8)             71.7669         estimate D2E/DX2                !
 ! D14   D(2,4,7,9)           -169.6879         estimate D2E/DX2                !
 ! D15   D(2,4,7,15)           -41.1006         estimate D2E/DX2                !
 ! D16   D(5,4,7,8)           -171.1296         estimate D2E/DX2                !
 ! D17   D(5,4,7,9)            -52.5845         estimate D2E/DX2                !
 ! D18   D(5,4,7,15)            76.0029         estimate D2E/DX2                !
 ! D19   D(6,4,7,8)            -50.1064         estimate D2E/DX2                !
 ! D20   D(6,4,7,9)             68.4388         estimate D2E/DX2                !
 ! D21   D(6,4,7,15)          -162.9739         estimate D2E/DX2                !
 ! D22   D(4,7,9,10)            61.7699         estimate D2E/DX2                !
 ! D23   D(4,7,9,11)          -173.9545         estimate D2E/DX2                !
 ! D24   D(4,7,9,14)           -52.2504         estimate D2E/DX2                !
 ! D25   D(8,7,9,10)           179.4328         estimate D2E/DX2                !
 ! D26   D(8,7,9,11)           -56.2916         estimate D2E/DX2                !
 ! D27   D(8,7,9,14)            65.4125         estimate D2E/DX2                !
 ! D28   D(15,7,9,10)          -56.1573         estimate D2E/DX2                !
 ! D29   D(15,7,9,11)           68.1183         estimate D2E/DX2                !
 ! D30   D(15,7,9,14)         -170.1776         estimate D2E/DX2                !
 ! D31   D(4,7,15,16)          146.8054         estimate D2E/DX2                !
 ! D32   D(4,7,15,17)          -88.7291         estimate D2E/DX2                !
 ! D33   D(4,7,15,33)           33.3932         estimate D2E/DX2                !
 ! D34   D(8,7,15,16)           34.8786         estimate D2E/DX2                !
 ! D35   D(8,7,15,17)          159.344          estimate D2E/DX2                !
 ! D36   D(8,7,15,33)          -78.5336         estimate D2E/DX2                !
 ! D37   D(9,7,15,16)          -89.653          estimate D2E/DX2                !
 ! D38   D(9,7,15,17)           34.8125         estimate D2E/DX2                !
 ! D39   D(9,7,15,33)          156.9349         estimate D2E/DX2                !
 ! D40   D(7,9,11,12)          137.4138         estimate D2E/DX2                !
 ! D41   D(7,9,11,13)          -44.9766         estimate D2E/DX2                !
 ! D42   D(10,9,11,12)         -99.2047         estimate D2E/DX2                !
 ! D43   D(10,9,11,13)          78.4049         estimate D2E/DX2                !
 ! D44   D(14,9,11,12)          17.1799         estimate D2E/DX2                !
 ! D45   D(14,9,11,13)        -165.2105         estimate D2E/DX2                !
 ! D46   D(9,11,12,34)         177.9595         estimate D2E/DX2                !
 ! D47   D(13,11,12,34)          0.1772         estimate D2E/DX2                !
 ! D48   D(7,15,17,18)         -56.6889         estimate D2E/DX2                !
 ! D49   D(7,15,17,19)        -179.8494         estimate D2E/DX2                !
 ! D50   D(7,15,17,32)          58.5188         estimate D2E/DX2                !
 ! D51   D(16,15,17,18)         66.8067         estimate D2E/DX2                !
 ! D52   D(16,15,17,19)        -56.3537         estimate D2E/DX2                !
 ! D53   D(16,15,17,32)       -177.9855         estimate D2E/DX2                !
 ! D54   D(33,15,17,18)       -177.8772         estimate D2E/DX2                !
 ! D55   D(33,15,17,19)         58.9624         estimate D2E/DX2                !
 ! D56   D(33,15,17,32)        -62.6694         estimate D2E/DX2                !
 ! D57   D(7,15,33,2)          -10.3457         estimate D2E/DX2                !
 ! D58   D(16,15,33,2)        -124.7709         estimate D2E/DX2                !
 ! D59   D(17,15,33,2)         117.6939         estimate D2E/DX2                !
 ! D60   D(15,17,19,20)       -137.0589         estimate D2E/DX2                !
 ! D61   D(15,17,19,31)         46.3761         estimate D2E/DX2                !
 ! D62   D(18,17,19,20)         99.4653         estimate D2E/DX2                !
 ! D63   D(18,17,19,31)        -77.0997         estimate D2E/DX2                !
 ! D64   D(32,17,19,20)        -15.4896         estimate D2E/DX2                !
 ! D65   D(32,17,19,31)        167.9454         estimate D2E/DX2                !
 ! D66   D(17,19,20,21)       -178.5603         estimate D2E/DX2                !
 ! D67   D(17,19,20,35)          1.5557         estimate D2E/DX2                !
 ! D68   D(31,19,20,21)         -2.0676         estimate D2E/DX2                !
 ! D69   D(31,19,20,35)        178.0484         estimate D2E/DX2                !
 ! D70   D(19,20,21,22)         -1.0785         estimate D2E/DX2                !
 ! D71   D(19,20,21,30)        179.1624         estimate D2E/DX2                !
 ! D72   D(35,20,21,22)        178.8043         estimate D2E/DX2                !
 ! D73   D(35,20,21,30)         -0.9548         estimate D2E/DX2                !
 ! D74   D(20,21,22,23)        179.8993         estimate D2E/DX2                !
 ! D75   D(20,21,22,36)         -0.0977         estimate D2E/DX2                !
 ! D76   D(30,21,22,23)         -0.3464         estimate D2E/DX2                !
 ! D77   D(30,21,22,36)        179.6567         estimate D2E/DX2                !
 ! D78   D(20,21,30,27)       -179.6062         estimate D2E/DX2                !
 ! D79   D(20,21,30,38)          0.0276         estimate D2E/DX2                !
 ! D80   D(22,21,30,27)          0.6219         estimate D2E/DX2                !
 ! D81   D(22,21,30,38)       -179.7443         estimate D2E/DX2                !
 ! D82   D(21,22,23,24)        178.8968         estimate D2E/DX2                !
 ! D83   D(21,22,23,26)         -0.2646         estimate D2E/DX2                !
 ! D84   D(36,22,23,24)         -1.1061         estimate D2E/DX2                !
 ! D85   D(36,22,23,26)        179.7324         estimate D2E/DX2                !
 ! D86   D(22,23,26,27)          0.6046         estimate D2E/DX2                !
 ! D87   D(22,23,26,37)       -179.8122         estimate D2E/DX2                !
 ! D88   D(24,23,26,27)       -178.5572         estimate D2E/DX2                !
 ! D89   D(24,23,26,37)          1.0259         estimate D2E/DX2                !
 ! D90   D(23,26,27,28)       -179.8655         estimate D2E/DX2                !
 ! D91   D(23,26,27,30)         -0.3309         estimate D2E/DX2                !
 ! D92   D(37,26,27,28)          0.5518         estimate D2E/DX2                !
 ! D93   D(37,26,27,30)       -179.9136         estimate D2E/DX2                !
 ! D94   D(26,27,30,21)         -0.2863         estimate D2E/DX2                !
 ! D95   D(26,27,30,38)       -179.9253         estimate D2E/DX2                !
 ! D96   D(28,27,30,21)        179.2497         estimate D2E/DX2                !
 ! D97   D(28,27,30,38)         -0.3893         estimate D2E/DX2                !
 --------------------------------------------------------------------------------
 Trust Radius=3.00D-01 FncErr=1.00D-07 GrdErr=1.00D-06
 Number of steps in this run=    215 maximum allowed number of steps=    228.
 GradGradGradGradGradGradGradGradGradGradGradGradGradGradGradGradGradGrad

 Leave Link  103 at Wed Feb  5 05:48:52 2025, MaxMem=  5368709120 cpu:         0.1
 (Enter /home/k0335/k033513/app/g09/l202.exe)
                          Input orientation:                          
 ---------------------------------------------------------------------
 Center     Atomic      Atomic             Coordinates (Angstroms)
 Number     Number       Type             X           Y           Z
 ---------------------------------------------------------------------
      1          9           0        3.043236    3.198762    1.341600
      2          6           0        2.147227    2.252100    1.695949
      3          9           0        1.240660    2.831013    2.510463
      4          6           0        2.804751    1.033418    2.309813
      5          9           0        1.900756    0.284312    2.982312
      6          9           0        3.790980    1.324569    3.175519
      7          6           0        3.265984    0.340164    1.067000
      8          9           0        4.319255    1.077547    0.565408
      9          6           0        3.755864   -1.057368    1.344477
     10          9           0        2.746169   -1.817545    1.854593
     11          6           0        4.355944   -1.682700    0.087658
     12          8           0        5.501166   -2.365278    0.297356
     13          8           0        3.875013   -1.647544   -1.032866
     14          9           0        4.686488   -0.995203    2.347985
     15          6           0        2.055280    0.553295    0.147935
     16          9           0        2.521781    0.676304   -1.123645
     17          6           0        0.924129   -0.495189    0.182772
     18          9           0        1.410611   -1.734020   -0.092384
     19          6           0       -0.216280   -0.144657   -0.795402
     20          7           0       -1.473420   -0.350419   -0.222087
     21          6           0       -2.736658   -0.165812   -0.820479
     22          6           0       -2.925259    0.290404   -2.127330
     23          6           0       -4.217682    0.445266   -2.649339
     24          6           0       -4.396784    0.937227   -3.985012
     25          7           0       -4.556377    1.356885   -5.056437
     26          6           0       -5.332635    0.137694   -1.864369
     27          6           0       -5.154152   -0.312587   -0.553255
     28          6           0       -6.291564   -0.633748    0.259925
     29          7           0       -7.206375   -0.912418    0.912392
     30          6           0       -3.860674   -0.460198   -0.034374
     31          8           0       -0.021941    0.205702   -1.954779
     32          9           0        0.426112   -0.585085    1.452536
     33          8           0        1.493640    1.844277    0.496495
     34          1           0        5.751857   -2.735313   -0.577017
     35          1           0       -1.467658   -0.670674    0.745087
     36          1           0       -2.082250    0.535418   -2.769064
     37          1           0       -6.337125    0.255344   -2.271685
     38          1           0       -3.740069   -0.813944    0.990439
 ---------------------------------------------------------------------
                    Distance matrix (angstroms):
                    1          2          3          4          5
     1  F    0.000000
     2  C    1.350764   0.000000
     3  F    2.179624   1.349236   0.000000
     4  C    2.383910   1.514712   2.391232   0.000000
     5  F    3.534291   2.363825   2.672836   1.353005   0.000000
     6  F    2.726716   2.398200   3.035754   1.344196   2.166197
     7  C    2.880383   2.302758   3.519922   1.495968   2.352740
     8  F    2.594273   2.715769   4.041736   2.310545   3.509955
     9  C    4.315378   3.696461   4.775488   2.491561   2.814966
    10  F    5.051212   4.116541   4.930093   2.887672   2.530667
    11  C    5.208094   4.790374   5.995714   3.836857   4.275056
    12  O    6.171743   5.875810   7.074687   4.782444   5.214621
    13  O    5.460460   5.063487   6.289075   4.416619   4.873542
    14  F    4.615456   4.173485   5.151704   2.767254   3.130468
    15  C    3.065842   2.300161   3.381293   2.337935   2.851302
    16  F    3.565409   3.251697   4.414837   3.463558   4.171116
    17  C    4.413476   3.366492   4.072095   3.224544   3.065754
    18  F    5.390187   4.430563   5.257682   3.920828   3.710480
    19  C    5.135141   4.187773   4.680388   4.489638   4.351664
    20  N    5.953317   4.853973   4.995455   5.160259   4.696394
    21  C    7.028664   6.002586   5.991260   6.476426   6.014103
    22  C    7.490992   6.647994   6.731916   7.285144   7.028435
    23  C    8.730994   7.915696   7.880916   8.617057   8.317252
    24  C    9.425563   8.765061   8.806724   9.565364   9.414293
    25  N   10.103539   9.556905   9.645552  10.418852  10.366603
    26  C    9.476476   8.549556   8.342741   9.189296   8.708258
    27  C    9.116864   8.058950   7.756430   8.564638   7.913801
    28  C   10.148726   9.033464   8.590919   9.472298   8.681494
    29  N   11.051721   9.905453   9.376540  10.293770   9.415762
    30  C    7.933805   6.815090   6.582695   7.221772   6.545897
    31  O    5.405537   4.713900   5.331492   5.182861   5.298850
    32  F    4.602080   3.327327   3.667755   3.002066   2.295788
    33  O    2.224877   1.425547   2.256926   2.380048   2.962857
    34  H    6.799336   6.560032   7.801757   5.587715   6.051276
    35  H    5.972983   4.744907   4.765853   4.858578   4.154923
    36  H    7.089539   6.385281   6.647172   7.065817   7.000408
    37  H   10.474288   9.576710   9.323403  10.255214   9.770773
    38  H    7.889129   6.675225   6.356402   6.927349   6.082157
                    6          7          8          9         10
     6  F    0.000000
     7  C    2.385482   0.000000
     8  F    2.674467   1.380112   0.000000
     9  C    3.004592   1.506676   2.341414   0.000000
    10  F    3.565018   2.355041   3.538101   1.362928   0.000000
    11  C    4.347153   2.497820   2.801527   1.526673   2.394080
    12  O    4.982322   3.592744   3.649905   2.419333   3.211698
    13  O    5.152768   2.954884   3.190290   2.452400   3.104933
    14  F    2.620704   2.332801   2.758393   1.370020   2.164375
    15  C    3.574043   1.534897   2.361082   2.630197   3.001815
    16  F    4.529230   2.337895   2.498962   3.258866   3.890955
    17  C    4.526244   2.638931   3.761222   3.111965   2.804183
    18  F    5.069548   3.014767   4.098513   2.832426   2.362501
    19  C    5.829663   3.978662   4.890467   4.603265   4.312439
    20  N    6.485616   4.959899   6.017833   5.504481   4.926458
    21  C    7.797390   6.312709   7.297433   6.901793   6.320255
    22  C    8.619604   6.966901   7.768746   7.649009   7.243221
    23  C    9.941872   8.356284   9.144051   9.043556   8.596565
    24  C   10.884058   9.197680   9.833379   9.942210   9.628683
    25  N   11.723673   9.985967  10.509996  10.765392  10.543553
    26  C   10.490448   9.086813   9.997306   9.712141   9.106081
    27  C    9.828500   8.599419   9.639985   9.140266   8.395100
    28  C   10.676769   9.640882  10.752271  10.114668   9.253376
    29  N   11.448479  10.548136  11.701304  10.971709  10.037935
    30  C    8.487439   7.255540   8.344797   7.763343   7.004353
    31  O    6.489236   4.467626   5.094844   5.172257   5.125161
    32  F    4.235302   3.011577   4.325263   3.364814   2.657682
    33  O    3.567217   2.393540   2.928604   3.775748   4.101487
    34  H    5.865936   4.282629   4.230294   3.239078   3.973561
    35  H    6.127093   4.851061   6.047886   5.272000   4.505847
    36  H    8.393787   6.584612   7.238223   7.317224   7.087190
    37  H   11.549623  10.167286  11.058189  10.801309  10.189665
    38  H    8.128008   7.100888   8.289215   7.508236   6.620065
                   11         12         13         14         15
    11  C    0.000000
    12  O    1.349600   0.000000
    13  O    1.219879   2.220137   0.000000
    14  F    2.385580   2.597284   3.537541   0.000000
    15  C    3.208794   4.518244   3.090212   3.763153   0.000000
    16  F    3.224331   4.488563   2.690678   4.419514   1.360026
    17  C    3.632710   4.945668   3.393142   4.369612   1.542736
    18  F    2.951277   4.157286   2.639178   4.151219   2.388548
    19  C    4.904141   6.230126   4.365059   5.885698   2.556757
    20  N    5.987687   7.278346   5.562880   6.705631   3.661330
    21  C    7.309628   8.599358   6.778999   8.113578   4.941418
    22  C    7.862266   9.161680   7.155221   8.923000   5.481944
    23  C    9.248051  10.537465   8.513786  10.311762   6.869240
    24  C   10.003045  11.278946   9.155263  11.240417   7.671883
    25  N   10.729877  11.986316   9.813463  12.074284   8.452529
    26  C   10.049518  11.327364   9.415904  10.927498   7.668336
    27  C    9.629637  10.884525   9.139910  10.282089   7.295021
    28  C   10.700439  11.919231  10.298465  11.180710   8.431573
    29  N   11.617260  12.805103  11.274821  11.979481   9.408026
    30  C    8.307961   9.559468   7.889717   8.889086   6.004908
    31  O    5.186857   6.495134   4.412561   6.490397   2.976084
    32  F    4.302468   5.500882   4.381890   4.372737   2.377411
    33  O    4.560647   5.815520   4.494741   4.656709   1.450368
    34  H    1.870390   0.981988   2.216660   3.566319   5.000518
    35  H    5.947331   7.185865   5.714851   6.367740   3.777007
    36  H    7.384528   8.679007   6.577894   8.622227   5.062446
    37  H   11.120442  12.394062  10.461521  12.017706   8.739325
    38  H    8.192385   9.396139   7.923265   8.537134   6.013753
                   16         17         18         19         20
    16  F    0.000000
    17  C    2.373102   0.000000
    18  F    2.847430   1.359072   0.000000
    19  C    2.877273   1.542799   2.380564   0.000000
    20  N    4.222392   2.435798   3.201376   1.396936   0.000000
    21  C    5.334065   3.810035   4.493244   2.520592   1.409937
    22  C    5.552166   4.557578   5.199910   3.049898   2.479605
    23  C    6.913862   5.945042   6.554768   4.449304   3.749085
    24  C    7.491465   6.909005   7.484247   5.368491   4.935959
    25  N    8.125907   7.804834   8.354667   6.264782   5.982512
    26  C    7.907631   6.613503   7.219045   5.234453   4.222426
    27  C    7.760361   6.125404   6.732681   4.946657   3.695794
    28  C    9.016959   7.217436   7.788339   6.185629   4.850477
    29  N   10.065113   8.173831   8.714187   7.236535   5.871087
    30  C    6.573726   4.789856   5.423323   3.736353   2.397138
    31  O    2.717126   2.440373   3.046841   1.226652   2.327721
    32  F    3.552413   1.366895   2.162422   2.379048   2.543158
    33  O    2.246350   2.428140   3.627379   2.923813   3.759853
    34  H    4.729833   5.376095   4.481504   6.509827   7.616976
    35  H    4.606749   2.463258   3.180644   2.053228   1.018834
    36  H    4.891253   4.337488   4.951267   2.799944   2.764502
    37  H    8.942898   7.701524   8.290617   6.309053   5.312573
    38  H    6.775024   4.744331   5.343084   4.006777   2.612044
                   21         22         23         24         25
    21  C    0.000000
    22  C    1.396984   0.000000
    23  C    2.431374   1.402438   0.000000
    24  C    3.739917   2.456572   1.434617   0.000000
    25  N    4.855237   3.518181   2.596129   1.161695   0.000000
    26  C    2.814413   2.426505   1.397819   2.451978   3.504041
    27  C    2.436643   2.794508   2.417620   3.729959   4.839744
    28  C    3.744809   4.229072   3.732168   4.906898   5.936093
    29  N    4.851663   5.386524   4.843709   5.941343   6.913693
    30  C    1.402867   2.412233   2.790226   4.224660   5.385806
    31  O    2.965527   2.909674   4.259583   4.878138   5.613075
    32  F    3.917333   4.981326   6.281069   7.425947   8.423964
    33  O    4.865213   5.368952   6.668786   7.456792   8.226500
    34  H    8.872232   9.319376  10.667817  11.317990  11.961228
    35  H    2.077557   3.361406   4.508889   5.791283   6.878144
    36  H    2.171856   1.087437   2.140685   2.645193   3.468168
    37  H    3.904707   3.415098   2.161188   2.676822   3.484150
    38  H    2.169408   3.406462   3.880942   5.315354   6.476385
                   26         27         28         29         30
    26  C    0.000000
    27  C    1.397723   0.000000
    28  C    2.455054   1.434612   0.000000
    29  N    3.510561   2.592207   1.157691   0.000000
    30  C    2.423433   1.401468   2.454783   3.506363   0.000000
    31  O    5.311899   5.345323   6.702072   7.815814   4.343645
    32  F    6.684866   5.936059   6.822892   7.658574   4.539056
    33  O    7.421869   7.067332   8.173492   9.135787   5.853299
    34  H   11.522908  11.171893  12.254021  13.170310   9.892996
    35  H    4.732945   3.924813   4.848383   5.746243   2.525547
    36  H    3.397302   3.881431   5.316018   6.473485   3.410656
    37  H    1.090297   2.162168   2.683581   3.501087   3.413264
    38  H    3.404675   2.152668   2.660122   3.468583   1.090836
                   31         32         33         34         35
    31  O    0.000000
    32  F    3.526456   0.000000
    33  O    3.315216   2.820537   0.000000
    34  H    6.624541   6.091480   6.344879   0.000000
    35  H    3.185500   2.023407   3.893079   7.624440   0.000000
    36  H    2.239787   5.036796   5.016371   8.767895   3.765852
    37  H    6.323325   7.766435   8.456264  12.568191   5.802597
    38  H    4.851645   4.197973   5.890826   9.810466   2.290104
                   36         37         38
    36  H    0.000000
    37  H    4.292993   0.000000
    38  H    4.324697   4.304594   0.000000
 Symmetry turned off by external request.
 Stoichiometry    C16H5F10N3O4
 Framework group  C1[X(C16H5F10N3O4)]
 Deg. of freedom   108
 Full point group                 C1      NOp   1
 Rotational constants (GHZ):      0.2478386      0.0668719      0.0646088
 Leave Link  202 at Wed Feb  5 05:48:52 2025, MaxMem=  5368709120 cpu:         0.1
 (Enter /home/k0335/k033513/app/g09/l301.exe)
 Standard basis: 6-31G(d,p) (6D, 7F)
 Ernie: Thresh=  0.10000D-02 Tol=  0.10000D-05 Strict=F.
   520 basis functions,   959 primitive gaussians,   520 cartesian basis functions
   122 alpha electrons      122 beta electrons
       nuclear repulsion energy      3842.0986002745 Hartrees.
 IExCor=20419 DFT=T Ex+Corr=CAM-B3LYP ExCW=0 ScaHFX=  1.000000
 ScaDFX=  1.000000  1.000000  1.000000  0.810000 ScalE2=  1.000000  1.000000
 IRadAn=      0 IRanWt=     -1 IRanGd=            0 ICorTp=0 IEmpDi=  4
  HFx wShort=  0.000000 wLong=  0.330000 cFull=  0.190000 cShort=  0.000000 cLong=  0.460000
  DFx wShort=  0.000000 wLong=  0.330000 cFull=  0.190000 cShort=  0.000000 cLong=  0.460000
 NAtoms=   38 NActive=   38 NUniq=   38 SFac= 1.00D+00 NAtFMM=   60 NAOKFM=F Big=F
 Integral buffers will be    131072 words long.
 Raffenetti 2 integral format.
 Two-electron integral symmetry is turned off.
 Using the following non-standard input for PCM:
 eps=2.05
 --- end of non-standard input.
 ------------------------------------------------------------------------------
 Polarizable Continuum Model (PCM)
 =================================
 Model                : PCM (using non-symmetric T matrix).
 Atomic radii         : UFF (Universal Force Field).
 Polarization charges : Total charges.
 Charge compensation  : None.
 Solution method      : On-the-fly selection.
 Cavity type          : Scaled VdW (van der Waals Surface) (Alpha=1.100).
 Cavity algorithm     : GePol (No added spheres)
                        Default sphere list used, NSphG=   38.
                        Lebedev-Laikov grids with approx.  5.0 points / Ang**2.
                        Smoothing algorithm: Karplus/York (Gamma=1.0000).
                        Polarization charges: spherical gaussians, with
                                              point-specific exponents (IZeta= 3).
                        Self-potential: point-specific (ISelfS= 7).
                        Self-field    : sphere-specific E.n sum rule (ISelfD= 2).
 1st derivatives      : Analytical E(r).r(x)/FMM algorithm (CHGder, D1EAlg=3).
                        Cavity 1st derivative terms included.
 Solvent              : Generic,
                        Eps                           =   2.050000
                        Eps(infinity)                 =   0.000000
                        RSolv                         =   0.000000 Ang.
                        Molar volume                  =   0.000000 cm**3/mol
                        Thermal expansion coefficient =   0.000000 K**-1
                        Absolute temperature          = 298.150000 K
                        Numeral density               =   0.000000 Ang**-3
                        Hydrogen bond acidity         =   0.000000
                        Hydrogen bond basicity        =   0.000000
                        Surface tension at interface  =   0.000000 (cal/mol)*Ang**-2
                        Carbon aromaticity            =   0.000000
                        Electronegative halogenicity  =   0.000000
 ------------------------------------------------------------------------------
 GePol: Number of generator spheres                  =      38
 GePol: Total number of spheres                      =      38
 GePol: Number of exposed spheres                    =      37 ( 97.37%)
 GePol: Number of points                             =    3283
 GePol: Average weight of points                     =       0.13
 GePol: Minimum weight of points                     =   0.24D-10
 GePol: Maximum weight of points                     =    0.20577
 GePol: Number of points with low weight             =     162
 GePol: Fraction of low-weight points (<1% of avg)   =       4.93%
 GePol: Cavity surface area                          =    424.848 Ang**2
 GePol: Cavity volume                                =    478.635 Ang**3
 Leave Link  301 at Wed Feb  5 05:48:52 2025, MaxMem=  5368709120 cpu:         0.9
 (Enter /home/k0335/k033513/app/g09/l302.exe)
 NPDir=0 NMtPBC=     1 NCelOv=     1 NCel=       1 NClECP=     1 NCelD=      1
         NCelK=      1 NCelE2=     1 NClLst=     1 CellRange=     0.0.
 One-electron integrals computed using PRISM.
 NBasis=   520 RedAO= T EigKep=  3.89D-04  NBF=   520
 NBsUse=   520 1.00D-06 EigRej= -1.00D+00 NBFU=   520
 Precomputing XC quadrature grid using
 IXCGrd= 4 IRadAn=           0 IRanWt=          -1 IRanGd=           0 AccXCQ= 0.00D+00.
 Generated NRdTot=       0 NPtTot=           0 NUsed=           0 NTot=          32
 NSgBfM=   502   503   503   503   503 MxSgAt=    38 MxSgA2=    38.
 Leave Link  302 at Wed Feb  5 05:48:53 2025, MaxMem=  5368709120 cpu:         8.8
 (Enter /home/k0335/k033513/app/g09/l303.exe)
 DipDrv:  MaxL=1.
 Leave Link  303 at Wed Feb  5 05:48:53 2025, MaxMem=  5368709120 cpu:         0.7
 (Enter /home/k0335/k033513/app/g09/l401.exe)
 ExpMin= 1.61D-01 ExpMax= 7.00D+03 ExpMxC= 1.05D+03 IAcc=1 IRadAn=         1 AccDes= 0.00D+00
 Harris functional with IExCor=20419 and IRadAn=       1 diagonalized for initial guess.
 HarFok:  IExCor=20419 AccDes= 0.00D+00 IRadAn=         1 IDoV= 1 UseB2=F ITyADJ=14
 ICtDFT=  3500011 ScaDFX=  1.000000  1.000000  1.000000  1.000000
 FoFCou: FMM=F IPFlag=           0 FMFlag=      100000 FMFlg1=           0
         NFxFlg=           0 DoJE=T BraDBF=F KetDBF=T FulRan=T
         wScrn=  0.000000 ICntrl=     500 IOpCl=  0 I1Cent=   200000004 NGrid=           0
         NMat0=    1 NMatS0=      1 NMatT0=    0 NMatD0=    1 NMtDS0=    0 NMtDT0=    0
 Symmetry not used in FoFCou.
 Harris En= -2009.86788009225    
 JPrj=0 DoOrth=F DoCkMO=F.
 Leave Link  401 at Wed Feb  5 05:48:53 2025, MaxMem=  5368709120 cpu:        10.2
 (Enter /home/k0335/k033513/app/g09/l502.exe)
 Closed shell SCF:
 Using DIIS extrapolation, IDIIS=  1040.
 Two-electron integral symmetry not used.
 IVT=      845426 IEndB=      845426 NGot=  5368709120 MDV=  5368151255
 LenX=  5368151255 LenY=  5367880335
 Requested convergence on RMS density matrix=1.00D-08 within 128 cycles.
 Requested convergence on MAX density matrix=1.00D-06.
 Requested convergence on             energy=1.00D-06.
 No special actions if energy rises.
 Fock matrices will be formed incrementally for  20 cycles.

 Cycle   1  Pass 1  IDiag  1:
 FoFJK:  IHMeth= 1 ICntrl=       0 DoSepK=T KAlg= 0 I1Cent=   0 FoldK=F
 IRaf=         1 NMat=   1 IRICut=       1 DoRegI=T DoRafI=F ISym2E= 0.
 FoFCou: FMM=F IPFlag=           0 FMFlag=      100000 FMFlg1=           0
         NFxFlg=           0 DoJE=T BraDBF=F KetDBF=F FulRan=T
         wScrn=  0.000000 ICntrl=     500 IOpCl=  0 I1Cent=           0 NGrid=           0
         NMat0=    1 NMatS0=      1 NMatT0=    0 NMatD0=    1 NMtDS0=    0 NMtDT0=    0
 Symmetry not used in FoFCou.
 Inv3:  Mode=1 IEnd=    32334267.
 Iteration    1 A*A^-1 deviation from unit magnitude is 9.33D-15 for    133.
 Iteration    1 A*A^-1 deviation from orthogonality  is 4.54D-15 for   3278    385.
 Iteration    1 A^-1*A deviation from unit magnitude is 7.44D-15 for    395.
 Iteration    1 A^-1*A deviation from orthogonality  is 2.69D-15 for   3262   1279.
 E= -2074.94425694038    
 DIIS: error= 6.31D-02 at cycle   1 NSaved=   1.
 NSaved= 1 IEnMin= 1 EnMin= -2074.94425694038     IErMin= 1 ErrMin= 6.31D-02
 ErrMax= 6.31D-02  0.00D+00 EMaxC= 1.00D-01 BMatC= 1.65D+00 BMatP= 1.65D+00
 IDIUse=3 WtCom= 3.69D-01 WtEn= 6.31D-01
 Coeff-Com:  0.100D+01
 Coeff-En:   0.100D+01
 Coeff:      0.100D+01
 Gap=     0.463 Goal=   None    Shift=    0.000
 GapD=    0.463 DampG=2.000 DampE=0.500 DampFc=1.0000 IDamp=-1.
 RMSDP=3.05D-03 MaxDP=1.24D-01              OVMax= 1.42D-01

 Cycle   2  Pass 1  IDiag  1:
 RMSU=  3.05D-03    CP:  9.92D-01
 E= -2075.16783910639     Delta-E=       -0.223582166014 Rises=F Damp=F
 DIIS: error= 1.92D-02 at cycle   2 NSaved=   2.
 NSaved= 2 IEnMin= 2 EnMin= -2075.16783910639     IErMin= 2 ErrMin= 1.92D-02
 ErrMax= 1.92D-02  0.00D+00 EMaxC= 1.00D-01 BMatC= 5.87D-01 BMatP= 1.65D+00
 IDIUse=3 WtCom= 8.08D-01 WtEn= 1.92D-01
 Coeff-Com:  0.349D+00 0.651D+00
 Coeff-En:   0.342D+00 0.658D+00
 Coeff:      0.348D+00 0.652D+00
 Gap=     0.315 Goal=   None    Shift=    0.000
 RMSDP=1.38D-03 MaxDP=6.90D-02 DE=-2.24D-01 OVMax= 9.14D-02

 Cycle   3  Pass 1  IDiag  1:
 RMSU=  9.72D-04    CP:  9.96D-01  6.78D-01
 E= -2075.43400812746     Delta-E=       -0.266169021070 Rises=F Damp=F
 DIIS: error= 1.09D-02 at cycle   3 NSaved=   3.
 NSaved= 3 IEnMin= 3 EnMin= -2075.43400812746     IErMin= 3 ErrMin= 1.09D-02
 ErrMax= 1.09D-02  0.00D+00 EMaxC= 1.00D-01 BMatC= 1.27D-01 BMatP= 5.87D-01
 IDIUse=3 WtCom= 8.91D-01 WtEn= 1.09D-01
 Coeff-Com:  0.724D-01 0.333D+00 0.595D+00
 Coeff-En:   0.000D+00 0.167D+00 0.833D+00
 Coeff:      0.645D-01 0.314D+00 0.621D+00
 Gap=     0.283 Goal=   None    Shift=    0.000
 RMSDP=6.63D-04 MaxDP=4.37D-02 DE=-2.66D-01 OVMax= 6.93D-02

 Cycle   4  Pass 1  IDiag  1:
 RMSU=  3.60D-04    CP:  9.92D-01  7.63D-01  4.99D-01
 E= -2075.50956633904     Delta-E=       -0.075558211579 Rises=F Damp=F
 DIIS: error= 3.92D-03 at cycle   4 NSaved=   4.
 NSaved= 4 IEnMin= 4 EnMin= -2075.50956633904     IErMin= 4 ErrMin= 3.92D-03
 ErrMax= 3.92D-03  0.00D+00 EMaxC= 1.00D-01 BMatC= 1.28D-02 BMatP= 1.27D-01
 IDIUse=3 WtCom= 9.61D-01 WtEn= 3.92D-02
 Coeff-Com:  0.635D-02 0.104D+00 0.324D+00 0.566D+00
 Coeff-En:   0.000D+00 0.000D+00 0.490D-01 0.951D+00
 Coeff:      0.610D-02 0.100D+00 0.313D+00 0.581D+00
 Gap=     0.282 Goal=   None    Shift=    0.000
 RMSDP=2.10D-04 MaxDP=1.69D-02 DE=-7.56D-02 OVMax= 2.57D-02

 Cycle   5  Pass 1  IDiag  1:
 RMSU=  1.00D-04    CP:  9.92D-01  7.65D-01  6.38D-01  6.53D-01
 E= -2075.51845296443     Delta-E=       -0.008886625393 Rises=F Damp=F
 DIIS: error= 8.77D-04 at cycle   5 NSaved=   5.
 NSaved= 5 IEnMin= 5 EnMin= -2075.51845296443     IErMin= 5 ErrMin= 8.77D-04
 ErrMax= 8.77D-04  0.00D+00 EMaxC= 1.00D-01 BMatC= 8.61D-04 BMatP= 1.28D-02
 IDIUse=3 WtCom= 9.91D-01 WtEn= 8.77D-03
 Coeff-Com:  0.608D-04 0.404D-01 0.150D+00 0.333D+00 0.476D+00
 Coeff-En:   0.000D+00 0.000D+00 0.000D+00 0.000D+00 0.100D+01
 Coeff:      0.603D-04 0.401D-01 0.149D+00 0.330D+00 0.480D+00
 Gap=     0.282 Goal=   None    Shift=    0.000
 RMSDP=4.71D-05 MaxDP=3.86D-03 DE=-8.89D-03 OVMax= 6.92D-03

 Cycle   6  Pass 1  IDiag  1:
 RMSU=  2.99D-05    CP:  9.92D-01  7.67D-01  6.35D-01  6.76D-01  6.56D-01
 E= -2075.51907370902     Delta-E=       -0.000620744587 Rises=F Damp=F
 DIIS: error= 1.06D-04 at cycle   6 NSaved=   6.
 NSaved= 6 IEnMin= 6 EnMin= -2075.51907370902     IErMin= 6 ErrMin= 1.06D-04
 ErrMax= 1.06D-04  0.00D+00 EMaxC= 1.00D-01 BMatC= 2.17D-05 BMatP= 8.61D-04
 IDIUse=3 WtCom= 9.99D-01 WtEn= 1.06D-03
 Coeff-Com: -0.581D-03 0.151D-02 0.128D-01 0.411D-01 0.153D+00 0.792D+00
 Coeff-En:   0.000D+00 0.000D+00 0.000D+00 0.000D+00 0.000D+00 0.100D+01
 Coeff:     -0.581D-03 0.150D-02 0.128D-01 0.411D-01 0.153D+00 0.792D+00
 Gap=     0.282 Goal=   None    Shift=    0.000
 RMSDP=1.37D-05 MaxDP=7.66D-04 DE=-6.21D-04 OVMax= 9.83D-04

 Cycle   7  Pass 1  IDiag  1:
 RMSU=  9.58D-06    CP:  9.92D-01  7.68D-01  6.38D-01  6.92D-01  7.23D-01
                    CP:  9.41D-01
 E= -2075.51909173182     Delta-E=       -0.000018022796 Rises=F Damp=F
 DIIS: error= 6.77D-05 at cycle   7 NSaved=   7.
 NSaved= 7 IEnMin= 7 EnMin= -2075.51909173182     IErMin= 7 ErrMin= 6.77D-05
 ErrMax= 6.77D-05  0.00D+00 EMaxC= 1.00D-01 BMatC= 5.00D-06 BMatP= 2.17D-05
 IDIUse=1 WtCom= 1.00D+00 WtEn= 0.00D+00
 Coeff-Com: -0.252D-03-0.442D-02-0.121D-01-0.208D-01 0.194D-01 0.384D+00
 Coeff-Com:  0.634D+00
 Coeff:     -0.252D-03-0.442D-02-0.121D-01-0.208D-01 0.194D-01 0.384D+00
 Coeff:      0.634D+00
 Gap=     0.282 Goal=   None    Shift=    0.000
 RMSDP=5.61D-06 MaxDP=4.77D-04 DE=-1.80D-05 OVMax= 7.28D-04

 Cycle   8  Pass 1  IDiag  1:
 RMSU=  3.35D-06    CP:  9.92D-01  7.68D-01  6.39D-01  6.94D-01  7.42D-01
                    CP:  1.05D+00  8.12D-01
 E= -2075.51909621888     Delta-E=       -0.000004487063 Rises=F Damp=F
 DIIS: error= 2.30D-05 at cycle   8 NSaved=   8.
 NSaved= 8 IEnMin= 8 EnMin= -2075.51909621888     IErMin= 8 ErrMin= 2.30D-05
 ErrMax= 2.30D-05  0.00D+00 EMaxC= 1.00D-01 BMatC= 3.70D-07 BMatP= 5.00D-06
 IDIUse=1 WtCom= 1.00D+00 WtEn= 0.00D+00
 Coeff-Com: -0.373D-04-0.187D-02-0.569D-02-0.121D-01-0.584D-02 0.689D-01
 Coeff-Com:  0.251D+00 0.705D+00
 Coeff:     -0.373D-04-0.187D-02-0.569D-02-0.121D-01-0.584D-02 0.689D-01
 Coeff:      0.251D+00 0.705D+00
 Gap=     0.282 Goal=   None    Shift=    0.000
 RMSDP=1.74D-06 MaxDP=1.33D-04 DE=-4.49D-06 OVMax= 2.44D-04

 Cycle   9  Pass 1  IDiag  1:
 RMSU=  1.41D-06    CP:  9.92D-01  7.68D-01  6.40D-01  6.94D-01  7.48D-01
                    CP:  1.06D+00  8.82D-01  9.56D-01
 E= -2075.51909657642     Delta-E=       -0.000000357539 Rises=F Damp=F
 DIIS: error= 1.53D-05 at cycle   9 NSaved=   9.
 NSaved= 9 IEnMin= 9 EnMin= -2075.51909657642     IErMin= 9 ErrMin= 1.53D-05
 ErrMax= 1.53D-05  0.00D+00 EMaxC= 1.00D-01 BMatC= 1.05D-07 BMatP= 3.70D-07
 IDIUse=1 WtCom= 1.00D+00 WtEn= 0.00D+00
 Coeff-Com:  0.183D-04-0.326D-03-0.116D-02-0.350D-02-0.686D-02-0.316D-01
 Coeff-Com:  0.416D-01 0.392D+00 0.610D+00
 Coeff:      0.183D-04-0.326D-03-0.116D-02-0.350D-02-0.686D-02-0.316D-01
 Coeff:      0.416D-01 0.392D+00 0.610D+00
 Gap=     0.282 Goal=   None    Shift=    0.000
 RMSDP=8.83D-07 MaxDP=8.32D-05 DE=-3.58D-07 OVMax= 1.15D-04

 Cycle  10  Pass 1  IDiag  1:
 RMSU=  5.80D-07    CP:  9.92D-01  7.68D-01  6.40D-01  6.94D-01  7.49D-01
                    CP:  1.07D+00  9.09D-01  1.07D+00  8.27D-01
 E= -2075.51909668184     Delta-E=       -0.000000105422 Rises=F Damp=F
 DIIS: error= 6.20D-06 at cycle  10 NSaved=  10.
 NSaved=10 IEnMin=10 EnMin= -2075.51909668184     IErMin=10 ErrMin= 6.20D-06
 ErrMax= 6.20D-06  0.00D+00 EMaxC= 1.00D-01 BMatC= 1.46D-08 BMatP= 1.05D-07
 IDIUse=1 WtCom= 1.00D+00 WtEn= 0.00D+00
 Coeff-Com:  0.168D-04 0.205D-03 0.565D-03 0.631D-03-0.234D-02-0.320D-01
 Coeff-Com: -0.250D-01 0.553D-01 0.303D+00 0.700D+00
 Coeff:      0.168D-04 0.205D-03 0.565D-03 0.631D-03-0.234D-02-0.320D-01
 Coeff:     -0.250D-01 0.553D-01 0.303D+00 0.700D+00
 Gap=     0.282 Goal=   None    Shift=    0.000
 RMSDP=3.81D-07 MaxDP=3.03D-05 DE=-1.05D-07 OVMax= 4.99D-05

 Cycle  11  Pass 1  IDiag  1:
 RMSU=  2.13D-07    CP:  9.92D-01  7.68D-01  6.40D-01  6.94D-01  7.50D-01
                    CP:  1.07D+00  9.26D-01  1.10D+00  1.00D+00  9.66D-01
 E= -2075.51909669971     Delta-E=       -0.000000017872 Rises=F Damp=F
 DIIS: error= 1.50D-06 at cycle  11 NSaved=  11.
 NSaved=11 IEnMin=11 EnMin= -2075.51909669971     IErMin=11 ErrMin= 1.50D-06
 ErrMax= 1.50D-06  0.00D+00 EMaxC= 1.00D-01 BMatC= 2.11D-09 BMatP= 1.46D-08
 IDIUse=1 WtCom= 1.00D+00 WtEn= 0.00D+00
 Coeff-Com:  0.443D-05 0.138D-03 0.425D-03 0.804D-03 0.106D-04-0.954D-02
 Coeff-Com: -0.138D-01-0.305D-01 0.388D-01 0.327D+00 0.687D+00
 Coeff:      0.443D-05 0.138D-03 0.425D-03 0.804D-03 0.106D-04-0.954D-02
 Coeff:     -0.138D-01-0.305D-01 0.388D-01 0.327D+00 0.687D+00
 Gap=     0.282 Goal=   None    Shift=    0.000
 RMSDP=1.23D-07 MaxDP=7.73D-06 DE=-1.79D-08 OVMax= 2.64D-05

 Cycle  12  Pass 1  IDiag  1:
 RMSU=  8.08D-08    CP:  9.92D-01  7.68D-01  6.40D-01  6.94D-01  7.50D-01
                    CP:  1.07D+00  9.28D-01  1.11D+00  1.03D+00  1.08D+00
                    CP:  8.95D-01
 E= -2075.51909670224     Delta-E=       -0.000000002523 Rises=F Damp=F
 DIIS: error= 3.99D-07 at cycle  12 NSaved=  12.
 NSaved=12 IEnMin=12 EnMin= -2075.51909670224     IErMin=12 ErrMin= 3.99D-07
 ErrMax= 3.99D-07  0.00D+00 EMaxC= 1.00D-01 BMatC= 1.70D-10 BMatP= 2.11D-09
 IDIUse=1 WtCom= 1.00D+00 WtEn= 0.00D+00
 Coeff-Com: -0.762D-06 0.134D-04 0.515D-04 0.166D-03 0.323D-03 0.156D-02
 Coeff-Com:  0.304D-03-0.175D-01-0.372D-01-0.729D-02 0.187D+00 0.873D+00
 Coeff:     -0.762D-06 0.134D-04 0.515D-04 0.166D-03 0.323D-03 0.156D-02
 Coeff:      0.304D-03-0.175D-01-0.372D-01-0.729D-02 0.187D+00 0.873D+00
 Gap=     0.282 Goal=   None    Shift=    0.000
 RMSDP=5.83D-08 MaxDP=4.14D-06 DE=-2.52D-09 OVMax= 8.26D-06

 Cycle  13  Pass 1  IDiag  1:
 RMSU=  2.75D-08    CP:  9.92D-01  7.68D-01  6.40D-01  6.94D-01  7.50D-01
                    CP:  1.07D+00  9.28D-01  1.12D+00  1.04D+00  1.13D+00
                    CP:  1.03D+00  1.10D+00
 E= -2075.51909670257     Delta-E=       -0.000000000333 Rises=F Damp=F
 DIIS: error= 1.90D-07 at cycle  13 NSaved=  13.
 NSaved=13 IEnMin=13 EnMin= -2075.51909670257     IErMin=13 ErrMin= 1.90D-07
 ErrMax= 1.90D-07  0.00D+00 EMaxC= 1.00D-01 BMatC= 2.29D-11 BMatP= 1.70D-10
 IDIUse=1 WtCom= 1.00D+00 WtEn= 0.00D+00
 Coeff-Com: -0.941D-06-0.141D-04-0.380D-04-0.454D-04 0.106D-03 0.186D-02
 Coeff-Com:  0.240D-02-0.225D-02-0.192D-01-0.430D-01-0.139D-01 0.315D+00
 Coeff-Com:  0.759D+00
 Coeff:     -0.941D-06-0.141D-04-0.380D-04-0.454D-04 0.106D-03 0.186D-02
 Coeff:      0.240D-02-0.225D-02-0.192D-01-0.430D-01-0.139D-01 0.315D+00
 Coeff:      0.759D+00
 Gap=     0.282 Goal=   None    Shift=    0.000
 RMSDP=1.70D-08 MaxDP=1.05D-06 DE=-3.33D-10 OVMax= 3.25D-06

 Cycle  14  Pass 1  IDiag  1:
 RMSU=  1.11D-08    CP:  9.92D-01  7.68D-01  6.40D-01  6.94D-01  7.50D-01
                    CP:  1.07D+00  9.28D-01  1.12D+00  1.04D+00  1.14D+00
                    CP:  1.05D+00  1.21D+00  1.01D+00
 E= -2075.51909670252     Delta-E=        0.000000000049 Rises=F Damp=F
 DIIS: error= 5.80D-08 at cycle  14 NSaved=  14.
 NSaved=14 IEnMin=13 EnMin= -2075.51909670257     IErMin=14 ErrMin= 5.80D-08
 ErrMax= 5.80D-08  0.00D+00 EMaxC= 1.00D-01 BMatC= 4.09D-12 BMatP= 2.29D-11
 IDIUse=1 WtCom= 1.00D+00 WtEn= 0.00D+00
 Coeff-Com: -0.251D-06-0.679D-05-0.196D-04-0.353D-04-0.134D-04 0.473D-03
 Coeff-Com:  0.869D-03 0.101D-02-0.289D-02-0.139D-01-0.241D-01 0.288D-02
 Coeff-Com:  0.292D+00 0.744D+00
 Coeff:     -0.251D-06-0.679D-05-0.196D-04-0.353D-04-0.134D-04 0.473D-03
 Coeff:      0.869D-03 0.101D-02-0.289D-02-0.139D-01-0.241D-01 0.288D-02
 Coeff:      0.292D+00 0.744D+00
 Gap=     0.282 Goal=   None    Shift=    0.000
 RMSDP=6.29D-09 MaxDP=3.84D-07 DE= 4.91D-11 OVMax= 9.72D-07

 Error on total polarization charges =  0.00257
 SCF Done:  E(RCAM-B3LYP) =  -2075.51909670     A.U. after   14 cycles
            NFock= 14  Conv=0.63D-08     -V/T= 2.0077
 KE= 2.059698649676D+03 PE=-1.256996307068D+04 EE= 4.592646724027D+03
 Leave Link  502 at Wed Feb  5 05:49:34 2025, MaxMem=  5368709120 cpu:       906.0
 (Enter /home/k0335/k033513/app/g09/l601.exe)
 Copying SCF densities to generalized density rwf, IOpCl= 0 IROHF=0.

 **********************************************************************

            Population analysis using the SCF density.

 **********************************************************************

 Alpha  occ. eigenvalues --  -24.83980 -24.83839 -24.83611 -24.83550 -24.83452
 Alpha  occ. eigenvalues --  -24.83237 -24.83011 -24.82799 -24.82674 -24.81794
 Alpha  occ. eigenvalues --  -19.32269 -19.30601 -19.25968 -19.25020 -14.49574
 Alpha  occ. eigenvalues --  -14.43220 -14.42974 -10.53031 -10.49886 -10.49327
 Alpha  occ. eigenvalues --  -10.49315 -10.47919 -10.44906 -10.43285 -10.43017
 Alpha  occ. eigenvalues --  -10.36374 -10.34360 -10.34076 -10.32648 -10.32449
 Alpha  occ. eigenvalues --  -10.32381 -10.32076 -10.31536  -1.41063  -1.39449
 Alpha  occ. eigenvalues --   -1.38718  -1.38136  -1.36096  -1.34004  -1.33224
 Alpha  occ. eigenvalues --   -1.32474  -1.32200  -1.31671  -1.22682  -1.20369
 Alpha  occ. eigenvalues --   -1.16876  -1.13008  -1.06747  -1.01505  -1.00586
 Alpha  occ. eigenvalues --   -0.98195  -0.97917  -0.91532  -0.90176  -0.89446
 Alpha  occ. eigenvalues --   -0.88181  -0.83653  -0.79560  -0.77490  -0.77296
 Alpha  occ. eigenvalues --   -0.76215  -0.74106  -0.72934  -0.71163  -0.70903
 Alpha  occ. eigenvalues --   -0.69823  -0.69232  -0.68500  -0.67643  -0.67453
 Alpha  occ. eigenvalues --   -0.66780  -0.66081  -0.65615  -0.63746  -0.63257
 Alpha  occ. eigenvalues --   -0.62797  -0.60635  -0.59149  -0.58977  -0.58657
 Alpha  occ. eigenvalues --   -0.58593  -0.57990  -0.56666  -0.56605  -0.56530
 Alpha  occ. eigenvalues --   -0.56064  -0.55103  -0.54855  -0.54519  -0.54174
 Alpha  occ. eigenvalues --   -0.54021  -0.53609  -0.53331  -0.53209  -0.52260
 Alpha  occ. eigenvalues --   -0.52142  -0.51591  -0.51226  -0.50799  -0.50490
 Alpha  occ. eigenvalues --   -0.50274  -0.49980  -0.49297  -0.49022  -0.48764
 Alpha  occ. eigenvalues --   -0.48402  -0.47422  -0.46302  -0.45735  -0.45231
 Alpha  occ. eigenvalues --   -0.44707  -0.44115  -0.43502  -0.43330  -0.42173
 Alpha  occ. eigenvalues --   -0.41576  -0.41340  -0.39452  -0.38220  -0.36658
 Alpha  occ. eigenvalues --   -0.34223  -0.31996
 Alpha virt. eigenvalues --   -0.03786  -0.02987  -0.01160   0.01558   0.04275
 Alpha virt. eigenvalues --    0.06448   0.08175   0.08347   0.09267   0.10278
 Alpha virt. eigenvalues --    0.10667   0.11252   0.12424   0.13178   0.15159
 Alpha virt. eigenvalues --    0.15792   0.16756   0.18121   0.19236   0.20159
 Alpha virt. eigenvalues --    0.21977   0.22122   0.22384   0.23630   0.23787
 Alpha virt. eigenvalues --    0.24307   0.26499   0.27018   0.27086   0.27919
 Alpha virt. eigenvalues --    0.28102   0.29409   0.31519   0.32437   0.32915
 Alpha virt. eigenvalues --    0.33515   0.33781   0.35124   0.35311   0.36560
 Alpha virt. eigenvalues --    0.37593   0.39343   0.41148   0.42382   0.45251
 Alpha virt. eigenvalues --    0.47133   0.47797   0.48875   0.50541   0.51567
 Alpha virt. eigenvalues --    0.51985   0.52557   0.53114   0.53717   0.54810
 Alpha virt. eigenvalues --    0.55587   0.55985   0.56454   0.57269   0.58271
 Alpha virt. eigenvalues --    0.58756   0.59176   0.59736   0.60462   0.61185
 Alpha virt. eigenvalues --    0.61668   0.62654   0.63188   0.63627   0.64041
 Alpha virt. eigenvalues --    0.64657   0.65239   0.66298   0.67703   0.68833
 Alpha virt. eigenvalues --    0.68898   0.69946   0.70476   0.71090   0.71303
 Alpha virt. eigenvalues --    0.72189   0.73121   0.74784   0.75707   0.75913
 Alpha virt. eigenvalues --    0.76423   0.77444   0.77754   0.79077   0.79655
 Alpha virt. eigenvalues --    0.81051   0.82426   0.82472   0.84588   0.84897
 Alpha virt. eigenvalues --    0.85329   0.85889   0.87515   0.88167   0.88522
 Alpha virt. eigenvalues --    0.89263   0.89644   0.90289   0.91404   0.91997
 Alpha virt. eigenvalues --    0.92654   0.93663   0.95871   0.97198   0.98503
 Alpha virt. eigenvalues --    0.99443   1.00390   1.00829   1.02425   1.02940
 Alpha virt. eigenvalues --    1.04104   1.04817   1.05071   1.07589   1.08304
 Alpha virt. eigenvalues --    1.09764   1.10138   1.10758   1.12420   1.12818
 Alpha virt. eigenvalues --    1.13692   1.14552   1.14817   1.17858   1.18954
 Alpha virt. eigenvalues --    1.19446   1.20047   1.20669   1.21750   1.22709
 Alpha virt. eigenvalues --    1.23422   1.24040   1.25048   1.25699   1.26504
 Alpha virt. eigenvalues --    1.27125   1.28528   1.29642   1.29723   1.31870
 Alpha virt. eigenvalues --    1.32487   1.33654   1.34758   1.34921   1.36117
 Alpha virt. eigenvalues --    1.36289   1.36455   1.37715   1.37933   1.38645
 Alpha virt. eigenvalues --    1.39281   1.39641   1.40135   1.40389   1.40891
 Alpha virt. eigenvalues --    1.41638   1.42375   1.42759   1.43343   1.44002
 Alpha virt. eigenvalues --    1.45338   1.46041   1.46365   1.47415   1.47754
 Alpha virt. eigenvalues --    1.49924   1.51367   1.52294   1.52548   1.53137
 Alpha virt. eigenvalues --    1.53746   1.54608   1.56390   1.56793   1.57489
 Alpha virt. eigenvalues --    1.57648   1.58259   1.58323   1.59227   1.60067
 Alpha virt. eigenvalues --    1.61743   1.62194   1.62612   1.62964   1.64528
 Alpha virt. eigenvalues --    1.65674   1.66398   1.67513   1.69171   1.69592
 Alpha virt. eigenvalues --    1.70619   1.71507   1.72546   1.74482   1.74834
 Alpha virt. eigenvalues --    1.75304   1.77061   1.77958   1.78790   1.79097
 Alpha virt. eigenvalues --    1.79744   1.79864   1.81117   1.81247   1.81820
 Alpha virt. eigenvalues --    1.82375   1.82743   1.83630   1.83690   1.84409
 Alpha virt. eigenvalues --    1.84925   1.85600   1.85770   1.86984   1.87323
 Alpha virt. eigenvalues --    1.88232   1.88644   1.89698   1.90930   1.91503
 Alpha virt. eigenvalues --    1.92011   1.93022   1.93721   1.94718   1.95881
 Alpha virt. eigenvalues --    1.96203   1.97432   1.97873   1.98103   1.99754
 Alpha virt. eigenvalues --    2.00445   2.00812   2.01042   2.01195   2.01862
 Alpha virt. eigenvalues --    2.02049   2.03107   2.04014   2.04359   2.05228
 Alpha virt. eigenvalues --    2.05388   2.05493   2.06414   2.06821   2.07593
 Alpha virt. eigenvalues --    2.08287   2.08715   2.09063   2.09625   2.10498
 Alpha virt. eigenvalues --    2.10938   2.11162   2.12029   2.12412   2.13101
 Alpha virt. eigenvalues --    2.13841   2.13995   2.15483   2.16772   2.17794
 Alpha virt. eigenvalues --    2.19651   2.20414   2.22749   2.23791   2.24201
 Alpha virt. eigenvalues --    2.24932   2.25374   2.26831   2.28285   2.29786
 Alpha virt. eigenvalues --    2.31080   2.31693   2.33622   2.33921   2.34305
 Alpha virt. eigenvalues --    2.35663   2.36790   2.38580   2.39237   2.39860
 Alpha virt. eigenvalues --    2.41412   2.42536   2.43101   2.44526   2.45114
 Alpha virt. eigenvalues --    2.46175   2.46558   2.51414   2.51989   2.52577
 Alpha virt. eigenvalues --    2.52842   2.53599   2.54500   2.55144   2.55595
 Alpha virt. eigenvalues --    2.57209   2.58228   2.59074   2.59573   2.62833
 Alpha virt. eigenvalues --    2.63480   2.65157   2.66751   2.68473   2.70039
 Alpha virt. eigenvalues --    2.70530   2.70968   2.72048   2.72834   2.73391
 Alpha virt. eigenvalues --    2.74299   2.75335   2.75693   2.78019   2.78665
 Alpha virt. eigenvalues --    2.80234   2.81384   2.82760   2.83569   2.84597
 Alpha virt. eigenvalues --    2.84711   2.85246   2.87558   2.89179   2.89728
 Alpha virt. eigenvalues --    2.91025   2.91433   2.92267   2.93202   2.95636
 Alpha virt. eigenvalues --    2.96578   2.96974   2.98901   2.99307   3.02651
 Alpha virt. eigenvalues --    3.05501   3.10156   3.11625   3.12446   3.13574
 Alpha virt. eigenvalues --    3.14834   3.16567   3.17690   3.19662   3.20743
 Alpha virt. eigenvalues --    3.23301   3.23821   3.25021   3.27598   3.30762
 Alpha virt. eigenvalues --    3.31576   3.32744   3.33380   3.36184   3.36457
 Alpha virt. eigenvalues --    3.45466   3.45622   3.47266   3.60304   3.80741
 Alpha virt. eigenvalues --    3.96987   4.08081   4.09556   4.14031   4.17478
 Alpha virt. eigenvalues --    4.18350   4.23889   4.25157   4.28013   4.30079
 Alpha virt. eigenvalues --    4.37229   4.37785   4.39143   4.40293   4.43135
 Alpha virt. eigenvalues --    4.49942   4.59766   4.62755   4.69687   4.73433
 Alpha virt. eigenvalues --    4.79744   4.84392   4.87451   4.98055   5.14173
 Alpha virt. eigenvalues --    5.17376   5.35676   5.46473   5.96879   6.01114
 Alpha virt. eigenvalues --    6.14039   6.50728   7.00189
          Condensed to atoms (all electrons):
               1          2          3          4          5          6
     1  F    9.085468   0.282058  -0.041466  -0.031587   0.000303   0.000105
     2  C    0.282058   4.355004   0.308093   0.236906  -0.016694  -0.022698
     3  F   -0.041466   0.308093   9.045871  -0.023364  -0.000472  -0.000131
     4  C   -0.031587   0.236906  -0.023364   4.755302   0.233946   0.282239
     5  F    0.000303  -0.016694  -0.000472   0.233946   9.118030  -0.040149
     6  F    0.000105  -0.022698  -0.000131   0.282239  -0.040149   9.064754
     7  C    0.001723  -0.079069   0.001667   0.118158  -0.047756  -0.030127
     8  F    0.000041   0.010095   0.000002  -0.020804   0.000391  -0.000617
     9  C   -0.000017   0.005339  -0.000039  -0.018308   0.007193  -0.002624
    10  F    0.000000  -0.000075   0.000000  -0.000014  -0.000965  -0.000036
    11  C    0.000002  -0.000243   0.000000   0.005730   0.000117  -0.000055
    12  O    0.000000   0.000001   0.000000  -0.000068   0.000000   0.000000
    13  O    0.000000   0.000005   0.000000   0.000106   0.000000   0.000000
    14  F    0.000000   0.000219   0.000000   0.006139  -0.000645  -0.000089
    15  C    0.001801  -0.027837   0.001499  -0.054426   0.010129   0.002328
    16  F   -0.000020   0.000567  -0.000003   0.001176   0.000000  -0.000001
    17  C    0.000022   0.001263   0.000181   0.000092   0.003835   0.000007
    18  F    0.000000   0.000067   0.000000  -0.000172  -0.000024   0.000000
    19  C    0.000000   0.000103  -0.000015  -0.000148  -0.000052   0.000000
    20  N    0.000000   0.000007   0.000000   0.000009   0.000005   0.000000
    21  C    0.000000   0.000000   0.000000   0.000000   0.000000   0.000000
    22  C    0.000000   0.000000   0.000000   0.000000   0.000000   0.000000
    23  C    0.000000   0.000000   0.000000   0.000000   0.000000   0.000000
    24  C    0.000000   0.000000   0.000000   0.000000   0.000000   0.000000
    25  N    0.000000   0.000000   0.000000   0.000000   0.000000   0.000000
    26  C    0.000000   0.000000   0.000000   0.000000   0.000000   0.000000
    27  C    0.000000   0.000000   0.000000   0.000000   0.000000   0.000000
    28  C    0.000000   0.000000   0.000000   0.000000   0.000000   0.000000
    29  N    0.000000   0.000000   0.000000   0.000000   0.000000   0.000000
    30  C    0.000000   0.000000   0.000000   0.000000   0.000000   0.000000
    31  O    0.000000   0.000012   0.000000   0.000000   0.000000   0.000000
    32  F    0.000000   0.002192  -0.000042   0.002485  -0.006484  -0.000001
    33  O   -0.052300   0.183158  -0.042160  -0.041232  -0.001357   0.000740
    34  H    0.000000   0.000000   0.000000   0.000004   0.000000   0.000000
    35  H    0.000000   0.000003   0.000000  -0.000004   0.000015   0.000000
    36  H    0.000000   0.000000   0.000000   0.000000   0.000000   0.000000
    37  H    0.000000   0.000000   0.000000   0.000000   0.000000   0.000000
    38  H    0.000000   0.000000   0.000000   0.000000   0.000000   0.000000
               7          8          9         10         11         12
     1  F    0.001723   0.000041  -0.000017   0.000000   0.000002   0.000000
     2  C   -0.079069   0.010095   0.005339  -0.000075  -0.000243   0.000001
     3  F    0.001667   0.000002  -0.000039   0.000000   0.000000   0.000000
     4  C    0.118158  -0.020804  -0.018308  -0.000014   0.005730  -0.000068
     5  F   -0.047756   0.000391   0.007193  -0.000965   0.000117   0.000000
     6  F   -0.030127  -0.000617  -0.002624  -0.000036  -0.000055   0.000000
     7  C    5.578437   0.182763   0.175028  -0.029631  -0.072180   0.001699
     8  F    0.182763   9.157285  -0.030305   0.000319   0.012950  -0.000136
     9  C    0.175028  -0.030305   4.704737   0.240956   0.229215  -0.066186
    10  F   -0.029631   0.000319   0.240956   9.108380  -0.021274  -0.000057
    11  C   -0.072180   0.012950   0.229215  -0.021274   4.523976   0.283639
    12  O    0.001699  -0.000136  -0.066186  -0.000057   0.283639   8.062532
    13  O    0.008961  -0.001693  -0.062599  -0.000328   0.527102  -0.092301
    14  F   -0.021549  -0.000617   0.236501  -0.038320  -0.025567   0.001788
    15  C    0.146497  -0.011205  -0.029651  -0.003330  -0.007532   0.000108
    16  F   -0.020723  -0.001821  -0.001710   0.000013   0.002550  -0.000001
    17  C   -0.043346   0.001626  -0.003401   0.014984  -0.000157   0.000005
    18  F   -0.007370   0.000003   0.010820  -0.006822   0.003490   0.000006
    19  C    0.002794  -0.000026   0.000078   0.000211  -0.000020   0.000000
    20  N   -0.000107   0.000000   0.000000   0.000000   0.000000   0.000000
    21  C    0.000002   0.000000   0.000000   0.000000   0.000000   0.000000
    22  C    0.000000   0.000000   0.000000   0.000000   0.000000   0.000000
    23  C    0.000000   0.000000   0.000000   0.000000   0.000000   0.000000
    24  C    0.000000   0.000000   0.000000   0.000000   0.000000   0.000000
    25  N    0.000000   0.000000   0.000000   0.000000   0.000000   0.000000
    26  C    0.000000   0.000000   0.000000   0.000000   0.000000   0.000000
    27  C    0.000000   0.000000   0.000000   0.000000   0.000000   0.000000
    28  C    0.000000   0.000000   0.000000   0.000000   0.000000   0.000000
    29  N    0.000000   0.000000   0.000000   0.000000   0.000000   0.000000
    30  C    0.000000   0.000000   0.000000   0.000000   0.000000   0.000000
    31  O    0.000083   0.000000  -0.000007   0.000000   0.000000   0.000000
    32  F    0.002040   0.000000  -0.001760  -0.000642   0.000006   0.000000
    33  O   -0.012167  -0.002740   0.002357   0.000014   0.000013   0.000000
    34  H   -0.000372   0.000002   0.007833  -0.000098  -0.014190   0.283709
    35  H   -0.000023   0.000000   0.000003   0.000003   0.000000   0.000000
    36  H    0.000000   0.000000   0.000000   0.000000   0.000000   0.000000
    37  H    0.000000   0.000000   0.000000   0.000000   0.000000   0.000000
    38  H    0.000000   0.000000   0.000000   0.000000   0.000000   0.000000
              13         14         15         16         17         18
     1  F    0.000000   0.000000   0.001801  -0.000020   0.000022   0.000000
     2  C    0.000005   0.000219  -0.027837   0.000567   0.001263   0.000067
     3  F    0.000000   0.000000   0.001499  -0.000003   0.000181   0.000000
     4  C    0.000106   0.006139  -0.054426   0.001176   0.000092  -0.000172
     5  F    0.000000  -0.000645   0.010129   0.000000   0.003835  -0.000024
     6  F    0.000000  -0.000089   0.002328  -0.000001   0.000007   0.000000
     7  C    0.008961  -0.021549   0.146497  -0.020723  -0.043346  -0.007370
     8  F   -0.001693  -0.000617  -0.011205  -0.001821   0.001626   0.000003
     9  C   -0.062599   0.236501  -0.029651  -0.001710  -0.003401   0.010820
    10  F   -0.000328  -0.038320  -0.003330   0.000013   0.014984  -0.006822
    11  C    0.527102  -0.025567  -0.007532   0.002550  -0.000157   0.003490
    12  O   -0.092301   0.001788   0.000108  -0.000001   0.000005   0.000006
    13  O    8.049263   0.000805   0.008948  -0.002042  -0.000748  -0.002593
    14  F    0.000805   9.116060   0.002394  -0.000001   0.000004   0.000000
    15  C    0.008948   0.002394   4.970778   0.249997   0.179230  -0.025750
    16  F   -0.002042  -0.000001   0.249997   9.096958  -0.027613   0.000171
    17  C   -0.000748   0.000004   0.179230  -0.027613   4.743434   0.239183
    18  F   -0.002593   0.000000  -0.025750   0.000171   0.239183   9.106744
    19  C   -0.000065   0.000000  -0.042457  -0.000080   0.276306  -0.020000
    20  N    0.000000   0.000000  -0.000121   0.000061  -0.079592  -0.000911
    21  C    0.000000   0.000000  -0.000085   0.000002   0.003709  -0.000038
    22  C    0.000000   0.000000   0.000006   0.000000   0.000401  -0.000002
    23  C    0.000000   0.000000   0.000000   0.000000   0.000006   0.000000
    24  C    0.000000   0.000000   0.000000   0.000000   0.000000   0.000000
    25  N    0.000000   0.000000   0.000000   0.000000   0.000000   0.000000
    26  C    0.000000   0.000000   0.000000   0.000000   0.000000   0.000000
    27  C    0.000000   0.000000   0.000000   0.000000  -0.000001   0.000000
    28  C    0.000000   0.000000   0.000000   0.000000   0.000000   0.000000
    29  N    0.000000   0.000000   0.000000   0.000000   0.000000   0.000000
    30  C    0.000000   0.000000   0.000000   0.000000  -0.000347   0.000000
    31  O   -0.000001   0.000000   0.009821  -0.001568  -0.060915  -0.000627
    32  F    0.000001   0.000000  -0.032145   0.000306   0.222085  -0.038615
    33  O    0.000013  -0.000005   0.132194  -0.041967  -0.042210   0.000664
    34  H    0.007855  -0.000110  -0.000024   0.000003   0.000001   0.000002
    35  H    0.000000   0.000000   0.001041  -0.000007  -0.002851   0.000477
    36  H    0.000000   0.000000  -0.000004   0.000002   0.000306  -0.000001
    37  H    0.000000   0.000000   0.000000   0.000000   0.000000   0.000000
    38  H    0.000000   0.000000   0.000000   0.000000   0.000001   0.000000
              19         20         21         22         23         24
     1  F    0.000000   0.000000   0.000000   0.000000   0.000000   0.000000
     2  C    0.000103   0.000007   0.000000   0.000000   0.000000   0.000000
     3  F   -0.000015   0.000000   0.000000   0.000000   0.000000   0.000000
     4  C   -0.000148   0.000009   0.000000   0.000000   0.000000   0.000000
     5  F   -0.000052   0.000005   0.000000   0.000000   0.000000   0.000000
     6  F    0.000000   0.000000   0.000000   0.000000   0.000000   0.000000
     7  C    0.002794  -0.000107   0.000002   0.000000   0.000000   0.000000
     8  F   -0.000026   0.000000   0.000000   0.000000   0.000000   0.000000
     9  C    0.000078   0.000000   0.000000   0.000000   0.000000   0.000000
    10  F    0.000211   0.000000   0.000000   0.000000   0.000000   0.000000
    11  C   -0.000020   0.000000   0.000000   0.000000   0.000000   0.000000
    12  O    0.000000   0.000000   0.000000   0.000000   0.000000   0.000000
    13  O   -0.000065   0.000000   0.000000   0.000000   0.000000   0.000000
[...]
    28  C    0.000000   0.000000   0.000000   0.000000   0.000000   0.000000
    29  N    0.000000   0.000000   0.000000   0.000000   0.000000   0.000000
    30  C    0.000000   0.000000   0.000000   0.000000   0.000000   0.000000
    31  O   -0.000044   0.000000  -0.000002   0.000000  -0.000002   0.000000
    32  F    0.002784   0.000001  -0.001995  -0.000330   0.000000   0.000000
    33  O   -0.010792  -0.002091   0.002363   0.000019  -0.000019   0.000000
    34  H   -0.000344   0.000005   0.008608  -0.000204  -0.014563   0.288846
    35  H   -0.000017   0.000000   0.000002   0.000002   0.000000   0.000000
    36  H    0.000000   0.000000   0.000000   0.000000   0.000000   0.000000
    37  H    0.000000   0.000000   0.000000   0.000000   0.000000   0.000000
    38  H    0.000000   0.000000   0.000000   0.000000   0.000000   0.000000
              13         14         15         16         17         18
     1  F    0.000000   0.000000   0.001821  -0.000017   0.000012   0.000000
     2  C   -0.000002   0.000227  -0.016674   0.000683   0.003205   0.000044
     3  F    0.000000   0.000000   0.001385  -0.000003   0.000159   0.000000
     4  C    0.000153   0.010327  -0.051613   0.000865  -0.000756  -0.000041
     5  F    0.000000  -0.000999   0.008003  -0.000001   0.000718   0.000000
     6  F    0.000000   0.000083   0.002084  -0.000001   0.000005   0.000000
     7  C    0.015135  -0.027711   0.178448  -0.030269  -0.048015  -0.005228
     8  F   -0.003291  -0.000469  -0.012155  -0.001415   0.001448   0.000004
     9  C   -0.076855   0.231312  -0.030073  -0.000371  -0.000897   0.005944
    10  F    0.000370  -0.034062  -0.003406   0.000006   0.013184  -0.001309
    11  C    0.548252  -0.024720  -0.004765   0.000267  -0.000497   0.005904
    12  O   -0.075037   0.002082   0.000035  -0.000001  -0.000004  -0.000005
    13  O    8.012049   0.000935   0.006084   0.000052  -0.000732  -0.001510
    14  F    0.000935   9.107328   0.002019  -0.000001   0.000013   0.000001
    15  C    0.006084   0.002019   4.868215   0.279670   0.224303  -0.029108
    16  F    0.000052  -0.000001   0.279670   9.072385  -0.038962   0.000100
    17  C   -0.000732   0.000013   0.224303  -0.038962   4.696130   0.262042
    18  F   -0.001510   0.000001  -0.029108   0.000100   0.262042   9.080753
    19  C   -0.000023   0.000000  -0.049279   0.006014   0.285364  -0.025534
    20  N    0.000000   0.000000  -0.003454   0.000191  -0.092130   0.001385
    21  C    0.000000   0.000000  -0.000077   0.000013   0.002981  -0.000022
    22  C    0.000000   0.000000  -0.000009  -0.000001   0.000429   0.000000
    23  C    0.000000   0.000000   0.000000   0.000000   0.000007   0.000000
    24  C    0.000000   0.000000   0.000000   0.000000   0.000000   0.000000
    25  N    0.000000   0.000000   0.000000   0.000000   0.000000   0.000000
    26  C    0.000000   0.000000   0.000000   0.000000   0.000000   0.000000
    27  C    0.000000   0.000000   0.000000   0.000000  -0.000001   0.000000
    28  C    0.000000   0.000000   0.000000   0.000000   0.000000   0.000000
    29  N    0.000000   0.000000   0.000000   0.000000   0.000000   0.000000
    30  C    0.000000   0.000000   0.000005   0.000000  -0.000335   0.000000
    31  O    0.000000   0.000000   0.003439  -0.001282  -0.055989  -0.002293
    32  F    0.000001   0.000000  -0.039520   0.000380   0.233485  -0.032673
    33  O    0.000018  -0.000007   0.131534  -0.041106  -0.047220   0.000833
    34  H    0.003752  -0.000196  -0.000009   0.000000  -0.000001  -0.000001
    35  H    0.000000   0.000000   0.000369   0.000000  -0.002091   0.000333
    36  H    0.000000   0.000000  -0.000005   0.000001   0.000416  -0.000001
    37  H    0.000000   0.000000   0.000000   0.000000   0.000000   0.000000
    38  H    0.000000   0.000000   0.000000   0.000000   0.000003   0.000000
              19         20         21         22         23         24
     1  F   -0.000002   0.000000   0.000000   0.000000   0.000000   0.000000
     2  C   -0.000130   0.000301   0.000009   0.000000   0.000000   0.000000
     3  F   -0.000021  -0.000032   0.000001   0.000000   0.000000   0.000000
     4  C   -0.000089  -0.000025   0.000000   0.000000   0.000000   0.000000
     5  F   -0.000013   0.000000   0.000000   0.000000   0.000000   0.000000
     6  F    0.000000   0.000000   0.000000   0.000000   0.000000   0.000000
     7  C    0.003266  -0.000046   0.000006   0.000000   0.000000   0.000000
     8  F   -0.000024   0.000000   0.000000   0.000000   0.000000   0.000000
     9  C   -0.000020  -0.000002   0.000000   0.000000   0.000000   0.000000
    10  F    0.000158   0.000000   0.000000   0.000000   0.000000   0.000000
    11  C    0.000018   0.000000   0.000000   0.000000   0.000000   0.000000
    12  O    0.000000   0.000000   0.000000   0.000000   0.000000   0.000000
    13  O   -0.000023   0.000000   0.000000   0.000000   0.000000   0.000000
    14  F    0.000000   0.000000   0.000000   0.000000   0.000000   0.000000
    15  C   -0.049279  -0.003454  -0.000077  -0.000009   0.000000   0.000000
    16  F    0.006014   0.000191   0.000013  -0.000001   0.000000   0.000000
    17  C    0.285364  -0.092130   0.002981   0.000429   0.000007   0.000000
    18  F   -0.025534   0.001385  -0.000022   0.000000   0.000000   0.000000
    19  C    4.563665   0.200521  -0.029728  -0.003671   0.000433  -0.000001
    20  N    0.200521   7.182139   0.216318  -0.053726   0.003461  -0.000177
    21  C   -0.029728   0.216318   4.605187   0.531373  -0.005600   0.003109
    22  C   -0.003671  -0.053726   0.531373   4.931772   0.493583  -0.031877
    23  C    0.000433   0.003461  -0.005600   0.493583   4.924343   0.200240
    24  C   -0.000001  -0.000177   0.003109  -0.031877   0.200240   4.710039
    25  N    0.000000   0.000000  -0.000134  -0.000423  -0.096306   0.924612
    26  C    0.000005   0.001070  -0.047600  -0.044763   0.516653  -0.036035
    27  C   -0.000127   0.004266  -0.004914  -0.039702  -0.010682   0.003661
    28  C    0.000000  -0.000193   0.003092   0.001754   0.003730  -0.000418
    29  N    0.000000   0.000000  -0.000117   0.000016  -0.000126  -0.000002
    30  C    0.006284  -0.051810   0.489773  -0.071754  -0.040391   0.001997
    31  O    0.567943  -0.090803  -0.004205  -0.009480   0.001180  -0.000034
    32  F   -0.039273  -0.001474   0.000608  -0.000011   0.000000   0.000000
    33  O   -0.003174   0.001941   0.000332   0.000000   0.000000   0.000000
    34  H    0.000000   0.000000   0.000000   0.000000   0.000000   0.000000
    35  H   -0.033067   0.341671  -0.020764   0.004126   0.000026   0.000002
    36  H    0.001652  -0.011179  -0.026143   0.360804  -0.034018  -0.005563
    37  H    0.000000   0.000005   0.000076   0.004235  -0.035887  -0.005011
    38  H    0.000279  -0.007303  -0.039828   0.004995  -0.000038   0.000003
              25         26         27         28         29         30
     1  F    0.000000   0.000000   0.000000   0.000000   0.000000   0.000000
     2  C    0.000000   0.000000   0.000000   0.000000   0.000000  -0.000004
     3  F    0.000000   0.000000   0.000000   0.000000   0.000000  -0.000001
     4  C    0.000000   0.000000   0.000000   0.000000   0.000000   0.000000
     5  F    0.000000   0.000000   0.000000   0.000000   0.000000   0.000000
     6  F    0.000000   0.000000   0.000000   0.000000   0.000000   0.000000
     7  C    0.000000   0.000000   0.000000   0.000000   0.000000   0.000000
     8  F    0.000000   0.000000   0.000000   0.000000   0.000000   0.000000
     9  C    0.000000   0.000000   0.000000   0.000000   0.000000   0.000000
    10  F    0.000000   0.000000   0.000000   0.000000   0.000000   0.000000
    11  C    0.000000   0.000000   0.000000   0.000000   0.000000   0.000000
    12  O    0.000000   0.000000   0.000000   0.000000   0.000000   0.000000
    13  O    0.000000   0.000000   0.000000   0.000000   0.000000   0.000000
    14  F    0.000000   0.000000   0.000000   0.000000   0.000000   0.000000
    15  C    0.000000   0.000000   0.000000   0.000000   0.000000   0.000005
    16  F    0.000000   0.000000   0.000000   0.000000   0.000000   0.000000
    17  C    0.000000   0.000000  -0.000001   0.000000   0.000000  -0.000335
    18  F    0.000000   0.000000   0.000000   0.000000   0.000000   0.000000
    19  C    0.000000   0.000005  -0.000127   0.000000   0.000000   0.006284
    20  N    0.000000   0.001070   0.004266  -0.000193   0.000000  -0.051810
    21  C   -0.000134  -0.047600  -0.004914   0.003092  -0.000117   0.489773
    22  C   -0.000423  -0.044763  -0.039702   0.001754   0.000016  -0.071754
    23  C   -0.096306   0.516653  -0.010682   0.003730  -0.000126  -0.040391
    24  C    0.924612  -0.036035   0.003661  -0.000418  -0.000002   0.001997
    25  N    6.626037   0.000286  -0.000123  -0.000002   0.000000   0.000017
    26  C    0.000286   4.858195   0.518737  -0.035803   0.000203  -0.050665
    27  C   -0.000123   0.518737   4.857591   0.200486  -0.095854   0.533433
    28  C   -0.000002  -0.035803   0.200486   4.718883   0.924989  -0.033780
    29  N    0.000000   0.000203  -0.095854   0.924989   6.624368  -0.000116
    30  C    0.000017  -0.050665   0.533433  -0.033780  -0.000116   4.962396
    31  O    0.000000   0.000003  -0.000006   0.000000   0.000000   0.000295
    32  F    0.000000   0.000000   0.000000   0.000000   0.000000  -0.000066
    33  O    0.000000   0.000000   0.000000   0.000000   0.000000  -0.000029
    34  H    0.000000   0.000000   0.000000   0.000000   0.000000   0.000000
    35  H    0.000000  -0.000040   0.000025   0.000006   0.000000  -0.006986
    36  H    0.000638   0.004589  -0.000155   0.000005   0.000000   0.005133
    37  H    0.000571   0.380378  -0.035516  -0.005205   0.000528   0.004650
    38  H    0.000000   0.004975  -0.029449  -0.005583   0.000712   0.369464
              31         32         33         34         35         36
     1  F    0.000000   0.000000  -0.048044   0.000000   0.000001   0.000000
     2  C   -0.000015   0.002559   0.190507   0.000000   0.000483   0.000000
     3  F    0.000000  -0.000054  -0.046360   0.000000   0.000234   0.000000
     4  C    0.000002   0.001217  -0.045552   0.000002  -0.000023   0.000000
     5  F    0.000000   0.000865  -0.001293   0.000000   0.000006   0.000000
     6  F    0.000000   0.000000   0.000962   0.000000   0.000000   0.000000
     7  C   -0.000044   0.002784  -0.010792  -0.000344  -0.000017   0.000000
     8  F    0.000000   0.000001  -0.002091   0.000005   0.000000   0.000000
     9  C   -0.000002  -0.001995   0.002363   0.008608   0.000002   0.000000
    10  F    0.000000  -0.000330   0.000019  -0.000204   0.000002   0.000000
    11  C   -0.000002   0.000000  -0.000019  -0.014563   0.000000   0.000000
    12  O    0.000000   0.000000   0.000000   0.288846   0.000000   0.000000
    13  O    0.000000   0.000001   0.000018   0.003752   0.000000   0.000000
    14  F    0.000000   0.000000  -0.000007  -0.000196   0.000000   0.000000
    15  C    0.003439  -0.039520   0.131534  -0.000009   0.000369  -0.000005
    16  F   -0.001282   0.000380  -0.041106   0.000000   0.000000   0.000001
    17  C   -0.055989   0.233485  -0.047220  -0.000001  -0.002091   0.000416
    18  F   -0.002293  -0.032673   0.000833  -0.000001   0.000333  -0.000001
    19  C    0.567943  -0.039273  -0.003174   0.000000  -0.033067   0.001652
    20  N   -0.090803  -0.001474   0.001941   0.000000   0.341671  -0.011179
    21  C   -0.004205   0.000608   0.000332   0.000000  -0.020764  -0.026143
    22  C   -0.009480  -0.000011   0.000000   0.000000   0.004126   0.360804
    23  C    0.001180   0.000000   0.000000   0.000000   0.000026  -0.034018
    24  C   -0.000034   0.000000   0.000000   0.000000   0.000002  -0.005563
    25  N    0.000000   0.000000   0.000000   0.000000   0.000000   0.000638
    26  C    0.000003   0.000000   0.000000   0.000000  -0.000040   0.004589
    27  C   -0.000006   0.000000   0.000000   0.000000   0.000025  -0.000155
    28  C    0.000000   0.000000   0.000000   0.000000   0.000006   0.000005
    29  N    0.000000   0.000000   0.000000   0.000000   0.000000   0.000000
    30  C    0.000295  -0.000066  -0.000029   0.000000  -0.006986   0.005133
    31  O    8.039578   0.000786  -0.000355   0.000000   0.002445   0.024263
    32  F    0.000786   9.140787   0.000670   0.000000   0.020215  -0.000002
    33  O   -0.000355   0.000670   8.435568   0.000000   0.001553   0.000001
    34  H    0.000000   0.000000   0.000000   0.354225   0.000000   0.000000
    35  H    0.002445   0.020215   0.001553   0.000000   0.385507  -0.000198
    36  H    0.024263  -0.000002   0.000001   0.000000  -0.000198   0.499030
    37  H    0.000000   0.000000   0.000000   0.000000   0.000000  -0.000087
    38  H    0.000002  -0.000031  -0.000001   0.000000   0.004403  -0.000098
              37         38
     1  F    0.000000   0.000000
     2  C    0.000000   0.000000
     3  F    0.000000  -0.000001
     4  C    0.000000   0.000000
     5  F    0.000000   0.000000
     6  F    0.000000   0.000000
     7  C    0.000000   0.000000
     8  F    0.000000   0.000000
     9  C    0.000000   0.000000
    10  F    0.000000   0.000000
    11  C    0.000000   0.000000
    12  O    0.000000   0.000000
    13  O    0.000000   0.000000
    14  F    0.000000   0.000000
    15  C    0.000000   0.000000
    16  F    0.000000   0.000000
    17  C    0.000000   0.000003
    18  F    0.000000   0.000000
    19  C    0.000000   0.000279
    20  N    0.000005  -0.007303
    21  C    0.000076  -0.039828
    22  C    0.004235   0.004995
    23  C   -0.035887  -0.000038
    24  C   -0.005011   0.000003
    25  N    0.000571   0.000000
    26  C    0.380378   0.004975
    27  C   -0.035516  -0.029449
    28  C   -0.005205  -0.005583
    29  N    0.000528   0.000712
    30  C    0.004650   0.369464
    31  O    0.000000   0.000002
    32  F    0.000000  -0.000031
    33  O    0.000000  -0.000001
    34  H    0.000000   0.000000
    35  H    0.000000   0.004403
    36  H   -0.000087  -0.000098
    37  H    0.533539  -0.000115
    38  H   -0.000115   0.551840
 Mulliken charges:
               1
     1  F   -0.240258
     2  C    0.757310
     3  F   -0.245532
     4  C    0.522272
     5  F   -0.259344
     6  F   -0.246948
     7  C    0.149024
     8  F   -0.293043
     9  C    0.563845
    10  F   -0.261289
    11  C    0.569673
    12  O   -0.471392
    13  O   -0.429352
    14  F   -0.266166
    15  C    0.532735
    16  F   -0.247198
    17  C    0.563729
    18  F   -0.259615
    19  C    0.548573
    20  N   -0.640917
    21  C    0.326255
    22  C   -0.077671
    23  C    0.079396
    24  C    0.235454
    25  N   -0.455173
    26  C   -0.070189
    27  C    0.098329
    28  C    0.228037
    29  N   -0.454601
    30  C   -0.117510
    31  O   -0.475425
    32  F   -0.288930
    33  O   -0.520258
    34  H    0.359880
    35  H    0.301775
    36  H    0.180915
    37  H    0.157839
    38  H    0.145771
 Sum of Mulliken charges =   0.00000
 Mulliken charges with hydrogens summed into heavy atoms:
               1
     1  F   -0.240258
     2  C    0.757310
     3  F   -0.245532
     4  C    0.522272
     5  F   -0.259344
     6  F   -0.246948
     7  C    0.149024
     8  F   -0.293043
     9  C    0.563845
    10  F   -0.261289
    11  C    0.569673
    12  O   -0.111512
    13  O   -0.429352
    14  F   -0.266166
    15  C    0.532735
    16  F   -0.247198
    17  C    0.563729
    18  F   -0.259615
    19  C    0.548573
    20  N   -0.339141
    21  C    0.326255
    22  C    0.103244
    23  C    0.079396
    24  C    0.235454
    25  N   -0.455173
    26  C    0.087649
    27  C    0.098329
    28  C    0.228037
    29  N   -0.454601
    30  C    0.028261
    31  O   -0.475425
    32  F   -0.288930
    33  O   -0.520258
 Electronic spatial extent (au):  <R**2>=          15722.2696
 Charge=              0.0000 electrons
 Dipole moment (field-independent basis, Debye):
    X=              4.5778    Y=             -2.7409    Z=              3.4245  Tot=              6.3400
 Quadrupole moment (field-independent basis, Debye-Ang):
   XX=           -191.2170   YY=           -174.5405   ZZ=           -212.6224
   XY=             -6.3487   XZ=             -7.6818   YZ=              3.8054
 Traceless Quadrupole moment (field-independent basis, Debye-Ang):
   XX=              1.5763   YY=             18.2528   ZZ=            -19.8291
   XY=             -6.3487   XZ=             -7.6818   YZ=              3.8054
 Octapole moment (field-independent basis, Debye-Ang**2):
  XXX=            355.4994  YYY=            -52.8413  ZZZ=            159.8096  XYY=              6.0927
  XXY=           -111.0285  XXZ=            -71.4687  XZZ=            100.3715  YZZ=            -29.7520
  YYZ=            -16.7153  XYZ=             14.9503
 Hexadecapole moment (field-independent basis, Debye-Ang**3):
 XXXX=         -14664.3629 YYYY=          -1477.0917 ZZZZ=          -5196.7388 XXXY=            175.3907
 XXXZ=          -1602.4872 YYYX=            416.1727 YYYZ=           -153.2226 ZZZX=          -2596.2020
 ZZZY=            -50.5534 XXYY=          -2343.6555 XXZZ=          -3719.5202 YYZZ=           -951.9239
 XXYZ=             63.4769 YYXZ=           -670.8777 ZZXY=            285.5336
 N-N= 3.851752668587D+03 E-N=-1.258977796325D+04  KE= 2.060271274483D+03
 No NMR shielding tensors so no spin-rotation constants.
 Leave Link  601 at Wed Feb  5 06:07:09 2025, MaxMem=  5368709120 cpu:         2.8
 (Enter /home/k0335/k033513/app/g09/l9999.exe)
 1\1\GINC-C18U04N1\FOpt\RCAM-B3LYP\6-31G(d,p)\C16H5F10N3O4\K033513\05-F
 eb-2025\0\\#p CAM-B3LYP/6-31G(d,p) opt SCRF=(PCM,Solvent=Generic,Read)
  NoSymm out=wfn\\Title APN1_neu\\0,1\F,1.9299896731,3.0664352146,1.819
 3229671\C,1.4405082543,1.8301457668,1.9610133831\F,0.418308398,1.87870
 55211,2.8153293743\C,2.543956331,0.8607993162,2.4264077507\F,1.9813143
 384,-0.1319470395,3.1398825604\F,3.4671795895,1.4762823856,3.164912292
 5\C,3.1088897224,0.3313715045,1.0949812644\F,3.9837263766,1.2893392373
 ,0.6599887703\C,3.9222548256,-0.9630449289,1.2434520545\F,3.1247667678
 ,-1.9925890925,1.6005017197\C,4.6932742584,-1.3503885028,-0.0297205039
 \O,5.6496085977,-2.2215249529,0.2632136642\O,4.4218468462,-0.927786989
 9,-1.119283991\F,4.8009958038,-0.7503834181,2.2485908127\C,1.865502759
 9,0.4134034957,0.1482937677\F,2.2418320636,0.8932417685,-1.0468700142\
 C,1.0216810812,-0.8533213381,-0.0907602632\F,1.7695161835,-1.803252223
 3,-0.671041402\C,-0.1961465483,-0.5737705194,-1.0055317376\N,-1.357532
 452,-0.4107655097,-0.3213977455\C,-2.6260005905,-0.1275914433,-0.85284
 89065\C,-2.8546266633,0.043067352,-2.218082315\C,-4.1480262717,0.32670
 37686,-2.6604413423\C,-4.3821791653,0.5019932241,-4.0677272566\N,-4.57
 6751596,0.6435010714,-5.1982751645\C,-5.2147497762,0.4431052386,-1.773
 5281364\C,-4.9677106492,0.2687788723,-0.413352114\C,-6.0454244208,0.38
 14846733,0.5295843205\N,-6.9105477999,0.471055356,1.2909890921\C,-3.68
 44930454,-0.0147407885,0.0473291551\O,-0.0376897817,-0.5218600264,-2.2
 045400299\F,0.6028334374,-1.3021760655,1.1268898396\O,0.9899362101,1.3
 390691251,0.7545241046\H,6.0927393655,-2.4726046675,-0.5649482292\H,-1
 .3012733831,-0.5130123572,0.682167918\H,-2.0389144698,-0.0448866703,-2
 .920221115\H,-6.2123251212,0.663047583,-2.1313831432\H,-3.5162691497,-
 0.1458849409,1.1107685987\\Version=ES64L-G09RevD.01\HF=-2075.5510351\R
 MSD=8.110e-09\RMSF=5.451e-06\Dipole=1.8010538,-1.0783342,1.3472867\Qua
 drupole=1.1719489,13.5705169,-14.7424657,-4.7201226,-5.7111991,2.82923
 21\PG=C01 [X(C16H5F10N3O4)]\\@

 Writing a WFN file to "cytopopt/APN1/APN1_neu.wfn"


 BLESSED ARE THOSE WHO NOUGHT EXPECT,
 FOR THEY SHALL NOT BE DISAPPOINTED..  WALCOT - ODE TO PITT
 Job cpu time:       0 days  6 hours 48 minutes 16.8 seconds.
 File lengths (MBytes):  RWF=    509 Int=      0 D2E=      0 Chk=     23 Scr=      1
 Normal termination of Gaussian 09 at Wed Feb  5 06:07:09 2025.
