 Entering Gaussian System, Link 0=g09
 Initial command:
 /home/k0335/k033513/app/g09/l1.exe "/home/k0335/k033513/app/g09/scratch/Gau-289577.inp" -scrdir="/home/k0335/k033513/app/g09/scratch/"
 Default is to use a total of  36 processors:
                               36 via shared-memory
                                1 via Linda
 Entering Link 1 = /home/k0335/k033513/app/g09/l1.exe PID=    289578.
  
 Copyright (c) 1988,1990,1992,1993,1995,1998,2003,2009,2013,
            Gaussian, Inc.  All Rights Reserved.
  
 This is part of the Gaussian(R) 09 program.  It is based on
 the Gaussian(R) 03 system (copyright 2003, Gaussian, Inc.),
 the Gaussian(R) 98 system (copyright 1998, Gaussian, Inc.),
 the Gaussian(R) 94 system (copyright 1995, Gaussian, Inc.),
 the Gaussian 92(TM) system (copyright 1992, Gaussian, Inc.),
 the Gaussian 90(TM) system (copyright 1990, Gaussian, Inc.),
 the Gaussian 88(TM) system (copyright 1988, Gaussian, Inc.),
 the Gaussian 86(TM) system (copyright 1986, Carnegie Mellon
 University), and the Gaussian 82(TM) system (copyright 1983,
 Carnegie Mellon University). Gaussian is a federally registered
 trademark of Gaussian, Inc.
  
 This software contains proprietary and confidential information,
 including trade secrets, belonging to Gaussian, Inc.
  
 This software is provided under written license and may be
 used, copied, transmitted, or stored only in accord with that
 written license.
  
 The following legend is applicable only to US Government
 contracts under FAR:
  
                    RESTRICTED RIGHTS LEGEND
  
 Use, reproduction and disclosure by the US Government is
 subject to restrictions as set forth in subparagraphs (a)
 and (c) of the Commercial Computer Software - Restricted
 Rights clause in FAR 52.227-19.
  
 Gaussian, Inc.
 340 Quinnipiac St., Bldg. 40, Wallingford CT 06492
  
  
 ---------------------------------------------------------------
 Warning -- This program may not be used in any manner that
 competes with the business of Gaussian, Inc. or will provide
 assistance to any competitor of Gaussian, Inc.  The licensee
 of this program is prohibited from giving any competitor of
 Gaussian, Inc. access to this program.  By using this program,
 the user acknowledges that Gaussian, Inc. is engaged in the
 business of creating and licensing software in the field of
 computational chemistry and represents and warrants to the
 licensee that it is not a competitor of Gaussian, Inc. and that
 it will not use this program in any manner prohibited above.
 ---------------------------------------------------------------
  

 Cite this work as:
 Gaussian 09, Revision D.01,
 M. J. Frisch, G. W. Trucks, H. B. Schlegel, G. E. Scuseria, 
 M. A. Robb, J. R. Cheeseman, G. Scalmani, V. Barone, B. Mennucci, 
 G. A. Petersson, H. Nakatsuji, M. Caricato, X. Li, H. P. Hratchian, 
 A. F. Izmaylov, J. Bloino, G. Zheng, J. L. Sonnenberg, M. Hada, 
 M. Ehara, K. Toyota, R. Fukuda, J. Hasegawa, M. Ishida, T. Nakajima, 
 Y. Honda, O. Kitao, H. Nakai, T. Vreven, J. A. Montgomery, Jr., 
 J. E. Peralta, F. Ogliaro, M. Bearpark, J. J. Heyd, E. Brothers, 
 K. N. Kudin, V. N. Staroverov, T. Keith, R. Kobayashi, J. Normand, 
 K. Raghavachari, A. Rendell, J. C. Burant, S. S. Iyengar, J. Tomasi, 
 M. Cossi, N. Rega, J. M. Millam, M. Klene, J. E. Knox, J. B. Cross, 
 V. Bakken, C. Adamo, J. Jaramillo, R. Gomperts, R. E. Stratmann, 
 O. Yazyev, A. J. Austin, R. Cammi, C. Pomelli, J. W. Ochterski, 
 R. L. Martin, K. Morokuma, V. G. Zakrzewski, G. A. Voth, 
 P. Salvador, J. J. Dannenberg, S. Dapprich, A. D. Daniels, 
 O. Farkas, J. B. Foresman, J. V. Ortiz, J. Cioslowski, 
 and D. J. Fox, Gaussian, Inc., Wallingford CT, 2013.
 
 ******************************************
 Gaussian 09:  ES64L-G09RevD.01 24-Apr-2013
                 3-Mar-2024 
 ******************************************
 %nprocshared=24
 Will use up to   24 processors via shared memory.
 %mem=40GB
 %rwf=A903371601/A903371601_p1.rwf
 %nosave
 %chk=A903371601/A903371601_p1.chk
 ----------------------------------------------------------------------
 #p CAM-B3LYP/6-31G(d,p) SCRF=(PCM,Solvent=Generic,Read) NoSymm out=wfn
 ----------------------------------------------------------------------
 1/38=1,40=2/1;
 2/12=2,15=1,17=6,18=5,40=1/2;
 3/5=1,6=6,7=101,11=2,16=1,25=1,30=1,70=2203,72=-2,74=-40/1,2,3;
 4//1;
 5/5=2,38=5/2;
 6/7=2,8=2,9=2,10=2,28=1/1;
 99/5=1,6=100,9=1/99;
 Leave Link    1 at Sun Mar  3 17:57:59 2024, MaxMem=  5368709120 cpu:         0.9
 (Enter /home/k0335/k033513/app/g09/l101.exe)
 -------------------
 Title A903371601_p1
 -------------------
 Symbolic Z-matrix:
 Charge =  1 Multiplicity = 2
 C                     4.12821   0.63077  -1.56858 
 C                     3.36013   1.74383  -0.87182 
 C                     2.781     1.32402   0.48404 
 N                     1.7318    0.30848   0.36839 
 C                     2.05704  -1.00698   0.63187 
 O                     3.1929   -1.35145   0.96129 
 N                     1.02351  -1.91354   0.52889 
 C                     1.2965   -3.29724   0.88072 
 C                    -0.28149  -1.54623   0.29272 
 O                    -1.21292  -2.33017   0.47037 
 N                    -0.49088  -0.25676  -0.11615 
 C                    -1.84862   0.16455  -0.42051 
 F                    -2.53913  -0.86594  -0.9807 
 F                    -1.77638   1.06877  -1.45261 
 C                    -2.66907   0.82069   0.72903 
 F                    -1.8118    1.58803   1.49088 
 O                    -3.62792   1.79536   0.2821 
 C                    -4.76974   1.25624  -0.33029 
 F                    -5.48151   2.26008  -0.87352 
 F                    -5.52924   0.6373    0.58567 
 F                    -4.43092   0.39549  -1.29711 
 C                    -3.21371  -0.25518   1.66726 
 F                    -3.95466  -1.18503   1.03462 
 F                    -2.21795  -0.88629   2.33026 
 F                    -4.00385   0.3014    2.62102 
 C                     0.46225   0.72291   0.01648 
 O                     0.20093   1.91404  -0.15021 
 H                     3.46967  -0.20025  -1.83847 
 H                     4.58231   1.00786  -2.49053 
 H                     4.92953   0.24627  -0.92983 
 H                     4.04057   2.58858  -0.71187 
 H                     2.56331   2.09801  -1.53558 
 H                     2.353     2.20845   0.97181 
 H                     3.58642   0.97007   1.13744 
 H                     1.21688  -3.39777   1.96787 
 H                     2.30552  -3.5856    0.57097 
 H                     0.5783   -3.97275   0.40655 
 
 NAtoms=     37 NQM=       37 NQMF=       0 NMMI=      0 NMMIF=      0
                NMic=       0 NMicF=      0.
                    Isotopes and Nuclear Properties:
 (Nuclear quadrupole moments (NQMom) in fm**2, nuclear magnetic moments (NMagM)
  in nuclear magnetons)

  Atom         1           2           3           4           5           6           7           8           9          10
 IAtWgt=          12          12          12          14          12          16          14          12          12          16
 AtmWgt=  12.0000000  12.0000000  12.0000000  14.0030740  12.0000000  15.9949146  14.0030740  12.0000000  12.0000000  15.9949146
 NucSpn=           0           0           0           2           0           0           2           0           0           0
 AtZEff=   0.0000000   0.0000000   0.0000000   0.0000000   0.0000000   0.0000000   0.0000000   0.0000000   0.0000000   0.0000000
 NQMom=    0.0000000   0.0000000   0.0000000   2.0440000   0.0000000   0.0000000   2.0440000   0.0000000   0.0000000   0.0000000
 NMagM=    0.0000000   0.0000000   0.0000000   0.4037610   0.0000000   0.0000000   0.4037610   0.0000000   0.0000000   0.0000000
 AtZNuc=   6.0000000   6.0000000   6.0000000   7.0000000   6.0000000   8.0000000   7.0000000   6.0000000   6.0000000   8.0000000

  Atom        11          12          13          14          15          16          17          18          19          20
 IAtWgt=          14          12          19          19          12          19          16          12          19          19
 AtmWgt=  14.0030740  12.0000000  18.9984033  18.9984033  12.0000000  18.9984033  15.9949146  12.0000000  18.9984033  18.9984033
 NucSpn=           2           0           1           1           0           1           0           0           1           1
 AtZEff=   0.0000000   0.0000000   0.0000000   0.0000000   0.0000000   0.0000000   0.0000000   0.0000000   0.0000000   0.0000000
 NQMom=    2.0440000   0.0000000   0.0000000   0.0000000   0.0000000   0.0000000   0.0000000   0.0000000   0.0000000   0.0000000
 NMagM=    0.4037610   0.0000000   2.6288670   2.6288670   0.0000000   2.6288670   0.0000000   0.0000000   2.6288670   2.6288670
 AtZNuc=   7.0000000   6.0000000   9.0000000   9.0000000   6.0000000   9.0000000   8.0000000   6.0000000   9.0000000   9.0000000

  Atom        21          22          23          24          25          26          27          28          29          30
 IAtWgt=          19          12          19          19          19          12          16           1           1           1
 AtmWgt=  18.9984033  12.0000000  18.9984033  18.9984033  18.9984033  12.0000000  15.9949146   1.0078250   1.0078250   1.0078250
 NucSpn=           1           0           1           1           1           0           0           1           1           1
 AtZEff=   0.0000000   0.0000000   0.0000000   0.0000000   0.0000000   0.0000000   0.0000000   0.0000000   0.0000000   0.0000000
 NQMom=    0.0000000   0.0000000   0.0000000   0.0000000   0.0000000   0.0000000   0.0000000   0.0000000   0.0000000   0.0000000
 NMagM=    2.6288670   0.0000000   2.6288670   2.6288670   2.6288670   0.0000000   0.0000000   2.7928460   2.7928460   2.7928460
 AtZNuc=   9.0000000   6.0000000   9.0000000   9.0000000   9.0000000   6.0000000   8.0000000   1.0000000   1.0000000   1.0000000

  Atom        31          32          33          34          35          36          37
 IAtWgt=           1           1           1           1           1           1           1
 AtmWgt=   1.0078250   1.0078250   1.0078250   1.0078250   1.0078250   1.0078250   1.0078250
 NucSpn=           1           1           1           1           1           1           1
 AtZEff=   0.0000000   0.0000000   0.0000000   0.0000000   0.0000000   0.0000000   0.0000000
 NQMom=    0.0000000   0.0000000   0.0000000   0.0000000   0.0000000   0.0000000   0.0000000
 NMagM=    2.7928460   2.7928460   2.7928460   2.7928460   2.7928460   2.7928460   2.7928460
 AtZNuc=   1.0000000   1.0000000   1.0000000   1.0000000   1.0000000   1.0000000   1.0000000
 Leave Link  101 at Sun Mar  3 17:57:59 2024, MaxMem=  5368709120 cpu:         0.8
 (Enter /home/k0335/k033513/app/g09/l202.exe)
                          Input orientation:                          
 ---------------------------------------------------------------------
 Center     Atomic      Atomic             Coordinates (Angstroms)
 Number     Number       Type             X           Y           Z
 ---------------------------------------------------------------------
      1          6           0        4.128208    0.630768   -1.568576
      2          6           0        3.360130    1.743831   -0.871822
      3          6           0        2.780995    1.324020    0.484044
      4          7           0        1.731796    0.308481    0.368391
      5          6           0        2.057038   -1.006980    0.631866
      6          8           0        3.192895   -1.351452    0.961288
      7          7           0        1.023509   -1.913543    0.528889
      8          6           0        1.296500   -3.297240    0.880724
      9          6           0       -0.281486   -1.546231    0.292721
     10          8           0       -1.212917   -2.330171    0.470371
     11          7           0       -0.490878   -0.256760   -0.116149
     12          6           0       -1.848621    0.164547   -0.420508
     13          9           0       -2.539125   -0.865942   -0.980699
     14          9           0       -1.776377    1.068770   -1.452614
     15          6           0       -2.669066    0.820694    0.729031
     16          9           0       -1.811797    1.588031    1.490877
     17          8           0       -3.627923    1.795362    0.282097
     18          6           0       -4.769739    1.256237   -0.330286
     19          9           0       -5.481508    2.260081   -0.873517
     20          9           0       -5.529237    0.637298    0.585666
     21          9           0       -4.430915    0.395488   -1.297106
     22          6           0       -3.213708   -0.255183    1.667259
     23          9           0       -3.954661   -1.185027    1.034623
     24          9           0       -2.217950   -0.886293    2.330262
     25          9           0       -4.003850    0.301401    2.621019
     26          6           0        0.462254    0.722905    0.016481
     27          8           0        0.200930    1.914035   -0.150205
     28          1           0        3.469667   -0.200245   -1.838473
     29          1           0        4.582314    1.007862   -2.490531
     30          1           0        4.929528    0.246265   -0.929828
     31          1           0        4.040574    2.588583   -0.711870
     32          1           0        2.563305    2.098008   -1.535583
     33          1           0        2.352997    2.208446    0.971807
     34          1           0        3.586423    0.970070    1.137437
     35          1           0        1.216879   -3.397770    1.967867
     36          1           0        2.305521   -3.585598    0.570966
     37          1           0        0.578296   -3.972752    0.406554
 ---------------------------------------------------------------------
                    Distance matrix (angstroms):
                    1          2          3          4          5
     1  C    0.000000
     2  C    1.521289   0.000000
     3  C    2.551241   1.532975   0.000000
     4  N    3.098145   2.499966   1.464757   0.000000
     5  C    3.437137   3.395009   2.445307   1.380449   0.000000
     6  O    3.347270   3.601255   2.748740   2.289479   1.231808
     7  N    4.529021   4.560501   3.684099   2.337696   1.378638
     8  C    5.426499   5.722096   4.870023   3.667859   2.426034
     9  C    5.258246   5.044010   4.201635   2.738428   2.423738
    10  O    6.438329   6.269907   5.413375   3.955277   3.531221
    11  N    4.922723   4.404960   3.682968   2.344047   2.759390
    12  C    6.103926   5.461585   4.857565   3.669123   4.211192
    13  F    6.858503   6.451665   5.936757   4.630343   4.872881
    14  F    5.921944   5.213131   4.958370   4.025093   4.832066
    15  C    7.177604   6.306038   5.478733   4.445223   5.068125
    16  F    6.749834   5.688185   4.709262   3.931192   4.737074
    17  O    8.058464   7.082872   6.429399   5.562809   6.347774
    18  C    9.005445   8.162462   7.594821   6.607295   7.256223
    19  F    9.771612   8.856697   8.425446   7.575146   8.352816
    20  F    9.894799   9.075766   8.339177   7.271721   7.762561
    21  F    8.566659   7.918288   7.486409   6.384392   6.912408
    22  C    8.072129   7.325185   6.311129   5.144199   5.423836
    23  F    8.683693   8.106720   7.208850   5.916944   6.027805
    24  F    7.601061   6.948804   5.769182   4.569126   4.601591
    25  F    9.153773   8.277001   7.186552   6.162144   6.511755
    26  C    3.995011   3.198290   2.440597   1.381059   2.431982
    27  O    4.368302   3.245034   2.721603   2.278222   3.548112
    28  H    1.094122   2.173901   2.862121   2.854689   2.957857
    29  H    1.094721   2.157685   3.491819   4.097319   4.492880
    30  H    1.094511   2.170041   2.788689   3.451772   3.501530
    31  H    2.138847   1.096446   2.148457   3.419983   4.320661
    32  H    2.145414   1.095879   2.173785   2.742067   3.820352
    33  H    3.477641   2.151546   1.096952   2.088030   3.246862
    34  H    2.780497   2.164956   1.095864   2.113947   2.550166
    35  H    6.100113   6.252473   5.190712   4.069368   2.864724
    36  H    5.067304   5.621090   4.933354   3.941326   2.591278
    37  H    6.139659   6.484764   5.737045   4.434070   3.321633
                    6          7          8          9         10
     6  O    0.000000
     7  N    2.282356   0.000000
     8  C    2.718252   1.453592   0.000000
     9  C    3.543479   1.376120   2.429366   0.000000
    10  O    4.539831   2.275655   2.720439   1.230319   0.000000
    11  N    3.991166   2.335460   3.665105   1.368852   2.272527
    12  C    5.442839   3.670006   4.854787   2.427214   2.724225
    13  F    6.071498   4.008576   4.907965   2.679800   2.451203
    14  F    6.031423   4.545317   5.826584   3.481253   3.945651
    15  C    6.255777   4.599045   5.718925   3.390168   3.480693
    16  F    5.828204   4.607103   5.822342   3.687957   4.092969
    17  O    7.542367   5.954217   7.109352   4.729165   4.784112
    18  C    8.477721   6.659385   7.681143   5.327887   5.114133
    19  F    9.573659   7.855006   8.938824   6.548920   6.410719
    20  F    8.953871   7.031962   7.884056   5.691441   5.239254
    21  F    8.140923   6.198114   7.154192   4.849287   4.572604
    22  C    6.537948   4.690421   5.496792   3.486271   3.121102
    23  F    7.149869   5.056548   5.662139   3.764718   3.024383
    24  F    5.600688   3.848018   4.501687   2.887384   2.560092
    25  F    7.568340   5.878548   6.638716   4.763477   4.397700
    26  C    3.556967   2.743798   4.195766   2.403838   3.511906
    27  O    4.566254   3.973432   5.424064   3.521697   4.516344
    28  H    3.039826   3.810969   4.659191   4.519382   5.638611
    29  H    4.405894   5.506051   6.379329   6.158444   7.313967
    30  H    3.024056   4.695701   5.388267   5.644673   6.806483
    31  H    4.363702   5.559793   6.686495   6.065154   7.293216
    32  H    4.304593   4.767133   6.045828   4.971520   6.155686
    33  H    3.657651   4.353678   5.606876   4.636729   5.793637
    34  H    2.361219   3.905648   4.849699   4.691059   5.862613
    35  H    3.017492   2.076290   1.094681   2.911942   3.047322
    36  H    2.435404   2.107390   1.094177   3.305910   3.737061
    37  H    3.743671   2.110337   1.094062   2.576856   2.431170
                   11         12         13         14         15
    11  N    0.000000
    12  C    1.453823   0.000000
    13  F    2.305182   1.361072   0.000000
    14  F    2.279403   1.374075   2.132510   0.000000
    15  C    2.572885   1.557273   2.405162   2.370234   0.000000
    16  F    2.780398   2.383496   3.558044   2.989151   1.379901
    17  O    3.769729   2.513787   3.140489   2.639201   1.438449
    18  C    4.543530   3.119753   3.146795   3.202340   2.392630
    19  F    5.640433   4.218335   4.294313   3.934790   3.542573
    20  F    5.164973   3.844842   3.695132   4.292402   2.869628
    21  F    4.164610   2.736786   2.295689   2.743003   2.718482
    22  C    3.254896   2.529507   2.799959   3.681356   1.527880
    23  F    3.766132   2.893814   2.483361   4.001359   2.401886
    24  F    3.060068   2.967727   3.326564   4.281052   2.383537
    25  F    4.488274   3.730232   4.059616   4.705845   2.372959
    26  C    1.373242   2.417202   3.539361   2.699876   3.212858
    27  O    2.278620   2.708216   3.990726   2.514057   3.194578
    28  H    4.319203   5.516148   6.106104   5.411124   6.731897
    29  H    5.742320   6.808311   7.517023   6.443131   7.936191
    30  H    5.504172   6.797749   7.551183   6.776355   7.798744
    31  H    5.383764   6.375222   7.436293   6.057677   7.086670
    32  H    4.109472   4.944366   5.926862   4.460836   5.842749
    33  H    3.917718   4.875414   6.098934   4.922236   5.215929
    34  H    4.438578   5.711021   6.736451   5.956318   6.270586
    35  H    4.138297   5.271786   5.404791   6.372539   5.867770
    36  H    4.401493   5.683617   5.768430   6.513057   6.647323
    37  H    3.901916   4.867361   4.614656   5.866680   5.798834
                   16         17         18         19         20
    16  F    0.000000
    17  O    2.191449   0.000000
    18  C    3.489433   1.403358   0.000000
    19  F    4.416875   2.233201   1.345146   0.000000
    20  F    3.942418   2.246834   1.341227   2.182869   0.000000
    21  F    4.006843   2.257947   1.338070   2.181715   2.193083
    22  C    2.322478   2.508980   2.948866   4.233794   2.707035
    23  F    3.534103   3.091241   2.913263   4.223864   2.449841
    24  F    2.644202   3.657086   4.263869   5.551097   4.040986
    25  F    2.781678   2.800678   3.195074   4.269857   2.565598
    26  C    2.844924   4.236775   5.270526   6.203492   6.019075
    27  O    2.617346   3.855008   5.017238   5.738731   5.916619
    28  H    6.494333   7.671704   8.501987   9.333160   9.357254
    29  H    7.554658   8.701472   9.601523  10.269533  10.575621
    30  H    7.287360   8.780571   9.770122  10.604164  10.575225
    31  H    6.332728   7.773224   8.918653   9.529118   9.852532
    32  H    5.344254   6.459633   7.478961   8.073637   8.492503
    33  H    4.242624   6.034711   7.303117   8.049059   8.046566
    34  H    5.444959   7.311600   8.488907   9.377390   9.138405
    35  H    5.853085   7.299489   7.923439   9.217002   7.981374
    36  H    6.675701   8.015231   8.620611   9.843593   8.900365
    37  H    6.149033   7.139951   7.515766   8.786809   7.654188
                   21         22         23         24         25
    21  F    0.000000
    22  C    3.269927   0.000000
    23  F    2.856887   1.346792   0.000000
    24  F    4.438240   1.352556   2.187256   0.000000
    25  F    3.942454   1.357854   2.174521   2.164393   0.000000
    26  C    5.076989   4.146616   4.917922   3.889292   5.187231
    27  O    5.007530   4.434911   5.317607   4.454833   5.287764
    28  H    7.941484   7.547230   8.021541   7.085055   8.717349
    29  H    9.112495   8.925271   9.492914   8.548185  10.017447
    30  H    9.368834   8.562044   9.210672   7.937085   9.613366
    31  H    8.770307   8.146893   9.011890   7.778075   9.002894
    32  H    7.202400   7.012103   7.737452   6.834560   7.977008
    33  H    7.379447   6.127098   7.162831   5.684749   6.838584
    34  H    8.398503   6.929916   7.843657   6.209643   7.762756
    35  H    7.546286   5.440250   5.701930   4.270468   6.431678
    36  H    8.044769   6.538762   6.720684   5.553662   7.688930
    37  H    6.861208   5.457929   5.358505   4.587578   6.645924
                   26         27         28         29         30
    26  C    0.000000
    27  O    1.230799   0.000000
    28  H    3.652067   4.243238   0.000000
    29  H    4.831274   5.049238   1.767112   0.000000
    30  H    4.591212   5.074338   1.776570   1.770983   0.000000
    31  H    4.100686   3.938699   3.061492   2.440450   2.514796
    32  H    2.951987   2.744801   2.489016   2.485305   3.065111
    33  H    2.587352   2.444787   3.866060   4.289410   3.755647
    34  H    3.328373   3.743081   3.199892   3.762363   2.569321
    35  H    4.621399   5.808068   5.457787   7.114286   5.954779
    36  H    4.718928   5.932567   4.315234   5.971300   4.880673
    37  H    4.713260   5.925086   5.256613   7.016536   6.206387
                   31         32         33         34         35
    31  H    0.000000
    32  H    1.761105   0.000000
    33  H    2.413957   2.518617   0.000000
    34  H    2.499155   3.076370   1.755662   0.000000
    35  H    7.140775   6.655118   5.806252   5.038093   0.000000
    36  H    6.540381   6.066908   5.808087   4.766100   1.780942
    37  H    7.502623   6.675798   6.455717   5.832196   1.782159
                   36         37
    36  H    0.000000
    37  H    1.777702   0.000000
 Symmetry turned off by external request.
 Stoichiometry    C11H10F9N3O4(1+,2)
 Framework group  C1[X(C11H10F9N3O4)]
 Deg. of freedom   105
 Full point group                 C1      NOp   1
 Rotational constants (GHZ):      0.3883962      0.1334097      0.1173505
 Leave Link  202 at Sun Mar  3 17:57:59 2024, MaxMem=  5368709120 cpu:         0.1
 (Enter /home/k0335/k033513/app/g09/l301.exe)
 Standard basis: 6-31G(d,p) (6D, 7F)
 Ernie: Thresh=  0.10000D-02 Tol=  0.10000D-05 Strict=F.
   455 basis functions,   826 primitive gaussians,   455 cartesian basis functions
   105 alpha electrons      104 beta electrons
       nuclear repulsion energy      3186.7348658727 Hartrees.
 IExCor=20419 DFT=T Ex+Corr=CAM-B3LYP ExCW=0 ScaHFX=  1.000000
 ScaDFX=  1.000000  1.000000  1.000000  0.810000 ScalE2=  1.000000  1.000000
 IRadAn=      0 IRanWt=     -1 IRanGd=            0 ICorTp=0 IEmpDi=  4
  HFx wShort=  0.000000 wLong=  0.330000 cFull=  0.190000 cShort=  0.000000 cLong=  0.460000
  DFx wShort=  0.000000 wLong=  0.330000 cFull=  0.190000 cShort=  0.000000 cLong=  0.460000
 NAtoms=   37 NActive=   37 NUniq=   37 SFac= 1.00D+00 NAtFMM=   60 NAOKFM=F Big=F
 Integral buffers will be    131072 words long.
 Raffenetti 2 integral format.
 Two-electron integral symmetry is turned off.
 Using the following non-standard input for PCM:
 eps=4.9
 --- end of non-standard input.
 ------------------------------------------------------------------------------
 Polarizable Continuum Model (PCM)
 =================================
 Model                : PCM (using non-symmetric T matrix).
 Atomic radii         : UFF (Universal Force Field).
 Polarization charges : Total charges.
 Charge compensation  : None.
 Solution method      : On-the-fly selection.
 Cavity type          : Scaled VdW (van der Waals Surface) (Alpha=1.100).
 Cavity algorithm     : GePol (No added spheres)
                        Default sphere list used, NSphG=   37.
                        Lebedev-Laikov grids with approx.  5.0 points / Ang**2.
                        Smoothing algorithm: Karplus/York (Gamma=1.0000).
                        Polarization charges: spherical gaussians, with
                                              point-specific exponents (IZeta= 3).
                        Self-potential: point-specific (ISelfS= 7).
                        Self-field    : sphere-specific E.n sum rule (ISelfD= 2).
 Solvent              : Generic,
                        Eps                           =   4.900000
                        Eps(infinity)                 =   0.000000
                        RSolv                         =   0.000000 Ang.
                        Molar volume                  =   0.000000 cm**3/mol
                        Thermal expansion coefficient =   0.000000 K**-1
                        Absolute temperature          = 298.150000 K
                        Numeral density               =   0.000000 Ang**-3
                        Hydrogen bond acidity         =   0.000000
                        Hydrogen bond basicity        =   0.000000
                        Surface tension at interface  =   0.000000 (cal/mol)*Ang**-2
                        Carbon aromaticity            =   0.000000
                        Electronegative halogenicity  =   0.000000
 ------------------------------------------------------------------------------
 GePol: Number of generator spheres                  =      37
 GePol: Total number of spheres                      =      37
 GePol: Number of exposed spheres                    =      37 (100.00%)
 GePol: Number of points                             =    2849
 GePol: Average weight of points                     =       0.13
 GePol: Minimum weight of points                     =   0.70D-11
 GePol: Maximum weight of points                     =    0.20577
 GePol: Number of points with low weight             =     150
 GePol: Fraction of low-weight points (<1% of avg)   =       5.27%
 GePol: Cavity surface area                          =    358.525 Ang**2
 GePol: Cavity volume                                =    408.815 Ang**3
 Leave Link  301 at Sun Mar  3 17:57:59 2024, MaxMem=  5368709120 cpu:         0.8
 (Enter /home/k0335/k033513/app/g09/l302.exe)
 NPDir=0 NMtPBC=     1 NCelOv=     1 NCel=       1 NClECP=     1 NCelD=      1
         NCelK=      1 NCelE2=     1 NClLst=     1 CellRange=     0.0.
 One-electron integrals computed using PRISM.
 NBasis=   455 RedAO= T EigKep=  1.08D-03  NBF=   455
 NBsUse=   455 1.00D-06 EigRej= -1.00D+00 NBFU=   455
 Precomputing XC quadrature grid using
 IXCGrd= 4 IRadAn=           0 IRanWt=          -1 IRanGd=           0 AccXCQ= 0.00D+00.
 Generated NRdTot=       0 NPtTot=           0 NUsed=           0 NTot=          32
 NSgBfM=   449   449   449   450   450 MxSgAt=    37 MxSgA2=    37.
 Leave Link  302 at Sun Mar  3 17:57:59 2024, MaxMem=  5368709120 cpu:         7.2
 (Enter /home/k0335/k033513/app/g09/l303.exe)
 DipDrv:  MaxL=1.
 Leave Link  303 at Sun Mar  3 17:57:59 2024, MaxMem=  5368709120 cpu:         0.6
 (Enter /home/k0335/k033513/app/g09/l401.exe)
 ExpMin= 1.61D-01 ExpMax= 7.00D+03 ExpMxC= 1.05D+03 IAcc=1 IRadAn=         1 AccDes= 0.00D+00
 Harris functional with IExCor=20419 and IRadAn=       1 diagonalized for initial guess.
 HarFok:  IExCor=20419 AccDes= 0.00D+00 IRadAn=         1 IDoV= 1 UseB2=F ITyADJ=14
 ICtDFT=  3500011 ScaDFX=  1.000000  1.000000  1.000000  1.000000
 FoFCou: FMM=F IPFlag=           0 FMFlag=      100000 FMFlg1=           0
         NFxFlg=           0 DoJE=T BraDBF=F KetDBF=T FulRan=T
         wScrn=  0.000000 ICntrl=     500 IOpCl=  0 I1Cent=   200000004 NGrid=           0
         NMat0=    1 NMatS0=      1 NMatT0=    0 NMatD0=    1 NMtDS0=    0 NMtDT0=    0
 Symmetry not used in FoFCou.
 Harris En= -1732.02369869876    
 JPrj=0 DoOrth=F DoCkMO=F.
 Initial guess <Sx>= 0.0000 <Sy>= 0.0000 <Sz>= 0.5000 <S**2>= 0.7500 S= 0.5000
 Leave Link  401 at Sun Mar  3 17:58:00 2024, MaxMem=  5368709120 cpu:         9.5
 (Enter /home/k0335/k033513/app/g09/l502.exe)
 UHF open shell SCF:
 Using DIIS extrapolation, IDIIS=  1040.
 Two-electron integral symmetry not used.
 IVT=      653349 IEndB=      653349 NGot=  5368709120 MDV=  5368279892
 LenX=  5368279892 LenY=  5368072412
 Requested convergence on RMS density matrix=1.00D-08 within 128 cycles.
 Requested convergence on MAX density matrix=1.00D-06.
 Requested convergence on             energy=1.00D-06.
 No special actions if energy rises.
 Fock matrices will be formed incrementally for  20 cycles.

 Cycle   1  Pass 1  IDiag  1:
 FoFJK:  IHMeth= 1 ICntrl=       0 DoSepK=T KAlg= 0 I1Cent=   0 FoldK=F
 IRaf=         1 NMat=   1 IRICut=       1 DoRegI=T DoRafI=F ISym2E= 0.
 FoFCou: FMM=F IPFlag=           0 FMFlag=      100000 FMFlg1=           0
         NFxFlg=           0 DoJE=T BraDBF=F KetDBF=F FulRan=T
         wScrn=  0.000000 ICntrl=     500 IOpCl=  0 I1Cent=           0 NGrid=           0
         NMat0=    1 NMatS0=      1 NMatT0=    0 NMatD0=    1 NMtDS0=    0 NMtDT0=    0
 Symmetry not used in FoFCou.
 Inv3:  Mode=1 IEnd=    24350403.
 Iteration    1 A*A^-1 deviation from unit magnitude is 7.77D-15 for     72.
 Iteration    1 A*A^-1 deviation from orthogonality  is 5.07D-15 for   2668    562.
 Iteration    1 A^-1*A deviation from unit magnitude is 6.66D-15 for   2819.
 Iteration    1 A^-1*A deviation from orthogonality  is 1.35D-13 for   2734   2698.
 E= -1787.27859091697    
 DIIS: error= 5.73D-02 at cycle   1 NSaved=   1.
 NSaved= 1 IEnMin= 1 EnMin= -1787.27859091697     IErMin= 1 ErrMin= 5.73D-02
 ErrMax= 5.73D-02  0.00D+00 EMaxC= 1.00D-01 BMatC= 6.63D+00 BMatP= 6.63D+00
 IDIUse=3 WtCom= 4.27D-01 WtEn= 5.73D-01
 Coeff-Com:  0.100D+01
 Coeff-En:   0.100D+01
 Coeff:      0.100D+01
 Gap=     0.558 Goal=   None    Shift=    0.000
 Gap=    -0.029 Goal=   None    Shift=    0.000
 GapD=   -0.029 DampG=0.250 DampE=0.500 DampFc=0.2500 IDamp=-1.
 Damping current iteration by 2.50D-01
 RMSDP=4.04D-03 MaxDP=1.71D-01              OVMax= 6.63D-01

 Cycle   2  Pass 1  IDiag  1:
 RMSU=  1.01D-03    CP:  1.00D+00
 E= -1787.53597678754     Delta-E=       -0.257385870569 Rises=F Damp=T
 DIIS: error= 4.54D-02 at cycle   2 NSaved=   2.
 NSaved= 2 IEnMin= 2 EnMin= -1787.53597678754     IErMin= 2 ErrMin= 4.54D-02
 ErrMax= 4.54D-02  0.00D+00 EMaxC= 1.00D-01 BMatC= 2.69D+00 BMatP= 6.63D+00
 IDIUse=3 WtCom= 5.46D-01 WtEn= 4.54D-01
 Coeff-Com: -0.136D+01 0.236D+01
 Coeff-En:   0.000D+00 0.100D+01
 Coeff:     -0.740D+00 0.174D+01
 Gap=     0.478 Goal=   None    Shift=    0.000
 Gap=     0.045 Goal=   None    Shift=    0.000
 RMSDP=2.22D-03 MaxDP=1.52D-01 DE=-2.57D-01 OVMax= 6.34D-01

 Cycle   3  Pass 1  IDiag  1:
 RMSU=  1.62D-03    CP:  1.00D+00  2.50D+00
 E= -1787.96918060215     Delta-E=       -0.433203814611 Rises=F Damp=F
 DIIS: error= 8.70D-03 at cycle   3 NSaved=   3.
 NSaved= 3 IEnMin= 3 EnMin= -1787.96918060215     IErMin= 3 ErrMin= 8.70D-03
 ErrMax= 8.70D-03  0.00D+00 EMaxC= 1.00D-01 BMatC= 4.30D-01 BMatP= 2.69D+00
 IDIUse=3 WtCom= 9.13D-01 WtEn= 8.70D-02
 Coeff-Com: -0.524D+00 0.930D+00 0.595D+00
 Coeff-En:   0.000D+00 0.000D+00 0.100D+01
 Coeff:     -0.479D+00 0.849D+00 0.630D+00
 Gap=     0.452 Goal=   None    Shift=    0.000
 Gap=     0.038 Goal=   None    Shift=    0.000
 RMSDP=9.08D-04 MaxDP=7.17D-02 DE=-4.33D-01 OVMax= 1.80D-01

 Cycle   4  Pass 1  IDiag  1:
 RMSU=  8.48D-04    CP:  1.00D+00  2.49D+00  8.00D-01
 E= -1788.04280807378     Delta-E=       -0.073627471636 Rises=F Damp=F
 DIIS: error= 3.88D-03 at cycle   4 NSaved=   4.
 NSaved= 4 IEnMin= 4 EnMin= -1788.04280807378     IErMin= 4 ErrMin= 3.88D-03
 ErrMax= 3.88D-03  0.00D+00 EMaxC= 1.00D-01 BMatC= 9.46D-02 BMatP= 4.30D-01
 IDIUse=3 WtCom= 9.61D-01 WtEn= 3.88D-02
 Coeff-Com: -0.112D+00 0.183D+00 0.303D+00 0.626D+00
 Coeff-En:   0.000D+00 0.000D+00 0.108D+00 0.892D+00
 Coeff:     -0.107D+00 0.176D+00 0.295D+00 0.637D+00
 Gap=     0.363 Goal=   None    Shift=    0.000
 Gap=     0.097 Goal=   None    Shift=    0.000
 RMSDP=4.98D-04 MaxDP=7.16D-02 DE=-7.36D-02 OVMax= 1.44D-01

 Cycle   5  Pass 1  IDiag  1:
 RMSU=  3.92D-04    CP:  1.00D+00  2.56D+00  8.93D-01  6.97D-01
 E= -1788.06419831274     Delta-E=       -0.021390238954 Rises=F Damp=F
 DIIS: error= 2.44D-03 at cycle   5 NSaved=   5.
 NSaved= 5 IEnMin= 5 EnMin= -1788.06419831274     IErMin= 5 ErrMin= 2.44D-03
 ErrMax= 2.44D-03  0.00D+00 EMaxC= 1.00D-01 BMatC= 2.35D-02 BMatP= 9.46D-02
 IDIUse=3 WtCom= 9.76D-01 WtEn= 2.44D-02
 Coeff-Com: -0.350D-01 0.477D-01 0.989D-01 0.379D+00 0.509D+00
 Coeff-En:   0.000D+00 0.000D+00 0.000D+00 0.000D+00 0.100D+01
 Coeff:     -0.341D-01 0.466D-01 0.965D-01 0.370D+00 0.521D+00
 Gap=     0.360 Goal=   None    Shift=    0.000
 Gap=     0.099 Goal=   None    Shift=    0.000
 RMSDP=1.78D-04 MaxDP=1.88D-02 DE=-2.14D-02 OVMax= 4.59D-02

 Cycle   6  Pass 1  IDiag  1:
 RMSU=  1.56D-04    CP:  1.00D+00  2.59D+00  8.88D-01  7.90D-01  1.03D+00
 E= -1788.07076236529     Delta-E=       -0.006564052549 Rises=F Damp=F
 DIIS: error= 1.10D-03 at cycle   6 NSaved=   6.
 NSaved= 6 IEnMin= 6 EnMin= -1788.07076236529     IErMin= 6 ErrMin= 1.10D-03
 ErrMax= 1.10D-03  0.00D+00 EMaxC= 1.00D-01 BMatC= 1.73D-03 BMatP= 2.35D-02
 IDIUse=3 WtCom= 9.89D-01 WtEn= 1.10D-02
 Coeff-Com:  0.762D-02-0.123D-01-0.363D-01 0.397D-02 0.818D-01 0.955D+00
 Coeff-En:   0.000D+00 0.000D+00 0.000D+00 0.000D+00 0.000D+00 0.100D+01
 Coeff:      0.754D-02-0.122D-01-0.359D-01 0.392D-02 0.809D-01 0.956D+00
 Gap=     0.361 Goal=   None    Shift=    0.000
 Gap=     0.108 Goal=   None    Shift=    0.000
 RMSDP=1.73D-04 MaxDP=1.07D-02 DE=-6.56D-03 OVMax= 5.27D-02

 Cycle   7  Pass 1  IDiag  1:
 RMSU=  8.08D-05    CP:  1.00D+00  2.61D+00  8.78D-01  8.05D-01  1.36D+00
                    CP:  1.48D+00
 E= -1788.07328045112     Delta-E=       -0.002518085828 Rises=F Damp=F
 DIIS: error= 8.63D-04 at cycle   7 NSaved=   7.
 NSaved= 7 IEnMin= 7 EnMin= -1788.07328045112     IErMin= 7 ErrMin= 8.63D-04
 ErrMax= 8.63D-04  0.00D+00 EMaxC= 1.00D-01 BMatC= 1.35D-03 BMatP= 1.73D-03
 IDIUse=3 WtCom= 9.91D-01 WtEn= 8.63D-03
 Coeff-Com:  0.158D-01-0.213D-01-0.511D-01-0.112D+00-0.130D+00 0.654D+00
 Coeff-Com:  0.645D+00
 Coeff-En:   0.000D+00 0.000D+00 0.000D+00 0.000D+00 0.000D+00 0.000D+00
 Coeff-En:   0.100D+01
 Coeff:      0.157D-01-0.211D-01-0.506D-01-0.111D+00-0.129D+00 0.649D+00
 Coeff:      0.648D+00
 Gap=     0.362 Goal=   None    Shift=    0.000
 Gap=     0.114 Goal=   None    Shift=    0.000
 RMSDP=1.14D-04 MaxDP=8.86D-03 DE=-2.52D-03 OVMax= 2.91D-02

 Cycle   8  Pass 1  IDiag  1:
 RMSU=  4.87D-05    CP:  9.99D-01  2.61D+00  8.67D-01  8.09D-01  1.53D+00
                    CP:  1.94D+00  1.29D+00
 E= -1788.07460166187     Delta-E=       -0.001321210749 Rises=F Damp=F
 DIIS: error= 5.65D-04 at cycle   8 NSaved=   8.
 NSaved= 8 IEnMin= 8 EnMin= -1788.07460166187     IErMin= 8 ErrMin= 5.65D-04
 ErrMax= 5.65D-04  0.00D+00 EMaxC= 1.00D-01 BMatC= 2.61D-04 BMatP= 1.35D-03
 IDIUse=3 WtCom= 9.94D-01 WtEn= 5.65D-03
 Coeff-Com: -0.190D-02 0.429D-02 0.898D-02-0.122D-01-0.396D-01-0.919D-01
 Coeff-Com:  0.976D-01 0.103D+01
 Coeff-En:   0.000D+00 0.000D+00 0.000D+00 0.000D+00 0.000D+00 0.000D+00
 Coeff-En:   0.000D+00 0.100D+01
 Coeff:     -0.189D-02 0.427D-02 0.893D-02-0.122D-01-0.394D-01-0.914D-01
 Coeff:      0.971D-01 0.103D+01
 Gap=     0.363 Goal=   None    Shift=    0.000
 Gap=     0.114 Goal=   None    Shift=    0.000
 RMSDP=9.76D-05 MaxDP=8.21D-03 DE=-1.32D-03 OVMax= 3.11D-02

 Cycle   9  Pass 1  IDiag  1:
 RMSU=  3.12D-05    CP:  9.99D-01  2.62D+00  8.54D-01  7.92D-01  1.64D+00
                    CP:  2.23D+00  1.90D+00  1.78D+00
 E= -1788.07540886251     Delta-E=       -0.000807200648 Rises=F Damp=F
 DIIS: error= 4.05D-04 at cycle   9 NSaved=   9.
 NSaved= 9 IEnMin= 9 EnMin= -1788.07540886251     IErMin= 9 ErrMin= 4.05D-04
 ErrMax= 4.05D-04  0.00D+00 EMaxC= 1.00D-01 BMatC= 2.08D-04 BMatP= 2.61D-04
 IDIUse=3 WtCom= 9.96D-01 WtEn= 4.05D-03
 Coeff-Com: -0.516D-02 0.754D-02 0.225D-01 0.330D-01 0.323D-01-0.230D+00
 Coeff-Com: -0.215D+00 0.535D+00 0.820D+00
 Coeff-En:   0.000D+00 0.000D+00 0.000D+00 0.000D+00 0.000D+00 0.000D+00
 Coeff-En:   0.000D+00 0.000D+00 0.100D+01
 Coeff:     -0.514D-02 0.751D-02 0.224D-01 0.328D-01 0.321D-01-0.229D+00
 Coeff:     -0.214D+00 0.533D+00 0.821D+00
 Gap=     0.362 Goal=   None    Shift=    0.000
 Gap=     0.114 Goal=   None    Shift=    0.000
 RMSDP=7.79D-05 MaxDP=6.26D-03 DE=-8.07D-04 OVMax= 2.54D-02

 Cycle  10  Pass 1  IDiag  1:
 RMSU=  1.69D-05    CP:  9.99D-01  2.62D+00  8.43D-01  7.83D-01  1.71D+00
                    CP:  2.43D+00  2.35D+00  2.67D+00  1.78D+00
 E= -1788.07595404444     Delta-E=       -0.000545181924 Rises=F Damp=F
 DIIS: error= 3.78D-04 at cycle  10 NSaved=  10.
 NSaved=10 IEnMin=10 EnMin= -1788.07595404444     IErMin=10 ErrMin= 3.78D-04
 ErrMax= 3.78D-04  0.00D+00 EMaxC= 1.00D-01 BMatC= 1.07D-04 BMatP= 2.08D-04
 IDIUse=3 WtCom= 9.96D-01 WtEn= 3.78D-03
 Coeff-Com:  0.130D-02-0.208D-02-0.696D-03 0.848D-02 0.355D-01 0.487D-01
 Coeff-Com: -0.827D-01-0.292D+00-0.318D+00 0.160D+01
 Coeff-En:   0.000D+00 0.000D+00 0.000D+00 0.000D+00 0.000D+00 0.000D+00
 Coeff-En:   0.000D+00 0.000D+00 0.000D+00 0.100D+01
 Coeff:      0.129D-02-0.207D-02-0.694D-03 0.845D-02 0.354D-01 0.485D-01
 Coeff:     -0.823D-01-0.291D+00-0.317D+00 0.160D+01
 Gap=     0.362 Goal=   None    Shift=    0.000
 Gap=     0.116 Goal=   None    Shift=    0.000
 RMSDP=1.06D-04 MaxDP=9.31D-03 DE=-5.45D-04 OVMax= 3.65D-02

 Cycle  11  Pass 1  IDiag  1:
 RMSU=  4.78D-05    CP:  9.99D-01  2.63D+00  8.26D-01  7.73D-01  1.77D+00
                    CP:  2.62D+00  2.91D+00  3.00D+00  3.00D+00  2.72D+00
 E= -1788.07656656302     Delta-E=       -0.000612518582 Rises=F Damp=F
 DIIS: error= 3.01D-04 at cycle  11 NSaved=  11.
 NSaved=11 IEnMin=11 EnMin= -1788.07656656302     IErMin=11 ErrMin= 3.01D-04
 ErrMax= 3.01D-04  0.00D+00 EMaxC= 1.00D-01 BMatC= 1.28D-04 BMatP= 1.07D-04
 IDIUse=3 WtCom= 9.96D-01 WtEn= 3.78D-03
 Coeff-Com:  0.403D-02-0.541D-02-0.112D-01-0.128D-01 0.255D-01 0.176D+00
 Coeff-Com:  0.729D-01-0.516D+00-0.987D+00 0.136D+01 0.891D+00
 Coeff-En:   0.000D+00 0.000D+00 0.000D+00 0.000D+00 0.000D+00 0.000D+00
 Coeff-En:   0.000D+00 0.000D+00 0.000D+00 0.000D+00 0.100D+01
 Coeff:      0.402D-02-0.539D-02-0.112D-01-0.128D-01 0.254D-01 0.176D+00
 Coeff:      0.726D-01-0.514D+00-0.984D+00 0.136D+01 0.892D+00
 Gap=     0.361 Goal=   None    Shift=    0.000
 Gap=     0.117 Goal=   None    Shift=    0.000
 RMSDP=1.07D-04 MaxDP=8.27D-03 DE=-6.13D-04 OVMax= 3.54D-02

 Cycle  12  Pass 1  IDiag  1:
 RMSU=  6.06D-05    CP:  9.99D-01  2.63D+00  8.07D-01  7.59D-01  1.81D+00
                    CP:  2.78D+00  3.00D+00  3.00D+00  3.00D+00  3.00D+00
                    CP:  2.46D+00
 E= -1788.07705515278     Delta-E=       -0.000488589758 Rises=F Damp=F
 DIIS: error= 2.58D-04 at cycle  12 NSaved=  12.
 NSaved=12 IEnMin=12 EnMin= -1788.07705515278     IErMin=12 ErrMin= 2.58D-04
 ErrMax= 2.58D-04  0.00D+00 EMaxC= 1.00D-01 BMatC= 7.32D-05 BMatP= 1.07D-04
 IDIUse=3 WtCom= 9.97D-01 WtEn= 2.58D-03
 Coeff-Com:  0.232D-02-0.273D-02 0.106D-02-0.869D-02 0.219D-01 0.196D-01
 Coeff-Com:  0.896D-01 0.204D-01-0.325D+00-0.218D+00 0.184D+00 0.122D+01
 Coeff-En:   0.000D+00 0.000D+00 0.000D+00 0.000D+00 0.000D+00 0.000D+00
 Coeff-En:   0.000D+00 0.000D+00 0.000D+00 0.000D+00 0.000D+00 0.100D+01
 Coeff:      0.231D-02-0.273D-02 0.106D-02-0.867D-02 0.218D-01 0.195D-01
 Coeff:      0.894D-01 0.204D-01-0.324D+00-0.218D+00 0.184D+00 0.121D+01
 Gap=     0.361 Goal=   None    Shift=    0.000
 Gap=     0.117 Goal=   None    Shift=    0.000
 RMSDP=8.51D-05 MaxDP=6.82D-03 DE=-4.89D-04 OVMax= 3.01D-02

 Cycle  13  Pass 1  IDiag  1:
 RMSU=  3.74D-05    CP:  9.99D-01  2.63D+00  7.92D-01  7.45D-01  1.82D+00
                    CP:  2.87D+00  3.00D+00  3.00D+00  3.00D+00  3.00D+00
                    CP:  3.00D+00  1.84D+00
 E= -1788.07735580502     Delta-E=       -0.000300652247 Rises=F Damp=F
 DIIS: error= 2.08D-04 at cycle  13 NSaved=  13.
 NSaved=13 IEnMin=13 EnMin= -1788.07735580502     IErMin=13 ErrMin= 2.08D-04
 ErrMax= 2.08D-04  0.00D+00 EMaxC= 1.00D-01 BMatC= 6.74D-05 BMatP= 7.32D-05
 IDIUse=3 WtCom= 9.98D-01 WtEn= 2.08D-03
 Coeff-Com:  0.285D-03-0.110D-03 0.888D-02 0.530D-03 0.233D-01-0.102D+00
 Coeff-Com:  0.334D-01 0.222D+00 0.233D+00-0.681D+00-0.520D+00 0.966D+00
 Coeff-Com:  0.817D+00
 Coeff-En:   0.000D+00 0.000D+00 0.000D+00 0.000D+00 0.000D+00 0.000D+00
 Coeff-En:   0.000D+00 0.000D+00 0.000D+00 0.000D+00 0.000D+00 0.000D+00
 Coeff-En:   0.100D+01
 Coeff:      0.285D-03-0.109D-03 0.886D-02 0.529D-03 0.233D-01-0.102D+00
 Coeff:      0.333D-01 0.221D+00 0.232D+00-0.680D+00-0.519D+00 0.964D+00
 Coeff:      0.818D+00
 Gap=     0.360 Goal=   None    Shift=    0.000
 Gap=     0.118 Goal=   None    Shift=    0.000
 RMSDP=7.84D-05 MaxDP=6.33D-03 DE=-3.01D-04 OVMax= 2.73D-02

 Cycle  14  Pass 1  IDiag  1:
 RMSU=  1.56D-05    CP:  9.99D-01  2.63D+00  7.77D-01  7.31D-01  1.83D+00
                    CP:  2.96D+00  3.00D+00  3.00D+00  3.00D+00  3.00D+00
                    CP:  3.00D+00  2.60D+00  2.43D+00
 E= -1788.07756842871     Delta-E=       -0.000212623689 Rises=F Damp=F
 DIIS: error= 1.77D-04 at cycle  14 NSaved=  14.
 NSaved=14 IEnMin=14 EnMin= -1788.07756842871     IErMin=14 ErrMin= 1.77D-04
 ErrMax= 1.77D-04  0.00D+00 EMaxC= 1.00D-01 BMatC= 4.17D-05 BMatP= 6.74D-05
 IDIUse=3 WtCom= 9.98D-01 WtEn= 1.77D-03
 Coeff-Com: -0.882D-03 0.133D-02 0.813D-02 0.746D-02 0.270D-01-0.991D-01
 Coeff-Com: -0.116D-01 0.116D+00 0.288D+00-0.202D+00-0.430D+00 0.126D+00
 Coeff-Com:  0.205D+00 0.965D+00
 Coeff-En:   0.000D+00 0.000D+00 0.000D+00 0.000D+00 0.000D+00 0.000D+00
 Coeff-En:   0.000D+00 0.000D+00 0.000D+00 0.000D+00 0.000D+00 0.000D+00
 Coeff-En:   0.000D+00 0.100D+01
 Coeff:     -0.881D-03 0.133D-02 0.812D-02 0.744D-02 0.270D-01-0.990D-01
 Coeff:     -0.116D-01 0.116D+00 0.287D+00-0.202D+00-0.429D+00 0.126D+00
 Coeff:      0.205D+00 0.965D+00
 Gap=     0.361 Goal=   None    Shift=    0.000
 Gap=     0.117 Goal=   None    Shift=    0.000
 RMSDP=3.55D-05 MaxDP=3.41D-03 DE=-2.13D-04 OVMax= 1.47D-02

 Cycle  15  Pass 1  IDiag  1:
 RMSU=  1.46D-05    CP:  9.99D-01  2.63D+00  7.71D-01  7.26D-01  1.83D+00
                    CP:  2.98D+00  3.00D+00  3.00D+00  3.00D+00  3.00D+00
                    CP:  3.00D+00  2.85D+00  3.00D+00  1.04D+00
 E= -1788.07765662881     Delta-E=       -0.000088200098 Rises=F Damp=F
 DIIS: error= 1.76D-04 at cycle  15 NSaved=  15.
 NSaved=15 IEnMin=15 EnMin= -1788.07765662881     IErMin=15 ErrMin= 1.76D-04
 ErrMax= 1.76D-04  0.00D+00 EMaxC= 1.00D-01 BMatC= 3.62D-05 BMatP= 4.17D-05
 IDIUse=3 WtCom= 9.98D-01 WtEn= 1.76D-03
 Coeff-Com: -0.107D-03 0.202D-03 0.317D-02 0.350D-02 0.207D-01-0.482D-01
 Coeff-Com:  0.145D-01-0.448D-01 0.634D-01 0.150D+00-0.181D+00 0.102D-01
 Coeff-Com: -0.410D+00 0.543D+00 0.875D+00
 Coeff-En:   0.000D+00 0.000D+00 0.000D+00 0.000D+00 0.000D+00 0.000D+00
 Coeff-En:   0.000D+00 0.000D+00 0.000D+00 0.000D+00 0.000D+00 0.000D+00
 Coeff-En:   0.000D+00 0.000D+00 0.100D+01
 Coeff:     -0.106D-03 0.201D-03 0.316D-02 0.349D-02 0.207D-01-0.482D-01
 Coeff:      0.145D-01-0.447D-01 0.633D-01 0.150D+00-0.180D+00 0.102D-01
 Coeff:     -0.409D+00 0.542D+00 0.875D+00
 Gap=     0.361 Goal=   None    Shift=    0.000
 Gap=     0.118 Goal=   None    Shift=    0.000
 RMSDP=4.03D-05 MaxDP=4.05D-03 DE=-8.82D-05 OVMax= 1.67D-02

 Cycle  16  Pass 1  IDiag  1:
 RMSU=  2.41D-05    CP:  9.99D-01  2.63D+00  7.64D-01  7.22D-01  1.83D+00
                    CP:  3.00D+00  3.00D+00  3.00D+00  3.00D+00  3.00D+00
                    CP:  3.00D+00  3.00D+00  3.00D+00  1.41D+00  2.61D+00
 E= -1788.07774921394     Delta-E=       -0.000092585131 Rises=F Damp=F
 DIIS: error= 1.58D-04 at cycle  16 NSaved=  16.
 NSaved=16 IEnMin=16 EnMin= -1788.07774921394     IErMin=16 ErrMin= 1.58D-04
 ErrMax= 1.58D-04  0.00D+00 EMaxC= 1.00D-01 BMatC= 3.57D-05 BMatP= 3.62D-05
 IDIUse=3 WtCom= 9.98D-01 WtEn= 1.58D-03
 Coeff-Com: -0.102D-03 0.198D-03 0.312D-02 0.343D-02 0.207D-01-0.477D-01
 Coeff-Com:  0.153D-01-0.455D-01 0.610D-01 0.150D+00-0.176D+00 0.153D-01
 Coeff-Com: -0.411D+00 0.519D+00 0.862D+00 0.322D-01
 Coeff-En:   0.000D+00 0.000D+00 0.000D+00 0.000D+00 0.000D+00 0.000D+00
 Coeff-En:   0.000D+00 0.000D+00 0.000D+00 0.000D+00 0.000D+00 0.000D+00
 Coeff-En:   0.000D+00 0.000D+00 0.000D+00 0.100D+01
 Coeff:     -0.102D-03 0.197D-03 0.312D-02 0.343D-02 0.206D-01-0.476D-01
 Coeff:      0.152D-01-0.454D-01 0.609D-01 0.149D+00-0.176D+00 0.153D-01
 Coeff:     -0.411D+00 0.518D+00 0.860D+00 0.337D-01
 Gap=     0.361 Goal=   None    Shift=    0.000
 Gap=     0.118 Goal=   None    Shift=    0.000
 RMSDP=1.28D-06 MaxDP=1.30D-04 DE=-9.26D-05 OVMax= 5.98D-04

 Cycle  17  Pass 1  IDiag  1:
 RMSU=  2.06D-07    CP:  9.99D-01  2.63D+00  7.64D-01  7.21D-01  1.83D+00
                    CP:  3.00D+00  3.00D+00  3.00D+00  3.00D+00  3.00D+00
                    CP:  3.00D+00  3.00D+00  3.00D+00  1.41D+00  2.67D+00
                    CP:  1.03D+00
 E= -1788.07775221738     Delta-E=       -0.000003003438 Rises=F Damp=F
 DIIS: error= 1.58D-04 at cycle  17 NSaved=  17.
 NSaved=17 IEnMin=17 EnMin= -1788.07775221738     IErMin=17 ErrMin= 1.58D-04
 ErrMax= 1.58D-04  0.00D+00 EMaxC= 1.00D-01 BMatC= 3.55D-05 BMatP= 3.57D-05
 IDIUse=3 WtCom= 9.98D-01 WtEn= 1.58D-03
 Large coefficients: NSaved= 17 BigCof=   50.73 CofMax=   10.00 Det=-5.09D-10
 Inversion failed.  Reducing to 16 matrices.
 Large coefficients: NSaved= 16 BigCof=   49.29 CofMax=   10.00 Det=-5.27D-10
 Inversion failed.  Reducing to 15 matrices.
 Large coefficients: NSaved= 15 BigCof=   48.95 CofMax=   10.00 Det=-5.48D-10
 Inversion failed.  Reducing to 14 matrices.
 Large coefficients: NSaved= 14 BigCof=   37.28 CofMax=   10.00 Det=-6.11D-10
 Inversion failed.  Reducing to 13 matrices.
 Large coefficients: NSaved= 13 BigCof=   35.54 CofMax=   10.00 Det=-6.42D-10
 Inversion failed.  Reducing to 12 matrices.
 Large coefficients: NSaved= 12 BigCof=   18.73 CofMax=   10.00 Det=-6.70D-10
 Inversion failed.  Reducing to 11 matrices.
 Large coefficients: NSaved= 11 BigCof=   19.78 CofMax=   10.00 Det=-6.72D-10
 Inversion failed.  Reducing to 10 matrices.
 Coeff-Com: -0.143D+00 0.433D-01 0.589D+00-0.924D-01-0.455D+00-0.917D+00
 Coeff-Com:  0.680D+00 0.117D+01-0.736D+01 0.748D+01
 Coeff-En:   0.000D+00 0.000D+00 0.000D+00 0.000D+00 0.000D+00 0.000D+00
 Coeff-En:   0.000D+00 0.000D+00 0.000D+00 0.100D+01
 Coeff:     -0.142D+00 0.433D-01 0.588D+00-0.923D-01-0.454D+00-0.916D+00
 Coeff:      0.679D+00 0.117D+01-0.734D+01 0.747D+01
 Gap=     0.362 Goal=   None    Shift=    0.000
 Gap=     0.117 Goal=   None    Shift=    0.000
 RMSDP=2.90D-05 MaxDP=2.36D-03 DE=-3.00D-06 OVMax= 1.30D-02

 Cycle  18  Pass 1  IDiag  1:
 RMSU=  2.30D-05    CP:  9.99D-01  2.63D+00  7.61D-01  7.22D-01  1.82D+00
                    CP:  3.00D+00  3.00D+00  3.00D+00  3.00D+00  3.00D+00
                    CP:  3.00D+00  3.00D+00  3.00D+00  1.17D+00  3.00D+00
                    CP:  1.30D+00  2.98D+00
 E= -1788.07781026391     Delta-E=       -0.000058046530 Rises=F Damp=F
 DIIS: error= 1.82D-04 at cycle  18 NSaved=  11.
 NSaved=11 IEnMin=11 EnMin= -1788.07781026391     IErMin=10 ErrMin= 1.58D-04
 ErrMax= 1.82D-04  0.00D+00 EMaxC= 1.00D-01 BMatC= 3.04D-05 BMatP= 3.55D-05
 IDIUse=3 WtCom= 9.98D-01 WtEn= 1.58D-03
 Large coefficients: NSaved= 11 BigCof=   22.97 CofMax=   10.00 Det=-6.64D-10
 Inversion failed.  Reducing to 10 matrices.
 Large coefficients: NSaved= 10 BigCof=   22.57 CofMax=   10.00 Det=-6.64D-10
 Inversion failed.  Reducing to  9 matrices.
 Large coefficients: NSaved=  9 BigCof=   19.79 CofMax=   10.00 Det=-6.73D-10
 Inversion failed.  Reducing to  8 matrices.
 Large coefficients: NSaved=  8 BigCof=   27.76 CofMax=   10.00 Det=-6.95D-10
 Inversion failed.  Reducing to  7 matrices.
 Large coefficients: NSaved=  7 BigCof=   29.60 CofMax=   10.00 Det=-6.97D-10
 Inversion failed.  Reducing to  6 matrices.
 Large coefficients: NSaved=  6 BigCof=   25.68 CofMax=   10.00 Det=-7.10D-10
 Inversion failed.  Reducing to  5 matrices.
 Large coefficients: NSaved=  5 BigCof=   61.97 CofMax=   10.00 Det=-9.56D-10
 Inversion failed.  Reducing to  4 matrices.
 Large coefficients: NSaved=  4 BigCof=   55.14 CofMax=   10.00 Det=-9.84D-10
 Inversion failed.  Reducing to  3 matrices.
 Large coefficients: NSaved=  3 BigCof=   29.57 CofMax=   10.00 Det=-1.73D-09
 Inversion failed.  Reducing to  2 matrices.
 Coeff-Com:  0.326D+00 0.674D+00
 Coeff-En:   0.000D+00 0.100D+01
 Coeff:      0.325D+00 0.675D+00
 Gap=     0.361 Goal=   None    Shift=    0.000
 Gap=     0.118 Goal=   None    Shift=    0.000
 RMSDP=1.56D-05 MaxDP=1.18D-03 DE=-5.80D-05 OVMax= 5.42D-03

 Cycle  19  Pass 1  IDiag  1:
 RMSU=  8.33D-06    CP:  9.99D-01  2.63D+00  7.59D-01  7.19D-01  1.82D+00
                    CP:  3.00D+00  3.00D+00  3.00D+00  3.00D+00  3.00D+00
                    CP:  3.00D+00  3.00D+00  3.00D+00  1.58D+00  3.00D+00
                    CP:  1.63D+00  3.00D+00  1.31D+00
 E= -1788.07784279175     Delta-E=       -0.000032527836 Rises=F Damp=F
 DIIS: error= 1.92D-04 at cycle  19 NSaved=   3.
 NSaved= 3 IEnMin= 3 EnMin= -1788.07784279175     IErMin= 1 ErrMin= 1.58D-04
 ErrMax= 1.92D-04  0.00D+00 EMaxC= 1.00D-01 BMatC= 2.37D-05 BMatP= 3.04D-05
 IDIUse=3 WtCom= 9.98D-01 WtEn= 1.58D-03
 Coeff-Com: -0.182D+00 0.571D+00 0.611D+00
 Coeff-En:   0.000D+00 0.000D+00 0.100D+01
 Coeff:     -0.182D+00 0.570D+00 0.612D+00
 Gap=     0.362 Goal=   None    Shift=    0.000
 Gap=     0.118 Goal=   None    Shift=    0.000
 RMSDP=2.30D-05 MaxDP=2.64D-03 DE=-3.25D-05 OVMax= 1.21D-02

 Cycle  20  Pass 1  IDiag  1:
 RMSU=  5.57D-06    CP:  9.99D-01  2.63D+00  7.56D-01  7.21D-01  1.81D+00
                    CP:  3.00D+00  3.00D+00  3.00D+00  3.00D+00  3.00D+00
                    CP:  3.00D+00  3.00D+00  3.00D+00  1.46D+00  3.00D+00
                    CP:  2.11D+00  3.00D+00  2.07D+00  1.15D+00
 E= -1788.07789335868     Delta-E=       -0.000050566931 Rises=F Damp=F
 DIIS: error= 1.53D-04 at cycle  20 NSaved=   4.
 NSaved= 4 IEnMin= 4 EnMin= -1788.07789335868     IErMin= 4 ErrMin= 1.53D-04
 ErrMax= 1.53D-04  0.00D+00 EMaxC= 1.00D-01 BMatC= 3.36D-05 BMatP= 2.37D-05
 IDIUse=3 WtCom= 9.98D-01 WtEn= 1.58D-03
 Coeff-Com: -0.420D-01 0.587D+00 0.614D+00-0.160D+00
 Coeff-En:   0.000D+00 0.000D+00 0.000D+00 0.100D+01
 Coeff:     -0.419D-01 0.586D+00 0.613D+00-0.158D+00
 Gap=     0.362 Goal=   None    Shift=    0.000
 Gap=     0.118 Goal=   None    Shift=    0.000
 RMSDP=9.10D-06 MaxDP=9.23D-04 DE=-5.06D-05 OVMax= 4.58D-03

 Cycle  21  Pass 1  IDiag  1:
 Restarting incremental Fock formation.
 E= -1788.07787259306     Delta-E=        0.000020765614 Rises=F Damp=F
 DIIS: error= 1.54D-04 at cycle  21 NSaved=   5.
 NSaved= 5 IEnMin= 4 EnMin= -1788.07789335868     IErMin= 4 ErrMin= 1.53D-04
 ErrMax= 1.54D-04  0.00D+00 EMaxC= 1.00D-01 BMatC= 3.37D-05 BMatP= 2.37D-05
 IDIUse=3 WtCom= 9.98D-01 WtEn= 1.58D-03
 Rare condition: small coef for last iteration:  0.000D+00
 Coeff-Com:  0.469D-01 0.589D+00 0.620D+00-0.135D+01 0.110D+01
 Coeff-En:   0.000D+00 0.000D+00 0.000D+00 0.000D+00 0.100D+01
 Coeff:      0.469D-01 0.589D+00 0.620D+00-0.135D+01 0.110D+01
 Gap=     0.361 Goal=   None    Shift=    0.000
 Gap=     0.118 Goal=   None    Shift=    0.000
 RMSDP=1.56D-05 MaxDP=1.57D-03 DE= 2.08D-05 OVMax= 7.89D-03

 Cycle  22  Pass 1  IDiag  1:
 RMSU=  1.56D-05    CP:  1.00D+00
 E= -1788.07783704236     Delta-E=        0.000035550705 Rises=F Damp=F
 DIIS: error= 1.56D-04 at cycle  22 NSaved=   6.
 NSaved= 6 IEnMin= 4 EnMin= -1788.07789335868     IErMin= 4 ErrMin= 1.53D-04
 ErrMax= 1.56D-04  0.00D+00 EMaxC= 1.00D-01 BMatC= 3.36D-05 BMatP= 2.37D-05
 IDIUse=3 WtCom= 9.98D-01 WtEn= 1.58D-03
 Rare condition: small coef for last iteration:  0.000D+00
 Coeff-Com: -0.248D-01 0.588D+00 0.617D+00-0.135D+01 0.567D+00 0.603D+00
 Coeff-En:   0.000D+00 0.000D+00 0.000D+00 0.000D+00 0.000D+00 0.100D+01
 Coeff:     -0.248D-01 0.588D+00 0.617D+00-0.135D+01 0.567D+00 0.603D+00
 Gap=     0.361 Goal=   None    Shift=    0.000
 Gap=     0.118 Goal=   None    Shift=    0.000
 RMSDP=5.54D-06 MaxDP=5.65D-04 DE= 3.56D-05 OVMax= 2.88D-03

 Cycle  23  Pass 1  IDiag  1:
 RMSU=  4.31D-07    CP:  1.00D+00  1.35D+00
 E= -1788.07782439140     Delta-E=        0.000012650963 Rises=F Damp=F
 DIIS: error= 1.56D-04 at cycle  23 NSaved=   7.
 NSaved= 7 IEnMin= 4 EnMin= -1788.07789335868     IErMin= 4 ErrMin= 1.53D-04
 ErrMax= 1.56D-04  0.00D+00 EMaxC= 1.00D-01 BMatC= 3.35D-05 BMatP= 2.37D-05
 IDIUse=3 WtCom= 9.98D-01 WtEn= 1.58D-03
 Large coefficients: NSaved=  7 BigCof=   14.14 CofMax=   10.00 Det=-2.98D-09
 Inversion failed.  Reducing to  6 matrices.
 Rare condition: small coef for last iteration:  0.000D+00
 Coeff-Com:  0.581D+00 0.641D+00-0.198D+01 0.192D+01 0.720D+01-0.736D+01
 Coeff-En:   0.000D+00 0.000D+00 0.000D+00 0.000D+00 0.000D+00 0.100D+01
 Coeff:      0.581D+00 0.641D+00-0.198D+01 0.192D+01 0.720D+01-0.736D+01
 Gap=     0.362 Goal=   None    Shift=    0.000
 Gap=     0.118 Goal=   None    Shift=    0.000
 RMSDP=4.57D-05 MaxDP=4.70D-03 DE= 1.27D-05 OVMax= 2.40D-02

 Cycle  24  Pass 1  IDiag  1:
 RMSU=  3.05D-06    CP:  1.00D+00 -1.56D+00 -3.00D+00
 E= -1788.07792831724     Delta-E=       -0.000103925840 Rises=F Damp=F
 DIIS: error= 1.51D-04 at cycle  24 NSaved=   7.
 NSaved= 7 IEnMin= 7 EnMin= -1788.07792831724     IErMin= 7 ErrMin= 1.51D-04
 ErrMax= 1.51D-04  0.00D+00 EMaxC= 1.00D-01 BMatC= 3.51D-05 BMatP= 2.37D-05
 IDIUse=3 WtCom= 9.98D-01 WtEn= 1.58D-03
 Large coefficients: NSaved=  7 BigCof=   14.98 CofMax=   10.00 Det=-9.65D-10
 Inversion failed.  Reducing to  6 matrices.
 Large coefficients: NSaved=  6 BigCof=   34.85 CofMax=   10.00 Det=-1.10D-09
 Inversion failed.  Reducing to  5 matrices.
 Coeff-Com:  0.659D+00 0.141D+01 0.286D+01-0.195D+01-0.199D+01
 Coeff-En:   0.000D+00 0.000D+00 0.000D+00 0.000D+00 0.100D+01
 Coeff:      0.658D+00 0.141D+01 0.286D+01-0.194D+01-0.198D+01
 Gap=     0.362 Goal=   None    Shift=    0.000
 Gap=     0.118 Goal=   None    Shift=    0.000
 RMSDP=1.31D-05 MaxDP=9.54D-04 DE=-1.04D-04 OVMax= 5.48D-03

 Cycle  25  Pass 1  IDiag  1:
 RMSU=  5.01D-06    CP:  1.00D+00 -1.18D+00  3.00D+00 -1.63D+00
 E= -1788.07791517392     Delta-E=        0.000013143315 Rises=F Damp=F
 DIIS: error= 1.51D-04 at cycle  25 NSaved=   6.
 NSaved= 6 IEnMin= 5 EnMin= -1788.07792831724     IErMin= 5 ErrMin= 1.51D-04
 ErrMax= 1.51D-04  0.00D+00 EMaxC= 1.00D-01 BMatC= 3.26D-05 BMatP= 2.37D-05
 IDIUse=3 WtCom= 9.98D-01 WtEn= 1.58D-03
 Rare condition: small coef for last iteration:  0.000D+00
 Coeff-Com:  0.626D+00 0.315D+01-0.241D+00 0.301D+00-0.364D+01 0.809D+00
 Coeff-En:   0.000D+00 0.000D+00 0.000D+00 0.000D+00 0.000D+00 0.100D+01
 Coeff:      0.626D+00 0.315D+01-0.241D+00 0.301D+00-0.364D+01 0.809D+00
 Gap=     0.361 Goal=   None    Shift=    0.000
 Gap=     0.118 Goal=   None    Shift=    0.000
 RMSDP=5.82D-05 MaxDP=5.64D-03 DE= 1.31D-05 OVMax= 3.12D-02

 Cycle  26  Pass 1  IDiag  1:
 RMSU=  1.07D-05    CP:  1.00D+00  2.44D+00  3.00D+00 -3.00D+00  1.63D+00
 E= -1788.07778793336     Delta-E=        0.000127240559 Rises=F Damp=F
 DIIS: error= 1.40D-04 at cycle  26 NSaved=   7.
 NSaved= 7 IEnMin= 5 EnMin= -1788.07792831724     IErMin= 7 ErrMin= 1.40D-04
 ErrMax= 1.40D-04  0.00D+00 EMaxC= 1.00D-01 BMatC= 3.85D-05 BMatP= 2.37D-05
 IDIUse=3 WtCom= 9.98D-01 WtEn= 1.58D-03
 Rare condition: small coef for last iteration:  0.000D+00
 Coeff-Com:  0.623D+00 0.331D+01-0.311D-01 0.214D+00-0.427D+01 0.858D+00
 Coeff-Com:  0.299D+00
 Coeff-En:   0.000D+00 0.000D+00 0.000D+00 0.000D+00 0.000D+00 0.000D+00
 Coeff-En:   0.100D+01
 Coeff:      0.623D+00 0.331D+01-0.311D-01 0.214D+00-0.427D+01 0.858D+00
 Coeff:      0.299D+00
 Gap=     0.361 Goal=   None    Shift=    0.000
 Gap=     0.119 Goal=   None    Shift=    0.000
 RMSDP=2.45D-05 MaxDP=2.41D-03 DE= 1.27D-04 OVMax= 1.34D-02

 Cycle  27  Pass 1  IDiag  1:
 RMSU=  1.39D-05    CP:  1.00D+00  3.00D+00  3.00D+00 -3.00D+00  2.26D+00
                    CP:  1.82D+00
 E= -1788.07773839532     Delta-E=        0.000049538037 Rises=F Damp=F
 DIIS: error= 1.38D-04 at cycle  27 NSaved=   8.
 NSaved= 8 IEnMin= 5 EnMin= -1788.07792831724     IErMin= 8 ErrMin= 1.38D-04
 ErrMax= 1.38D-04  0.00D+00 EMaxC= 1.00D-01 BMatC= 3.78D-05 BMatP= 2.37D-05
 IDIUse=3 WtCom= 9.98D-01 WtEn= 1.58D-03
 Rare condition: small coef for last iteration:  0.000D+00
 Coeff-Com:  0.561D+00 0.229D+01 0.255D+01-0.122D+01-0.452D+01 0.979D+00
 Coeff-Com: -0.366D+01 0.401D+01
 Coeff-En:   0.000D+00 0.000D+00 0.000D+00 0.000D+00 0.000D+00 0.000D+00
 Coeff-En:   0.000D+00 0.100D+01
 Coeff:      0.561D+00 0.229D+01 0.255D+01-0.122D+01-0.452D+01 0.979D+00
 Coeff:     -0.366D+01 0.401D+01
 Gap=     0.359 Goal=   None    Shift=    0.000
 Gap=     0.119 Goal=   None    Shift=    0.000
 RMSDP=8.53D-05 MaxDP=8.53D-03 DE= 4.95D-05 OVMax= 4.62D-02

 Cycle  28  Pass 1  IDiag  1:
 RMSU=  5.46D-05    CP:  1.00D+00  3.00D+00  3.00D+00 -3.00D+00  3.00D+00
                    CP:  3.00D+00  3.00D+00
 E= -1788.07757766995     Delta-E=        0.000160725376 Rises=F Damp=F
 DIIS: error= 1.25D-04 at cycle  28 NSaved=   9.
 NSaved= 9 IEnMin= 5 EnMin= -1788.07792831724     IErMin= 9 ErrMin= 1.25D-04
 ErrMax= 1.25D-04  0.00D+00 EMaxC= 1.00D-01 BMatC= 4.06D-05 BMatP= 2.37D-05
 IDIUse=3 WtCom= 9.98D-01 WtEn= 1.58D-03
 Rare condition: small coef for last iteration:  0.000D+00
 Coeff-Com:  0.562D+00 0.240D+01 0.247D+01-0.121D+01-0.461D+01 0.979D+00
 Coeff-Com: -0.357D+01 0.404D+01-0.497D-01
 Coeff-En:   0.000D+00 0.000D+00 0.000D+00 0.000D+00 0.000D+00 0.000D+00
 Coeff-En:   0.000D+00 0.000D+00 0.100D+01
 Coeff:      0.562D+00 0.240D+01 0.247D+01-0.121D+01-0.461D+01 0.979D+00
 Coeff:     -0.357D+01 0.404D+01-0.497D-01
 Gap=     0.359 Goal=   None    Shift=    0.000
 Gap=     0.119 Goal=   None    Shift=    0.000
 RMSDP=8.45D-07 MaxDP=9.02D-05 DE= 1.61D-04 OVMax= 4.27D-04

 Cycle  29  Pass 1  IDiag  1:
 RMSU=  2.82D-07    CP:  1.00D+00  3.00D+00  3.00D+00 -3.00D+00  3.00D+00
                    CP:  3.00D+00  3.00D+00  9.85D-01
 E= -1788.07757877495     Delta-E=       -0.000001105005 Rises=F Damp=F
 DIIS: error= 1.25D-04 at cycle  29 NSaved=  10.
 NSaved=10 IEnMin= 5 EnMin= -1788.07792831724     IErMin=10 ErrMin= 1.25D-04
 ErrMax= 1.25D-04  0.00D+00 EMaxC= 1.00D-01 BMatC= 4.10D-05 BMatP= 2.37D-05
 IDIUse=3 WtCom= 9.98D-01 WtEn= 1.58D-03
 Large coefficients: NSaved= 10 BigCof=   44.48 CofMax=   10.00 Det=-1.30D-09
 Inversion failed.  Reducing to  9 matrices.
 Large coefficients: NSaved=  9 BigCof=   39.21 CofMax=   10.00 Det=-1.35D-09
 Inversion failed.  Reducing to  8 matrices.
 Large coefficients: NSaved=  8 BigCof=   38.47 CofMax=   10.00 Det=-1.38D-09
 Inversion failed.  Reducing to  7 matrices.
 Large coefficients: NSaved=  7 BigCof=   38.47 CofMax=   10.00 Det=-1.38D-09
 Inversion failed.  Reducing to  6 matrices.
 Large coefficients: NSaved=  6 BigCof=   32.81 CofMax=   10.00 Det=-1.39D-09
 Inversion failed.  Reducing to  5 matrices.
 Large coefficients: NSaved=  5 BigCof=   32.64 CofMax=   10.00 Det=-1.39D-09
 Inversion failed.  Reducing to  4 matrices.
 Large coefficients: NSaved=  4 BigCof=   28.88 CofMax=   10.00 Det=-1.39D-09
 Inversion failed.  Reducing to  3 matrices.
 Large coefficients: NSaved=  3 BigCof=   39.65 CofMax=   10.00 Det=-1.55D-09
 Inversion failed.  Reducing to  2 matrices.
 Large coefficients: NSaved=  2 BigCof=   45.23 CofMax=   10.00 Det=-4.26D-09
 Coeff-Com:  0.452D+02-0.442D+02
 Coeff-En:   0.000D+00 0.100D+01
 Coeff:      0.452D+02-0.442D+02
 Gap=     0.359 Goal=   None    Shift=    0.000
 Gap=     0.118 Goal=   None    Shift=    0.000
 RMSDP=3.03D-05 MaxDP=3.10D-03 DE=-1.11D-06 OVMax= 1.26D-02

 Cycle  30  Pass 1  IDiag  1:
 RMSU=  2.12D-05    CP:  1.00D+00  3.00D+00  3.00D+00 -3.00D+00  3.00D+00
                    CP:  3.00D+00  3.00D+00  1.36D+00 -3.00D+00
 E= -1788.07756322718     Delta-E=        0.000015547773 Rises=F Damp=F
 DIIS: error= 1.76D-04 at cycle  30 NSaved=   3.
 NSaved= 3 IEnMin= 2 EnMin= -1788.07757877495     IErMin= 2 ErrMin= 1.25D-04
 ErrMax= 1.76D-04  0.00D+00 EMaxC= 1.00D-01 BMatC= 2.62D-05 BMatP= 4.06D-05
 IDIUse=3 WtCom= 9.98D-01 WtEn= 1.58D-03
 Large coefficients: NSaved=  3 BigCof=   39.98 CofMax=   10.00 Det=-4.24D-09
 Inversion failed.  Reducing to  2 matrices.
 Coeff-Com:  0.391D+00 0.609D+00
 Coeff-En:   0.000D+00 0.100D+01
 Coeff:      0.390D+00 0.610D+00
 Gap=     0.360 Goal=   None    Shift=    0.000
 Gap=     0.118 Goal=   None    Shift=    0.000
 RMSDP=2.70D-05 MaxDP=3.44D-03 DE= 1.55D-05 OVMax= 1.53D-02

 Cycle  31  Pass 1  IDiag  1:
 RMSU=  8.91D-06    CP:  1.00D+00  3.00D+00  3.00D+00 -3.00D+00  3.00D+00
                    CP:  3.00D+00  3.00D+00  8.98D-01 -3.00D+00  9.39D-01
 E= -1788.07761114809     Delta-E=       -0.000047920907 Rises=F Damp=F
 DIIS: error= 1.42D-04 at cycle  31 NSaved=   3.
 NSaved= 3 IEnMin= 3 EnMin= -1788.07761114809     IErMin= 1 ErrMin= 1.25D-04
 ErrMax= 1.42D-04  0.00D+00 EMaxC= 1.00D-01 BMatC= 3.92D-05 BMatP= 2.62D-05
 IDIUse=3 WtCom= 9.98D-01 WtEn= 1.58D-03
 Coeff-Com: -0.109D+00 0.601D+00 0.509D+00
 Coeff-En:   0.000D+00 0.000D+00 0.100D+01
 Coeff:     -0.109D+00 0.600D+00 0.509D+00
 Gap=     0.359 Goal=   None    Shift=    0.000
 Gap=     0.118 Goal=   None    Shift=    0.000
 RMSDP=1.15D-05 MaxDP=1.05D-03 DE=-4.79D-05 OVMax= 5.58D-03

 Cycle  32  Pass 1  IDiag  1:
 RMSU=  5.31D-06    CP:  1.00D+00  3.00D+00  3.00D+00 -3.00D+00  3.00D+00
                    CP:  3.00D+00  3.00D+00  8.44D-01 -3.00D+00  1.39D+00
                    CP:  1.24D+00
 E= -1788.07762751380     Delta-E=       -0.000016365708 Rises=F Damp=F
 DIIS: error= 1.16D-04 at cycle  32 NSaved=   4.
 NSaved= 4 IEnMin= 4 EnMin= -1788.07762751380     IErMin= 4 ErrMin= 1.16D-04
 ErrMax= 1.16D-04  0.00D+00 EMaxC= 1.00D-01 BMatC= 3.39D-05 BMatP= 2.62D-05
 IDIUse=3 WtCom= 9.98D-01 WtEn= 1.58D-03
 Coeff-Com: -0.108D+01 0.557D+00 0.322D+00 0.120D+01
 Coeff-En:   0.000D+00 0.000D+00 0.000D+00 0.100D+01
 Coeff:     -0.108D+01 0.556D+00 0.322D+00 0.120D+01
 Gap=     0.359 Goal=   None    Shift=    0.000
 Gap=     0.118 Goal=   None    Shift=    0.000
 RMSDP=3.33D-05 MaxDP=2.62D-03 DE=-1.64D-05 OVMax= 1.70D-02

 Cycle  33  Pass 1  IDiag  1:
 RMSU=  2.09D-06    CP:  1.00D+00  3.00D+00  3.00D+00 -3.00D+00  3.00D+00
                    CP:  3.00D+00  3.00D+00  6.72D-01 -3.00D+00  2.78D+00
                    CP:  2.46D+00  2.16D+00
 E= -1788.07766995438     Delta-E=       -0.000042440583 Rises=F Damp=F
 DIIS: error= 1.04D-04 at cycle  33 NSaved=   5.
 NSaved= 5 IEnMin= 5 EnMin= -1788.07766995438     IErMin= 5 ErrMin= 1.04D-04
 ErrMax= 1.04D-04  0.00D+00 EMaxC= 1.00D-01 BMatC= 3.26D-05 BMatP= 2.62D-05
 IDIUse=3 WtCom= 9.98D-01 WtEn= 1.58D-03
 Coeff-Com: -0.109D+01 0.553D+00 0.320D+00 0.109D+01 0.127D+00
 Coeff-En:   0.000D+00 0.000D+00 0.000D+00 0.000D+00 0.100D+01
 Coeff:     -0.109D+01 0.552D+00 0.320D+00 0.109D+01 0.128D+00
 Gap=     0.360 Goal=   None    Shift=    0.000
 Gap=     0.118 Goal=   None    Shift=    0.000
 RMSDP=4.34D-06 MaxDP=3.47D-04 DE=-4.24D-05 OVMax= 2.18D-03

 Cycle  34  Pass 1  IDiag  1:
 RMSU=  2.43D-07    CP:  1.00D+00  3.00D+00  3.00D+00 -3.00D+00  3.00D+00
                    CP:  3.00D+00  3.00D+00  6.47D-01 -3.00D+00  2.95D+00
                    CP:  2.62D+00  2.31D+00  1.13D+00
 E= -1788.07767528492     Delta-E=       -0.000005330536 Rises=F Damp=F
 DIIS: error= 1.02D-04 at cycle  34 NSaved=   6.
 NSaved= 6 IEnMin= 6 EnMin= -1788.07767528492     IErMin= 6 ErrMin= 1.02D-04
 ErrMax= 1.02D-04  0.00D+00 EMaxC= 1.00D-01 BMatC= 3.22D-05 BMatP= 2.62D-05
 IDIUse=3 WtCom= 9.98D-01 WtEn= 1.58D-03
 Coeff-Com: -0.504D+00 0.547D+00 0.445D+00-0.158D+00-0.555D+01 0.622D+01
 Coeff-En:   0.000D+00 0.000D+00 0.000D+00 0.000D+00 0.000D+00 0.100D+01
 Coeff:     -0.503D+00 0.546D+00 0.445D+00-0.158D+00-0.554D+01 0.621D+01
 Gap=     0.360 Goal=   None    Shift=    0.000
 Gap=     0.118 Goal=   None    Shift=    0.000
 RMSDP=2.30D-05 MaxDP=1.90D-03 DE=-5.33D-06 OVMax= 1.10D-02

 Cycle  35  Pass 1  IDiag  1:
 RMSU=  1.19D-05    CP:  1.00D+00  3.00D+00  3.00D+00 -3.00D+00  3.00D+00
                    CP:  3.00D+00  1.75D+00  7.54D-01 -3.00D+00  3.00D+00
                    CP:  3.00D+00  2.34D+00  1.81D+00  3.00D+00
 E= -1788.07770483187     Delta-E=       -0.000029546953 Rises=F Damp=F
 DIIS: error= 1.03D-04 at cycle  35 NSaved=   7.
 NSaved= 7 IEnMin= 7 EnMin= -1788.07770483187     IErMin= 6 ErrMin= 1.02D-04
 ErrMax= 1.03D-04  0.00D+00 EMaxC= 1.00D-01 BMatC= 3.25D-05 BMatP= 2.62D-05
 IDIUse=3 WtCom= 9.98D-01 WtEn= 1.58D-03
 Coeff-Com: -0.352D+00 0.552D+00 0.455D+00-0.283D+00-0.691D+01 0.711D+01
 Coeff-Com:  0.424D+00
 Coeff-En:   0.000D+00 0.000D+00 0.000D+00 0.000D+00 0.000D+00 0.000D+00
 Coeff-En:   0.100D+01
 Coeff:     -0.351D+00 0.551D+00 0.455D+00-0.282D+00-0.690D+01 0.710D+01
 Coeff:      0.425D+00
 Gap=     0.360 Goal=   None    Shift=    0.000
 Gap=     0.118 Goal=   None    Shift=    0.000
 RMSDP=8.43D-06 MaxDP=7.30D-04 DE=-2.95D-05 OVMax= 3.79D-03

 Cycle  36  Pass 1  IDiag  1:
 RMSU=  1.12D-06    CP:  1.00D+00  3.00D+00  3.00D+00 -3.00D+00  3.00D+00
                    CP:  3.00D+00  1.25D+00  7.89D-01 -3.00D+00  3.00D+00
                    CP:  3.00D+00  2.33D+00  2.11D+00  3.00D+00  1.36D+00
 E= -1788.07771626654     Delta-E=       -0.000011434669 Rises=F Damp=F
 DIIS: error= 1.04D-04 at cycle  36 NSaved=   8.
 NSaved= 8 IEnMin= 8 EnMin= -1788.07771626654     IErMin= 6 ErrMin= 1.02D-04
 ErrMax= 1.04D-04  0.00D+00 EMaxC= 1.00D-01 BMatC= 3.23D-05 BMatP= 2.62D-05
 IDIUse=3 WtCom= 9.98D-01 WtEn= 1.58D-03
 Coeff-Com: -0.730D+00 0.570D+00 0.300D+00 0.769D+00-0.300D+01 0.224D+01
 Coeff-Com: -0.311D+01 0.395D+01
 Coeff-En:   0.000D+00 0.000D+00 0.000D+00 0.000D+00 0.000D+00 0.000D+00
 Coeff-En:   0.000D+00 0.100D+01
 Coeff:     -0.729D+00 0.569D+00 0.300D+00 0.768D+00-0.299D+01 0.224D+01
 Coeff:     -0.310D+01 0.394D+01
 Gap=     0.360 Goal=   None    Shift=    0.000
 Gap=     0.118 Goal=   None    Shift=    0.000
 RMSDP=1.93D-05 MaxDP=1.77D-03 DE=-1.14D-05 OVMax= 7.53D-03

 Cycle  37  Pass 1  IDiag  1:
 RMSU=  7.59D-07    CP:  1.00D+00  2.69D+00  3.00D+00 -3.00D+00  3.00D+00
                    CP:  3.00D+00  3.50D-01  8.45D-01 -3.00D+00  3.00D+00
                    CP:  3.00D+00  2.33D+00  2.79D+00  3.00D+00  1.95D+00
                    CP:  2.72D+00
 E= -1788.07774534697     Delta-E=       -0.000029080435 Rises=F Damp=F
 DIIS: error= 1.05D-04 at cycle  37 NSaved=   9.
 NSaved= 9 IEnMin= 9 EnMin= -1788.07774534697     IErMin= 6 ErrMin= 1.02D-04
 ErrMax= 1.05D-04  0.00D+00 EMaxC= 1.00D-01 BMatC= 3.29D-05 BMatP= 2.62D-05
 IDIUse=3 WtCom= 9.98D-01 WtEn= 1.58D-03
 Coeff-Com: -0.879D+00 0.567D+00 0.316D+00 0.910D+00-0.172D+01 0.140D+01
 Coeff-Com: -0.344D+01 0.301D+01 0.848D+00
 Coeff-En:   0.000D+00 0.000D+00 0.000D+00 0.000D+00 0.000D+00 0.000D+00
 Coeff-En:   0.000D+00 0.000D+00 0.100D+01
 Coeff:     -0.877D+00 0.566D+00 0.315D+00 0.909D+00-0.172D+01 0.140D+01
 Coeff:     -0.344D+01 0.300D+01 0.848D+00
 Gap=     0.360 Goal=   None    Shift=    0.000
 Gap=     0.118 Goal=   None    Shift=    0.000
 RMSDP=5.72D-06 MaxDP=5.56D-04 DE=-2.91D-05 OVMax= 2.98D-03

 Cycle  38  Pass 1  IDiag  1:
 RMSU=  4.52D-07    CP:  1.00D+00  2.33D+00  3.00D+00 -3.00D+00  3.00D+00
                    CP:  3.00D+00  3.48D-01  8.39D-01 -3.00D+00  3.00D+00
                    CP:  3.00D+00  2.33D+00  2.85D+00  3.00D+00  1.90D+00
                    CP:  2.74D+00  1.72D+00
 E= -1788.07775617243     Delta-E=       -0.000010825462 Rises=F Damp=F
 DIIS: error= 1.06D-04 at cycle  38 NSaved=  10.
 NSaved=10 IEnMin=10 EnMin= -1788.07775617243     IErMin= 6 ErrMin= 1.02D-04
 ErrMax= 1.06D-04  0.00D+00 EMaxC= 1.00D-01 BMatC= 3.31D-05 BMatP= 2.62D-05
 IDIUse=3 WtCom= 9.98D-01 WtEn= 1.58D-03
 Coeff-Com: -0.867D+00 0.570D+00 0.294D+00 0.975D+00-0.167D+01 0.112D+01
 Coeff-Com: -0.367D+01 0.369D+01 0.885D+00-0.327D+00
 Coeff-En:   0.000D+00 0.000D+00 0.000D+00 0.000D+00 0.000D+00 0.000D+00
 Coeff-En:   0.000D+00 0.000D+00 0.000D+00 0.100D+01
 Coeff:     -0.865D+00 0.569D+00 0.294D+00 0.974D+00-0.167D+01 0.112D+01
 Coeff:     -0.367D+01 0.369D+01 0.884D+00-0.325D+00
 Gap=     0.360 Goal=   None    Shift=    0.000
 Gap=     0.118 Goal=   None    Shift=    0.000
 RMSDP=2.99D-06 MaxDP=2.87D-04 DE=-1.08D-05 OVMax= 1.58D-03

 Cycle  39  Pass 1  IDiag  1:
 RMSU=  1.24D-07    CP:  1.00D+00  2.52D+00  3.00D+00 -3.00D+00  3.00D+00
                    CP:  3.00D+00  3.50D-01  8.44D-01 -3.00D+00  3.00D+00
                    CP:  3.00D+00  2.34D+00  2.85D+00  3.00D+00  1.94D+00
                    CP:  2.78D+00  1.34D+00  6.65D-01
 E= -1788.07775045274     Delta-E=        0.000005719689 Rises=F Damp=F
 DIIS: error= 1.06D-04 at cycle  39 NSaved=  11.
 NSaved=11 IEnMin=10 EnMin= -1788.07775617243     IErMin= 6 ErrMin= 1.02D-04
 ErrMax= 1.06D-04  0.00D+00 EMaxC= 1.00D-01 BMatC= 3.30D-05 BMatP= 2.62D-05
 IDIUse=3 WtCom= 9.98D-01 WtEn= 1.58D-03
 Large coefficients: NSaved= 11 BigCof=   14.83 CofMax=   10.00 Det=-4.49D-10
 Inversion failed.  Reducing to 10 matrices.
 Large coefficients: NSaved= 10 BigCof=   59.78 CofMax=   10.00 Det=-4.84D-10
 Inversion failed.  Reducing to  9 matrices.
 Large coefficients: NSaved=  9 BigCof=   50.34 CofMax=   10.00 Det=-5.09D-10
 Inversion failed.  Reducing to  8 matrices.
 Large coefficients: NSaved=  8 BigCof=   65.65 CofMax=   10.00 Det=-5.28D-10
 Inversion failed.  Reducing to  7 matrices.
 Large coefficients: NSaved=  7 BigCof=   70.92 CofMax=   10.00 Det=-5.41D-10
 Inversion failed.  Reducing to  6 matrices.
 Large coefficients: NSaved=  6 BigCof=   83.35 CofMax=   10.00 Det=-5.83D-10
 Inversion failed.  Reducing to  5 matrices.
 Large coefficients: NSaved=  5 BigCof=   83.32 CofMax=   10.00 Det=-5.83D-10
 Inversion failed.  Reducing to  4 matrices.
 Large coefficients: NSaved=  4 BigCof=   64.87 CofMax=   10.00 Det=-6.85D-10
 Inversion failed.  Reducing to  3 matrices.
 Large coefficients: NSaved=  3 BigCof=   72.55 CofMax=   10.00 Det=-7.76D-10
 Inversion failed.  Reducing to  2 matrices.
 Large coefficients: NSaved=  2 BigCof=   28.75 CofMax=   10.00 Det=-1.64D-09
 Coeff-Com: -0.277D+02 0.287D+02
 Coeff-En:   0.000D+00 0.100D+01
 Coeff:     -0.277D+02 0.287D+02
 Gap=     0.359 Goal=   None    Shift=    0.000
 Gap=     0.118 Goal=   None    Shift=    0.000
 RMSDP=6.73D-05 MaxDP=7.04D-03 DE= 5.72D-06 OVMax= 3.69D-02

 Cycle  40  Pass 1  IDiag  1:
 RMSU=  5.54D-06    CP:  1.00D+00  3.00D+00  3.00D+00 -3.00D+00  3.00D+00
                    CP:  3.00D+00  3.00D+00  1.27D+00 -3.00D+00  3.00D+00
                    CP:  2.91D+00  2.19D+00  2.06D+00  3.00D+00  1.65D+00
                    CP: -7.19D-01 -2.99D+00 -3.00D+00  3.00D+00
 E= -1788.07762326506     Delta-E=        0.000127187684 Rises=F Damp=F
 DIIS: error= 1.89D-04 at cycle  40 NSaved=   3.
 NSaved= 3 IEnMin= 1 EnMin= -1788.07775617243     IErMin= 2 ErrMin= 1.06D-04
 ErrMax= 1.89D-04  0.00D+00 EMaxC= 1.00D-01 BMatC= 1.91D-05 BMatP= 3.30D-05
 IDIUse=3 WtCom= 9.98D-01 WtEn= 1.58D-03
 Large coefficients: NSaved=  3 BigCof=   22.44 CofMax=   10.00 Det=-1.63D-09
 Inversion failed.  Reducing to  2 matrices.
 Coeff-Com:  0.390D+00 0.610D+00
 Coeff-En:   0.000D+00 0.100D+01
 Coeff:      0.390D+00 0.610D+00
 Gap=     0.360 Goal=   None    Shift=    0.000
 Gap=     0.118 Goal=   None    Shift=    0.000
 RMSDP=4.54D-05 MaxDP=5.07D-03 DE= 1.27D-04 OVMax= 2.55D-02

 Cycle  41  Pass 1  IDiag  1:
 Restarting incremental Fock formation.
 E= -1788.07770885525     Delta-E=       -0.000085590193 Rises=F Damp=F
 DIIS: error= 1.11D-04 at cycle  41 NSaved=   3.
 NSaved= 3 IEnMin= 1 EnMin= -1788.07775045274     IErMin= 1 ErrMin= 1.06D-04
 ErrMax= 1.11D-04  0.00D+00 EMaxC= 1.00D-01 BMatC= 3.25D-05 BMatP= 1.91D-05
 IDIUse=3 WtCom= 9.98D-01 WtEn= 1.58D-03
 Coeff-Com: -0.145D+00 0.608D+00 0.537D+00
 Coeff-En:   0.000D+00 0.000D+00 0.100D+01
 Coeff:     -0.145D+00 0.607D+00 0.538D+00
 Gap=     0.360 Goal=   None    Shift=    0.000
 Gap=     0.118 Goal=   None    Shift=    0.000
 RMSDP=1.19D-05 MaxDP=1.13D-03 DE=-8.56D-05 OVMax= 5.92D-03

 Cycle  42  Pass 1  IDiag  1:
 RMSU=  1.19D-05    CP:  1.00D+00
 E= -1788.07768702186     Delta-E=        0.000021833389 Rises=F Damp=F
 DIIS: error= 1.05D-04 at cycle  42 NSaved=   4.
 NSaved= 4 IEnMin= 1 EnMin= -1788.07775045274     IErMin= 4 ErrMin= 1.05D-04
 ErrMax= 1.05D-04  0.00D+00 EMaxC= 1.00D-01 BMatC= 3.19D-05 BMatP= 1.91D-05
 IDIUse=3 WtCom= 9.98D-01 WtEn= 1.58D-03
 Rare condition: small coef for last iteration:  0.000D+00
 Coeff-Com: -0.591D-01 0.609D+00 0.546D+00-0.964D-01
 Coeff-En:   0.000D+00 0.000D+00 0.000D+00 0.100D+01
 Coeff:     -0.591D-01 0.609D+00 0.546D+00-0.964D-01
 Gap=     0.360 Goal=   None    Shift=    0.000
 Gap=     0.118 Goal=   None    Shift=    0.000
 RMSDP=2.97D-06 MaxDP=2.83D-04 DE= 2.18D-05 OVMax= 1.52D-03

 Cycle  43  Pass 1  IDiag  1:
 RMSU=  3.58D-07    CP:  1.00D+00  7.51D-01
 E= -1788.07769257798     Delta-E=       -0.000005556114 Rises=F Damp=F
 DIIS: error= 1.05D-04 at cycle  43 NSaved=   5.
 NSaved= 5 IEnMin= 1 EnMin= -1788.07775045274     IErMin= 4 ErrMin= 1.05D-04
 ErrMax= 1.05D-04  0.00D+00 EMaxC= 1.00D-01 BMatC= 3.21D-05 BMatP= 1.91D-05
 IDIUse=3 WtCom= 9.98D-01 WtEn= 1.58D-03
 Coeff-Com: -0.599D-01 0.591D+00 0.558D+00 0.704D+01-0.713D+01
 Coeff-En:   0.000D+00 0.000D+00 0.000D+00 0.000D+00 0.100D+01
 Coeff:     -0.598D-01 0.590D+00 0.558D+00 0.703D+01-0.712D+01
 Gap=     0.359 Goal=   None    Shift=    0.000
 Gap=     0.118 Goal=   None    Shift=    0.000
 RMSDP=2.04D-05 MaxDP=1.94D-03 DE=-5.56D-06 OVMax= 1.05D-02

 Cycle  44  Pass 1  IDiag  1:
 RMSU=  1.23D-06    CP:  1.00D+00  2.46D+00 -3.00D+00
 E= -1788.07765405711     Delta-E=        0.000038520868 Rises=F Damp=F
 DIIS: error= 1.03D-04 at cycle  44 NSaved=   6.
 NSaved= 6 IEnMin= 1 EnMin= -1788.07775045274     IErMin= 6 ErrMin= 1.03D-04
 ErrMax= 1.03D-04  0.00D+00 EMaxC= 1.00D-01 BMatC= 3.18D-05 BMatP= 1.91D-05
 IDIUse=3 WtCom= 9.98D-01 WtEn= 1.58D-03
 Rare condition: small coef for last iteration:  0.000D+00
 Coeff-Com: -0.142D+00 0.592D+00 0.546D+00 0.673D+01-0.656D+01-0.165D+00
 Coeff-En:   0.000D+00 0.000D+00 0.000D+00 0.000D+00 0.000D+00 0.100D+01
 Coeff:     -0.142D+00 0.592D+00 0.546D+00 0.673D+01-0.656D+01-0.165D+00
 Gap=     0.359 Goal=   None    Shift=    0.000
 Gap=     0.118 Goal=   None    Shift=    0.000
 RMSDP=1.52D-06 MaxDP=1.47D-04 DE= 3.85D-05 OVMax= 8.12D-04

 Cycle  45  Pass 1  IDiag  1:
 RMSU=  1.00D-07    CP:  1.00D+00  2.33D+00 -3.00D+00  7.80D-01
 E= -1788.07765693544     Delta-E=       -0.000002878325 Rises=F Damp=F
 DIIS: error= 1.03D-04 at cycle  45 NSaved=   7.
 NSaved= 7 IEnMin= 1 EnMin= -1788.07775045274     IErMin= 7 ErrMin= 1.03D-04
 ErrMax= 1.03D-04  0.00D+00 EMaxC= 1.00D-01 BMatC= 3.20D-05 BMatP= 1.91D-05
 IDIUse=3 WtCom= 9.98D-01 WtEn= 1.58D-03
 Large coefficients: NSaved=  7 BigCof=   60.15 CofMax=   10.00 Det=-1.47D-10
 Inversion failed.  Reducing to  6 matrices.
 Large coefficients: NSaved=  6 BigCof=  171.34 CofMax=   10.00 Det=-3.30D-10
 Inversion failed.  Reducing to  5 matrices.
 Large coefficients: NSaved=  5 BigCof=  200.25 CofMax=   10.00 Det=-4.53D-10
 Inversion failed.  Reducing to  4 matrices.
 Large coefficients: NSaved=  4 BigCof=  184.04 CofMax=   10.00 Det=-5.23D-10
 Inversion failed.  Reducing to  3 matrices.
 Large coefficients: NSaved=  3 BigCof=  179.81 CofMax=   10.00 Det=-5.61D-10
 Inversion failed.  Reducing to  2 matrices.
 Large coefficients: NSaved=  2 BigCof=  180.98 CofMax=   10.00 Det=-5.69D-10
 Coeff-Com:  0.181D+03-0.180D+03
 Coeff-En:   0.000D+00 0.100D+01
 Coeff:      0.181D+03-0.180D+03
 Gap=     0.354 Goal=   None    Shift=    0.000
 Gap=     0.118 Goal=   None    Shift=    0.000
 RMSDP=2.51D-04 MaxDP=2.44D-02 DE=-2.88D-06 OVMax= 1.31D-01

 Cycle  46  Pass 1  IDiag  1:
 RMSU=  2.43D-04    CP:  1.00D+00  3.00D+00 -3.00D+00  3.00D+00 -3.00D+00
 E= -1788.07715862052     Delta-E=        0.000498314917 Rises=F Damp=F
 DIIS: error= 1.75D-04 at cycle  46 NSaved=   3.
 NSaved= 3 IEnMin= 2 EnMin= -1788.07765693544     IErMin= 2 ErrMin= 1.03D-04
 ErrMax= 1.75D-04  0.00D+00 EMaxC= 1.00D-01 BMatC= 1.14D-04 BMatP= 3.18D-05
 IDIUse=3 WtCom= 9.98D-01 WtEn= 1.58D-03
 Large coefficients: NSaved=  3 BigCof=  193.45 CofMax=   10.00 Det=-4.17D-10
 Inversion failed.  Reducing to  2 matrices.
 Coeff-Com:  0.124D+01-0.242D+00
 Coeff-En:   0.000D+00 0.100D+01
 Coeff:      0.124D+01-0.240D+00
 Gap=     0.366 Goal=   None    Shift=    0.000
 Gap=     0.112 Goal=   None    Shift=    0.000
 RMSDP=3.26D-04 MaxDP=3.11D-02 DE= 4.98D-04 OVMax= 1.72D-01

 Cycle  47  Pass 1  IDiag  1:
 RMSU=  1.27D-05    CP:  1.00D+00 -3.00D+00  3.00D+00 -3.00D+00  3.00D+00
                    CP: -5.05D-02
 E= -1788.07780287337     Delta-E=       -0.000644252849 Rises=F Damp=F
 DIIS: error= 1.84D-04 at cycle  47 NSaved=   3.
 NSaved= 3 IEnMin= 3 EnMin= -1788.07780287337     IErMin= 1 ErrMin= 1.03D-04
 ErrMax= 1.84D-04  0.00D+00 EMaxC= 1.00D-01 BMatC= 3.07D-05 BMatP= 3.20D-05
 IDIUse=3 WtCom= 9.98D-01 WtEn= 1.58D-03
 Coeff-Com:  0.793D+00-0.393D+00 0.600D+00
 Coeff-En:   0.000D+00 0.000D+00 0.100D+01
 Coeff:      0.792D+00-0.392D+00 0.600D+00
 Gap=     0.361 Goal=   None    Shift=    0.000
 Gap=     0.120 Goal=   None    Shift=    0.000
 RMSDP=8.47D-05 MaxDP=8.83D-03 DE=-6.44D-04 OVMax= 4.65D-02

 Cycle  48  Pass 1  IDiag  1:
 RMSU=  2.14D-05    CP:  1.00D+00 -3.00D+00  3.00D+00 -3.00D+00  3.00D+00
                    CP: -3.87D-01  1.46D+00
 E= -1788.07796691153     Delta-E=       -0.000164038167 Rises=F Damp=F
 DIIS: error= 1.22D-04 at cycle  48 NSaved=   4.
 NSaved= 4 IEnMin= 4 EnMin= -1788.07796691153     IErMin= 1 ErrMin= 1.03D-04
 ErrMax= 1.22D-04  0.00D+00 EMaxC= 1.00D-01 BMatC= 5.83D-05 BMatP= 3.07D-05
 IDIUse=3 WtCom= 9.98D-01 WtEn= 1.58D-03
 Coeff-Com:  0.795D+00-0.391D+00 0.600D+00-0.462D-02
 Coeff-En:   0.000D+00 0.000D+00 0.000D+00 0.100D+01
 Coeff:      0.794D+00-0.390D+00 0.599D+00-0.303D-02
 Gap=     0.361 Goal=   None    Shift=    0.000
 Gap=     0.121 Goal=   None    Shift=    0.000
 RMSDP=1.13D-06 MaxDP=1.14D-04 DE=-1.64D-04 OVMax= 6.04D-04

 Cycle  49  Pass 1  IDiag  1:
 RMSU=  7.66D-08    CP:  1.00D+00 -3.00D+00  3.00D+00 -3.00D+00  3.00D+00
                    CP: -3.83D-01  1.45D+00  9.87D-01
 E= -1788.07796474288     Delta-E=        0.000002168655 Rises=F Damp=F
[...]
 Coeff-Com:  0.531D-01 0.408D+00-0.280D+00-0.214D+00-0.121D+00-0.608D-01
 Coeff-Com:  0.270D+00-0.405D-01-0.156D-01-0.164D+00-0.248D-01-0.292D-01
 Coeff-Com:  0.325D+00 0.317D-01-0.363D+00 0.137D+01-0.119D+01-0.227D+00
 Coeff-Com:  0.974D-01 0.117D+01
 Coeff:      0.531D-01 0.408D+00-0.280D+00-0.214D+00-0.121D+00-0.608D-01
 Coeff:      0.270D+00-0.405D-01-0.156D-01-0.164D+00-0.248D-01-0.292D-01
 Coeff:      0.325D+00 0.317D-01-0.363D+00 0.137D+01-0.119D+01-0.227D+00
 Coeff:      0.974D-01 0.117D+01
 Gap=     0.350 Goal=   None    Shift=    0.000
 Gap=     0.126 Goal=   None    Shift=    0.000
 RMSDP=1.56D-05 MaxDP=1.52D-03 DE=-1.64D-06 OVMax= 8.45D-03

 Cycle 113  Pass 1  IDiag  1:
 RMSU=  2.29D-06    CP:  1.00D+00  3.00D+00  3.00D+00  3.00D+00  3.00D+00
                    CP:  3.00D+00 -3.00D+00  1.99D+00  3.00D+00  3.00D+00
                    CP:  1.58D+00  1.71D+00
 E= -1788.07972433450     Delta-E=       -0.000002657872 Rises=F Damp=F
 DIIS: error= 2.12D-05 at cycle 113 NSaved=  20.
 NSaved=20 IEnMin=20 EnMin= -1788.07972433450     IErMin=20 ErrMin= 2.12D-05
 ErrMax= 2.12D-05  0.00D+00 EMaxC= 1.00D-01 BMatC= 5.56D-07 BMatP= 5.25D-07
 IDIUse=1 WtCom= 1.00D+00 WtEn= 0.00D+00
 Coeff-Com: -0.849D-02 0.593D-01-0.790D-01-0.681D-01-0.704D-01 0.201D+00
 Coeff-Com:  0.518D-01-0.877D-01-0.918D-02-0.574D+00 0.292D+00 0.187D+00
 Coeff-Com:  0.364D+00 0.669D+00 0.314D+00-0.848D+00-0.411D+00-0.443D+00
 Coeff-Com: -0.277D+00 0.174D+01
 Coeff:     -0.849D-02 0.593D-01-0.790D-01-0.681D-01-0.704D-01 0.201D+00
 Coeff:      0.518D-01-0.877D-01-0.918D-02-0.574D+00 0.292D+00 0.187D+00
 Coeff:      0.364D+00 0.669D+00 0.314D+00-0.848D+00-0.411D+00-0.443D+00
 Coeff:     -0.277D+00 0.174D+01
 Gap=     0.349 Goal=   None    Shift=    0.000
 Gap=     0.126 Goal=   None    Shift=    0.000
 RMSDP=6.24D-06 MaxDP=5.57D-04 DE=-2.66D-06 OVMax= 2.30D-03

 Cycle 114  Pass 1  IDiag  1:
 RMSU=  3.99D-06    CP:  1.00D+00  3.00D+00  3.00D+00  3.00D+00  3.00D+00
                    CP:  3.00D+00 -3.00D+00  2.52D+00  3.00D+00  3.00D+00
                    CP:  1.63D+00  1.87D+00  2.58D+00
 E= -1788.07972555481     Delta-E=       -0.000001220314 Rises=F Damp=F
 DIIS: error= 2.14D-05 at cycle 114 NSaved=  20.
 NSaved=20 IEnMin=20 EnMin= -1788.07972555481     IErMin=19 ErrMin= 2.12D-05
 ErrMax= 2.14D-05  0.00D+00 EMaxC= 1.00D-01 BMatC= 5.15D-07 BMatP= 5.25D-07
 IDIUse=1 WtCom= 1.00D+00 WtEn= 0.00D+00
 Coeff-Com: -0.632D-01 0.481D-01 0.716D-01 0.316D-01-0.670D-01-0.793D-01
 Coeff-Com:  0.446D-01 0.828D-01-0.638D+00 0.569D+00-0.135D+00 0.181D+00
 Coeff-Com:  0.669D+00-0.357D+00-0.916D-01-0.100D+00-0.285D+00-0.964D+00
 Coeff-Com:  0.817D+00 0.127D+01
 Coeff:     -0.632D-01 0.481D-01 0.716D-01 0.316D-01-0.670D-01-0.793D-01
 Coeff:      0.446D-01 0.828D-01-0.638D+00 0.569D+00-0.135D+00 0.181D+00
 Coeff:      0.669D+00-0.357D+00-0.916D-01-0.100D+00-0.285D+00-0.964D+00
 Coeff:      0.817D+00 0.127D+01
 Gap=     0.350 Goal=   None    Shift=    0.000
 Gap=     0.125 Goal=   None    Shift=    0.000
 RMSDP=9.76D-06 MaxDP=8.34D-04 DE=-1.22D-06 OVMax= 2.95D-03

 Cycle 115  Pass 1  IDiag  1:
 RMSU=  1.44D-06    CP:  1.00D+00  3.00D+00  3.00D+00  3.00D+00  3.00D+00
                    CP:  3.00D+00 -3.00D+00  3.00D+00  3.00D+00  3.00D+00
                    CP:  1.41D+00  2.29D+00  3.00D+00  2.04D+00
 E= -1788.07972616993     Delta-E=       -0.000000615119 Rises=F Damp=F
 DIIS: error= 1.89D-05 at cycle 115 NSaved=  20.
 NSaved=20 IEnMin=20 EnMin= -1788.07972616993     IErMin=20 ErrMin= 1.89D-05
 ErrMax= 1.89D-05  0.00D+00 EMaxC= 1.00D-01 BMatC= 1.51D-06 BMatP= 5.15D-07
 IDIUse=1 WtCom= 1.00D+00 WtEn= 0.00D+00
 Coeff-Com: -0.979D-03 0.962D-01-0.486D-01-0.106D+00 0.945D-01 0.724D-03
 Coeff-Com: -0.670D-01 0.265D+00-0.144D+00-0.973D-01-0.148D+00 0.460D-01
 Coeff-Com: -0.103D+01 0.835D+00 0.351D+00 0.162D+00-0.184D+00-0.903D+00
 Coeff-Com:  0.411D+00 0.146D+01
 Coeff:     -0.979D-03 0.962D-01-0.486D-01-0.106D+00 0.945D-01 0.724D-03
 Coeff:     -0.670D-01 0.265D+00-0.144D+00-0.973D-01-0.148D+00 0.460D-01
 Coeff:     -0.103D+01 0.835D+00 0.351D+00 0.162D+00-0.184D+00-0.903D+00
 Coeff:      0.411D+00 0.146D+01
 Gap=     0.350 Goal=   None    Shift=    0.000
 Gap=     0.125 Goal=   None    Shift=    0.000
 RMSDP=1.08D-05 MaxDP=9.65D-04 DE=-6.15D-07 OVMax= 4.59D-03

 Cycle 116  Pass 1  IDiag  1:
 RMSU=  4.08D-06    CP:  1.00D+00  3.00D+00  3.00D+00  3.00D+00  3.00D+00
                    CP:  3.00D+00 -3.00D+00  3.00D+00  2.74D+00  3.00D+00
                    CP:  1.59D+00  3.00D+00  3.00D+00  2.82D+00  3.00D+00
 E= -1788.07972731338     Delta-E=       -0.000001143449 Rises=F Damp=F
 DIIS: error= 1.66D-05 at cycle 116 NSaved=  20.
 NSaved=20 IEnMin=20 EnMin= -1788.07972731338     IErMin=20 ErrMin= 1.66D-05
 ErrMax= 1.66D-05  0.00D+00 EMaxC= 1.00D-01 BMatC= 1.16D-06 BMatP= 5.15D-07
 IDIUse=1 WtCom= 1.00D+00 WtEn= 0.00D+00
 Coeff-Com:  0.512D-03 0.971D-01-0.124D+00-0.441D-01 0.336D-01-0.692D-01
 Coeff-Com:  0.581D+00-0.664D+00 0.302D+00-0.151D+00-0.651D+00 0.840D+00
 Coeff-Com: -0.421D+00 0.123D+00 0.448D+00 0.396D+00-0.966D+00-0.396D+00
 Coeff-Com:  0.385D+00 0.128D+01
 Coeff:      0.512D-03 0.971D-01-0.124D+00-0.441D-01 0.336D-01-0.692D-01
 Coeff:      0.581D+00-0.664D+00 0.302D+00-0.151D+00-0.651D+00 0.840D+00
 Coeff:     -0.421D+00 0.123D+00 0.448D+00 0.396D+00-0.966D+00-0.396D+00
 Coeff:      0.385D+00 0.128D+01
 Gap=     0.349 Goal=   None    Shift=    0.000
 Gap=     0.126 Goal=   None    Shift=    0.000
 RMSDP=1.04D-05 MaxDP=8.62D-04 DE=-1.14D-06 OVMax= 4.55D-03

 Cycle 117  Pass 1  IDiag  1:
 RMSU=  4.01D-06    CP:  1.00D+00  3.00D+00  3.00D+00  3.00D+00  3.00D+00
                    CP:  3.00D+00 -3.00D+00  3.00D+00  1.06D+00  3.00D+00
                    CP:  1.80D+00  3.00D+00  3.00D+00  3.00D+00  3.00D+00
                    CP:  2.33D+00
 E= -1788.07972789791     Delta-E=       -0.000000584530 Rises=F Damp=F
 DIIS: error= 5.96D-06 at cycle 117 NSaved=  20.
 NSaved=20 IEnMin=20 EnMin= -1788.07972789791     IErMin=20 ErrMin= 5.96D-06
 ErrMax= 5.96D-06  0.00D+00 EMaxC= 1.00D-01 BMatC= 1.40D-07 BMatP= 5.15D-07
 IDIUse=1 WtCom= 1.00D+00 WtEn= 0.00D+00
 Coeff-Com:  0.158D-01 0.381D-02-0.639D-01 0.368D-01 0.102D-01-0.196D+00
 Coeff-Com:  0.132D+00 0.891D-01 0.421D-01-0.214D+00 0.706D+00-0.564D+00
 Coeff-Com:  0.106D-01 0.231D+00 0.998D-01-0.200D+00-0.195D+00-0.429D+00
 Coeff-Com:  0.359D+00 0.113D+01
 Coeff:      0.158D-01 0.381D-02-0.639D-01 0.368D-01 0.102D-01-0.196D+00
 Coeff:      0.132D+00 0.891D-01 0.421D-01-0.214D+00 0.706D+00-0.564D+00
 Coeff:      0.106D-01 0.231D+00 0.998D-01-0.200D+00-0.195D+00-0.429D+00
 Coeff:      0.359D+00 0.113D+01
 Gap=     0.349 Goal=   None    Shift=    0.000
 Gap=     0.126 Goal=   None    Shift=    0.000
 RMSDP=7.36D-06 MaxDP=5.44D-04 DE=-5.85D-07 OVMax= 3.56D-03

 Cycle 118  Pass 1  IDiag  1:
 RMSU=  2.71D-06    CP:  1.00D+00  3.00D+00  3.00D+00  3.00D+00  3.00D+00
                    CP:  3.00D+00 -3.00D+00  3.00D+00 -8.40D-02  3.00D+00
                    CP:  1.61D+00  3.00D+00  3.00D+00  3.00D+00  3.00D+00
                    CP:  2.51D+00  1.24D+00
 E= -1788.07972807287     Delta-E=       -0.000000174961 Rises=F Damp=F
 DIIS: error= 6.15D-06 at cycle 118 NSaved=  20.
 NSaved=20 IEnMin=20 EnMin= -1788.07972807287     IErMin=19 ErrMin= 5.96D-06
 ErrMax= 6.15D-06  0.00D+00 EMaxC= 1.00D-01 BMatC= 1.41D-07 BMatP= 1.40D-07
 IDIUse=1 WtCom= 1.00D+00 WtEn= 0.00D+00
 Coeff-Com:  0.237D-01-0.285D-02-0.135D-01 0.142D-01-0.230D+00 0.216D+00
 Coeff-Com: -0.186D-01 0.360D-01 0.406D-02 0.139D+00-0.147D+00-0.127D-01
 Coeff-Com: -0.967D-02-0.413D-01 0.141D+00 0.254D-01-0.253D+00-0.150D+00
 Coeff-Com:  0.421D+00 0.858D+00
 Coeff:      0.237D-01-0.285D-02-0.135D-01 0.142D-01-0.230D+00 0.216D+00
 Coeff:     -0.186D-01 0.360D-01 0.406D-02 0.139D+00-0.147D+00-0.127D-01
 Coeff:     -0.967D-02-0.413D-01 0.141D+00 0.254D-01-0.253D+00-0.150D+00
 Coeff:      0.421D+00 0.858D+00
 Gap=     0.350 Goal=   None    Shift=    0.000
 Gap=     0.126 Goal=   None    Shift=    0.000
 RMSDP=2.06D-06 MaxDP=1.42D-04 DE=-1.75D-07 OVMax= 9.47D-04

 Cycle 119  Pass 1  IDiag  1:
 RMSU=  2.15D-07    CP:  1.00D+00  3.00D+00  3.00D+00  3.00D+00  3.00D+00
                    CP:  3.00D+00 -3.00D+00  3.00D+00 -2.66D-01  3.00D+00
                    CP:  1.56D+00  3.00D+00  3.00D+00  3.00D+00  3.00D+00
                    CP:  2.53D+00  1.39D+00  1.17D+00
 E= -1788.07972798092     Delta-E=        0.000000091953 Rises=F Damp=F
 DIIS: error= 1.04D-05 at cycle 119 NSaved=  20.
 NSaved=20 IEnMin=19 EnMin= -1788.07972807287     IErMin=18 ErrMin= 5.96D-06
 ErrMax= 1.04D-05  0.00D+00 EMaxC= 1.00D-01 BMatC= 4.14D-07 BMatP= 1.40D-07
 IDIUse=1 WtCom= 1.00D+00 WtEn= 0.00D+00
 Coeff-Com:  0.217D-01-0.186D-01 0.373D-03-0.106D-01-0.291D-01 0.332D-01
 Coeff-Com:  0.139D-01 0.348D-01-0.568D-01 0.445D-01-0.512D-01-0.986D-01
 Coeff-Com: -0.364D-01 0.205D+00 0.771D-01-0.948D-01-0.216D+00 0.336D-02
 Coeff-Com:  0.302D+00 0.877D+00
 Coeff:      0.217D-01-0.186D-01 0.373D-03-0.106D-01-0.291D-01 0.332D-01
 Coeff:      0.139D-01 0.348D-01-0.568D-01 0.445D-01-0.512D-01-0.986D-01
 Coeff:     -0.364D-01 0.205D+00 0.771D-01-0.948D-01-0.216D+00 0.336D-02
 Coeff:      0.302D+00 0.877D+00
 Gap=     0.349 Goal=   None    Shift=    0.000
 Gap=     0.126 Goal=   None    Shift=    0.000
 RMSDP=3.04D-06 MaxDP=2.65D-04 DE= 9.20D-08 OVMax= 1.57D-03

 Cycle 120  Pass 1  IDiag  1:
 RMSU=  1.65D-07    CP:  1.00D+00  3.00D+00  3.00D+00  3.00D+00  3.00D+00
                    CP:  3.00D+00 -3.00D+00  3.00D+00 -4.30D-01  3.00D+00
                    CP:  1.64D+00  3.00D+00  3.00D+00  3.00D+00  3.00D+00
                    CP:  2.77D+00  1.54D+00  1.10D+00  1.20D+00
 E= -1788.07972812900     Delta-E=       -0.000000148083 Rises=F Damp=F
 DIIS: error= 1.98D-06 at cycle 120 NSaved=  20.
 NSaved=20 IEnMin=20 EnMin= -1788.07972812900     IErMin=20 ErrMin= 1.98D-06
 ErrMax= 1.98D-06  0.00D+00 EMaxC= 1.00D-01 BMatC= 1.62D-08 BMatP= 1.40D-07
 IDIUse=1 WtCom= 1.00D+00 WtEn= 0.00D+00
 Coeff-Com: -0.456D-02 0.127D-02-0.434D-01 0.297D-01 0.186D-01 0.141D-01
 Coeff-Com:  0.294D-01-0.473D-01 0.183D-01-0.238D-02-0.268D-01-0.477D-01
 Coeff-Com:  0.693D-01 0.538D-01-0.246D-01-0.947D-01-0.112D-01-0.821D-01
 Coeff-Com:  0.122D+00 0.103D+01
 Coeff:     -0.456D-02 0.127D-02-0.434D-01 0.297D-01 0.186D-01 0.141D-01
 Coeff:      0.294D-01-0.473D-01 0.183D-01-0.238D-02-0.268D-01-0.477D-01
 Coeff:      0.693D-01 0.538D-01-0.246D-01-0.947D-01-0.112D-01-0.821D-01
 Coeff:      0.122D+00 0.103D+01
 Gap=     0.349 Goal=   None    Shift=    0.000
 Gap=     0.126 Goal=   None    Shift=    0.000
 RMSDP=1.06D-06 MaxDP=9.06D-05 DE=-1.48D-07 OVMax= 5.27D-04

 Cycle 121  Pass 1  IDiag  1:
 Restarting incremental Fock formation.
 E= -1788.07972813341     Delta-E=       -0.000000004406 Rises=F Damp=F
 DIIS: error= 6.51D-07 at cycle 121 NSaved=  20.
 NSaved=20 IEnMin=20 EnMin= -1788.07972813341     IErMin=20 ErrMin= 6.51D-07
 ErrMax= 6.51D-07  0.00D+00 EMaxC= 1.00D-01 BMatC= 1.94D-09 BMatP= 1.62D-08
 IDIUse=1 WtCom= 1.00D+00 WtEn= 0.00D+00
 Coeff-Com: -0.515D-02 0.636D-02-0.129D-03-0.368D-02-0.694D-02-0.235D-03
 Coeff-Com: -0.372D-01 0.306D-01 0.278D-01 0.215D-01-0.319D-02-0.666D-01
 Coeff-Com:  0.152D-02 0.648D-01 0.303D-01-0.537D-01-0.152D+00-0.143D+00
 Coeff-Com:  0.309D+00 0.980D+00
 Coeff:     -0.515D-02 0.636D-02-0.129D-03-0.368D-02-0.694D-02-0.235D-03
 Coeff:     -0.372D-01 0.306D-01 0.278D-01 0.215D-01-0.319D-02-0.666D-01
 Coeff:      0.152D-02 0.648D-01 0.303D-01-0.537D-01-0.152D+00-0.143D+00
 Coeff:      0.309D+00 0.980D+00
 Gap=     0.349 Goal=   None    Shift=    0.000
 Gap=     0.126 Goal=   None    Shift=    0.000
 RMSDP=2.39D-07 MaxDP=1.92D-05 DE=-4.41D-09 OVMax= 1.13D-04

 Cycle 122  Pass 1  IDiag  1:
 RMSU=  2.39D-07    CP:  1.00D+00
 E= -1788.07972813493     Delta-E=       -0.000000001522 Rises=F Damp=F
 DIIS: error= 6.22D-07 at cycle 122 NSaved=  20.
 NSaved=20 IEnMin=20 EnMin= -1788.07972813493     IErMin=20 ErrMin= 6.22D-07
 ErrMax= 6.22D-07  0.00D+00 EMaxC= 1.00D-01 BMatC= 1.55D-09 BMatP= 1.94D-09
 IDIUse=1 WtCom= 1.00D+00 WtEn= 0.00D+00
 Coeff-Com:  0.681D-03 0.397D-01-0.364D-01-0.507D-02-0.685D-02-0.333D-02
 Coeff-Com:  0.676D-02 0.344D-02 0.214D-02 0.144D-01-0.256D-01-0.207D-01
 Coeff-Com:  0.315D-01 0.330D-01-0.320D-01 0.153D-01-0.190D-01-0.349D+00
 Coeff-Com:  0.139D+00 0.121D+01
 Coeff:      0.681D-03 0.397D-01-0.364D-01-0.507D-02-0.685D-02-0.333D-02
 Coeff:      0.676D-02 0.344D-02 0.214D-02 0.144D-01-0.256D-01-0.207D-01
 Coeff:      0.315D-01 0.330D-01-0.320D-01 0.153D-01-0.190D-01-0.349D+00
 Coeff:      0.139D+00 0.121D+01
 Gap=     0.349 Goal=   None    Shift=    0.000
 Gap=     0.126 Goal=   None    Shift=    0.000
 RMSDP=5.85D-07 MaxDP=4.98D-05 DE=-1.52D-09 OVMax= 3.13D-04

 Cycle 123  Pass 1  IDiag  1:
 RMSU=  2.27D-07    CP:  1.00D+00  3.00D+00
 E= -1788.07972813631     Delta-E=       -0.000000001386 Rises=F Damp=F
 DIIS: error= 2.42D-07 at cycle 123 NSaved=  20.
 NSaved=20 IEnMin=20 EnMin= -1788.07972813631     IErMin=20 ErrMin= 2.42D-07
 ErrMax= 2.42D-07  0.00D+00 EMaxC= 1.00D-01 BMatC= 2.57D-10 BMatP= 1.55D-09
 IDIUse=1 WtCom= 1.00D+00 WtEn= 0.00D+00
 Coeff-Com:  0.125D-01-0.724D-02-0.371D-02-0.133D-02 0.977D-03-0.188D-02
 Coeff-Com: -0.248D-02-0.185D-02 0.750D-02 0.292D-02-0.102D-01-0.353D-02
 Coeff-Com:  0.980D-02 0.197D-02 0.429D-01-0.258D-01-0.159D+00-0.103D+00
 Coeff-Com:  0.154D+00 0.109D+01
 Coeff:      0.125D-01-0.724D-02-0.371D-02-0.133D-02 0.977D-03-0.188D-02
 Coeff:     -0.248D-02-0.185D-02 0.750D-02 0.292D-02-0.102D-01-0.353D-02
 Coeff:      0.980D-02 0.197D-02 0.429D-01-0.258D-01-0.159D+00-0.103D+00
 Coeff:      0.154D+00 0.109D+01
 Gap=     0.349 Goal=   None    Shift=    0.000
 Gap=     0.126 Goal=   None    Shift=    0.000
 RMSDP=6.10D-08 MaxDP=4.68D-06 DE=-1.39D-09 OVMax= 2.00D-05

 Cycle 124  Pass 1  IDiag  1:
 RMSU=  2.62D-08    CP:  1.00D+00  3.00D+00  7.57D-01
 E= -1788.07972813649     Delta-E=       -0.000000000182 Rises=F Damp=F
 DIIS: error= 1.02D-07 at cycle 124 NSaved=  20.
 NSaved=20 IEnMin=20 EnMin= -1788.07972813649     IErMin=20 ErrMin= 1.02D-07
 ErrMax= 1.02D-07  0.00D+00 EMaxC= 1.00D-01 BMatC= 4.94D-11 BMatP= 2.57D-10
 IDIUse=1 WtCom= 1.00D+00 WtEn= 0.00D+00
 Coeff-Com:  0.252D-03-0.876D-03 0.167D-02 0.503D-02-0.447D-02-0.229D-02
 Coeff-Com: -0.506D-02-0.755D-02 0.199D-01 0.504D-02-0.151D-01-0.117D-01
 Coeff-Com:  0.108D-01 0.330D-01-0.630D-02 0.332D-01-0.994D-01-0.422D+00
 Coeff-Com:  0.522D+00 0.944D+00
 Coeff:      0.252D-03-0.876D-03 0.167D-02 0.503D-02-0.447D-02-0.229D-02
 Coeff:     -0.506D-02-0.755D-02 0.199D-01 0.504D-02-0.151D-01-0.117D-01
 Coeff:      0.108D-01 0.330D-01-0.630D-02 0.332D-01-0.994D-01-0.422D+00
 Coeff:      0.522D+00 0.944D+00
 Gap=     0.349 Goal=   None    Shift=    0.000
 Gap=     0.126 Goal=   None    Shift=    0.000
 RMSDP=5.89D-08 MaxDP=6.68D-06 DE=-1.82D-10 OVMax= 2.36D-05

 Cycle 125  Pass 1  IDiag  1:
 RMSU=  5.32D-08    CP:  1.00D+00  3.00D+00  7.08D-01  1.87D+00
 E= -1788.07972813651     Delta-E=       -0.000000000013 Rises=F Damp=F
 DIIS: error= 5.46D-08 at cycle 125 NSaved=  20.
 NSaved=20 IEnMin=20 EnMin= -1788.07972813651     IErMin=20 ErrMin= 5.46D-08
 ErrMax= 5.46D-08  0.00D+00 EMaxC= 1.00D-01 BMatC= 1.39D-11 BMatP= 4.94D-11
 IDIUse=1 WtCom= 1.00D+00 WtEn= 0.00D+00
 Coeff-Com: -0.122D-02 0.181D-02 0.462D-02-0.376D-02-0.109D-02-0.144D-02
 Coeff-Com: -0.260D-02 0.913D-02-0.915D-03-0.748D-02-0.237D-02 0.464D-02
 Coeff-Com:  0.106D-01 0.323D-02-0.390D-02 0.269D-01-0.540D-01-0.256D+00
 Coeff-Com:  0.325D-02 0.127D+01
 Coeff:     -0.122D-02 0.181D-02 0.462D-02-0.376D-02-0.109D-02-0.144D-02
 Coeff:     -0.260D-02 0.913D-02-0.915D-03-0.748D-02-0.237D-02 0.464D-02
 Coeff:      0.106D-01 0.323D-02-0.390D-02 0.269D-01-0.540D-01-0.256D+00
 Coeff:      0.325D-02 0.127D+01
 Gap=     0.349 Goal=   None    Shift=    0.000
 Gap=     0.126 Goal=   None    Shift=    0.000
 RMSDP=2.58D-08 MaxDP=2.11D-06 DE=-1.27D-11 OVMax= 8.00D-06

 Cycle 126  Pass 1  IDiag  1:
 RMSU=  1.10D-08    CP:  1.00D+00  3.00D+00  7.19D-01  2.56D+00  1.27D+00
 E= -1788.07972813644     Delta-E=        0.000000000065 Rises=F Damp=F
 DIIS: error= 7.60D-08 at cycle 126 NSaved=  20.
 NSaved=20 IEnMin=19 EnMin= -1788.07972813651     IErMin=19 ErrMin= 5.46D-08
 ErrMax= 7.60D-08  0.00D+00 EMaxC= 1.00D-01 BMatC= 2.47D-11 BMatP= 1.39D-11
 IDIUse=1 WtCom= 1.00D+00 WtEn= 0.00D+00
 Coeff-Com: -0.402D-03-0.137D-03 0.116D-02-0.528D-03 0.187D-02 0.114D-02
 Coeff-Com: -0.483D-02-0.193D-02 0.376D-02 0.445D-02-0.357D-02-0.455D-02
 Coeff-Com: -0.501D-02-0.360D-01 0.867D-01 0.162D+00-0.309D+00-0.305D+00
 Coeff-Com:  0.435D+00 0.976D+00
 Coeff:     -0.402D-03-0.137D-03 0.116D-02-0.528D-03 0.187D-02 0.114D-02
 Coeff:     -0.483D-02-0.193D-02 0.376D-02 0.445D-02-0.357D-02-0.455D-02
 Coeff:     -0.501D-02-0.360D-01 0.867D-01 0.162D+00-0.309D+00-0.305D+00
 Coeff:      0.435D+00 0.976D+00
 Gap=     0.349 Goal=   None    Shift=    0.000
 Gap=     0.126 Goal=   None    Shift=    0.000
 RMSDP=5.17D-08 MaxDP=4.78D-06 DE= 6.46D-11 OVMax= 2.73D-05

 Cycle 127  Pass 1  IDiag  1:
 RMSU=  1.54D-08    CP:  1.00D+00  3.00D+00  5.32D-01  2.63D+00  9.68D-01
                    CP: -7.31D-01
 E= -1788.07972813655     Delta-E=       -0.000000000106 Rises=F Damp=F
 DIIS: error= 2.46D-08 at cycle 127 NSaved=  20.
 NSaved=20 IEnMin=20 EnMin= -1788.07972813655     IErMin=20 ErrMin= 2.46D-08
 ErrMax= 2.46D-08  0.00D+00 EMaxC= 1.00D-01 BMatC= 2.80D-12 BMatP= 1.39D-11
 IDIUse=1 WtCom= 1.00D+00 WtEn= 0.00D+00
 Coeff-Com: -0.227D-03-0.171D-03 0.872D-03 0.814D-03-0.523D-03-0.244D-02
 Coeff-Com:  0.352D-03 0.210D-02 0.105D-02-0.634D-03-0.316D-02-0.540D-02
 Coeff-Com: -0.266D-02 0.399D-01 0.323D-01-0.959D-01-0.107D-01-0.288D-01
 Coeff-Com:  0.244D+00 0.829D+00
 Coeff:     -0.227D-03-0.171D-03 0.872D-03 0.814D-03-0.523D-03-0.244D-02
 Coeff:      0.352D-03 0.210D-02 0.105D-02-0.634D-03-0.316D-02-0.540D-02
 Coeff:     -0.266D-02 0.399D-01 0.323D-01-0.959D-01-0.107D-01-0.288D-01
 Coeff:      0.244D+00 0.829D+00
 Gap=     0.349 Goal=   None    Shift=    0.000
 Gap=     0.126 Goal=   None    Shift=    0.000
 RMSDP=1.48D-08 MaxDP=1.24D-06 DE=-1.06D-10 OVMax= 8.01D-06

 Cycle 128  Pass 1  IDiag  1:
 RMSU=  1.71D-09    CP:  1.00D+00  3.00D+00  4.89D-01  2.59D+00  7.85D-01
                    CP: -1.13D+00  1.18D+00
 E= -1788.07972813653     Delta-E=        0.000000000022 Rises=F Damp=F
 DIIS: error= 2.10D-08 at cycle 128 NSaved=  20.
 NSaved=20 IEnMin=19 EnMin= -1788.07972813655     IErMin=20 ErrMin= 2.10D-08
 ErrMax= 2.10D-08  0.00D+00 EMaxC= 1.00D-01 BMatC= 5.59D-13 BMatP= 2.80D-12
 IDIUse=1 WtCom= 1.00D+00 WtEn= 0.00D+00
 Coeff-Com: -0.307D-03 0.780D-04-0.914D-03-0.106D-03 0.101D-02 0.127D-02
 Coeff-Com: -0.165D-03-0.144D-02 0.407D-03 0.156D-02 0.332D-02-0.244D-02
 Coeff-Com: -0.204D-01-0.244D-01 0.746D-01 0.143D+00-0.338D+00-0.324D+00
 Coeff-Com:  0.521D+00 0.967D+00
 Coeff:     -0.307D-03 0.780D-04-0.914D-03-0.106D-03 0.101D-02 0.127D-02
 Coeff:     -0.165D-03-0.144D-02 0.407D-03 0.156D-02 0.332D-02-0.244D-02
 Coeff:     -0.204D-01-0.244D-01 0.746D-01 0.143D+00-0.338D+00-0.324D+00
 Coeff:      0.521D+00 0.967D+00
 Gap=     0.349 Goal=   None    Shift=    0.000
 Gap=     0.126 Goal=   None    Shift=    0.000
 RMSDP=3.43D-08 MaxDP=3.11D-06 DE= 2.18D-11 OVMax= 1.88D-05

 >>>>>>>>>> Convergence criterion not met.
 Error on total polarization charges =  0.00342
 SCF Done:  E(UCAM-B3LYP) =  -1788.07972814     A.U. after  129 cycles
            NFock=128  Conv=0.34D-07     -V/T= 2.0077
 <Sx>= 0.0000 <Sy>= 0.0000 <Sz>= 0.5000 <S**2>= 0.7741 S= 0.5120
 <L.S>= 0.000000000000E+00
 KE= 1.774352017051D+03 PE=-1.055821901137D+04 EE= 3.809052400312D+03
 Annihilation of the first spin contaminant:
 S**2 before annihilation     0.7741,   after     0.7503
 Convergence failure -- run terminated.
 Error termination via Lnk1e in /home/k0335/k033513/app/g09/l502.exe at Sun Mar  3 18:03:41 2024.
 Job cpu time:       0 days  2 hours 15 minutes 16.9 seconds.
 File lengths (MBytes):  RWF=    330 Int=      0 D2E=      0 Chk=      6 Scr=      1
