 Entering Gaussian System, Link 0=g09
 Initial command:
 /home/k0335/k033513/app/g09/l1.exe "/home/k0335/k033513/app/g09/scratch/Gau-377692.inp" -scrdir="/home/k0335/k033513/app/g09/scratch/"
 Default is to use a total of  36 processors:
                               36 via shared-memory
                                1 via Linda
 Entering Link 1 = /home/k0335/k033513/app/g09/l1.exe PID=    377693.
  
 Copyright (c) 1988,1990,1992,1993,1995,1998,2003,2009,2013,
            Gaussian, Inc.  All Rights Reserved.
  
 This is part of the Gaussian(R) 09 program.  It is based on
 the Gaussian(R) 03 system (copyright 2003, Gaussian, Inc.),
 the Gaussian(R) 98 system (copyright 1998, Gaussian, Inc.),
 the Gaussian(R) 94 system (copyright 1995, Gaussian, Inc.),
 the Gaussian 92(TM) system (copyright 1992, Gaussian, Inc.),
 the Gaussian 90(TM) system (copyright 1990, Gaussian, Inc.),
 the Gaussian 88(TM) system (copyright 1988, Gaussian, Inc.),
 the Gaussian 86(TM) system (copyright 1986, Carnegie Mellon
 University), and the Gaussian 82(TM) system (copyright 1983,
 Carnegie Mellon University). Gaussian is a federally registered
 trademark of Gaussian, Inc.
  
 This software contains proprietary and confidential information,
 including trade secrets, belonging to Gaussian, Inc.
  
 This software is provided under written license and may be
 used, copied, transmitted, or stored only in accord with that
 written license.
  
 The following legend is applicable only to US Government
 contracts under FAR:
  
                    RESTRICTED RIGHTS LEGEND
  
 Use, reproduction and disclosure by the US Government is
 subject to restrictions as set forth in subparagraphs (a)
 and (c) of the Commercial Computer Software - Restricted
 Rights clause in FAR 52.227-19.
  
 Gaussian, Inc.
 340 Quinnipiac St., Bldg. 40, Wallingford CT 06492
  
  
 ---------------------------------------------------------------
 Warning -- This program may not be used in any manner that
 competes with the business of Gaussian, Inc. or will provide
 assistance to any competitor of Gaussian, Inc.  The licensee
 of this program is prohibited from giving any competitor of
 Gaussian, Inc. access to this program.  By using this program,
 the user acknowledges that Gaussian, Inc. is engaged in the
 business of creating and licensing software in the field of
 computational chemistry and represents and warrants to the
 licensee that it is not a competitor of Gaussian, Inc. and that
 it will not use this program in any manner prohibited above.
 ---------------------------------------------------------------
  

 Cite this work as:
 Gaussian 09, Revision D.01,
 M. J. Frisch, G. W. Trucks, H. B. Schlegel, G. E. Scuseria, 
 M. A. Robb, J. R. Cheeseman, G. Scalmani, V. Barone, B. Mennucci, 
 G. A. Petersson, H. Nakatsuji, M. Caricato, X. Li, H. P. Hratchian, 
 A. F. Izmaylov, J. Bloino, G. Zheng, J. L. Sonnenberg, M. Hada, 
 M. Ehara, K. Toyota, R. Fukuda, J. Hasegawa, M. Ishida, T. Nakajima, 
 Y. Honda, O. Kitao, H. Nakai, T. Vreven, J. A. Montgomery, Jr., 
 J. E. Peralta, F. Ogliaro, M. Bearpark, J. J. Heyd, E. Brothers, 
 K. N. Kudin, V. N. Staroverov, T. Keith, R. Kobayashi, J. Normand, 
 K. Raghavachari, A. Rendell, J. C. Burant, S. S. Iyengar, J. Tomasi, 
 M. Cossi, N. Rega, J. M. Millam, M. Klene, J. E. Knox, J. B. Cross, 
 V. Bakken, C. Adamo, J. Jaramillo, R. Gomperts, R. E. Stratmann, 
 O. Yazyev, A. J. Austin, R. Cammi, C. Pomelli, J. W. Ochterski, 
 R. L. Martin, K. Morokuma, V. G. Zakrzewski, G. A. Voth, 
 P. Salvador, J. J. Dannenberg, S. Dapprich, A. D. Daniels, 
 O. Farkas, J. B. Foresman, J. V. Ortiz, J. Cioslowski, 
 and D. J. Fox, Gaussian, Inc., Wallingford CT, 2013.
 
 ******************************************
 Gaussian 09:  ES64L-G09RevD.01 24-Apr-2013
                 3-Mar-2024 
 ******************************************
 %nprocshared=24
 Will use up to   24 processors via shared memory.
 %mem=40GB
 %rwf=A230421851/A230421851_0.rwf
 %nosave
 %chk=A230421851/A230421851_0.chk
 ----------------------------------------------------------------------
 #p CAM-B3LYP/6-31G(d,p) SCRF=(PCM,Solvent=Generic,Read) NoSymm out=wfn
 ----------------------------------------------------------------------
 1/38=1,40=2/1;
 2/12=2,15=1,17=6,18=5,40=1/2;
 3/5=1,6=6,7=101,11=2,16=1,25=1,30=1,70=2203,72=-2,74=-40/1,2,3;
 4//1;
 5/5=2,38=5/2;
 6/7=2,8=2,9=2,10=2,28=1/1;
 99/5=1,6=100,9=1/99;
 Leave Link    1 at Sun Mar  3 18:08:55 2024, MaxMem=  5368709120 cpu:         2.0
 (Enter /home/k0335/k033513/app/g09/l101.exe)
 ------------------
 Title A230421851_0
 ------------------
 Symbolic Z-matrix:
 Charge =  0 Multiplicity = 1
 C                     0.33167   4.52306  -0.68333 
 C                     0.19828   3.1707   -1.36891 
 N                     0.05295   2.08612  -0.39514 
 C                    -1.21723   1.74971   0.02389 
 O                    -2.21108   2.32801  -0.40881 
 N                    -1.31303   0.70791   0.90802 
 C                    -2.64011   0.23998   1.30032 
 F                    -3.47882   1.30547   1.4589 
 F                    -2.53026  -0.23797   2.58528 
 C                    -3.34446  -0.85811   0.45267 
 F                    -4.49829  -1.20006   1.11315 
 O                    -2.5391   -2.03995   0.43001 
 C                    -3.05278  -3.06713  -0.37372 
 F                    -2.72488  -2.81457  -1.65304 
 F                    -2.48365  -4.22982  -0.00817 
 F                    -4.38397  -3.17512  -0.25221 
 C                    -3.70852  -0.26997  -0.91148 
 F                    -4.45501  -1.13021  -1.6449 
 F                    -2.59186  -0.02103  -1.63799 
 F                    -4.42421   0.86722  -0.82595 
 C                    -0.22445  -0.0625    1.23522 
 O                    -0.3405   -1.20818   1.65789 
 N                     1.00815   0.5038    1.02977 
 C                     2.17901  -0.24512   1.47279 
 F                     1.92185  -0.7416    2.71696 
 F                     3.20384   0.62883   1.69114 
 C                     2.64385  -1.38017   0.522 
 F                     1.66686  -2.33075   0.44492 
 O                     2.77076  -0.8695   -0.81005 
 C                     3.42107  -1.75311  -1.6847 
 F                     4.74249  -1.71674  -1.45464 
 F                     2.9562   -3.00311  -1.5404 
 F                     3.18835  -1.34795  -2.94679 
 C                     3.90037  -1.97095   1.17786 
 F                     3.69655  -2.35382   2.45677 
 F                     4.92905  -1.09395   1.17683 
 F                     4.33129  -3.0742    0.51924 
 C                     1.19764   1.49034   0.09583 
 O                     2.31363   1.81088  -0.30934 
 H                     0.43857   5.31773  -1.42798 
 H                     1.20819   4.54793  -0.0277 
 H                    -0.54902   4.74341  -0.0713 
 H                     1.07971   2.98997  -1.99438 
 H                    -0.66908   3.18453  -2.03854 
 
 NAtoms=     44 NQM=       44 NQMF=       0 NMMI=      0 NMMIF=      0
                NMic=       0 NMicF=      0.
                    Isotopes and Nuclear Properties:
 (Nuclear quadrupole moments (NQMom) in fm**2, nuclear magnetic moments (NMagM)
  in nuclear magnetons)

  Atom         1           2           3           4           5           6           7           8           9          10
 IAtWgt=          12          12          14          12          16          14          12          19          19          12
 AtmWgt=  12.0000000  12.0000000  14.0030740  12.0000000  15.9949146  14.0030740  12.0000000  18.9984033  18.9984033  12.0000000
 NucSpn=           0           0           2           0           0           2           0           1           1           0
 AtZEff=   0.0000000   0.0000000   0.0000000   0.0000000   0.0000000   0.0000000   0.0000000   0.0000000   0.0000000   0.0000000
 NQMom=    0.0000000   0.0000000   2.0440000   0.0000000   0.0000000   2.0440000   0.0000000   0.0000000   0.0000000   0.0000000
 NMagM=    0.0000000   0.0000000   0.4037610   0.0000000   0.0000000   0.4037610   0.0000000   2.6288670   2.6288670   0.0000000
 AtZNuc=   6.0000000   6.0000000   7.0000000   6.0000000   8.0000000   7.0000000   6.0000000   9.0000000   9.0000000   6.0000000

  Atom        11          12          13          14          15          16          17          18          19          20
 IAtWgt=          19          16          12          19          19          19          12          19          19          19
 AtmWgt=  18.9984033  15.9949146  12.0000000  18.9984033  18.9984033  18.9984033  12.0000000  18.9984033  18.9984033  18.9984033
 NucSpn=           1           0           0           1           1           1           0           1           1           1
 AtZEff=   0.0000000   0.0000000   0.0000000   0.0000000   0.0000000   0.0000000   0.0000000   0.0000000   0.0000000   0.0000000
 NQMom=    0.0000000   0.0000000   0.0000000   0.0000000   0.0000000   0.0000000   0.0000000   0.0000000   0.0000000   0.0000000
 NMagM=    2.6288670   0.0000000   0.0000000   2.6288670   2.6288670   2.6288670   0.0000000   2.6288670   2.6288670   2.6288670
 AtZNuc=   9.0000000   8.0000000   6.0000000   9.0000000   9.0000000   9.0000000   6.0000000   9.0000000   9.0000000   9.0000000

  Atom        21          22          23          24          25          26          27          28          29          30
 IAtWgt=          12          16          14          12          19          19          12          19          16          12
 AtmWgt=  12.0000000  15.9949146  14.0030740  12.0000000  18.9984033  18.9984033  12.0000000  18.9984033  15.9949146  12.0000000
 NucSpn=           0           0           2           0           1           1           0           1           0           0
 AtZEff=   0.0000000   0.0000000   0.0000000   0.0000000   0.0000000   0.0000000   0.0000000   0.0000000   0.0000000   0.0000000
 NQMom=    0.0000000   0.0000000   2.0440000   0.0000000   0.0000000   0.0000000   0.0000000   0.0000000   0.0000000   0.0000000
 NMagM=    0.0000000   0.0000000   0.4037610   0.0000000   2.6288670   2.6288670   0.0000000   2.6288670   0.0000000   0.0000000
 AtZNuc=   6.0000000   8.0000000   7.0000000   6.0000000   9.0000000   9.0000000   6.0000000   9.0000000   8.0000000   6.0000000

  Atom        31          32          33          34          35          36          37          38          39          40
 IAtWgt=          19          19          19          12          19          19          19          12          16           1
 AtmWgt=  18.9984033  18.9984033  18.9984033  12.0000000  18.9984033  18.9984033  18.9984033  12.0000000  15.9949146   1.0078250
 NucSpn=           1           1           1           0           1           1           1           0           0           1
 AtZEff=   0.0000000   0.0000000   0.0000000   0.0000000   0.0000000   0.0000000   0.0000000   0.0000000   0.0000000   0.0000000
 NQMom=    0.0000000   0.0000000   0.0000000   0.0000000   0.0000000   0.0000000   0.0000000   0.0000000   0.0000000   0.0000000
 NMagM=    2.6288670   2.6288670   2.6288670   0.0000000   2.6288670   2.6288670   2.6288670   0.0000000   0.0000000   2.7928460
 AtZNuc=   9.0000000   9.0000000   9.0000000   6.0000000   9.0000000   9.0000000   9.0000000   6.0000000   8.0000000   1.0000000

  Atom        41          42          43          44
 IAtWgt=           1           1           1           1
 AtmWgt=   1.0078250   1.0078250   1.0078250   1.0078250
 NucSpn=           1           1           1           1
 AtZEff=   0.0000000   0.0000000   0.0000000   0.0000000
 NQMom=    0.0000000   0.0000000   0.0000000   0.0000000
 NMagM=    2.7928460   2.7928460   2.7928460   2.7928460
 AtZNuc=   1.0000000   1.0000000   1.0000000   1.0000000
 Leave Link  101 at Sun Mar  3 18:08:55 2024, MaxMem=  5368709120 cpu:         1.1
 (Enter /home/k0335/k033513/app/g09/l202.exe)
                          Input orientation:                          
 ---------------------------------------------------------------------
 Center     Atomic      Atomic             Coordinates (Angstroms)
 Number     Number       Type             X           Y           Z
 ---------------------------------------------------------------------
      1          6           0        0.331666    4.523062   -0.683328
      2          6           0        0.198276    3.170698   -1.368912
      3          7           0        0.052946    2.086116   -0.395142
      4          6           0       -1.217234    1.749711    0.023891
      5          8           0       -2.211078    2.328010   -0.408812
      6          7           0       -1.313027    0.707905    0.908020
      7          6           0       -2.640110    0.239978    1.300316
      8          9           0       -3.478820    1.305470    1.458901
      9          9           0       -2.530258   -0.237971    2.585282
     10          6           0       -3.344457   -0.858107    0.452668
     11          9           0       -4.498287   -1.200057    1.113153
     12          8           0       -2.539099   -2.039946    0.430008
     13          6           0       -3.052783   -3.067126   -0.373721
     14          9           0       -2.724876   -2.814569   -1.653039
     15          9           0       -2.483646   -4.229820   -0.008167
     16          9           0       -4.383969   -3.175123   -0.252214
     17          6           0       -3.708517   -0.269971   -0.911483
     18          9           0       -4.455008   -1.130215   -1.644896
     19          9           0       -2.591858   -0.021026   -1.637985
     20          9           0       -4.424210    0.867220   -0.825952
     21          6           0       -0.224450   -0.062498    1.235224
     22          8           0       -0.340497   -1.208182    1.657889
     23          7           0        1.008149    0.503802    1.029772
     24          6           0        2.179009   -0.245121    1.472793
     25          9           0        1.921849   -0.741597    2.716959
     26          9           0        3.203838    0.628826    1.691135
     27          6           0        2.643846   -1.380173    0.521996
     28          9           0        1.666858   -2.330748    0.444922
     29          8           0        2.770755   -0.869500   -0.810048
     30          6           0        3.421066   -1.753113   -1.684698
     31          9           0        4.742492   -1.716740   -1.454644
     32          9           0        2.956197   -3.003110   -1.540399
     33          9           0        3.188346   -1.347949   -2.946790
     34          6           0        3.900372   -1.970945    1.177863
     35          9           0        3.696553   -2.353820    2.456765
     36          9           0        4.929047   -1.093948    1.176828
     37          9           0        4.331294   -3.074203    0.519241
     38          6           0        1.197639    1.490340    0.095834
     39          8           0        2.313625    1.810878   -0.309338
     40          1           0        0.438566    5.317728   -1.427978
     41          1           0        1.208191    4.547931   -0.027699
     42          1           0       -0.549024    4.743408   -0.071297
     43          1           0        1.079706    2.989969   -1.994376
     44          1           0       -0.669079    3.184526   -2.038544
 ---------------------------------------------------------------------
                    Distance matrix (angstroms):
                    1          2          3          4          5
     1  C    0.000000
     2  C    1.522073   0.000000
     3  N    2.469705   1.464810   0.000000
     4  C    3.254340   2.441879   1.379172   0.000000
     5  O    3.370335   2.727068   2.276951   1.228571   0.000000
     6  N    4.448913   3.678832   2.337430   1.369752   2.272726
     7  C    5.577733   4.875483   3.679043   2.435802   2.732227
     8  F    5.427877   4.999664   4.064512   2.715028   2.478126
     9  F    6.445297   5.890634   4.577909   3.497947   3.956101
    10  C    6.615236   5.665720   4.574886   3.392586   3.489704
    11  F    7.701291   6.879088   5.812711   4.544550   4.471572
    12  O    7.249406   6.154685   4.942060   4.034075   4.459849
    13  C    8.316328   7.104241   6.016803   5.170034   5.460512
    14  F    8.007722   6.667006   5.771942   5.090946   5.315845
    15  F    9.219261   7.988241   6.817265   6.112251   6.575709
    16  F    9.037982   7.906543   6.883842   5.861607   5.918653
    17  C    6.272822   5.225943   4.468373   3.340738   3.040478
    18  F    7.469699   6.342482   5.676999   4.643491   4.303771
    19  F    5.486994   4.247864   3.602734   2.790508   2.678401
    20  F    6.000323   5.193091   4.660068   3.433033   2.684374
    21  C    5.001746   4.172982   2.711380   2.395214   3.516258
    22  O    6.227380   5.350364   3.901555   3.491096   4.502775
    23  N    4.421175   3.677215   2.333776   2.741608   3.969972
    24  C    5.549514   4.864813   3.666605   4.196801   5.425339
    25  F    6.465854   5.913637   4.601514   4.828361   6.022791
    26  F    5.390039   4.985820   4.050230   4.856126   6.051307
    27  C    6.453462   5.501525   4.423694   4.995220   6.179588
    28  F    7.073217   5.976005   4.776935   5.014519   6.121379
    29  O    5.919877   4.822155   4.036620   4.843529   5.933272
    30  C    7.066647   5.893217   5.267529   6.058290   7.071386
    31  F    7.680198   6.674152   6.129935   7.051289   8.112084
    32  F    8.016608   6.763981   5.969983   6.515661   7.510131
    33  F    6.910329   5.643438   5.304191   6.150575   7.007695
    34  C    7.640145   6.828475   5.808337   6.431549   7.638611
    35  F    8.274911   7.575886   6.412665   6.848587   8.064190
    36  F    7.493123   6.859168   6.029947   6.869675   8.074988
    37  F    8.669581   7.723066   6.765297   7.368967   8.535093
    38  C    3.248754   2.442910   1.380699   2.429827   3.546225
    39  O    3.379937   2.728829   2.278988   3.547076   4.555245
    40  H    1.094269   2.161242   3.414494   4.192892   4.122830
    41  H    1.094881   2.171532   2.744110   3.703429   4.094471
    42  H    1.094874   2.171561   2.743801   3.068841   2.951353
    43  H    2.151461   1.095804   2.104456   3.299633   3.712339
    44  H    2.151692   1.095857   2.104423   2.571538   2.401543
                    6          7          8          9         10
     6  N    0.000000
     7  C    1.460822   0.000000
     8  F    2.313269   1.365231   0.000000
     9  F    2.278056   1.375369   2.133240   0.000000
    10  C    2.605081   1.555764   2.389900   2.365488   0.000000
    11  F    3.718640   2.358294   2.726998   2.639301   1.372769
    12  O    3.046709   2.442477   3.624018   2.809341   1.430335
    13  C    4.349767   3.729562   4.760211   4.127087   2.376501
    14  F    4.578227   4.249676   5.217981   4.963879   2.940345
    15  F    5.156634   4.660011   5.812237   4.760568   3.510244
    16  F    5.084755   4.136944   4.880873   4.484918   2.635528
    17  C    3.163101   2.508704   2.855433   3.690079   1.529494
    18  F    4.446134   3.720962   4.064365   4.732353   2.388962
    19  F    2.940900   2.950265   3.483819   4.229284   2.374435
    20  F    3.565319   2.845604   2.511250   4.055246   2.403641
    21  C    1.373165   2.435394   3.537272   2.677723   3.313583
    22  O    2.275853   2.741030   4.025806   2.568350   3.255593
    23  N    2.333311   3.667777   4.578178   3.935754   4.597067
    24  C    3.663542   4.846543   5.866477   4.838892   5.650229
    25  F    3.979666   4.876662   5.911042   4.482436   5.733635
    26  F    4.584931   5.869895   6.720841   5.867767   6.828246
    27  C    4.490649   5.581296   6.751112   5.686223   6.011417
    28  F    4.281073   5.088252   6.381868   5.155254   5.223218
    29  O    4.702897   5.912871   6.995414   6.326755   6.244229
    30  C    5.932152   7.044187   8.175914   7.479749   7.151340
    31  F    6.937607   8.119197   9.231060   8.449891   8.353073
    32  F    6.163819   7.064413   8.304764   7.400569   6.947776
    33  F    6.272835   7.384465   8.420324   8.033574   7.380635
    34  C    5.867587   6.905149   8.078759   6.807131   7.365586
    35  F    6.071957   6.943951   8.116164   6.577728   7.471906
    36  F    6.502493   7.686790   8.748085   7.639219   8.308483
    37  F    6.805428   7.758502   9.003465   7.706726   7.989535
    38  C    2.752325   4.212185   4.874566   4.804334   5.125736
    39  O    3.981346   5.440423   6.077378   6.003317   6.302224
    40  H    5.456687   6.534935   6.306996   7.469000   7.482582
    41  H    4.688060   5.927183   5.889958   6.611243   7.083968
    42  H    4.222327   5.151198   4.769133   5.983046   6.282194
    43  H    4.399647   5.679303   5.961780   6.665186   6.353655
    44  H    3.902635   4.868605   4.863910   6.046258   5.450382
                   11         12         13         14         15
    11  F    0.000000
    12  O    2.238419   0.000000
    13  C    2.790380   1.401767   0.000000
    14  F    3.661073   2.230166   1.344605   0.000000
    15  F    3.807309   2.233970   1.345141   2.183284   0.000000
    16  F    2.403785   2.271035   1.341075   2.201113   2.187046
    17  C    2.363884   2.509970   2.922884   2.827089   4.242251
    18  F    2.759273   2.967077   2.708089   2.414637   4.021530
    19  F    3.548710   2.890574   3.330096   2.796749   4.514639
    20  F    2.835357   3.685471   4.190991   4.138524   5.514923
    21  C    4.424322   3.149011   4.428991   4.708300   4.900669
    22  O    4.193331   2.652051   3.865179   4.384973   4.061912
    23  N    5.764627   4.406057   5.586814   5.669615   5.973033
    24  C    6.754815   5.154546   6.224546   6.357749   6.309629
    25  F    6.633289   5.178408   6.301377   6.707171   6.245190
    26  F    7.937355   6.457098   7.554403   7.628245   7.670824
    27  C    7.168819   5.225579   6.008303   5.967533   5.890054
    28  F    6.303492   4.216024   4.846384   4.891099   4.586769
    29  O    7.526416   5.576938   6.239674   5.890321   6.288362
    30  C    8.417244   6.330705   6.734687   6.237010   6.618947
    31  F    9.604819   7.528475   7.984876   7.550243   7.786202
    32  F    8.115520   5.916795   6.121526   5.685317   5.783117
    33  F    8.694213   6.684703   6.966200   6.228239   7.008008
    34  C    8.434212   6.483119   7.208009   7.253938   6.874945
    35  F    8.384024   6.564268   7.353502   7.637901   6.913040
    36  F    9.428146   7.564777   8.367033   8.339737   8.135473
    37  F    9.045809   6.948378   7.437878   7.387540   6.932317
    38  C    6.380968   5.151485   6.249565   6.080865   6.803154
    39  O    7.582305   6.238943   7.252407   6.970422   7.719750
    40  H    8.562207   8.151930   9.143673   8.728818  10.085180
    41  H    8.179535   7.592878   8.732968   8.503949   9.522550
    42  H    7.233559   7.087002   8.207601   8.022422   9.179628
    43  H    7.637215   6.653828   7.509487   6.948670   8.292639
    44  H    6.619713   6.073371   6.894696   6.353271   7.898583
                   16         17         18         19         20
    16  F    0.000000
    17  C    3.054632   0.000000
    18  F    2.475128   1.354682   0.000000
    19  F    3.883343   1.355251   2.168335   0.000000
    20  F    4.083054   1.346379   2.159019   2.192235   0.000000
    21  C    5.403934   4.097575   5.228072   3.723126   4.769781
    22  O    4.885388   4.338833   5.276710   4.164223   5.210899
    23  N    6.652286   5.158889   6.298408   4.511366   5.752070
    24  C    7.391430   6.352035   7.383330   5.699854   7.079833
    25  F    7.382505   6.714838   7.735703   6.313344   7.443989
    26  F    8.707551   7.440572   8.537052   6.715314   8.036148
    27  C    7.294617   6.606052   7.426414   5.824551   7.538246
    28  F    6.149104   5.914499   6.579199   5.273517   6.995944
    29  O    7.537715   6.507741   7.278502   5.492086   7.401619
    30  C    8.061805   7.323150   7.900768   6.257600   8.315765
    31  F    9.320140   8.591142   9.218146   7.530056   9.544660
    32  F    7.454331   7.230767   7.644908   6.299465   8.364227
    33  F    8.242527   7.271261   7.756494   6.073257   8.207066
    34  C    8.492672   8.071795   8.859299   7.340316   9.020483
    35  F    8.562006   8.397772   9.206996   7.858309   9.332637
    36  F    9.649130   8.924544   9.799180   8.101750   9.764257
    37  F    8.749922   8.634191   9.255360   7.868008   9.695525
    38  C    7.282996   5.308837   6.469147   4.432905   5.730895
    39  O    8.349924   6.399899   7.499876   5.402309   6.823181
    40  H    9.837062   6.977639   8.097536   6.142464   6.619369
    41  H    9.537726   6.940265   8.180984   6.157009   6.775602
    42  H    8.800152   5.985171   7.227197   5.415488   5.532757
    43  H    8.419931   5.892957   6.908771   4.761669   6.013682
    44  H    7.578688   4.737299   5.753712   3.759400   4.576166
                   21         22         23         24         25
    21  C    0.000000
    22  O    1.226664   0.000000
    23  N    1.371935   2.268097   0.000000
    24  C    2.422066   2.703638   1.458789   0.000000
    25  F    2.695054   2.541169   2.287458   1.364027   0.000000
    26  F    3.526888   3.992244   2.296537   1.364453   2.138661
    27  C    3.236060   3.197833   2.546115   1.551912   2.397274
    28  F    3.057218   2.600176   2.968269   2.380894   2.784344
    29  O    3.715595   3.985638   2.894422   2.439544   3.629983
    30  C    4.967284   5.061541   4.276001   3.713017   4.758718
    31  F    5.885781   5.981912   5.004842   4.160168   5.129250
    32  F    5.144686   4.931430   4.764357   4.158107   4.930458
    33  F    5.548766   5.803045   4.898498   4.665587   5.835215
    34  C    4.545285   4.335574   3.809364   2.455309   2.791893
    35  F    4.702827   4.271822   4.174905   2.778084   2.411750
    36  F    5.256028   5.292690   4.236493   2.893235   3.396968
    37  F    5.507976   5.157924   4.909792   3.680394   4.009544
    38  C    2.394129   3.476766   1.371643   2.423000   3.517999
    39  O    3.512411   4.475385   2.281651   2.724196   3.978328
    40  H    6.039790   7.260648   5.434965   6.510676   7.489730
    41  H    4.990340   6.194552   4.184882   5.115399   6.001797
    42  H    4.990900   6.201209   4.648806   5.891672   6.630601
    43  H    4.631273   5.742864   3.915561   4.867806   6.068811
    44  H    4.632323   5.750432   4.406125   5.674819   6.688958
                   26         27         28         29         30
    26  F    0.000000
    27  C    2.390932   0.000000
    28  F    3.560117   1.365298   0.000000
    29  O    2.947619   1.432213   2.220086   0.000000
    30  C    4.137278   2.369104   2.818899   1.403100   0.000000
    31  F    4.214862   2.902533   3.666726   2.240774   1.341795
    32  F    4.867761   2.642908   2.460887   2.262762   1.341424
    33  F    5.041649   3.511409   3.845066   2.229117   1.345806
    34  C    2.739967   1.535588   2.378076   2.537914   2.910574
    35  F    3.118515   2.408218   2.857920   3.705722   4.193860
    36  F    2.491748   2.394342   3.564721   2.942155   3.301036
    37  F    4.044368   2.391072   2.767213   3.010483   2.726012
    38  C    2.704076   3.242372   3.865584   2.977274   4.316701
    39  O    2.488296   3.314056   4.259141   2.764797   3.977445
    40  H    6.273866   7.316252   7.969670   6.640989   7.678412
    41  H    4.721904   6.124189   6.910135   5.692296   6.880815
    42  H    5.841226   6.931426   7.431036   6.562882   7.782639
    43  H    4.865175   5.279849   5.882597   4.376960   5.298556
    44  H    5.953284   6.194216   6.484015   5.456811   6.421431
                   31         32         33         34         35
    31  F    0.000000
    32  F    2.202942   0.000000
    33  F    2.185835   2.184350   0.000000
    34  C    2.775586   3.057087   4.231769   0.000000
    35  F    4.098656   4.116676   5.519824   1.350454   0.000000
    36  F    2.710594   3.862688   4.483167   1.351776   2.178201
    37  F    2.430640   2.477511   4.037283   1.355232   2.162371
    38  C    5.025468   5.095182   4.612630   4.522836   5.157144
    39  O    4.433420   5.010278   4.207075   4.362536   5.187343
    40  H    8.246710   8.694104   7.368808   8.479343   9.195562
    41  H    7.333046   7.896962   6.870481   7.155205   7.745881
    42  H    8.464473   8.628637   7.703313   8.151077   8.647928
    43  H    5.988357   6.296373   4.916400   6.529160   7.430789
    44  H    7.324510   7.188714   6.020629   7.602897   8.363003
                   36         37         38         39         40
    36  F    0.000000
    37  F    2.170516   0.000000
    38  C    4.665887   5.552848   0.000000
    39  O    4.181762   5.349911   1.229770   0.000000
    40  H    8.249789   9.453544   4.188925   4.131005   0.000000
    41  H    6.864871   8.255292   3.060104   2.965260   1.773610
    42  H    8.101963   9.234786   3.696108   4.105016   1.773629
    43  H    6.446110   7.325659   2.575223   2.398367   2.479986
    44  H    7.744867   8.409381   3.303100   3.711278   2.479964
                   41         42         43         44
    41  H    0.000000
    42  H    1.768592   0.000000
    43  H    2.512284   3.070105   0.000000
    44  H    3.070263   2.512884   1.760128   0.000000
 Symmetry turned off by external request.
 Stoichiometry    C13H5F18N3O5
 Framework group  C1[X(C13H5F18N3O5)]
 Deg. of freedom   126
 Full point group                 C1      NOp   1
 Rotational constants (GHZ):      0.1468384      0.0713605      0.0621254
 Leave Link  202 at Sun Mar  3 18:08:55 2024, MaxMem=  5368709120 cpu:         0.1
 (Enter /home/k0335/k033513/app/g09/l301.exe)
 Standard basis: 6-31G(d,p) (6D, 7F)
 Ernie: Thresh=  0.10000D-02 Tol=  0.10000D-05 Strict=F.
   610 basis functions,  1127 primitive gaussians,   610 cartesian basis functions
   153 alpha electrons      153 beta electrons
       nuclear repulsion energy      5945.7349587627 Hartrees.
 IExCor=20419 DFT=T Ex+Corr=CAM-B3LYP ExCW=0 ScaHFX=  1.000000
 ScaDFX=  1.000000  1.000000  1.000000  0.810000 ScalE2=  1.000000  1.000000
 IRadAn=      0 IRanWt=     -1 IRanGd=            0 ICorTp=0 IEmpDi=  4
  HFx wShort=  0.000000 wLong=  0.330000 cFull=  0.190000 cShort=  0.000000 cLong=  0.460000
  DFx wShort=  0.000000 wLong=  0.330000 cFull=  0.190000 cShort=  0.000000 cLong=  0.460000
 NAtoms=   44 NActive=   44 NUniq=   44 SFac= 1.00D+00 NAtFMM=   60 NAOKFM=F Big=F
 Integral buffers will be    131072 words long.
 Raffenetti 2 integral format.
 Two-electron integral symmetry is turned off.
 Using the following non-standard input for PCM:
 eps=4.9
 --- end of non-standard input.
 ------------------------------------------------------------------------------
 Polarizable Continuum Model (PCM)
 =================================
 Model                : PCM (using non-symmetric T matrix).
 Atomic radii         : UFF (Universal Force Field).
 Polarization charges : Total charges.
 Charge compensation  : None.
 Solution method      : On-the-fly selection.
 Cavity type          : Scaled VdW (van der Waals Surface) (Alpha=1.100).
 Cavity algorithm     : GePol (No added spheres)
                        Default sphere list used, NSphG=   44.
                        Lebedev-Laikov grids with approx.  5.0 points / Ang**2.
                        Smoothing algorithm: Karplus/York (Gamma=1.0000).
                        Polarization charges: spherical gaussians, with
                                              point-specific exponents (IZeta= 3).
                        Self-potential: point-specific (ISelfS= 7).
                        Self-field    : sphere-specific E.n sum rule (ISelfD= 2).
 Solvent              : Generic,
                        Eps                           =   4.900000
                        Eps(infinity)                 =   0.000000
                        RSolv                         =   0.000000 Ang.
                        Molar volume                  =   0.000000 cm**3/mol
                        Thermal expansion coefficient =   0.000000 K**-1
                        Absolute temperature          = 298.150000 K
                        Numeral density               =   0.000000 Ang**-3
                        Hydrogen bond acidity         =   0.000000
                        Hydrogen bond basicity        =   0.000000
                        Surface tension at interface  =   0.000000 (cal/mol)*Ang**-2
                        Carbon aromaticity            =   0.000000
                        Electronegative halogenicity  =   0.000000
 ------------------------------------------------------------------------------
 GePol: Number of generator spheres                  =      44
 GePol: Total number of spheres                      =      44
 GePol: Number of exposed spheres                    =      44 (100.00%)
 GePol: Number of points                             =    3616
 GePol: Average weight of points                     =       0.12
 GePol: Minimum weight of points                     =   0.38D-11
 GePol: Maximum weight of points                     =    0.20577
 GePol: Number of points with low weight             =     174
 GePol: Fraction of low-weight points (<1% of avg)   =       4.81%
 GePol: Cavity surface area                          =    447.941 Ang**2
 GePol: Cavity volume                                =    523.002 Ang**3
 Leave Link  301 at Sun Mar  3 18:08:55 2024, MaxMem=  5368709120 cpu:         1.0
 (Enter /home/k0335/k033513/app/g09/l302.exe)
 NPDir=0 NMtPBC=     1 NCelOv=     1 NCel=       1 NClECP=     1 NCelD=      1
         NCelK=      1 NCelE2=     1 NClLst=     1 CellRange=     0.0.
 One-electron integrals computed using PRISM.
 NBasis=   610 RedAO= T EigKep=  1.22D-03  NBF=   610
 NBsUse=   610 1.00D-06 EigRej= -1.00D+00 NBFU=   610
 Precomputing XC quadrature grid using
 IXCGrd= 4 IRadAn=           0 IRanWt=          -1 IRanGd=           0 AccXCQ= 0.00D+00.
 Generated NRdTot=       0 NPtTot=           0 NUsed=           0 NTot=          32
 NSgBfM=   596   597   597   597   597 MxSgAt=    44 MxSgA2=    44.
 Leave Link  302 at Sun Mar  3 18:08:56 2024, MaxMem=  5368709120 cpu:        13.7
 (Enter /home/k0335/k033513/app/g09/l303.exe)
 DipDrv:  MaxL=1.
 Leave Link  303 at Sun Mar  3 18:08:56 2024, MaxMem=  5368709120 cpu:         1.1
 (Enter /home/k0335/k033513/app/g09/l401.exe)
 ExpMin= 1.61D-01 ExpMax= 7.00D+03 ExpMxC= 1.05D+03 IAcc=1 IRadAn=         1 AccDes= 0.00D+00
 Harris functional with IExCor=20419 and IRadAn=       1 diagonalized for initial guess.
 HarFok:  IExCor=20419 AccDes= 0.00D+00 IRadAn=         1 IDoV= 1 UseB2=F ITyADJ=14
 ICtDFT=  3500011 ScaDFX=  1.000000  1.000000  1.000000  1.000000
 FoFCou: FMM=F IPFlag=           0 FMFlag=      100000 FMFlg1=           0
         NFxFlg=           0 DoJE=T BraDBF=F KetDBF=T FulRan=T
         wScrn=  0.000000 ICntrl=     500 IOpCl=  0 I1Cent=   200000004 NGrid=           0
         NMat0=    1 NMatS0=      1 NMatT0=    0 NMatD0=    1 NMtDS0=    0 NMtDT0=    0
 Symmetry not used in FoFCou.
 Harris En= -2750.17972823060    
 JPrj=0 DoOrth=F DoCkMO=F.
 Leave Link  401 at Sun Mar  3 18:08:57 2024, MaxMem=  5368709120 cpu:        14.9
 (Enter /home/k0335/k033513/app/g09/l502.exe)
 Closed shell SCF:
 Using DIIS extrapolation, IDIIS=  1040.
 Two-electron integral symmetry not used.
 IVT=     1153238 IEndB=     1153238 NGot=  5368709120 MDV=  5367945233
 LenX=  5367945233 LenY=  5367572523
 Requested convergence on RMS density matrix=1.00D-08 within 128 cycles.
 Requested convergence on MAX density matrix=1.00D-06.
 Requested convergence on             energy=1.00D-06.
 No special actions if energy rises.
 Fock matrices will be formed incrementally for  20 cycles.

 Cycle   1  Pass 1  IDiag  1:
 FoFJK:  IHMeth= 1 ICntrl=       0 DoSepK=T KAlg= 0 I1Cent=   0 FoldK=F
 IRaf=         1 NMat=   1 IRICut=       1 DoRegI=T DoRafI=F ISym2E= 0.
 FoFCou: FMM=F IPFlag=           0 FMFlag=      100000 FMFlg1=           0
         NFxFlg=           0 DoJE=T BraDBF=F KetDBF=F FulRan=T
         wScrn=  0.000000 ICntrl=     500 IOpCl=  0 I1Cent=           0 NGrid=           0
         NMat0=    1 NMatS0=      1 NMatT0=    0 NMatD0=    1 NMtDS0=    0 NMtDT0=    0
 Symmetry not used in FoFCou.
 Inv3:  Mode=1 IEnd=    39226368.
 Iteration    1 A*A^-1 deviation from unit magnitude is 8.22D-15 for    295.
 Iteration    1 A*A^-1 deviation from orthogonality  is 3.22D-15 for   3606     24.
 Iteration    1 A^-1*A deviation from unit magnitude is 7.11D-15 for   1181.
 Iteration    1 A^-1*A deviation from orthogonality  is 9.93D-12 for   3244   3218.
 E= -2834.17468110320    
 DIIS: error= 4.88D-02 at cycle   1 NSaved=   1.
 NSaved= 1 IEnMin= 1 EnMin= -2834.17468110320     IErMin= 1 ErrMin= 4.88D-02
 ErrMax= 4.88D-02  0.00D+00 EMaxC= 1.00D-01 BMatC= 2.35D+00 BMatP= 2.35D+00
 IDIUse=3 WtCom= 5.12D-01 WtEn= 4.88D-01
 Coeff-Com:  0.100D+01
 Coeff-En:   0.100D+01
 Coeff:      0.100D+01
 Gap=     0.433 Goal=   None    Shift=    0.000
 GapD=    0.433 DampG=2.000 DampE=0.500 DampFc=1.0000 IDamp=-1.
 RMSDP=3.03D-03 MaxDP=1.36D-01              OVMax= 2.15D-01

 Cycle   2  Pass 1  IDiag  1:
 RMSU=  3.03D-03    CP:  1.00D+00
 E= -2834.54010154628     Delta-E=       -0.365420443080 Rises=F Damp=F
 DIIS: error= 1.91D-02 at cycle   2 NSaved=   2.
 NSaved= 2 IEnMin= 2 EnMin= -2834.54010154628     IErMin= 2 ErrMin= 1.91D-02
 ErrMax= 1.91D-02  0.00D+00 EMaxC= 1.00D-01 BMatC= 8.92D-01 BMatP= 2.35D+00
 IDIUse=3 WtCom= 8.09D-01 WtEn= 1.91D-01
 Coeff-Com:  0.360D+00 0.640D+00
 Coeff-En:   0.342D+00 0.658D+00
 Coeff:      0.357D+00 0.643D+00
 Gap=     0.433 Goal=   None    Shift=    0.000
 RMSDP=1.62D-03 MaxDP=1.29D-01 DE=-3.65D-01 OVMax= 1.39D-01

 Cycle   3  Pass 1  IDiag  1:
 RMSU=  1.01D-03    CP:  1.00D+00  5.85D-01
 E= -2834.93970151796     Delta-E=       -0.399599971675 Rises=F Damp=F
 DIIS: error= 1.41D-02 at cycle   3 NSaved=   3.
 NSaved= 3 IEnMin= 3 EnMin= -2834.93970151796     IErMin= 3 ErrMin= 1.41D-02
 ErrMax= 1.41D-02  0.00D+00 EMaxC= 1.00D-01 BMatC= 2.40D-01 BMatP= 8.92D-01
 IDIUse=3 WtCom= 8.59D-01 WtEn= 1.41D-01
 Coeff-Com:  0.114D+00 0.360D+00 0.526D+00
 Coeff-En:   0.000D+00 0.215D+00 0.785D+00
 Coeff:      0.980D-01 0.339D+00 0.563D+00
 Gap=     0.381 Goal=   None    Shift=    0.000
 RMSDP=7.82D-04 MaxDP=7.48D-02 DE=-4.00D-01 OVMax= 9.22D-02

 Cycle   4  Pass 1  IDiag  1:
 RMSU=  3.34D-04    CP:  1.00D+00  6.99D-01  3.90D-01
 E= -2835.09126101140     Delta-E=       -0.151559493441 Rises=F Damp=F
 DIIS: error= 4.90D-03 at cycle   4 NSaved=   4.
 NSaved= 4 IEnMin= 4 EnMin= -2835.09126101140     IErMin= 4 ErrMin= 4.90D-03
 ErrMax= 4.90D-03  0.00D+00 EMaxC= 1.00D-01 BMatC= 2.58D-02 BMatP= 2.40D-01
 IDIUse=3 WtCom= 9.51D-01 WtEn= 4.90D-02
 Coeff-Com:  0.781D-02 0.933D-01 0.297D+00 0.602D+00
 Coeff-En:   0.000D+00 0.000D+00 0.699D-01 0.930D+00
 Coeff:      0.743D-02 0.887D-01 0.286D+00 0.618D+00
 Gap=     0.366 Goal=   None    Shift=    0.000
 RMSDP=2.49D-04 MaxDP=2.31D-02 DE=-1.52D-01 OVMax= 2.51D-02

 Cycle   5  Pass 1  IDiag  1:
 RMSU=  1.07D-04    CP:  1.00D+00  6.85D-01  5.79D-01  6.69D-01
 E= -2835.10828824401     Delta-E=       -0.017027232607 Rises=F Damp=F
 DIIS: error= 9.39D-04 at cycle   5 NSaved=   5.
 NSaved= 5 IEnMin= 5 EnMin= -2835.10828824401     IErMin= 5 ErrMin= 9.39D-04
 ErrMax= 9.39D-04  0.00D+00 EMaxC= 1.00D-01 BMatC= 1.76D-03 BMatP= 2.58D-02
 IDIUse=3 WtCom= 9.91D-01 WtEn= 9.39D-03
 Coeff-Com: -0.170D-02 0.280D-01 0.124D+00 0.344D+00 0.505D+00
 Coeff-En:   0.000D+00 0.000D+00 0.000D+00 0.000D+00 0.100D+01
 Coeff:     -0.168D-02 0.277D-01 0.123D+00 0.341D+00 0.510D+00
 Gap=     0.363 Goal=   None    Shift=    0.000
 RMSDP=5.75D-05 MaxDP=4.35D-03 DE=-1.70D-02 OVMax= 5.15D-03

 Cycle   6  Pass 1  IDiag  1:
 RMSU=  2.59D-05    CP:  1.00D+00  6.90D-01  5.63D-01  7.09D-01  5.90D-01
 E= -2835.10953573652     Delta-E=       -0.001247492513 Rises=F Damp=F
 DIIS: error= 9.39D-05 at cycle   6 NSaved=   6.
 NSaved= 6 IEnMin= 6 EnMin= -2835.10953573652     IErMin= 6 ErrMin= 9.39D-05
 ErrMax= 9.39D-05  0.00D+00 EMaxC= 1.00D-01 BMatC= 3.06D-05 BMatP= 1.76D-03
 IDIUse=1 WtCom= 1.00D+00 WtEn= 0.00D+00
 Coeff-Com: -0.783D-03-0.126D-02 0.357D-02 0.275D-01 0.135D+00 0.836D+00
 Coeff:     -0.783D-03-0.126D-02 0.357D-02 0.275D-01 0.135D+00 0.836D+00
 Gap=     0.363 Goal=   None    Shift=    0.000
 RMSDP=1.17D-05 MaxDP=8.36D-04 DE=-1.25D-03 OVMax= 8.57D-04

 Cycle   7  Pass 1  IDiag  1:
 RMSU=  8.20D-06    CP:  1.00D+00  6.90D-01  5.66D-01  7.21D-01  6.51D-01
                    CP:  9.86D-01
 E= -2835.10956013768     Delta-E=       -0.000024401159 Rises=F Damp=F
 DIIS: error= 7.69D-05 at cycle   7 NSaved=   7.
 NSaved= 7 IEnMin= 7 EnMin= -2835.10956013768     IErMin= 7 ErrMin= 7.69D-05
 ErrMax= 7.69D-05  0.00D+00 EMaxC= 1.00D-01 BMatC= 5.04D-06 BMatP= 3.06D-05
 IDIUse=1 WtCom= 1.00D+00 WtEn= 0.00D+00
 Coeff-Com: -0.149D-03-0.275D-02-0.782D-02-0.147D-01 0.230D-01 0.365D+00
 Coeff-Com:  0.637D+00
 Coeff:     -0.149D-03-0.275D-02-0.782D-02-0.147D-01 0.230D-01 0.365D+00
 Coeff:      0.637D+00
 Gap=     0.363 Goal=   None    Shift=    0.000
 RMSDP=3.72D-06 MaxDP=2.88D-04 DE=-2.44D-05 OVMax= 3.43D-04

 Cycle   8  Pass 1  IDiag  1:
 RMSU=  2.30D-06    CP:  1.00D+00  6.90D-01  5.66D-01  7.21D-01  6.61D-01
                    CP:  1.06D+00  7.91D-01
 E= -2835.10956460669     Delta-E=       -0.000004469015 Rises=F Damp=F
 DIIS: error= 9.79D-06 at cycle   8 NSaved=   8.
 NSaved= 8 IEnMin= 8 EnMin= -2835.10956460669     IErMin= 8 ErrMin= 9.79D-06
 ErrMax= 9.79D-06  0.00D+00 EMaxC= 1.00D-01 BMatC= 2.99D-07 BMatP= 5.04D-06
 IDIUse=1 WtCom= 1.00D+00 WtEn= 0.00D+00
 Coeff-Com:  0.681D-05-0.904D-03-0.296D-02-0.784D-02-0.403D-02 0.429D-01
 Coeff-Com:  0.202D+00 0.771D+00
 Coeff:      0.681D-05-0.904D-03-0.296D-02-0.784D-02-0.403D-02 0.429D-01
 Coeff:      0.202D+00 0.771D+00
 Gap=     0.364 Goal=   None    Shift=    0.000
 RMSDP=1.34D-06 MaxDP=1.44D-04 DE=-4.47D-06 OVMax= 1.75D-04

 Cycle   9  Pass 1  IDiag  1:
 RMSU=  9.02D-07    CP:  1.00D+00  6.90D-01  5.67D-01  7.21D-01  6.66D-01
                    CP:  1.08D+00  8.61D-01  1.03D+00
 E= -2835.10956490585     Delta-E=       -0.000000299153 Rises=F Damp=F
 DIIS: error= 5.33D-06 at cycle   9 NSaved=   9.
 NSaved= 9 IEnMin= 9 EnMin= -2835.10956490585     IErMin= 9 ErrMin= 5.33D-06
 ErrMax= 5.33D-06  0.00D+00 EMaxC= 1.00D-01 BMatC= 5.96D-08 BMatP= 2.99D-07
 IDIUse=1 WtCom= 1.00D+00 WtEn= 0.00D+00
 Coeff-Com:  0.211D-04 0.269D-04-0.161D-04-0.119D-02-0.532D-02-0.411D-01
 Coeff-Com: -0.113D-01 0.341D+00 0.718D+00
 Coeff:      0.211D-04 0.269D-04-0.161D-04-0.119D-02-0.532D-02-0.411D-01
 Coeff:     -0.113D-01 0.341D+00 0.718D+00
 Gap=     0.364 Goal=   None    Shift=    0.000
 RMSDP=5.53D-07 MaxDP=6.50D-05 DE=-2.99D-07 OVMax= 7.92D-05

 Cycle  10  Pass 1  IDiag  1:
 RMSU=  2.98D-07    CP:  1.00D+00  6.90D-01  5.67D-01  7.21D-01  6.67D-01
                    CP:  1.09D+00  8.84D-01  1.16D+00  9.30D-01
 E= -2835.10956496475     Delta-E=       -0.000000058901 Rises=F Damp=F
 DIIS: error= 1.70D-06 at cycle  10 NSaved=  10.
 NSaved=10 IEnMin=10 EnMin= -2835.10956496475     IErMin=10 ErrMin= 1.70D-06
 ErrMax= 1.70D-06  0.00D+00 EMaxC= 1.00D-01 BMatC= 4.45D-09 BMatP= 5.96D-08
 IDIUse=1 WtCom= 1.00D+00 WtEn= 0.00D+00
 Coeff-Com:  0.746D-05 0.969D-04 0.295D-03 0.281D-03-0.148D-02-0.200D-01
 Coeff-Com: -0.230D-01 0.621D-01 0.269D+00 0.713D+00
 Coeff:      0.746D-05 0.969D-04 0.295D-03 0.281D-03-0.148D-02-0.200D-01
 Coeff:     -0.230D-01 0.621D-01 0.269D+00 0.713D+00
 Gap=     0.364 Goal=   None    Shift=    0.000
 RMSDP=1.61D-07 MaxDP=1.53D-05 DE=-5.89D-08 OVMax= 2.53D-05

 Cycle  11  Pass 1  IDiag  1:
 RMSU=  1.12D-07    CP:  1.00D+00  6.90D-01  5.67D-01  7.21D-01  6.67D-01
                    CP:  1.09D+00  8.91D-01  1.18D+00  9.98D-01  9.33D-01
 E= -2835.10956496859     Delta-E=       -0.000000003842 Rises=F Damp=F
 DIIS: error= 1.05D-06 at cycle  11 NSaved=  11.
 NSaved=11 IEnMin=11 EnMin= -2835.10956496859     IErMin=11 ErrMin= 1.05D-06
 ErrMax= 1.05D-06  0.00D+00 EMaxC= 1.00D-01 BMatC= 1.06D-09 BMatP= 4.45D-09
 IDIUse=1 WtCom= 1.00D+00 WtEn= 0.00D+00
 Coeff-Com:  0.154D-05 0.454D-04 0.157D-03 0.264D-03-0.532D-04-0.543D-02
 Coeff-Com: -0.101D-01-0.607D-02 0.556D-01 0.367D+00 0.598D+00
 Coeff:      0.154D-05 0.454D-04 0.157D-03 0.264D-03-0.532D-04-0.543D-02
 Coeff:     -0.101D-01-0.607D-02 0.556D-01 0.367D+00 0.598D+00
 Gap=     0.364 Goal=   None    Shift=    0.000
 RMSDP=5.78D-08 MaxDP=6.62D-06 DE=-3.84D-09 OVMax= 1.00D-05

 Cycle  12  Pass 1  IDiag  1:
 RMSU=  3.70D-08    CP:  1.00D+00  6.90D-01  5.67D-01  7.21D-01  6.67D-01
                    CP:  1.09D+00  8.91D-01  1.19D+00  1.01D+00  1.02D+00
                    CP:  8.40D-01
 E= -2835.10956496939     Delta-E=       -0.000000000797 Rises=F Damp=F
 DIIS: error= 2.77D-07 at cycle  12 NSaved=  12.
 NSaved=12 IEnMin=12 EnMin= -2835.10956496939     IErMin=12 ErrMin= 2.77D-07
 ErrMax= 2.77D-07  0.00D+00 EMaxC= 1.00D-01 BMatC= 1.05D-10 BMatP= 1.06D-09
 IDIUse=1 WtCom= 1.00D+00 WtEn= 0.00D+00
 Coeff-Com: -0.413D-06 0.502D-05 0.277D-04 0.686D-04 0.262D-03 0.756D-03
 Coeff-Com: -0.702D-03-0.115D-01-0.173D-01 0.402D-01 0.235D+00 0.753D+00
 Coeff:     -0.413D-06 0.502D-05 0.277D-04 0.686D-04 0.262D-03 0.756D-03
 Coeff:     -0.702D-03-0.115D-01-0.173D-01 0.402D-01 0.235D+00 0.753D+00
 Gap=     0.364 Goal=   None    Shift=    0.000
 RMSDP=2.29D-08 MaxDP=1.69D-06 DE=-7.97D-10 OVMax= 2.80D-06

 Cycle  13  Pass 1  IDiag  1:
 RMSU=  1.15D-08    CP:  1.00D+00  6.90D-01  5.67D-01  7.21D-01  6.67D-01
                    CP:  1.09D+00  8.91D-01  1.19D+00  1.02D+00  1.05D+00
                    CP:  9.22D-01  8.84D-01
 E= -2835.10956496956     Delta-E=       -0.000000000178 Rises=F Damp=F
 DIIS: error= 7.93D-08 at cycle  13 NSaved=  13.
 NSaved=13 IEnMin=13 EnMin= -2835.10956496956     IErMin=13 ErrMin= 7.93D-08
 ErrMax= 7.93D-08  0.00D+00 EMaxC= 1.00D-01 BMatC= 8.94D-12 BMatP= 1.05D-10
 IDIUse=1 WtCom= 1.00D+00 WtEn= 0.00D+00
 Coeff-Com: -0.263D-06-0.209D-05-0.206D-05 0.208D-05 0.112D-03 0.738D-03
 Coeff-Com:  0.613D-03-0.382D-02-0.117D-01-0.213D-01 0.268D-01 0.260D+00
 Coeff-Com:  0.749D+00
 Coeff:     -0.263D-06-0.209D-05-0.206D-05 0.208D-05 0.112D-03 0.738D-03
 Coeff:      0.613D-03-0.382D-02-0.117D-01-0.213D-01 0.268D-01 0.260D+00
 Coeff:      0.749D+00
 Gap=     0.364 Goal=   None    Shift=    0.000
 RMSDP=6.98D-09 MaxDP=5.57D-07 DE=-1.78D-10 OVMax= 9.11D-07

 Error on total polarization charges =  0.00256
 SCF Done:  E(RCAM-B3LYP) =  -2835.10956497     A.U. after   13 cycles
            NFock= 13  Conv=0.70D-08     -V/T= 2.0074
 KE= 2.814389811220D+03 PE=-1.859217490407D+04 EE= 6.996940569123D+03
 Leave Link  502 at Sun Mar  3 18:09:51 2024, MaxMem=  5368709120 cpu:      1225.8
 (Enter /home/k0335/k033513/app/g09/l601.exe)
 Copying SCF densities to generalized density rwf, IOpCl= 0 IROHF=0.

 **********************************************************************

            Population analysis using the SCF density.

 **********************************************************************

 Alpha  occ. eigenvalues --  -24.83928 -24.83790 -24.83668 -24.83637 -24.83592
 Alpha  occ. eigenvalues --  -24.83474 -24.83437 -24.83405 -24.83181 -24.83136
 Alpha  occ. eigenvalues --  -24.83131 -24.83084 -24.83031 -24.83005 -24.82882
 Alpha  occ. eigenvalues --  -24.82854 -24.82834 -24.82273 -19.33194 -19.32850
 Alpha  occ. eigenvalues --  -19.24781 -19.23789 -19.23744 -14.53305 -14.53020
 Alpha  occ. eigenvalues --  -14.50527 -10.59744 -10.59499 -10.55637 -10.55515
 Alpha  occ. eigenvalues --  -10.53743 -10.53585 -10.49204 -10.49151 -10.47008
 Alpha  occ. eigenvalues --  -10.45754 -10.45710 -10.31672 -10.26100  -1.43399
 Alpha  occ. eigenvalues --   -1.43223  -1.41948  -1.41859  -1.39237  -1.38968
 Alpha  occ. eigenvalues --   -1.35753  -1.35285  -1.33723  -1.33452  -1.33411
 Alpha  occ. eigenvalues --   -1.33290  -1.33158  -1.32895  -1.32371  -1.32247
 Alpha  occ. eigenvalues --   -1.31736  -1.31309  -1.23474  -1.20767  -1.20566
 Alpha  occ. eigenvalues --   -1.18121  -1.17833  -1.10160  -1.08634  -1.06566
 Alpha  occ. eigenvalues --   -0.94069  -0.93381  -0.87757  -0.85342  -0.84176
 Alpha  occ. eigenvalues --   -0.82338  -0.82134  -0.79898  -0.79020  -0.77399
 Alpha  occ. eigenvalues --   -0.75917  -0.74832  -0.74163  -0.72991  -0.72886
 Alpha  occ. eigenvalues --   -0.71873  -0.71728  -0.70699  -0.70512  -0.69955
 Alpha  occ. eigenvalues --   -0.69567  -0.69170  -0.68631  -0.68519  -0.67666
 Alpha  occ. eigenvalues --   -0.66970  -0.66563  -0.66409  -0.65550  -0.64822
 Alpha  occ. eigenvalues --   -0.64342  -0.62342  -0.60068  -0.59774  -0.59035
 Alpha  occ. eigenvalues --   -0.57845  -0.57723  -0.57259  -0.57194  -0.56439
 Alpha  occ. eigenvalues --   -0.56393  -0.56292  -0.56068  -0.55859  -0.55784
 Alpha  occ. eigenvalues --   -0.55632  -0.55160  -0.55017  -0.54859  -0.54721
 Alpha  occ. eigenvalues --   -0.54297  -0.53746  -0.53667  -0.53259  -0.53194
 Alpha  occ. eigenvalues --   -0.53092  -0.52730  -0.52382  -0.52266  -0.52004
 Alpha  occ. eigenvalues --   -0.51634  -0.51410  -0.51176  -0.50982  -0.50849
 Alpha  occ. eigenvalues --   -0.50547  -0.50412  -0.50293  -0.50079  -0.49979
 Alpha  occ. eigenvalues --   -0.49578  -0.49220  -0.49043  -0.48920  -0.48870
 Alpha  occ. eigenvalues --   -0.46877  -0.46049  -0.45922  -0.45279  -0.44767
 Alpha  occ. eigenvalues --   -0.44586  -0.42582  -0.40689  -0.39557  -0.38849
 Alpha  occ. eigenvalues --   -0.38443  -0.36408  -0.35969
 Alpha virt. eigenvalues --    0.00385   0.00637   0.05381   0.06247   0.06992
 Alpha virt. eigenvalues --    0.08763   0.11162   0.13248   0.14454   0.14946
 Alpha virt. eigenvalues --    0.16388   0.17216   0.17998   0.19254   0.19381
 Alpha virt. eigenvalues --    0.19982   0.20466   0.21185   0.21346   0.21959
 Alpha virt. eigenvalues --    0.22390   0.22459   0.22600   0.22885   0.23024
 Alpha virt. eigenvalues --    0.24207   0.24492   0.24795   0.25207   0.25337
 Alpha virt. eigenvalues --    0.26121   0.26909   0.27250   0.27738   0.28322
 Alpha virt. eigenvalues --    0.28662   0.29270   0.29950   0.31508   0.32290
 Alpha virt. eigenvalues --    0.33271   0.36869   0.38408   0.39011   0.39914
 Alpha virt. eigenvalues --    0.40850   0.45816   0.47476   0.48556   0.48960
 Alpha virt. eigenvalues --    0.49688   0.50478   0.51172   0.51555   0.52339
 Alpha virt. eigenvalues --    0.53135   0.53413   0.53744   0.54391   0.54620
 Alpha virt. eigenvalues --    0.55170   0.56132   0.56682   0.56974   0.57955
 Alpha virt. eigenvalues --    0.58424   0.59098   0.59445   0.59809   0.60597
 Alpha virt. eigenvalues --    0.61637   0.62246   0.63417   0.65077   0.65994
 Alpha virt. eigenvalues --    0.67358   0.68131   0.69410   0.70633   0.70765
 Alpha virt. eigenvalues --    0.71889   0.73017   0.74267   0.76556   0.78259
 Alpha virt. eigenvalues --    0.79647   0.81020   0.82229   0.83330   0.83785
 Alpha virt. eigenvalues --    0.84809   0.86209   0.86827   0.88345   0.88894
 Alpha virt. eigenvalues --    0.90230   0.90952   0.91556   0.92301   0.93118
 Alpha virt. eigenvalues --    0.93490   0.94790   0.95196   0.96567   0.96885
 Alpha virt. eigenvalues --    0.97795   0.99180   0.99716   1.00467   1.01886
 Alpha virt. eigenvalues --    1.02287   1.02856   1.04688   1.05737   1.05918
 Alpha virt. eigenvalues --    1.07411   1.07932   1.08696   1.08943   1.09355
 Alpha virt. eigenvalues --    1.10153   1.11054   1.11797   1.12113   1.13206
 Alpha virt. eigenvalues --    1.13341   1.14122   1.14683   1.15825   1.16431
 Alpha virt. eigenvalues --    1.17433   1.17493   1.18236   1.19230   1.20064
 Alpha virt. eigenvalues --    1.20492   1.21832   1.22100   1.22698   1.23955
 Alpha virt. eigenvalues --    1.25345   1.25589   1.26255   1.26814   1.27981
 Alpha virt. eigenvalues --    1.28336   1.29005   1.29872   1.30183   1.31171
 Alpha virt. eigenvalues --    1.32134   1.32397   1.33362   1.33598   1.34185
 Alpha virt. eigenvalues --    1.34302   1.34580   1.34751   1.35715   1.36282
 Alpha virt. eigenvalues --    1.37245   1.37398   1.38328   1.38353   1.38703
 Alpha virt. eigenvalues --    1.39758   1.40079   1.40192   1.40440   1.41290
 Alpha virt. eigenvalues --    1.42705   1.42807   1.43456   1.43832   1.44271
 Alpha virt. eigenvalues --    1.45254   1.45698   1.46076   1.46546   1.47659
 Alpha virt. eigenvalues --    1.48368   1.48650   1.49687   1.50327   1.51226
 Alpha virt. eigenvalues --    1.51774   1.52129   1.52961   1.53099   1.54016
 Alpha virt. eigenvalues --    1.54955   1.55493   1.56185   1.56664   1.57273
 Alpha virt. eigenvalues --    1.58295   1.59180   1.59748   1.60872   1.61628
 Alpha virt. eigenvalues --    1.61859   1.62319   1.64492   1.65657   1.66510
 Alpha virt. eigenvalues --    1.67288   1.67765   1.69204   1.70255   1.70494
 Alpha virt. eigenvalues --    1.71496   1.72160   1.72657   1.72811   1.73871
 Alpha virt. eigenvalues --    1.74367   1.75206   1.75508   1.75979   1.78813
 Alpha virt. eigenvalues --    1.79011   1.79357   1.80022   1.80635   1.80980
 Alpha virt. eigenvalues --    1.82239   1.82715   1.83216   1.83636   1.83905
 Alpha virt. eigenvalues --    1.84051   1.84761   1.85288   1.86010   1.86254
 Alpha virt. eigenvalues --    1.86565   1.87350   1.87404   1.87807   1.88241
 Alpha virt. eigenvalues --    1.88476   1.89550   1.89848   1.90293   1.90446
 Alpha virt. eigenvalues --    1.91082   1.91432   1.91746   1.92060   1.92799
 Alpha virt. eigenvalues --    1.93465   1.93551   1.93868   1.94241   1.94877
 Alpha virt. eigenvalues --    1.95103   1.95355   1.96459   1.96968   1.97256
 Alpha virt. eigenvalues --    1.97706   1.98137   1.98692   1.99261   1.99864
 Alpha virt. eigenvalues --    2.00464   2.00895   2.01050   2.01165   2.01669
 Alpha virt. eigenvalues --    2.01874   2.02149   2.02450   2.02806   2.03287
 Alpha virt. eigenvalues --    2.03819   2.04154   2.04447   2.04533   2.04956
 Alpha virt. eigenvalues --    2.06044   2.06282   2.06807   2.07699   2.08787
 Alpha virt. eigenvalues --    2.08969   2.09184   2.10096   2.10783   2.11710
 Alpha virt. eigenvalues --    2.11924   2.12044   2.12325   2.13715   2.13853
 Alpha virt. eigenvalues --    2.14316   2.14630   2.15974   2.16327   2.17068
 Alpha virt. eigenvalues --    2.18455   2.18804   2.19790   2.20234   2.20665
 Alpha virt. eigenvalues --    2.20788   2.21319   2.23016   2.23624   2.24653
 Alpha virt. eigenvalues --    2.25420   2.25749   2.26791   2.27438   2.27904
 Alpha virt. eigenvalues --    2.29186   2.30186   2.31738   2.32224   2.33142
 Alpha virt. eigenvalues --    2.34385   2.36028   2.36782   2.37904   2.38659
 Alpha virt. eigenvalues --    2.39295   2.40572   2.40944   2.42064   2.42398
 Alpha virt. eigenvalues --    2.43425   2.44023   2.45920   2.46828   2.47549
 Alpha virt. eigenvalues --    2.48226   2.49081   2.50388   2.50842   2.52291
 Alpha virt. eigenvalues --    2.54091   2.54193   2.56977   2.58260   2.58897
 Alpha virt. eigenvalues --    2.60646   2.61374   2.62725   2.63080   2.64110
 Alpha virt. eigenvalues --    2.65290   2.65790   2.66459   2.67880   2.70089
 Alpha virt. eigenvalues --    2.70441   2.72584   2.73568   2.74284   2.75948
 Alpha virt. eigenvalues --    2.76365   2.77260   2.77704   2.80836   2.81439
 Alpha virt. eigenvalues --    2.82293   2.83917   2.84160   2.85583   2.85931
 Alpha virt. eigenvalues --    2.87499   2.89010   2.89526   2.91475   2.91808
 Alpha virt. eigenvalues --    2.92202   2.93164   2.93760   2.94090   2.95140
 Alpha virt. eigenvalues --    2.96311   2.97548   2.98687   2.99138   2.99508
 Alpha virt. eigenvalues --    3.00250   3.02604   3.04195   3.05017   3.05488
 Alpha virt. eigenvalues --    3.05776   3.06440   3.06676   3.07845   3.09401
 Alpha virt. eigenvalues --    3.11101   3.12806   3.15644   3.16276   3.17763
 Alpha virt. eigenvalues --    3.18216   3.19655   3.21909   3.22671   3.24914
 Alpha virt. eigenvalues --    3.26874   3.29362   3.30037   3.30741   3.31826
 Alpha virt. eigenvalues --    3.33900   3.35752   3.36295   3.43565   3.47153
 Alpha virt. eigenvalues --    3.50937   3.55722   3.61295   4.05862   4.06675
 Alpha virt. eigenvalues --    4.12724   4.18588   4.21269   4.23912   4.27724
 Alpha virt. eigenvalues --    4.33767   4.37155   4.39105   4.41530   4.45727
 Alpha virt. eigenvalues --    4.46479   4.48019   4.48192   4.54945   4.57864
 Alpha virt. eigenvalues --    4.64379   4.67506   4.71094   4.74311   4.76096
 Alpha virt. eigenvalues --    4.80032   4.85256   4.87971   4.93877   5.09032
 Alpha virt. eigenvalues --    5.20308   5.24703   5.31657   5.42764   5.43570
 Alpha virt. eigenvalues --    5.56850   5.66811   5.68669   6.21656   6.25822
 Alpha virt. eigenvalues --    6.42555   6.66803
          Condensed to atoms (all electrons):
               1          2          3          4          5          6
     1  C    4.929900   0.370776  -0.054311  -0.002667  -0.002637  -0.000312
     2  C    0.370776   4.800549   0.249124  -0.025179  -0.000151   0.003002
     3  N   -0.054311   0.249124   7.333121   0.246991  -0.087125  -0.097888
     4  C   -0.002667  -0.025179   0.246991   4.195097   0.561926   0.194529
     5  O   -0.002637  -0.000151  -0.087125   0.561926   8.116454  -0.088458
     6  N   -0.000312   0.003002  -0.097888   0.194529  -0.088458   7.645836
     7  C    0.000003  -0.000039   0.001157  -0.008586   0.013271   0.111788
     8  F    0.000000   0.000004   0.000048   0.006193  -0.012298  -0.040680
     9  F    0.000000   0.000000  -0.000027   0.000378   0.000016  -0.046392
    10  C    0.000000   0.000002  -0.000120  -0.000827  -0.005556  -0.078014
    11  F    0.000000   0.000000   0.000000   0.000039   0.000002   0.001449
    12  O    0.000000   0.000000   0.000000  -0.000102   0.000014   0.002404
    13  C    0.000000   0.000000   0.000000   0.000005  -0.000001  -0.000197
    14  F    0.000000   0.000000   0.000000  -0.000001   0.000000   0.000004
    15  F    0.000000   0.000000   0.000000   0.000000   0.000000   0.000000
    16  F    0.000000   0.000000   0.000000   0.000000   0.000000   0.000000
    17  C    0.000000  -0.000005  -0.000120   0.001602   0.008102   0.002831
    18  F    0.000000   0.000000   0.000000   0.000006  -0.000003  -0.000012
    19  F    0.000000   0.000008  -0.001112   0.016157  -0.006118  -0.001346
    20  F    0.000000   0.000000  -0.000006  -0.000361  -0.001311  -0.000564
    21  C    0.000087   0.000329   0.001454  -0.013284   0.000077   0.213060
    22  O    0.000000   0.000002   0.000143   0.000203  -0.000028  -0.087905
    23  N   -0.000332   0.003050  -0.097175  -0.000523   0.000101  -0.094942
    24  C    0.000001  -0.000048   0.001783   0.000318   0.000001   0.001634
    25  F    0.000000   0.000000  -0.000027   0.000002   0.000000  -0.000015
    26  F    0.000000   0.000005   0.000048   0.000001   0.000000  -0.000025
    27  C    0.000000   0.000001  -0.000068   0.000044   0.000000  -0.000287
    28  F    0.000000   0.000000   0.000001   0.000002   0.000000   0.000015
    29  O    0.000000   0.000004  -0.000480   0.000016   0.000000  -0.000002
    30  C    0.000000   0.000000  -0.000006   0.000000   0.000000   0.000000
    31  F    0.000000   0.000000   0.000000   0.000000   0.000000   0.000000
    32  F    0.000000   0.000000   0.000000   0.000000   0.000000   0.000000
    33  F    0.000000   0.000000   0.000000   0.000000   0.000000   0.000000
    34  C    0.000000   0.000000  -0.000002   0.000000   0.000000   0.000000
    35  F    0.000000   0.000000   0.000000   0.000000   0.000000   0.000000
    36  F    0.000000   0.000000   0.000000   0.000000   0.000000   0.000000
    37  F    0.000000   0.000000   0.000000   0.000000   0.000000   0.000000
    38  C   -0.002625  -0.023766   0.252537  -0.020013   0.000330  -0.000386
    39  O   -0.002544  -0.000039  -0.088664   0.000391  -0.000025   0.000086
    40  H    0.386882  -0.028138   0.004050  -0.000025  -0.000009   0.000002
    41  H    0.390149  -0.032392  -0.005894  -0.000118   0.000021  -0.000001
    42  H    0.390275  -0.032442  -0.005790   0.003901   0.003013  -0.000056
    43  H   -0.037713   0.391371  -0.033520   0.004383   0.000549  -0.000066
    44  H   -0.037699   0.391485  -0.033594  -0.004069   0.008677   0.000487
               7          8          9         10         11         12
     1  C    0.000003   0.000000   0.000000   0.000000   0.000000   0.000000
     2  C   -0.000039   0.000004   0.000000   0.000002   0.000000   0.000000
     3  N    0.001157   0.000048  -0.000027  -0.000120   0.000000   0.000000
     4  C   -0.008586   0.006193   0.000378  -0.000827   0.000039  -0.000102
     5  O    0.013271  -0.012298   0.000016  -0.005556   0.000002   0.000014
     6  N    0.111788  -0.040680  -0.046392  -0.078014   0.001449   0.002404
     7  C    4.407039   0.290398   0.276212   0.236586  -0.008560  -0.030305
     8  F    0.290398   9.074759  -0.043276  -0.030465  -0.000729   0.000536
     9  F    0.276212  -0.043276   9.102247  -0.024204  -0.001006   0.000120
    10  C    0.236586  -0.030465  -0.024204   5.004189   0.211692   0.164394
    11  F   -0.008560  -0.000729  -0.001006   0.211692   9.133986  -0.049903
    12  O   -0.030305   0.000536   0.000120   0.164394  -0.049903   8.342697
    13  C    0.001349   0.000004  -0.000046   0.000807  -0.000168   0.233767
    14  F   -0.000129   0.000000   0.000000  -0.010130  -0.000023  -0.048132
    15  F   -0.000029   0.000000   0.000000   0.000567  -0.000023  -0.039112
    16  F    0.000145   0.000000   0.000000   0.012897  -0.002532  -0.045140
    17  C   -0.037169   0.001145   0.001530   0.167708  -0.016925  -0.029951
    18  F    0.001457  -0.000001  -0.000001  -0.025860  -0.000058  -0.001695
    19  F   -0.002475  -0.000102   0.000001  -0.028493   0.000343   0.000127
    20  F    0.000870  -0.000345   0.000001  -0.025752  -0.000207   0.000571
    21  C   -0.011700   0.000565   0.008711  -0.003188   0.000070   0.005972
    22  O    0.012787   0.000006  -0.008402  -0.002412  -0.000002  -0.006838
    23  N    0.000913  -0.000024  -0.000078  -0.000213   0.000000   0.000008
    24  C   -0.000047   0.000000   0.000007   0.000000   0.000000   0.000005
    25  F    0.000009   0.000000   0.000000   0.000000   0.000000   0.000000
    26  F    0.000000   0.000000   0.000000   0.000000   0.000000   0.000000
    27  C    0.000003   0.000000   0.000000   0.000000   0.000000  -0.000002
    28  F    0.000004   0.000000   0.000000  -0.000002   0.000000  -0.000003
    29  O    0.000000   0.000000   0.000000   0.000000   0.000000   0.000000
    30  C    0.000000   0.000000   0.000000   0.000000   0.000000   0.000000
    31  F    0.000000   0.000000   0.000000   0.000000   0.000000   0.000000
    32  F    0.000000   0.000000   0.000000   0.000000   0.000000   0.000000
    33  F    0.000000   0.000000   0.000000   0.000000   0.000000   0.000000
    34  C    0.000000   0.000000   0.000000   0.000000   0.000000   0.000000
    35  F    0.000000   0.000000   0.000000   0.000000   0.000000   0.000000
    36  F    0.000000   0.000000   0.000000   0.000000   0.000000   0.000000
    37  F    0.000000   0.000000   0.000000   0.000000   0.000000   0.000000
    38  C    0.000500   0.000004   0.000006   0.000031   0.000000   0.000002
    39  O    0.000001   0.000000   0.000000   0.000000   0.000000   0.000000
    40  H    0.000000   0.000000   0.000000   0.000000   0.000000   0.000000
    41  H    0.000000   0.000000   0.000000   0.000000   0.000000   0.000000
    42  H   -0.000001   0.000000   0.000000   0.000000   0.000000   0.000000
    43  H    0.000001   0.000000   0.000000   0.000000   0.000000   0.000000
    44  H    0.000011   0.000002   0.000000  -0.000001   0.000000   0.000000
              13         14         15         16         17         18
     1  C    0.000000   0.000000   0.000000   0.000000   0.000000   0.000000
     2  C    0.000000   0.000000   0.000000   0.000000  -0.000005   0.000000
     3  N    0.000000   0.000000   0.000000   0.000000  -0.000120   0.000000
     4  C    0.000005  -0.000001   0.000000   0.000000   0.001602   0.000006
     5  O   -0.000001   0.000000   0.000000   0.000000   0.008102  -0.000003
     6  N   -0.000197   0.000004   0.000000   0.000000   0.002831  -0.000012
     7  C    0.001349  -0.000129  -0.000029   0.000145  -0.037169   0.001457
     8  F    0.000004   0.000000   0.000000   0.000000   0.001145  -0.000001
     9  F   -0.000046   0.000000   0.000000   0.000000   0.001530  -0.000001
    10  C    0.000807  -0.010130   0.000567   0.012897   0.167708  -0.025860
    11  F   -0.000168  -0.000023  -0.000023  -0.002532  -0.016925  -0.000058
    12  O    0.233767  -0.048132  -0.039112  -0.045140  -0.029951  -0.001695
    13  C    3.826125   0.299664   0.340081   0.294964  -0.005358   0.012585
    14  F    0.299664   9.069044  -0.037801  -0.033716   0.018137  -0.007366
    15  F    0.340081  -0.037801   9.009659  -0.036329  -0.000031  -0.000004
    16  F    0.294964  -0.033716  -0.036329   9.058866  -0.004773  -0.001950
    17  C   -0.005358   0.018137  -0.000031  -0.004773   4.266390   0.274692
    18  F    0.012585  -0.007366  -0.000004  -0.001950   0.274692   9.080649
    19  F   -0.000235  -0.000404   0.000000   0.000013   0.247584  -0.037992
    20  F    0.000073   0.000000   0.000000  -0.000001   0.288743  -0.039972
    21  C    0.000192  -0.000007  -0.000003   0.000002  -0.000041   0.000001
    22  O    0.000603  -0.000003  -0.000010   0.000000  -0.000086   0.000000
    23  N    0.000001   0.000000   0.000000   0.000000   0.000012   0.000000
    24  C    0.000000   0.000000   0.000000   0.000000   0.000000   0.000000
    25  F    0.000000   0.000000   0.000000   0.000000   0.000000   0.000000
    26  F    0.000000   0.000000   0.000000   0.000000   0.000000   0.000000
    27  C    0.000000   0.000000   0.000000   0.000000   0.000000   0.000000
    28  F    0.000005   0.000000   0.000000   0.000000   0.000000   0.000000
    29  O    0.000000   0.000000   0.000000   0.000000   0.000000   0.000000
    30  C    0.000000   0.000000   0.000000   0.000000   0.000000   0.000000
    31  F    0.000000   0.000000   0.000000   0.000000   0.000000   0.000000
    32  F    0.000000   0.000000   0.000000   0.000000   0.000000   0.000000
    33  F    0.000000   0.000000   0.000000   0.000000   0.000000   0.000000
    34  C    0.000000   0.000000   0.000000   0.000000   0.000000   0.000000
    35  F    0.000000   0.000000   0.000000   0.000000   0.000000   0.000000
    36  F    0.000000   0.000000   0.000000   0.000000   0.000000   0.000000
    37  F    0.000000   0.000000   0.000000   0.000000   0.000000   0.000000
    38  C    0.000000   0.000000   0.000000   0.000000  -0.000002   0.000000
    39  O    0.000000   0.000000   0.000000   0.000000   0.000000   0.000000
    40  H    0.000000   0.000000   0.000000   0.000000   0.000000   0.000000
    41  H    0.000000   0.000000   0.000000   0.000000   0.000000   0.000000
    42  H    0.000000   0.000000   0.000000   0.000000   0.000000   0.000000
    43  H    0.000000   0.000000   0.000000   0.000000   0.000000   0.000000
    44  H    0.000000   0.000000   0.000000   0.000000   0.000012   0.000000
              19         20         21         22         23         24
     1  C    0.000000   0.000000   0.000087   0.000000  -0.000332   0.000001
     2  C    0.000008   0.000000   0.000329   0.000002   0.003050  -0.000048
     3  N   -0.001112  -0.000006   0.001454   0.000143  -0.097175   0.001783
     4  C    0.016157  -0.000361  -0.013284   0.000203  -0.000523   0.000318
     5  O   -0.006118  -0.001311   0.000077  -0.000028   0.000101   0.000001
     6  N   -0.001346  -0.000564   0.213060  -0.087905  -0.094942   0.001634
     7  C   -0.002475   0.000870  -0.011700   0.012787   0.000913  -0.000047
     8  F   -0.000102  -0.000345   0.000565   0.000006  -0.000024   0.000000
     9  F    0.000001   0.000001   0.008711  -0.008402  -0.000078   0.000007
    10  C   -0.028493  -0.025752  -0.003188  -0.002412  -0.000213   0.000000
    11  F    0.000343  -0.000207   0.000070  -0.000002   0.000000   0.000000
    12  O    0.000127   0.000571   0.005972  -0.006838   0.000008   0.000005
    13  C   -0.000235   0.000073   0.000192   0.000603   0.000001   0.000000
    14  F   -0.000404   0.000000  -0.000007  -0.000003   0.000000   0.000000
    15  F    0.000000   0.000000  -0.000003  -0.000010   0.000000   0.000000
    16  F    0.000013  -0.000001   0.000002   0.000000   0.000000   0.000000
    17  C    0.247584   0.288743  -0.000041  -0.000086   0.000012   0.000000
    18  F   -0.037992  -0.039972   0.000001   0.000000   0.000000   0.000000
    19  F    9.099089  -0.034690   0.000524   0.000000  -0.000015   0.000000
    20  F   -0.034690   9.046927   0.000008   0.000000   0.000000   0.000000
    21  C    0.000524   0.000008   4.196801   0.562066   0.215239  -0.013629
    22  O    0.000000   0.000000   0.562066   8.088973  -0.090578   0.015005
    23  N   -0.000015   0.000000   0.215239  -0.090578   7.559937   0.181911
    24  C    0.000000   0.000000  -0.013629   0.015005   0.181911   4.360088
    25  F    0.000000   0.000000   0.007800  -0.009098  -0.040408   0.270813
    26  F    0.000000   0.000000   0.000930   0.000008  -0.037425   0.269619
    27  C    0.000000   0.000000  -0.000364  -0.001367  -0.069045   0.210766
    28  F    0.000000   0.000000   0.007745  -0.004561  -0.000812  -0.022172
    29  O    0.000000   0.000000   0.000093  -0.000047   0.000364  -0.026540
    30  C    0.000000   0.000000  -0.000009  -0.000004  -0.000191   0.001051
    31  F    0.000000   0.000000   0.000000   0.000000   0.000001  -0.000167
    32  F    0.000000   0.000000   0.000001   0.000000  -0.000002   0.000193
    33  F    0.000000   0.000000   0.000000   0.000000   0.000001  -0.000032
    34  C    0.000000   0.000000   0.000312  -0.000021   0.003117  -0.030215
    35  F    0.000000   0.000000  -0.000005  -0.000001   0.000043   0.005948
    36  F    0.000000   0.000000   0.000000   0.000000  -0.000024   0.000312
    37  F    0.000000   0.000000   0.000000   0.000000  -0.000012   0.001324
    38  C    0.000041   0.000000  -0.014799   0.000214   0.202150  -0.005674
    39  O    0.000000   0.000000   0.000016  -0.000027  -0.088807   0.016399
    40  H    0.000000   0.000000  -0.000001   0.000000   0.000003   0.000000
    41  H    0.000000   0.000000  -0.000001   0.000000  -0.000079  -0.000001
    42  H    0.000000   0.000000   0.000000   0.000000  -0.000001   0.000000
    43  H    0.000001   0.000000  -0.000059   0.000000   0.000489   0.000015
    44  H    0.000030  -0.000001  -0.000058   0.000000  -0.000064   0.000002
              25         26         27         28         29         30
     1  C    0.000000   0.000000   0.000000   0.000000   0.000000   0.000000
     2  C    0.000000   0.000005   0.000001   0.000000   0.000004   0.000000
     3  N   -0.000027   0.000048  -0.000068   0.000001  -0.000480  -0.000006
     4  C    0.000002   0.000001   0.000044   0.000002   0.000016   0.000000
     5  O    0.000000   0.000000   0.000000   0.000000   0.000000   0.000000
     6  N   -0.000015  -0.000025  -0.000287   0.000015  -0.000002   0.000000
     7  C    0.000009   0.000000   0.000003   0.000004   0.000000   0.000000
     8  F    0.000000   0.000000   0.000000   0.000000   0.000000   0.000000
     9  F    0.000000   0.000000   0.000000   0.000000   0.000000   0.000000
    10  C    0.000000   0.000000   0.000000  -0.000002   0.000000   0.000000
    11  F    0.000000   0.000000   0.000000   0.000000   0.000000   0.000000
    12  O    0.000000   0.000000  -0.000002  -0.000003   0.000000   0.000000
    13  C    0.000000   0.000000   0.000000   0.000005   0.000000   0.000000
    14  F    0.000000   0.000000   0.000000   0.000000   0.000000   0.000000
    15  F    0.000000   0.000000   0.000000   0.000000   0.000000   0.000000
    16  F    0.000000   0.000000   0.000000   0.000000   0.000000   0.000000
    17  C    0.000000   0.000000   0.000000   0.000000   0.000000   0.000000
    18  F    0.000000   0.000000   0.000000   0.000000   0.000000   0.000000
    19  F    0.000000   0.000000   0.000000   0.000000   0.000000   0.000000
    20  F    0.000000   0.000000   0.000000   0.000000   0.000000   0.000000
    21  C    0.007800   0.000930  -0.000364   0.007745   0.000093  -0.000009
    22  O   -0.009098   0.000008  -0.001367  -0.004561  -0.000047  -0.000004
    23  N   -0.040408  -0.037425  -0.069045  -0.000812   0.000364  -0.000191
    24  C    0.270813   0.269619   0.210766  -0.022172  -0.026540   0.001051
    25  F    9.097341  -0.041591  -0.024423  -0.000112   0.000547   0.000005
    26  F   -0.041591   9.094834  -0.035427   0.000301   0.000824  -0.000055
    27  C   -0.024423  -0.035427   4.992067   0.221019   0.154197   0.001759
    28  F   -0.000112   0.000301   0.221019   9.124381  -0.053704  -0.001032
    29  O    0.000547   0.000824   0.154197  -0.053704   8.356282   0.234146
    30  C    0.000005  -0.000055   0.001759  -0.001032   0.234146   3.821490
    31  F    0.000000   0.000001  -0.009026  -0.000015  -0.047325   0.302558
    32  F    0.000000   0.000000   0.012743  -0.001435  -0.046379   0.295459
    33  F    0.000000   0.000000   0.000551  -0.000021  -0.039494   0.339255
    34  C   -0.000914   0.007213   0.208590  -0.014975  -0.026617  -0.003587
    35  F   -0.002631  -0.000804  -0.028884  -0.000265   0.000541   0.000058
    36  F   -0.000173  -0.000778  -0.032403   0.000310   0.000301  -0.000383
    37  F   -0.000002   0.000000  -0.031536  -0.000062  -0.001528   0.012209
    38  C    0.000510   0.004995  -0.003145  -0.000418   0.005121   0.000116
    39  O    0.000016  -0.010707  -0.003701   0.000007  -0.002723   0.000457
    40  H    0.000000   0.000000   0.000000   0.000000   0.000000   0.000000
    41  H    0.000000   0.000000   0.000000   0.000000   0.000000   0.000000
    42  H    0.000000   0.000000   0.000000   0.000000   0.000000   0.000000
    43  H    0.000000   0.000002  -0.000001   0.000000  -0.000003   0.000002
    44  H    0.000000   0.000000   0.000000   0.000000   0.000000   0.000000
              31         32         33         34         35         36
     1  C    0.000000   0.000000   0.000000   0.000000   0.000000   0.000000
     2  C    0.000000   0.000000   0.000000   0.000000   0.000000   0.000000
     3  N    0.000000   0.000000   0.000000  -0.000002   0.000000   0.000000
     4  C    0.000000   0.000000   0.000000   0.000000   0.000000   0.000000
     5  O    0.000000   0.000000   0.000000   0.000000   0.000000   0.000000
     6  N    0.000000   0.000000   0.000000   0.000000   0.000000   0.000000
     7  C    0.000000   0.000000   0.000000   0.000000   0.000000   0.000000
     8  F    0.000000   0.000000   0.000000   0.000000   0.000000   0.000000
     9  F    0.000000   0.000000   0.000000   0.000000   0.000000   0.000000
    10  C    0.000000   0.000000   0.000000   0.000000   0.000000   0.000000
    11  F    0.000000   0.000000   0.000000   0.000000   0.000000   0.000000
    12  O    0.000000   0.000000   0.000000   0.000000   0.000000   0.000000
    13  C    0.000000   0.000000   0.000000   0.000000   0.000000   0.000000
    14  F    0.000000   0.000000   0.000000   0.000000   0.000000   0.000000
    15  F    0.000000   0.000000   0.000000   0.000000   0.000000   0.000000
    16  F    0.000000   0.000000   0.000000   0.000000   0.000000   0.000000
    17  C    0.000000   0.000000   0.000000   0.000000   0.000000   0.000000
    18  F    0.000000   0.000000   0.000000   0.000000   0.000000   0.000000
    19  F    0.000000   0.000000   0.000000   0.000000   0.000000   0.000000
    20  F    0.000000   0.000000   0.000000   0.000000   0.000000   0.000000
    21  C    0.000000   0.000001   0.000000   0.000312  -0.000005   0.000000
    22  O    0.000000   0.000000   0.000000  -0.000021  -0.000001   0.000000
    23  N    0.000001  -0.000002   0.000001   0.003117   0.000043  -0.000024
    24  C   -0.000167   0.000193  -0.000032  -0.030215   0.005948   0.000312
    25  F    0.000000   0.000000   0.000000  -0.000914  -0.002631  -0.000173
    26  F    0.000001   0.000000   0.000000   0.007213  -0.000804  -0.000778
    27  C   -0.009026   0.012743   0.000551   0.208590  -0.028884  -0.032403
    28  F   -0.000015  -0.001435  -0.000021  -0.014975  -0.000265   0.000310
    29  O   -0.047325  -0.046379  -0.039494  -0.026617   0.000541   0.000301
    30  C    0.302558   0.295459   0.339255  -0.003587   0.000058  -0.000383
    31  F    9.056818  -0.033746  -0.037255   0.017757   0.000000  -0.000473
    32  F   -0.033746   9.058648  -0.036694  -0.004229   0.000000   0.000014
    33  F   -0.037255  -0.036694   9.013207  -0.000026   0.000000   0.000000
    34  C    0.017757  -0.004229  -0.000026   4.193752   0.287991   0.267146
    35  F    0.000000   0.000000   0.000000   0.287991   9.059318  -0.037929
    36  F   -0.000473   0.000014   0.000000   0.267146  -0.037929   9.088581
    37  F   -0.006771  -0.002005  -0.000004   0.281121  -0.039973  -0.038784
    38  C    0.000002   0.000000  -0.000013  -0.000025   0.000002   0.000003
    39  O   -0.000002   0.000000  -0.000005  -0.000030   0.000000  -0.000001
    40  H    0.000000   0.000000   0.000000   0.000000   0.000000   0.000000
    41  H    0.000000   0.000000   0.000000   0.000000   0.000000   0.000000
    42  H    0.000000   0.000000   0.000000   0.000000   0.000000   0.000000
    43  H    0.000000   0.000000   0.000000   0.000000   0.000000   0.000000
    44  H    0.000000   0.000000   0.000000   0.000000   0.000000   0.000000
              37         38         39         40         41         42
     1  C    0.000000  -0.002625  -0.002544   0.386882   0.390149   0.390275
     2  C    0.000000  -0.023766  -0.000039  -0.028138  -0.032392  -0.032442
     3  N    0.000000   0.252537  -0.088664   0.004050  -0.005894  -0.005790
     4  C    0.000000  -0.020013   0.000391  -0.000025  -0.000118   0.003901
     5  O    0.000000   0.000330  -0.000025  -0.000009   0.000021   0.003013
     6  N    0.000000  -0.000386   0.000086   0.000002  -0.000001  -0.000056
     7  C    0.000000   0.000500   0.000001   0.000000   0.000000  -0.000001
     8  F    0.000000   0.000004   0.000000   0.000000   0.000000   0.000000
     9  F    0.000000   0.000006   0.000000   0.000000   0.000000   0.000000
    10  C    0.000000   0.000031   0.000000   0.000000   0.000000   0.000000
    11  F    0.000000   0.000000   0.000000   0.000000   0.000000   0.000000
    12  O    0.000000   0.000002   0.000000   0.000000   0.000000   0.000000
    13  C    0.000000   0.000000   0.000000   0.000000   0.000000   0.000000
    14  F    0.000000   0.000000   0.000000   0.000000   0.000000   0.000000
    15  F    0.000000   0.000000   0.000000   0.000000   0.000000   0.000000
    16  F    0.000000   0.000000   0.000000   0.000000   0.000000   0.000000
    17  C    0.000000  -0.000002   0.000000   0.000000   0.000000   0.000000
    18  F    0.000000   0.000000   0.000000   0.000000   0.000000   0.000000
    19  F    0.000000   0.000041   0.000000   0.000000   0.000000   0.000000
    20  F    0.000000   0.000000   0.000000   0.000000   0.000000   0.000000
    21  C    0.000000  -0.014799   0.000016  -0.000001  -0.000001   0.000000
    22  O    0.000000   0.000214  -0.000027   0.000000   0.000000   0.000000
    23  N   -0.000012   0.202150  -0.088807   0.000003  -0.000079  -0.000001
    24  C    0.001324  -0.005674   0.016399   0.000000  -0.000001   0.000000
    25  F   -0.000002   0.000510   0.000016   0.000000   0.000000   0.000000
    26  F    0.000000   0.004995  -0.010707   0.000000   0.000000   0.000000
    27  C   -0.031536  -0.003145  -0.003701   0.000000   0.000000   0.000000
    28  F   -0.000062  -0.000418   0.000007   0.000000   0.000000   0.000000
    29  O   -0.001528   0.005121  -0.002723   0.000000   0.000000   0.000000
    30  C    0.012209   0.000116   0.000457   0.000000   0.000000   0.000000
    31  F   -0.006771   0.000002  -0.000002   0.000000   0.000000   0.000000
    32  F   -0.002005   0.000000   0.000000   0.000000   0.000000   0.000000
    33  F   -0.000004  -0.000013  -0.000005   0.000000   0.000000   0.000000
    34  C    0.281121  -0.000025  -0.000030   0.000000   0.000000   0.000000
    35  F   -0.039973   0.000002   0.000000   0.000000   0.000000   0.000000
    36  F   -0.038784   0.000003  -0.000001   0.000000   0.000000   0.000000
    37  F    9.085116   0.000000   0.000000   0.000000   0.000000   0.000000
    38  C    0.000000   4.169677   0.579868  -0.000033   0.003993  -0.000154
    39  O    0.000000   0.579868   8.091782  -0.000013   0.002904   0.000019
    40  H    0.000000  -0.000033  -0.000013   0.559139  -0.024951  -0.024887
    41  H    0.000000   0.003993   0.002904  -0.024951   0.569940  -0.031368
    42  H    0.000000  -0.000154   0.000019  -0.024887  -0.031368   0.569236
    43  H    0.000000  -0.004130   0.008794  -0.001439  -0.005054   0.004433
    44  H    0.000000   0.004275   0.000542  -0.001475   0.004450  -0.005044
              43         44
     1  C   -0.037713  -0.037699
     2  C    0.391371   0.391485
     3  N   -0.033520  -0.033594
     4  C    0.004383  -0.004069
     5  O    0.000549   0.008677
     6  N   -0.000066   0.000487
     7  C    0.000001   0.000011
     8  F    0.000000   0.000002
     9  F    0.000000   0.000000
    10  C    0.000000  -0.000001
    11  F    0.000000   0.000000
    12  O    0.000000   0.000000
    13  C    0.000000   0.000000
    14  F    0.000000   0.000000
    15  F    0.000000   0.000000
    16  F    0.000000   0.000000
    17  C    0.000000   0.000012
    18  F    0.000000   0.000000
    19  F    0.000001   0.000030
    20  F    0.000000  -0.000001
    21  C   -0.000059  -0.000058
    22  O    0.000000   0.000000
    23  N    0.000489  -0.000064
    24  C    0.000015   0.000002
    25  F    0.000000   0.000000
    26  F    0.000002   0.000000
    27  C   -0.000001   0.000000
    28  F    0.000000   0.000000
    29  O   -0.000003   0.000000
    30  C    0.000002   0.000000
    31  F    0.000000   0.000000
    32  F    0.000000   0.000000
    33  F    0.000000   0.000000
    34  C    0.000000   0.000000
    35  F    0.000000   0.000000
    36  F    0.000000   0.000000
    37  F    0.000000   0.000000
    38  C   -0.004130   0.004275
    39  O    0.008794   0.000542
    40  H   -0.001439  -0.001475
    41  H   -0.005054   0.004450
    42  H    0.004433  -0.005044
    43  H    0.541013  -0.028209
    44  H   -0.028209   0.542007
 Mulliken charges:
               1
     1  C   -0.327232
     2  C   -0.067510
     3  N   -0.584531
     4  C    0.843570
     5  O   -0.508836
     6  N   -0.639580
     7  C    0.744538
     8  F   -0.245743
     9  F   -0.265796
    10  C    0.436364
    11  F   -0.267444
    12  O   -0.499434
    13  C    0.995777
    14  F   -0.249138
    15  F   -0.236966
    16  F   -0.242444
    17  C    0.815974
    18  F   -0.254475
    19  F   -0.250936
    20  F   -0.233982
    21  C    0.835095
    22  O   -0.468618
    23  N   -0.646589
    24  C    0.761330
    25  F   -0.257646
    26  F   -0.251968
    27  C    0.437937
    28  F   -0.254203
    29  O   -0.507596
    30  C    0.996702
    31  F   -0.242357
    32  F   -0.242570
    33  F   -0.239471
    34  C    0.813642
    35  F   -0.243408
    36  F   -0.245718
    37  F   -0.259092
    38  C    0.850811
    39  O   -0.503995
    40  H    0.130894
    41  H    0.128401
    42  H    0.128867
    43  H    0.159141
    44  H    0.158236
 Sum of Mulliken charges =   0.00000
 Mulliken charges with hydrogens summed into heavy atoms:
               1
     1  C    0.060930
     2  C    0.249867
     3  N   -0.584531
     4  C    0.843570
     5  O   -0.508836
     6  N   -0.639580
     7  C    0.744538
     8  F   -0.245743
     9  F   -0.265796
    10  C    0.436364
    11  F   -0.267444
    12  O   -0.499434
    13  C    0.995777
    14  F   -0.249138
    15  F   -0.236966
    16  F   -0.242444
    17  C    0.815974
    18  F   -0.254475
    19  F   -0.250936
    20  F   -0.233982
    21  C    0.835095
    22  O   -0.468618
    23  N   -0.646589
    24  C    0.761330
    25  F   -0.257646
    26  F   -0.251968
    27  C    0.437937
    28  F   -0.254203
    29  O   -0.507596
    30  C    0.996702
    31  F   -0.242357
    32  F   -0.242570
    33  F   -0.239471
    34  C    0.813642
    35  F   -0.243408
    36  F   -0.245718
    37  F   -0.259092
    38  C    0.850811
    39  O   -0.503995
 Electronic spatial extent (au):  <R**2>=          17151.3582
 Charge=              0.0000 electrons
 Dipole moment (field-independent basis, Debye):
    X=              0.2620    Y=              2.3412    Z=             -1.4536  Tot=              2.7682
 Quadrupole moment (field-independent basis, Debye-Ang):
   XX=           -221.7009   YY=           -203.1548   ZZ=           -206.7992
   XY=              1.6865   XZ=             -0.3383   YZ=              2.1569
 Traceless Quadrupole moment (field-independent basis, Debye-Ang):
   XX=            -11.1492   YY=              7.3969   ZZ=              3.7524
   XY=              1.6865   XZ=             -0.3383   YZ=              2.1569
 Octapole moment (field-independent basis, Debye-Ang**2):
  XXX=             15.6588  YYY=            302.5124  ZZZ=            -93.9375  XYY=             15.4711
  XXY=             59.1042  XXZ=            -28.1752  XZZ=             12.7541  YZZ=            106.2967
  YYZ=            -44.3970  XYZ=             -1.7700
 Hexadecapole moment (field-independent basis, Debye-Ang**3):
 XXXX=         -10775.6924 YYYY=          -4981.0489 ZZZZ=          -2253.6321 XXXY=            281.0545
 XXXZ=           -165.0462 YYYX=            326.8881 YYYZ=             47.2791 ZZZX=           -150.6769
 ZZZY=             88.3863 XXYY=          -2691.8816 XXZZ=          -2154.4863 YYZZ=          -1193.9657
 XXYZ=             49.7421 YYXZ=            -61.7988 ZZXY=             85.1639
 N-N= 5.945734958763D+03 E-N=-1.859217489740D+04  KE= 2.814389811220D+03
 No NMR shielding tensors so no spin-rotation constants.
 Leave Link  601 at Sun Mar  3 18:09:51 2024, MaxMem=  5368709120 cpu:         6.0
 (Enter /home/k0335/k033513/app/g09/l9999.exe)
 1\1\GINC-C24U17N4\SP\RCAM-B3LYP\6-31G(d,p)\C13H5F18N3O5\K033513\03-Mar
 -2024\0\\#p CAM-B3LYP/6-31G(d,p) SCRF=(PCM,Solvent=Generic,Read) NoSym
 m out=wfn\\Title A230421851_0\\0,1\C,0,0.331666,4.523062,-0.683328\C,0
 ,0.198276,3.170698,-1.368912\N,0,0.052946,2.086116,-0.395142\C,0,-1.21
 7234,1.749711,0.023891\O,0,-2.211078,2.32801,-0.408812\N,0,-1.313027,0
 .707905,0.90802\C,0,-2.64011,0.239978,1.300316\F,0,-3.47882,1.30547,1.
 458901\F,0,-2.530258,-0.237971,2.585282\C,0,-3.344457,-0.858107,0.4526
 68\F,0,-4.498287,-1.200057,1.113153\O,0,-2.539099,-2.039946,0.430008\C
 ,0,-3.052783,-3.067126,-0.373721\F,0,-2.724876,-2.814569,-1.653039\F,0
 ,-2.483646,-4.22982,-0.008167\F,0,-4.383969,-3.175123,-0.252214\C,0,-3
 .708517,-0.269971,-0.911483\F,0,-4.455008,-1.130215,-1.644896\F,0,-2.5
 91858,-0.021026,-1.637985\F,0,-4.42421,0.86722,-0.825952\C,0,-0.22445,
 -0.062498,1.235224\O,0,-0.340497,-1.208182,1.657889\N,0,1.008149,0.503
 802,1.029772\C,0,2.179009,-0.245121,1.472793\F,0,1.921849,-0.741597,2.
 716959\F,0,3.203838,0.628826,1.691135\C,0,2.643846,-1.380173,0.521996\
 F,0,1.666858,-2.330748,0.444922\O,0,2.770755,-0.8695,-0.810048\C,0,3.4
 21066,-1.753113,-1.684698\F,0,4.742492,-1.71674,-1.454644\F,0,2.956197
 ,-3.00311,-1.540399\F,0,3.188346,-1.347949,-2.94679\C,0,3.900372,-1.97
 0945,1.177863\F,0,3.696553,-2.35382,2.456765\F,0,4.929047,-1.093948,1.
 176828\F,0,4.331294,-3.074203,0.519241\C,0,1.197639,1.49034,0.095834\O
 ,0,2.313625,1.810878,-0.309338\H,0,0.438566,5.317728,-1.427978\H,0,1.2
 08191,4.547931,-0.027699\H,0,-0.549024,4.743408,-0.071297\H,0,1.079706
 ,2.989969,-1.994376\H,0,-0.669079,3.184526,-2.038544\\Version=ES64L-G0
 9RevD.01\HF=-2835.109565\RMSD=6.980e-09\Dipole=0.1030905,0.921111,-0.5
 718713\Quadrupole=-8.2891937,5.4993796,2.7898141,1.253857,-0.2515277,1
 .6035851\PG=C01 [X(C13H5F18N3O5)]\\@

 Writing a WFN file to "A230421851/A230421851_0.wfn"


 ... SUBJECTS WHICH DISCLOSE THEIR FULL POWER, MEANING AND BEAUTY AS SOON
 AS THEY ARE PRESENTED TO THE MIND HAVE VERY LITTLE OF THOSE QUALITIES
 TO DISCLOSE.
                           -- CHARLES DUTTON (1882)
 Job cpu time:       0 days  0 hours 21 minutes 10.5 seconds.
 File lengths (MBytes):  RWF=    414 Int=      0 D2E=      0 Chk=     15 Scr=      1
 Normal termination of Gaussian 09 at Sun Mar  3 18:09:52 2024.
