 Entering Gaussian System, Link 0=g09
 Initial command:
 /home/k0335/k033513/app/g09/l1.exe "/home/k0335/k033513/app/g09/scratch/Gau-574499.inp" -scrdir="/home/k0335/k033513/app/g09/scratch/"
 Default is to use a total of  36 processors:
                               36 via shared-memory
                                1 via Linda
 Entering Link 1 = /home/k0335/k033513/app/g09/l1.exe PID=    574500.
  
 Copyright (c) 1988,1990,1992,1993,1995,1998,2003,2009,2013,
            Gaussian, Inc.  All Rights Reserved.
  
 This is part of the Gaussian(R) 09 program.  It is based on
 the Gaussian(R) 03 system (copyright 2003, Gaussian, Inc.),
 the Gaussian(R) 98 system (copyright 1998, Gaussian, Inc.),
 the Gaussian(R) 94 system (copyright 1995, Gaussian, Inc.),
 the Gaussian 92(TM) system (copyright 1992, Gaussian, Inc.),
 the Gaussian 90(TM) system (copyright 1990, Gaussian, Inc.),
 the Gaussian 88(TM) system (copyright 1988, Gaussian, Inc.),
 the Gaussian 86(TM) system (copyright 1986, Carnegie Mellon
 University), and the Gaussian 82(TM) system (copyright 1983,
 Carnegie Mellon University). Gaussian is a federally registered
 trademark of Gaussian, Inc.
  
 This software contains proprietary and confidential information,
 including trade secrets, belonging to Gaussian, Inc.
  
 This software is provided under written license and may be
 used, copied, transmitted, or stored only in accord with that
 written license.
  
 The following legend is applicable only to US Government
 contracts under FAR:
  
                    RESTRICTED RIGHTS LEGEND
  
 Use, reproduction and disclosure by the US Government is
 subject to restrictions as set forth in subparagraphs (a)
 and (c) of the Commercial Computer Software - Restricted
 Rights clause in FAR 52.227-19.
  
 Gaussian, Inc.
 340 Quinnipiac St., Bldg. 40, Wallingford CT 06492
  
  
 ---------------------------------------------------------------
 Warning -- This program may not be used in any manner that
 competes with the business of Gaussian, Inc. or will provide
 assistance to any competitor of Gaussian, Inc.  The licensee
 of this program is prohibited from giving any competitor of
 Gaussian, Inc. access to this program.  By using this program,
 the user acknowledges that Gaussian, Inc. is engaged in the
 business of creating and licensing software in the field of
 computational chemistry and represents and warrants to the
 licensee that it is not a competitor of Gaussian, Inc. and that
 it will not use this program in any manner prohibited above.
 ---------------------------------------------------------------
  

 Cite this work as:
 Gaussian 09, Revision D.01,
 M. J. Frisch, G. W. Trucks, H. B. Schlegel, G. E. Scuseria, 
 M. A. Robb, J. R. Cheeseman, G. Scalmani, V. Barone, B. Mennucci, 
 G. A. Petersson, H. Nakatsuji, M. Caricato, X. Li, H. P. Hratchian, 
 A. F. Izmaylov, J. Bloino, G. Zheng, J. L. Sonnenberg, M. Hada, 
 M. Ehara, K. Toyota, R. Fukuda, J. Hasegawa, M. Ishida, T. Nakajima, 
 Y. Honda, O. Kitao, H. Nakai, T. Vreven, J. A. Montgomery, Jr., 
 J. E. Peralta, F. Ogliaro, M. Bearpark, J. J. Heyd, E. Brothers, 
 K. N. Kudin, V. N. Staroverov, T. Keith, R. Kobayashi, J. Normand, 
 K. Raghavachari, A. Rendell, J. C. Burant, S. S. Iyengar, J. Tomasi, 
 M. Cossi, N. Rega, J. M. Millam, M. Klene, J. E. Knox, J. B. Cross, 
 V. Bakken, C. Adamo, J. Jaramillo, R. Gomperts, R. E. Stratmann, 
 O. Yazyev, A. J. Austin, R. Cammi, C. Pomelli, J. W. Ochterski, 
 R. L. Martin, K. Morokuma, V. G. Zakrzewski, G. A. Voth, 
 P. Salvador, J. J. Dannenberg, S. Dapprich, A. D. Daniels, 
 O. Farkas, J. B. Foresman, J. V. Ortiz, J. Cioslowski, 
 and D. J. Fox, Gaussian, Inc., Wallingford CT, 2013.
 
 ******************************************
 Gaussian 09:  ES64L-G09RevD.01 24-Apr-2013
                 3-Mar-2024 
 ******************************************
 %nprocshared=24
 Will use up to   24 processors via shared memory.
 %mem=40GB
 %rwf=A1400116032/A1400116032_p1.rwf
 %nosave
 %chk=A1400116032/A1400116032_p1.chk
 ----------------------------------------------------------------------
 #p CAM-B3LYP/6-31G(d,p) SCRF=(PCM,Solvent=Generic,Read) NoSymm out=wfn
 ----------------------------------------------------------------------
 1/38=1,40=2/1;
 2/12=2,15=1,17=6,18=5,40=1/2;
 3/5=1,6=6,7=101,11=2,16=1,25=1,30=1,70=2203,72=-2,74=-40/1,2,3;
 4//1;
 5/5=2,38=5/2;
 6/7=2,8=2,9=2,10=2,28=1/1;
 99/5=1,6=100,9=1/99;
 Leave Link    1 at Sun Mar  3 17:39:47 2024, MaxMem=  5368709120 cpu:         1.3
 (Enter /home/k0335/k033513/app/g09/l101.exe)
 --------------------
 Title A1400116032_p1
 --------------------
 Symbolic Z-matrix:
 Charge =  1 Multiplicity = 2
 O                     0.51144  -2.08965  -1.54363 
 C                     0.09617  -0.98729  -1.19751 
 N                     0.9669    0.0198   -0.84792 
 C                     2.41422  -0.22411  -0.99322 
 C                     3.03309  -0.80196   0.2916 
 F                     3.05121   0.16129   1.25174 
 F                     2.17495  -1.75248   0.76549 
 C                     4.44012  -1.40862   0.14162 
 F                     4.3991   -2.45001  -0.74311 
 O                     5.03827  -1.9108    1.3428 
 C                     4.2601   -2.86532   2.01554 
 F                     3.64087  -3.69579   1.16226 
 F                     3.35993  -2.23867   2.79229 
 F                     5.07294  -3.59079   2.80812 
 C                     5.37666  -0.34118  -0.43285 
 F                     6.6471   -0.79667  -0.5453 
 F                     5.41517   0.77127   0.33202 
 F                     4.99335   0.04227  -1.67434 
 C                     0.55816   1.18623  -0.2428 
 O                     1.3472    2.10635  -0.0452 
 N                    -0.76767   1.26064   0.09141 
 C                    -1.24274   2.42821   0.82409 
 F                    -2.1499    1.97162   1.75051 
 F                    -0.2478    2.92907   1.61556 
 C                    -1.90035   3.59779   0.04027 
 F                    -2.935     3.11898  -0.71033 
 O                    -2.48615   4.48573   1.00771 
 C                    -2.98888   5.66931   0.44899 
 F                    -3.63082   5.43524  -0.70555 
 F                    -1.97052   6.52191   0.24573 
 F                    -3.84793   6.22647   1.32184 
 C                    -0.8469    4.20182  -0.89 
 F                     0.19287   4.73233  -0.21802 
 F                    -1.36159   5.18645  -1.66357 
 F                    -0.36473   3.27525  -1.75401 
 C                    -1.7066    0.39446  -0.41638 
 O                    -2.90576   0.5854   -0.24334 
 N                    -1.23802  -0.68857  -1.12192 
 C                    -2.20163  -1.67282  -1.61184 
 F                    -1.67365  -2.35371  -2.67065 
 F                    -3.22836  -0.97395  -2.19964 
 C                    -2.82817  -2.67515  -0.6022 
 F                    -3.78186  -3.39197  -1.2794 
 O                    -3.52448  -1.95394   0.41874 
 C                    -4.06037  -2.7693    1.42627 
 F                    -4.58894  -3.89544   0.92537 
 F                    -3.08411  -3.0667    2.30109 
 F                    -5.02058  -2.08413   2.07262 
 C                    -1.73116  -3.62685  -0.12214 
 F                    -1.08016  -4.23507  -1.13199 
 F                    -0.82428  -2.96248   0.63345 
 F                    -2.22978  -4.61568   0.65686 
 H                     2.88952   0.72786  -1.2493 
 H                     2.56951  -0.91662  -1.82782 
 
 NAtoms=     54 NQM=       54 NQMF=       0 NMMI=      0 NMMIF=      0
                NMic=       0 NMicF=      0.
                    Isotopes and Nuclear Properties:
 (Nuclear quadrupole moments (NQMom) in fm**2, nuclear magnetic moments (NMagM)
  in nuclear magnetons)

  Atom         1           2           3           4           5           6           7           8           9          10
 IAtWgt=          16          12          14          12          12          19          19          12          19          16
 AtmWgt=  15.9949146  12.0000000  14.0030740  12.0000000  12.0000000  18.9984033  18.9984033  12.0000000  18.9984033  15.9949146
 NucSpn=           0           0           2           0           0           1           1           0           1           0
 AtZEff=   0.0000000   0.0000000   0.0000000   0.0000000   0.0000000   0.0000000   0.0000000   0.0000000   0.0000000   0.0000000
 NQMom=    0.0000000   0.0000000   2.0440000   0.0000000   0.0000000   0.0000000   0.0000000   0.0000000   0.0000000   0.0000000
 NMagM=    0.0000000   0.0000000   0.4037610   0.0000000   0.0000000   2.6288670   2.6288670   0.0000000   2.6288670   0.0000000
 AtZNuc=   8.0000000   6.0000000   7.0000000   6.0000000   6.0000000   9.0000000   9.0000000   6.0000000   9.0000000   8.0000000

  Atom        11          12          13          14          15          16          17          18          19          20
 IAtWgt=          12          19          19          19          12          19          19          19          12          16
 AtmWgt=  12.0000000  18.9984033  18.9984033  18.9984033  12.0000000  18.9984033  18.9984033  18.9984033  12.0000000  15.9949146
 NucSpn=           0           1           1           1           0           1           1           1           0           0
 AtZEff=   0.0000000   0.0000000   0.0000000   0.0000000   0.0000000   0.0000000   0.0000000   0.0000000   0.0000000   0.0000000
 NQMom=    0.0000000   0.0000000   0.0000000   0.0000000   0.0000000   0.0000000   0.0000000   0.0000000   0.0000000   0.0000000
 NMagM=    0.0000000   2.6288670   2.6288670   2.6288670   0.0000000   2.6288670   2.6288670   2.6288670   0.0000000   0.0000000
 AtZNuc=   6.0000000   9.0000000   9.0000000   9.0000000   6.0000000   9.0000000   9.0000000   9.0000000   6.0000000   8.0000000

  Atom        21          22          23          24          25          26          27          28          29          30
 IAtWgt=          14          12          19          19          12          19          16          12          19          19
 AtmWgt=  14.0030740  12.0000000  18.9984033  18.9984033  12.0000000  18.9984033  15.9949146  12.0000000  18.9984033  18.9984033
 NucSpn=           2           0           1           1           0           1           0           0           1           1
 AtZEff=   0.0000000   0.0000000   0.0000000   0.0000000   0.0000000   0.0000000   0.0000000   0.0000000   0.0000000   0.0000000
 NQMom=    2.0440000   0.0000000   0.0000000   0.0000000   0.0000000   0.0000000   0.0000000   0.0000000   0.0000000   0.0000000
 NMagM=    0.4037610   0.0000000   2.6288670   2.6288670   0.0000000   2.6288670   0.0000000   0.0000000   2.6288670   2.6288670
 AtZNuc=   7.0000000   6.0000000   9.0000000   9.0000000   6.0000000   9.0000000   8.0000000   6.0000000   9.0000000   9.0000000

  Atom        31          32          33          34          35          36          37          38          39          40
 IAtWgt=          19          12          19          19          19          12          16          14          12          19
 AtmWgt=  18.9984033  12.0000000  18.9984033  18.9984033  18.9984033  12.0000000  15.9949146  14.0030740  12.0000000  18.9984033
 NucSpn=           1           0           1           1           1           0           0           2           0           1
 AtZEff=   0.0000000   0.0000000   0.0000000   0.0000000   0.0000000   0.0000000   0.0000000   0.0000000   0.0000000   0.0000000
 NQMom=    0.0000000   0.0000000   0.0000000   0.0000000   0.0000000   0.0000000   0.0000000   2.0440000   0.0000000   0.0000000
 NMagM=    2.6288670   0.0000000   2.6288670   2.6288670   2.6288670   0.0000000   0.0000000   0.4037610   0.0000000   2.6288670
 AtZNuc=   9.0000000   6.0000000   9.0000000   9.0000000   9.0000000   6.0000000   8.0000000   7.0000000   6.0000000   9.0000000

  Atom        41          42          43          44          45          46          47          48          49          50
 IAtWgt=          19          12          19          16          12          19          19          19          12          19
 AtmWgt=  18.9984033  12.0000000  18.9984033  15.9949146  12.0000000  18.9984033  18.9984033  18.9984033  12.0000000  18.9984033
 NucSpn=           1           0           1           0           0           1           1           1           0           1
 AtZEff=   0.0000000   0.0000000   0.0000000   0.0000000   0.0000000   0.0000000   0.0000000   0.0000000   0.0000000   0.0000000
 NQMom=    0.0000000   0.0000000   0.0000000   0.0000000   0.0000000   0.0000000   0.0000000   0.0000000   0.0000000   0.0000000
 NMagM=    2.6288670   0.0000000   2.6288670   0.0000000   0.0000000   2.6288670   2.6288670   2.6288670   0.0000000   2.6288670
 AtZNuc=   9.0000000   6.0000000   9.0000000   8.0000000   6.0000000   9.0000000   9.0000000   9.0000000   6.0000000   9.0000000

  Atom        51          52          53          54
 IAtWgt=          19          19           1           1
 AtmWgt=  18.9984033  18.9984033   1.0078250   1.0078250
 NucSpn=           1           1           1           1
 AtZEff=   0.0000000   0.0000000   0.0000000   0.0000000
 NQMom=    0.0000000   0.0000000   0.0000000   0.0000000
 NMagM=    2.6288670   2.6288670   2.7928460   2.7928460
 AtZNuc=   9.0000000   9.0000000   1.0000000   1.0000000
 Leave Link  101 at Sun Mar  3 17:39:47 2024, MaxMem=  5368709120 cpu:         0.9
 (Enter /home/k0335/k033513/app/g09/l202.exe)
 Symmetry turned off by external request.
 Stoichiometry    C16H2F27N3O6(1+,2)
 Framework group  C1[X(C16H2F27N3O6)]
 Deg. of freedom   156
 Full point group                 C1      NOp   1
                          Input orientation:                          
 ---------------------------------------------------------------------
 Center     Atomic      Atomic             Coordinates (Angstroms)
 Number     Number       Type             X           Y           Z
 ---------------------------------------------------------------------
      1          8           0        0.511441   -2.089646   -1.543633
      2          6           0        0.096171   -0.987290   -1.197506
      3          7           0        0.966904    0.019795   -0.847922
      4          6           0        2.414219   -0.224106   -0.993224
      5          6           0        3.033089   -0.801962    0.291598
      6          9           0        3.051207    0.161294    1.251740
      7          9           0        2.174945   -1.752481    0.765494
      8          6           0        4.440119   -1.408624    0.141621
      9          9           0        4.399101   -2.450006   -0.743108
     10          8           0        5.038275   -1.910799    1.342797
     11          6           0        4.260098   -2.865323    2.015542
     12          9           0        3.640872   -3.695794    1.162263
     13          9           0        3.359930   -2.238668    2.792292
     14          9           0        5.072945   -3.590786    2.808120
     15          6           0        5.376655   -0.341182   -0.432848
     16          9           0        6.647103   -0.796671   -0.545297
     17          9           0        5.415173    0.771272    0.332022
     18          9           0        4.993354    0.042265   -1.674341
     19          6           0        0.558159    1.186226   -0.242804
     20          8           0        1.347202    2.106347   -0.045196
     21          7           0       -0.767670    1.260640    0.091408
     22          6           0       -1.242735    2.428213    0.824085
     23          9           0       -2.149899    1.971622    1.750509
     24          9           0       -0.247795    2.929066    1.615557
     25          6           0       -1.900352    3.597786    0.040268
     26          9           0       -2.935002    3.118984   -0.710328
     27          8           0       -2.486147    4.485729    1.007705
     28          6           0       -2.988877    5.669307    0.448989
     29          9           0       -3.630817    5.435243   -0.705550
     30          9           0       -1.970517    6.521913    0.245732
     31          9           0       -3.847934    6.226467    1.321840
     32          6           0       -0.846902    4.201817   -0.890001
     33          9           0        0.192865    4.732331   -0.218023
     34          9           0       -1.361593    5.186451   -1.663571
     35          9           0       -0.364731    3.275252   -1.754005
     36          6           0       -1.706599    0.394455   -0.416377
     37          8           0       -2.905756    0.585395   -0.243343
     38          7           0       -1.238016   -0.688574   -1.121920
     39          6           0       -2.201626   -1.672822   -1.611843
     40          9           0       -1.673646   -2.353710   -2.670654
     41          9           0       -3.228358   -0.973949   -2.199642
     42          6           0       -2.828166   -2.675150   -0.602202
     43          9           0       -3.781863   -3.391968   -1.279395
     44          8           0       -3.524477   -1.953942    0.418738
     45          6           0       -4.060368   -2.769301    1.426266
     46          9           0       -4.588936   -3.895442    0.925371
     47          9           0       -3.084111   -3.066702    2.301092
     48          9           0       -5.020582   -2.084134    2.072622
     49          6           0       -1.731156   -3.626853   -0.122143
     50          9           0       -1.080163   -4.235067   -1.131986
     51          9           0       -0.824279   -2.962477    0.633454
     52          9           0       -2.229778   -4.615683    0.656862
     53          1           0        2.889517    0.727861   -1.249302
     54          1           0        2.569508   -0.916621   -1.827823
 ---------------------------------------------------------------------
 Rotational constants (GHZ):      0.0613193      0.0439182      0.0299929
 Leave Link  202 at Sun Mar  3 17:39:47 2024, MaxMem=  5368709120 cpu:         0.0
 (Enter /home/k0335/k033513/app/g09/l301.exe)
 Standard basis: 6-31G(d,p) (6D, 7F)
 Ernie: Thresh=  0.10000D-02 Tol=  0.10000D-05 Strict=F.
   790 basis functions,  1470 primitive gaussians,   790 cartesian basis functions
   205 alpha electrons      204 beta electrons
       nuclear repulsion energy      9347.8328591699 Hartrees.
 IExCor=20419 DFT=T Ex+Corr=CAM-B3LYP ExCW=0 ScaHFX=  1.000000
 ScaDFX=  1.000000  1.000000  1.000000  0.810000 ScalE2=  1.000000  1.000000
 IRadAn=      0 IRanWt=     -1 IRanGd=            0 ICorTp=0 IEmpDi=  4
  HFx wShort=  0.000000 wLong=  0.330000 cFull=  0.190000 cShort=  0.000000 cLong=  0.460000
  DFx wShort=  0.000000 wLong=  0.330000 cFull=  0.190000 cShort=  0.000000 cLong=  0.460000
 NAtoms=   54 NActive=   54 NUniq=   54 SFac= 1.00D+00 NAtFMM=   60 NAOKFM=F Big=F
 Integral buffers will be    131072 words long.
 Raffenetti 2 integral format.
 Two-electron integral symmetry is turned off.
 Using the following non-standard input for PCM:
 eps=4.9
 --- end of non-standard input.
 ------------------------------------------------------------------------------
 Polarizable Continuum Model (PCM)
 =================================
 Model                : PCM (using non-symmetric T matrix).
 Atomic radii         : UFF (Universal Force Field).
 Polarization charges : Total charges.
 Charge compensation  : None.
 Solution method      : On-the-fly selection.
 Cavity type          : Scaled VdW (van der Waals Surface) (Alpha=1.100).
 Cavity algorithm     : GePol (No added spheres)
                        Default sphere list used, NSphG=   54.
                        Lebedev-Laikov grids with approx.  5.0 points / Ang**2.
                        Smoothing algorithm: Karplus/York (Gamma=1.0000).
                        Polarization charges: spherical gaussians, with
                                              point-specific exponents (IZeta= 3).
                        Self-potential: point-specific (ISelfS= 7).
                        Self-field    : sphere-specific E.n sum rule (ISelfD= 2).
 Solvent              : Generic,
                        Eps                           =   4.900000
                        Eps(infinity)                 =   0.000000
                        RSolv                         =   0.000000 Ang.
                        Molar volume                  =   0.000000 cm**3/mol
                        Thermal expansion coefficient =   0.000000 K**-1
                        Absolute temperature          = 298.150000 K
                        Numeral density               =   0.000000 Ang**-3
                        Hydrogen bond acidity         =   0.000000
                        Hydrogen bond basicity        =   0.000000
                        Surface tension at interface  =   0.000000 (cal/mol)*Ang**-2
                        Carbon aromaticity            =   0.000000
                        Electronegative halogenicity  =   0.000000
 ------------------------------------------------------------------------------
 GePol: Number of generator spheres                  =      54
 GePol: Total number of spheres                      =      54
 GePol: Number of exposed spheres                    =      54 (100.00%)
 GePol: Number of points                             =    4474
 GePol: Average weight of points                     =       0.12
 GePol: Minimum weight of points                     =   0.20D-09
 GePol: Maximum weight of points                     =    0.20577
 GePol: Number of points with low weight             =     178
 GePol: Fraction of low-weight points (<1% of avg)   =       3.98%
 GePol: Cavity surface area                          =    551.514 Ang**2
 GePol: Cavity volume                                =    662.009 Ang**3
 Leave Link  301 at Sun Mar  3 17:39:47 2024, MaxMem=  5368709120 cpu:         0.8
 (Enter /home/k0335/k033513/app/g09/l302.exe)
 NPDir=0 NMtPBC=     1 NCelOv=     1 NCel=       1 NClECP=     1 NCelD=      1
         NCelK=      1 NCelE2=     1 NClLst=     1 CellRange=     0.0.
 One-electron integrals computed using PRISM.
 NBasis=   790 RedAO= T EigKep=  1.28D-03  NBF=   790
 NBsUse=   790 1.00D-06 EigRej= -1.00D+00 NBFU=   790
 Precomputing XC quadrature grid using
 IXCGrd= 4 IRadAn=           0 IRanWt=          -1 IRanGd=           0 AccXCQ= 0.00D+00.
 Generated NRdTot=       0 NPtTot=           0 NUsed=           0 NTot=          32
 NSgBfM=   753   753   753   753   753 MxSgAt=    54 MxSgA2=    54.
 Leave Link  302 at Sun Mar  3 17:39:48 2024, MaxMem=  5368709120 cpu:        21.7
 (Enter /home/k0335/k033513/app/g09/l303.exe)
 DipDrv:  MaxL=1.
 Leave Link  303 at Sun Mar  3 17:39:48 2024, MaxMem=  5368709120 cpu:         1.1
 (Enter /home/k0335/k033513/app/g09/l401.exe)
 ExpMin= 1.61D-01 ExpMax= 7.00D+03 ExpMxC= 1.05D+03 IAcc=1 IRadAn=         1 AccDes= 0.00D+00
 Harris functional with IExCor=20419 and IRadAn=       1 diagonalized for initial guess.
 HarFok:  IExCor=20419 AccDes= 0.00D+00 IRadAn=         1 IDoV= 1 UseB2=F ITyADJ=14
 ICtDFT=  3500011 ScaDFX=  1.000000  1.000000  1.000000  1.000000
 FoFCou: FMM=F IPFlag=           0 FMFlag=      100000 FMFlg1=           0
         NFxFlg=           0 DoJE=T BraDBF=F KetDBF=T FulRan=T
         wScrn=  0.000000 ICntrl=     500 IOpCl=  0 I1Cent=   200000004 NGrid=           0
         NMat0=    1 NMatS0=      1 NMatT0=    0 NMatD0=    1 NMtDS0=    0 NMtDT0=    0
 Symmetry not used in FoFCou.
 Harris En= -3805.68392797912    
 JPrj=0 DoOrth=F DoCkMO=F.
 Initial guess <Sx>= 0.0000 <Sy>= 0.0000 <Sz>= 0.5000 <S**2>= 0.7500 S= 0.5000
 Leave Link  401 at Sun Mar  3 17:39:49 2024, MaxMem=  5368709120 cpu:        27.1
 (Enter /home/k0335/k033513/app/g09/l502.exe)
 UHF open shell SCF:
 Using DIIS extrapolation, IDIIS=  1040.
 Two-electron integral symmetry not used.
 IVT=     1914658 IEndB=     1914658 NGot=  5368709120 MDV=  5367435993
 LenX=  5367435993 LenY=  5366811103
 Requested convergence on RMS density matrix=1.00D-08 within 128 cycles.
 Requested convergence on MAX density matrix=1.00D-06.
 Requested convergence on             energy=1.00D-06.
 No special actions if energy rises.
 Fock matrices will be formed incrementally for  20 cycles.

 Cycle   1  Pass 1  IDiag  1:
 FoFJK:  IHMeth= 1 ICntrl=       0 DoSepK=T KAlg= 0 I1Cent=   0 FoldK=F
 IRaf=         1 NMat=   1 IRICut=       1 DoRegI=T DoRafI=F ISym2E= 0.
 FoFCou: FMM=F IPFlag=           0 FMFlag=      100000 FMFlg1=           0
         NFxFlg=           0 DoJE=T BraDBF=F KetDBF=F FulRan=T
         wScrn=  0.000000 ICntrl=     500 IOpCl=  0 I1Cent=           0 NGrid=           0
         NMat0=    1 NMatS0=      1 NMatT0=    0 NMatD0=    1 NMtDS0=    0 NMtDT0=    0
 Symmetry not used in FoFCou.
 Inv3:  Mode=1 IEnd=    60050028.
 Iteration    1 A*A^-1 deviation from unit magnitude is 7.22D-15 for   4472.
 Iteration    1 A*A^-1 deviation from orthogonality  is 3.27D-15 for   3856    378.
 Iteration    1 A^-1*A deviation from unit magnitude is 7.11D-15 for   4472.
 Iteration    1 A^-1*A deviation from orthogonality  is 8.36D-11 for   4230   4228.
 E= -3919.34505731967    
 DIIS: error= 4.83D-02 at cycle   1 NSaved=   1.
 NSaved= 1 IEnMin= 1 EnMin= -3919.34505731967     IErMin= 1 ErrMin= 4.83D-02
 ErrMax= 4.83D-02  0.00D+00 EMaxC= 1.00D-01 BMatC= 1.37D+01 BMatP= 1.37D+01
 IDIUse=3 WtCom= 5.17D-01 WtEn= 4.83D-01
 Coeff-Com:  0.100D+01
 Coeff-En:   0.100D+01
 Coeff:      0.100D+01
 Gap=     0.436 Goal=   None    Shift=    0.000
 Gap=     0.089 Goal=   None    Shift=    0.000
 GapD=    0.089 DampG=0.500 DampE=0.500 DampFc=0.2500 IDamp=-1.
 Damping current iteration by 2.50D-01
 RMSDP=3.01D-03 MaxDP=1.76D-01              OVMax= 5.99D-01

 Cycle   2  Pass 1  IDiag  1:
 RMSU=  7.53D-04    CP:  1.00D+00
 E= -3919.81154420384     Delta-E=       -0.466486884168 Rises=F Damp=T
 DIIS: error= 3.58D-02 at cycle   2 NSaved=   2.
 NSaved= 2 IEnMin= 2 EnMin= -3919.81154420384     IErMin= 2 ErrMin= 3.58D-02
 ErrMax= 3.58D-02  0.00D+00 EMaxC= 1.00D-01 BMatC= 5.67D+00 BMatP= 1.37D+01
 IDIUse=3 WtCom= 6.42D-01 WtEn= 3.58D-01
 Coeff-Com: -0.145D+01 0.245D+01
 Coeff-En:   0.000D+00 0.100D+01
 Coeff:     -0.932D+00 0.193D+01
 Gap=     0.467 Goal=   None    Shift=    0.000
 Gap=     0.023 Goal=   None    Shift=    0.000
 RMSDP=1.53D-03 MaxDP=9.60D-02 DE=-4.66D-01 OVMax= 7.75D-01

 Cycle   3  Pass 1  IDiag  1:
 RMSU=  1.07D-03    CP:  1.00D+00  2.46D+00
 E= -3920.58561869271     Delta-E=       -0.774074488872 Rises=F Damp=F
 DIIS: error= 1.24D-02 at cycle   3 NSaved=   3.
 NSaved= 3 IEnMin= 3 EnMin= -3920.58561869271     IErMin= 3 ErrMin= 1.24D-02
 ErrMax= 1.24D-02  0.00D+00 EMaxC= 1.00D-01 BMatC= 1.02D+00 BMatP= 5.67D+00
 IDIUse=3 WtCom= 8.76D-01 WtEn= 1.24D-01
 Coeff-Com: -0.697D+00 0.115D+01 0.545D+00
 Coeff-En:   0.000D+00 0.000D+00 0.100D+01
 Coeff:     -0.610D+00 0.101D+01 0.602D+00
 Gap=     0.401 Goal=   None    Shift=    0.000
 Gap=     0.034 Goal=   None    Shift=    0.000
 RMSDP=9.91D-04 MaxDP=1.69D-01 DE=-7.74D-01 OVMax= 6.50D-01

 Cycle   4  Pass 1  IDiag  1:
 RMSU=  5.69D-04    CP:  9.99D-01  2.81D+00  2.85D-01
 E= -3920.68576898530     Delta-E=       -0.100150292596 Rises=F Damp=F
 DIIS: error= 9.86D-03 at cycle   4 NSaved=   4.
 NSaved= 4 IEnMin= 4 EnMin= -3920.68576898530     IErMin= 4 ErrMin= 9.86D-03
 ErrMax= 9.86D-03  0.00D+00 EMaxC= 1.00D-01 BMatC= 5.10D-01 BMatP= 1.02D+00
 IDIUse=3 WtCom= 9.01D-01 WtEn= 9.86D-02
 Coeff-Com: -0.155D+00 0.257D+00 0.409D+00 0.489D+00
 Coeff-En:   0.000D+00 0.000D+00 0.349D+00 0.651D+00
 Coeff:     -0.140D+00 0.232D+00 0.403D+00 0.505D+00
 Gap=     0.398 Goal=   None    Shift=    0.000
 Gap=     0.063 Goal=   None    Shift=    0.000
 RMSDP=5.05D-04 MaxDP=9.33D-02 DE=-1.00D-01 OVMax= 3.12D-01

 Cycle   5  Pass 1  IDiag  1:
 RMSU=  2.76D-04    CP:  9.98D-01  2.66D+00  6.18D-01  6.50D-01
 E= -3920.76939989456     Delta-E=       -0.083630909252 Rises=F Damp=F
 DIIS: error= 2.67D-03 at cycle   5 NSaved=   5.
 NSaved= 5 IEnMin= 5 EnMin= -3920.76939989456     IErMin= 5 ErrMin= 2.67D-03
 ErrMax= 2.67D-03  0.00D+00 EMaxC= 1.00D-01 BMatC= 5.96D-02 BMatP= 5.10D-01
 IDIUse=3 WtCom= 9.73D-01 WtEn= 2.67D-02
 Coeff-Com: -0.678D-02 0.142D-01 0.203D+00 0.339D+00 0.451D+00
 Coeff-En:   0.000D+00 0.000D+00 0.000D+00 0.682D-01 0.932D+00
 Coeff:     -0.660D-02 0.138D-01 0.197D+00 0.331D+00 0.464D+00
 Gap=     0.369 Goal=   None    Shift=    0.000
 Gap=     0.089 Goal=   None    Shift=    0.000
 RMSDP=1.88D-04 MaxDP=4.27D-02 DE=-8.36D-02 OVMax= 9.73D-02

 Cycle   6  Pass 1  IDiag  1:
 RMSU=  1.15D-04    CP:  9.98D-01  2.71D+00  5.72D-01  8.01D-01  6.17D-01
 E= -3920.78075678704     Delta-E=       -0.011356892488 Rises=F Damp=F
 DIIS: error= 9.76D-04 at cycle   6 NSaved=   6.
 NSaved= 6 IEnMin= 6 EnMin= -3920.78075678704     IErMin= 6 ErrMin= 9.76D-04
 ErrMax= 9.76D-04  0.00D+00 EMaxC= 1.00D-01 BMatC= 7.28D-03 BMatP= 5.96D-02
 IDIUse=3 WtCom= 9.90D-01 WtEn= 9.76D-03
 Coeff-Com:  0.197D-01-0.292D-01 0.640D-01 0.123D+00 0.284D+00 0.538D+00
 Coeff-En:   0.000D+00 0.000D+00 0.000D+00 0.000D+00 0.296D-01 0.970D+00
 Coeff:      0.195D-01-0.289D-01 0.634D-01 0.122D+00 0.282D+00 0.542D+00
 Gap=     0.363 Goal=   None    Shift=    0.000
 Gap=     0.105 Goal=   None    Shift=    0.000
 RMSDP=7.78D-05 MaxDP=2.15D-02 DE=-1.14D-02 OVMax= 3.80D-02

 Cycle   7  Pass 1  IDiag  1:
 RMSU=  6.41D-05    CP:  9.98D-01  2.72D+00  5.67D-01  8.00D-01  7.65D-01
                    CP:  9.13D-01
 E= -3920.78293517766     Delta-E=       -0.002178390618 Rises=F Damp=F
 DIIS: error= 3.67D-04 at cycle   7 NSaved=   7.
 NSaved= 7 IEnMin= 7 EnMin= -3920.78293517766     IErMin= 7 ErrMin= 3.67D-04
 ErrMax= 3.67D-04  0.00D+00 EMaxC= 1.00D-01 BMatC= 1.38D-03 BMatP= 7.28D-03
 IDIUse=3 WtCom= 9.96D-01 WtEn= 3.67D-03
 Coeff-Com:  0.905D-02-0.129D-01-0.142D-01-0.380D-01 0.394D-02 0.282D+00
 Coeff-Com:  0.770D+00
 Coeff-En:   0.000D+00 0.000D+00 0.000D+00 0.000D+00 0.000D+00 0.000D+00
 Coeff-En:   0.100D+01
 Coeff:      0.901D-02-0.128D-01-0.141D-01-0.378D-01 0.393D-02 0.281D+00
 Coeff:      0.771D+00
 Gap=     0.360 Goal=   None    Shift=    0.000
 Gap=     0.111 Goal=   None    Shift=    0.000
 RMSDP=6.26D-05 MaxDP=7.88D-03 DE=-2.18D-03 OVMax= 3.07D-02

 Cycle   8  Pass 1  IDiag  1:
 RMSU=  3.02D-05    CP:  9.98D-01  2.73D+00  5.55D-01  8.20D-01  8.15D-01
                    CP:  1.24D+00  1.49D+00
 E= -3920.78411106564     Delta-E=       -0.001175887979 Rises=F Damp=F
 DIIS: error= 2.66D-04 at cycle   8 NSaved=   8.
 NSaved= 8 IEnMin= 8 EnMin= -3920.78411106564     IErMin= 8 ErrMin= 2.66D-04
 ErrMax= 2.66D-04  0.00D+00 EMaxC= 1.00D-01 BMatC= 4.35D-04 BMatP= 1.38D-03
 IDIUse=3 WtCom= 9.97D-01 WtEn= 2.66D-03
 Coeff-Com:  0.589D-02-0.778D-02-0.982D-02-0.350D-01-0.396D-01 0.485D-01
 Coeff-Com:  0.227D+00 0.811D+00
 Coeff-En:   0.000D+00 0.000D+00 0.000D+00 0.000D+00 0.000D+00 0.000D+00
 Coeff-En:   0.000D+00 0.100D+01
 Coeff:      0.587D-02-0.776D-02-0.979D-02-0.349D-01-0.395D-01 0.484D-01
 Coeff:      0.227D+00 0.811D+00
 Gap=     0.359 Goal=   None    Shift=    0.000
 Gap=     0.111 Goal=   None    Shift=    0.000
 RMSDP=5.04D-05 MaxDP=7.78D-03 DE=-1.18D-03 OVMax= 2.53D-02

 Cycle   9  Pass 1  IDiag  1:
 RMSU=  1.72D-05    CP:  9.98D-01  2.74D+00  5.42D-01  8.27D-01  8.52D-01
                    CP:  1.44D+00  2.00D+00  1.58D+00
 E= -3920.78484257344     Delta-E=       -0.000731507796 Rises=F Damp=F
 DIIS: error= 2.53D-04 at cycle   9 NSaved=   9.
 NSaved= 9 IEnMin= 9 EnMin= -3920.78484257344     IErMin= 9 ErrMin= 2.53D-04
 ErrMax= 2.53D-04  0.00D+00 EMaxC= 1.00D-01 BMatC= 3.08D-04 BMatP= 4.35D-04
 IDIUse=3 WtCom= 9.97D-01 WtEn= 2.53D-03
 Coeff-Com:  0.408D-02-0.517D-02 0.477D-02-0.645D-02-0.263D-01-0.720D-01
 Coeff-Com: -0.255D+00 0.553D+00 0.803D+00
 Coeff-En:   0.000D+00 0.000D+00 0.000D+00 0.000D+00 0.000D+00 0.000D+00
 Coeff-En:   0.000D+00 0.000D+00 0.100D+01
 Coeff:      0.407D-02-0.515D-02 0.475D-02-0.644D-02-0.262D-01-0.718D-01
 Coeff:     -0.255D+00 0.551D+00 0.804D+00
 Gap=     0.358 Goal=   None    Shift=    0.000
 Gap=     0.112 Goal=   None    Shift=    0.000
 RMSDP=6.02D-05 MaxDP=9.75D-03 DE=-7.32D-04 OVMax= 2.69D-02

 Cycle  10  Pass 1  IDiag  1:
 RMSU=  1.59D-05    CP:  9.98D-01  2.75D+00  5.27D-01  8.30D-01  8.80D-01
                    CP:  1.66D+00  2.57D+00  2.57D+00  1.64D+00
 E= -3920.78561668348     Delta-E=       -0.000774110047 Rises=F Damp=F
 DIIS: error= 2.16D-04 at cycle  10 NSaved=  10.
 NSaved=10 IEnMin=10 EnMin= -3920.78561668348     IErMin=10 ErrMin= 2.16D-04
 ErrMax= 2.16D-04  0.00D+00 EMaxC= 1.00D-01 BMatC= 2.56D-04 BMatP= 3.08D-04
 IDIUse=3 WtCom= 9.98D-01 WtEn= 2.16D-03
 Coeff-Com:  0.361D-02-0.487D-02 0.787D-02 0.445D-02-0.104D-02-0.238D-01
 Coeff-Com: -0.243D+00-0.286D-01 0.654D+00 0.631D+00
 Coeff-En:   0.000D+00 0.000D+00 0.000D+00 0.000D+00 0.000D+00 0.000D+00
 Coeff-En:   0.000D+00 0.000D+00 0.000D+00 0.100D+01
 Coeff:      0.360D-02-0.486D-02 0.785D-02 0.444D-02-0.104D-02-0.238D-01
 Coeff:     -0.243D+00-0.286D-01 0.653D+00 0.632D+00
 Gap=     0.357 Goal=   None    Shift=    0.000
 Gap=     0.112 Goal=   None    Shift=    0.000
 RMSDP=4.44D-05 MaxDP=7.61D-03 DE=-7.74D-04 OVMax= 2.34D-02

 Cycle  11  Pass 1  IDiag  1:
 RMSU=  1.08D-05    CP:  9.98D-01  2.76D+00  5.14D-01  8.29D-01  8.89D-01
                    CP:  1.79D+00  2.97D+00  3.00D+00  2.66D+00  1.59D+00
 E= -3920.78615627504     Delta-E=       -0.000539591556 Rises=F Damp=F
 DIIS: error= 2.25D-04 at cycle  11 NSaved=  11.
 NSaved=11 IEnMin=11 EnMin= -3920.78615627504     IErMin=10 ErrMin= 2.16D-04
 ErrMax= 2.25D-04  0.00D+00 EMaxC= 1.00D-01 BMatC= 1.69D-04 BMatP= 2.56D-04
 IDIUse=3 WtCom= 9.98D-01 WtEn= 2.16D-03
 Coeff-Com:  0.284D-02-0.412D-02 0.204D-02-0.687D-03 0.273D-01 0.128D+00
 Coeff-Com:  0.160D+00-0.518D+00-0.225D+00-0.508D+00 0.194D+01
 Coeff-En:   0.000D+00 0.000D+00 0.000D+00 0.000D+00 0.000D+00 0.000D+00
 Coeff-En:   0.000D+00 0.000D+00 0.000D+00 0.000D+00 0.100D+01
 Coeff:      0.283D-02-0.411D-02 0.203D-02-0.686D-03 0.272D-01 0.128D+00
 Coeff:      0.159D+00-0.517D+00-0.225D+00-0.507D+00 0.193D+01
 Gap=     0.355 Goal=   None    Shift=    0.000
 Gap=     0.113 Goal=   None    Shift=    0.000
 RMSDP=8.72D-05 MaxDP=1.44D-02 DE=-5.40D-04 OVMax= 4.51D-02

 Cycle  12  Pass 1  IDiag  1:
 RMSU=  5.86D-05    CP:  9.97D-01  2.77D+00  4.88D-01  8.18D-01  8.78D-01
                    CP:  1.97D+00  3.00D+00  3.00D+00  3.00D+00  3.00D+00
                    CP:  3.00D+00
 E= -3920.78711484725     Delta-E=       -0.000958572209 Rises=F Damp=F
 DIIS: error= 2.16D-04 at cycle  12 NSaved=  12.
 NSaved=12 IEnMin=12 EnMin= -3920.78711484725     IErMin=10 ErrMin= 2.16D-04
 ErrMax= 2.16D-04  0.00D+00 EMaxC= 1.00D-01 BMatC= 1.26D-04 BMatP= 1.69D-04
 IDIUse=3 WtCom= 9.98D-01 WtEn= 2.16D-03
 Coeff-Com:  0.274D-02-0.387D-02-0.246D-02-0.910D-02 0.240D-01 0.112D+00
 Coeff-Com:  0.303D+00-0.172D+00-0.576D+00-0.121D+01 0.112D+01 0.141D+01
 Coeff-En:   0.000D+00 0.000D+00 0.000D+00 0.000D+00 0.000D+00 0.000D+00
 Coeff-En:   0.000D+00 0.000D+00 0.000D+00 0.000D+00 0.000D+00 0.100D+01
 Coeff:      0.273D-02-0.386D-02-0.245D-02-0.908D-02 0.240D-01 0.112D+00
 Coeff:      0.302D+00-0.172D+00-0.575D+00-0.121D+01 0.112D+01 0.141D+01
 Gap=     0.353 Goal=   None    Shift=    0.000
 Gap=     0.115 Goal=   None    Shift=    0.000
 RMSDP=1.11D-04 MaxDP=1.63D-02 DE=-9.59D-04 OVMax= 5.41D-02

 Cycle  13  Pass 1  IDiag  1:
 RMSU=  4.24D-05    CP:  9.97D-01  2.78D+00  4.57D-01  7.88D-01  8.33D-01
                    CP:  2.13D+00  3.00D+00  3.00D+00  3.00D+00  3.00D+00
                    CP:  3.00D+00  2.59D+00
 E= -3920.78813116343     Delta-E=       -0.001016316181 Rises=F Damp=F
 DIIS: error= 1.91D-04 at cycle  13 NSaved=  13.
 NSaved=13 IEnMin=13 EnMin= -3920.78813116343     IErMin=13 ErrMin= 1.91D-04
 ErrMax= 1.91D-04  0.00D+00 EMaxC= 1.00D-01 BMatC= 5.30D-05 BMatP= 1.26D-04
 IDIUse=3 WtCom= 9.98D-01 WtEn= 1.91D-03
 Coeff-Com:  0.158D-02-0.219D-02 0.112D-02 0.224D-02-0.186D-02-0.543D-01
 Coeff-Com: -0.324D-01 0.416D+00-0.122D-01 0.103D+00-0.104D+01 0.351D+00
 Coeff-Com:  0.126D+01
 Coeff-En:   0.000D+00 0.000D+00 0.000D+00 0.000D+00 0.000D+00 0.000D+00
 Coeff-En:   0.000D+00 0.000D+00 0.000D+00 0.000D+00 0.000D+00 0.000D+00
 Coeff-En:   0.100D+01
 Coeff:      0.158D-02-0.218D-02 0.112D-02 0.223D-02-0.186D-02-0.542D-01
 Coeff:     -0.323D-01 0.415D+00-0.121D-01 0.103D+00-0.103D+01 0.350D+00
 Coeff:      0.126D+01
 Gap=     0.353 Goal=   None    Shift=    0.000
 Gap=     0.115 Goal=   None    Shift=    0.000
 RMSDP=6.80D-05 MaxDP=1.02D-02 DE=-1.02D-03 OVMax= 3.85D-02

 Cycle  14  Pass 1  IDiag  1:
 RMSU=  2.95D-05    CP:  9.97D-01  2.79D+00  4.37D-01  7.67D-01  7.70D-01
                    CP:  2.14D+00  3.00D+00  3.00D+00  3.00D+00  3.00D+00
                    CP:  3.00D+00  3.00D+00  1.73D+00
 E= -3920.78864094327     Delta-E=       -0.000509779840 Rises=F Damp=F
 DIIS: error= 1.64D-04 at cycle  14 NSaved=  14.
 NSaved=14 IEnMin=14 EnMin= -3920.78864094327     IErMin=14 ErrMin= 1.64D-04
 ErrMax= 1.64D-04  0.00D+00 EMaxC= 1.00D-01 BMatC= 7.49D-05 BMatP= 5.30D-05
 IDIUse=3 WtCom= 9.98D-01 WtEn= 1.91D-03
 Coeff-Com:  0.162D-02-0.228D-02 0.273D-02 0.294D-02 0.489D-02-0.665D-01
 Coeff-Com: -0.762D-01 0.251D+00 0.771D-01 0.471D+00-0.790D+00-0.363D+00
 Coeff-Com:  0.557D+00 0.929D+00
 Coeff-En:   0.000D+00 0.000D+00 0.000D+00 0.000D+00 0.000D+00 0.000D+00
 Coeff-En:   0.000D+00 0.000D+00 0.000D+00 0.000D+00 0.000D+00 0.000D+00
 Coeff-En:   0.000D+00 0.100D+01
 Coeff:      0.162D-02-0.227D-02 0.272D-02 0.293D-02 0.488D-02-0.663D-01
 Coeff:     -0.760D-01 0.251D+00 0.770D-01 0.470D+00-0.789D+00-0.362D+00
 Coeff:      0.556D+00 0.930D+00
 Gap=     0.352 Goal=   None    Shift=    0.000
 Gap=     0.116 Goal=   None    Shift=    0.000
 RMSDP=4.99D-05 MaxDP=7.40D-03 DE=-5.10D-04 OVMax= 2.93D-02

 Cycle  15  Pass 1  IDiag  1:
 RMSU=  6.27D-06    CP:  9.97D-01  2.79D+00  4.23D-01  7.47D-01  7.19D-01
                    CP:  2.13D+00  3.00D+00  3.00D+00  3.00D+00  3.00D+00
                    CP:  3.00D+00  3.00D+00  2.24D+00  2.28D+00
 E= -3920.78896887603     Delta-E=       -0.000327932761 Rises=F Damp=F
 DIIS: error= 1.55D-04 at cycle  15 NSaved=  15.
 NSaved=15 IEnMin=15 EnMin= -3920.78896887603     IErMin=15 ErrMin= 1.55D-04
 ErrMax= 1.55D-04  0.00D+00 EMaxC= 1.00D-01 BMatC= 8.05D-05 BMatP= 5.30D-05
 IDIUse=3 WtCom= 9.98D-01 WtEn= 1.91D-03
 Coeff-Com:  0.192D-02-0.271D-02 0.305D-02-0.114D-02 0.232D-01-0.388D-02
 Coeff-Com:  0.356D-01-0.131D+00-0.136D+00 0.303D+00 0.365D+00-0.516D+00
 Coeff-Com: -0.453D+00 0.340D-01 0.148D+01
 Coeff-En:   0.000D+00 0.000D+00 0.000D+00 0.000D+00 0.000D+00 0.000D+00
 Coeff-En:   0.000D+00 0.000D+00 0.000D+00 0.000D+00 0.000D+00 0.000D+00
 Coeff-En:   0.000D+00 0.000D+00 0.100D+01
 Coeff:      0.192D-02-0.271D-02 0.304D-02-0.114D-02 0.231D-01-0.387D-02
 Coeff:      0.355D-01-0.131D+00-0.136D+00 0.302D+00 0.364D+00-0.515D+00
 Coeff:     -0.452D+00 0.339D-01 0.148D+01
 Gap=     0.353 Goal=   None    Shift=    0.000
 Gap=     0.116 Goal=   None    Shift=    0.000
 RMSDP=5.99D-05 MaxDP=9.28D-03 DE=-3.28D-04 OVMax= 3.19D-02

 Cycle  16  Pass 1  IDiag  1:
 RMSU=  2.59D-05    CP:  9.97D-01  2.80D+00  4.07D-01  7.21D-01  6.46D-01
                    CP:  2.09D+00  3.00D+00  3.00D+00  3.00D+00  3.00D+00
                    CP:  3.00D+00  3.00D+00  2.79D+00  3.00D+00  1.53D+00
 E= -3920.78931853645     Delta-E=       -0.000349660417 Rises=F Damp=F
 DIIS: error= 1.38D-04 at cycle  16 NSaved=  16.
 NSaved=16 IEnMin=16 EnMin= -3920.78931853645     IErMin=16 ErrMin= 1.38D-04
 ErrMax= 1.38D-04  0.00D+00 EMaxC= 1.00D-01 BMatC= 1.08D-04 BMatP= 5.30D-05
 IDIUse=3 WtCom= 9.98D-01 WtEn= 1.91D-03
 Coeff-Com:  0.231D-02-0.320D-02 0.198D-02-0.453D-02 0.227D-01-0.274D-02
 Coeff-Com:  0.784D-01-0.491D-01-0.240D+00 0.101D+00 0.328D+00-0.134D+00
 Coeff-Com: -0.191D+00-0.756D+00 0.722D+00 0.112D+01
 Coeff-En:   0.000D+00 0.000D+00 0.000D+00 0.000D+00 0.000D+00 0.000D+00
 Coeff-En:   0.000D+00 0.000D+00 0.000D+00 0.000D+00 0.000D+00 0.000D+00
 Coeff-En:   0.000D+00 0.000D+00 0.000D+00 0.100D+01
 Coeff:      0.231D-02-0.319D-02 0.197D-02-0.452D-02 0.227D-01-0.273D-02
 Coeff:      0.782D-01-0.491D-01-0.239D+00 0.101D+00 0.328D+00-0.134D+00
 Coeff:     -0.191D+00-0.755D+00 0.721D+00 0.112D+01
 Gap=     0.354 Goal=   None    Shift=    0.000
 Gap=     0.117 Goal=   None    Shift=    0.000
 RMSDP=5.71D-05 MaxDP=8.72D-03 DE=-3.50D-04 OVMax= 3.45D-02

 Cycle  17  Pass 1  IDiag  1:
 RMSU=  1.28D-05    CP:  9.97D-01  2.80D+00  3.94D-01  6.93D-01  5.73D-01
                    CP:  2.02D+00  3.00D+00  3.00D+00  3.00D+00  3.00D+00
                    CP:  3.00D+00  3.00D+00  3.00D+00  3.00D+00  1.98D+00
                    CP:  2.67D+00
 E= -3920.78962388488     Delta-E=       -0.000305348431 Rises=F Damp=F
 DIIS: error= 1.27D-04 at cycle  17 NSaved=  17.
 NSaved=17 IEnMin=17 EnMin= -3920.78962388488     IErMin=17 ErrMin= 1.27D-04
 ErrMax= 1.27D-04  0.00D+00 EMaxC= 1.00D-01 BMatC= 1.10D-04 BMatP= 5.30D-05
 IDIUse=3 WtCom= 9.98D-01 WtEn= 1.91D-03
 Coeff-Com:  0.209D-02-0.287D-02 0.205D-02-0.275D-02 0.173D-01-0.271D-01
 Coeff-Com:  0.427D-01 0.798D-01-0.185D+00 0.195D+00-0.636D-02-0.832D-01
 Coeff-Com:  0.173D+00-0.656D+00 0.244D-01 0.734D+00 0.693D+00
 Coeff-En:   0.000D+00 0.000D+00 0.000D+00 0.000D+00 0.000D+00 0.000D+00
 Coeff-En:   0.000D+00 0.000D+00 0.000D+00 0.000D+00 0.000D+00 0.000D+00
 Coeff-En:   0.000D+00 0.000D+00 0.000D+00 0.000D+00 0.100D+01
 Coeff:      0.208D-02-0.287D-02 0.205D-02-0.274D-02 0.173D-01-0.270D-01
 Coeff:      0.427D-01 0.796D-01-0.184D+00 0.195D+00-0.635D-02-0.831D-01
 Coeff:      0.173D+00-0.655D+00 0.244D-01 0.732D+00 0.693D+00
 Gap=     0.354 Goal=   None    Shift=    0.000
 Gap=     0.116 Goal=   None    Shift=    0.000
 RMSDP=2.97D-05 MaxDP=3.89D-03 DE=-3.05D-04 OVMax= 2.16D-02

 Cycle  18  Pass 1  IDiag  1:
 RMSU=  1.72D-05    CP:  9.97D-01  2.80D+00  3.88D-01  6.82D-01  5.35D-01
                    CP:  1.95D+00  3.00D+00  3.00D+00  3.00D+00  3.00D+00
                    CP:  3.00D+00  3.00D+00  3.00D+00  3.00D+00  1.66D+00
                    CP:  3.00D+00  1.36D+00
 E= -3920.78975942889     Delta-E=       -0.000135544007 Rises=F Damp=F
 DIIS: error= 1.35D-04 at cycle  18 NSaved=  18.
 NSaved=18 IEnMin=18 EnMin= -3920.78975942889     IErMin=17 ErrMin= 1.27D-04
 ErrMax= 1.35D-04  0.00D+00 EMaxC= 1.00D-01 BMatC= 1.41D-04 BMatP= 5.30D-05
 IDIUse=3 WtCom= 9.98D-01 WtEn= 1.91D-03
 Coeff-Com:  0.200D-02-0.276D-02 0.205D-02-0.259D-02 0.182D-01-0.219D-01
 Coeff-Com:  0.508D-01 0.532D-01-0.199D+00 0.178D+00 0.770D-01-0.759D-01
 Coeff-Com:  0.111D+00-0.712D+00 0.495D-01 0.888D+00 0.815D+00-0.231D+00
 Coeff-En:   0.000D+00 0.000D+00 0.000D+00 0.000D+00 0.000D+00 0.000D+00
 Coeff-En:   0.000D+00 0.000D+00 0.000D+00 0.000D+00 0.000D+00 0.000D+00
 Coeff-En:   0.000D+00 0.000D+00 0.000D+00 0.000D+00 0.000D+00 0.100D+01
 Coeff:      0.200D-02-0.275D-02 0.205D-02-0.259D-02 0.182D-01-0.218D-01
 Coeff:      0.507D-01 0.531D-01-0.198D+00 0.178D+00 0.769D-01-0.757D-01
 Coeff:      0.111D+00-0.711D+00 0.494D-01 0.887D+00 0.814D+00-0.229D+00
 Gap=     0.354 Goal=   None    Shift=    0.000
 Gap=     0.116 Goal=   None    Shift=    0.000
 RMSDP=9.59D-06 MaxDP=1.40D-03 DE=-1.36D-04 OVMax= 6.54D-03

 Cycle  19  Pass 1  IDiag  1:
 RMSU=  3.05D-06    CP:  9.97D-01  2.80D+00  3.90D-01  6.87D-01  5.47D-01
                    CP:  1.97D+00  3.00D+00  3.00D+00  3.00D+00  3.00D+00
                    CP:  3.00D+00  3.00D+00  3.00D+00  3.00D+00  1.62D+00
                    CP:  3.00D+00  1.13D+00  5.98D-01
 E= -3920.78970898640     Delta-E=        0.000050442490 Rises=F Damp=F
 DIIS: error= 1.41D-04 at cycle  19 NSaved=  19.
 NSaved=19 IEnMin=18 EnMin= -3920.78975942889     IErMin=17 ErrMin= 1.27D-04
 ErrMax= 1.41D-04  0.00D+00 EMaxC= 1.00D-01 BMatC= 1.50D-04 BMatP= 5.30D-05
 IDIUse=3 WtCom= 9.98D-01 WtEn= 1.91D-03
 Rare condition: small coef for last iteration:  0.000D+00
 Coeff-Com:  0.191D-02-0.264D-02 0.248D-02-0.175D-02 0.178D-01-0.251D-01
 Coeff-Com:  0.309D-01 0.396D-01-0.153D+00 0.272D+00 0.442D-01-0.237D+00
 Coeff-Com:  0.763D-01-0.451D+00 0.293D+00 0.458D+00-0.101D-01 0.380D+01
 Coeff-Com: -0.315D+01
 Coeff-En:   0.000D+00 0.000D+00 0.000D+00 0.000D+00 0.000D+00 0.000D+00
 Coeff-En:   0.000D+00 0.000D+00 0.000D+00 0.000D+00 0.000D+00 0.000D+00
 Coeff-En:   0.000D+00 0.000D+00 0.000D+00 0.000D+00 0.000D+00 0.000D+00
 Coeff-En:   0.100D+01
 Coeff:      0.191D-02-0.264D-02 0.248D-02-0.175D-02 0.178D-01-0.251D-01
 Coeff:      0.309D-01 0.396D-01-0.153D+00 0.272D+00 0.442D-01-0.237D+00
 Coeff:      0.763D-01-0.451D+00 0.293D+00 0.458D+00-0.101D-01 0.380D+01
 Coeff:     -0.315D+01
 Gap=     0.355 Goal=   None    Shift=    0.000
 Gap=     0.116 Goal=   None    Shift=    0.000
 RMSDP=4.02D-05 MaxDP=5.31D-03 DE= 5.04D-05 OVMax= 3.02D-02

 Cycle  20  Pass 1  IDiag  1:
 RMSU=  1.76D-06    CP:  9.97D-01  2.81D+00  3.82D-01  6.70D-01  4.96D-01
                    CP:  1.88D+00  3.00D+00  3.00D+00  3.00D+00  3.00D+00
                    CP:  3.00D+00  3.00D+00  3.00D+00  3.00D+00  1.34D+00
                    CP:  3.00D+00  1.71D+00  2.48D+00 -1.37D+00
 E= -3920.78989936835     Delta-E=       -0.000190381956 Rises=F Damp=F
 DIIS: error= 1.49D-04 at cycle  20 NSaved=  20.
 NSaved=20 IEnMin=20 EnMin= -3920.78989936835     IErMin=17 ErrMin= 1.27D-04
 ErrMax= 1.49D-04  0.00D+00 EMaxC= 1.00D-01 BMatC= 1.61D-04 BMatP= 5.30D-05
 IDIUse=3 WtCom= 9.98D-01 WtEn= 1.91D-03
 Coeff-Com:  0.187D-02-0.258D-02 0.248D-02-0.197D-02 0.189D-01-0.179D-01
 Coeff-Com:  0.385D-01 0.615D-02-0.165D+00 0.258D+00 0.132D+00-0.247D+00
 Coeff-Com: -0.252D-01-0.459D+00 0.443D+00 0.562D+00-0.109D+00 0.485D+01
 Coeff-Com: -0.504D+01 0.752D+00
 Coeff-En:   0.000D+00 0.000D+00 0.000D+00 0.000D+00 0.000D+00 0.000D+00
 Coeff-En:   0.000D+00 0.000D+00 0.000D+00 0.000D+00 0.000D+00 0.000D+00
 Coeff-En:   0.000D+00 0.000D+00 0.000D+00 0.000D+00 0.000D+00 0.000D+00
 Coeff-En:   0.000D+00 0.100D+01
 Coeff:      0.187D-02-0.258D-02 0.247D-02-0.197D-02 0.189D-01-0.179D-01
 Coeff:      0.384D-01 0.613D-02-0.165D+00 0.258D+00 0.132D+00-0.247D+00
 Coeff:     -0.252D-01-0.458D+00 0.442D+00 0.560D+00-0.108D+00 0.484D+01
 Coeff:     -0.503D+01 0.752D+00
 Gap=     0.355 Goal=   None    Shift=    0.000
 Gap=     0.116 Goal=   None    Shift=    0.000
 RMSDP=2.91D-05 MaxDP=3.82D-03 DE=-1.90D-04 OVMax= 2.22D-02

 Cycle  21  Pass 1  IDiag  1:
 Restarting incremental Fock formation.
 E= -3920.79003624723     Delta-E=       -0.000136878880 Rises=F Damp=F
 DIIS: error= 1.48D-04 at cycle  21 NSaved=  20.
 NSaved=20 IEnMin=20 EnMin= -3920.79003624723     IErMin=16 ErrMin= 1.27D-04
 ErrMax= 1.48D-04  0.00D+00 EMaxC= 1.00D-01 BMatC= 1.62D-04 BMatP= 5.30D-05
 IDIUse=3 WtCom= 9.98D-01 WtEn= 1.91D-03
 Large coefficients: NSaved= 20 BigCof=   11.14 CofMax=   10.00 Det=-8.87D-09
 Inversion failed.  Reducing to 19 matrices.
 Large coefficients: NSaved= 19 BigCof=   11.77 CofMax=   10.00 Det=-9.01D-09
 Inversion failed.  Reducing to 18 matrices.
 Large coefficients: NSaved= 18 BigCof=   10.60 CofMax=   10.00 Det=-9.09D-09
 Inversion failed.  Reducing to 17 matrices.
 Coeff-Com:  0.651D-02-0.449D-01 0.270D-02 0.144D+00-0.757D-01 0.410D+00
 Coeff-Com: -0.438D+00-0.338D+00 0.731D+00 0.986D-01-0.268D+00-0.472D+00
 Coeff-Com: -0.168D+00 0.915D+01-0.742D+01 0.562D+01-0.594D+01
 Coeff-En:   0.000D+00 0.000D+00 0.000D+00 0.000D+00 0.000D+00 0.000D+00
 Coeff-En:   0.000D+00 0.000D+00 0.000D+00 0.000D+00 0.000D+00 0.000D+00
 Coeff-En:   0.000D+00 0.000D+00 0.000D+00 0.000D+00 0.100D+01
 Coeff:      0.650D-02-0.449D-01 0.270D-02 0.144D+00-0.756D-01 0.409D+00
 Coeff:     -0.437D+00-0.337D+00 0.730D+00 0.984D-01-0.267D+00-0.471D+00
 Coeff:     -0.168D+00 0.913D+01-0.740D+01 0.561D+01-0.593D+01
 Gap=     0.354 Goal=   None    Shift=    0.000
 Gap=     0.116 Goal=   None    Shift=    0.000
 RMSDP=1.61D-04 MaxDP=2.04D-02 DE=-1.37D-04 OVMax= 1.06D-01

 Cycle  22  Pass 1  IDiag  1:
 RMSU=  1.61D-04    CP:  1.00D+00
 E= -3920.78924009545     Delta-E=        0.000796151786 Rises=F Damp=F
 DIIS: error= 1.61D-04 at cycle  22 NSaved=  18.
 NSaved=18 IEnMin=17 EnMin= -3920.79003624723     IErMin=13 ErrMin= 1.27D-04
 ErrMax= 1.61D-04  0.00D+00 EMaxC= 1.00D-01 BMatC= 1.92D-04 BMatP= 5.30D-05
 IDIUse=3 WtCom= 9.98D-01 WtEn= 1.91D-03
 Rare condition: small coef for last iteration:  0.000D+00
 Coeff-Com:  0.808D-02-0.413D-01 0.100D-01 0.126D+00-0.905D-01 0.417D+00
 Coeff-Com: -0.386D+00-0.361D+00 0.682D+00 0.104D+00-0.196D+00-0.453D+00
 Coeff-Com: -0.329D+00 0.961D+01-0.802D+01 0.608D+01-0.625D+01 0.907D-01
 Coeff-En:   0.000D+00 0.000D+00 0.000D+00 0.000D+00 0.000D+00 0.000D+00
 Coeff-En:   0.000D+00 0.000D+00 0.000D+00 0.000D+00 0.000D+00 0.000D+00
 Coeff-En:   0.000D+00 0.000D+00 0.000D+00 0.000D+00 0.000D+00 0.100D+01
 Coeff:      0.808D-02-0.413D-01 0.100D-01 0.126D+00-0.905D-01 0.417D+00
 Coeff:     -0.386D+00-0.361D+00 0.682D+00 0.104D+00-0.196D+00-0.453D+00
 Coeff:     -0.329D+00 0.961D+01-0.802D+01 0.608D+01-0.625D+01 0.907D-01
 Gap=     0.352 Goal=   None    Shift=    0.000
 Gap=     0.119 Goal=   None    Shift=    0.000
 RMSDP=9.46D-06 MaxDP=1.18D-03 DE= 7.96D-04 OVMax= 6.59D-03

 Cycle  23  Pass 1  IDiag  1:
 RMSU=  2.39D-06    CP:  1.00D+00  1.06D+00
 E= -3920.78918436549     Delta-E=        0.000055729961 Rises=F Damp=F
 DIIS: error= 1.69D-04 at cycle  23 NSaved=  19.
 NSaved=19 IEnMin=17 EnMin= -3920.79003624723     IErMin=13 ErrMin= 1.27D-04
 ErrMax= 1.69D-04  0.00D+00 EMaxC= 1.00D-01 BMatC= 2.10D-04 BMatP= 5.30D-05
 IDIUse=3 WtCom= 9.98D-01 WtEn= 1.91D-03
 Large coefficients: NSaved= 19 BigCof=   12.00 CofMax=   10.00 Det=-8.30D-09
 Inversion failed.  Reducing to 18 matrices.
 Large coefficients: NSaved= 18 BigCof=   11.91 CofMax=   10.00 Det=-8.73D-09
 Inversion failed.  Reducing to 17 matrices.
 Large coefficients: NSaved= 17 BigCof=   11.60 CofMax=   10.00 Det=-8.96D-09
 Inversion failed.  Reducing to 16 matrices.
 Large coefficients: NSaved= 16 BigCof=   11.66 CofMax=   10.00 Det=-1.05D-08
 Inversion failed.  Reducing to 15 matrices.
 Large coefficients: NSaved= 15 BigCof=   11.64 CofMax=   10.00 Det=-1.06D-08
 Inversion failed.  Reducing to 14 matrices.
 Large coefficients: NSaved= 14 BigCof=   11.60 CofMax=   10.00 Det=-1.09D-08
 Inversion failed.  Reducing to 13 matrices.
 Large coefficients: NSaved= 13 BigCof=   11.83 CofMax=   10.00 Det=-1.19D-08
 Inversion failed.  Reducing to 12 matrices.
 Large coefficients: NSaved= 12 BigCof=   11.41 CofMax=   10.00 Det=-1.19D-08
 Inversion failed.  Reducing to 11 matrices.
 Large coefficients: NSaved= 11 BigCof=   10.99 CofMax=   10.00 Det=-1.31D-08
 Inversion failed.  Reducing to 10 matrices.
 Large coefficients: NSaved= 10 BigCof=   11.27 CofMax=   10.00 Det=-1.39D-08
 Inversion failed.  Reducing to  9 matrices.
 Large coefficients: NSaved=  9 BigCof=   11.15 CofMax=   10.00 Det=-1.47D-08
 Inversion failed.  Reducing to  8 matrices.
 Large coefficients: NSaved=  8 BigCof=   11.04 CofMax=   10.00 Det=-1.88D-08
 Inversion failed.  Reducing to  7 matrices.
 Large coefficients: NSaved=  7 BigCof=   10.07 CofMax=   10.00 Det=-1.97D-08
 Inversion failed.  Reducing to  6 matrices.
 Large coefficients: NSaved=  6 BigCof=   10.39 CofMax=   10.00 Det=-3.06D-08
 Inversion failed.  Reducing to  5 matrices.
 Large coefficients: NSaved=  5 BigCof=   11.15 CofMax=   10.00 Det=-4.77D-08
 Inversion failed.  Reducing to  4 matrices.
 Large coefficients: NSaved=  4 BigCof=   14.35 CofMax=   10.00 Det=-4.94D-08
 Inversion failed.  Reducing to  3 matrices.
 Large coefficients: NSaved=  3 BigCof=   14.32 CofMax=   10.00 Det=-6.47D-07
 Inversion failed.  Reducing to  2 matrices.
 Large coefficients: NSaved=  2 BigCof=   14.90 CofMax=   10.00 Det=-6.51D-07
 Coeff-Com:  0.149D+02-0.139D+02
 Coeff-En:   0.000D+00 0.100D+01
 Coeff:      0.149D+02-0.139D+02
 Gap=     0.355 Goal=   None    Shift=    0.000
 Gap=     0.119 Goal=   None    Shift=    0.000
 RMSDP=1.55D-04 MaxDP=2.03D-02 DE= 5.57D-05 OVMax= 9.07D-02

 Cycle  24  Pass 1  IDiag  1:
 RMSU=  2.26D-05    CP:  1.00D+00  1.15D-01 -3.00D+00
 E= -3920.78998769117     Delta-E=       -0.000803325682 Rises=F Damp=F
 DIIS: error= 1.16D-04 at cycle  24 NSaved=   3.
 NSaved= 3 IEnMin= 3 EnMin= -3920.78998769117     IErMin= 3 ErrMin= 1.16D-04
 ErrMax= 1.16D-04  0.00D+00 EMaxC= 1.00D-01 BMatC= 1.13D-04 BMatP= 1.92D-04
 IDIUse=3 WtCom= 9.99D-01 WtEn= 1.16D-03
 Large coefficients: NSaved=  3 BigCof=   11.45 CofMax=   10.00 Det=-5.51D-07
 Inversion failed.  Reducing to  2 matrices.
 Coeff-Com:  0.280D+00 0.720D+00
 Coeff-En:   0.000D+00 0.100D+01
 Coeff:      0.280D+00 0.720D+00
 Gap=     0.354 Goal=   None    Shift=    0.000
 Gap=     0.117 Goal=   None    Shift=    0.000
 RMSDP=3.02D-05 MaxDP=5.06D-03 DE=-8.03D-04 OVMax= 2.28D-02

 Cycle  25  Pass 1  IDiag  1:
 RMSU=  1.33D-05    CP:  1.00D+00  2.79D-01 -3.00D+00  7.00D-01
 E= -3920.78983810132     Delta-E=        0.000149589843 Rises=F Damp=F
 DIIS: error= 1.74D-04 at cycle  25 NSaved=   3.
 NSaved= 3 IEnMin= 2 EnMin= -3920.78998769117     IErMin= 2 ErrMin= 1.16D-04
 ErrMax= 1.74D-04  0.00D+00 EMaxC= 1.00D-01 BMatC= 2.12D-04 BMatP= 1.13D-04
 IDIUse=3 WtCom= 9.99D-01 WtEn= 1.16D-03
 Rare condition: small coef for last iteration:  0.000D+00
 Coeff-Com:  0.126D+00 0.490D+00 0.385D+00
 Coeff-En:   0.000D+00 0.000D+00 0.100D+01
 Coeff:      0.126D+00 0.490D+00 0.385D+00
 Gap=     0.354 Goal=   None    Shift=    0.000
 Gap=     0.118 Goal=   None    Shift=    0.000
 RMSDP=1.97D-05 MaxDP=4.30D-03 DE= 1.50D-04 OVMax= 1.65D-02

 Cycle  26  Pass 1  IDiag  1:
 RMSU=  4.59D-06    CP:  1.00D+00  1.80D-01 -3.00D+00  7.58D-01  1.96D-01
 E= -3920.78994460567     Delta-E=       -0.000106504345 Rises=F Damp=F
 DIIS: error= 1.10D-04 at cycle  26 NSaved=   4.
 NSaved= 4 IEnMin= 2 EnMin= -3920.78998769117     IErMin= 4 ErrMin= 1.10D-04
 ErrMax= 1.10D-04  0.00D+00 EMaxC= 1.00D-01 BMatC= 8.00D-05 BMatP= 1.13D-04
 IDIUse=3 WtCom= 9.99D-01 WtEn= 1.10D-03
 Coeff-Com: -0.221D+00 0.318D+00 0.309D+00 0.594D+00
 Coeff-En:   0.000D+00 0.000D+00 0.000D+00 0.100D+01
 Coeff:     -0.221D+00 0.318D+00 0.308D+00 0.595D+00
 Gap=     0.354 Goal=   None    Shift=    0.000
 Gap=     0.119 Goal=   None    Shift=    0.000
 RMSDP=4.82D-05 MaxDP=6.86D-03 DE=-1.07D-04 OVMax= 3.49D-02

 Cycle  27  Pass 1  IDiag  1:
 RMSU=  7.06D-06    CP:  1.00D+00 -1.13D-01 -3.00D+00  1.04D+00  1.98D-01
                    CP:  1.31D+00
 E= -3920.79016532450     Delta-E=       -0.000220718828 Rises=F Damp=F
 DIIS: error= 1.19D-04 at cycle  27 NSaved=   5.
 NSaved= 5 IEnMin= 5 EnMin= -3920.79016532450     IErMin= 4 ErrMin= 1.10D-04
 ErrMax= 1.19D-04  0.00D+00 EMaxC= 1.00D-01 BMatC= 1.02D-04 BMatP= 8.00D-05
 IDIUse=3 WtCom= 9.99D-01 WtEn= 1.10D-03
 Coeff-Com: -0.508D+00 0.220D+00 0.245D+00 0.696D+00 0.347D+00
 Coeff-En:   0.000D+00 0.000D+00 0.000D+00 0.000D+00 0.100D+01
 Coeff:     -0.508D+00 0.220D+00 0.245D+00 0.695D+00 0.347D+00
 Gap=     0.354 Goal=   None    Shift=    0.000
 Gap=     0.120 Goal=   None    Shift=    0.000
 RMSDP=5.51D-05 MaxDP=8.03D-03 DE=-2.21D-04 OVMax= 4.02D-02

 Cycle  28  Pass 1  IDiag  1:
 RMSU=  5.63D-06    CP:  1.00D+00 -4.45D-01 -3.00D+00  1.36D+00  1.16D-01
                    CP:  1.80D+00  2.42D+00
 E= -3920.79041032295     Delta-E=       -0.000244998449 Rises=F Damp=F
 DIIS: error= 1.23D-04 at cycle  28 NSaved=   6.
 NSaved= 6 IEnMin= 6 EnMin= -3920.79041032295     IErMin= 4 ErrMin= 1.10D-04
 ErrMax= 1.23D-04  0.00D+00 EMaxC= 1.00D-01 BMatC= 1.20D-04 BMatP= 8.00D-05
 IDIUse=3 WtCom= 9.99D-01 WtEn= 1.10D-03
 Coeff-Com: -0.716D+00 0.152D+00 0.195D+00 0.725D+00 0.113D+01-0.482D+00
 Coeff-En:   0.000D+00 0.000D+00 0.000D+00 0.000D+00 0.000D+00 0.100D+01
 Coeff:     -0.716D+00 0.152D+00 0.195D+00 0.724D+00 0.112D+01-0.480D+00
 Gap=     0.354 Goal=   None    Shift=    0.000
 Gap=     0.122 Goal=   None    Shift=    0.000
 RMSDP=1.58D-05 MaxDP=2.45D-03 DE=-2.45D-04 OVMax= 1.13D-02

 Cycle  29  Pass 1  IDiag  1:
 RMSU=  1.32D-06    CP:  1.00D+00 -5.38D-01 -3.00D+00  1.48D+00  6.31D-02
                    CP:  1.93D+00  2.94D+00  1.33D+00
 E= -3920.79047047599     Delta-E=       -0.000060153041 Rises=F Damp=F
 DIIS: error= 1.35D-04 at cycle  29 NSaved=   7.
 NSaved= 7 IEnMin= 7 EnMin= -3920.79047047599     IErMin= 4 ErrMin= 1.10D-04
 ErrMax= 1.35D-04  0.00D+00 EMaxC= 1.00D-01 BMatC= 1.56D-04 BMatP= 8.00D-05
 IDIUse=3 WtCom= 9.99D-01 WtEn= 1.10D-03
 Coeff-Com: -0.724D+00 0.145D+00 0.197D+00 0.761D+00 0.676D+00 0.251D+00
 Coeff-Com: -0.306D+00
 Coeff-En:   0.000D+00 0.000D+00 0.000D+00 0.000D+00 0.000D+00 0.000D+00
 Coeff-En:   0.100D+01
 Coeff:     -0.723D+00 0.145D+00 0.197D+00 0.760D+00 0.675D+00 0.250D+00
 Coeff:     -0.304D+00
 Gap=     0.354 Goal=   None    Shift=    0.000
 Gap=     0.123 Goal=   None    Shift=    0.000
 RMSDP=1.77D-05 MaxDP=2.46D-03 DE=-6.02D-05 OVMax= 1.27D-02

 Cycle  30  Pass 1  IDiag  1:
 RMSU=  3.88D-06    CP:  1.00D+00 -6.42D-01 -3.00D+00  1.55D+00  4.37D-02
                    CP:  2.07D+00  3.00D+00  1.86D+00  7.66D-01
 E= -3920.79054740793     Delta-E=       -0.000076931939 Rises=F Damp=F
 DIIS: error= 1.46D-04 at cycle  30 NSaved=   8.
 NSaved= 8 IEnMin= 8 EnMin= -3920.79054740793     IErMin= 4 ErrMin= 1.10D-04
 ErrMax= 1.46D-04  0.00D+00 EMaxC= 1.00D-01 BMatC= 1.58D-04 BMatP= 8.00D-05
 IDIUse=3 WtCom= 9.99D-01 WtEn= 1.10D-03
 Coeff-Com: -0.463D+00 0.884D-01 0.130D+00 0.738D+00 0.963D+00 0.833D+00
 Coeff-Com: -0.791D+01 0.662D+01
 Coeff-En:   0.000D+00 0.000D+00 0.000D+00 0.000D+00 0.000D+00 0.000D+00
 Coeff-En:   0.000D+00 0.100D+01
 Coeff:     -0.462D+00 0.883D-01 0.130D+00 0.737D+00 0.962D+00 0.832D+00
 Coeff:     -0.790D+01 0.662D+01
 Gap=     0.354 Goal=   None    Shift=    0.000
 Gap=     0.121 Goal=   None    Shift=    0.000
 RMSDP=3.93D-05 MaxDP=4.58D-03 DE=-7.69D-05 OVMax= 2.95D-02

 Cycle  31  Pass 1  IDiag  1:
 RMSU=  3.69D-06    CP:  1.00D+00 -8.69D-01 -2.46D+00  1.50D+00  7.37D-02
                    CP:  2.40D+00  3.00D+00  3.00D+00 -2.15D+00  3.00D+00
 E= -3920.79073374940     Delta-E=       -0.000186341469 Rises=F Damp=F
 DIIS: error= 1.15D-04 at cycle  31 NSaved=   9.
 NSaved= 9 IEnMin= 9 EnMin= -3920.79073374940     IErMin= 4 ErrMin= 1.10D-04
 ErrMax= 1.15D-04  0.00D+00 EMaxC= 1.00D-01 BMatC= 1.07D-04 BMatP= 8.00D-05
 IDIUse=3 WtCom= 9.99D-01 WtEn= 1.10D-03
 Large coefficients: NSaved=  9 BigCof=   10.91 CofMax=   10.00 Det=-1.93D-08
 Inversion failed.  Reducing to  8 matrices.
 Large coefficients: NSaved=  8 BigCof=   13.61 CofMax=   10.00 Det=-2.37D-08
 Inversion failed.  Reducing to  7 matrices.
 Large coefficients: NSaved=  7 BigCof=   16.53 CofMax=   10.00 Det=-8.19D-08
 Inversion failed.  Reducing to  6 matrices.
 Large coefficients: NSaved=  6 BigCof=   13.97 CofMax=   10.00 Det=-9.99D-08
 Inversion failed.  Reducing to  5 matrices.
 Large coefficients: NSaved=  5 BigCof=   15.69 CofMax=   10.00 Det=-1.18D-07
 Inversion failed.  Reducing to  4 matrices.
 Large coefficients: NSaved=  4 BigCof=   17.74 CofMax=   10.00 Det=-1.24D-07
 Inversion failed.  Reducing to  3 matrices.
 Large coefficients: NSaved=  3 BigCof=   14.58 CofMax=   10.00 Det=-2.45D-07
 Inversion failed.  Reducing to  2 matrices.
 Coeff-Com: -0.130D+01 0.230D+01
 Coeff-En:   0.000D+00 0.100D+01
 Coeff:     -0.130D+01 0.230D+01
 Gap=     0.354 Goal=   None    Shift=    0.000
 Gap=     0.119 Goal=   None    Shift=    0.000
 RMSDP=6.44D-05 MaxDP=6.74D-03 DE=-1.86D-04 OVMax= 4.37D-02

 Cycle  32  Pass 1  IDiag  1:
 RMSU=  1.45D-05    CP:  1.00D+00 -1.23D+00  3.00D+00  1.88D+00  7.39D-01
                    CP:  1.79D+00  3.00D+00  3.00D+00 -3.00D+00  3.00D+00
                    CP:  3.00D+00
 E= -3920.79099625743     Delta-E=       -0.000262508031 Rises=F Damp=F
 DIIS: error= 1.50D-04 at cycle  32 NSaved=   3.
 NSaved= 3 IEnMin= 3 EnMin= -3920.79099625743     IErMin= 2 ErrMin= 1.15D-04
 ErrMax= 1.50D-04  0.00D+00 EMaxC= 1.00D-01 BMatC= 1.66D-04 BMatP= 1.07D-04
 IDIUse=3 WtCom= 9.99D-01 WtEn= 1.10D-03
 Coeff-Com: -0.112D+01 0.171D+01 0.409D+00
 Coeff-En:   0.000D+00 0.000D+00 0.100D+01
 Coeff:     -0.111D+01 0.170D+01 0.410D+00
 Gap=     0.354 Goal=   None    Shift=    0.000
 Gap=     0.121 Goal=   None    Shift=    0.000
 RMSDP=2.49D-05 MaxDP=4.08D-03 DE=-2.63D-04 OVMax= 2.15D-02

 Cycle  33  Pass 1  IDiag  1:
 RMSU=  1.17D-05    CP:  1.00D+00 -1.35D+00  3.00D+00  1.71D+00  3.52D-01
                    CP:  2.80D+00  3.00D+00  3.00D+00 -3.00D+00  3.00D+00
                    CP:  3.00D+00  1.45D+00
 E= -3920.79111461837     Delta-E=       -0.000118360942 Rises=F Damp=F
 DIIS: error= 9.72D-05 at cycle  33 NSaved=   4.
 NSaved= 4 IEnMin= 4 EnMin= -3920.79111461837     IErMin= 4 ErrMin= 9.72D-05
 ErrMax= 9.72D-05  0.00D+00 EMaxC= 1.00D-01 BMatC= 7.13D-05 BMatP= 1.07D-04
 IDIUse=1 WtCom= 1.00D+00 WtEn= 0.00D+00
 Coeff-Com: -0.974D+00 0.117D+01 0.372D+00 0.432D+00
 Coeff:     -0.974D+00 0.117D+01 0.372D+00 0.432D+00
 Gap=     0.354 Goal=   None    Shift=    0.000
 Gap=     0.121 Goal=   None    Shift=    0.000
 RMSDP=2.87D-05 MaxDP=3.14D-03 DE=-1.18D-04 OVMax= 2.23D-02

 Cycle  34  Pass 1  IDiag  1:
 RMSU=  2.29D-06    CP:  1.00D+00 -1.50D+00  3.00D+00  1.67D+00  2.77D-01
                    CP:  2.78D+00  3.00D+00  3.00D+00 -3.00D+00  3.00D+00
                    CP:  3.00D+00  2.37D+00  1.56D+00
 E= -3920.79123781077     Delta-E=       -0.000123192400 Rises=F Damp=F
 DIIS: error= 9.50D-05 at cycle  34 NSaved=   5.
 NSaved= 5 IEnMin= 5 EnMin= -3920.79123781077     IErMin= 5 ErrMin= 9.50D-05
 ErrMax= 9.50D-05  0.00D+00 EMaxC= 1.00D-01 BMatC= 5.78D-05 BMatP= 7.13D-05
 IDIUse=1 WtCom= 1.00D+00 WtEn= 0.00D+00
 Coeff-Com: -0.760D+00 0.224D+00 0.223D+00-0.348D+00 0.166D+01
 Coeff:     -0.760D+00 0.224D+00 0.223D+00-0.348D+00 0.166D+01
 Gap=     0.354 Goal=   None    Shift=    0.000
 Gap=     0.123 Goal=   None    Shift=    0.000
 RMSDP=1.01D-04 MaxDP=1.09D-02 DE=-1.23D-04 OVMax= 7.78D-02

 Cycle  35  Pass 1  IDiag  1:
 RMSU=  4.63D-05    CP:  1.00D+00 -2.00D+00  3.00D+00  1.49D+00  1.90D-01
                    CP:  2.54D+00  3.00D+00  3.00D+00 -3.00D+00  3.00D+00
                    CP:  3.00D+00  3.00D+00  3.00D+00  3.00D+00
 E= -3920.79163889228     Delta-E=       -0.000401081508 Rises=F Damp=F
 DIIS: error= 1.01D-04 at cycle  35 NSaved=   6.
 NSaved= 6 IEnMin= 6 EnMin= -3920.79163889228     IErMin= 5 ErrMin= 9.50D-05
 ErrMax= 1.01D-04  0.00D+00 EMaxC= 1.00D-01 BMatC= 4.52D-05 BMatP= 5.78D-05
 IDIUse=1 WtCom= 1.00D+00 WtEn= 0.00D+00
 Coeff-Com: -0.846D+00 0.410D+00 0.201D+00-0.352D+00 0.144D+01 0.147D+00
 Coeff:     -0.846D+00 0.410D+00 0.201D+00-0.352D+00 0.144D+01 0.147D+00
 Gap=     0.354 Goal=   None    Shift=    0.000
 Gap=     0.125 Goal=   None    Shift=    0.000
 RMSDP=7.55D-06 MaxDP=8.66D-04 DE=-4.01D-04 OVMax= 5.77D-03

 Cycle  36  Pass 1  IDiag  1:
 RMSU=  1.19D-06    CP:  1.00D+00 -2.03D+00  3.00D+00  1.48D+00  1.69D-01
                    CP:  2.57D+00  3.00D+00  3.00D+00 -3.00D+00  3.00D+00
                    CP:  3.00D+00  3.00D+00  3.00D+00  3.00D+00  1.11D+00
 E= -3920.79166773716     Delta-E=       -0.000028844885 Rises=F Damp=F
 DIIS: error= 9.98D-05 at cycle  36 NSaved=   7.
 NSaved= 7 IEnMin= 7 EnMin= -3920.79166773716     IErMin= 5 ErrMin= 9.50D-05
 ErrMax= 9.98D-05  0.00D+00 EMaxC= 1.00D-01 BMatC= 4.04D-05 BMatP= 4.52D-05
 IDIUse=1 WtCom= 1.00D+00 WtEn= 0.00D+00
 Coeff-Com: -0.156D+01 0.250D+01 0.149D+00 0.606D+00-0.185D+01-0.369D+01
 Coeff-Com:  0.484D+01
 Coeff:     -0.156D+01 0.250D+01 0.149D+00 0.606D+00-0.185D+01-0.369D+01
 Coeff:      0.484D+01
 Gap=     0.354 Goal=   None    Shift=    0.000
 Gap=     0.120 Goal=   None    Shift=    0.000
 RMSDP=1.54D-05 MaxDP=1.82D-03 DE=-2.88D-05 OVMax= 1.07D-02

 Cycle  37  Pass 1  IDiag  1:
 RMSU=  6.00D-06    CP:  1.00D+00 -1.96D+00  3.00D+00  1.48D+00  2.88D-01
                    CP:  2.80D+00  3.00D+00  3.00D+00 -3.00D+00  3.00D+00
                    CP:  3.00D+00  3.00D+00  3.00D+00  3.00D+00  9.32D-01
                    CP:  3.00D+00
 E= -3920.79162598650     Delta-E=        0.000041750665 Rises=F Damp=F
 DIIS: error= 1.01D-04 at cycle  37 NSaved=   8.
 NSaved= 8 IEnMin= 7 EnMin= -3920.79166773716     IErMin= 5 ErrMin= 9.50D-05
 ErrMax= 1.01D-04  0.00D+00 EMaxC= 1.00D-01 BMatC= 6.94D-05 BMatP= 4.04D-05
 IDIUse=1 WtCom= 1.00D+00 WtEn= 0.00D+00
 Coeff-Com: -0.149D+01 0.256D+01 0.180D+00 0.551D+00-0.220D+01-0.436D+01
 Coeff-Com:  0.549D+01 0.276D+00
 Coeff:     -0.149D+01 0.256D+01 0.180D+00 0.551D+00-0.220D+01-0.436D+01
 Coeff:      0.549D+01 0.276D+00
 Gap=     0.354 Goal=   None    Shift=    0.000
 Gap=     0.120 Goal=   None    Shift=    0.000
 RMSDP=1.19D-05 MaxDP=1.43D-03 DE= 4.18D-05 OVMax= 8.57D-03

 Cycle  38  Pass 1  IDiag  1:
 RMSU=  3.15D-06    CP:  1.00D+00 -2.01D+00  3.00D+00  1.47D+00  3.31D-01
                    CP:  2.77D+00  3.00D+00  3.00D+00 -3.00D+00  3.00D+00
                    CP:  3.00D+00  3.00D+00  3.00D+00  3.00D+00  1.10D+00
                    CP:  3.00D+00  1.45D+00
 E= -3920.79167311387     Delta-E=       -0.000047127372 Rises=F Damp=F
 DIIS: error= 1.05D-04 at cycle  38 NSaved=   9.
 NSaved= 9 IEnMin= 9 EnMin= -3920.79167311387     IErMin= 5 ErrMin= 9.50D-05
 ErrMax= 1.05D-04  0.00D+00 EMaxC= 1.00D-01 BMatC= 7.32D-05 BMatP= 4.04D-05
 IDIUse=1 WtCom= 1.00D+00 WtEn= 0.00D+00
 Coeff-Com: -0.146D+01 0.252D+01 0.189D+00 0.509D+00-0.220D+01-0.437D+01
 Coeff-Com:  0.550D+01 0.106D-01 0.306D+00
 Coeff:     -0.146D+01 0.252D+01 0.189D+00 0.509D+00-0.220D+01-0.437D+01
 Coeff:      0.550D+01 0.106D-01 0.306D+00
 Gap=     0.354 Goal=   None    Shift=    0.000
 Gap=     0.120 Goal=   None    Shift=    0.000
 RMSDP=6.64D-06 MaxDP=7.85D-04 DE=-4.71D-05 OVMax= 4.88D-03

 Cycle  39  Pass 1  IDiag  1:
 RMSU=  1.37D-07    CP:  1.00D+00 -2.04D+00  3.00D+00  1.46D+00  3.48D-01
                    CP:  2.73D+00  3.00D+00  3.00D+00 -3.00D+00  3.00D+00
                    CP:  3.00D+00  3.00D+00  3.00D+00  3.00D+00  1.19D+00
                    CP:  3.00D+00  1.64D+00  1.51D+00
 E= -3920.79169962126     Delta-E=       -0.000026507396 Rises=F Damp=F
 DIIS: error= 1.05D-04 at cycle  39 NSaved=  10.
 NSaved=10 IEnMin=10 EnMin= -3920.79169962126     IErMin= 5 ErrMin= 9.50D-05
 ErrMax= 1.05D-04  0.00D+00 EMaxC= 1.00D-01 BMatC= 7.29D-05 BMatP= 4.04D-05
 IDIUse=1 WtCom= 1.00D+00 WtEn= 0.00D+00
 Coeff-Com: -0.151D+01 0.260D+01 0.182D+00 0.648D+00-0.209D+01-0.399D+01
 Coeff-Com:  0.513D+01-0.103D+01-0.822D+01 0.928D+01
 Coeff:     -0.151D+01 0.260D+01 0.182D+00 0.648D+00-0.209D+01-0.399D+01
 Coeff:      0.513D+01-0.103D+01-0.822D+01 0.928D+01
 Gap=     0.354 Goal=   None    Shift=    0.000
 Gap=     0.119 Goal=   None    Shift=    0.000
 RMSDP=3.92D-05 MaxDP=4.80D-03 DE=-2.65D-05 OVMax= 2.66D-02

 Cycle  40  Pass 1  IDiag  1:
 RMSU=  7.78D-06    CP:  1.00D+00 -2.19D+00  3.00D+00  1.46D+00  5.79D-01
                    CP:  2.32D+00  3.00D+00  3.00D+00 -3.00D+00  3.00D+00
                    CP:  3.00D+00  3.00D+00  3.00D+00  3.00D+00  1.75D+00
                    CP:  3.00D+00  3.00D+00  3.00D+00  3.00D+00
 E= -3920.79185378777     Delta-E=       -0.000154166502 Rises=F Damp=F
 DIIS: error= 1.09D-04 at cycle  40 NSaved=  11.
 NSaved=11 IEnMin=11 EnMin= -3920.79185378777     IErMin= 5 ErrMin= 9.50D-05
 ErrMax= 1.09D-04  0.00D+00 EMaxC= 1.00D-01 BMatC= 7.98D-05 BMatP= 4.04D-05
 IDIUse=1 WtCom= 1.00D+00 WtEn= 0.00D+00
 Large coefficients: NSaved= 11 BigCof=   24.94 CofMax=   10.00 Det=-1.63D-09
 Inversion failed.  Reducing to 10 matrices.
 Coeff-Com:  0.147D+00 0.367D+00-0.884D+00-0.368D+00-0.372D+01 0.407D+01
 Coeff-Com: -0.463D+01 0.526D+01 0.178D+01-0.102D+01
 Coeff:      0.147D+00 0.367D+00-0.884D+00-0.368D+00-0.372D+01 0.407D+01
 Coeff:     -0.463D+01 0.526D+01 0.178D+01-0.102D+01
 Gap=     0.353 Goal=   None    Shift=    0.000
 Gap=     0.125 Goal=   None    Shift=    0.000
 RMSDP=8.26D-05 MaxDP=8.12D-03 DE=-1.54D-04 OVMax= 6.34D-02

 Cycle  41  Pass 1  IDiag  1:
 Restarting incremental Fock formation.
 E= -3920.79211688344     Delta-E=       -0.000263095673 Rises=F Damp=F
 DIIS: error= 7.78D-05 at cycle  41 NSaved=  11.
 NSaved=11 IEnMin=11 EnMin= -3920.79211688344     IErMin=11 ErrMin= 7.78D-05
 ErrMax= 7.78D-05  0.00D+00 EMaxC= 1.00D-01 BMatC= 3.33D-05 BMatP= 4.04D-05
 IDIUse=1 WtCom= 1.00D+00 WtEn= 0.00D+00
 Coeff-Com: -0.407D+00 0.862D-01 0.121D+01 0.131D+01-0.114D+01-0.129D+01
 Coeff-Com:  0.966D+00 0.228D+00-0.422D+01 0.222D+01 0.202D+01
 Coeff:     -0.407D+00 0.862D-01 0.121D+01 0.131D+01-0.114D+01-0.129D+01
 Coeff:      0.966D+00 0.228D+00-0.422D+01 0.222D+01 0.202D+01
 Gap=     0.355 Goal=   None    Shift=    0.000
 Gap=     0.115 Goal=   None    Shift=    0.000
 RMSDP=5.50D-05 MaxDP=6.09D-03 DE=-2.63D-04 OVMax= 2.61D-02

 Cycle  42  Pass 1  IDiag  1:
 RMSU=  5.50D-05    CP:  1.00D+00
 E= -3920.79209272131     Delta-E=        0.000024162131 Rises=F Damp=F
 DIIS: error= 1.82D-04 at cycle  42 NSaved=  12.
 NSaved=12 IEnMin=11 EnMin= -3920.79211688344     IErMin=11 ErrMin= 7.78D-05
 ErrMax= 1.82D-04  0.00D+00 EMaxC= 1.00D-01 BMatC= 2.19D-04 BMatP= 3.33D-05
 IDIUse=1 WtCom= 1.00D+00 WtEn= 0.00D+00
 Large coefficients: NSaved= 12 BigCof=   17.93 CofMax=   10.00 Det=-1.87D-09
 Inversion failed.  Reducing to 11 matrices.
 Large coefficients: NSaved= 11 BigCof=   16.18 CofMax=   10.00 Det=-1.89D-09
 Inversion failed.  Reducing to 10 matrices.
 Large coefficients: NSaved= 10 BigCof=   19.71 CofMax=   10.00 Det=-2.00D-09
 Inversion failed.  Reducing to  9 matrices.
 Large coefficients: NSaved=  9 BigCof=   21.80 CofMax=   10.00 Det=-2.01D-09
 Inversion failed.  Reducing to  8 matrices.
 Large coefficients: NSaved=  8 BigCof=   27.10 CofMax=   10.00 Det=-2.30D-09
 Inversion failed.  Reducing to  7 matrices.
 Large coefficients: NSaved=  7 BigCof=   18.19 CofMax=   10.00 Det=-4.07D-09
 Inversion failed.  Reducing to  6 matrices.
 Large coefficients: NSaved=  6 BigCof=   36.59 CofMax=   10.00 Det=-4.94D-09
 Inversion failed.  Reducing to  5 matrices.
 Large coefficients: NSaved=  5 BigCof=   27.11 CofMax=   10.00 Det=-5.66D-09
 Inversion failed.  Reducing to  4 matrices.
 Coeff-Com: -0.921D+00 0.196D+00 0.117D+01 0.560D+00
 Coeff:     -0.921D+00 0.196D+00 0.117D+01 0.560D+00
 Gap=     0.352 Goal=   None    Shift=    0.000
 Gap=     0.125 Goal=   None    Shift=    0.000
 RMSDP=1.07D-04 MaxDP=1.12D-02 DE= 2.42D-05 OVMax= 8.16D-02

 Cycle  43  Pass 1  IDiag  1:
 RMSU=  9.58D-05    CP:  1.00D+00  1.30D-01
 E= -3920.79241656729     Delta-E=       -0.000323845985 Rises=F Damp=F
 DIIS: error= 1.09D-04 at cycle  43 NSaved=   5.
 NSaved= 5 IEnMin= 5 EnMin= -3920.79241656729     IErMin= 3 ErrMin= 7.78D-05
 ErrMax= 1.09D-04  0.00D+00 EMaxC= 1.00D-01 BMatC= 6.24D-05 BMatP= 3.33D-05
 IDIUse=1 WtCom= 1.00D+00 WtEn= 0.00D+00
 Coeff-Com: -0.164D+01 0.927D+00 0.767D+00 0.553D+00 0.393D+00
 Coeff:     -0.164D+01 0.927D+00 0.767D+00 0.553D+00 0.393D+00
 Gap=     0.348 Goal=   None    Shift=    0.000
 Gap=     0.129 Goal=   None    Shift=    0.000
 RMSDP=5.96D-05 MaxDP=6.89D-03 DE=-3.24D-04 OVMax= 3.56D-02

 Cycle  44  Pass 1  IDiag  1:
 RMSU=  1.01D-05    CP:  1.00D+00  1.67D-01  1.61D+00
 E= -3920.79255790567     Delta-E=       -0.000141338376 Rises=F Damp=F
 DIIS: error= 9.43D-05 at cycle  44 NSaved=   6.
 NSaved= 6 IEnMin= 6 EnMin= -3920.79255790567     IErMin= 3 ErrMin= 7.78D-05
 ErrMax= 9.43D-05  0.00D+00 EMaxC= 1.00D-01 BMatC= 5.25D-05 BMatP= 3.33D-05
 IDIUse=1 WtCom= 1.00D+00 WtEn= 0.00D+00
 Coeff-Com: -0.174D+01 0.125D+01 0.203D-02 0.630D+00-0.138D+00 0.998D+00
 Coeff:     -0.174D+01 0.125D+01 0.203D-02 0.630D+00-0.138D+00 0.998D+00
 Gap=     0.345 Goal=   None    Shift=    0.000
 Gap=     0.131 Goal=   None    Shift=    0.000
 RMSDP=8.34D-05 MaxDP=9.38D-03 DE=-1.41D-04 OVMax= 4.23D-02

 Cycle  45  Pass 1  IDiag  1:
 RMSU=  1.15D-05    CP:  1.00D+00  4.07D-01  2.44D+00  2.74D+00
 E= -3920.79265928963     Delta-E=       -0.000101383956 Rises=F Damp=F
 DIIS: error= 1.51D-04 at cycle  45 NSaved=   7.
 NSaved= 7 IEnMin= 7 EnMin= -3920.79265928963     IErMin= 3 ErrMin= 7.78D-05
 ErrMax= 1.51D-04  0.00D+00 EMaxC= 1.00D-01 BMatC= 1.69D-04 BMatP= 3.33D-05
 IDIUse=1 WtCom= 1.00D+00 WtEn= 0.00D+00
 Coeff-Com: -0.171D+01 0.122D+01 0.525D-01 0.631D+00-0.161D+00 0.911D+00
 Coeff-Com:  0.573D-01
 Coeff:     -0.171D+01 0.122D+01 0.525D-01 0.631D+00-0.161D+00 0.911D+00
 Coeff:      0.573D-01
 Gap=     0.345 Goal=   None    Shift=    0.000
 Gap=     0.132 Goal=   None    Shift=    0.000
 RMSDP=2.74D-06 MaxDP=2.84D-04 DE=-1.01D-04 OVMax= 1.80D-03

 Cycle  46  Pass 1  IDiag  1:
 RMSU=  3.24D-07    CP:  1.00D+00  4.17D-01  2.42D+00  2.69D+00  9.47D-01
 E= -3920.79266344202     Delta-E=       -0.000004152389 Rises=F Damp=F
 DIIS: error= 1.43D-04 at cycle  46 NSaved=   8.
 NSaved= 8 IEnMin= 8 EnMin= -3920.79266344202     IErMin= 3 ErrMin= 7.78D-05
 ErrMax= 1.43D-04  0.00D+00 EMaxC= 1.00D-01 BMatC= 1.48D-04 BMatP= 3.33D-05
 IDIUse=1 WtCom= 1.00D+00 WtEn= 0.00D+00
 Large coefficients: NSaved=  8 BigCof=   14.28 CofMax=   10.00 Det=-1.07D-08
 Inversion failed.  Reducing to  7 matrices.
 Large coefficients: NSaved=  7 BigCof=   14.87 CofMax=   10.00 Det=-1.07D-08
 Inversion failed.  Reducing to  6 matrices.
 Large coefficients: NSaved=  6 BigCof=   14.78 CofMax=   10.00 Det=-1.07D-08
 Inversion failed.  Reducing to  5 matrices.
 Large coefficients: NSaved=  5 BigCof=   17.91 CofMax=   10.00 Det=-4.83D-08
 Inversion failed.  Reducing to  4 matrices.
 Large coefficients: NSaved=  4 BigCof=   18.84 CofMax=   10.00 Det=-5.39D-08
 Inversion failed.  Reducing to  3 matrices.
 Large coefficients: NSaved=  3 BigCof=   20.47 CofMax=   10.00 Det=-1.03D-07
 Inversion failed.  Reducing to  2 matrices.
 Large coefficients: NSaved=  2 BigCof=   15.13 CofMax=   10.00 Det=-7.06D-07
 Coeff-Com: -0.141D+02 0.151D+02
 Coeff:     -0.141D+02 0.151D+02
 Gap=     0.348 Goal=   None    Shift=    0.000
 Gap=     0.125 Goal=   None    Shift=    0.000
 RMSDP=3.49D-05 MaxDP=4.01D-03 DE=-4.15D-06 OVMax= 2.29D-02

 Cycle  47  Pass 1  IDiag  1:
 RMSU=  6.40D-06    CP:  1.00D+00  5.88D-01  2.09D+00  2.12D+00  3.77D-01
                    CP:  3.00D+00
 E= -3920.79267836925     Delta-E=       -0.000014927235 Rises=F Damp=F
 DIIS: error= 3.87D-05 at cycle  47 NSaved=   3.
 NSaved= 3 IEnMin= 3 EnMin= -3920.79267836925     IErMin= 3 ErrMin= 3.87D-05
 ErrMax= 3.87D-05  0.00D+00 EMaxC= 1.00D-01 BMatC= 9.90D-06 BMatP= 1.48D-04
 IDIUse=1 WtCom= 1.00D+00 WtEn= 0.00D+00
 Coeff-Com: -0.781D+01 0.837D+01 0.442D+00
 Coeff:     -0.781D+01 0.837D+01 0.442D+00
 Gap=     0.347 Goal=   None    Shift=    0.000
 Gap=     0.125 Goal=   None    Shift=    0.000
 RMSDP=2.89D-06 MaxDP=3.63D-04 DE=-1.49D-05 OVMax= 1.01D-03

 Cycle  48  Pass 1  IDiag  1:
 RMSU=  1.86D-06    CP:  1.00D+00  5.99D-01  2.11D+00  2.21D+00  3.66D-01
                    CP:  3.00D+00  1.04D+00
 E= -3920.79268362547     Delta-E=       -0.000005256215 Rises=F Damp=F
 DIIS: error= 3.61D-05 at cycle  48 NSaved=   4.
 NSaved= 4 IEnMin= 4 EnMin= -3920.79268362547     IErMin= 4 ErrMin= 3.61D-05
 ErrMax= 3.61D-05  0.00D+00 EMaxC= 1.00D-01 BMatC= 2.94D-06 BMatP= 9.90D-06
 IDIUse=1 WtCom= 1.00D+00 WtEn= 0.00D+00
 Coeff-Com:  0.394D+01-0.418D+01 0.752D-01 0.116D+01
 Coeff:      0.394D+01-0.418D+01 0.752D-01 0.116D+01
 Gap=     0.347 Goal=   None    Shift=    0.000
 Gap=     0.124 Goal=   None    Shift=    0.000
 RMSDP=7.85D-06 MaxDP=1.11D-03 DE=-5.26D-06 OVMax= 4.80D-03

 Cycle  49  Pass 1  IDiag  1:
 RMSU=  1.31D-06    CP:  1.00D+00  6.24D-01  2.18D+00  2.38D+00  4.79D-01
                    CP:  3.00D+00  1.36D+00  1.30D+00
 E= -3920.79269561639     Delta-E=       -0.000011990922 Rises=F Damp=F
 DIIS: error= 3.46D-05 at cycle  49 NSaved=   5.
 NSaved= 5 IEnMin= 5 EnMin= -3920.79269561639     IErMin= 5 ErrMin= 3.46D-05
 ErrMax= 3.46D-05  0.00D+00 EMaxC= 1.00D-01 BMatC= 3.03D-06 BMatP= 2.94D-06
 IDIUse=1 WtCom= 1.00D+00 WtEn= 0.00D+00
 Large coefficients: NSaved=  5 BigCof=   12.95 CofMax=   10.00 Det=-3.94D-09
 Inversion failed.  Reducing to  4 matrices.
 Coeff-Com:  0.447D-01 0.436D-01 0.388D+00 0.523D+00
 Coeff:      0.447D-01 0.436D-01 0.388D+00 0.523D+00
 Gap=     0.347 Goal=   None    Shift=    0.000
 Gap=     0.125 Goal=   None    Shift=    0.000
 RMSDP=1.99D-06 MaxDP=2.29D-04 DE=-1.20D-05 OVMax= 1.18D-03

 Cycle  50  Pass 1  IDiag  1:
 RMSU=  5.17D-07    CP:  1.00D+00  6.27D-01  2.20D+00  2.43D+00  5.07D-01
                    CP:  3.00D+00  1.39D+00  1.39D+00  9.98D-01
 E= -3920.79269850449     Delta-E=       -0.000002888100 Rises=F Damp=F
 DIIS: error= 3.39D-05 at cycle  50 NSaved=   5.
 NSaved= 5 IEnMin= 5 EnMin= -3920.79269850449     IErMin= 5 ErrMin= 3.39D-05
 ErrMax= 3.39D-05  0.00D+00 EMaxC= 1.00D-01 BMatC= 2.09D-06 BMatP= 2.94D-06
 IDIUse=1 WtCom= 1.00D+00 WtEn= 0.00D+00
 Coeff-Com:  0.636D-01-0.489D+00-0.225D+01 0.133D+00 0.355D+01
 Coeff:      0.636D-01-0.489D+00-0.225D+01 0.133D+00 0.355D+01
 Gap=     0.346 Goal=   None    Shift=    0.000
 Gap=     0.125 Goal=   None    Shift=    0.000
 RMSDP=3.16D-05 MaxDP=4.30D-03 DE=-2.89D-06 OVMax= 1.94D-02

 Cycle  51  Pass 1  IDiag  1:
 RMSU=  3.14D-06    CP:  1.00D+00  7.04D-01  2.50D+00  3.00D+00  1.00D+00
                    CP:  3.00D+00  2.29D+00  2.89D+00  3.00D+00  3.00D+00
 E= -3920.79273671751     Delta-E=       -0.000038213018 Rises=F Damp=F
 DIIS: error= 2.42D-05 at cycle  51 NSaved=   6.
 NSaved= 6 IEnMin= 6 EnMin= -3920.79273671751     IErMin= 6 ErrMin= 2.42D-05
 ErrMax= 2.42D-05  0.00D+00 EMaxC= 1.00D-01 BMatC= 1.42D-06 BMatP= 2.09D-06
 IDIUse=1 WtCom= 1.00D+00 WtEn= 0.00D+00
 Coeff-Com:  0.374D-01-0.397D+00-0.183D+01-0.172D+00 0.269D+01 0.673D+00
 Coeff:      0.374D-01-0.397D+00-0.183D+01-0.172D+00 0.269D+01 0.673D+00
 Gap=     0.346 Goal=   None    Shift=    0.000
 Gap=     0.125 Goal=   None    Shift=    0.000
 RMSDP=1.54D-05 MaxDP=2.18D-03 DE=-3.82D-05 OVMax= 9.27D-03

 Cycle  52  Pass 1  IDiag  1:
 RMSU=  1.79D-06    CP:  1.00D+00  7.43D-01  2.64D+00  3.00D+00  1.29D+00
                    CP:  3.00D+00  2.71D+00  3.00D+00  3.00D+00  3.00D+00
                    CP:  2.53D+00
 E= -3920.79275033266     Delta-E=       -0.000013615150 Rises=F Damp=F
 DIIS: error= 1.84D-05 at cycle  52 NSaved=   7.
 NSaved= 7 IEnMin= 7 EnMin= -3920.79275033266     IErMin= 7 ErrMin= 1.84D-05
 ErrMax= 1.84D-05  0.00D+00 EMaxC= 1.00D-01 BMatC= 6.31D-07 BMatP= 1.42D-06
 IDIUse=1 WtCom= 1.00D+00 WtEn= 0.00D+00
 Coeff-Com: -0.643D-01 0.210D+00 0.128D+01-0.337D+00-0.186D+01-0.644D-01
 Coeff-Com:  0.184D+01
 Coeff:     -0.643D-01 0.210D+00 0.128D+01-0.337D+00-0.186D+01-0.644D-01
 Coeff:      0.184D+01
 Gap=     0.345 Goal=   None    Shift=    0.000
 Gap=     0.125 Goal=   None    Shift=    0.000
 RMSDP=2.32D-05 MaxDP=3.37D-03 DE=-1.36D-05 OVMax= 1.36D-02

 Cycle  53  Pass 1  IDiag  1:
 RMSU=  7.31D-06    CP:  1.00D+00  8.09D-01  2.85D+00  3.00D+00  1.77D+00
                    CP:  3.00D+00  3.00D+00  3.00D+00  3.00D+00  3.00D+00
                    CP:  3.00D+00  2.41D+00
 E= -3920.79276467785     Delta-E=       -0.000014345194 Rises=F Damp=F
 DIIS: error= 1.71D-05 at cycle  53 NSaved=   8.
 NSaved= 8 IEnMin= 8 EnMin= -3920.79276467785     IErMin= 8 ErrMin= 1.71D-05
 ErrMax= 1.71D-05  0.00D+00 EMaxC= 1.00D-01 BMatC= 8.11D-07 BMatP= 6.31D-07
 IDIUse=1 WtCom= 1.00D+00 WtEn= 0.00D+00
 Coeff-Com: -0.998D-01 0.318D+00 0.200D+01-0.204D+00-0.277D+01-0.536D+00
 Coeff-Com:  0.151D+01 0.775D+00
 Coeff:     -0.998D-01 0.318D+00 0.200D+01-0.204D+00-0.277D+01-0.536D+00
 Coeff:      0.151D+01 0.775D+00
 Gap=     0.344 Goal=   None    Shift=    0.000
 Gap=     0.125 Goal=   None    Shift=    0.000
 RMSDP=1.43D-05 MaxDP=2.22D-03 DE=-1.43D-05 OVMax= 8.05D-03

 Cycle  54  Pass 1  IDiag  1:
 RMSU=  1.21D-06    CP:  1.00D+00  8.53D-01  2.97D+00  3.00D+00  2.11D+00
                    CP:  3.00D+00  3.00D+00  3.00D+00  3.00D+00  3.00D+00
                    CP:  3.00D+00  3.00D+00  1.84D+00
 E= -3920.79276996921     Delta-E=       -0.000005291362 Rises=F Damp=F
 DIIS: error= 1.10D-05 at cycle  54 NSaved=   9.
 NSaved= 9 IEnMin= 9 EnMin= -3920.79276996921     IErMin= 9 ErrMin= 1.10D-05
 ErrMax= 1.10D-05  0.00D+00 EMaxC= 1.00D-01 BMatC= 6.76D-07 BMatP= 6.31D-07
 IDIUse=1 WtCom= 1.00D+00 WtEn= 0.00D+00
 Coeff-Com: -0.616D-01 0.236D-02 0.618D+00 0.105D+00-0.488D+00-0.373D+00
 Coeff-Com: -0.180D+00 0.291D+00 0.109D+01
[...]
 --------------------------------------------------------
     1   Atom        0.276979      1.395192      0.222693
     2   Atom       -0.003159     -0.026944      0.048093
     3   Atom        0.042676     -0.040976     -0.543707
     4   Atom        0.000918      0.005000      0.006719
     5   Atom       -0.014206      0.027209     -0.019179
     6   Atom       -0.008136      0.035176     -0.013980
     7   Atom        0.000095      0.030041      0.002949
     8   Atom       -0.003722     -0.000114      0.000402
     9   Atom       -0.003176     -0.001139      0.000533
    10   Atom       -0.008985      0.003767     -0.001770
    11   Atom       -0.000655      0.001066     -0.000779
    12   Atom       -0.001223      0.001207     -0.000919
    13   Atom       -0.000646      0.001570     -0.002570
    14   Atom       -0.000143      0.000053     -0.000717
    15   Atom       -0.000075      0.000154     -0.000015
    16   Atom       -0.000056     -0.000102     -0.000226
    17   Atom        0.000304      0.000622      0.000100
    18   Atom       -0.000450     -0.000312      0.000095
    19   Atom        0.016434     -0.009066      0.049685
    20   Atom       -0.082810     -0.522982      0.275839
    21   Atom        0.026705     -0.032264      0.019476
    22   Atom       -0.000216     -0.001405      0.000941
    23   Atom        0.012623      0.008660      0.004249
    24   Atom       -0.023975     -0.042402      0.017076
    25   Atom       -0.000848     -0.000361      0.000937
    26   Atom       -0.001206      0.000364     -0.001088
    27   Atom       -0.000698     -0.000132      0.000322
    28   Atom       -0.000525     -0.000092      0.000156
    29   Atom       -0.000500      0.000031      0.000005
    30   Atom       -0.000487     -0.000033      0.000109
    31   Atom       -0.000313     -0.000110      0.000137
    32   Atom       -0.002025      0.000674     -0.000645
    33   Atom       -0.001538      0.000001     -0.000653
    34   Atom       -0.000810      0.000383     -0.000208
    35   Atom       -0.003307      0.003732     -0.002727
    36   Atom       -0.002898     -0.002916      0.004681
    37   Atom        0.036417      0.044616      0.193588
    38   Atom       -0.057501      0.020564      0.022211
    39   Atom       -0.002128     -0.000327      0.001207
    40   Atom        0.005601      0.052893      0.002192
    41   Atom       -0.016490     -0.011392      0.010606
    42   Atom        0.000744     -0.001009      0.000589
    43   Atom        0.000324     -0.000230      0.000376
    44   Atom        0.000626     -0.001161     -0.000356
    45   Atom        0.000440     -0.000708     -0.000293
    46   Atom        0.000512     -0.000425     -0.000227
    47   Atom        0.000440     -0.000818     -0.000447
    48   Atom        0.000245     -0.000515     -0.000159
    49   Atom        0.002788     -0.002321     -0.001699
    50   Atom        0.007937     -0.002162     -0.004379
    51   Atom        0.002146     -0.004075     -0.002637
    52   Atom        0.001133     -0.000896     -0.000472
    53   Atom        0.001800     -0.003416      0.002870
    54   Atom        0.001912     -0.005935      0.004760
 --------------------------------------------------------


 ---------------------------------------------------------------------------------
              Anisotropic Spin Dipole Couplings in Principal Axis System
 ---------------------------------------------------------------------------------

       Atom             a.u.   MegaHertz   Gauss  10(-4) cm-1        Axes

              Baa    -0.9672    69.983    24.972    23.344  0.6038 -0.5350 -0.5909
     1 O(17)  Bbb    -0.9366    67.770    24.182    22.606  0.2742  0.8354 -0.4763
              Bcc     1.9037  -137.753   -49.154   -45.949  0.7485  0.1256  0.6511
 
              Baa    -0.1244   -16.690    -5.956    -5.567  0.1664 -0.2218  0.9608
     2 C(13)  Bbb     0.0299     4.018     1.434     1.340  0.9756  0.1785 -0.1278
              Bcc     0.0944    12.672     4.522     4.227 -0.1432  0.9586  0.2461
 
              Baa    -0.3761   -14.506    -5.176    -4.839  0.9935 -0.1089 -0.0322
     3 N(14)  Bbb    -0.3573   -13.780    -4.917    -4.596  0.1002  0.7078  0.6993
              Bcc     0.7334    28.285    10.093     9.435 -0.0534 -0.6980  0.7141
 
              Baa    -0.0153    -2.055    -0.733    -0.685 -0.0085  0.9853 -0.1704
     4 C(13)  Bbb    -0.0099    -1.328    -0.474    -0.443  0.9892 -0.0167 -0.1457
              Bcc     0.0252     3.382     1.207     1.128  0.1464  0.1698  0.9745
 
              Baa    -0.0233    -3.126    -1.115    -1.043 -0.6480  0.3063  0.6973
     5 C(13)  Bbb    -0.0200    -2.690    -0.960    -0.897  0.5038  0.8590  0.0909
              Bcc     0.0433     5.816     2.075     1.940  0.5712 -0.4102  0.7110
 
              Baa    -0.0276   -13.853    -4.943    -4.621  0.6952 -0.4471 -0.5628
     6 F(19)  Bbb    -0.0257   -12.895    -4.601    -4.301  0.4845  0.8699 -0.0927
              Bcc     0.0533    26.748     9.544     8.922  0.5311 -0.2082  0.8213
 
              Baa    -0.0323   -16.245    -5.797    -5.419  0.8905  0.3094 -0.3337
     7 F(19)  Bbb    -0.0292   -14.679    -5.238    -4.896 -0.3010  0.9504  0.0782
              Bcc     0.0616    30.924    11.034    10.315  0.3413  0.0308  0.9394
 
              Baa    -0.0046    -0.620    -0.221    -0.207 -0.1402 -0.4713  0.8707
     8 C(13)  Bbb    -0.0038    -0.511    -0.182    -0.171  0.2838  0.8234  0.4914
              Bcc     0.0084     1.131     0.404     0.377  0.9486 -0.3160 -0.0183
 
              Baa    -0.0038    -1.897    -0.677    -0.633 -0.1110 -0.6218  0.7753
     9 F(19)  Bbb    -0.0035    -1.744    -0.622    -0.582  0.3136  0.7183  0.6210
              Bcc     0.0073     3.641     1.299     1.215  0.9431 -0.3120 -0.1153
 
              Baa    -0.0079     0.571     0.204     0.190 -0.3095 -0.2035  0.9289
    10 O(17)  Bbb    -0.0071     0.514     0.183     0.172  0.3968  0.8601  0.3207
              Bcc     0.0150    -1.085    -0.387    -0.362  0.8641 -0.4679  0.1854
 
              Baa    -0.0010    -0.136    -0.049    -0.045 -0.5275  0.3229  0.7858
    11 C(13)  Bbb    -0.0007    -0.092    -0.033    -0.031  0.5695  0.8207  0.0450
              Bcc     0.0017     0.229     0.082     0.076  0.6304 -0.4713  0.6168
 
              Baa    -0.0013    -0.660    -0.236    -0.220 -0.6765 -0.1078  0.7285
    12 F(19)  Bbb    -0.0009    -0.477    -0.170    -0.159  0.3728  0.8030  0.4650
              Bcc     0.0023     1.137     0.406     0.379  0.6351 -0.5861  0.5031
 
              Baa    -0.0024    -1.221    -0.436    -0.407  0.8204 -0.3760 -0.4307
    13 F(19)  Bbb    -0.0021    -1.069    -0.382    -0.357  0.5126  0.8174  0.2629
              Bcc     0.0046     2.291     0.817     0.764  0.2532 -0.4365  0.8633
 
              Baa    -0.0008    -0.420    -0.150    -0.140  0.1046  0.8466  0.5219
    14 F(19)  Bbb     0.0000     0.025     0.009     0.008  0.9807 -0.0008 -0.1954
              Bcc     0.0008     0.395     0.141     0.132  0.1650 -0.5323  0.8303
 
              Baa    -0.0013    -0.171    -0.061    -0.057 -0.0422  0.0473  0.9980
    15 C(13)  Bbb    -0.0010    -0.137    -0.049    -0.046  0.0248  0.9986 -0.0463
              Bcc     0.0023     0.308     0.110     0.103  0.9988 -0.0228  0.0433
 
              Baa    -0.0007    -0.343    -0.122    -0.114  0.0688  0.7643  0.6412
    16 F(19)  Bbb    -0.0002    -0.109    -0.039    -0.036  0.0376 -0.6443  0.7639
              Bcc     0.0009     0.452     0.161     0.151  0.9969 -0.0285 -0.0731
 
              Baa    -0.0011    -0.550    -0.196    -0.183 -0.1856 -0.1857  0.9649
    17 F(19)  Bbb    -0.0009    -0.456    -0.163    -0.152 -0.1445  0.9765  0.1601
              Bcc     0.0020     1.006     0.359     0.336  0.9719  0.1097  0.2080
 
              Baa    -0.0021    -1.077    -0.384    -0.359  0.0314 -0.2461  0.9687
    18 F(19)  Bbb    -0.0018    -0.928    -0.331    -0.310  0.0882  0.9661  0.2426
              Bcc     0.0040     2.005     0.716     0.669  0.9956 -0.0778 -0.0521
 
              Baa    -0.1125   -15.093    -5.386    -5.035  0.0885 -0.2862  0.9541
    19 C(13)  Bbb     0.0351     4.704     1.679     1.569  0.9404 -0.2919 -0.1747
              Bcc     0.0774    10.389     3.707     3.465  0.3285  0.9127  0.2433
 
              Baa    -0.6142    44.444    15.859    14.825  0.9090 -0.2406  0.3405
    20 O(17)  Bbb    -0.5827    42.161    15.044    14.063  0.2813  0.9567 -0.0749
              Bcc     1.1969   -86.604   -30.903   -28.888 -0.3077  0.1638  0.9373
 
              Baa    -0.0594    -2.291    -0.818    -0.764  0.3979 -0.4747  0.7851
    21 N(14)  Bbb     0.0044     0.171     0.061     0.057 -0.1229  0.8204  0.5584
              Bcc     0.0550     2.121     0.757     0.707  0.9092  0.3186 -0.2681
 
              Baa    -0.0029    -0.385    -0.137    -0.128  0.1384 -0.6581  0.7401
    22 C(13)  Bbb    -0.0011    -0.152    -0.054    -0.051  0.2189  0.7491  0.6252
              Bcc     0.0040     0.537     0.191     0.179  0.9659 -0.0754 -0.2477
 
              Baa    -0.0115    -5.764    -2.057    -1.923 -0.5307  0.3916  0.7517
    23 F(19)  Bbb    -0.0096    -4.842    -1.728    -1.615 -0.2442  0.7786 -0.5781
              Bcc     0.0211    10.605     3.784     3.538  0.8116  0.4904  0.3176
 
              Baa    -0.0337   -16.919    -6.037    -5.644 -0.0274  0.8527 -0.5217
    24 F(19)  Bbb    -0.0330   -16.589    -5.919    -5.534  0.6259  0.4215  0.6562
              Bcc     0.0667    33.508    11.957    11.177  0.7794 -0.3086 -0.5453
 
              Baa    -0.0019    -0.250    -0.089    -0.083 -0.0250 -0.4733  0.8805
    25 C(13)  Bbb    -0.0001    -0.016    -0.006    -0.005  0.5039  0.7547  0.4201
              Bcc     0.0020     0.267     0.095     0.089  0.8634 -0.4542 -0.2196
 
              Baa    -0.0023    -1.145    -0.408    -0.382 -0.0626  0.2043  0.9769
    26 F(19)  Bbb    -0.0009    -0.473    -0.169    -0.158  0.9461  0.3239 -0.0071
              Bcc     0.0032     1.618     0.577     0.540 -0.3179  0.9238 -0.2135
 
              Baa    -0.0008     0.061     0.022     0.020 -0.1415 -0.4819  0.8647
    27 O(17)  Bbb    -0.0003     0.025     0.009     0.008  0.5170  0.7089  0.4797
              Bcc     0.0012    -0.086    -0.031    -0.029  0.8442 -0.5150 -0.1488
 
              Baa    -0.0004    -0.060    -0.021    -0.020 -0.0846 -0.2571  0.9627
    28 C(13)  Bbb    -0.0003    -0.043    -0.015    -0.014  0.7767  0.5881  0.2254
              Bcc     0.0008     0.103     0.037     0.034 -0.6241  0.7668  0.1500
 
              Baa    -0.0004    -0.185    -0.066    -0.062 -0.4436 -0.3723  0.8153
    29 F(19)  Bbb    -0.0003    -0.156    -0.056    -0.052  0.6053  0.5464  0.5788
              Bcc     0.0007     0.341     0.122     0.114 -0.6609  0.7503 -0.0170
 
              Baa    -0.0004    -0.215    -0.077    -0.072 -0.2745 -0.2541  0.9274
    30 F(19)  Bbb    -0.0004    -0.178    -0.064    -0.059  0.8282  0.4276  0.3623
              Bcc     0.0008     0.393     0.140     0.131 -0.4886  0.8675  0.0930
 
              Baa    -0.0003    -0.133    -0.047    -0.044  0.1529 -0.1914  0.9695
    31 F(19)  Bbb    -0.0002    -0.106    -0.038    -0.035  0.7804  0.6253  0.0004
              Bcc     0.0005     0.239     0.085     0.080 -0.6064  0.7565  0.2450
 
              Baa    -0.0016    -0.215    -0.077    -0.072 -0.4677 -0.1433  0.8722
    32 C(13)  Bbb    -0.0013    -0.179    -0.064    -0.060  0.6257  0.6433  0.4412
              Bcc     0.0029     0.395     0.141     0.132 -0.6243  0.7521 -0.2112
 
              Baa    -0.0022    -1.091    -0.389    -0.364  0.7143  0.2681  0.6464
    33 F(19)  Bbb    -0.0018    -0.916    -0.327    -0.305 -0.6482 -0.0947  0.7556
              Bcc     0.0040     2.007     0.716     0.669 -0.2638  0.9587 -0.1061
 
              Baa    -0.0009    -0.466    -0.166    -0.155  0.7045  0.2377 -0.6687
    34 F(19)  Bbb    -0.0004    -0.221    -0.079    -0.074  0.5356  0.4401  0.7207
              Bcc     0.0014     0.687     0.245     0.229 -0.4656  0.8659 -0.1827
 
              Baa    -0.0038    -1.927    -0.687    -0.643 -0.6357  0.0007  0.7720
    35 F(19)  Bbb    -0.0028    -1.382    -0.493    -0.461  0.4245  0.8356  0.3487
              Bcc     0.0066     3.308     1.180     1.104  0.6448 -0.5494  0.5314
 
              Baa    -0.0100    -1.338    -0.477    -0.446  0.0475 -0.5302  0.8465
    36 C(13)  Bbb    -0.0012    -0.159    -0.057    -0.053  0.3458  0.8038  0.4840
              Bcc     0.0112     1.497     0.534     0.499  0.9371 -0.2697 -0.2216
 
              Baa    -0.1435    10.381     3.704     3.463  0.0526  0.7507 -0.6586
    37 O(17)  Bbb    -0.1136     8.223     2.934     2.743  0.9862 -0.1429 -0.0841
              Bcc     0.2571   -18.605    -6.639    -6.206  0.1572  0.6451  0.7478
 
              Baa    -0.0850    -3.279    -1.170    -1.094 -0.2739 -0.3810  0.8831
    38 N(14)  Bbb    -0.0131    -0.505    -0.180    -0.169  0.4560  0.7570  0.4680
              Bcc     0.0981     3.784     1.350     1.262  0.8468 -0.5309  0.0336
 
              Baa    -0.0044    -0.585    -0.209    -0.195 -0.1215 -0.6992  0.7046
    39 C(13)  Bbb    -0.0022    -0.289    -0.103    -0.097  0.2052  0.6768  0.7070
              Bcc     0.0065     0.874     0.312     0.292  0.9711 -0.2305 -0.0612
 
              Baa    -0.0618   -31.061   -11.083   -10.361  0.0553  0.9595 -0.2762
    40 F(19)  Bbb    -0.0604   -30.342   -10.827   -10.121 -0.3007  0.2798  0.9118
              Bcc     0.1223    61.403    21.910    20.482  0.9521  0.0326  0.3040
 
              Baa    -0.0143    -7.191    -2.566    -2.399  0.7497  0.3561  0.5578
    41 F(19)  Bbb    -0.0125    -6.275    -2.239    -2.093 -0.2082 -0.6731  0.7096
              Bcc     0.0268    13.466     4.805     4.492 -0.6281  0.6481  0.4305
 
              Baa    -0.0024    -0.316    -0.113    -0.105  0.2318 -0.5999  0.7657
    42 C(13)  Bbb    -0.0008    -0.114    -0.041    -0.038  0.0091  0.7885  0.6150
              Bcc     0.0032     0.430     0.153     0.143  0.9727  0.1356 -0.1882
 
              Baa    -0.0014    -0.705    -0.252    -0.235 -0.1249  0.9032 -0.4107
    43 F(19)  Bbb    -0.0003    -0.172    -0.062    -0.058  0.0358  0.4178  0.9078
              Bcc     0.0017     0.878     0.313     0.293  0.9915  0.0987 -0.0845
 
              Baa    -0.0016     0.118     0.042     0.039  0.4438  0.0207  0.8959
    44 O(17)  Bbb     0.0000     0.003     0.001     0.001 -0.4396  0.8762  0.1975
              Bcc     0.0017    -0.121    -0.043    -0.040  0.7809  0.4815 -0.3979
 
              Baa    -0.0007    -0.087    -0.031    -0.029  0.4991  0.0883  0.8620
    45 C(13)  Bbb    -0.0005    -0.064    -0.023    -0.021 -0.3463  0.9322  0.1051
              Bcc     0.0011     0.151     0.054     0.051  0.7943  0.3510 -0.4959
 
              Baa    -0.0005    -0.262    -0.094    -0.087  0.4264 -0.0294  0.9041
    46 F(19)  Bbb    -0.0004    -0.200    -0.071    -0.067 -0.4297  0.8729  0.2311
              Bcc     0.0009     0.462     0.165     0.154  0.7960  0.4870 -0.3595
 
              Baa    -0.0007    -0.338    -0.120    -0.113  0.6839  0.0619  0.7269
    47 F(19)  Bbb    -0.0006    -0.277    -0.099    -0.092 -0.3178  0.9221  0.2205
              Bcc     0.0012     0.615     0.219     0.205  0.6567  0.3819 -0.6503
 
              Baa    -0.0004    -0.220    -0.078    -0.073  0.5176  0.0550  0.8538
    48 F(19)  Bbb    -0.0004    -0.176    -0.063    -0.059 -0.2551  0.9625  0.0927
              Bcc     0.0008     0.396     0.141     0.132  0.8167  0.2658 -0.5122
 
              Baa    -0.0025    -0.333    -0.119    -0.111  0.7086 -0.5606  0.4286
    49 C(13)  Bbb    -0.0023    -0.307    -0.110    -0.102  0.0214  0.6241  0.7810
              Bcc     0.0048     0.640     0.229     0.214  0.7053  0.5443 -0.4542
 
              Baa    -0.0069    -3.464    -1.236    -1.155  0.6147 -0.5114 -0.6005
    50 F(19)  Bbb    -0.0065    -3.262    -1.164    -1.088  0.6394 -0.1226  0.7590
              Bcc     0.0134     6.726     2.400     2.243  0.4618  0.8506 -0.2516
 
              Baa    -0.0035    -1.751    -0.625    -0.584  0.8317 -0.2772  0.4811
    51 F(19)  Bbb    -0.0030    -1.508    -0.538    -0.503  0.0185  0.8798  0.4750
              Bcc     0.0065     3.260     1.163     1.087 -0.5549 -0.3861  0.7368
 
              Baa    -0.0014    -0.696    -0.248    -0.232  0.7946 -0.5402  0.2772
    52 F(19)  Bbb    -0.0003    -0.142    -0.051    -0.047  0.1477  0.6149  0.7747
              Bcc     0.0017     0.838     0.299     0.279  0.5889  0.5746 -0.5683
 
              Baa    -0.0078    -4.156    -1.483    -1.386  0.3015 -0.3451  0.8888
    53 H(1)   Bbb     0.0022     1.158     0.413     0.386 -0.1293  0.9088  0.3967
              Bcc     0.0056     2.998     1.070     1.000  0.9447  0.2345 -0.2294
 
              Baa    -0.0105    -5.596    -1.997    -1.867  0.4006 -0.3857  0.8311
    54 H(1)   Bbb     0.0038     2.050     0.731     0.684  0.2871  0.9142  0.2859
              Bcc     0.0066     3.546     1.265     1.183  0.8701 -0.1241 -0.4770
 

 ---------------------------------------------------------------------------------

 No NMR shielding tensors so no spin-rotation constants.
 Leave Link  601 at Sun Mar  3 17:48:50 2024, MaxMem=  5368709120 cpu:         6.0
 (Enter /home/k0335/k033513/app/g09/l9999.exe)
 1\1\GINC-C24U18N1\SP\UCAM-B3LYP\6-31G(d,p)\C16H2F27N3O6(1+,2)\K033513\
 03-Mar-2024\0\\#p CAM-B3LYP/6-31G(d,p) SCRF=(PCM,Solvent=Generic,Read)
  NoSymm out=wfn\\Title A1400116032_p1\\1,2\O,0,0.511441,-2.089646,-1.5
 43633\C,0,0.096171,-0.98729,-1.197506\N,0,0.966904,0.019795,-0.847922\
 C,0,2.414219,-0.224106,-0.993224\C,0,3.033089,-0.801962,0.291598\F,0,3
 .051207,0.161294,1.25174\F,0,2.174945,-1.752481,0.765494\C,0,4.440119,
 -1.408624,0.141621\F,0,4.399101,-2.450006,-0.743108\O,0,5.038275,-1.91
 0799,1.342797\C,0,4.260098,-2.865323,2.015542\F,0,3.640872,-3.695794,1
 .162263\F,0,3.35993,-2.238668,2.792292\F,0,5.072945,-3.590786,2.80812\
 C,0,5.376655,-0.341182,-0.432848\F,0,6.647103,-0.796671,-0.545297\F,0,
 5.415173,0.771272,0.332022\F,0,4.993354,0.042265,-1.674341\C,0,0.55815
 9,1.186226,-0.242804\O,0,1.347202,2.106347,-0.045196\N,0,-0.76767,1.26
 064,0.091408\C,0,-1.242735,2.428213,0.824085\F,0,-2.149899,1.971622,1.
 750509\F,0,-0.247795,2.929066,1.615557\C,0,-1.900352,3.597786,0.040268
 \F,0,-2.935002,3.118984,-0.710328\O,0,-2.486147,4.485729,1.007705\C,0,
 -2.988877,5.669307,0.448989\F,0,-3.630817,5.435243,-0.70555\F,0,-1.970
 517,6.521913,0.245732\F,0,-3.847934,6.226467,1.32184\C,0,-0.846902,4.2
 01817,-0.890001\F,0,0.192865,4.732331,-0.218023\F,0,-1.361593,5.186451
 ,-1.663571\F,0,-0.364731,3.275252,-1.754005\C,0,-1.706599,0.394455,-0.
 416377\O,0,-2.905756,0.585395,-0.243343\N,0,-1.238016,-0.688574,-1.121
 92\C,0,-2.201626,-1.672822,-1.611843\F,0,-1.673646,-2.35371,-2.670654\
 F,0,-3.228358,-0.973949,-2.199642\C,0,-2.828166,-2.67515,-0.602202\F,0
 ,-3.781863,-3.391968,-1.279395\O,0,-3.524477,-1.953942,0.418738\C,0,-4
 .060368,-2.769301,1.426266\F,0,-4.588936,-3.895442,0.925371\F,0,-3.084
 111,-3.066702,2.301092\F,0,-5.020582,-2.084134,2.072622\C,0,-1.731156,
 -3.626853,-0.122143\F,0,-1.080163,-4.235067,-1.131986\F,0,-0.824279,-2
 .962477,0.633454\F,0,-2.229778,-4.615683,0.656862\H,0,2.889517,0.72786
 1,-1.249302\H,0,2.569508,-0.916621,-1.827823\\Version=ES64L-G09RevD.01
 \HF=-3920.792777\S2=0.783807\S2-1=0.\S2A=0.750545\RMSD=4.443e-09\Dipol
 e=1.3715525,-0.2411339,-2.113238\Quadrupole=1.3935577,0.5987044,-1.992
 2621,-0.2481204,-4.4934162,-0.2804052\PG=C01 [X(C16H2F27N3O6)]\\@

 Writing a WFN file to "A1400116032/A1400116032_p1.wfn"


 THOSE WITH THE GOLD MAKE THE RULES.

             -- PETER'S GOLDEN RULE
 Job cpu time:       0 days  3 hours 34 minutes 36.0 seconds.
 File lengths (MBytes):  RWF=    912 Int=      0 D2E=      0 Chk=     31 Scr=      1
 Normal termination of Gaussian 09 at Sun Mar  3 17:48:51 2024.
