 Entering Gaussian System, Link 0=g09
 Initial command:
 /home/k0335/k033513/app/g09/l1.exe "/home/k0335/k033513/app/g09/scratch/Gau-576537.inp" -scrdir="/home/k0335/k033513/app/g09/scratch/"
 Default is to use a total of  36 processors:
                               36 via shared-memory
                                1 via Linda
 Entering Link 1 = /home/k0335/k033513/app/g09/l1.exe PID=    576538.
  
 Copyright (c) 1988,1990,1992,1993,1995,1998,2003,2009,2013,
            Gaussian, Inc.  All Rights Reserved.
  
 This is part of the Gaussian(R) 09 program.  It is based on
 the Gaussian(R) 03 system (copyright 2003, Gaussian, Inc.),
 the Gaussian(R) 98 system (copyright 1998, Gaussian, Inc.),
 the Gaussian(R) 94 system (copyright 1995, Gaussian, Inc.),
 the Gaussian 92(TM) system (copyright 1992, Gaussian, Inc.),
 the Gaussian 90(TM) system (copyright 1990, Gaussian, Inc.),
 the Gaussian 88(TM) system (copyright 1988, Gaussian, Inc.),
 the Gaussian 86(TM) system (copyright 1986, Carnegie Mellon
 University), and the Gaussian 82(TM) system (copyright 1983,
 Carnegie Mellon University). Gaussian is a federally registered
 trademark of Gaussian, Inc.
  
 This software contains proprietary and confidential information,
 including trade secrets, belonging to Gaussian, Inc.
  
 This software is provided under written license and may be
 used, copied, transmitted, or stored only in accord with that
 written license.
  
 The following legend is applicable only to US Government
 contracts under FAR:
  
                    RESTRICTED RIGHTS LEGEND
  
 Use, reproduction and disclosure by the US Government is
 subject to restrictions as set forth in subparagraphs (a)
 and (c) of the Commercial Computer Software - Restricted
 Rights clause in FAR 52.227-19.
  
 Gaussian, Inc.
 340 Quinnipiac St., Bldg. 40, Wallingford CT 06492
  
  
 ---------------------------------------------------------------
 Warning -- This program may not be used in any manner that
 competes with the business of Gaussian, Inc. or will provide
 assistance to any competitor of Gaussian, Inc.  The licensee
 of this program is prohibited from giving any competitor of
 Gaussian, Inc. access to this program.  By using this program,
 the user acknowledges that Gaussian, Inc. is engaged in the
 business of creating and licensing software in the field of
 computational chemistry and represents and warrants to the
 licensee that it is not a competitor of Gaussian, Inc. and that
 it will not use this program in any manner prohibited above.
 ---------------------------------------------------------------
  

 Cite this work as:
 Gaussian 09, Revision D.01,
 M. J. Frisch, G. W. Trucks, H. B. Schlegel, G. E. Scuseria, 
 M. A. Robb, J. R. Cheeseman, G. Scalmani, V. Barone, B. Mennucci, 
 G. A. Petersson, H. Nakatsuji, M. Caricato, X. Li, H. P. Hratchian, 
 A. F. Izmaylov, J. Bloino, G. Zheng, J. L. Sonnenberg, M. Hada, 
 M. Ehara, K. Toyota, R. Fukuda, J. Hasegawa, M. Ishida, T. Nakajima, 
 Y. Honda, O. Kitao, H. Nakai, T. Vreven, J. A. Montgomery, Jr., 
 J. E. Peralta, F. Ogliaro, M. Bearpark, J. J. Heyd, E. Brothers, 
 K. N. Kudin, V. N. Staroverov, T. Keith, R. Kobayashi, J. Normand, 
 K. Raghavachari, A. Rendell, J. C. Burant, S. S. Iyengar, J. Tomasi, 
 M. Cossi, N. Rega, J. M. Millam, M. Klene, J. E. Knox, J. B. Cross, 
 V. Bakken, C. Adamo, J. Jaramillo, R. Gomperts, R. E. Stratmann, 
 O. Yazyev, A. J. Austin, R. Cammi, C. Pomelli, J. W. Ochterski, 
 R. L. Martin, K. Morokuma, V. G. Zakrzewski, G. A. Voth, 
 P. Salvador, J. J. Dannenberg, S. Dapprich, A. D. Daniels, 
 O. Farkas, J. B. Foresman, J. V. Ortiz, J. Cioslowski, 
 and D. J. Fox, Gaussian, Inc., Wallingford CT, 2013.
 
 ******************************************
 Gaussian 09:  ES64L-G09RevD.01 24-Apr-2013
                 3-Mar-2024 
 ******************************************
 %nprocshared=24
 Will use up to   24 processors via shared memory.
 %mem=40GB
 %rwf=A891690740/A891690740_0.rwf
 %nosave
 %chk=A891690740/A891690740_0.chk
 ----------------------------------------------------------------------
 #p CAM-B3LYP/6-31G(d,p) SCRF=(PCM,Solvent=Generic,Read) NoSymm out=wfn
 ----------------------------------------------------------------------
 1/38=1,40=2/1;
 2/12=2,15=1,17=6,18=5,40=1/2;
 3/5=1,6=6,7=101,11=2,16=1,25=1,30=1,70=2203,72=-2,74=-40/1,2,3;
 4//1;
 5/5=2,38=5/2;
 6/7=2,8=2,9=2,10=2,28=1/1;
 99/5=1,6=100,9=1/99;
 Leave Link    1 at Sun Mar  3 18:02:38 2024, MaxMem=  5368709120 cpu:         1.1
 (Enter /home/k0335/k033513/app/g09/l101.exe)
 ------------------
 Title A891690740_0
 ------------------
 Symbolic Z-matrix:
 Charge =  0 Multiplicity = 1
 C                     5.31618  -1.82765   1.02957 
 C                     4.41463  -2.55032   0.04072 
 C                     3.29871  -1.66921  -0.52273 
 C                     2.27911  -1.23251   0.53419 
 N                     1.17752  -0.47901  -0.06862 
 C                     1.31198   0.8898   -0.18349 
 O                     2.33635   1.47904   0.1642 
 N                     0.2159    1.55944  -0.68683 
 C                     0.23772   3.02209  -0.68068 
 C                    -0.22251   3.58962   0.66447 
 C                    -0.20383   5.10928   0.66208 
 C                    -0.9502    0.92185  -1.05706 
 O                    -1.99275   1.54976  -1.24202 
 N                    -0.88139  -0.44271  -1.17966 
 C                    -2.07883  -1.14722  -1.61153 
 F                    -2.68768  -0.42107  -2.59491 
 F                    -1.70198  -2.28786  -2.25925 
 C                    -3.09858  -1.47603  -0.48958 
 F                    -2.53634  -2.35934   0.38693 
 O                    -3.36328  -0.29972   0.28334 
 C                    -4.44854  -0.44226   1.15975 
 F                    -4.3959   -1.61505   1.80939 
 F                    -4.40037   0.55455   2.06307 
 F                    -5.59555  -0.34427   0.46942 
 C                    -4.28751  -2.13551  -1.20272 
 F                    -3.92665  -3.18784  -1.96875 
 F                    -5.1956   -2.61148  -0.31567 
 F                    -4.94722  -1.26374  -1.99814 
 C                     0.08461  -1.17646  -0.5411 
 O                    -0.01946  -2.39161  -0.37821 
 H                     6.14874  -2.47589   1.32142 
 H                     5.73427  -0.91756   0.58797 
 H                     4.77541  -1.55424   1.94024 
 H                     3.98427  -3.43748   0.51961 
 H                     5.02955  -2.90776  -0.79387 
 H                     3.73385  -0.78722  -1.00867 
 H                     2.78277  -2.23009  -1.31224 
 H                     2.76135  -0.60965   1.29535 
 H                     1.87917  -2.11258   1.05108 
 H                    -0.40885   3.39524  -1.48406 
 H                     1.2539    3.36884  -0.90313 
 H                     0.4249    3.22165   1.46909 
 H                    -1.23647   3.24101   0.89314 
 H                    -0.87155   5.50841  -0.10808 
 H                     0.8054    5.48873   0.47301 
 H                    -0.53529   5.49403   1.6316 
 
 NAtoms=     46 NQM=       46 NQMF=       0 NMMI=      0 NMMIF=      0
                NMic=       0 NMicF=      0.
                    Isotopes and Nuclear Properties:
 (Nuclear quadrupole moments (NQMom) in fm**2, nuclear magnetic moments (NMagM)
  in nuclear magnetons)

  Atom         1           2           3           4           5           6           7           8           9          10
 IAtWgt=          12          12          12          12          14          12          16          14          12          12
 AtmWgt=  12.0000000  12.0000000  12.0000000  12.0000000  14.0030740  12.0000000  15.9949146  14.0030740  12.0000000  12.0000000
 NucSpn=           0           0           0           0           2           0           0           2           0           0
 AtZEff=   0.0000000   0.0000000   0.0000000   0.0000000   0.0000000   0.0000000   0.0000000   0.0000000   0.0000000   0.0000000
 NQMom=    0.0000000   0.0000000   0.0000000   0.0000000   2.0440000   0.0000000   0.0000000   2.0440000   0.0000000   0.0000000
 NMagM=    0.0000000   0.0000000   0.0000000   0.0000000   0.4037610   0.0000000   0.0000000   0.4037610   0.0000000   0.0000000
 AtZNuc=   6.0000000   6.0000000   6.0000000   6.0000000   7.0000000   6.0000000   8.0000000   7.0000000   6.0000000   6.0000000

  Atom        11          12          13          14          15          16          17          18          19          20
 IAtWgt=          12          12          16          14          12          19          19          12          19          16
 AtmWgt=  12.0000000  12.0000000  15.9949146  14.0030740  12.0000000  18.9984033  18.9984033  12.0000000  18.9984033  15.9949146
 NucSpn=           0           0           0           2           0           1           1           0           1           0
 AtZEff=   0.0000000   0.0000000   0.0000000   0.0000000   0.0000000   0.0000000   0.0000000   0.0000000   0.0000000   0.0000000
 NQMom=    0.0000000   0.0000000   0.0000000   2.0440000   0.0000000   0.0000000   0.0000000   0.0000000   0.0000000   0.0000000
 NMagM=    0.0000000   0.0000000   0.0000000   0.4037610   0.0000000   2.6288670   2.6288670   0.0000000   2.6288670   0.0000000
 AtZNuc=   6.0000000   6.0000000   8.0000000   7.0000000   6.0000000   9.0000000   9.0000000   6.0000000   9.0000000   8.0000000

  Atom        21          22          23          24          25          26          27          28          29          30
 IAtWgt=          12          19          19          19          12          19          19          19          12          16
 AtmWgt=  12.0000000  18.9984033  18.9984033  18.9984033  12.0000000  18.9984033  18.9984033  18.9984033  12.0000000  15.9949146
 NucSpn=           0           1           1           1           0           1           1           1           0           0
 AtZEff=   0.0000000   0.0000000   0.0000000   0.0000000   0.0000000   0.0000000   0.0000000   0.0000000   0.0000000   0.0000000
 NQMom=    0.0000000   0.0000000   0.0000000   0.0000000   0.0000000   0.0000000   0.0000000   0.0000000   0.0000000   0.0000000
 NMagM=    0.0000000   2.6288670   2.6288670   2.6288670   0.0000000   2.6288670   2.6288670   2.6288670   0.0000000   0.0000000
 AtZNuc=   6.0000000   9.0000000   9.0000000   9.0000000   6.0000000   9.0000000   9.0000000   9.0000000   6.0000000   8.0000000

  Atom        31          32          33          34          35          36          37          38          39          40
 IAtWgt=           1           1           1           1           1           1           1           1           1           1
 AtmWgt=   1.0078250   1.0078250   1.0078250   1.0078250   1.0078250   1.0078250   1.0078250   1.0078250   1.0078250   1.0078250
 NucSpn=           1           1           1           1           1           1           1           1           1           1
 AtZEff=   0.0000000   0.0000000   0.0000000   0.0000000   0.0000000   0.0000000   0.0000000   0.0000000   0.0000000   0.0000000
 NQMom=    0.0000000   0.0000000   0.0000000   0.0000000   0.0000000   0.0000000   0.0000000   0.0000000   0.0000000   0.0000000
 NMagM=    2.7928460   2.7928460   2.7928460   2.7928460   2.7928460   2.7928460   2.7928460   2.7928460   2.7928460   2.7928460
 AtZNuc=   1.0000000   1.0000000   1.0000000   1.0000000   1.0000000   1.0000000   1.0000000   1.0000000   1.0000000   1.0000000

  Atom        41          42          43          44          45          46
 IAtWgt=           1           1           1           1           1           1
 AtmWgt=   1.0078250   1.0078250   1.0078250   1.0078250   1.0078250   1.0078250
 NucSpn=           1           1           1           1           1           1
 AtZEff=   0.0000000   0.0000000   0.0000000   0.0000000   0.0000000   0.0000000
 NQMom=    0.0000000   0.0000000   0.0000000   0.0000000   0.0000000   0.0000000
 NMagM=    2.7928460   2.7928460   2.7928460   2.7928460   2.7928460   2.7928460
 AtZNuc=   1.0000000   1.0000000   1.0000000   1.0000000   1.0000000   1.0000000
 Leave Link  101 at Sun Mar  3 18:02:38 2024, MaxMem=  5368709120 cpu:         1.0
 (Enter /home/k0335/k033513/app/g09/l202.exe)
                          Input orientation:                          
 ---------------------------------------------------------------------
 Center     Atomic      Atomic             Coordinates (Angstroms)
 Number     Number       Type             X           Y           Z
 ---------------------------------------------------------------------
      1          6           0        5.316184   -1.827646    1.029571
      2          6           0        4.414631   -2.550324    0.040722
      3          6           0        3.298709   -1.669205   -0.522727
      4          6           0        2.279113   -1.232511    0.534194
      5          7           0        1.177521   -0.479013   -0.068616
      6          6           0        1.311982    0.889801   -0.183492
      7          8           0        2.336352    1.479040    0.164201
      8          7           0        0.215900    1.559439   -0.686831
      9          6           0        0.237720    3.022094   -0.680682
     10          6           0       -0.222512    3.589622    0.664468
     11          6           0       -0.203832    5.109275    0.662079
     12          6           0       -0.950204    0.921850   -1.057063
     13          8           0       -1.992745    1.549756   -1.242016
     14          7           0       -0.881390   -0.442705   -1.179663
     15          6           0       -2.078827   -1.147218   -1.611532
     16          9           0       -2.687676   -0.421072   -2.594909
     17          9           0       -1.701978   -2.287864   -2.259249
     18          6           0       -3.098579   -1.476031   -0.489579
     19          9           0       -2.536337   -2.359344    0.386934
     20          8           0       -3.363282   -0.299715    0.283344
     21          6           0       -4.448538   -0.442263    1.159751
     22          9           0       -4.395895   -1.615045    1.809393
     23          9           0       -4.400368    0.554546    2.063073
     24          9           0       -5.595552   -0.344269    0.469423
     25          6           0       -4.287509   -2.135510   -1.202721
     26          9           0       -3.926646   -3.187837   -1.968745
     27          9           0       -5.195603   -2.611475   -0.315669
     28          9           0       -4.947217   -1.263738   -1.998140
     29          6           0        0.084613   -1.176455   -0.541100
     30          8           0       -0.019455   -2.391610   -0.378206
     31          1           0        6.148737   -2.475886    1.321421
     32          1           0        5.734270   -0.917563    0.587969
     33          1           0        4.775411   -1.554241    1.940235
     34          1           0        3.984268   -3.437479    0.519612
     35          1           0        5.029554   -2.907763   -0.793871
     36          1           0        3.733853   -0.787217   -1.008671
     37          1           0        2.782765   -2.230095   -1.312237
     38          1           0        2.761348   -0.609648    1.295353
     39          1           0        1.879173   -2.112584    1.051081
     40          1           0       -0.408849    3.395241   -1.484063
     41          1           0        1.253902    3.368841   -0.903133
     42          1           0        0.424896    3.221646    1.469094
     43          1           0       -1.236469    3.241011    0.893144
     44          1           0       -0.871547    5.508406   -0.108076
     45          1           0        0.805403    5.488728    0.473011
     46          1           0       -0.535293    5.494031    1.631600
 ---------------------------------------------------------------------
                    Distance matrix (angstroms):
                    1          2          3          4          5
     1  C    0.000000
     2  C    1.520817   0.000000
     3  C    2.550478   1.529421   0.000000
     4  C    3.134228   2.557456   1.532110   0.000000
     5  N    4.489249   3.844628   2.474310   1.464460   0.000000
     6  C    4.988955   4.638013   3.257403   2.440210   1.380191
     7  O    4.534582   4.535445   3.362952   2.737276   2.287152
     8  N    6.358559   5.920205   4.467078   3.680045   2.337133
     9  C    7.227430   7.001346   5.603828   4.872871   3.676357
    10  C    7.756110   7.719527   6.439231   5.433973   4.364779
    11  C    8.872795   8.965810   7.721357   6.811727   5.802673
    12  C    7.154117   6.484025   5.005232   4.195457   2.732519
    13  O    8.365847   7.714307   6.235268   5.398583   3.942507
    14  N    6.723742   5.829171   4.405575   3.681016   2.339841
    15  C    7.881916   6.845703   5.511430   4.858298   3.664818
    16  F    8.898150   7.869119   6.456669   5.926104   4.617928
    17  F    7.764196   6.540004   5.329645   4.976563   4.045038
    18  C    8.558019   7.608130   6.400290   5.479688   4.410928
    19  F    7.896694   6.962205   5.945716   4.947726   4.187590
    20  O    8.844465   8.100620   6.848896   5.724479   4.557951
    21  C    9.863368   9.178884   8.022216   6.802728   5.758713
    22  F    9.745655   9.034839   8.040438   6.806482   5.990029
    23  F   10.057552   9.562130   8.420642   7.081420   6.060131
    24  F   11.026339  10.259348   9.046972   7.924867   6.795746
    25  C    9.864524   8.800310   7.630894   6.852212   5.822090
    26  F    9.811724   8.603562   7.523494   6.971330   6.082823
    27  F   10.626463   9.617034   8.548923   7.648215   6.724964
    28  F   10.715523   9.667288   8.386688   7.657254   6.469256
    29  C    5.500945   4.579857   3.251700   2.444428   1.379897
    30  O    5.546975   4.456659   3.398966   2.731190   2.277416
    31  H    1.094777   2.157048   3.489165   4.140012   5.534681
    32  H    1.094559   2.169524   2.780390   3.469898   4.624650
    33  H    1.093844   2.174970   2.874030   2.883048   4.258686
    34  H    2.150726   1.096171   2.164083   2.787409   4.120238
    35  H    2.138633   1.096558   2.145546   3.483554   4.611180
    36  H    2.782210   2.161766   1.096993   2.166792   2.741081
    37  H    3.473362   2.143836   1.097325   2.158274   2.681360
    38  H    2.842771   2.841420   2.171827   1.095387   2.094274
    39  H    3.448869   2.764234   2.165303   1.096199   2.101093
    40  H    8.146957   7.806451   6.349706   5.719667   4.419265
    41  H    6.873206   6.776251   5.450491   4.928428   3.938049
    42  H    7.043666   7.160577   6.012202   4.914435   4.077484
    43  H    8.285358   8.136407   6.832478   5.700926   4.537721
    44  H    9.664363   9.638929   8.311502   7.468543   6.328461
    45  H    8.613143   8.822684   7.644872   6.881179   6.003812
    46  H    9.391974   9.578324   8.405513   7.373707   6.442183
                    6          7          8          9         10
     6  C    0.000000
     7  O    1.231839   0.000000
     8  N    1.379551   2.286271   0.000000
     9  C    2.438834   2.738448   1.462831   0.000000
    10  C    3.219121   3.354491   2.477874   1.530794   0.000000
    11  C    4.562526   4.458590   3.820611   2.520774   1.519770
    12  C    2.425209   3.550126   1.379634   2.442100   3.257332
    13  O    3.532313   4.552310   2.277375   2.730906   3.305973
    14  N    2.752964   3.981575   2.335703   3.675081   4.482700
    15  C    4.205512   5.435464   3.666993   4.859633   5.573485
    16  F    4.850833   6.038540   3.999242   4.906893   5.725927
    17  F    4.846677   6.030820   4.577390   5.869408   6.729174
    18  C    5.014369   6.220800   4.498751   5.603618   5.938386
    19  F    5.068717   6.206924   4.907610   6.147770   6.389132
    20  O    4.846749   5.971934   4.148281   4.993093   5.013645
    21  C    6.063191   7.121605   5.401264   6.111463   5.861800
    22  F    6.544135   7.589675   6.130019   7.012412   6.768791
    23  F    6.147389   7.060014   5.466417   5.926959   5.349978
    24  F    7.047216   8.144490   6.223665   6.832438   6.662064
    25  C    6.445590   7.668701   5.848032   6.881214   7.265517
    26  F    6.874408   8.096564   6.429667   7.587114   8.160170
    27  F    7.390877   8.584459   6.842415   7.835262   8.009114
    28  F    6.863545   8.077681   6.028900   6.854752   7.277872
    29  C    2.429760   3.552384   2.742916   4.203658   4.925770
    30  O    3.546589   4.563547   3.970067   5.428243   6.074828
    31  H    6.081678   5.613811   7.450871   8.317230   8.821269
    32  H    4.839251   4.179609   6.181671   6.880584   7.470195
    33  H    4.741192   4.278329   6.114378   6.957204   7.284651
    34  H    5.134279   5.197509   6.373797   7.563294   8.191345
    35  H    5.349243   5.235960   6.567999   7.624807   8.480976
    36  H    3.059211   2.909391   4.241034   5.180866   6.132613
    37  H    3.629190   4.017068   4.619578   5.870401   6.841649
    38  H    2.556559   2.413036   3.887582   4.843858   5.189923
    39  H    3.295481   3.727644   4.389826   5.662004   6.089475
    40  H    3.306051   3.731585   2.096678   1.096682   2.165339
    41  H    2.582033   2.425335   2.097182   1.096514   2.164698
    42  H    2.992568   2.897082   2.730316   2.167116   1.096342
    43  H    3.630694   4.049809   2.726423   2.167507   1.096326
    44  H    5.109305   5.157571   4.136646   2.782103   2.167903
    45  H    4.673088   4.303111   4.139089   2.781646   2.167918
    46  H    5.282605   5.149734   4.628221   3.471984   2.158692
                   11         12         13         14         15
    11  C    0.000000
    12  C    4.587706   0.000000
    13  O    4.415423   1.231002   0.000000
    14  N    5.888597   1.371779   2.282301   0.000000
    15  C    6.915824   2.421212   2.723531   1.454890   0.000000
    16  F    6.882019   2.680899   2.489460   2.294789   1.365656
    17  F    8.092976   3.508943   3.980783   2.289865   1.364780
    18  C    7.285062   3.269157   3.308235   2.541634   1.551383
    19  F    7.829212   3.920099   4.269664   2.977680   2.381687
    20  O    6.275567   3.018585   2.761456   2.884549   2.441033
    21  C    7.006053   4.360437   3.970837   4.265841   3.713826
    22  F    8.006635   5.150261   5.010209   4.760313   4.158172
    23  F    6.349744   4.666240   4.208409   4.888052   4.667791
    24  F    7.671304   5.050988   4.415492   4.995248   4.164427
    25  C    8.522958   4.528385   4.341506   3.803652   2.454002
    26  F    9.466924   5.155570   5.168452   4.175163   2.775997
    27  F    9.245742   5.572922   5.332191   4.905352   3.679348
    28  F    8.378052   4.651724   4.149262   4.227878   2.896671
    29  C    6.406344   2.395819   3.498418   1.370881   2.413949
    30  O    7.574923   3.508013   4.491593   2.276729   2.703815
    31  H    9.915873   8.221725   9.437199   7.733817   8.835179
    32  H    8.461047   7.125431   8.315243   6.864180   8.120039
    33  H    8.415996   6.920801   8.097497   6.555049   7.730543
    34  H    9.518796   6.770426   7.981261   5.960775   6.822623
    35  H    9.684060   7.105822   8.329645   6.415965   7.368661
    36  H    7.284599   4.986346   6.189492   4.631241   5.854937
    37  H    8.166029   4.892334   6.090788   4.079016   4.989717
    38  H    6.472975   4.653490   5.805400   4.407166   5.671530
    39  H    7.526319   4.653755   5.801963   3.922426   4.866950
    40  H    2.754246   2.567695   2.443998   3.878890   4.841385
    41  H    2.757533   3.296899   3.736928   4.377650   5.657181
    42  H    2.147025   3.682585   3.998790   4.706354   5.903038
    43  H    2.147124   3.043643   2.826872   4.241742   5.122453
    44  H    1.094663   4.684363   4.267765   6.046827   6.929303
    45  H    1.094663   5.126369   5.127031   6.384238   7.529932
    46  H    1.094475   5.320329   5.093048   6.577828   7.550271
                   16         17         18         19         20
    16  F    0.000000
    17  F    2.137564   0.000000
    18  C    2.390438   2.396101   0.000000
    19  F    3.559661   2.775527   1.365516   0.000000
    20  O    2.958971   3.630075   1.432200   2.221855   0.000000
    21  C    4.147114   4.758087   2.368830   2.815841   1.402209
    22  F    4.872521   4.925822   2.643412   2.456690   2.263892
    23  F    5.057859   5.834644   3.511970   3.843801   2.229965
    24  F    4.225136   5.136451   2.904384   3.664168   2.240455
    25  C    2.727077   2.797219   1.535265   2.375649   2.536282
    26  F    3.095499   2.417332   2.409130   2.858073   3.705473
    27  F    4.035158   4.010940   2.391022   2.762049   3.010058
    28  F    2.484300   3.413003   2.395472   3.563885   2.939959
    29  C    3.531901   2.716463   3.197673   3.021565   3.651898
    30  O    3.989511   2.525860   3.214295   2.630813   3.999356
    31  H    9.881402   8.630775   9.475879   8.735981   9.812840
    32  H    9.017006   8.079738   8.915841   8.397743   9.123595
    33  H    8.806206   7.754382   8.240742   7.518151   8.399848
    34  H    7.956996   6.432502   7.418387   6.610467   7.992989
    35  H    8.305601   6.917017   8.258874   7.677094   8.854491
    36  H    6.624670   5.776170   6.886657   6.613212   7.230234
    37  H    5.902841   4.584004   5.986283   5.585404   6.636727
    38  H    6.697877   5.947511   6.186707   5.652621   6.215409
    39  H    6.083631   4.879923   5.249462   4.471992   5.599933
    40  H    4.581624   5.879692   5.652693   6.414209   5.050258
    41  H    5.723774   6.524921   6.525941   6.988726   6.015349
    42  H    6.282803   6.984185   6.190270   6.409947   5.306249
    43  H    5.261499   6.381437   5.256411   5.771471   4.175156
    44  H    6.681420   8.130128   7.340816   8.057174   6.332158
    45  H    7.519273   8.615543   8.042109   8.530350   7.135824
    46  H    7.581858   8.778254   7.723445   8.199321   6.586563
                   21         22         23         24         25
    21  C    0.000000
    22  F    1.341724   0.000000
    23  F    1.346083   2.184376   0.000000
    24  F    1.342310   2.202174   2.185418   0.000000
    25  C    2.911063   3.058670   4.232558   2.777694   0.000000
    26  F    4.195001   4.119247   5.521358   4.100706   1.350706
    27  F    2.727719   2.479575   4.039121   2.432396   1.355743
    28  F    3.300875   3.863247   4.483152   2.711942   1.351996
    29  C    4.897080   5.078595   5.467462   5.829062   4.524708
    30  O    5.077602   4.953975   5.816535   6.000245   4.354503
    31  H   10.791849  10.590960  11.000781  11.966537  10.742550
    32  H   10.209918  10.227346  10.346687  11.344937  10.253098
    33  H    9.323459   9.172441   9.415784  10.544392   9.610024
    34  H    8.971807   8.672481   9.413854  10.066947   8.548909
    35  H    9.986469   9.863427  10.443809  11.002740   9.357948
    36  H    8.471869   8.644049   8.797812   9.456149   8.136203
    37  H    7.848491   7.852135   8.410966   8.770795   7.071755
    38  H    7.213103   7.245770   7.296226   8.401807   7.632497
    39  H    6.545358   6.340273   6.897126   7.703037   6.565677
    40  H    6.167275   7.200441   6.048466   6.685950   6.761092
    41  H    7.162250   8.007317   6.977779   7.911139   7.816321
    42  H    6.104939   6.837354   5.545215   7.068301   7.618693
    43  H    4.894382   5.865387   4.312318   5.659980   6.527517
    44  H    7.057812   8.175651   6.458111   7.543443   8.443725
    45  H    7.953123   8.905224   7.346734   8.660028   9.320667
    46  H    7.125708   8.091651   6.286771   7.812978   8.962276
                   26         27         28         29         30
    26  F    0.000000
    27  F    2.162199   0.000000
    28  F    2.178207   2.169977   0.000000
    29  C    4.708931   5.476384   5.239265   0.000000
    30  O    4.293010   5.181193   5.308401   1.230433   0.000000
    31  H   10.622872  11.462657  11.645127   6.475423   6.398627
    32  H   10.248133  11.097208  10.995543   5.767187   6.017612
    33  H    9.678562  10.277547  10.494031   5.320088   5.391391
    34  H    8.296795   9.254729   9.530774   4.630837   4.234350
    35  H    9.037272  10.240620  10.182782   5.245356   5.092316
    36  H    8.085046   9.140205   8.750263   3.699606   4.130240
    37  H    6.809146   8.049407   7.820290   2.997471   2.958198
    38  H    7.875954   8.361565   8.408145   3.295260   3.702574
    39  H    6.631972   7.222836   7.524486   2.575233   2.392803
    40  H    7.479755   7.769092   6.524350   4.693942   5.904421
    41  H    8.423992   8.815067   7.817526   4.707231   5.922819
    42  H    8.475620   8.294618   7.810248   4.847676   5.926096
    43  H    7.533761   7.168512   6.513213   4.828697   5.901176
    44  H    9.403210   9.201795   8.126830   6.766766   7.950427
    45  H   10.180238  10.111745   9.208421   6.780311   7.968983
    46  H    9.991926   9.550370   8.849154   7.042747   8.154063
                   31         32         33         34         35
    31  H    0.000000
    32  H    1.771470   0.000000
    33  H    1.765895   1.775779   0.000000
    34  H    2.500497   3.068739   2.488104   0.000000
    35  H    2.431779   2.523292   3.061363   1.760244   0.000000
    36  H    3.756674   2.562795   3.220127   3.069568   2.494333
    37  H    4.280927   3.747653   3.873757   2.501411   2.403331
    38  H    3.867548   3.071395   2.316156   3.177095   3.845900
    39  H    4.293512   4.062551   3.080671   2.543468   3.736450
    40  H    9.238117   7.786624   7.943535   8.366615   8.353469
    41  H    7.941592   6.377330   6.687489   7.470281   7.325520
    42  H    8.077502   6.789616   6.477503   7.610164   7.993344
    43  H    9.349203   8.122689   7.761027   8.485155   8.939602
    44  H   10.727384   9.241990   9.271715  10.198127  10.301709
    45  H    9.628400   8.083781   8.216880   9.475470   9.484171
    46  H   10.406346   9.028019   8.830457  10.071485  10.365355
                   36         37         38         39         40
    36  H    0.000000
    37  H    1.754599   0.000000
    38  H    2.507154   3.070152   0.000000
    39  H    3.072298   2.532895   1.759749   0.000000
    40  H    5.906008   6.469956   5.815018   6.480597   0.000000
    41  H    4.840879   5.818322   4.788957   5.852857   1.761510
    42  H    5.758428   6.558722   4.490880   5.544697   3.073500
    43  H    6.674400   7.137993   5.565239   6.196221   2.521875
    44  H    7.852111   8.642245   7.252456   8.184717   2.563766
    45  H    7.082280   8.165617   6.456946   7.698512   3.112432
    46  H    8.040567   8.907177   6.945200   8.001702   3.758758
                   41         42         43         44         45
    41  H    0.000000
    42  H    2.517216   0.000000
    43  H    3.073255   1.758473   0.000000
    44  H    3.118876   3.065534   2.505332   0.000000
    45  H    2.566874   2.505320   3.065613   1.774883   0.000000
    46  H    3.760655   2.472267   2.472461   1.771933   1.771954
                   46
    46  H    0.000000
 Symmetry turned off by external request.
 Stoichiometry    C14H16F9N3O4
 Framework group  C1[X(C14H16F9N3O4)]
 Deg. of freedom   132
 Full point group                 C1      NOp   1
 Rotational constants (GHZ):      0.2148956      0.1085490      0.0878334
 Leave Link  202 at Sun Mar  3 18:02:39 2024, MaxMem=  5368709120 cpu:         0.1
 (Enter /home/k0335/k033513/app/g09/l301.exe)
 Standard basis: 6-31G(d,p) (6D, 7F)
 Ernie: Thresh=  0.10000D-02 Tol=  0.10000D-05 Strict=F.
   530 basis functions,   952 primitive gaussians,   530 cartesian basis functions
   117 alpha electrons      117 beta electrons
       nuclear repulsion energy      3654.4235029622 Hartrees.
 IExCor=20419 DFT=T Ex+Corr=CAM-B3LYP ExCW=0 ScaHFX=  1.000000
 ScaDFX=  1.000000  1.000000  1.000000  0.810000 ScalE2=  1.000000  1.000000
 IRadAn=      0 IRanWt=     -1 IRanGd=            0 ICorTp=0 IEmpDi=  4
  HFx wShort=  0.000000 wLong=  0.330000 cFull=  0.190000 cShort=  0.000000 cLong=  0.460000
  DFx wShort=  0.000000 wLong=  0.330000 cFull=  0.190000 cShort=  0.000000 cLong=  0.460000
 NAtoms=   46 NActive=   46 NUniq=   46 SFac= 1.00D+00 NAtFMM=   60 NAOKFM=F Big=F
 Integral buffers will be    131072 words long.
 Raffenetti 2 integral format.
 Two-electron integral symmetry is turned off.
 Using the following non-standard input for PCM:
 eps=4.9
 --- end of non-standard input.
 ------------------------------------------------------------------------------
 Polarizable Continuum Model (PCM)
 =================================
 Model                : PCM (using non-symmetric T matrix).
 Atomic radii         : UFF (Universal Force Field).
 Polarization charges : Total charges.
 Charge compensation  : None.
 Solution method      : On-the-fly selection.
 Cavity type          : Scaled VdW (van der Waals Surface) (Alpha=1.100).
 Cavity algorithm     : GePol (No added spheres)
                        Default sphere list used, NSphG=   46.
                        Lebedev-Laikov grids with approx.  5.0 points / Ang**2.
                        Smoothing algorithm: Karplus/York (Gamma=1.0000).
                        Polarization charges: spherical gaussians, with
                                              point-specific exponents (IZeta= 3).
                        Self-potential: point-specific (ISelfS= 7).
                        Self-field    : sphere-specific E.n sum rule (ISelfD= 2).
 Solvent              : Generic,
                        Eps                           =   4.900000
                        Eps(infinity)                 =   0.000000
                        RSolv                         =   0.000000 Ang.
                        Molar volume                  =   0.000000 cm**3/mol
                        Thermal expansion coefficient =   0.000000 K**-1
                        Absolute temperature          = 298.150000 K
                        Numeral density               =   0.000000 Ang**-3
                        Hydrogen bond acidity         =   0.000000
                        Hydrogen bond basicity        =   0.000000
                        Surface tension at interface  =   0.000000 (cal/mol)*Ang**-2
                        Carbon aromaticity            =   0.000000
                        Electronegative halogenicity  =   0.000000
 ------------------------------------------------------------------------------
 GePol: Number of generator spheres                  =      46
 GePol: Total number of spheres                      =      46
 GePol: Number of exposed spheres                    =      46 (100.00%)
 GePol: Number of points                             =    3443
 GePol: Average weight of points                     =       0.13
 GePol: Minimum weight of points                     =   0.45D-09
 GePol: Maximum weight of points                     =    0.20577
 GePol: Number of points with low weight             =     211
 GePol: Fraction of low-weight points (<1% of avg)   =       6.13%
 GePol: Cavity surface area                          =    435.119 Ang**2
 GePol: Cavity volume                                =    487.265 Ang**3
 Leave Link  301 at Sun Mar  3 18:02:39 2024, MaxMem=  5368709120 cpu:         0.9
 (Enter /home/k0335/k033513/app/g09/l302.exe)
 NPDir=0 NMtPBC=     1 NCelOv=     1 NCel=       1 NClECP=     1 NCelD=      1
         NCelK=      1 NCelE2=     1 NClLst=     1 CellRange=     0.0.
 One-electron integrals computed using PRISM.
 NBasis=   530 RedAO= T EigKep=  1.23D-03  NBF=   530
 NBsUse=   530 1.00D-06 EigRej= -1.00D+00 NBFU=   530
 Precomputing XC quadrature grid using
 IXCGrd= 4 IRadAn=           0 IRanWt=          -1 IRanGd=           0 AccXCQ= 0.00D+00.
 Generated NRdTot=       0 NPtTot=           0 NUsed=           0 NTot=          32
 NSgBfM=   513   513   514   514   515 MxSgAt=    46 MxSgA2=    46.
 Leave Link  302 at Sun Mar  3 18:02:39 2024, MaxMem=  5368709120 cpu:        11.2
 (Enter /home/k0335/k033513/app/g09/l303.exe)
 DipDrv:  MaxL=1.
 Leave Link  303 at Sun Mar  3 18:02:39 2024, MaxMem=  5368709120 cpu:         1.0
 (Enter /home/k0335/k033513/app/g09/l401.exe)
 ExpMin= 1.61D-01 ExpMax= 7.00D+03 ExpMxC= 1.05D+03 IAcc=1 IRadAn=         1 AccDes= 0.00D+00
 Harris functional with IExCor=20419 and IRadAn=       1 diagonalized for initial guess.
 HarFok:  IExCor=20419 AccDes= 0.00D+00 IRadAn=         1 IDoV= 1 UseB2=F ITyADJ=14
 ICtDFT=  3500011 ScaDFX=  1.000000  1.000000  1.000000  1.000000
 FoFCou: FMM=F IPFlag=           0 FMFlag=      100000 FMFlg1=           0
         NFxFlg=           0 DoJE=T BraDBF=F KetDBF=T FulRan=T
         wScrn=  0.000000 ICntrl=     500 IOpCl=  0 I1Cent=   200000004 NGrid=           0
         NMat0=    1 NMatS0=      1 NMatT0=    0 NMatD0=    1 NMtDS0=    0 NMtDT0=    0
 Symmetry not used in FoFCou.
 Harris En= -1844.74901607431    
 JPrj=0 DoOrth=F DoCkMO=F.
 Leave Link  401 at Sun Mar  3 18:02:40 2024, MaxMem=  5368709120 cpu:        12.1
 (Enter /home/k0335/k033513/app/g09/l502.exe)
 Closed shell SCF:
 Using DIIS extrapolation, IDIIS=  1040.
 Two-electron integral symmetry not used.
 IVT=      877242 IEndB=      877242 NGot=  5368709120 MDV=  5368129949
 LenX=  5368129949 LenY=  5367848519
 Requested convergence on RMS density matrix=1.00D-08 within 128 cycles.
 Requested convergence on MAX density matrix=1.00D-06.
 Requested convergence on             energy=1.00D-06.
 No special actions if energy rises.
 Fock matrices will be formed incrementally for  20 cycles.

 Cycle   1  Pass 1  IDiag  1:
 FoFJK:  IHMeth= 1 ICntrl=       0 DoSepK=T KAlg= 0 I1Cent=   0 FoldK=F
 IRaf=         1 NMat=   1 IRICut=       1 DoRegI=T DoRafI=F ISym2E= 0.
 FoFCou: FMM=F IPFlag=           0 FMFlag=      100000 FMFlg1=           0
         NFxFlg=           0 DoJE=T BraDBF=F KetDBF=F FulRan=T
         wScrn=  0.000000 ICntrl=     500 IOpCl=  0 I1Cent=           0 NGrid=           0
         NMat0=    1 NMatS0=      1 NMatT0=    0 NMatD0=    1 NMtDS0=    0 NMtDT0=    0
 Symmetry not used in FoFCou.
 Inv3:  Mode=1 IEnd=    35562747.
 Iteration    1 A*A^-1 deviation from unit magnitude is 5.66D-15 for   3435.
 Iteration    1 A*A^-1 deviation from orthogonality  is 3.70D-15 for   3415    709.
 Iteration    1 A^-1*A deviation from unit magnitude is 6.22D-15 for   3435.
 Iteration    1 A^-1*A deviation from orthogonality  is 7.02D-10 for   3192   3089.
 Iteration    2 A*A^-1 deviation from unit magnitude is 3.55D-15 for    229.
 Iteration    2 A*A^-1 deviation from orthogonality  is 5.92D-15 for   3421    261.
 Iteration    2 A^-1*A deviation from unit magnitude is 9.99D-16 for   2165.
 Iteration    2 A^-1*A deviation from orthogonality  is 7.64D-16 for   3434   3401.
 E= -1905.64309135655    
 DIIS: error= 6.28D-02 at cycle   1 NSaved=   1.
 NSaved= 1 IEnMin= 1 EnMin= -1905.64309135655     IErMin= 1 ErrMin= 6.28D-02
 ErrMax= 6.28D-02  0.00D+00 EMaxC= 1.00D-01 BMatC= 1.58D+00 BMatP= 1.58D+00
 IDIUse=3 WtCom= 3.72D-01 WtEn= 6.28D-01
 Coeff-Com:  0.100D+01
 Coeff-En:   0.100D+01
 Coeff:      0.100D+01
 Gap=     0.466 Goal=   None    Shift=    0.000
 GapD=    0.466 DampG=2.000 DampE=0.500 DampFc=1.0000 IDamp=-1.
 RMSDP=2.97D-03 MaxDP=1.41D-01              OVMax= 1.72D-01

 Cycle   2  Pass 1  IDiag  1:
 RMSU=  2.96D-03    CP:  1.01D+00
 E= -1905.82895697534     Delta-E=       -0.185865618788 Rises=F Damp=F
 DIIS: error= 1.79D-02 at cycle   2 NSaved=   2.
 NSaved= 2 IEnMin= 2 EnMin= -1905.82895697534     IErMin= 2 ErrMin= 1.79D-02
 ErrMax= 1.79D-02  0.00D+00 EMaxC= 1.00D-01 BMatC= 6.38D-01 BMatP= 1.58D+00
 IDIUse=3 WtCom= 8.21D-01 WtEn= 1.79D-01
 Coeff-Com:  0.364D+00 0.636D+00
 Coeff-En:   0.392D+00 0.608D+00
 Coeff:      0.369D+00 0.631D+00
 Gap=     0.437 Goal=   None    Shift=    0.000
 RMSDP=1.71D-03 MaxDP=1.27D-01 DE=-1.86D-01 OVMax= 1.28D-01

 Cycle   3  Pass 1  IDiag  1:
 RMSU=  1.05D-03    CP:  1.00D+00  5.44D-01
 E= -1906.14229556744     Delta-E=       -0.313338592106 Rises=F Damp=F
 DIIS: error= 1.25D-02 at cycle   3 NSaved=   3.
 NSaved= 3 IEnMin= 3 EnMin= -1906.14229556744     IErMin= 3 ErrMin= 1.25D-02
 ErrMax= 1.25D-02  0.00D+00 EMaxC= 1.00D-01 BMatC= 1.84D-01 BMatP= 6.38D-01
 IDIUse=3 WtCom= 8.75D-01 WtEn= 1.25D-01
 Coeff-Com:  0.103D+00 0.357D+00 0.539D+00
 Coeff-En:   0.000D+00 0.225D+00 0.775D+00
 Coeff:      0.904D-01 0.341D+00 0.569D+00
 Gap=     0.376 Goal=   None    Shift=    0.000
 RMSDP=8.00D-04 MaxDP=6.47D-02 DE=-3.13D-01 OVMax= 8.99D-02

 Cycle   4  Pass 1  IDiag  1:
 RMSU=  3.51D-04    CP:  1.00D+00  6.75D-01  4.27D-01
 E= -1906.26378223033     Delta-E=       -0.121486662886 Rises=F Damp=F
 DIIS: error= 4.36D-03 at cycle   4 NSaved=   4.
 NSaved= 4 IEnMin= 4 EnMin= -1906.26378223033     IErMin= 4 ErrMin= 4.36D-03
 ErrMax= 4.36D-03  0.00D+00 EMaxC= 1.00D-01 BMatC= 1.84D-02 BMatP= 1.84D-01
 IDIUse=3 WtCom= 9.56D-01 WtEn= 4.36D-02
 Coeff-Com:  0.662D-02 0.989D-01 0.296D+00 0.599D+00
 Coeff-En:   0.000D+00 0.000D+00 0.475D-01 0.952D+00
 Coeff:      0.633D-02 0.946D-01 0.285D+00 0.614D+00
 Gap=     0.367 Goal=   None    Shift=    0.000
 RMSDP=2.33D-04 MaxDP=1.77D-02 DE=-1.21D-01 OVMax= 1.99D-02

 Cycle   5  Pass 1  IDiag  1:
 RMSU=  9.62D-05    CP:  1.00D+00  6.65D-01  5.87D-01  6.48D-01
 E= -1906.27614365797     Delta-E=       -0.012361427637 Rises=F Damp=F
 DIIS: error= 6.79D-04 at cycle   5 NSaved=   5.
 NSaved= 5 IEnMin= 5 EnMin= -1906.27614365797     IErMin= 5 ErrMin= 6.79D-04
 ErrMax= 6.79D-04  0.00D+00 EMaxC= 1.00D-01 BMatC= 8.74D-04 BMatP= 1.84D-02
 IDIUse=3 WtCom= 9.93D-01 WtEn= 6.79D-03
 Coeff-Com: -0.129D-02 0.292D-01 0.112D+00 0.310D+00 0.551D+00
 Coeff-En:   0.000D+00 0.000D+00 0.000D+00 0.000D+00 0.100D+01
 Coeff:     -0.128D-02 0.290D-01 0.111D+00 0.307D+00 0.554D+00
 Gap=     0.361 Goal=   None    Shift=    0.000
 RMSDP=4.80D-05 MaxDP=2.91D-03 DE=-1.24D-02 OVMax= 3.93D-03

 Cycle   6  Pass 1  IDiag  1:
 RMSU=  2.70D-05    CP:  1.00D+00  6.69D-01  5.78D-01  6.91D-01  6.58D-01
 E= -1906.27677006057     Delta-E=       -0.000626402601 Rises=F Damp=F
 DIIS: error= 1.34D-04 at cycle   6 NSaved=   6.
 NSaved= 6 IEnMin= 6 EnMin= -1906.27677006057     IErMin= 6 ErrMin= 1.34D-04
 ErrMax= 1.34D-04  0.00D+00 EMaxC= 1.00D-01 BMatC= 3.15D-05 BMatP= 8.74D-04
 IDIUse=3 WtCom= 9.99D-01 WtEn= 1.34D-03
 Coeff-Com: -0.879D-03-0.459D-03 0.608D-02 0.371D-01 0.188D+00 0.770D+00
 Coeff-En:   0.000D+00 0.000D+00 0.000D+00 0.000D+00 0.000D+00 0.100D+01
 Coeff:     -0.878D-03-0.459D-03 0.607D-02 0.371D-01 0.188D+00 0.770D+00
 Gap=     0.362 Goal=   None    Shift=    0.000
 RMSDP=1.26D-05 MaxDP=8.33D-04 DE=-6.26D-04 OVMax= 8.84D-04

 Cycle   7  Pass 1  IDiag  1:
 RMSU=  8.75D-06    CP:  1.00D+00  6.69D-01  5.81D-01  7.04D-01  7.24D-01
                    CP:  9.13D-01
 E= -1906.27679367450     Delta-E=       -0.000023613936 Rises=F Damp=F
 DIIS: error= 5.05D-05 at cycle   7 NSaved=   7.
 NSaved= 7 IEnMin= 7 EnMin= -1906.27679367450     IErMin= 7 ErrMin= 5.05D-05
 ErrMax= 5.05D-05  0.00D+00 EMaxC= 1.00D-01 BMatC= 5.05D-06 BMatP= 3.15D-05
 IDIUse=1 WtCom= 1.00D+00 WtEn= 0.00D+00
 Coeff-Com: -0.151D-03-0.322D-02-0.850D-02-0.145D-01 0.336D-01 0.352D+00
 Coeff-Com:  0.641D+00
 Coeff:     -0.151D-03-0.322D-02-0.850D-02-0.145D-01 0.336D-01 0.352D+00
 Coeff:      0.641D+00
 Gap=     0.362 Goal=   None    Shift=    0.000
 RMSDP=4.14D-06 MaxDP=2.20D-04 DE=-2.36D-05 OVMax= 3.30D-04

 Cycle   8  Pass 1  IDiag  1:
 RMSU=  2.40D-06    CP:  1.00D+00  6.69D-01  5.82D-01  7.03D-01  7.40D-01
                    CP:  9.97D-01  7.89D-01
 E= -1906.27679833021     Delta-E=       -0.000004655702 Rises=F Damp=F
 DIIS: error= 7.08D-06 at cycle   8 NSaved=   8.
 NSaved= 8 IEnMin= 8 EnMin= -1906.27679833021     IErMin= 8 ErrMin= 7.08D-06
 ErrMax= 7.08D-06  0.00D+00 EMaxC= 1.00D-01 BMatC= 1.46D-07 BMatP= 5.05D-06
 IDIUse=1 WtCom= 1.00D+00 WtEn= 0.00D+00
 Coeff-Com:  0.114D-04-0.758D-03-0.224D-02-0.624D-02-0.639D-02 0.165D-01
 Coeff-Com:  0.117D+00 0.882D+00
 Coeff:      0.114D-04-0.758D-03-0.224D-02-0.624D-02-0.639D-02 0.165D-01
 Coeff:      0.117D+00 0.882D+00
 Gap=     0.362 Goal=   None    Shift=    0.000
 RMSDP=1.33D-06 MaxDP=1.18D-04 DE=-4.66D-06 OVMax= 1.59D-04

 Cycle   9  Pass 1  IDiag  1:
 RMSU=  7.86D-07    CP:  1.00D+00  6.69D-01  5.82D-01  7.03D-01  7.45D-01
                    CP:  1.01D+00  8.59D-01  1.14D+00
 E= -1906.27679851515     Delta-E=       -0.000000184939 Rises=F Damp=F
 DIIS: error= 5.27D-06 at cycle   9 NSaved=   9.
 NSaved= 9 IEnMin= 9 EnMin= -1906.27679851515     IErMin= 9 ErrMin= 5.27D-06
 ErrMax= 5.27D-06  0.00D+00 EMaxC= 1.00D-01 BMatC= 4.80D-08 BMatP= 1.46D-07
 IDIUse=1 WtCom= 1.00D+00 WtEn= 0.00D+00
 Coeff-Com:  0.216D-04 0.116D-03 0.274D-03-0.794D-03-0.766D-02-0.439D-01
 Coeff-Com: -0.371D-01 0.428D+00 0.661D+00
 Coeff:      0.216D-04 0.116D-03 0.274D-03-0.794D-03-0.766D-02-0.439D-01
 Coeff:     -0.371D-01 0.428D+00 0.661D+00
 Gap=     0.362 Goal=   None    Shift=    0.000
 RMSDP=4.95D-07 MaxDP=3.67D-05 DE=-1.85D-07 OVMax= 6.00D-05

 Cycle  10  Pass 1  IDiag  1:
 RMSU=  2.76D-07    CP:  1.00D+00  6.69D-01  5.82D-01  7.03D-01  7.46D-01
                    CP:  1.02D+00  8.76D-01  1.26D+00  8.85D-01
 E= -1906.27679855820     Delta-E=       -0.000000043049 Rises=F Damp=F
 DIIS: error= 1.47D-06 at cycle  10 NSaved=  10.
 NSaved=10 IEnMin=10 EnMin= -1906.27679855820     IErMin=10 ErrMin= 1.47D-06
 ErrMax= 1.47D-06  0.00D+00 EMaxC= 1.00D-01 BMatC= 2.23D-09 BMatP= 4.80D-08
 IDIUse=1 WtCom= 1.00D+00 WtEn= 0.00D+00
 Coeff-Com:  0.593D-05 0.104D-03 0.309D-03 0.313D-03-0.148D-02-0.146D-01
 Coeff-Com: -0.216D-01 0.498D-01 0.196D+00 0.791D+00
 Coeff:      0.593D-05 0.104D-03 0.309D-03 0.313D-03-0.148D-02-0.146D-01
 Coeff:     -0.216D-01 0.498D-01 0.196D+00 0.791D+00
 Gap=     0.362 Goal=   None    Shift=    0.000
 RMSDP=1.42D-07 MaxDP=1.08D-05 DE=-4.30D-08 OVMax= 1.77D-05

 Cycle  11  Pass 1  IDiag  1:
 RMSU=  8.65D-08    CP:  1.00D+00  6.69D-01  5.82D-01  7.03D-01  7.46D-01
                    CP:  1.02D+00  8.81D-01  1.28D+00  9.62D-01  1.02D+00
 E= -1906.27679856057     Delta-E=       -0.000000002371 Rises=F Damp=F
 DIIS: error= 6.85D-07 at cycle  11 NSaved=  11.
 NSaved=11 IEnMin=11 EnMin= -1906.27679856057     IErMin=11 ErrMin= 6.85D-07
 ErrMax= 6.85D-07  0.00D+00 EMaxC= 1.00D-01 BMatC= 4.82D-10 BMatP= 2.23D-09
 IDIUse=1 WtCom= 1.00D+00 WtEn= 0.00D+00
 Coeff-Com:  0.129D-05 0.398D-04 0.130D-03 0.207D-03 0.386D-04-0.313D-02
 Coeff-Com: -0.712D-02-0.150D-01 0.321D-01 0.367D+00 0.626D+00
 Coeff:      0.129D-05 0.398D-04 0.130D-03 0.207D-03 0.386D-04-0.313D-02
 Coeff:     -0.712D-02-0.150D-01 0.321D-01 0.367D+00 0.626D+00
 Gap=     0.362 Goal=   None    Shift=    0.000
 RMSDP=4.81D-08 MaxDP=4.84D-06 DE=-2.37D-09 OVMax= 4.95D-06

 Cycle  12  Pass 1  IDiag  1:
 RMSU=  2.97D-08    CP:  1.00D+00  6.69D-01  5.82D-01  7.03D-01  7.46D-01
                    CP:  1.02D+00  8.82D-01  1.29D+00  9.76D-01  1.10D+00
                    CP:  8.44D-01
 E= -1906.27679856086     Delta-E=       -0.000000000296 Rises=F Damp=F
 DIIS: error= 3.50D-07 at cycle  12 NSaved=  12.
 NSaved=12 IEnMin=12 EnMin= -1906.27679856086     IErMin=12 ErrMin= 3.50D-07
 ErrMax= 3.50D-07  0.00D+00 EMaxC= 1.00D-01 BMatC= 5.86D-11 BMatP= 4.82D-10
 IDIUse=1 WtCom= 1.00D+00 WtEn= 0.00D+00
 Coeff-Com: -0.298D-06 0.229D-05 0.164D-04 0.451D-04 0.287D-03 0.833D-03
 Coeff-Com:  0.210D-03-0.133D-01-0.155D-01 0.353D-01 0.258D+00 0.734D+00
 Coeff:     -0.298D-06 0.229D-05 0.164D-04 0.451D-04 0.287D-03 0.833D-03
 Coeff:      0.210D-03-0.133D-01-0.155D-01 0.353D-01 0.258D+00 0.734D+00
 Gap=     0.362 Goal=   None    Shift=    0.000
 RMSDP=1.92D-08 MaxDP=1.46D-06 DE=-2.96D-10 OVMax= 2.45D-06

 Cycle  13  Pass 1  IDiag  1:
 RMSU=  1.07D-08    CP:  1.00D+00  6.69D-01  5.82D-01  7.03D-01  7.46D-01
                    CP:  1.02D+00  8.82D-01  1.29D+00  9.85D-01  1.12D+00
                    CP:  9.34D-01  8.77D-01
 E= -1906.27679856094     Delta-E=       -0.000000000075 Rises=F Damp=F
 DIIS: error= 1.28D-07 at cycle  13 NSaved=  13.
 NSaved=13 IEnMin=13 EnMin= -1906.27679856094     IErMin=13 ErrMin= 1.28D-07
 ErrMax= 1.28D-07  0.00D+00 EMaxC= 1.00D-01 BMatC= 8.18D-12 BMatP= 5.86D-11
 IDIUse=1 WtCom= 1.00D+00 WtEn= 0.00D+00
 Coeff-Com: -0.301D-06-0.334D-05-0.509D-05-0.676D-06 0.145D-03 0.750D-03
 Coeff-Com:  0.899D-03-0.476D-02-0.111D-01-0.253D-01 0.501D-01 0.348D+00
 Coeff-Com:  0.641D+00
 Coeff:     -0.301D-06-0.334D-05-0.509D-05-0.676D-06 0.145D-03 0.750D-03
 Coeff:      0.899D-03-0.476D-02-0.111D-01-0.253D-01 0.501D-01 0.348D+00
 Coeff:      0.641D+00
 Gap=     0.362 Goal=   None    Shift=    0.000
 RMSDP=6.15D-09 MaxDP=4.62D-07 DE=-7.55D-11 OVMax= 6.27D-07

 Error on total polarization charges =  0.00626
 SCF Done:  E(RCAM-B3LYP) =  -1906.27679856     A.U. after   13 cycles
            NFock= 13  Conv=0.62D-08     -V/T= 2.0078
 KE= 1.891444955619D+03 PE=-1.179600816172D+04 EE= 4.343862904577D+03
 Leave Link  502 at Sun Mar  3 18:03:22 2024, MaxMem=  5368709120 cpu:       948.2
 (Enter /home/k0335/k033513/app/g09/l601.exe)
 Copying SCF densities to generalized density rwf, IOpCl= 0 IROHF=0.

 **********************************************************************

            Population analysis using the SCF density.

 **********************************************************************

 Alpha  occ. eigenvalues --  -24.83566 -24.83457 -24.83341 -24.83200 -24.82858
 Alpha  occ. eigenvalues --  -24.82579 -24.82535 -24.82459 -24.82368 -19.32856
 Alpha  occ. eigenvalues --  -19.22895 -19.22797 -19.22444 -14.51810 -14.49236
 Alpha  occ. eigenvalues --  -14.49144 -10.59488 -10.55215 -10.52827 -10.48720
 Alpha  occ. eigenvalues --  -10.44693 -10.44667 -10.43604 -10.30842 -10.30773
 Alpha  occ. eigenvalues --  -10.26131 -10.26009 -10.25553 -10.24990 -10.24497
 Alpha  occ. eigenvalues --   -1.43150  -1.41582  -1.38607  -1.35399  -1.33467
 Alpha  occ. eigenvalues --   -1.33213  -1.32577  -1.31983  -1.31137  -1.21425
 Alpha  occ. eigenvalues --   -1.20384  -1.16324  -1.16078  -1.08415  -1.06105
 Alpha  occ. eigenvalues --   -1.04592  -0.93234  -0.89209  -0.87826  -0.84409
 Alpha  occ. eigenvalues --   -0.82484  -0.81764  -0.80481  -0.77626  -0.76844
 Alpha  occ. eigenvalues --   -0.74918  -0.73324  -0.72846  -0.72165  -0.71613
 Alpha  occ. eigenvalues --   -0.70326  -0.69592  -0.68450  -0.68187  -0.67281
 Alpha  occ. eigenvalues --   -0.66417  -0.66215  -0.65393  -0.64194  -0.60527
 Alpha  occ. eigenvalues --   -0.59715  -0.59467  -0.57412  -0.56994  -0.56172
 Alpha  occ. eigenvalues --   -0.55968  -0.55689  -0.55481  -0.54877  -0.54716
 Alpha  occ. eigenvalues --   -0.54611  -0.54331  -0.53681  -0.53296  -0.52883
 Alpha  occ. eigenvalues --   -0.52773  -0.52522  -0.52029  -0.51789  -0.51565
 Alpha  occ. eigenvalues --   -0.50995  -0.50550  -0.50269  -0.49871  -0.49671
 Alpha  occ. eigenvalues --   -0.49333  -0.48797  -0.48616  -0.47888  -0.47843
 Alpha  occ. eigenvalues --   -0.46155  -0.45629  -0.45466  -0.44396  -0.43832
 Alpha  occ. eigenvalues --   -0.43342  -0.41882  -0.40586  -0.39904  -0.39639
 Alpha  occ. eigenvalues --   -0.39296  -0.38708  -0.38346  -0.37383  -0.35446
 Alpha  occ. eigenvalues --   -0.34842  -0.34330
 Alpha virt. eigenvalues --    0.01852   0.02670   0.06062   0.09467   0.12599
 Alpha virt. eigenvalues --    0.13183   0.14492   0.15010   0.16551   0.17509
 Alpha virt. eigenvalues --    0.17843   0.17998   0.18214   0.18748   0.19746
 Alpha virt. eigenvalues --    0.20394   0.20544   0.21031   0.21779   0.21861
 Alpha virt. eigenvalues --    0.22492   0.22790   0.22841   0.23249   0.23776
 Alpha virt. eigenvalues --    0.23924   0.24447   0.25123   0.25338   0.25873
 Alpha virt. eigenvalues --    0.26405   0.27149   0.27777   0.27814   0.28563
 Alpha virt. eigenvalues --    0.28872   0.29553   0.29826   0.30167   0.30704
 Alpha virt. eigenvalues --    0.31199   0.32462   0.33477   0.37194   0.38746
 Alpha virt. eigenvalues --    0.39808   0.40848   0.41364   0.47969   0.48218
 Alpha virt. eigenvalues --    0.49541   0.51202   0.52266   0.52825   0.54241
 Alpha virt. eigenvalues --    0.54571   0.55375   0.55769   0.56524   0.56977
 Alpha virt. eigenvalues --    0.57272   0.57519   0.58545   0.59117   0.59859
 Alpha virt. eigenvalues --    0.60027   0.60301   0.61249   0.61578   0.62271
 Alpha virt. eigenvalues --    0.63789   0.64946   0.66060   0.67120   0.68501
 Alpha virt. eigenvalues --    0.69222   0.69981   0.70553   0.71664   0.72396
 Alpha virt. eigenvalues --    0.72772   0.73347   0.74819   0.75542   0.77037
 Alpha virt. eigenvalues --    0.78437   0.81795   0.82351   0.82902   0.84561
 Alpha virt. eigenvalues --    0.85373   0.86877   0.86995   0.87503   0.87624
 Alpha virt. eigenvalues --    0.88556   0.89515   0.90357   0.91366   0.92601
 Alpha virt. eigenvalues --    0.92902   0.93198   0.93395   0.94337   0.94588
 Alpha virt. eigenvalues --    0.95010   0.95561   0.95842   0.96373   0.97265
 Alpha virt. eigenvalues --    0.98256   0.98686   0.99294   1.00451   1.01075
 Alpha virt. eigenvalues --    1.01398   1.02199   1.02345   1.03360   1.04726
 Alpha virt. eigenvalues --    1.05686   1.06004   1.07286   1.07716   1.08641
 Alpha virt. eigenvalues --    1.09540   1.10283   1.11784   1.12399   1.13039
 Alpha virt. eigenvalues --    1.14213   1.15295   1.16494   1.17391   1.17924
 Alpha virt. eigenvalues --    1.18168   1.19781   1.20746   1.22933   1.23396
 Alpha virt. eigenvalues --    1.24033   1.24304   1.25538   1.26923   1.28727
 Alpha virt. eigenvalues --    1.28837   1.29993   1.30894   1.32711   1.33427
 Alpha virt. eigenvalues --    1.33885   1.34520   1.34622   1.35713   1.36837
 Alpha virt. eigenvalues --    1.37775   1.38973   1.39551   1.40226   1.41181
 Alpha virt. eigenvalues --    1.41733   1.41835   1.43647   1.44457   1.45384
 Alpha virt. eigenvalues --    1.46697   1.47071   1.47421   1.49032   1.49584
 Alpha virt. eigenvalues --    1.50349   1.50752   1.51441   1.53069   1.53477
 Alpha virt. eigenvalues --    1.54227   1.55338   1.55828   1.57004   1.58029
 Alpha virt. eigenvalues --    1.59483   1.60160   1.61693   1.62377   1.64020
 Alpha virt. eigenvalues --    1.64811   1.66333   1.66982   1.68874   1.69052
 Alpha virt. eigenvalues --    1.70854   1.72014   1.72523   1.73685   1.74406
 Alpha virt. eigenvalues --    1.75120   1.76243   1.76884   1.77690   1.78881
 Alpha virt. eigenvalues --    1.79009   1.80238   1.81101   1.81911   1.83132
 Alpha virt. eigenvalues --    1.84017   1.84378   1.85298   1.86076   1.86694
 Alpha virt. eigenvalues --    1.87029   1.87126   1.87981   1.89035   1.89169
 Alpha virt. eigenvalues --    1.90337   1.90420   1.91266   1.91563   1.91879
 Alpha virt. eigenvalues --    1.92145   1.93016   1.93646   1.94066   1.94373
 Alpha virt. eigenvalues --    1.94839   1.95343   1.95789   1.97005   1.97297
 Alpha virt. eigenvalues --    1.97553   1.98249   1.98797   1.99088   2.00200
 Alpha virt. eigenvalues --    2.00600   2.01018   2.01703   2.02304   2.02565
 Alpha virt. eigenvalues --    2.03023   2.03742   2.04027   2.04571   2.05167
 Alpha virt. eigenvalues --    2.05872   2.06557   2.08362   2.08652   2.09210
 Alpha virt. eigenvalues --    2.10786   2.12258   2.12463   2.12768   2.13113
 Alpha virt. eigenvalues --    2.13868   2.14628   2.15146   2.15599   2.16999
 Alpha virt. eigenvalues --    2.17547   2.17788   2.18173   2.18706   2.19120
 Alpha virt. eigenvalues --    2.20020   2.21102   2.21245   2.22074   2.23682
 Alpha virt. eigenvalues --    2.24386   2.24695   2.26452   2.27237   2.27992
 Alpha virt. eigenvalues --    2.28526   2.30545   2.31269   2.32417   2.32625
 Alpha virt. eigenvalues --    2.33374   2.33956   2.34853   2.36108   2.37325
 Alpha virt. eigenvalues --    2.37739   2.38813   2.39215   2.40654   2.41035
 Alpha virt. eigenvalues --    2.41512   2.42851   2.43887   2.45141   2.46457
 Alpha virt. eigenvalues --    2.47358   2.48206   2.49041   2.49181   2.51343
 Alpha virt. eigenvalues --    2.52197   2.55194   2.55475   2.57019   2.58059
 Alpha virt. eigenvalues --    2.58761   2.59865   2.61173   2.62691   2.63682
 Alpha virt. eigenvalues --    2.64844   2.66388   2.67651   2.68448   2.69384
 Alpha virt. eigenvalues --    2.71350   2.72691   2.73184   2.74614   2.75501
 Alpha virt. eigenvalues --    2.77024   2.77116   2.78103   2.79235   2.79926
 Alpha virt. eigenvalues --    2.81007   2.81860   2.82374   2.83955   2.84432
 Alpha virt. eigenvalues --    2.84847   2.86587   2.88468   2.89210   2.90276
 Alpha virt. eigenvalues --    2.91785   2.92089   2.93149   2.94139   2.95235
 Alpha virt. eigenvalues --    2.95665   2.97117   2.97357   2.97933   2.98923
 Alpha virt. eigenvalues --    2.99177   2.99839   2.99988   3.02305   3.03310
 Alpha virt. eigenvalues --    3.04699   3.05380   3.06140   3.06893   3.08318
 Alpha virt. eigenvalues --    3.08851   3.13335   3.16735   3.18525   3.19010
 Alpha virt. eigenvalues --    3.22196   3.23150   3.26389   3.27302   3.29223
 Alpha virt. eigenvalues --    3.30885   3.33413   3.34549   3.35239   3.38504
 Alpha virt. eigenvalues --    3.40286   3.41167   3.41826   3.45328   3.47367
 Alpha virt. eigenvalues --    3.52220   3.54012   3.55552   3.57370   3.57699
 Alpha virt. eigenvalues --    3.61573   3.64455   3.65569   4.07002   4.15314
 Alpha virt. eigenvalues --    4.17808   4.19678   4.27931   4.28734   4.34368
 Alpha virt. eigenvalues --    4.37063   4.39078   4.44869   4.48064   4.48488
 Alpha virt. eigenvalues --    4.52406   4.58134   4.58827   4.67833   4.68950
 Alpha virt. eigenvalues --    4.72849   4.73642   4.79470   4.81862   4.86426
 Alpha virt. eigenvalues --    4.89382   5.08744   5.24948   5.33041   5.43766
 Alpha virt. eigenvalues --    5.67153   6.22414   6.64056
          Condensed to atoms (all electrons):
               1          2          3          4          5          6
     1  C    4.917386   0.372125  -0.051880  -0.004283   0.000090  -0.000037
     2  C    0.372125   4.860305   0.375817  -0.040968   0.003223   0.000015
     3  C   -0.051880   0.375817   4.932034   0.366554  -0.047300  -0.003242
     4  C   -0.004283  -0.040968   0.366554   4.838485   0.244858  -0.023942
     5  N    0.000090   0.003223  -0.047300   0.244858   7.300575   0.257686
     6  C   -0.000037   0.000015  -0.003242  -0.023942   0.257686   4.147346
     7  O   -0.000006   0.000004  -0.002967   0.000200  -0.089472   0.591599
     8  N    0.000000   0.000001  -0.000279   0.003034  -0.098258   0.261883
     9  C    0.000000   0.000000   0.000003  -0.000078   0.003282  -0.023547
    10  C    0.000000   0.000000   0.000000   0.000007  -0.000217  -0.002280
    11  C    0.000000   0.000000   0.000000   0.000000   0.000000  -0.000078
    12  C    0.000000   0.000000   0.000074   0.000295  -0.000455  -0.022595
    13  O    0.000000   0.000000   0.000000   0.000002   0.000108   0.000304
    14  N    0.000000   0.000000  -0.000278   0.002975  -0.095858  -0.000399
    15  C    0.000000   0.000000   0.000001  -0.000041   0.002101   0.000223
    16  F    0.000000   0.000000   0.000000   0.000000  -0.000024   0.000000
    17  F    0.000000   0.000000   0.000000   0.000005   0.000038   0.000001
    18  C    0.000000   0.000000   0.000000   0.000001  -0.000311   0.000046
    19  F    0.000000   0.000000   0.000000   0.000005  -0.000027   0.000003
    20  O    0.000000   0.000000   0.000000   0.000000  -0.000015   0.000028
    21  C    0.000000   0.000000   0.000000   0.000000   0.000000   0.000000
    22  F    0.000000   0.000000   0.000000   0.000000   0.000000   0.000000
    23  F    0.000000   0.000000   0.000000   0.000000   0.000000   0.000000
    24  F    0.000000   0.000000   0.000000   0.000000   0.000000   0.000000
    25  C    0.000000   0.000000   0.000000   0.000000  -0.000001   0.000000
    26  F    0.000000   0.000000   0.000000   0.000000   0.000000   0.000000
    27  F    0.000000   0.000000   0.000000   0.000000   0.000000   0.000000
    28  F    0.000000   0.000000   0.000000   0.000000   0.000000   0.000000
    29  C    0.000010  -0.000101  -0.002294  -0.024437   0.268111  -0.020270
    30  O    0.000000  -0.000079  -0.002138  -0.001372  -0.089546   0.000250
    31  H    0.386111  -0.029549   0.004726   0.000094   0.000000   0.000000
    32  H    0.391280  -0.036725  -0.004766  -0.000866  -0.000015   0.000001
    33  H    0.391855  -0.035945  -0.005423   0.002287  -0.000011  -0.000017
    34  H   -0.040828   0.392600  -0.039232  -0.007332   0.000046   0.000005
    35  H   -0.039274   0.391640  -0.032496   0.004637  -0.000109  -0.000004
    36  H   -0.006789  -0.032278   0.385526  -0.037627  -0.004600   0.003955
    37  H    0.004934  -0.029551   0.385855  -0.038162  -0.006020  -0.000065
    38  H    0.003360  -0.002482  -0.036867   0.386290  -0.033642  -0.003132
    39  H   -0.000692  -0.000950  -0.039452   0.385860  -0.033439   0.004351
    40  H    0.000000   0.000000   0.000000   0.000001  -0.000105   0.004251
    41  H    0.000000   0.000000   0.000000   0.000002   0.000412  -0.004700
    42  H    0.000000   0.000000   0.000000   0.000003  -0.000148   0.004757
    43  H    0.000000   0.000000   0.000000   0.000000   0.000001  -0.000208
    44  H    0.000000   0.000000   0.000000   0.000000   0.000000   0.000010
    45  H    0.000000   0.000000   0.000000   0.000000   0.000000  -0.000026
    46  H    0.000000   0.000000   0.000000   0.000000   0.000000  -0.000003
               7          8          9         10         11         12
     1  C   -0.000006   0.000000   0.000000   0.000000   0.000000   0.000000
     2  C    0.000004   0.000001   0.000000   0.000000   0.000000   0.000000
     3  C   -0.002967  -0.000279   0.000003   0.000000   0.000000   0.000074
     4  C    0.000200   0.003034  -0.000078   0.000007   0.000000   0.000295
     5  N   -0.089472  -0.098258   0.003282  -0.000217   0.000000  -0.000455
     6  C    0.591599   0.261883  -0.023547  -0.002280  -0.000078  -0.022595
     7  O    8.093638  -0.089766   0.000788  -0.003098  -0.000028   0.000432
     8  N   -0.089766   7.298858   0.243646  -0.047798   0.003583   0.265243
     9  C    0.000788   0.243646   4.823845   0.372533  -0.044462  -0.024713
    10  C   -0.003098  -0.047798   0.372533   4.904077   0.367696  -0.003426
    11  C   -0.000028   0.003583  -0.044462   0.367696   4.897703  -0.000030
    12  C    0.000432   0.265243  -0.024713  -0.003426  -0.000030   4.175086
    13  O   -0.000025  -0.091331   0.001606  -0.003062  -0.000031   0.575271
    14  N    0.000022  -0.094785   0.003072  -0.000210   0.000000   0.208922
    15  C    0.000001   0.002081  -0.000020   0.000008   0.000000  -0.007350
    16  F    0.000000   0.000017   0.000008   0.000000   0.000000   0.006559
    17  F    0.000000  -0.000026   0.000000   0.000000   0.000000   0.000543
    18  C    0.000000  -0.000174   0.000002  -0.000001   0.000000  -0.002948
    19  F    0.000000   0.000001   0.000000   0.000000   0.000000  -0.000359
    20  O    0.000000  -0.000255   0.000003  -0.000008   0.000000   0.004566
    21  C    0.000000  -0.000003   0.000000   0.000000   0.000000   0.000098
    22  F    0.000000   0.000000   0.000000   0.000000   0.000000   0.000000
    23  F    0.000000   0.000000   0.000000  -0.000001   0.000000  -0.000013
    24  F    0.000000   0.000000   0.000000   0.000000   0.000000   0.000002
    25  C    0.000000   0.000000   0.000000   0.000000   0.000000   0.000013
    26  F    0.000000   0.000000   0.000000   0.000000   0.000000   0.000002
    27  F    0.000000   0.000000   0.000000   0.000000   0.000000   0.000000
    28  F    0.000000   0.000000   0.000000   0.000000   0.000000   0.000002
    29  C    0.000329  -0.003393   0.000145   0.000004   0.000000  -0.015127
    30  O   -0.000026   0.000110   0.000002   0.000000   0.000000   0.000019
    31  H    0.000000   0.000000   0.000000   0.000000   0.000000   0.000000
    32  H    0.000019   0.000000   0.000000   0.000000   0.000000   0.000000
    33  H   -0.000027   0.000000   0.000000   0.000000   0.000000   0.000000
    34  H   -0.000002   0.000000   0.000000   0.000000   0.000000   0.000000
    35  H    0.000000   0.000000   0.000000   0.000000   0.000000   0.000000
    36  H    0.003681  -0.000031   0.000001   0.000000   0.000000   0.000000
    37  H    0.000049  -0.000006   0.000000   0.000000   0.000000   0.000002
    38  H    0.009602   0.000446   0.000008  -0.000003   0.000000  -0.000052
    39  H    0.000528  -0.000073   0.000001   0.000000   0.000000  -0.000051
    40  H    0.000517  -0.033316   0.386991  -0.038917  -0.001138  -0.003269
    41  H    0.009396  -0.033546   0.386666  -0.038713  -0.001043   0.004592
    42  H    0.003589  -0.005400  -0.036521   0.389790  -0.033398  -0.000080
    43  H    0.000056  -0.005383  -0.036432   0.391123  -0.033126   0.004362
    44  H   -0.000002   0.000056  -0.005253  -0.036757   0.392597  -0.000024
    45  H    0.000009   0.000054  -0.004974  -0.036955   0.392227   0.000010
    46  H    0.000000  -0.000120   0.004122  -0.027349   0.387799  -0.000004
              13         14         15         16         17         18
     1  C    0.000000   0.000000   0.000000   0.000000   0.000000   0.000000
     2  C    0.000000   0.000000   0.000000   0.000000   0.000000   0.000000
     3  C    0.000000  -0.000278   0.000001   0.000000   0.000000   0.000000
     4  C    0.000002   0.002975  -0.000041   0.000000   0.000005   0.000001
     5  N    0.000108  -0.095858   0.002101  -0.000024   0.000038  -0.000311
     6  C    0.000304  -0.000399   0.000223   0.000000   0.000001   0.000046
     7  O   -0.000025   0.000022   0.000001   0.000000   0.000000   0.000000
     8  N   -0.091331  -0.094785   0.002081   0.000017  -0.000026  -0.000174
     9  C    0.001606   0.003072  -0.000020   0.000008   0.000000   0.000002
    10  C   -0.003062  -0.000210   0.000008   0.000000   0.000000  -0.000001
    11  C   -0.000031   0.000000   0.000000   0.000000   0.000000   0.000000
    12  C    0.575271   0.208922  -0.007350   0.006559   0.000543  -0.002948
    13  O    8.105142  -0.089989   0.016715  -0.011223   0.000012  -0.003292
    14  N   -0.089989   7.542572   0.184876  -0.037573  -0.040483  -0.068033
    15  C    0.016715   0.184876   4.358498   0.266204   0.271044   0.211501
    16  F   -0.011223  -0.037573   0.266204   9.103161  -0.041725  -0.035660
    17  F    0.000012  -0.040483   0.271044  -0.041725   9.100619  -0.024351
    18  C   -0.003292  -0.068033   0.211501  -0.035660  -0.024351   4.993640
    19  F    0.000006  -0.001413  -0.021593   0.000302  -0.000114   0.219187
    20  O   -0.002514   0.000048  -0.027469   0.000736   0.000541   0.156631
    21  C    0.000488  -0.000219   0.001064  -0.000059   0.000004   0.001611
    22  F    0.000000  -0.000002   0.000186   0.000000   0.000000   0.012556
    23  F   -0.000004   0.000001  -0.000032   0.000000   0.000000   0.000524
    24  F   -0.000003   0.000001  -0.000167   0.000001   0.000000  -0.008955
    25  C   -0.000039   0.003194  -0.029822   0.007929  -0.001110   0.206811
    26  F    0.000000   0.000046   0.006178  -0.000888  -0.002475  -0.029083
    27  F    0.000000  -0.000013   0.001306   0.000000  -0.000002  -0.031564
    28  F   -0.000001  -0.000029  -0.000080  -0.000901  -0.000152  -0.032289
    29  C   -0.000160   0.212230  -0.012685   0.000762   0.006079  -0.000681
    30  O   -0.000029  -0.091679   0.017307   0.000012  -0.009278  -0.002271
    31  H    0.000000   0.000000   0.000000   0.000000   0.000000   0.000000
    32  H    0.000000   0.000000   0.000000   0.000000   0.000000   0.000000
    33  H    0.000000   0.000000   0.000000   0.000000   0.000000   0.000000
    34  H    0.000000   0.000000   0.000000   0.000000   0.000000   0.000000
    35  H    0.000000   0.000000   0.000000   0.000000   0.000000   0.000000
    36  H    0.000000   0.000000   0.000000   0.000000   0.000000   0.000000
    37  H    0.000000  -0.000166   0.000000   0.000000  -0.000001   0.000000
    38  H    0.000000  -0.000078   0.000002   0.000000   0.000000   0.000000
    39  H    0.000000   0.000503   0.000010   0.000000   0.000002   0.000001
    40  H    0.007034   0.000321  -0.000005  -0.000002   0.000000   0.000000
    41  H    0.000477  -0.000095   0.000000   0.000000   0.000000   0.000000
    42  H    0.000077   0.000003   0.000000   0.000000   0.000000   0.000000
    43  H    0.004381   0.000003  -0.000002   0.000000   0.000000   0.000003
    44  H    0.000017   0.000000   0.000000   0.000000   0.000000   0.000000
    45  H   -0.000002   0.000000   0.000000   0.000000   0.000000   0.000000
    46  H    0.000000   0.000000   0.000000   0.000000   0.000000   0.000000
              19         20         21         22         23         24
     1  C    0.000000   0.000000   0.000000   0.000000   0.000000   0.000000
     2  C    0.000000   0.000000   0.000000   0.000000   0.000000   0.000000
     3  C    0.000000   0.000000   0.000000   0.000000   0.000000   0.000000
     4  C    0.000005   0.000000   0.000000   0.000000   0.000000   0.000000
     5  N   -0.000027  -0.000015   0.000000   0.000000   0.000000   0.000000
     6  C    0.000003   0.000028   0.000000   0.000000   0.000000   0.000000
     7  O    0.000000   0.000000   0.000000   0.000000   0.000000   0.000000
     8  N    0.000001  -0.000255  -0.000003   0.000000   0.000000   0.000000
     9  C    0.000000   0.000003   0.000000   0.000000   0.000000   0.000000
    10  C    0.000000  -0.000008   0.000000   0.000000  -0.000001   0.000000
    11  C    0.000000   0.000000   0.000000   0.000000   0.000000   0.000000
    12  C   -0.000359   0.004566   0.000098   0.000000  -0.000013   0.000002
    13  O    0.000006  -0.002514   0.000488   0.000000  -0.000004  -0.000003
    14  N   -0.001413   0.000048  -0.000219  -0.000002   0.000001   0.000001
    15  C   -0.021593  -0.027469   0.001064   0.000186  -0.000032  -0.000167
    16  F    0.000302   0.000736  -0.000059   0.000000   0.000000   0.000001
    17  F   -0.000114   0.000541   0.000004   0.000000   0.000000   0.000000
    18  C    0.219187   0.156631   0.001611   0.012556   0.000524  -0.008955
    19  F    9.126648  -0.053221  -0.001042  -0.001477  -0.000021  -0.000016
    20  O   -0.053221   8.350660   0.235693  -0.046268  -0.039482  -0.047527
    21  C   -0.001042   0.235693   3.823216   0.294949   0.338800   0.302045
    22  F   -0.001477  -0.046268   0.294949   9.060306  -0.036690  -0.033853
    23  F   -0.000021  -0.039482   0.338800  -0.036690   9.014693  -0.037344
    24  F   -0.000016  -0.047527   0.302045  -0.033853  -0.037344   9.058886
    25  C   -0.014640  -0.026751  -0.003794  -0.004228  -0.000027   0.017698
    26  F   -0.000261   0.000543   0.000059   0.000000   0.000000   0.000000
    27  F   -0.000057  -0.001509   0.012172  -0.001941  -0.000004  -0.006698
    28  F    0.000310   0.000306  -0.000386   0.000014   0.000000  -0.000464
    29  C    0.008594   0.000152  -0.000011   0.000001   0.000000   0.000000
    30  O   -0.004262  -0.000034  -0.000005   0.000000   0.000000   0.000000
    31  H    0.000000   0.000000   0.000000   0.000000   0.000000   0.000000
    32  H    0.000000   0.000000   0.000000   0.000000   0.000000   0.000000
    33  H    0.000000   0.000000   0.000000   0.000000   0.000000   0.000000
    34  H    0.000000   0.000000   0.000000   0.000000   0.000000   0.000000
    35  H    0.000000   0.000000   0.000000   0.000000   0.000000   0.000000
    36  H    0.000000   0.000000   0.000000   0.000000   0.000000   0.000000
    37  H    0.000000   0.000000   0.000000   0.000000   0.000000   0.000000
    38  H    0.000000   0.000000   0.000000   0.000000   0.000000   0.000000
    39  H   -0.000004   0.000000   0.000000   0.000000   0.000000   0.000000
    40  H    0.000000   0.000001   0.000000   0.000000   0.000000   0.000000
    41  H    0.000000   0.000000   0.000000   0.000000   0.000000   0.000000
    42  H    0.000000   0.000000   0.000000   0.000000   0.000000   0.000000
    43  H    0.000000   0.000038   0.000011   0.000000   0.000012   0.000000
    44  H    0.000000   0.000000   0.000000   0.000000   0.000000   0.000000
    45  H    0.000000   0.000000   0.000000   0.000000   0.000000   0.000000
    46  H    0.000000   0.000000   0.000000   0.000000   0.000000   0.000000
              25         26         27         28         29         30
     1  C    0.000000   0.000000   0.000000   0.000000   0.000010   0.000000
     2  C    0.000000   0.000000   0.000000   0.000000  -0.000101  -0.000079
     3  C    0.000000   0.000000   0.000000   0.000000  -0.002294  -0.002138
     4  C    0.000000   0.000000   0.000000   0.000000  -0.024437  -0.001372
     5  N   -0.000001   0.000000   0.000000   0.000000   0.268111  -0.089546
     6  C    0.000000   0.000000   0.000000   0.000000  -0.020270   0.000250
     7  O    0.000000   0.000000   0.000000   0.000000   0.000329  -0.000026
     8  N    0.000000   0.000000   0.000000   0.000000  -0.003393   0.000110
     9  C    0.000000   0.000000   0.000000   0.000000   0.000145   0.000002
    10  C    0.000000   0.000000   0.000000   0.000000   0.000004   0.000000
    11  C    0.000000   0.000000   0.000000   0.000000   0.000000   0.000000
    12  C    0.000013   0.000002   0.000000   0.000002  -0.015127   0.000019
    13  O   -0.000039   0.000000   0.000000  -0.000001  -0.000160  -0.000029
    14  N    0.003194   0.000046  -0.000013  -0.000029   0.212230  -0.091679
    15  C   -0.029822   0.006178   0.001306  -0.000080  -0.012685   0.017307
    16  F    0.007929  -0.000888   0.000000  -0.000901   0.000762   0.000012
    17  F   -0.001110  -0.002475  -0.000002  -0.000152   0.006079  -0.009278
    18  C    0.206811  -0.029083  -0.031564  -0.032289  -0.000681  -0.002271
    19  F   -0.014640  -0.000261  -0.000057   0.000310   0.008594  -0.004262
    20  O   -0.026751   0.000543  -0.001509   0.000306   0.000152  -0.000034
    21  C   -0.003794   0.000059   0.012172  -0.000386  -0.000011  -0.000005
    22  F   -0.004228   0.000000  -0.001941   0.000014   0.000001   0.000000
    23  F   -0.000027   0.000000  -0.000004   0.000000   0.000000   0.000000
    24  F    0.017698   0.000000  -0.006698  -0.000464   0.000000   0.000000
    25  C    4.197408   0.287645   0.280130   0.267542   0.000287  -0.000018
    26  F    0.287645   9.060359  -0.039960  -0.037943  -0.000005  -0.000001
    27  F    0.280130  -0.039960   9.087802  -0.038873   0.000000   0.000000
    28  F    0.267542  -0.037943  -0.038873   9.089455   0.000000   0.000000
    29  C    0.000287  -0.000005   0.000000   0.000000   4.172697   0.577925
    30  O   -0.000018  -0.000001   0.000000   0.000000   0.577925   8.106640
    31  H    0.000000   0.000000   0.000000   0.000000   0.000000   0.000000
    32  H    0.000000   0.000000   0.000000   0.000000   0.000000   0.000000
    33  H    0.000000   0.000000   0.000000   0.000000  -0.000002   0.000000
    34  H    0.000000   0.000000   0.000000   0.000000  -0.000024   0.000011
    35  H    0.000000   0.000000   0.000000   0.000000  -0.000006   0.000000
    36  H    0.000000   0.000000   0.000000   0.000000  -0.000149   0.000039
    37  H    0.000000   0.000000   0.000000   0.000000   0.004734   0.002723
    38  H    0.000000   0.000000   0.000000   0.000000   0.004246   0.000524
    39  H    0.000000   0.000000   0.000000   0.000000  -0.004456   0.010047
    40  H    0.000000   0.000000   0.000000   0.000000  -0.000002   0.000000
    41  H    0.000000   0.000000   0.000000   0.000000  -0.000010   0.000000
    42  H    0.000000   0.000000   0.000000   0.000000   0.000005   0.000000
    43  H    0.000000   0.000000   0.000000   0.000000   0.000007   0.000000
    44  H    0.000000   0.000000   0.000000   0.000000   0.000000   0.000000
    45  H    0.000000   0.000000   0.000000   0.000000   0.000000   0.000000
    46  H    0.000000   0.000000   0.000000   0.000000   0.000000   0.000000
              31         32         33         34         35         36
     1  C    0.386111   0.391280   0.391855  -0.040828  -0.039274  -0.006789
     2  C   -0.029549  -0.036725  -0.035945   0.392600   0.391640  -0.032278
     3  C    0.004726  -0.004766  -0.005423  -0.039232  -0.032496   0.385526
     4  C    0.000094  -0.000866   0.002287  -0.007332   0.004637  -0.037627
     5  N    0.000000  -0.000015  -0.000011   0.000046  -0.000109  -0.004600
     6  C    0.000000   0.000001  -0.000017   0.000005  -0.000004   0.003955
     7  O    0.000000   0.000019  -0.000027  -0.000002   0.000000   0.003681
     8  N    0.000000   0.000000   0.000000   0.000000   0.000000  -0.000031
     9  C    0.000000   0.000000   0.000000   0.000000   0.000000   0.000001
    10  C    0.000000   0.000000   0.000000   0.000000   0.000000   0.000000
    11  C    0.000000   0.000000   0.000000   0.000000   0.000000   0.000000
    12  C    0.000000   0.000000   0.000000   0.000000   0.000000   0.000000
    13  O    0.000000   0.000000   0.000000   0.000000   0.000000   0.000000
    14  N    0.000000   0.000000   0.000000   0.000000   0.000000   0.000000
    15  C    0.000000   0.000000   0.000000   0.000000   0.000000   0.000000
    16  F    0.000000   0.000000   0.000000   0.000000   0.000000   0.000000
    17  F    0.000000   0.000000   0.000000   0.000000   0.000000   0.000000
    18  C    0.000000   0.000000   0.000000   0.000000   0.000000   0.000000
    19  F    0.000000   0.000000   0.000000   0.000000   0.000000   0.000000
    20  O    0.000000   0.000000   0.000000   0.000000   0.000000   0.000000
    21  C    0.000000   0.000000   0.000000   0.000000   0.000000   0.000000
    22  F    0.000000   0.000000   0.000000   0.000000   0.000000   0.000000
    23  F    0.000000   0.000000   0.000000   0.000000   0.000000   0.000000
    24  F    0.000000   0.000000   0.000000   0.000000   0.000000   0.000000
    25  C    0.000000   0.000000   0.000000   0.000000   0.000000   0.000000
    26  F    0.000000   0.000000   0.000000   0.000000   0.000000   0.000000
    27  F    0.000000   0.000000   0.000000   0.000000   0.000000   0.000000
    28  F    0.000000   0.000000   0.000000   0.000000   0.000000   0.000000
    29  C    0.000000   0.000000  -0.000002  -0.000024  -0.000006  -0.000149
    30  O    0.000000   0.000000   0.000000   0.000011   0.000000   0.000039
    31  H    0.597642  -0.029546  -0.029341  -0.002578  -0.004643   0.000012
    32  H   -0.029546   0.594564  -0.031752   0.005282  -0.004043   0.005088
    33  H   -0.029341  -0.031752   0.599917  -0.005292   0.005215  -0.000126
    34  H   -0.002578   0.005282  -0.005292   0.620609  -0.034202   0.005349
    35  H   -0.004643  -0.004043   0.005215  -0.034202   0.616598  -0.003279
    36  H    0.000012   0.005088  -0.000126   0.005349  -0.003279   0.604399
    37  H   -0.000169   0.000045  -0.000065  -0.003043  -0.004820  -0.035691
    38  H   -0.000132   0.000387   0.000800  -0.000158  -0.000071  -0.005837
    39  H   -0.000017   0.000080   0.000346   0.004832  -0.000037   0.004979
    40  H    0.000000   0.000000   0.000000   0.000000   0.000000   0.000000
    41  H    0.000000   0.000000   0.000000   0.000000   0.000000   0.000001
    42  H    0.000000   0.000000   0.000000   0.000000   0.000000   0.000000
    43  H    0.000000   0.000000   0.000000   0.000000   0.000000   0.000000
    44  H    0.000000   0.000000   0.000000   0.000000   0.000000   0.000000
    45  H    0.000000   0.000000   0.000000   0.000000   0.000000   0.000000
    46  H    0.000000   0.000000   0.000000   0.000000   0.000000   0.000000
              37         38         39         40         41         42
     1  C    0.004934   0.003360  -0.000692   0.000000   0.000000   0.000000
     2  C   -0.029551  -0.002482  -0.000950   0.000000   0.000000   0.000000
     3  C    0.385855  -0.036867  -0.039452   0.000000   0.000000   0.000000
     4  C   -0.038162   0.386290   0.385860   0.000001   0.000002   0.000003
     5  N   -0.006020  -0.033642  -0.033439  -0.000105   0.000412  -0.000148
     6  C   -0.000065  -0.003132   0.004351   0.004251  -0.004700   0.004757
     7  O    0.000049   0.009602   0.000528   0.000517   0.009396   0.003589
     8  N   -0.000006   0.000446  -0.000073  -0.033316  -0.033546  -0.005400
     9  C    0.000000   0.000008   0.000001   0.386991   0.386666  -0.036521
    10  C    0.000000  -0.000003   0.000000  -0.038917  -0.038713   0.389790
    11  C    0.000000   0.000000   0.000000  -0.001138  -0.001043  -0.033398
    12  C    0.000002  -0.000052  -0.000051  -0.003269   0.004592  -0.000080
    13  O    0.000000   0.000000   0.000000   0.007034   0.000477   0.000077
    14  N   -0.000166  -0.000078   0.000503   0.000321  -0.000095   0.000003
    15  C    0.000000   0.000002   0.000010  -0.000005   0.000000   0.000000
    16  F    0.000000   0.000000   0.000000  -0.000002   0.000000   0.000000
    17  F   -0.000001   0.000000   0.000002   0.000000   0.000000   0.000000
    18  C    0.000000   0.000000   0.000001   0.000000   0.000000   0.000000
    19  F    0.000000   0.000000  -0.000004   0.000000   0.000000   0.000000
    20  O    0.000000   0.000000   0.000000   0.000001   0.000000   0.000000
    21  C    0.000000   0.000000   0.000000   0.000000   0.000000   0.000000
    22  F    0.000000   0.000000   0.000000   0.000000   0.000000   0.000000
    23  F    0.000000   0.000000   0.000000   0.000000   0.000000   0.000000
    24  F    0.000000   0.000000   0.000000   0.000000   0.000000   0.000000
    25  C    0.000000   0.000000   0.000000   0.000000   0.000000   0.000000
    26  F    0.000000   0.000000   0.000000   0.000000   0.000000   0.000000
    27  F    0.000000   0.000000   0.000000   0.000000   0.000000   0.000000
    28  F    0.000000   0.000000   0.000000   0.000000   0.000000   0.000000
    29  C    0.004734   0.004246  -0.004456  -0.000002  -0.000010   0.000005
    30  O    0.002723   0.000524   0.010047   0.000000   0.000000   0.000000
    31  H   -0.000169  -0.000132  -0.000017   0.000000   0.000000   0.000000
    32  H    0.000045   0.000387   0.000080   0.000000   0.000000   0.000000
    33  H   -0.000065   0.000800   0.000346   0.000000   0.000000   0.000000
    34  H   -0.003043  -0.000158   0.004832   0.000000   0.000000   0.000000
    35  H   -0.004820  -0.000071  -0.000037   0.000000   0.000000   0.000000
    36  H   -0.035691  -0.005837   0.004979   0.000000   0.000001   0.000000
    37  H    0.608895   0.004934  -0.005130   0.000000   0.000000   0.000000
    38  H    0.004934   0.553510  -0.029954   0.000000  -0.000003   0.000008
    39  H   -0.005130  -0.029954   0.554339   0.000000   0.000000   0.000000
    40  H    0.000000   0.000000   0.000000   0.559270  -0.029940   0.004976
    41  H    0.000000  -0.000003   0.000000  -0.029940   0.555243  -0.005655
    42  H    0.000000   0.000008   0.000000   0.004976  -0.005655   0.602194
    43  H    0.000000   0.000000   0.000000  -0.005617   0.004855  -0.036296
    44  H    0.000000   0.000000   0.000000   0.004254  -0.000435   0.004989
    45  H    0.000000   0.000000   0.000000  -0.000446   0.004231  -0.004843
    46  H    0.000000   0.000000   0.000000  -0.000091  -0.000101  -0.003468
              43         44         45         46
     1  C    0.000000   0.000000   0.000000   0.000000
     2  C    0.000000   0.000000   0.000000   0.000000
     3  C    0.000000   0.000000   0.000000   0.000000
     4  C    0.000000   0.000000   0.000000   0.000000
     5  N    0.000001   0.000000   0.000000   0.000000
     6  C   -0.000208   0.000010  -0.000026  -0.000003
     7  O    0.000056  -0.000002   0.000009   0.000000
     8  N   -0.005383   0.000056   0.000054  -0.000120
     9  C   -0.036432  -0.005253  -0.004974   0.004122
    10  C    0.391123  -0.036757  -0.036955  -0.027349
    11  C   -0.033126   0.392597   0.392227   0.387799
    12  C    0.004362  -0.000024   0.000010  -0.000004
    13  O    0.004381   0.000017  -0.000002   0.000000
    14  N    0.000003   0.000000   0.000000   0.000000
    15  C   -0.000002   0.000000   0.000000   0.000000
    16  F    0.000000   0.000000   0.000000   0.000000
    17  F    0.000000   0.000000   0.000000   0.000000
    18  C    0.000003   0.000000   0.000000   0.000000
    19  F    0.000000   0.000000   0.000000   0.000000
    20  O    0.000038   0.000000   0.000000   0.000000
    21  C    0.000011   0.000000   0.000000   0.000000
    22  F    0.000000   0.000000   0.000000   0.000000
    23  F    0.000012   0.000000   0.000000   0.000000
    24  F    0.000000   0.000000   0.000000   0.000000
    25  C    0.000000   0.000000   0.000000   0.000000
    26  F    0.000000   0.000000   0.000000   0.000000
    27  F    0.000000   0.000000   0.000000   0.000000
    28  F    0.000000   0.000000   0.000000   0.000000
    29  C    0.000007   0.000000   0.000000   0.000000
    30  O    0.000000   0.000000   0.000000   0.000000
    31  H    0.000000   0.000000   0.000000   0.000000
    32  H    0.000000   0.000000   0.000000   0.000000
    33  H    0.000000   0.000000   0.000000   0.000000
    34  H    0.000000   0.000000   0.000000   0.000000
    35  H    0.000000   0.000000   0.000000   0.000000
    36  H    0.000000   0.000000   0.000000   0.000000
    37  H    0.000000   0.000000   0.000000   0.000000
    38  H    0.000000   0.000000   0.000000   0.000000
    39  H    0.000000   0.000000   0.000000   0.000000
    40  H   -0.005617   0.004254  -0.000446  -0.000091
    41  H    0.004855  -0.000435   0.004231  -0.000101
    42  H   -0.036296   0.004989  -0.004843  -0.003468
    43  H    0.596276  -0.004799   0.004962  -0.003465
    44  H   -0.004799   0.592142  -0.031786  -0.028810
    45  H    0.004962  -0.031786   0.593369  -0.028853
    46  H   -0.003465  -0.028810  -0.028853   0.585781
 Mulliken charges:
               1
     1  C   -0.323362
     2  C   -0.187102
     3  C   -0.181976
     4  C   -0.056487
     5  N   -0.580957
     6  C    0.827833
     7  O   -0.529046
     8  N   -0.575069
     9  C   -0.050725
    10  C   -0.186443
    11  C   -0.328272
    12  C    0.834404
    13  O   -0.509935
    14  N   -0.637486
    15  C    0.759963
    16  F   -0.257637
    17  F   -0.259170
    18  C    0.437100
    19  F   -0.256547
    20  O   -0.504892
    21  C    0.995311
    22  F   -0.243552
    23  F   -0.240410
    24  F   -0.243607
    25  C    0.811774
    26  F   -0.244217
    27  F   -0.260790
    28  F   -0.246511
    29  C    0.827498
    30  O   -0.514872
    31  H    0.107388
    32  H    0.110968
    33  H    0.107580
    34  H    0.103956
    35  H    0.104893
    36  H    0.113378
    37  H    0.110714
    38  H    0.148295
    39  H    0.148375
    40  H    0.145230
    41  H    0.148365
    42  H    0.115418
    43  H    0.119238
    44  H    0.113799
    45  H    0.113022
    46  H    0.114562
 Sum of Mulliken charges =   0.00000
 Mulliken charges with hydrogens summed into heavy atoms:
               1
     1  C    0.002574
     2  C    0.021747
     3  C    0.042116
     4  C    0.240182
     5  N   -0.580957
     6  C    0.827833
     7  O   -0.529046
     8  N   -0.575069
     9  C    0.242870
    10  C    0.048213
    11  C    0.013111
    12  C    0.834404
    13  O   -0.509935
    14  N   -0.637486
    15  C    0.759963
    16  F   -0.257637
    17  F   -0.259170
    18  C    0.437100
    19  F   -0.256547
    20  O   -0.504892
    21  C    0.995311
    22  F   -0.243552
    23  F   -0.240410
    24  F   -0.243607
    25  C    0.811774
    26  F   -0.244217
    27  F   -0.260790
    28  F   -0.246511
    29  C    0.827498
    30  O   -0.514872
 Electronic spatial extent (au):  <R**2>=          14012.2861
 Charge=              0.0000 electrons
 Dipole moment (field-independent basis, Debye):
    X=              2.5595    Y=              1.4135    Z=              0.7849  Tot=              3.0274
 Quadrupole moment (field-independent basis, Debye-Ang):
   XX=           -174.4006   YY=           -169.4001   ZZ=           -166.2338
   XY=             -5.8776   XZ=             -5.4761   YZ=             -1.8669
 Traceless Quadrupole moment (field-independent basis, Debye-Ang):
   XX=             -4.3891   YY=              0.6114   ZZ=              3.7777
   XY=             -5.8776   XZ=             -5.4761   YZ=             -1.8669
 Octapole moment (field-independent basis, Debye-Ang**2):
  XXX=            507.8668  YYY=            217.3725  ZZZ=            144.7549  XYY=            172.8365
  XXY=             23.0167  XXZ=             58.9781  XZZ=            169.0519  YZZ=             57.6498
  YYZ=             51.8982  XYZ=             -7.9273
 Hexadecapole moment (field-independent basis, Debye-Ang**3):
 XXXX=          -9942.9237 YYYY=          -4488.8546 ZZZZ=          -1463.6314 XXXY=           -540.9163
 XXXZ=           -459.2513 YYYX=           -467.5801 YYYZ=           -302.7335 ZZZX=           -406.9220
 ZZZY=           -282.0582 XXYY=          -2420.0983 XXZZ=          -1907.6410 YYZZ=           -990.5652
 XXYZ=            -94.1665 YYXZ=           -142.9872 ZZXY=           -148.2009
 N-N= 3.654423502962D+03 E-N=-1.179600816038D+04  KE= 1.891444955619D+03
 No NMR shielding tensors so no spin-rotation constants.
 Leave Link  601 at Sun Mar  3 18:03:22 2024, MaxMem=  5368709120 cpu:         2.8
 (Enter /home/k0335/k033513/app/g09/l9999.exe)
 1\1\GINC-C24U18N1\SP\RCAM-B3LYP\6-31G(d,p)\C14H16F9N3O4\K033513\03-Mar
 -2024\0\\#p CAM-B3LYP/6-31G(d,p) SCRF=(PCM,Solvent=Generic,Read) NoSym
 m out=wfn\\Title A891690740_0\\0,1\C,0,5.316184,-1.827646,1.029571\C,0
 ,4.414631,-2.550324,0.040722\C,0,3.298709,-1.669205,-0.522727\C,0,2.27
 9113,-1.232511,0.534194\N,0,1.177521,-0.479013,-0.068616\C,0,1.311982,
 0.889801,-0.183492\O,0,2.336352,1.47904,0.164201\N,0,0.2159,1.559439,-
 0.686831\C,0,0.23772,3.022094,-0.680682\C,0,-0.222512,3.589622,0.66446
 8\C,0,-0.203832,5.109275,0.662079\C,0,-0.950204,0.92185,-1.057063\O,0,
 -1.992745,1.549756,-1.242016\N,0,-0.88139,-0.442705,-1.179663\C,0,-2.0
 78827,-1.147218,-1.611532\F,0,-2.687676,-0.421072,-2.594909\F,0,-1.701
 978,-2.287864,-2.259249\C,0,-3.098579,-1.476031,-0.489579\F,0,-2.53633
 7,-2.359344,0.386934\O,0,-3.363282,-0.299715,0.283344\C,0,-4.448538,-0
 .442263,1.159751\F,0,-4.395895,-1.615045,1.809393\F,0,-4.400368,0.5545
 46,2.063073\F,0,-5.595552,-0.344269,0.469423\C,0,-4.287509,-2.13551,-1
 .202721\F,0,-3.926646,-3.187837,-1.968745\F,0,-5.195603,-2.611475,-0.3
 15669\F,0,-4.947217,-1.263738,-1.99814\C,0,0.084613,-1.176455,-0.5411\
 O,0,-0.019455,-2.39161,-0.378206\H,0,6.148737,-2.475886,1.321421\H,0,5
 .73427,-0.917563,0.587969\H,0,4.775411,-1.554241,1.940235\H,0,3.984268
 ,-3.437479,0.519612\H,0,5.029554,-2.907763,-0.793871\H,0,3.733853,-0.7
 87217,-1.008671\H,0,2.782765,-2.230095,-1.312237\H,0,2.761348,-0.60964
 8,1.295353\H,0,1.879173,-2.112584,1.051081\H,0,-0.408849,3.395241,-1.4
 84063\H,0,1.253902,3.368841,-0.903133\H,0,0.424896,3.221646,1.469094\H
 ,0,-1.236469,3.241011,0.893144\H,0,-0.871547,5.508406,-0.108076\H,0,0.
 805403,5.488728,0.473011\H,0,-0.535293,5.494031,1.6316\\Version=ES64L-
 G09RevD.01\HF=-1906.2767986\RMSD=6.151e-09\Dipole=1.0070001,0.5561251,
 0.3087918\Quadrupole=-3.2631742,0.4545739,2.8086002,-4.3698182,-4.0713
 232,-1.3879593\PG=C01 [X(C14H16F9N3O4)]\\@

 Writing a WFN file to "A891690740/A891690740_0.wfn"


 NECESSARY EVIL: ONE WE LIKE TOO MUCH TO RELINQUISH.
 Job cpu time:       0 days  0 hours 16 minutes 22.2 seconds.
 File lengths (MBytes):  RWF=    347 Int=      0 D2E=      0 Chk=     12 Scr=      1
 Normal termination of Gaussian 09 at Sun Mar  3 18:03:23 2024.
