 Entering Gaussian System, Link 0=g09
 Initial command:
 /home/k0335/k033513/app/g09/l1.exe "/home/k0335/k033513/app/g09/scratch/Gau-338184.inp" -scrdir="/home/k0335/k033513/app/g09/scratch/"
 Default is to use a total of  36 processors:
                               36 via shared-memory
                                1 via Linda
 Entering Link 1 = /home/k0335/k033513/app/g09/l1.exe PID=    338185.
  
 Copyright (c) 1988,1990,1992,1993,1995,1998,2003,2009,2013,
            Gaussian, Inc.  All Rights Reserved.
  
 This is part of the Gaussian(R) 09 program.  It is based on
 the Gaussian(R) 03 system (copyright 2003, Gaussian, Inc.),
 the Gaussian(R) 98 system (copyright 1998, Gaussian, Inc.),
 the Gaussian(R) 94 system (copyright 1995, Gaussian, Inc.),
 the Gaussian 92(TM) system (copyright 1992, Gaussian, Inc.),
 the Gaussian 90(TM) system (copyright 1990, Gaussian, Inc.),
 the Gaussian 88(TM) system (copyright 1988, Gaussian, Inc.),
 the Gaussian 86(TM) system (copyright 1986, Carnegie Mellon
 University), and the Gaussian 82(TM) system (copyright 1983,
 Carnegie Mellon University). Gaussian is a federally registered
 trademark of Gaussian, Inc.
  
 This software contains proprietary and confidential information,
 including trade secrets, belonging to Gaussian, Inc.
  
 This software is provided under written license and may be
 used, copied, transmitted, or stored only in accord with that
 written license.
  
 The following legend is applicable only to US Government
 contracts under FAR:
  
                    RESTRICTED RIGHTS LEGEND
  
 Use, reproduction and disclosure by the US Government is
 subject to restrictions as set forth in subparagraphs (a)
 and (c) of the Commercial Computer Software - Restricted
 Rights clause in FAR 52.227-19.
  
 Gaussian, Inc.
 340 Quinnipiac St., Bldg. 40, Wallingford CT 06492
  
  
 ---------------------------------------------------------------
 Warning -- This program may not be used in any manner that
 competes with the business of Gaussian, Inc. or will provide
 assistance to any competitor of Gaussian, Inc.  The licensee
 of this program is prohibited from giving any competitor of
 Gaussian, Inc. access to this program.  By using this program,
 the user acknowledges that Gaussian, Inc. is engaged in the
 business of creating and licensing software in the field of
 computational chemistry and represents and warrants to the
 licensee that it is not a competitor of Gaussian, Inc. and that
 it will not use this program in any manner prohibited above.
 ---------------------------------------------------------------
  

 Cite this work as:
 Gaussian 09, Revision D.01,
 M. J. Frisch, G. W. Trucks, H. B. Schlegel, G. E. Scuseria, 
 M. A. Robb, J. R. Cheeseman, G. Scalmani, V. Barone, B. Mennucci, 
 G. A. Petersson, H. Nakatsuji, M. Caricato, X. Li, H. P. Hratchian, 
 A. F. Izmaylov, J. Bloino, G. Zheng, J. L. Sonnenberg, M. Hada, 
 M. Ehara, K. Toyota, R. Fukuda, J. Hasegawa, M. Ishida, T. Nakajima, 
 Y. Honda, O. Kitao, H. Nakai, T. Vreven, J. A. Montgomery, Jr., 
 J. E. Peralta, F. Ogliaro, M. Bearpark, J. J. Heyd, E. Brothers, 
 K. N. Kudin, V. N. Staroverov, T. Keith, R. Kobayashi, J. Normand, 
 K. Raghavachari, A. Rendell, J. C. Burant, S. S. Iyengar, J. Tomasi, 
 M. Cossi, N. Rega, J. M. Millam, M. Klene, J. E. Knox, J. B. Cross, 
 V. Bakken, C. Adamo, J. Jaramillo, R. Gomperts, R. E. Stratmann, 
 O. Yazyev, A. J. Austin, R. Cammi, C. Pomelli, J. W. Ochterski, 
 R. L. Martin, K. Morokuma, V. G. Zakrzewski, G. A. Voth, 
 P. Salvador, J. J. Dannenberg, S. Dapprich, A. D. Daniels, 
 O. Farkas, J. B. Foresman, J. V. Ortiz, J. Cioslowski, 
 and D. J. Fox, Gaussian, Inc., Wallingford CT, 2013.
 
 ******************************************
 Gaussian 09:  ES64L-G09RevD.01 24-Apr-2013
                 3-Mar-2024 
 ******************************************
 %nprocshared=24
 Will use up to   24 processors via shared memory.
 %mem=40GB
 %rwf=A902432812/A902432812_0.rwf
 %nosave
 %chk=A902432812/A902432812_0.chk
 ----------------------------------------------------------------------
 #p CAM-B3LYP/6-31G(d,p) SCRF=(PCM,Solvent=Generic,Read) NoSymm out=wfn
 ----------------------------------------------------------------------
 1/38=1,40=2/1;
 2/12=2,15=1,17=6,18=5,40=1/2;
 3/5=1,6=6,7=101,11=2,16=1,25=1,30=1,70=2203,72=-2,74=-40/1,2,3;
 4//1;
 5/5=2,38=5/2;
 6/7=2,8=2,9=2,10=2,28=1/1;
 99/5=1,6=100,9=1/99;
 Leave Link    1 at Sun Mar  3 17:59:32 2024, MaxMem=  5368709120 cpu:         1.4
 (Enter /home/k0335/k033513/app/g09/l101.exe)
 ------------------
 Title A902432812_0
 ------------------
 Symbolic Z-matrix:
 Charge =  0 Multiplicity = 1
 O                    -0.77307  -0.92365   0.86505 
 C                    -0.44369   0.01888   0.15287 
 N                     0.84654   0.20275  -0.28327 
 C                     1.8653   -0.65602   0.32377 
 F                     1.81681  -0.46349   1.67273 
 F                     1.49264  -1.94398   0.0962 
 C                     3.34039  -0.48676  -0.12315 
 F                     3.40608  -0.60362  -1.48346 
 O                     3.76374   0.85259   0.19264 
 C                     5.14279   1.0518    0.00963 
 F                     5.36455   2.37714  -0.06679 
 F                     5.57141   0.47584  -1.12237 
 F                     5.80514   0.56387   1.06893 
 C                     4.12447  -1.62711   0.5498 
 F                     4.13378  -1.50281   1.89584 
 F                     5.42186  -1.62901   0.15353 
 F                     3.64889  -2.85446   0.25298 
 C                     1.21226   1.44517  -0.89042 
 O                     0.16483   1.85285  -1.74297 
 C                    -0.99744   2.11421  -0.99051 
 N                    -1.36038   0.94548  -0.25378 
 C                    -2.73706   0.85201   0.20966 
 F                    -2.74872   0.74988   1.55993 
 F                    -3.31715   2.069    -0.0287 
 C                    -3.59313  -0.2431   -0.48147 
 F                    -3.58335   0.05671  -1.83436 
 O                    -3.06533  -1.57116  -0.45345 
 C                    -3.3579   -2.28728   0.72213 
 F                    -3.20823  -1.52931   1.81528 
 F                    -4.63201  -2.71643   0.66175 
 F                    -2.5541   -3.3619    0.80073 
 C                    -5.04019  -0.05944  -0.00391 
 F                    -5.53021   1.16701  -0.30063 
 F                    -5.86373  -0.95159  -0.60952 
 F                    -5.18615  -0.22929   1.32652 
 H                     2.08442   1.32022  -1.53296 
 H                     1.42049   2.20057  -0.12375 
 H                    -0.84381   2.95517  -0.30448 
 H                    -1.79075   2.36927  -1.69999 
 
 NAtoms=     39 NQM=       39 NQMF=       0 NMMI=      0 NMMIF=      0
                NMic=       0 NMicF=      0.
                    Isotopes and Nuclear Properties:
 (Nuclear quadrupole moments (NQMom) in fm**2, nuclear magnetic moments (NMagM)
  in nuclear magnetons)

  Atom         1           2           3           4           5           6           7           8           9          10
 IAtWgt=          16          12          14          12          19          19          12          19          16          12
 AtmWgt=  15.9949146  12.0000000  14.0030740  12.0000000  18.9984033  18.9984033  12.0000000  18.9984033  15.9949146  12.0000000
 NucSpn=           0           0           2           0           1           1           0           1           0           0
 AtZEff=   0.0000000   0.0000000   0.0000000   0.0000000   0.0000000   0.0000000   0.0000000   0.0000000   0.0000000   0.0000000
 NQMom=    0.0000000   0.0000000   2.0440000   0.0000000   0.0000000   0.0000000   0.0000000   0.0000000   0.0000000   0.0000000
 NMagM=    0.0000000   0.0000000   0.4037610   0.0000000   2.6288670   2.6288670   0.0000000   2.6288670   0.0000000   0.0000000
 AtZNuc=   8.0000000   6.0000000   7.0000000   6.0000000   9.0000000   9.0000000   6.0000000   9.0000000   8.0000000   6.0000000

  Atom        11          12          13          14          15          16          17          18          19          20
 IAtWgt=          19          19          19          12          19          19          19          12          16          12
 AtmWgt=  18.9984033  18.9984033  18.9984033  12.0000000  18.9984033  18.9984033  18.9984033  12.0000000  15.9949146  12.0000000
 NucSpn=           1           1           1           0           1           1           1           0           0           0
 AtZEff=   0.0000000   0.0000000   0.0000000   0.0000000   0.0000000   0.0000000   0.0000000   0.0000000   0.0000000   0.0000000
 NQMom=    0.0000000   0.0000000   0.0000000   0.0000000   0.0000000   0.0000000   0.0000000   0.0000000   0.0000000   0.0000000
 NMagM=    2.6288670   2.6288670   2.6288670   0.0000000   2.6288670   2.6288670   2.6288670   0.0000000   0.0000000   0.0000000
 AtZNuc=   9.0000000   9.0000000   9.0000000   6.0000000   9.0000000   9.0000000   9.0000000   6.0000000   8.0000000   6.0000000

  Atom        21          22          23          24          25          26          27          28          29          30
 IAtWgt=          14          12          19          19          12          19          16          12          19          19
 AtmWgt=  14.0030740  12.0000000  18.9984033  18.9984033  12.0000000  18.9984033  15.9949146  12.0000000  18.9984033  18.9984033
 NucSpn=           2           0           1           1           0           1           0           0           1           1
 AtZEff=   0.0000000   0.0000000   0.0000000   0.0000000   0.0000000   0.0000000   0.0000000   0.0000000   0.0000000   0.0000000
 NQMom=    2.0440000   0.0000000   0.0000000   0.0000000   0.0000000   0.0000000   0.0000000   0.0000000   0.0000000   0.0000000
 NMagM=    0.4037610   0.0000000   2.6288670   2.6288670   0.0000000   2.6288670   0.0000000   0.0000000   2.6288670   2.6288670
 AtZNuc=   7.0000000   6.0000000   9.0000000   9.0000000   6.0000000   9.0000000   8.0000000   6.0000000   9.0000000   9.0000000

  Atom        31          32          33          34          35          36          37          38          39
 IAtWgt=          19          12          19          19          19           1           1           1           1
 AtmWgt=  18.9984033  12.0000000  18.9984033  18.9984033  18.9984033   1.0078250   1.0078250   1.0078250   1.0078250
 NucSpn=           1           0           1           1           1           1           1           1           1
 AtZEff=   0.0000000   0.0000000   0.0000000   0.0000000   0.0000000   0.0000000   0.0000000   0.0000000   0.0000000
 NQMom=    0.0000000   0.0000000   0.0000000   0.0000000   0.0000000   0.0000000   0.0000000   0.0000000   0.0000000
 NMagM=    2.6288670   0.0000000   2.6288670   2.6288670   2.6288670   2.7928460   2.7928460   2.7928460   2.7928460
 AtZNuc=   9.0000000   6.0000000   9.0000000   9.0000000   9.0000000   1.0000000   1.0000000   1.0000000   1.0000000
 Leave Link  101 at Sun Mar  3 17:59:32 2024, MaxMem=  5368709120 cpu:         1.1
 (Enter /home/k0335/k033513/app/g09/l202.exe)
                          Input orientation:                          
 ---------------------------------------------------------------------
 Center     Atomic      Atomic             Coordinates (Angstroms)
 Number     Number       Type             X           Y           Z
 ---------------------------------------------------------------------
      1          8           0       -0.773066   -0.923648    0.865047
      2          6           0       -0.443690    0.018883    0.152865
      3          7           0        0.846544    0.202746   -0.283274
      4          6           0        1.865299   -0.656018    0.323772
      5          9           0        1.816811   -0.463492    1.672727
      6          9           0        1.492640   -1.943976    0.096195
      7          6           0        3.340388   -0.486758   -0.123146
      8          9           0        3.406082   -0.603620   -1.483456
      9          8           0        3.763735    0.852586    0.192635
     10          6           0        5.142791    1.051798    0.009632
     11          9           0        5.364547    2.377141   -0.066792
     12          9           0        5.571409    0.475839   -1.122369
     13          9           0        5.805144    0.563868    1.068926
     14          6           0        4.124471   -1.627107    0.549802
     15          9           0        4.133779   -1.502809    1.895843
     16          9           0        5.421863   -1.629009    0.153531
     17          9           0        3.648885   -2.854462    0.252983
     18          6           0        1.212255    1.445174   -0.890420
     19          8           0        0.164831    1.852848   -1.742966
     20          6           0       -0.997437    2.114209   -0.990507
     21          7           0       -1.360377    0.945481   -0.253780
     22          6           0       -2.737064    0.852006    0.209664
     23          9           0       -2.748721    0.749877    1.559928
     24          9           0       -3.317152    2.069003   -0.028700
     25          6           0       -3.593132   -0.243102   -0.481474
     26          9           0       -3.583352    0.056706   -1.834363
     27          8           0       -3.065326   -1.571163   -0.453454
     28          6           0       -3.357899   -2.287281    0.722125
     29          9           0       -3.208229   -1.529306    1.815278
     30          9           0       -4.632014   -2.716426    0.661748
     31          9           0       -2.554097   -3.361895    0.800729
     32          6           0       -5.040190   -0.059441   -0.003912
     33          9           0       -5.530206    1.167008   -0.300628
     34          9           0       -5.863728   -0.951585   -0.609515
     35          9           0       -5.186148   -0.229290    1.326515
     36          1           0        2.084423    1.320215   -1.532962
     37          1           0        1.420494    2.200567   -0.123751
     38          1           0       -0.843812    2.955167   -0.304481
     39          1           0       -1.790752    2.369270   -1.699994
 ---------------------------------------------------------------------
                    Distance matrix (angstroms):
                    1          2          3          4          5
     1  O    0.000000
     2  C    1.226400   0.000000
     3  N    2.282661   1.374310   0.000000
     4  C    2.706580   2.411666   1.464187   0.000000
     5  F    2.751646   2.766321   2.282812   1.363487   0.000000
     6  F    2.601082   2.757789   2.273731   1.359964   2.186864
     7  C    4.252987   3.827676   2.592357   1.550572   2.355204
     8  F    4.804494   4.229161   2.939710   2.375464   3.536511
     9  O    4.918303   4.289413   3.026348   2.428403   2.777273
    10  C    6.295354   5.682974   4.389125   3.709080   4.015486
    11  F    7.030919   6.272579   5.018686   4.647293   4.866370
    12  F    6.794170   6.165748   4.806559   4.136143   4.774087
    13  F    6.747379   6.339093   5.152336   4.191152   4.162553
    14  C    4.957832   4.871851   3.845411   2.469405   2.817846
    15  F    5.047286   5.129010   4.296904   2.886947   2.549177
    16  F    6.275423   6.092640   4.947693   3.691184   4.082008
    17  F    4.863776   5.001530   4.181771   2.831845   3.330001
    18  C    3.554502   2.421756   1.430384   2.513113   3.252417
    19  O    3.923049   2.707010   2.306137   3.668434   4.445383
    20  C    3.566791   2.450373   2.748479   4.194847   4.653746
    21  N    2.256181   1.365379   2.328739   3.647376   3.973809
    22  C    2.727593   2.440673   3.675156   4.844471   4.960732
    23  F    2.680813   2.797740   4.077092   4.979338   4.725365
    24  F    4.028290   3.534507   4.569911   5.865814   5.972099
    25  C    3.198286   3.223353   4.466406   5.532937   5.827232
    26  F    4.018161   3.715909   4.695869   5.903670   6.460035
    27  O    2.722531   3.125515   4.298656   5.074705   5.439011
    28  C    2.925967   3.759663   4.988828   5.486484   5.568436
    29  F    2.683240   3.578153   4.883145   5.359842   5.138804
    30  F    4.259914   5.028214   6.279270   6.824558   6.905442
    31  F    3.020142   4.037723   5.044411   5.203875   5.316574
    32  C    4.439627   4.599840   5.899188   6.938952   7.070561
    33  F    5.325413   5.234166   6.449267   7.642434   7.780188
    34  F    5.299996   5.558763   6.816646   7.790779   8.027300
    35  F    4.491144   4.891825   6.258710   7.135159   7.015422
    36  H    4.353230   3.305576   2.083939   2.720473   3.678270
    37  H    3.943367   2.882957   2.084743   2.925441   3.237532
    38  H    4.051914   2.998504   3.230104   4.557921   4.761879
    39  H    4.296327   3.282070   3.695437   5.158944   5.693356
                    6          7          8          9         10
     6  F    0.000000
     7  C    2.363423   0.000000
     8  F    2.820126   1.366900   0.000000
     9  O    3.603877   1.439716   2.248940   0.000000
    10  C    4.722897   2.373487   2.825930   1.405337   0.000000
    11  F    5.804333   3.507465   3.837637   2.225796   1.345938
    12  F    4.896607   2.627260   2.446274   2.266905   1.340473
    13  F    5.082635   2.932554   3.692314   2.240222   1.341227
    14  C    2.689368   1.538844   2.386995   2.531122   2.916383
    15  F    3.226295   2.395443   3.571799   2.930143   3.331953
    16  F    3.942244   2.390361   2.791867   2.984834   2.699132
    17  F    2.345839   2.417161   2.853150   3.709318   4.189253
    18  C    3.540955   2.974898   3.059759   2.834470   4.051414
    19  O    4.422834   4.264005   4.075204   4.207040   5.337918
    20  C    4.883674   5.131673   5.198132   5.065597   6.311212
    21  N    4.075678   4.915848   5.160518   5.144360   6.509369
    22  C    5.071566   6.232052   6.536340   6.500821   7.884925
    23  F    5.233402   6.437333   6.998267   6.655233   8.048014
    24  F    6.265277   7.131877   7.379777   7.188019   8.520963
    25  C    5.393677   6.947047   7.079755   7.468497   8.845016
    26  F    5.787528   7.152747   7.029321   7.663017   8.974191
    27  O    4.606100   6.505245   6.623909   7.275168   8.629459
    28  C    4.902793   6.987375   7.311001   7.801077   9.160722
    29  F    5.022486   6.908602   7.449003   7.544181   8.925357
    30  F    6.199025   8.315448   8.583521   9.134906  10.496265
    31  F    4.345451   6.623059   6.953367   7.618834   8.907783
    32  C    6.799953   8.392312   8.592130   8.853221  10.243444
    33  F    7.691297   9.025180   9.186482   9.312331  10.678127
    34  F    7.456475   9.228671   9.317415   9.827844  11.204479
    35  F    7.004288   8.652723   9.047788   9.086063  10.491060
    36  H    3.695849   2.613461   2.334604   2.452845   3.435878
    37  H    4.151002   3.302682   3.695243   2.721752   3.897814
    38  H    5.442532   5.421002   5.667146   5.088955   6.289745
    39  H    5.710608   6.080456   5.990997   6.060916   7.261720
                   11         12         13         14         15
    11  F    0.000000
    12  F    2.184487   0.000000
    13  F    2.184477   2.205483   0.000000
    14  C    4.236978   3.051584   2.809719   0.000000
    15  F    4.518931   3.884769   2.783596   1.351800   0.000000
    16  F    4.012613   2.465901   2.406982   1.356562   2.170423
    17  F    5.515018   4.083944   4.123129   1.349327   2.181989
    18  C    4.334565   4.471648   5.070539   4.471482   4.998917
    19  O    5.488305   5.613589   6.432833   5.748532   6.344597
    20  C    6.434067   6.771365   7.274609   6.527169   6.909646
    21  N    6.878170   7.001762   7.296566   6.111261   6.387547
    22  C    8.248549   8.422977   8.590150   7.303585   7.456329
    23  F    8.433227   8.746106   8.569964   7.342423   7.249568
    24  F    8.687249   9.096197   9.310558   8.329084   8.483990
    25  C    9.342251   9.215011   9.559421   7.908249   8.181910
    26  F    9.411356   9.191967   9.840232   8.241966   8.712097
    27  O    9.316725   8.901172   9.249932   7.259672   7.573043
    28  C    9.922716   9.527305   9.602639   7.513414   7.623533
    29  F    9.607029   9.472720   9.283281   7.441739   7.342498
    30  F   11.243061  10.838979  10.948077   8.824691   8.935042
    31  F    9.818047   9.189687   9.239072   6.904761   7.027315
    32  C   10.686414  10.683796  10.916078   9.314246   9.479140
    33  F   10.964248  11.153422  11.433705  10.086778  10.263772
    34  F   11.723870  11.535290  11.885972  10.077920  10.321376
    35  F   10.956822  11.055283  11.022883   9.446947   9.423748
    36  H    3.745125   3.611181   4.602787   4.145649   4.891424
    37  H    3.948414   4.604565   4.829743   4.734581   5.015543
    38  H    6.239738   6.926115   7.198137   6.812552   7.035012
    39  H    7.339327   7.623657   8.283962   7.484816   7.938709
                   16         17         18         19         20
    16  F    0.000000
    17  F    2.157563   0.000000
    18  C    5.316130   5.072613   0.000000
    19  O    6.584559   6.187181   1.410720   0.000000
    20  C    7.518505   6.915365   2.310923   1.409032   0.000000
    21  N    7.265857   6.307859   2.696931   2.316732   1.428432
    22  C    8.527994   7.383775   4.142361   3.638055   2.461680
    23  F    8.625282   7.458467   4.709243   4.540313   3.381289
    24  F    9.490990   8.534959   4.652661   3.887112   2.511612
    25  C    9.142981   7.733398   5.109722   4.484044   3.543115
    26  F    9.374820   8.070760   5.081015   4.157325   3.410626
    27  O    8.509063   6.872157   5.252326   4.880636   4.259878
    28  C    8.822746   7.045340   6.117011   5.968833   5.279962
    29  F    8.789188   7.156593   5.975702   5.956308   5.102473
    30  F   10.125275   8.292131   7.340546   7.047740   6.266987
    31  F    8.187655   6.247760   6.336664   6.407534   5.968202
    32  C   10.580306   9.131164   6.491751   5.811489   4.694888
    33  F   11.312462  10.036654   6.773921   5.914741   4.681786
    34  F   11.331624   9.739335   7.476155   6.744856   5.764116
    35  F   10.764061   9.279106   6.975542   6.510759   5.329717
    36  H    4.762424   4.802611   1.090482   2.003156   3.228397
    37  H    5.545583   5.537235   1.096250   2.078330   2.570042
    38  H    7.777090   7.365248   2.617406   2.074056   1.096103
    39  H    8.452432   7.790452   3.244598   2.023078   1.094430
                   21         22         23         24         25
    21  N    0.000000
    22  C    1.455605   0.000000
    23  F    2.292443   1.354171   0.000000
    24  F    2.267583   1.369088   2.141716   0.000000
    25  C    2.539640   1.552348   2.422057   2.372130   0.000000
    26  F    2.868760   2.350904   3.563468   2.716730   1.385745
    27  O    3.046345   2.533620   3.088879   3.673505   1.429374
    28  C    3.923421   3.240860   3.208947   4.420702   2.383832
    29  F    3.717543   2.910436   2.339023   4.044743   2.660365
    30  F    4.995134   4.065578   4.045834   5.010580   2.916087
    31  F    4.592433   4.259084   4.185801   5.546608   3.528528
    32  C    3.822738   2.486109   2.889883   2.738567   1.534853
    33  F    4.175972   2.856793   3.372288   2.405233   2.402784
    34  F    4.899549   3.701354   4.159895   3.993288   2.382005
    35  F    4.302783   2.900788   2.637101   3.257592   2.409713
    36  H    3.693695   5.148077   5.766328   5.656898   5.981991
    37  H    3.053750   4.383500   4.724577   4.740425   5.588911
    38  H    2.075632   2.876114   3.459480   2.641733   4.221257
    39  H    2.074592   2.616179   3.763938   2.283261   3.399684
                   26         27         28         29         30
    26  F    0.000000
    27  O    2.196638   0.000000
    28  C    3.475735   1.407270   0.000000
    29  F    3.997003   2.273613   1.338623   0.000000
    30  F    3.875632   2.238261   1.345801   2.183357   0.000000
    31  F    4.437331   2.245229   1.344274   2.194443   2.180295
    32  C    2.342310   2.527346   2.884528   2.970865   2.769347
    33  F    2.715760   3.687353   4.206787   4.139897   4.100485
    34  F    2.777952   2.870416   3.136324   3.642123   2.499579
    35  F    3.555545   3.076816   2.818352   2.416836   2.633406
    36  H    5.814720   6.003775   6.907844   6.880599   8.137675
    37  H    5.706208   5.870028   6.609790   6.252748   7.837518
    38  H    4.271615   5.044302   5.904051   5.494938   6.888472
    39  H    2.929065   4.324976   5.477780   5.437396   6.286088
                   31         32         33         34         35
    31  F    0.000000
    32  C    4.211212   0.000000
    33  F    5.530025   1.353637   0.000000
    34  F    4.330363   1.356794   2.166814   0.000000
    35  F    4.125210   1.349144   2.171547   2.174635   0.000000
    36  H    6.991719   7.416303   7.715225   8.317868   7.964846
    37  H    6.898769   6.845614   7.029350   7.951850   7.187155
    38  H    6.637156   5.175692   5.015956   6.368305   5.626437
    39  H    6.299410   4.397065   4.169793   5.367155   5.238414
                   36         37         38         39
    36  H    0.000000
    37  H    1.789329   0.000000
    38  H    3.571665   2.393568   0.000000
    39  H    4.018134   3.581215   1.785337   0.000000
 Symmetry turned off by external request.
 Stoichiometry    C11H4F18N2O4
 Framework group  C1[X(C11H4F18N2O4)]
 Deg. of freedom   111
 Full point group                 C1      NOp   1
 Rotational constants (GHZ):      0.2762601      0.0587788      0.0528830
 Leave Link  202 at Sun Mar  3 17:59:32 2024, MaxMem=  5368709120 cpu:         0.1
 (Enter /home/k0335/k033513/app/g09/l301.exe)
 Standard basis: 6-31G(d,p) (6D, 7F)
 Ernie: Thresh=  0.10000D-02 Tol=  0.10000D-05 Strict=F.
   545 basis functions,  1008 primitive gaussians,   545 cartesian basis functions
   139 alpha electrons      139 beta electrons
       nuclear repulsion energy      4944.9638817818 Hartrees.
 IExCor=20419 DFT=T Ex+Corr=CAM-B3LYP ExCW=0 ScaHFX=  1.000000
 ScaDFX=  1.000000  1.000000  1.000000  0.810000 ScalE2=  1.000000  1.000000
 IRadAn=      0 IRanWt=     -1 IRanGd=            0 ICorTp=0 IEmpDi=  4
  HFx wShort=  0.000000 wLong=  0.330000 cFull=  0.190000 cShort=  0.000000 cLong=  0.460000
  DFx wShort=  0.000000 wLong=  0.330000 cFull=  0.190000 cShort=  0.000000 cLong=  0.460000
 NAtoms=   39 NActive=   39 NUniq=   39 SFac= 1.00D+00 NAtFMM=   60 NAOKFM=F Big=F
 Integral buffers will be    131072 words long.
 Raffenetti 2 integral format.
 Two-electron integral symmetry is turned off.
 Using the following non-standard input for PCM:
 eps=4.9
 --- end of non-standard input.
 ------------------------------------------------------------------------------
 Polarizable Continuum Model (PCM)
 =================================
 Model                : PCM (using non-symmetric T matrix).
 Atomic radii         : UFF (Universal Force Field).
 Polarization charges : Total charges.
 Charge compensation  : None.
 Solution method      : On-the-fly selection.
 Cavity type          : Scaled VdW (van der Waals Surface) (Alpha=1.100).
 Cavity algorithm     : GePol (No added spheres)
                        Default sphere list used, NSphG=   39.
                        Lebedev-Laikov grids with approx.  5.0 points / Ang**2.
                        Smoothing algorithm: Karplus/York (Gamma=1.0000).
                        Polarization charges: spherical gaussians, with
                                              point-specific exponents (IZeta= 3).
                        Self-potential: point-specific (ISelfS= 7).
                        Self-field    : sphere-specific E.n sum rule (ISelfD= 2).
 Solvent              : Generic,
                        Eps                           =   4.900000
                        Eps(infinity)                 =   0.000000
                        RSolv                         =   0.000000 Ang.
                        Molar volume                  =   0.000000 cm**3/mol
                        Thermal expansion coefficient =   0.000000 K**-1
                        Absolute temperature          = 298.150000 K
                        Numeral density               =   0.000000 Ang**-3
                        Hydrogen bond acidity         =   0.000000
                        Hydrogen bond basicity        =   0.000000
                        Surface tension at interface  =   0.000000 (cal/mol)*Ang**-2
                        Carbon aromaticity            =   0.000000
                        Electronegative halogenicity  =   0.000000
 ------------------------------------------------------------------------------
 GePol: Number of generator spheres                  =      39
 GePol: Total number of spheres                      =      39
 GePol: Number of exposed spheres                    =      38 ( 97.44%)
 GePol: Number of points                             =    3219
 GePol: Average weight of points                     =       0.12
 GePol: Minimum weight of points                     =   0.28D-11
 GePol: Maximum weight of points                     =    0.20577
 GePol: Number of points with low weight             =     147
 GePol: Fraction of low-weight points (<1% of avg)   =       4.57%
 GePol: Cavity surface area                          =    399.624 Ang**2
 GePol: Cavity volume                                =    463.004 Ang**3
 Leave Link  301 at Sun Mar  3 17:59:32 2024, MaxMem=  5368709120 cpu:         0.9
 (Enter /home/k0335/k033513/app/g09/l302.exe)
 NPDir=0 NMtPBC=     1 NCelOv=     1 NCel=       1 NClECP=     1 NCelD=      1
         NCelK=      1 NCelE2=     1 NClLst=     1 CellRange=     0.0.
 One-electron integrals computed using PRISM.
 NBasis=   545 RedAO= T EigKep=  1.18D-03  NBF=   545
 NBsUse=   545 1.00D-06 EigRej= -1.00D+00 NBFU=   545
 Precomputing XC quadrature grid using
 IXCGrd= 4 IRadAn=           0 IRanWt=          -1 IRanGd=           0 AccXCQ= 0.00D+00.
 Generated NRdTot=       0 NPtTot=           0 NUsed=           0 NTot=          32
 NSgBfM=   529   530   530   530   530 MxSgAt=    39 MxSgA2=    39.
 Leave Link  302 at Sun Mar  3 17:59:32 2024, MaxMem=  5368709120 cpu:        11.1
 (Enter /home/k0335/k033513/app/g09/l303.exe)
 DipDrv:  MaxL=1.
 Leave Link  303 at Sun Mar  3 17:59:32 2024, MaxMem=  5368709120 cpu:         0.9
 (Enter /home/k0335/k033513/app/g09/l401.exe)
 ExpMin= 1.61D-01 ExpMax= 7.00D+03 ExpMxC= 1.05D+03 IAcc=1 IRadAn=         1 AccDes= 0.00D+00
 Harris functional with IExCor=20419 and IRadAn=       1 diagonalized for initial guess.
 HarFok:  IExCor=20419 AccDes= 0.00D+00 IRadAn=         1 IDoV= 1 UseB2=F ITyADJ=14
 ICtDFT=  3500011 ScaDFX=  1.000000  1.000000  1.000000  1.000000
 FoFCou: FMM=F IPFlag=           0 FMFlag=      100000 FMFlg1=           0
         NFxFlg=           0 DoJE=T BraDBF=F KetDBF=T FulRan=T
         wScrn=  0.000000 ICntrl=     500 IOpCl=  0 I1Cent=   200000004 NGrid=           0
         NMat0=    1 NMatS0=      1 NMatT0=    0 NMatD0=    1 NMtDS0=    0 NMtDT0=    0
 Symmetry not used in FoFCou.
 Harris En= -2550.55497202963    
 JPrj=0 DoOrth=F DoCkMO=F.
 Leave Link  401 at Sun Mar  3 17:59:33 2024, MaxMem=  5368709120 cpu:        12.2
 (Enter /home/k0335/k033513/app/g09/l502.exe)
 Closed shell SCF:
 Using DIIS extrapolation, IDIIS=  1040.
 Two-electron integral symmetry not used.
 IVT=      926053 IEndB=      926053 NGot=  5368709120 MDV=  5368097278
 LenX=  5368097278 LenY=  5367799708
 Requested convergence on RMS density matrix=1.00D-08 within 128 cycles.
 Requested convergence on MAX density matrix=1.00D-06.
 Requested convergence on             energy=1.00D-06.
 No special actions if energy rises.
 Fock matrices will be formed incrementally for  20 cycles.

 Cycle   1  Pass 1  IDiag  1:
 FoFJK:  IHMeth= 1 ICntrl=       0 DoSepK=T KAlg= 0 I1Cent=   0 FoldK=F
 IRaf=         1 NMat=   1 IRICut=       1 DoRegI=T DoRafI=F ISym2E= 0.
 FoFCou: FMM=F IPFlag=           0 FMFlag=      100000 FMFlg1=           0
         NFxFlg=           0 DoJE=T BraDBF=F KetDBF=F FulRan=T
         wScrn=  0.000000 ICntrl=     500 IOpCl=  0 I1Cent=           0 NGrid=           0
         NMat0=    1 NMatS0=      1 NMatT0=    0 NMatD0=    1 NMtDS0=    0 NMtDT0=    0
 Symmetry not used in FoFCou.
 Inv3:  Mode=1 IEnd=    31085883.
 Iteration    1 A*A^-1 deviation from unit magnitude is 6.66D-15 for    128.
 Iteration    1 A*A^-1 deviation from orthogonality  is 4.14D-15 for   3215   2950.
 Iteration    1 A^-1*A deviation from unit magnitude is 6.44D-15 for   3198.
 Iteration    1 A^-1*A deviation from orthogonality  is 1.17D-13 for   3012   3001.
 E= -2627.53016030266    
 DIIS: error= 4.20D-02 at cycle   1 NSaved=   1.
 NSaved= 1 IEnMin= 1 EnMin= -2627.53016030266     IErMin= 1 ErrMin= 4.20D-02
 ErrMax= 4.20D-02  0.00D+00 EMaxC= 1.00D-01 BMatC= 2.15D+00 BMatP= 2.15D+00
 IDIUse=3 WtCom= 5.80D-01 WtEn= 4.20D-01
 Coeff-Com:  0.100D+01
 Coeff-En:   0.100D+01
 Coeff:      0.100D+01
 Gap=     0.480 Goal=   None    Shift=    0.000
 GapD=    0.480 DampG=2.000 DampE=0.500 DampFc=1.0000 IDamp=-1.
 RMSDP=2.99D-03 MaxDP=9.10D-02              OVMax= 1.63D-01

 Cycle   2  Pass 1  IDiag  1:
 RMSU=  2.99D-03    CP:  1.00D+00
 E= -2627.97490030045     Delta-E=       -0.444739997790 Rises=F Damp=F
 DIIS: error= 1.85D-02 at cycle   2 NSaved=   2.
 NSaved= 2 IEnMin= 2 EnMin= -2627.97490030045     IErMin= 2 ErrMin= 1.85D-02
 ErrMax= 1.85D-02  0.00D+00 EMaxC= 1.00D-01 BMatC= 6.58D-01 BMatP= 2.15D+00
 IDIUse=3 WtCom= 8.15D-01 WtEn= 1.85D-01
 Coeff-Com:  0.336D+00 0.664D+00
 Coeff-En:   0.241D+00 0.759D+00
 Coeff:      0.318D+00 0.682D+00
 Gap=     0.454 Goal=   None    Shift=    0.000
 RMSDP=1.26D-03 MaxDP=6.76D-02 DE=-4.45D-01 OVMax= 7.38D-02

 Cycle   3  Pass 1  IDiag  1:
 RMSU=  7.55D-04    CP:  1.00D+00  6.61D-01
 E= -2628.28320522182     Delta-E=       -0.308304921366 Rises=F Damp=F
 DIIS: error= 6.73D-03 at cycle   3 NSaved=   3.
 NSaved= 3 IEnMin= 3 EnMin= -2628.28320522182     IErMin= 3 ErrMin= 6.73D-03
 ErrMax= 6.73D-03  0.00D+00 EMaxC= 1.00D-01 BMatC= 1.12D-01 BMatP= 6.58D-01
 IDIUse=3 WtCom= 9.33D-01 WtEn= 6.73D-02
 Coeff-Com:  0.820D-01 0.324D+00 0.594D+00
 Coeff-En:   0.000D+00 0.658D-01 0.934D+00
 Coeff:      0.764D-01 0.307D+00 0.616D+00
 Gap=     0.406 Goal=   None    Shift=    0.000
 RMSDP=5.41D-04 MaxDP=4.50D-02 DE=-3.08D-01 OVMax= 5.89D-02

 Cycle   4  Pass 1  IDiag  1:
 RMSU=  3.04D-04    CP:  9.99D-01  7.31D-01  4.82D-01
 E= -2628.34613324283     Delta-E=       -0.062928021018 Rises=F Damp=F
 DIIS: error= 1.98D-03 at cycle   4 NSaved=   4.
 NSaved= 4 IEnMin= 4 EnMin= -2628.34613324283     IErMin= 4 ErrMin= 1.98D-03
 ErrMax= 1.98D-03  0.00D+00 EMaxC= 1.00D-01 BMatC= 1.05D-02 BMatP= 1.12D-01
 IDIUse=3 WtCom= 9.80D-01 WtEn= 1.98D-02
 Coeff-Com:  0.278D-02 0.756D-01 0.302D+00 0.620D+00
 Coeff-En:   0.000D+00 0.000D+00 0.321D-01 0.968D+00
 Coeff:      0.273D-02 0.741D-01 0.297D+00 0.627D+00
 Gap=     0.399 Goal=   None    Shift=    0.000
 RMSDP=1.63D-04 MaxDP=1.48D-02 DE=-6.29D-02 OVMax= 1.66D-02

 Cycle   5  Pass 1  IDiag  1:
 RMSU=  6.82D-05    CP:  9.99D-01  7.33D-01  6.29D-01  6.79D-01
 E= -2628.35336241905     Delta-E=       -0.007229176214 Rises=F Damp=F
 DIIS: error= 5.12D-04 at cycle   5 NSaved=   5.
 NSaved= 5 IEnMin= 5 EnMin= -2628.35336241905     IErMin= 5 ErrMin= 5.12D-04
 ErrMax= 5.12D-04  0.00D+00 EMaxC= 1.00D-01 BMatC= 3.70D-04 BMatP= 1.05D-02
 IDIUse=3 WtCom= 9.95D-01 WtEn= 5.12D-03
 Coeff-Com: -0.426D-03 0.316D-01 0.145D+00 0.336D+00 0.487D+00
 Coeff-En:   0.000D+00 0.000D+00 0.000D+00 0.000D+00 0.100D+01
 Coeff:     -0.424D-03 0.314D-01 0.144D+00 0.335D+00 0.490D+00
 Gap=     0.390 Goal=   None    Shift=    0.000
 RMSDP=3.28D-05 MaxDP=3.43D-03 DE=-7.23D-03 OVMax= 5.27D-03

 Cycle   6  Pass 1  IDiag  1:
 RMSU=  1.84D-05    CP:  9.99D-01  7.34D-01  6.24D-01  7.00D-01  6.28D-01
 E= -2628.35362635784     Delta-E=       -0.000263938797 Rises=F Damp=F
 DIIS: error= 1.06D-04 at cycle   6 NSaved=   6.
 NSaved= 6 IEnMin= 6 EnMin= -2628.35362635784     IErMin= 6 ErrMin= 1.06D-04
 ErrMax= 1.06D-04  0.00D+00 EMaxC= 1.00D-01 BMatC= 1.67D-05 BMatP= 3.70D-04
 IDIUse=3 WtCom= 9.99D-01 WtEn= 1.06D-03
 Coeff-Com: -0.522D-03 0.101D-03 0.791D-02 0.272D-01 0.177D+00 0.789D+00
 Coeff-En:   0.000D+00 0.000D+00 0.000D+00 0.000D+00 0.000D+00 0.100D+01
 Coeff:     -0.521D-03 0.101D-03 0.790D-02 0.271D-01 0.176D+00 0.789D+00
 Gap=     0.391 Goal=   None    Shift=    0.000
 RMSDP=9.97D-06 MaxDP=8.83D-04 DE=-2.64D-04 OVMax= 9.00D-04

 Cycle   7  Pass 1  IDiag  1:
 RMSU=  6.63D-06    CP:  9.99D-01  7.34D-01  6.28D-01  7.09D-01  7.16D-01
                    CP:  9.64D-01
 E= -2628.35363907582     Delta-E=       -0.000012717974 Rises=F Damp=F
 DIIS: error= 3.70D-05 at cycle   7 NSaved=   7.
 NSaved= 7 IEnMin= 7 EnMin= -2628.35363907582     IErMin= 7 ErrMin= 3.70D-05
 ErrMax= 3.70D-05  0.00D+00 EMaxC= 1.00D-01 BMatC= 2.18D-06 BMatP= 1.67D-05
 IDIUse=1 WtCom= 1.00D+00 WtEn= 0.00D+00
 Coeff-Com: -0.154D-03-0.317D-02-0.109D-01-0.218D-01 0.334D-01 0.339D+00
 Coeff-Com:  0.664D+00
 Coeff:     -0.154D-03-0.317D-02-0.109D-01-0.218D-01 0.334D-01 0.339D+00
 Coeff:      0.664D+00
 Gap=     0.391 Goal=   None    Shift=    0.000
 RMSDP=2.85D-06 MaxDP=2.14D-04 DE=-1.27D-05 OVMax= 5.10D-04

 Cycle   8  Pass 1  IDiag  1:
 RMSU=  1.77D-06    CP:  9.99D-01  7.35D-01  6.28D-01  7.09D-01  7.29D-01
                    CP:  1.03D+00  7.73D-01
 E= -2628.35364090728     Delta-E=       -0.000001831465 Rises=F Damp=F
 DIIS: error= 8.47D-06 at cycle   8 NSaved=   8.
 NSaved= 8 IEnMin= 8 EnMin= -2628.35364090728     IErMin= 8 ErrMin= 8.47D-06
 ErrMax= 8.47D-06  0.00D+00 EMaxC= 1.00D-01 BMatC= 1.54D-07 BMatP= 2.18D-06
 IDIUse=1 WtCom= 1.00D+00 WtEn= 0.00D+00
 Coeff-Com: -0.141D-04-0.120D-02-0.469D-02-0.105D-01-0.957D-03 0.499D-01
 Coeff-Com:  0.248D+00 0.720D+00
 Coeff:     -0.141D-04-0.120D-02-0.469D-02-0.105D-01-0.957D-03 0.499D-01
 Coeff:      0.248D+00 0.720D+00
 Gap=     0.391 Goal=   None    Shift=    0.000
 RMSDP=9.21D-07 MaxDP=7.03D-05 DE=-1.83D-06 OVMax= 7.69D-05

 Cycle   9  Pass 1  IDiag  1:
 RMSU=  5.87D-07    CP:  9.99D-01  7.35D-01  6.29D-01  7.09D-01  7.36D-01
                    CP:  1.05D+00  8.36D-01  1.00D+00
 E= -2628.35364103200     Delta-E=       -0.000000124717 Rises=F Damp=F
 DIIS: error= 2.64D-06 at cycle   9 NSaved=   9.
 NSaved= 9 IEnMin= 9 EnMin= -2628.35364103200     IErMin= 9 ErrMin= 2.64D-06
 ErrMax= 2.64D-06  0.00D+00 EMaxC= 1.00D-01 BMatC= 1.82D-08 BMatP= 1.54D-07
 IDIUse=1 WtCom= 1.00D+00 WtEn= 0.00D+00
 Coeff-Com:  0.133D-04-0.100D-03-0.557D-03-0.168D-02-0.415D-02-0.256D-01
 Coeff-Com:  0.248D-01 0.284D+00 0.724D+00
 Coeff:      0.133D-04-0.100D-03-0.557D-03-0.168D-02-0.415D-02-0.256D-01
 Coeff:      0.248D-01 0.284D+00 0.724D+00
 Gap=     0.391 Goal=   None    Shift=    0.000
 RMSDP=3.46D-07 MaxDP=2.60D-05 DE=-1.25D-07 OVMax= 4.29D-05

 Cycle  10  Pass 1  IDiag  1:
 RMSU=  2.02D-07    CP:  9.99D-01  7.35D-01  6.29D-01  7.09D-01  7.38D-01
                    CP:  1.05D+00  8.60D-01  1.07D+00  9.68D-01
 E= -2628.35364104919     Delta-E=       -0.000000017187 Rises=F Damp=F
 DIIS: error= 7.80D-07 at cycle  10 NSaved=  10.
 NSaved=10 IEnMin=10 EnMin= -2628.35364104919     IErMin=10 ErrMin= 7.80D-07
 ErrMax= 7.80D-07  0.00D+00 EMaxC= 1.00D-01 BMatC= 1.35D-09 BMatP= 1.82D-08
 IDIUse=1 WtCom= 1.00D+00 WtEn= 0.00D+00
 Coeff-Com:  0.566D-05 0.106D-03 0.368D-03 0.673D-03-0.768D-03-0.139D-01
 Coeff-Com: -0.174D-01 0.587D-03 0.219D+00 0.812D+00
 Coeff:      0.566D-05 0.106D-03 0.368D-03 0.673D-03-0.768D-03-0.139D-01
 Coeff:     -0.174D-01 0.587D-03 0.219D+00 0.812D+00
 Gap=     0.391 Goal=   None    Shift=    0.000
 RMSDP=1.16D-07 MaxDP=9.41D-06 DE=-1.72D-08 OVMax= 1.96D-05

 Cycle  11  Pass 1  IDiag  1:
 RMSU=  5.98D-08    CP:  9.99D-01  7.35D-01  6.29D-01  7.09D-01  7.39D-01
                    CP:  1.05D+00  8.66D-01  1.10D+00  1.06D+00  9.94D-01
 E= -2628.35364105053     Delta-E=       -0.000000001344 Rises=F Damp=F
 DIIS: error= 2.43D-07 at cycle  11 NSaved=  11.
 NSaved=11 IEnMin=11 EnMin= -2628.35364105053     IErMin=11 ErrMin= 2.43D-07
 ErrMax= 2.43D-07  0.00D+00 EMaxC= 1.00D-01 BMatC= 1.24D-10 BMatP= 1.35D-09
 IDIUse=1 WtCom= 1.00D+00 WtEn= 0.00D+00
 Coeff-Com:  0.110D-05 0.428D-04 0.163D-03 0.336D-03 0.134D-03-0.320D-02
 Coeff-Com: -0.665D-02-0.172D-01 0.281D-01 0.269D+00 0.730D+00
 Coeff:      0.110D-05 0.428D-04 0.163D-03 0.336D-03 0.134D-03-0.320D-02
 Coeff:     -0.665D-02-0.172D-01 0.281D-01 0.269D+00 0.730D+00
 Gap=     0.391 Goal=   None    Shift=    0.000
 RMSDP=3.00D-08 MaxDP=2.09D-06 DE=-1.34D-09 OVMax= 4.37D-06

 Cycle  12  Pass 1  IDiag  1:
 RMSU=  1.84D-08    CP:  9.99D-01  7.35D-01  6.29D-01  7.09D-01  7.39D-01
                    CP:  1.05D+00  8.67D-01  1.11D+00  1.08D+00  1.06D+00
                    CP:  1.03D+00
 E= -2628.35364105066     Delta-E=       -0.000000000133 Rises=F Damp=F
 DIIS: error= 1.54D-07 at cycle  12 NSaved=  12.
 NSaved=12 IEnMin=12 EnMin= -2628.35364105066     IErMin=12 ErrMin= 1.54D-07
 ErrMax= 1.54D-07  0.00D+00 EMaxC= 1.00D-01 BMatC= 2.76D-11 BMatP= 1.24D-10
 IDIUse=1 WtCom= 1.00D+00 WtEn= 0.00D+00
 Coeff-Com: -0.399D-06 0.417D-05 0.224D-04 0.589D-04 0.228D-03 0.612D-03
 Coeff-Com: -0.282D-03-0.877D-02-0.227D-01-0.524D-02 0.338D+00 0.698D+00
 Coeff:     -0.399D-06 0.417D-05 0.224D-04 0.589D-04 0.228D-03 0.612D-03
 Coeff:     -0.282D-03-0.877D-02-0.227D-01-0.524D-02 0.338D+00 0.698D+00
 Gap=     0.391 Goal=   None    Shift=    0.000
 RMSDP=1.31D-08 MaxDP=8.10D-07 DE=-1.33D-10 OVMax= 1.91D-06

 Cycle  13  Pass 1  IDiag  1:
 RMSU=  6.10D-09    CP:  9.99D-01  7.35D-01  6.29D-01  7.09D-01  7.39D-01
                    CP:  1.05D+00  8.67D-01  1.11D+00  1.09D+00  1.09D+00
                    CP:  1.13D+00  8.96D-01
 E= -2628.35364105092     Delta-E=       -0.000000000254 Rises=F Damp=F
 DIIS: error= 2.71D-08 at cycle  13 NSaved=  13.
 NSaved=13 IEnMin=13 EnMin= -2628.35364105092     IErMin=13 ErrMin= 2.71D-08
 ErrMax= 2.71D-08  0.00D+00 EMaxC= 1.00D-01 BMatC= 1.59D-12 BMatP= 2.76D-11
 IDIUse=1 WtCom= 1.00D+00 WtEn= 0.00D+00
 Coeff-Com: -0.235D-06-0.318D-05-0.948D-05-0.176D-04 0.640D-04 0.467D-03
 Coeff-Com:  0.670D-03-0.954D-03-0.923D-02-0.286D-01 0.191D-01 0.195D+00
 Coeff-Com:  0.824D+00
 Coeff:     -0.235D-06-0.318D-05-0.948D-05-0.176D-04 0.640D-04 0.467D-03
 Coeff:      0.670D-03-0.954D-03-0.923D-02-0.286D-01 0.191D-01 0.195D+00
 Coeff:      0.824D+00
 Gap=     0.391 Goal=   None    Shift=    0.000
 RMSDP=4.05D-09 MaxDP=2.74D-07 DE=-2.54D-10 OVMax= 6.55D-07

 Error on total polarization charges =  0.00164
 SCF Done:  E(RCAM-B3LYP) =  -2628.35364105     A.U. after   13 cycles
            NFock= 13  Conv=0.40D-08     -V/T= 2.0072
 KE= 2.609528162427D+03 PE=-1.611001072342D+04 EE= 5.927165038156D+03
 Leave Link  502 at Sun Mar  3 18:00:15 2024, MaxMem=  5368709120 cpu:       949.2
 (Enter /home/k0335/k033513/app/g09/l601.exe)
 Copying SCF densities to generalized density rwf, IOpCl= 0 IROHF=0.

 **********************************************************************

            Population analysis using the SCF density.

 **********************************************************************

 Alpha  occ. eigenvalues --  -24.84262 -24.83915 -24.83861 -24.83831 -24.83379
 Alpha  occ. eigenvalues --  -24.83327 -24.83109 -24.83042 -24.82976 -24.82850
 Alpha  occ. eigenvalues --  -24.82736 -24.82695 -24.82694 -24.82535 -24.82247
 Alpha  occ. eigenvalues --  -24.81610 -24.81523 -24.81456 -19.33775 -19.32317
 Alpha  occ. eigenvalues --  -19.27070 -19.20724 -14.48067 -14.48032 -10.60096
 Alpha  occ. eigenvalues --  -10.58776 -10.55790 -10.54882 -10.51695 -10.51669
 Alpha  occ. eigenvalues --  -10.49468 -10.48380 -10.43003 -10.37365 -10.37339
 Alpha  occ. eigenvalues --   -1.43724  -1.42514  -1.41932  -1.41270  -1.38651
 Alpha  occ. eigenvalues --   -1.37836  -1.36248  -1.34663  -1.34125  -1.33714
 Alpha  occ. eigenvalues --   -1.33054  -1.32928  -1.32541  -1.32329  -1.32122
 Alpha  occ. eigenvalues --   -1.31751  -1.31179  -1.30769  -1.21147  -1.20047
 Alpha  occ. eigenvalues --   -1.19698  -1.15207  -1.06227  -1.05258  -0.93417
 Alpha  occ. eigenvalues --   -0.92260  -0.85227  -0.84576  -0.82498  -0.81685
 Alpha  occ. eigenvalues --   -0.79760  -0.79076  -0.76373  -0.75057  -0.73385
 Alpha  occ. eigenvalues --   -0.73224  -0.71700  -0.71069  -0.70888  -0.70393
 Alpha  occ. eigenvalues --   -0.70173  -0.68978  -0.68763  -0.68644  -0.68252
 Alpha  occ. eigenvalues --   -0.67812  -0.67402  -0.66945  -0.66326  -0.65330
 Alpha  occ. eigenvalues --   -0.64147  -0.63967  -0.63179  -0.62444  -0.60678
 Alpha  occ. eigenvalues --   -0.60215  -0.58858  -0.57798  -0.57433  -0.57254
 Alpha  occ. eigenvalues --   -0.57024  -0.56542  -0.56490  -0.56408  -0.55782
 Alpha  occ. eigenvalues --   -0.55640  -0.55182  -0.55077  -0.54917  -0.54384
 Alpha  occ. eigenvalues --   -0.54073  -0.53702  -0.53150  -0.53078  -0.52920
 Alpha  occ. eigenvalues --   -0.52738  -0.52679  -0.52243  -0.51847  -0.51694
 Alpha  occ. eigenvalues --   -0.50921  -0.50881  -0.50781  -0.50503  -0.50393
 Alpha  occ. eigenvalues --   -0.50074  -0.49940  -0.49614  -0.49486  -0.49189
 Alpha  occ. eigenvalues --   -0.49030  -0.48550  -0.48543  -0.48440  -0.47671
 Alpha  occ. eigenvalues --   -0.47415  -0.46360  -0.44501  -0.44064  -0.42128
 Alpha  occ. eigenvalues --   -0.38446  -0.35965  -0.35055  -0.34625
 Alpha virt. eigenvalues --    0.04467   0.06115   0.07436   0.07868   0.10134
 Alpha virt. eigenvalues --    0.13178   0.14992   0.16074   0.17384   0.18053
 Alpha virt. eigenvalues --    0.18308   0.18577   0.18745   0.19377   0.20352
 Alpha virt. eigenvalues --    0.20931   0.21470   0.22228   0.22357   0.22769
 Alpha virt. eigenvalues --    0.23613   0.23770   0.24583   0.25041   0.25271
 Alpha virt. eigenvalues --    0.25541   0.26036   0.27079   0.27341   0.27821
 Alpha virt. eigenvalues --    0.29314   0.29920   0.30930   0.31588   0.32933
 Alpha virt. eigenvalues --    0.33437   0.35099   0.35745   0.42373   0.46187
 Alpha virt. eigenvalues --    0.47432   0.48462   0.49480   0.49973   0.50570
 Alpha virt. eigenvalues --    0.51539   0.51739   0.52319   0.53375   0.54666
 Alpha virt. eigenvalues --    0.55222   0.55785   0.56288   0.56469   0.57108
 Alpha virt. eigenvalues --    0.57655   0.57920   0.58915   0.59427   0.60512
 Alpha virt. eigenvalues --    0.62059   0.62962   0.63952   0.65548   0.67052
 Alpha virt. eigenvalues --    0.68491   0.69458   0.70027   0.71435   0.72372
 Alpha virt. eigenvalues --    0.73924   0.76207   0.77458   0.81290   0.82218
 Alpha virt. eigenvalues --    0.83422   0.84095   0.84719   0.87682   0.88100
 Alpha virt. eigenvalues --    0.90131   0.91726   0.91958   0.92557   0.92840
 Alpha virt. eigenvalues --    0.95022   0.95377   0.97015   0.97313   0.98383
 Alpha virt. eigenvalues --    1.00275   1.00491   1.01144   1.02469   1.05824
 Alpha virt. eigenvalues --    1.06170   1.07119   1.07821   1.07999   1.09374
 Alpha virt. eigenvalues --    1.09682   1.10813   1.11603   1.12554   1.13294
 Alpha virt. eigenvalues --    1.13500   1.14349   1.15290   1.15681   1.16490
 Alpha virt. eigenvalues --    1.17519   1.17994   1.18591   1.19844   1.20340
 Alpha virt. eigenvalues --    1.20869   1.21990   1.22340   1.23334   1.23610
 Alpha virt. eigenvalues --    1.24269   1.25468   1.26544   1.27239   1.27584
 Alpha virt. eigenvalues --    1.28475   1.29863   1.30272   1.31096   1.32084
 Alpha virt. eigenvalues --    1.32993   1.33607   1.33808   1.34131   1.34633
 Alpha virt. eigenvalues --    1.34973   1.36351   1.36706   1.36955   1.37619
 Alpha virt. eigenvalues --    1.38259   1.38863   1.39526   1.39756   1.40593
 Alpha virt. eigenvalues --    1.40768   1.41279   1.41868   1.42282   1.42747
 Alpha virt. eigenvalues --    1.43020   1.43512   1.44139   1.44658   1.45519
 Alpha virt. eigenvalues --    1.45944   1.46786   1.46909   1.48695   1.50338
 Alpha virt. eigenvalues --    1.50753   1.51660   1.52085   1.53083   1.54642
 Alpha virt. eigenvalues --    1.54848   1.55743   1.56073   1.57484   1.57860
 Alpha virt. eigenvalues --    1.58207   1.58879   1.60707   1.61458   1.61792
 Alpha virt. eigenvalues --    1.62750   1.64316   1.65956   1.66316   1.66538
 Alpha virt. eigenvalues --    1.67853   1.69531   1.69636   1.70890   1.71452
 Alpha virt. eigenvalues --    1.72503   1.73077   1.73918   1.74987   1.75436
 Alpha virt. eigenvalues --    1.75801   1.76652   1.76913   1.77621   1.79227
 Alpha virt. eigenvalues --    1.79857   1.80678   1.81184   1.82411   1.82654
 Alpha virt. eigenvalues --    1.83104   1.83901   1.84574   1.84733   1.85587
 Alpha virt. eigenvalues --    1.85870   1.86379   1.87140   1.87249   1.88314
 Alpha virt. eigenvalues --    1.88731   1.89020   1.89708   1.90421   1.90671
 Alpha virt. eigenvalues --    1.90859   1.91318   1.92060   1.92404   1.92837
 Alpha virt. eigenvalues --    1.93566   1.93832   1.93988   1.94813   1.95758
 Alpha virt. eigenvalues --    1.96124   1.96455   1.97189   1.97529   1.98157
 Alpha virt. eigenvalues --    1.98746   1.99382   1.99899   2.00302   2.00817
 Alpha virt. eigenvalues --    2.01125   2.01714   2.02119   2.02788   2.03071
 Alpha virt. eigenvalues --    2.03290   2.03489   2.03908   2.04103   2.04855
 Alpha virt. eigenvalues --    2.05065   2.05498   2.05682   2.06420   2.07383
 Alpha virt. eigenvalues --    2.07564   2.08433   2.08680   2.09173   2.09737
 Alpha virt. eigenvalues --    2.10063   2.10922   2.11160   2.12010   2.12192
 Alpha virt. eigenvalues --    2.12788   2.13102   2.15063   2.15793   2.15969
 Alpha virt. eigenvalues --    2.16935   2.17185   2.19419   2.20069   2.20386
 Alpha virt. eigenvalues --    2.20613   2.21722   2.22293   2.23043   2.24128
 Alpha virt. eigenvalues --    2.24550   2.27173   2.27508   2.28740   2.29155
 Alpha virt. eigenvalues --    2.30541   2.30994   2.31656   2.33611   2.35564
 Alpha virt. eigenvalues --    2.38115   2.38951   2.39956   2.40047   2.41601
 Alpha virt. eigenvalues --    2.42438   2.44189   2.44570   2.44878   2.45974
 Alpha virt. eigenvalues --    2.47714   2.48020   2.49315   2.50438   2.51315
 Alpha virt. eigenvalues --    2.52350   2.52666   2.55229   2.55783   2.58050
 Alpha virt. eigenvalues --    2.59151   2.60466   2.61698   2.63548   2.66227
 Alpha virt. eigenvalues --    2.67947   2.68355   2.69155   2.70422   2.72934
 Alpha virt. eigenvalues --    2.74054   2.74198   2.75269   2.76960   2.77902
 Alpha virt. eigenvalues --    2.78919   2.79908   2.80944   2.82913   2.83826
 Alpha virt. eigenvalues --    2.85591   2.86151   2.86663   2.88086   2.88655
 Alpha virt. eigenvalues --    2.90266   2.91091   2.91348   2.92818   2.94184
 Alpha virt. eigenvalues --    2.95392   2.96311   2.98360   2.99394   3.00187
 Alpha virt. eigenvalues --    3.02458   3.03922   3.04971   3.05659   3.06805
 Alpha virt. eigenvalues --    3.07070   3.07558   3.08080   3.08391   3.09589
 Alpha virt. eigenvalues --    3.10335   3.13553   3.14627   3.15767   3.17077
 Alpha virt. eigenvalues --    3.19204   3.21166   3.21426   3.24577   3.26553
 Alpha virt. eigenvalues --    3.27365   3.29530   3.31103   3.31708   3.33437
 Alpha virt. eigenvalues --    3.34114   3.35769   3.37948   3.40008   3.51084
 Alpha virt. eigenvalues --    3.53746   4.05429   4.11397   4.14210   4.21750
 Alpha virt. eigenvalues --    4.25119   4.29270   4.32031   4.33884   4.44269
 Alpha virt. eigenvalues --    4.46393   4.48024   4.48880   4.53662   4.59666
 Alpha virt. eigenvalues --    4.63825   4.69627   4.72682   4.76518   4.79525
 Alpha virt. eigenvalues --    4.80903   4.94043   4.96259   5.04899   5.16038
 Alpha virt. eigenvalues --    5.22696   5.28658   5.40957   5.45504   5.61595
 Alpha virt. eigenvalues --    5.63000   5.69782   6.16290   6.29496   6.66214
 Alpha virt. eigenvalues --    6.92288
          Condensed to atoms (all electrons):
               1          2          3          4          5          6
     1  O    8.135661   0.568825  -0.087550   0.016147  -0.003685  -0.005642
     2  C    0.568825   4.112241   0.218973  -0.001280   0.008878   0.003666
     3  N   -0.087550   0.218973   7.449325   0.224639  -0.068549  -0.049564
     4  C    0.016147  -0.001280   0.224639   4.291180   0.266787   0.257651
     5  F   -0.003685   0.008878  -0.068549   0.266787   9.133971  -0.036240
     6  F   -0.005642   0.003666  -0.049564   0.257651  -0.036240   9.120783
     7  C    0.000234   0.003467  -0.029566   0.235576  -0.038353  -0.022407
     8  F    0.000000   0.000063  -0.000615  -0.016775   0.000323  -0.000496
     9  O    0.000000  -0.000130  -0.002334  -0.025439   0.001761   0.000607
    10  C    0.000000   0.000004  -0.000060   0.000977  -0.000015   0.000015
    11  F    0.000000   0.000000   0.000001  -0.000051   0.000000   0.000000
    12  F    0.000000   0.000000  -0.000002   0.000306   0.000000   0.000000
    13  F    0.000000   0.000000   0.000000  -0.000149   0.000001   0.000000
    14  C   -0.000006  -0.000064   0.002573  -0.023351   0.002315   0.002549
    15  F    0.000000   0.000004   0.000007   0.004992   0.000019  -0.000497
    16  F    0.000000   0.000000  -0.000008   0.001438   0.000000   0.000000
    17  F    0.000000   0.000004   0.000015   0.001525  -0.000248  -0.004654
    18  C    0.001810  -0.020861   0.210343  -0.023134   0.000387   0.001421
    19  O    0.000020   0.000053  -0.053646   0.001746  -0.000008  -0.000009
    20  C    0.002599  -0.018045  -0.005403   0.000170  -0.000007  -0.000004
    21  N   -0.095932   0.254878  -0.095090   0.001711  -0.000030   0.000040
    22  C    0.019578  -0.010680   0.002674  -0.000031   0.000005   0.000007
    23  F   -0.005030   0.008026   0.000032   0.000008   0.000000   0.000000
    24  F    0.000015   0.001214  -0.000026   0.000000   0.000000   0.000000
    25  C   -0.004493  -0.006152  -0.000282   0.000000   0.000000  -0.000001
    26  F    0.000011   0.000120   0.000001   0.000000   0.000000   0.000000
    27  O   -0.007190   0.004176  -0.000124   0.000013   0.000000  -0.000001
    28  C    0.009485   0.000286   0.000037   0.000002   0.000000  -0.000003
    29  F   -0.001366  -0.000039  -0.000004   0.000001   0.000000   0.000000
    30  F   -0.000004   0.000008   0.000000   0.000000   0.000000   0.000000
    31  F   -0.000274   0.000211   0.000000  -0.000002   0.000000   0.000000
    32  C   -0.000003   0.000194   0.000000   0.000000   0.000000   0.000000
    33  F    0.000000   0.000000   0.000000   0.000000   0.000000   0.000000
    34  F    0.000000   0.000000   0.000000   0.000000   0.000000   0.000000
    35  F    0.000000  -0.000003   0.000000   0.000000   0.000000   0.000000
    36  H   -0.000071   0.001318  -0.038382  -0.010509   0.000049   0.000278
    37  H    0.000095   0.001593  -0.069875   0.003637   0.000957  -0.000074
    38  H    0.000030   0.001761  -0.001315   0.000096  -0.000004   0.000000
    39  H   -0.000078   0.000700  -0.000148   0.000003   0.000000   0.000000
               7          8          9         10         11         12
     1  O    0.000234   0.000000   0.000000   0.000000   0.000000   0.000000
     2  C    0.003467   0.000063  -0.000130   0.000004   0.000000   0.000000
     3  N   -0.029566  -0.000615  -0.002334  -0.000060   0.000001  -0.000002
     4  C    0.235576  -0.016775  -0.025439   0.000977  -0.000051   0.000306
     5  F   -0.038353   0.000323   0.001761  -0.000015   0.000000   0.000000
     6  F   -0.022407  -0.000496   0.000607   0.000015   0.000000   0.000000
     7  C    5.032095   0.193586   0.121970  -0.001019   0.000741   0.014022
     8  F    0.193586   9.142268  -0.046570  -0.001085  -0.000020  -0.001857
     9  O    0.121970  -0.046570   8.394228   0.230244  -0.040228  -0.045433
    10  C   -0.001019  -0.001085   0.230244   3.819547   0.339353   0.295399
    11  F    0.000741  -0.000020  -0.040228   0.339353   9.013581  -0.036564
    12  F    0.014022  -0.001857  -0.045433   0.295399  -0.036564   9.054635
    13  F   -0.009163  -0.000010  -0.046597   0.304763  -0.037569  -0.033240
    14  C    0.218472  -0.010462  -0.022766  -0.002674  -0.000016  -0.004518
    15  F   -0.040361   0.000288   0.000468  -0.000298   0.000000   0.000013
    16  F   -0.032005  -0.000240  -0.001847   0.012809  -0.000004  -0.002358
    17  F   -0.029170  -0.000311   0.000506   0.000056   0.000000   0.000000
    18  C   -0.000406  -0.005572  -0.001453  -0.000124  -0.000031  -0.000011
    19  O   -0.000236   0.000008   0.000096   0.000000   0.000000   0.000000
    20  C    0.000028  -0.000002  -0.000003   0.000000   0.000000   0.000000
    21  N   -0.000084  -0.000001   0.000001   0.000000   0.000000   0.000000
    22  C    0.000001   0.000000   0.000000   0.000000   0.000000   0.000000
    23  F    0.000000   0.000000   0.000000   0.000000   0.000000   0.000000
    24  F    0.000000   0.000000   0.000000   0.000000   0.000000   0.000000
    25  C    0.000000   0.000000   0.000000   0.000000   0.000000   0.000000
    26  F    0.000000   0.000000   0.000000   0.000000   0.000000   0.000000
    27  O    0.000000   0.000000   0.000000   0.000000   0.000000   0.000000
    28  C    0.000000   0.000000   0.000000   0.000000   0.000000   0.000000
    29  F    0.000000   0.000000   0.000000   0.000000   0.000000   0.000000
    30  F    0.000000   0.000000   0.000000   0.000000   0.000000   0.000000
    31  F    0.000000   0.000000   0.000000   0.000000   0.000000   0.000000
    32  C    0.000000   0.000000   0.000000   0.000000   0.000000   0.000000
    33  F    0.000000   0.000000   0.000000   0.000000   0.000000   0.000000
    34  F    0.000000   0.000000   0.000000   0.000000   0.000000   0.000000
    35  F    0.000000   0.000000   0.000000   0.000000   0.000000   0.000000
    36  H    0.008288   0.011534  -0.000781   0.000646   0.000005   0.000055
    37  H   -0.002846   0.000262   0.002009   0.000117   0.000029   0.000002
    38  H   -0.000005   0.000000  -0.000001   0.000000   0.000000   0.000000
    39  H    0.000000   0.000000   0.000000   0.000000   0.000000   0.000000
              13         14         15         16         17         18
     1  O    0.000000  -0.000006   0.000000   0.000000   0.000000   0.001810
     2  C    0.000000  -0.000064   0.000004   0.000000   0.000004  -0.020861
     3  N    0.000000   0.002573   0.000007  -0.000008   0.000015   0.210343
     4  C   -0.000149  -0.023351   0.004992   0.001438   0.001525  -0.023134
     5  F    0.000001   0.002315   0.000019   0.000000  -0.000248   0.000387
     6  F    0.000000   0.002549  -0.000497   0.000000  -0.004654   0.001421
     7  C   -0.009163   0.218472  -0.040361  -0.032005  -0.029170  -0.000406
     8  F   -0.000010  -0.010462   0.000288  -0.000240  -0.000311  -0.005572
     9  O   -0.046597  -0.022766   0.000468  -0.001847   0.000506  -0.001453
    10  C    0.304763  -0.002674  -0.000298   0.012809   0.000056  -0.000124
    11  F   -0.037569  -0.000016   0.000000  -0.000004   0.000000  -0.000031
    12  F   -0.033240  -0.004518   0.000013  -0.002358   0.000000  -0.000011
    13  F    9.053274   0.017010  -0.000434  -0.007575   0.000000   0.000004
    14  C    0.017010   4.146461   0.275799   0.283048   0.294728   0.000040
    15  F   -0.000434   0.275799   9.079121  -0.038978  -0.037492  -0.000003
    16  F   -0.007575   0.283048  -0.038978   9.085401  -0.040894  -0.000001
    17  F    0.000000   0.294728  -0.037492  -0.040894   9.054882   0.000000
    18  C    0.000004   0.000040  -0.000003  -0.000001   0.000000   4.664475
    19  O    0.000000  -0.000001   0.000000   0.000000   0.000000   0.255124
    20  C    0.000000   0.000000   0.000000   0.000000   0.000000  -0.035399
    21  N    0.000000   0.000000   0.000000   0.000000   0.000000  -0.002334
    22  C    0.000000   0.000000   0.000000   0.000000   0.000000   0.000171
    23  F    0.000000   0.000000   0.000000   0.000000   0.000000  -0.000010
    24  F    0.000000   0.000000   0.000000   0.000000   0.000000   0.000007
    25  C    0.000000   0.000000   0.000000   0.000000   0.000000   0.000006
    26  F    0.000000   0.000000   0.000000   0.000000   0.000000  -0.000002
    27  O    0.000000   0.000000   0.000000   0.000000   0.000000   0.000001
    28  C    0.000000   0.000000   0.000000   0.000000   0.000000  -0.000001
    29  F    0.000000   0.000000   0.000000   0.000000   0.000000   0.000000
    30  F    0.000000   0.000000   0.000000   0.000000   0.000000   0.000000
    31  F    0.000000   0.000000   0.000000   0.000000   0.000000   0.000000
    32  C    0.000000   0.000000   0.000000   0.000000   0.000000   0.000000
    33  F    0.000000   0.000000   0.000000   0.000000   0.000000   0.000000
    34  F    0.000000   0.000000   0.000000   0.000000   0.000000   0.000000
    35  F    0.000000   0.000000   0.000000   0.000000   0.000000   0.000000
    36  H    0.000003   0.000423  -0.000003  -0.000003  -0.000002   0.391310
    37  H    0.000000  -0.000037   0.000000   0.000000   0.000000   0.392331
    38  H    0.000000   0.000000   0.000000   0.000000   0.000000  -0.009038
    39  H    0.000000   0.000000   0.000000   0.000000   0.000000   0.005051
              19         20         21         22         23         24
     1  O    0.000020   0.002599  -0.095932   0.019578  -0.005030   0.000015
     2  C    0.000053  -0.018045   0.254878  -0.010680   0.008026   0.001214
     3  N   -0.053646  -0.005403  -0.095090   0.002674   0.000032  -0.000026
     4  C    0.001746   0.000170   0.001711  -0.000031   0.000008   0.000000
     5  F   -0.000008  -0.000007  -0.000030   0.000005   0.000000   0.000000
     6  F   -0.000009  -0.000004   0.000040   0.000007   0.000000   0.000000
     7  C   -0.000236   0.000028  -0.000084   0.000001   0.000000   0.000000
     8  F    0.000008  -0.000002  -0.000001   0.000000   0.000000   0.000000
     9  O    0.000096  -0.000003   0.000001   0.000000   0.000000   0.000000
    10  C    0.000000   0.000000   0.000000   0.000000   0.000000   0.000000
    11  F    0.000000   0.000000   0.000000   0.000000   0.000000   0.000000
    12  F    0.000000   0.000000   0.000000   0.000000   0.000000   0.000000
    13  F    0.000000   0.000000   0.000000   0.000000   0.000000   0.000000
    14  C   -0.000001   0.000000   0.000000   0.000000   0.000000   0.000000
    15  F    0.000000   0.000000   0.000000   0.000000   0.000000   0.000000
    16  F    0.000000   0.000000   0.000000   0.000000   0.000000   0.000000
    17  F    0.000000   0.000000   0.000000   0.000000   0.000000   0.000000
    18  C    0.255124  -0.035399  -0.002334   0.000171  -0.000010   0.000007
    19  O    8.204939   0.258384  -0.046389   0.001605  -0.000006   0.000151
    20  C    0.258384   4.625531   0.195637  -0.019727  -0.000183   0.007770
    21  N   -0.046389   0.195637   7.461395   0.211637  -0.058352  -0.044124
    22  C    0.001605  -0.019727   0.211637   4.429316   0.276223   0.258617
    23  F   -0.000006  -0.000183  -0.058352   0.276223   9.101712  -0.041095
    24  F    0.000151   0.007770  -0.044124   0.258617  -0.041095   9.116472
    25  C    0.000042   0.000835  -0.059193   0.172553  -0.037217  -0.026461
    26  F   -0.000019  -0.000082   0.000079  -0.021510   0.000300  -0.000630
    27  O    0.000000  -0.000046  -0.000087  -0.036662   0.000848   0.000576
    28  C    0.000000  -0.000002  -0.000038  -0.004089   0.001210   0.000066
    29  F    0.000000  -0.000002  -0.000253   0.001855  -0.003685   0.000001
    30  F    0.000000   0.000000  -0.000001  -0.000044  -0.000001   0.000000
    31  F    0.000000   0.000000   0.000005  -0.000068  -0.000001   0.000000
    32  C    0.000000  -0.000038   0.003825  -0.041005   0.004586   0.003966
    33  F    0.000000   0.000015  -0.000024   0.001616  -0.000236  -0.002884
    34  F    0.000000   0.000000  -0.000013   0.001776  -0.000001  -0.000001
    35  F    0.000000   0.000000   0.000016   0.008387  -0.000191  -0.000465
    36  H   -0.023996   0.004181  -0.000028   0.000015   0.000000   0.000000
    37  H   -0.039173  -0.005784  -0.002800  -0.000086  -0.000003  -0.000001
    38  H   -0.039527   0.403375  -0.069826  -0.000508   0.000312   0.000618
    39  H   -0.026286   0.397024  -0.039492  -0.000776   0.000032   0.003697
              25         26         27         28         29         30
     1  O   -0.004493   0.000011  -0.007190   0.009485  -0.001366  -0.000004
     2  C   -0.006152   0.000120   0.004176   0.000286  -0.000039   0.000008
     3  N   -0.000282   0.000001  -0.000124   0.000037  -0.000004   0.000000
     4  C    0.000000   0.000000   0.000013   0.000002   0.000001   0.000000
     5  F    0.000000   0.000000   0.000000   0.000000   0.000000   0.000000
     6  F   -0.000001   0.000000  -0.000001  -0.000003   0.000000   0.000000
     7  C    0.000000   0.000000   0.000000   0.000000   0.000000   0.000000
     8  F    0.000000   0.000000   0.000000   0.000000   0.000000   0.000000
     9  O    0.000000   0.000000   0.000000   0.000000   0.000000   0.000000
    10  C    0.000000   0.000000   0.000000   0.000000   0.000000   0.000000
    11  F    0.000000   0.000000   0.000000   0.000000   0.000000   0.000000
    12  F    0.000000   0.000000   0.000000   0.000000   0.000000   0.000000
    13  F    0.000000   0.000000   0.000000   0.000000   0.000000   0.000000
    14  C    0.000000   0.000000   0.000000   0.000000   0.000000   0.000000
    15  F    0.000000   0.000000   0.000000   0.000000   0.000000   0.000000
    16  F    0.000000   0.000000   0.000000   0.000000   0.000000   0.000000
    17  F    0.000000   0.000000   0.000000   0.000000   0.000000   0.000000
    18  C    0.000006  -0.000002   0.000001  -0.000001   0.000000   0.000000
    19  O    0.000042  -0.000019   0.000000   0.000000   0.000000   0.000000
    20  C    0.000835  -0.000082  -0.000046  -0.000002  -0.000002   0.000000
    21  N   -0.059193   0.000079  -0.000087  -0.000038  -0.000253  -0.000001
    22  C    0.172553  -0.021510  -0.036662  -0.004089   0.001855  -0.000044
    23  F   -0.037217   0.000300   0.000848   0.001210  -0.003685  -0.000001
    24  F   -0.026461  -0.000630   0.000576   0.000066   0.000001   0.000000
    25  C    4.993170   0.231875   0.171038  -0.002635   0.010427  -0.007313
    26  F    0.231875   9.122600  -0.042184   0.000240  -0.000001  -0.000005
    27  O    0.171038  -0.042184   8.343013   0.224930  -0.044203  -0.046812
    28  C   -0.002635   0.000240   0.224930   3.829531   0.283702   0.300397
    29  F    0.010427  -0.000001  -0.044203   0.283702   9.072226  -0.034961
    30  F   -0.007313  -0.000005  -0.046812   0.300397  -0.034961   9.067969
    31  F    0.000864  -0.000002  -0.036468   0.331883  -0.033533  -0.037369
    32  C    0.212819  -0.009303  -0.025653  -0.001578  -0.004508   0.016553
    33  F   -0.028233  -0.000804   0.000537   0.000040   0.000000   0.000001
    34  F   -0.023967  -0.000728  -0.000967   0.000387   0.000006  -0.002139
    35  F   -0.042399   0.000298  -0.000786   0.010347  -0.003009  -0.002593
    36  H    0.000000   0.000000   0.000000   0.000000   0.000000   0.000000
    37  H    0.000005   0.000000   0.000000   0.000000   0.000000   0.000000
    38  H    0.000191   0.000022  -0.000003   0.000000   0.000000   0.000000
    39  H   -0.000502   0.002861   0.000048   0.000001   0.000000   0.000000
              31         32         33         34         35         36
     1  O   -0.000274  -0.000003   0.000000   0.000000   0.000000  -0.000071
     2  C    0.000211   0.000194   0.000000   0.000000  -0.000003   0.001318
     3  N    0.000000   0.000000   0.000000   0.000000   0.000000  -0.038382
     4  C   -0.000002   0.000000   0.000000   0.000000   0.000000  -0.010509
     5  F    0.000000   0.000000   0.000000   0.000000   0.000000   0.000049
     6  F    0.000000   0.000000   0.000000   0.000000   0.000000   0.000278
     7  C    0.000000   0.000000   0.000000   0.000000   0.000000   0.008288
     8  F    0.000000   0.000000   0.000000   0.000000   0.000000   0.011534
     9  O    0.000000   0.000000   0.000000   0.000000   0.000000  -0.000781
    10  C    0.000000   0.000000   0.000000   0.000000   0.000000   0.000646
    11  F    0.000000   0.000000   0.000000   0.000000   0.000000   0.000005
    12  F    0.000000   0.000000   0.000000   0.000000   0.000000   0.000055
    13  F    0.000000   0.000000   0.000000   0.000000   0.000000   0.000003
    14  C    0.000000   0.000000   0.000000   0.000000   0.000000   0.000423
    15  F    0.000000   0.000000   0.000000   0.000000   0.000000  -0.000003
    16  F    0.000000   0.000000   0.000000   0.000000   0.000000  -0.000003
    17  F    0.000000   0.000000   0.000000   0.000000   0.000000  -0.000002
    18  C    0.000000   0.000000   0.000000   0.000000   0.000000   0.391310
    19  O    0.000000   0.000000   0.000000   0.000000   0.000000  -0.023996
    20  C    0.000000  -0.000038   0.000015   0.000000   0.000000   0.004181
    21  N    0.000005   0.003825  -0.000024  -0.000013   0.000016  -0.000028
    22  C   -0.000068  -0.041005   0.001616   0.001776   0.008387   0.000015
    23  F   -0.000001   0.004586  -0.000236  -0.000001  -0.000191   0.000000
    24  F    0.000000   0.003966  -0.002884  -0.000001  -0.000465   0.000000
    25  C    0.000864   0.212819  -0.028233  -0.023967  -0.042399   0.000000
    26  F   -0.000002  -0.009303  -0.000804  -0.000728   0.000298   0.000000
    27  O   -0.036468  -0.025653   0.000537  -0.000967  -0.000786   0.000000
    28  C    0.331883  -0.001578   0.000040   0.000387   0.010347   0.000000
    29  F   -0.033533  -0.004508   0.000000   0.000006  -0.003009   0.000000
    30  F   -0.037369   0.016553   0.000001  -0.002139  -0.002593   0.000000
    31  F    9.019134  -0.000071   0.000000   0.000000  -0.000001   0.000000
    32  C   -0.000071   4.213193   0.291217   0.277914   0.256855   0.000000
    33  F    0.000000   0.291217   9.067081  -0.039851  -0.038348   0.000000
    34  F    0.000000   0.277914  -0.039851   9.086379  -0.037571   0.000000
    35  F   -0.000001   0.256855  -0.038348  -0.037571   9.096704   0.000000
    36  H    0.000000   0.000000   0.000000   0.000000   0.000000   0.534389
    37  H    0.000000   0.000000   0.000000   0.000000   0.000000  -0.038662
    38  H    0.000000   0.000012   0.000000   0.000000   0.000000  -0.000165
    39  H    0.000000  -0.000071  -0.000002   0.000000   0.000000  -0.000167
              37         38         39
     1  O    0.000095   0.000030  -0.000078
     2  C    0.001593   0.001761   0.000700
     3  N   -0.069875  -0.001315  -0.000148
     4  C    0.003637   0.000096   0.000003
     5  F    0.000957  -0.000004   0.000000
     6  F   -0.000074   0.000000   0.000000
     7  C   -0.002846  -0.000005   0.000000
     8  F    0.000262   0.000000   0.000000
     9  O    0.002009  -0.000001   0.000000
    10  C    0.000117   0.000000   0.000000
    11  F    0.000029   0.000000   0.000000
    12  F    0.000002   0.000000   0.000000
    13  F    0.000000   0.000000   0.000000
    14  C   -0.000037   0.000000   0.000000
    15  F    0.000000   0.000000   0.000000
    16  F    0.000000   0.000000   0.000000
    17  F    0.000000   0.000000   0.000000
    18  C    0.392331  -0.009038   0.005051
    19  O   -0.039173  -0.039527  -0.026286
    20  C   -0.005784   0.403375   0.397024
    21  N   -0.002800  -0.069826  -0.039492
    22  C   -0.000086  -0.000508  -0.000776
    23  F   -0.000003   0.000312   0.000032
    24  F   -0.000001   0.000618   0.003697
    25  C    0.000005   0.000191  -0.000502
    26  F    0.000000   0.000022   0.002861
    27  O    0.000000  -0.000003   0.000048
    28  C    0.000000   0.000000   0.000001
    29  F    0.000000   0.000000   0.000000
    30  F    0.000000   0.000000   0.000000
    31  F    0.000000   0.000000   0.000000
    32  C    0.000000   0.000012  -0.000071
    33  F    0.000000   0.000000  -0.000002
    34  F    0.000000   0.000000   0.000000
    35  F    0.000000   0.000000   0.000000
    36  H   -0.038662  -0.000165  -0.000167
    37  H    0.602812   0.009366  -0.000096
    38  H    0.009366   0.599385  -0.040203
    39  H   -0.000096  -0.040203   0.536993
 Mulliken charges:
               1
     1  O   -0.543186
     2  C    0.866591
     3  N   -0.606079
     4  C    0.792118
     5  F   -0.268315
     6  F   -0.267428
     7  C    0.377143
     8  F   -0.264314
     9  O   -0.518308
    10  C    1.001347
    11  F   -0.239227
    12  F   -0.240450
    13  F   -0.240317
    14  C    0.820475
    15  F   -0.242642
    16  F   -0.258781
    17  F   -0.238947
    18  C    0.175896
    19  O   -0.492874
    20  C    0.189176
    21  N   -0.615137
    22  C    0.749152
    23  F   -0.247279
    24  F   -0.277486
    25  C    0.445021
    26  F   -0.283138
    27  O   -0.503996
    28  C    1.015801
    29  F   -0.242657
    30  F   -0.253686
    31  F   -0.244307
    32  C    0.801098
    33  F   -0.250127
    34  F   -0.261225
    35  F   -0.247239
    36  H    0.160275
    37  H    0.146222
    38  H    0.145424
    39  H    0.161409
 Sum of Mulliken charges =   0.00000
 Mulliken charges with hydrogens summed into heavy atoms:
               1
     1  O   -0.543186
     2  C    0.866591
     3  N   -0.606079
     4  C    0.792118
     5  F   -0.268315
     6  F   -0.267428
     7  C    0.377143
     8  F   -0.264314
     9  O   -0.518308
    10  C    1.001347
    11  F   -0.239227
    12  F   -0.240450
    13  F   -0.240317
    14  C    0.820475
    15  F   -0.242642
    16  F   -0.258781
    17  F   -0.238947
    18  C    0.482392
    19  O   -0.492874
    20  C    0.496009
    21  N   -0.615137
    22  C    0.749152
    23  F   -0.247279
    24  F   -0.277486
    25  C    0.445021
    26  F   -0.283138
    27  O   -0.503996
    28  C    1.015801
    29  F   -0.242657
    30  F   -0.253686
    31  F   -0.244307
    32  C    0.801098
    33  F   -0.250127
    34  F   -0.261225
    35  F   -0.247239
 Electronic spatial extent (au):  <R**2>=          17698.9202
 Charge=              0.0000 electrons
 Dipole moment (field-independent basis, Debye):
    X=              2.4087    Y=              4.5305    Z=             -1.5879  Tot=              5.3711
 Quadrupole moment (field-independent basis, Debye-Ang):
   XX=           -187.0290   YY=           -181.1533   ZZ=           -188.6981
   XY=             -0.4694   XZ=             -0.0096   YZ=              1.2332
 Traceless Quadrupole moment (field-independent basis, Debye-Ang):
   XX=             -1.4022   YY=              4.4735   ZZ=             -3.0713
   XY=             -0.4694   XZ=             -0.0096   YZ=              1.2332
 Octapole moment (field-independent basis, Debye-Ang**2):
  XXX=             66.0460  YYY=            131.9949  ZZZ=            -41.5594  XYY=              3.3588
  XXY=             52.9184  XXZ=            -22.8303  XZZ=              5.7525  YZZ=             37.1033
  YYZ=            -15.9848  XYZ=              4.2043
 Hexadecapole moment (field-independent basis, Debye-Ang**3):
 XXXX=         -14849.4134 YYYY=          -2479.8802 ZZZZ=          -1051.1388 XXXY=           -198.7289
 XXXZ=            -32.3749 YYYX=           -238.3310 YYYZ=            308.4759 ZZZX=             -1.8699
 ZZZY=            317.3517 XXYY=          -2876.6798 XXZZ=          -2624.5034 YYZZ=           -590.4942
 XXYZ=             86.2820 YYXZ=              8.0235 ZZXY=            -76.8830
 N-N= 4.944963881782D+03 E-N=-1.611001072534D+04  KE= 2.609528162427D+03
 No NMR shielding tensors so no spin-rotation constants.
 Leave Link  601 at Sun Mar  3 18:00:15 2024, MaxMem=  5368709120 cpu:         4.7
 (Enter /home/k0335/k033513/app/g09/l9999.exe)
 1\1\GINC-C18U04N4\SP\RCAM-B3LYP\6-31G(d,p)\C11H4F18N2O4\K033513\03-Mar
 -2024\0\\#p CAM-B3LYP/6-31G(d,p) SCRF=(PCM,Solvent=Generic,Read) NoSym
 m out=wfn\\Title A902432812_0\\0,1\O,0,-0.773066,-0.923648,0.865047\C,
 0,-0.44369,0.018883,0.152865\N,0,0.846544,0.202746,-0.283274\C,0,1.865
 299,-0.656018,0.323772\F,0,1.816811,-0.463492,1.672727\F,0,1.49264,-1.
 943976,0.096195\C,0,3.340388,-0.486758,-0.123146\F,0,3.406082,-0.60362
 ,-1.483456\O,0,3.763735,0.852586,0.192635\C,0,5.142791,1.051798,0.0096
 32\F,0,5.364547,2.377141,-0.066792\F,0,5.571409,0.475839,-1.122369\F,0
 ,5.805144,0.563868,1.068926\C,0,4.124471,-1.627107,0.549802\F,0,4.1337
 79,-1.502809,1.895843\F,0,5.421863,-1.629009,0.153531\F,0,3.648885,-2.
 854462,0.252983\C,0,1.212255,1.445174,-0.89042\O,0,0.164831,1.852848,-
 1.742966\C,0,-0.997437,2.114209,-0.990507\N,0,-1.360377,0.945481,-0.25
 378\C,0,-2.737064,0.852006,0.209664\F,0,-2.748721,0.749877,1.559928\F,
 0,-3.317152,2.069003,-0.0287\C,0,-3.593132,-0.243102,-0.481474\F,0,-3.
 583352,0.056706,-1.834363\O,0,-3.065326,-1.571163,-0.453454\C,0,-3.357
 899,-2.287281,0.722125\F,0,-3.208229,-1.529306,1.815278\F,0,-4.632014,
 -2.716426,0.661748\F,0,-2.554097,-3.361895,0.800729\C,0,-5.04019,-0.05
 9441,-0.003912\F,0,-5.530206,1.167008,-0.300628\F,0,-5.863728,-0.95158
 5,-0.609515\F,0,-5.186148,-0.22929,1.326515\H,0,2.084423,1.320215,-1.5
 32962\H,0,1.420494,2.200567,-0.123751\H,0,-0.843812,2.955167,-0.304481
 \H,0,-1.790752,2.36927,-1.699994\\Version=ES64L-G09RevD.01\HF=-2628.35
 36411\RMSD=4.050e-09\Dipole=0.9476721,1.7824324,-0.6247349\Quadrupole=
 -1.0424957,3.325939,-2.2834433,-0.3489967,-0.007139,0.9168781\PG=C01 [
 X(C11H4F18N2O4)]\\@

 Writing a WFN file to "A902432812/A902432812_0.wfn"


 THE NUMBERS ARE MEANINGLESS, BUT THE TRENDS ARE IMPORTANT.
     -- LARRY BURGGRAF
 Job cpu time:       0 days  0 hours 16 minutes 26.0 seconds.
 File lengths (MBytes):  RWF=    330 Int=      0 D2E=      0 Chk=     12 Scr=      1
 Normal termination of Gaussian 09 at Sun Mar  3 18:00:16 2024.
