 Entering Gaussian System, Link 0=g09
 Initial command:
 /home/k0335/k033513/app/g09/l1.exe "/home/k0335/k033513/app/g09/scratch/Gau-379929.inp" -scrdir="/home/k0335/k033513/app/g09/scratch/"
 Default is to use a total of  36 processors:
                               36 via shared-memory
                                1 via Linda
 Entering Link 1 = /home/k0335/k033513/app/g09/l1.exe PID=    379930.
  
 Copyright (c) 1988,1990,1992,1993,1995,1998,2003,2009,2013,
            Gaussian, Inc.  All Rights Reserved.
  
 This is part of the Gaussian(R) 09 program.  It is based on
 the Gaussian(R) 03 system (copyright 2003, Gaussian, Inc.),
 the Gaussian(R) 98 system (copyright 1998, Gaussian, Inc.),
 the Gaussian(R) 94 system (copyright 1995, Gaussian, Inc.),
 the Gaussian 92(TM) system (copyright 1992, Gaussian, Inc.),
 the Gaussian 90(TM) system (copyright 1990, Gaussian, Inc.),
 the Gaussian 88(TM) system (copyright 1988, Gaussian, Inc.),
 the Gaussian 86(TM) system (copyright 1986, Carnegie Mellon
 University), and the Gaussian 82(TM) system (copyright 1983,
 Carnegie Mellon University). Gaussian is a federally registered
 trademark of Gaussian, Inc.
  
 This software contains proprietary and confidential information,
 including trade secrets, belonging to Gaussian, Inc.
  
 This software is provided under written license and may be
 used, copied, transmitted, or stored only in accord with that
 written license.
  
 The following legend is applicable only to US Government
 contracts under FAR:
  
                    RESTRICTED RIGHTS LEGEND
  
 Use, reproduction and disclosure by the US Government is
 subject to restrictions as set forth in subparagraphs (a)
 and (c) of the Commercial Computer Software - Restricted
 Rights clause in FAR 52.227-19.
  
 Gaussian, Inc.
 340 Quinnipiac St., Bldg. 40, Wallingford CT 06492
  
  
 ---------------------------------------------------------------
 Warning -- This program may not be used in any manner that
 competes with the business of Gaussian, Inc. or will provide
 assistance to any competitor of Gaussian, Inc.  The licensee
 of this program is prohibited from giving any competitor of
 Gaussian, Inc. access to this program.  By using this program,
 the user acknowledges that Gaussian, Inc. is engaged in the
 business of creating and licensing software in the field of
 computational chemistry and represents and warrants to the
 licensee that it is not a competitor of Gaussian, Inc. and that
 it will not use this program in any manner prohibited above.
 ---------------------------------------------------------------
  

 Cite this work as:
 Gaussian 09, Revision D.01,
 M. J. Frisch, G. W. Trucks, H. B. Schlegel, G. E. Scuseria, 
 M. A. Robb, J. R. Cheeseman, G. Scalmani, V. Barone, B. Mennucci, 
 G. A. Petersson, H. Nakatsuji, M. Caricato, X. Li, H. P. Hratchian, 
 A. F. Izmaylov, J. Bloino, G. Zheng, J. L. Sonnenberg, M. Hada, 
 M. Ehara, K. Toyota, R. Fukuda, J. Hasegawa, M. Ishida, T. Nakajima, 
 Y. Honda, O. Kitao, H. Nakai, T. Vreven, J. A. Montgomery, Jr., 
 J. E. Peralta, F. Ogliaro, M. Bearpark, J. J. Heyd, E. Brothers, 
 K. N. Kudin, V. N. Staroverov, T. Keith, R. Kobayashi, J. Normand, 
 K. Raghavachari, A. Rendell, J. C. Burant, S. S. Iyengar, J. Tomasi, 
 M. Cossi, N. Rega, J. M. Millam, M. Klene, J. E. Knox, J. B. Cross, 
 V. Bakken, C. Adamo, J. Jaramillo, R. Gomperts, R. E. Stratmann, 
 O. Yazyev, A. J. Austin, R. Cammi, C. Pomelli, J. W. Ochterski, 
 R. L. Martin, K. Morokuma, V. G. Zakrzewski, G. A. Voth, 
 P. Salvador, J. J. Dannenberg, S. Dapprich, A. D. Daniels, 
 O. Farkas, J. B. Foresman, J. V. Ortiz, J. Cioslowski, 
 and D. J. Fox, Gaussian, Inc., Wallingford CT, 2013.
 
 ******************************************
 Gaussian 09:  ES64L-G09RevD.01 24-Apr-2013
                 3-Mar-2024 
 ******************************************
 %nprocshared=24
 Will use up to   24 processors via shared memory.
 %mem=40GB
 %rwf=A126125650/A126125650_p1.rwf
 %nosave
 %chk=A126125650/A126125650_p1.chk
 ----------------------------------------------------------------------
 #p CAM-B3LYP/6-31G(d,p) SCRF=(PCM,Solvent=Generic,Read) NoSymm out=wfn
 ----------------------------------------------------------------------
 1/38=1,40=2/1;
 2/12=2,15=1,17=6,18=5,40=1/2;
 3/5=1,6=6,7=101,11=2,16=1,25=1,30=1,70=2203,72=-2,74=-40/1,2,3;
 4//1;
 5/5=2,38=5/2;
 6/7=2,8=2,9=2,10=2,28=1/1;
 99/5=1,6=100,9=1/99;
 Leave Link    1 at Sun Mar  3 17:26:52 2024, MaxMem=  5368709120 cpu:         0.8
 (Enter /home/k0335/k033513/app/g09/l101.exe)
 -------------------
 Title A126125650_p1
 -------------------
 Symbolic Z-matrix:
 Charge =  1 Multiplicity = 2
 C                    -2.33525   4.9744    0.0133 
 C                    -3.05809   3.71711   0.4711 
 C                    -2.11781   2.54832   0.76904 
 C                    -1.38565   2.02832  -0.47255 
 N                    -0.57971   0.8435   -0.16124 
 C                     0.71323   1.0338    0.28188 
 O                     1.18309   2.15797   0.44174 
 N                     1.4397   -0.10699   0.50766 
 C                     2.86268   0.04279   0.77917 
 F                     3.33403  -1.08626   1.37388 
 F                     2.9875    0.98101   1.77419 
 C                     3.7832    0.47638  -0.40034 
 F                     3.0966    1.396    -1.16699 
 O                     4.94042   1.22783   0.00395 
 C                     5.94929   0.46861   0.61689 
 F                     5.45239  -0.25089   1.6297 
 F                     6.88515   1.30611   1.0983 
 F                     6.52076  -0.34392  -0.28369 
 C                     4.05617  -0.71235  -1.31971 
 F                     2.92805  -1.11257  -1.95055 
 F                     4.93109  -0.36736  -2.29817 
 F                     4.57886  -1.7718   -0.67428 
 C                     0.95087  -1.34884   0.1942 
 O                     1.71181  -2.28052  -0.05071 
 N                    -0.42067  -1.47084   0.13575 
 C                    -0.93037  -2.82953  -0.03196 
 F                    -0.20343  -3.63662   0.80865 
 F                    -0.59202  -3.24694  -1.28674 
 C                    -2.42131  -3.21888   0.23202 
 F                    -2.5114   -4.59453   0.19326 
 O                    -3.45019  -2.77512  -0.65057 
 C                    -3.21651  -3.10458  -1.99578 
 F                    -2.31694  -2.25869  -2.52951 
 F                    -4.3734   -2.97981  -2.67452 
 F                    -2.77691  -4.36672  -2.12754 
 C                    -2.73395  -2.81371   1.67369 
 F                    -2.60743  -1.48337   1.88845 
 F                    -4.00081  -3.14703   2.02272 
 F                    -1.91386  -3.41813   2.5651 
 C                    -1.18128  -0.39412  -0.22068 
 O                    -2.35135  -0.51908  -0.5689 
 H                    -3.04682   5.80002  -0.08943 
 H                    -1.57093   5.27413   0.73719 
 H                    -1.85449   4.82972  -0.95853 
 H                    -3.62045   3.9514    1.38285 
 H                    -3.79273   3.42156  -0.28689 
 H                    -2.70878   1.73461   1.20807 
 H                    -1.39057   2.84505   1.53479 
 H                    -2.11123   1.7764   -1.25485 
 H                    -0.73057   2.80419  -0.8834 
 
 NAtoms=     50 NQM=       50 NQMF=       0 NMMI=      0 NMMIF=      0
                NMic=       0 NMicF=      0.
                    Isotopes and Nuclear Properties:
 (Nuclear quadrupole moments (NQMom) in fm**2, nuclear magnetic moments (NMagM)
  in nuclear magnetons)

  Atom         1           2           3           4           5           6           7           8           9          10
 IAtWgt=          12          12          12          12          14          12          16          14          12          19
 AtmWgt=  12.0000000  12.0000000  12.0000000  12.0000000  14.0030740  12.0000000  15.9949146  14.0030740  12.0000000  18.9984033
 NucSpn=           0           0           0           0           2           0           0           2           0           1
 AtZEff=   0.0000000   0.0000000   0.0000000   0.0000000   0.0000000   0.0000000   0.0000000   0.0000000   0.0000000   0.0000000
 NQMom=    0.0000000   0.0000000   0.0000000   0.0000000   2.0440000   0.0000000   0.0000000   2.0440000   0.0000000   0.0000000
 NMagM=    0.0000000   0.0000000   0.0000000   0.0000000   0.4037610   0.0000000   0.0000000   0.4037610   0.0000000   2.6288670
 AtZNuc=   6.0000000   6.0000000   6.0000000   6.0000000   7.0000000   6.0000000   8.0000000   7.0000000   6.0000000   9.0000000

  Atom        11          12          13          14          15          16          17          18          19          20
 IAtWgt=          19          12          19          16          12          19          19          19          12          19
 AtmWgt=  18.9984033  12.0000000  18.9984033  15.9949146  12.0000000  18.9984033  18.9984033  18.9984033  12.0000000  18.9984033
 NucSpn=           1           0           1           0           0           1           1           1           0           1
 AtZEff=   0.0000000   0.0000000   0.0000000   0.0000000   0.0000000   0.0000000   0.0000000   0.0000000   0.0000000   0.0000000
 NQMom=    0.0000000   0.0000000   0.0000000   0.0000000   0.0000000   0.0000000   0.0000000   0.0000000   0.0000000   0.0000000
 NMagM=    2.6288670   0.0000000   2.6288670   0.0000000   0.0000000   2.6288670   2.6288670   2.6288670   0.0000000   2.6288670
 AtZNuc=   9.0000000   6.0000000   9.0000000   8.0000000   6.0000000   9.0000000   9.0000000   9.0000000   6.0000000   9.0000000

  Atom        21          22          23          24          25          26          27          28          29          30
 IAtWgt=          19          19          12          16          14          12          19          19          12          19
 AtmWgt=  18.9984033  18.9984033  12.0000000  15.9949146  14.0030740  12.0000000  18.9984033  18.9984033  12.0000000  18.9984033
 NucSpn=           1           1           0           0           2           0           1           1           0           1
 AtZEff=   0.0000000   0.0000000   0.0000000   0.0000000   0.0000000   0.0000000   0.0000000   0.0000000   0.0000000   0.0000000
 NQMom=    0.0000000   0.0000000   0.0000000   0.0000000   2.0440000   0.0000000   0.0000000   0.0000000   0.0000000   0.0000000
 NMagM=    2.6288670   2.6288670   0.0000000   0.0000000   0.4037610   0.0000000   2.6288670   2.6288670   0.0000000   2.6288670
 AtZNuc=   9.0000000   9.0000000   6.0000000   8.0000000   7.0000000   6.0000000   9.0000000   9.0000000   6.0000000   9.0000000

  Atom        31          32          33          34          35          36          37          38          39          40
 IAtWgt=          16          12          19          19          19          12          19          19          19          12
 AtmWgt=  15.9949146  12.0000000  18.9984033  18.9984033  18.9984033  12.0000000  18.9984033  18.9984033  18.9984033  12.0000000
 NucSpn=           0           0           1           1           1           0           1           1           1           0
 AtZEff=   0.0000000   0.0000000   0.0000000   0.0000000   0.0000000   0.0000000   0.0000000   0.0000000   0.0000000   0.0000000
 NQMom=    0.0000000   0.0000000   0.0000000   0.0000000   0.0000000   0.0000000   0.0000000   0.0000000   0.0000000   0.0000000
 NMagM=    0.0000000   0.0000000   2.6288670   2.6288670   2.6288670   0.0000000   2.6288670   2.6288670   2.6288670   0.0000000
 AtZNuc=   8.0000000   6.0000000   9.0000000   9.0000000   9.0000000   6.0000000   9.0000000   9.0000000   9.0000000   6.0000000

  Atom        41          42          43          44          45          46          47          48          49          50
 IAtWgt=          16           1           1           1           1           1           1           1           1           1
 AtmWgt=  15.9949146   1.0078250   1.0078250   1.0078250   1.0078250   1.0078250   1.0078250   1.0078250   1.0078250   1.0078250
 NucSpn=           0           1           1           1           1           1           1           1           1           1
 AtZEff=   0.0000000   0.0000000   0.0000000   0.0000000   0.0000000   0.0000000   0.0000000   0.0000000   0.0000000   0.0000000
 NQMom=    0.0000000   0.0000000   0.0000000   0.0000000   0.0000000   0.0000000   0.0000000   0.0000000   0.0000000   0.0000000
 NMagM=    0.0000000   2.7928460   2.7928460   2.7928460   2.7928460   2.7928460   2.7928460   2.7928460   2.7928460   2.7928460
 AtZNuc=   8.0000000   1.0000000   1.0000000   1.0000000   1.0000000   1.0000000   1.0000000   1.0000000   1.0000000   1.0000000
 Leave Link  101 at Sun Mar  3 17:26:52 2024, MaxMem=  5368709120 cpu:         0.8
 (Enter /home/k0335/k033513/app/g09/l202.exe)
                          Input orientation:                          
 ---------------------------------------------------------------------
 Center     Atomic      Atomic             Coordinates (Angstroms)
 Number     Number       Type             X           Y           Z
 ---------------------------------------------------------------------
      1          6           0       -2.335254    4.974399    0.013297
      2          6           0       -3.058093    3.717111    0.471098
      3          6           0       -2.117806    2.548320    0.769042
      4          6           0       -1.385646    2.028320   -0.472554
      5          7           0       -0.579705    0.843497   -0.161237
      6          6           0        0.713232    1.033800    0.281883
      7          8           0        1.183089    2.157968    0.441739
      8          7           0        1.439704   -0.106994    0.507662
      9          6           0        2.862681    0.042792    0.779171
     10          9           0        3.334026   -1.086257    1.373883
     11          9           0        2.987497    0.981011    1.774185
     12          6           0        3.783204    0.476379   -0.400343
     13          9           0        3.096596    1.395997   -1.166987
     14          8           0        4.940416    1.227831    0.003949
     15          6           0        5.949293    0.468605    0.616889
     16          9           0        5.452394   -0.250894    1.629699
     17          9           0        6.885151    1.306113    1.098300
     18          9           0        6.520763   -0.343922   -0.283689
     19          6           0        4.056173   -0.712351   -1.319708
     20          9           0        2.928050   -1.112566   -1.950551
     21          9           0        4.931089   -0.367357   -2.298173
     22          9           0        4.578856   -1.771802   -0.674278
     23          6           0        0.950866   -1.348844    0.194198
     24          8           0        1.711809   -2.280516   -0.050710
     25          7           0       -0.420672   -1.470844    0.135745
     26          6           0       -0.930372   -2.829530   -0.031961
     27          9           0       -0.203425   -3.636615    0.808649
     28          9           0       -0.592019   -3.246938   -1.286736
     29          6           0       -2.421306   -3.218881    0.232016
     30          9           0       -2.511395   -4.594532    0.193256
     31          8           0       -3.450190   -2.775123   -0.650570
     32          6           0       -3.216505   -3.104580   -1.995784
     33          9           0       -2.316939   -2.258694   -2.529511
     34          9           0       -4.373399   -2.979807   -2.674518
     35          9           0       -2.776912   -4.366719   -2.127541
     36          6           0       -2.733950   -2.813714    1.673689
     37          9           0       -2.607433   -1.483370    1.888450
     38          9           0       -4.000812   -3.147033    2.022718
     39          9           0       -1.913863   -3.418134    2.565100
     40          6           0       -1.181275   -0.394117   -0.220677
     41          8           0       -2.351346   -0.519078   -0.568903
     42          1           0       -3.046817    5.800024   -0.089434
     43          1           0       -1.570928    5.274127    0.737194
     44          1           0       -1.854492    4.829721   -0.958527
     45          1           0       -3.620449    3.951396    1.382854
     46          1           0       -3.792731    3.421562   -0.286894
     47          1           0       -2.708780    1.734610    1.208073
     48          1           0       -1.390567    2.845048    1.534792
     49          1           0       -2.111234    1.776397   -1.254848
     50          1           0       -0.730570    2.804188   -0.883398
 ---------------------------------------------------------------------
                    Distance matrix (angstroms):
                    1          2          3          4          5
     1  C    0.000000
     2  C    1.520806   0.000000
     3  C    2.550352   1.529373   0.000000
     4  C    3.133239   2.557259   1.532325   0.000000
     5  N    4.491855   3.847065   2.477417   1.466378   0.000000
     6  C    4.989361   4.632370   3.247441   2.442035   1.379948
     7  O    4.527094   4.518785   3.339972   2.729678   2.280100
     8  N    6.349430   5.903837   4.446897   3.674642   2.329994
     9  C    7.205959   6.975034   5.575215   4.853599   3.657255
    10  F    8.409725   8.046524   6.580156   5.948548   4.625779
    11  F    6.883281   6.762650   5.434233   5.026835   4.060751
    12  C    7.605183   7.620046   6.362572   5.397291   4.384851
    13  F    6.610826   6.778723   5.680321   4.579581   3.851231
    14  O    8.183656   8.389928   7.221326   6.394286   5.535949
    15  C    9.449879   9.576380   8.332254   7.577660   6.585882
    16  F    9.516507   9.461279   8.116912   7.508201   6.386812
    17  F    9.982456  10.250580   9.094214   8.449571   7.584492
    18  F   10.334494  10.431499   9.170506   8.256785   7.200111
    19  C    8.658312   8.569708   7.287858   6.151613   5.025344
    20  F    8.283128   8.063750   6.801392   5.536932   4.396837
    21  F    9.310048   9.390355   8.221673   6.998092   6.033367
    22  F    9.684467   9.474336   8.098883   7.075090   5.806354
    23  C    7.128444   6.466245   4.993504   4.160419   2.697284
    24  O    8.307623   7.680871   6.217363   5.323368   3.875914
    25  N    6.724714   5.829522   4.408515   3.680401   2.338731
    26  C    7.929505   6.902085   5.565328   4.898990   3.691992
    27  F    8.906562   7.895591   6.474554   5.927109   4.599312
    28  F    8.504078   7.594042   6.335556   5.396395   4.242471
    29  C    8.196651   6.969264   5.800096   5.394639   4.477617
    30  F    9.572244   8.334236   7.176822   6.750762   5.781803
    31  O    7.857410   6.600074   5.668297   5.231357   4.644733
    32  C    8.371554   7.255761   6.388011   5.658528   5.089753
    33  F    7.667062   6.727794   5.833309   4.845293   4.272036
    34  F    8.639895   7.514895   6.892459   6.233510   5.943597
    35  F    9.593474   8.495899   7.526113   6.750639   5.986687
    36  C    7.973115   6.648531   5.472607   5.465307   4.624167
    37  F    6.730012   5.408973   4.212758   4.404438   3.705025
    38  F    8.530505   7.100191   6.128169   6.312666   5.691921
    39  F    8.782020   7.523684   6.234259   6.258611   5.232054
    40  C    5.496124   4.572001   3.242618   2.444056   1.377355
    41  O    5.524265   4.418868   3.354634   2.726004   2.271897
    42  H    1.094775   2.157047   3.489072   4.139085   5.537053
    43  H    1.094558   2.169508   2.780308   3.468873   4.628194
    44  H    1.093849   2.174945   2.873781   2.881637   4.260368
    45  H    2.138679   1.096555   2.145536   3.483548   4.614041
    46  H    2.150734   1.096172   2.164007   2.787409   4.121377
    47  H    3.473218   2.143703   1.097325   2.159041   2.683664
    48  H    2.782358   2.161616   1.096949   2.167143   2.745946
    49  H    3.447549   2.764381   2.166112   1.096324   2.100445
    50  H    2.844097   2.843493   2.172660   1.095394   2.094895
                    6          7          8          9         10
     6  C    0.000000
     7  O    1.228850   0.000000
     8  N    1.371185   2.280406   0.000000
     9  C    2.418579   2.721922   1.456371   0.000000
    10  F    3.543398   4.002551   2.301684   1.360368   0.000000
    11  F    2.720668   2.533087   2.276730   1.373276   2.133992
    12  C    3.193881   3.208963   2.580075   1.557759   2.406547
    13  F    2.812621   2.613448   2.794409   2.381892   3.560053
    14  O    4.240752   3.895423   3.780274   2.514412   3.132445
    15  C    5.277121   5.059775   4.547487   3.120068   3.135324
    16  F    5.091827   5.043890   4.169095   2.741580   2.291453
    17  F    6.231635   5.802606   5.656732   4.228249   4.290672
    18  F    5.995449   5.939399   5.147770   3.828940   3.667956
    19  C    4.097486   4.426741   3.248330   2.529814   2.813669
    20  F    3.807370   4.411840   3.044530   2.964879   3.349234
    21  F    5.139090   5.285063   4.486677   3.730493   4.068344
    22  F    4.871211   5.312233   3.744709   2.889727   2.492897
    23  C    2.396070   3.523199   1.370917   2.435956   2.672089
    24  O    3.477422   4.496909   2.260535   2.722309   2.467247
    25  N    2.753241   3.979191   2.336538   3.672261   3.972235
    26  C    4.210137   5.437485   3.649747   4.826533   4.816689
    27  F    4.788582   5.969442   3.904957   4.789563   4.397428
    28  F    4.742253   5.945725   4.148133   5.198581   5.211647
    29  C    5.283286   6.476585   4.966610   6.233651   6.243059
    30  F    6.487233   7.701118   5.987323   7.122413   6.918874
    31  O    5.719392   6.855348   5.689594   7.059543   7.278480
    32  C    6.144655   7.279585   6.077256   7.386666   7.637915
    33  F    5.284542   6.370669   5.288346   6.562978   6.967388
    34  F    7.122020   8.184274   7.222983   8.568835   8.909516
    35  F    6.866734   8.053220   6.547473   7.726433   7.769489
    36  C    5.350098   6.448141   5.109338   6.346816   6.316195
    37  F    4.465873   5.451639   4.492249   5.786348   5.976907
    38  F    6.536978   7.583888   6.413770   7.670002   7.646413
    39  F    5.651055   6.722551   5.142287   6.163029   5.864894
    40  C    2.425009   3.541490   2.735406   4.188576   4.838349
    41  O    3.539337   4.547549   3.962432   5.414709   6.034862
    42  H    6.082165   5.607033   7.441657   8.295924   9.501438
    43  H    4.837878   4.169215   6.170337   6.857515   8.057197
    44  H    4.747719   4.280877   6.113313   6.941614   8.207293
    45  H    5.339035   5.213066   6.545352   7.594247   8.587360
    46  H    5.131142   5.185206   6.360849   7.539701   8.594724
    47  H    3.613742   3.989128   4.592603   5.838440   6.670854
    48  H    3.045713   2.879331   4.216632   5.149148   6.148401
    49  H    3.300091   3.725127   4.388937   5.646455   6.689983
    50  H    2.564511   2.415715   3.888460   4.827100   6.062328
                   11         12         13         14         15
    11  F    0.000000
    12  C    2.369889   0.000000
    13  F    2.972307   1.380171   0.000000
    14  O    2.647366   1.437801   2.190672   0.000000
    15  C    3.220890   2.393066   3.490007   1.403550   0.000000
    16  F    2.759381   2.726938   4.010422   2.256504   1.338048
    17  F    3.969158   3.543510   4.415060   2.232874   1.344993
    18  F    4.298170   2.860198   3.941123   2.247363   1.340828
    19  C    3.685338   1.527358   2.321474   2.509633   2.954483
    20  F    4.273202   2.378903   2.633490   3.653375   4.268461
    21  F    4.709538   2.373034   2.784666   2.800799   3.198931
    22  F    4.013150   2.400504   3.531969   3.096533   2.926539
    23  C    3.474543   3.421558   3.740472   4.753100   5.335360
    24  O    3.949073   3.466034   4.084172   4.768164   5.095059
    25  N    4.506850   4.663865   4.720918   6.003456   6.676033
    26  C    5.756048   5.769102   5.946414   7.136499   7.656924
    27  F    5.695324   5.854194   6.334071   7.125270   7.399023
    28  F    6.329117   5.813033   5.931026   7.231685   7.760014
    29  C    7.019439   7.249191   7.328134   8.603500   9.154923
    30  F    7.988982   8.104843   8.317828   9.458606   9.869046
    31  O    7.837844   7.934536   7.779803   9.319566  10.023897
    32  C    8.330328   8.022757   7.797265   9.450083  10.178682
    33  F    7.560061   7.016105   6.672301   8.440585   9.255733
    34  F    9.468993   9.145888   8.787556  10.565299  11.370263
    35  F    8.777818   8.335102   8.284302   9.767261  10.346927
    36  C    6.866221   7.589441   7.732165   8.832780   9.342866
    37  F    6.114693   7.065368   7.082542   8.238445   8.868181
    38  F    8.120282   8.921393   9.010357  10.156792  10.679597
    39  F    6.633352   7.511169   7.887270   8.667504   8.985070
    40  C    4.821733   5.043421   4.732884   6.336898   7.231238
    41  O    6.020264   6.217077   5.805626   7.519950   8.442880
    42  H    7.944111   8.665278   7.635319   9.203780  10.481074
    43  H    6.347081   7.278675   6.360155   7.701153   8.925314
    44  H    6.762037   7.144702   6.028863   7.750532   9.077463
    45  H    7.255431   8.370759   7.625644   9.088872  10.212566
    46  H    7.495054   8.129069   7.234660   9.009157  10.219775
    47  H    5.773731   6.805586   6.281557   7.759957   8.770091
    48  H    4.764387   6.010262   5.434518   6.711201   7.769400
    49  H    5.983706   6.096280   5.222444   7.184098   8.377697
    50  H    4.920441   5.101587   4.087863   5.952509   7.233697
                   16         17         18         19         20
    16  F    0.000000
    17  F    2.181616   0.000000
    18  F    2.193427   2.182954   0.000000
    19  C    3.295660   4.233684   2.698755   0.000000
    20  F    4.464637   5.550149   4.034455   1.353069   0.000000
    21  F    3.964026   4.260855   2.566273   1.357163   2.165258
    22  F    2.895607   4.234925   2.441803   1.346185   2.188293
    23  C    4.850764   6.563683   5.679965   3.512829   2.926608
    24  O    4.575491   6.399031   5.189481   3.092821   2.540225
    25  N    6.181673   7.874837   7.044814   4.768207   3.961683
    26  C    7.081679   8.914226   7.858818   5.568336   4.638574
    27  F    6.642704   8.646523   7.566355   5.587969   4.877514
    28  F    7.349612   9.073408   7.747598   5.294422   4.169782
    29  C    8.529808  10.384419   9.407015   7.116760   6.149453
    30  F    9.184361  11.132466   9.993750   7.777746   6.804966
    31  O    9.530339  11.248747  10.269627   7.813339   6.718333
    32  C    9.820258  11.448625  10.264838   7.685811   6.459545
    33  F    9.038408  10.514149   9.317459   6.668685   5.399881
    34  F   11.068851  12.623716  11.460660   8.833717   7.571121
    35  F    9.938730  11.659440  10.297060   7.790895   6.570192
    36  C    8.578240  10.480036   9.776549   7.712452   6.934498
    37  F    8.157620   9.925457   9.452010   7.435751   6.746629
    38  F    9.894705  11.797849  11.130161   9.056185   8.242272
    39  F    8.072678  10.094189   9.418561   7.619339   7.010768
    40  C    6.888394   8.348515   7.702459   5.360970   4.516103
    41  O    8.111975   9.561578   8.878420   6.454251   5.489372
    42  H   10.573817  10.965853  11.372088   9.714786   9.324521
    43  H    8.980505   9.347770   9.903542   8.469535   8.261636
    44  H    9.268341   9.645087   9.867466   8.110547   7.692047
    45  H   10.001833  10.837256  11.138730   9.380027   8.924020
    46  H   10.130775  10.973197  10.979392   8.930915   8.276169
    47  H    8.409801   9.604123   9.577584   7.625083   7.060961
    48  H    7.511323   8.428900   8.721556   7.104241   6.816214
    49  H    8.344998   9.310930   8.941492   6.650938   5.850170
    50  H    7.340179   8.010653   7.927930   5.955613   5.464913
                   21         22         23         24         25
    21  F    0.000000
    22  F    2.175677   0.000000
    23  C    4.797646   3.754391   0.000000
    24  O    4.367497   2.977849   1.227610   0.000000
    25  N    5.981888   5.073657   1.378193   2.288626   0.000000
    26  C    6.749425   5.646499   2.404711   2.698683   1.460804
    27  F    6.834005   5.342922   2.635116   2.499125   2.278280
    28  F    6.310286   5.411939   2.859444   2.787356   2.281956
    29  C    8.281954   7.205392   3.856166   4.247717   2.658465
    30  F    8.914415   7.680630   4.745708   4.821788   3.759236
    31  O    8.874557   8.091526   4.702893   5.220220   3.390784
    32  C    8.600414   8.018125   5.024501   5.361965   3.876750
    33  F    7.494303   7.157579   4.350284   4.730300   3.364539
    34  F    9.671609   9.252195   6.263974   6.663568   5.079232
    35  F    8.685464   7.934286   5.328637   5.367875   4.365824
    36  C    8.972913   7.750849   4.232329   4.798190   3.085422
    37  F    8.694976   7.635019   3.943359   4.801212   2.802509
    38  F   10.304152   9.098118   5.576386   6.138729   4.380374
    39  F    8.933758   7.440388   4.255562   4.613256   3.453017
    40  C    6.455827   5.939939   2.372688   3.457937   1.365611
    41  O    7.486471   7.043303   3.489332   4.458746   2.264926
    42  H   10.322892  10.762225   8.195623   9.377694   7.733878
    43  H    9.127761   9.458182   7.107604   8.274647   6.868731
    44  H    8.651496   9.222194   6.882839   8.006129   6.553655
    45  H   10.263059  10.208594   7.099463   8.326152   6.418297
    46  H    9.721429   9.859238   6.744623   7.929025   5.956932
    47  H    8.664850   8.303482   4.891691   6.103063   4.081698
    48  H    8.060676   7.863161   4.986806   6.197577   4.639499
    49  H    7.434953   7.595004   4.609048   5.702995   3.916162
    50  H    6.641887   7.012376   4.608266   5.702000   4.405745
                   26         27         28         29         30
    26  C    0.000000
    27  F    1.373486   0.000000
    28  F    1.364981   2.166447   0.000000
    29  C    1.563382   2.329378   2.377748   0.000000
    30  F    2.380250   2.573527   2.773155   1.379143   0.000000
    31  O    2.595211   3.662372   2.965882   1.426353   2.214414
    32  C    3.026327   4.150489   2.722304   2.368227   2.740262
    33  F    2.913104   4.184366   2.344454   2.925557   3.592689
    34  F    4.342825   5.472891   4.036847   3.509382   3.781339
    35  F    3.188121   3.972040   2.595115   2.647923   2.347019
    36  C    2.482415   2.798038   3.679629   1.529813   2.326483
    37  F    2.883168   3.403188   4.153778   2.406328   3.544324
    38  F    3.708115   4.016690   4.752088   2.388852   2.767769
    39  F    2.838738   2.461392   4.075932   2.395930   2.714148
    40  C    2.455566   3.539703   3.101982   3.117996   4.425387
    41  O    2.765079   4.028679   3.324415   2.816967   4.149196
    42  H    8.885485   9.896544   9.450243   9.046283  10.412175
    43  H    8.165241   9.015348   8.812667   8.550411   9.928282
    44  H    7.770241   8.804986   8.181319   8.155898   9.517073
    45  H    7.430960   8.341683   8.253127   7.360383   8.699312
    46  H    6.879988   7.993822   7.464123   6.800409   8.132043
    47  H    5.052899   5.940236   5.959914   5.056916   6.413022
    48  H    5.904856   6.629370   6.760991   6.287359   7.642207
    49  H    4.909628   6.099054   5.248135   5.221083   6.545676
    50  H    5.701197   6.680183   6.066136   6.354534   7.685804
                   31         32         33         34         35
    31  O    0.000000
    32  C    1.404547   0.000000
    33  F    2.254191   1.345216   0.000000
    34  F    2.233960   1.347090   2.184046   0.000000
    35  F    2.273307   1.342981   2.194749   2.184372   0.000000
    36  C    2.432420   3.712478   4.260145   4.649977   4.106461
    37  F    2.970772   4.252830   4.494874   5.116506   4.946778
    38  F    2.754627   4.094545   4.934305   4.714956   4.495577
    39  F    3.621367   4.753615   5.240404   5.804743   4.864725
    40  C    3.316922   3.826196   3.177593   4.785058   4.686550
    41  O    2.510750   3.077224   2.621342   3.818049   4.173104
    42  H    8.602949   9.107960   8.451605   9.248130  10.372531
    43  H    8.381404   8.965480   8.244470   9.360612  10.129512
    44  H    7.776551   8.116903   7.275127   8.383212   9.316220
    45  H    7.029215   7.833592   7.454593   8.066646   9.067826
    46  H    6.216792   6.770736   6.282722   6.856781   8.067043
    47  H    4.933755   5.825826   5.483571   6.330181   6.953933
    48  H    6.372141   7.155214   6.589758   7.781035   8.206352
    49  H    4.782707   5.059105   4.236631   5.454753   6.240400
    50  H    6.211220   6.506214   5.555090   7.066322   7.560246
                   36         37         38         39         40
    36  C    0.000000
    37  F    1.353493   0.000000
    38  F    1.355678   2.174237   0.000000
    39  F    1.353691   2.163841   2.173253   0.000000
    40  C    3.442945   2.769263   4.534441   4.176352   0.000000
    41  O    3.231247   2.652173   4.042695   4.291607   1.227169
    42  H    8.797896   7.559954   9.242355   9.659429   6.470306
    43  H    8.224525   6.932784   8.858490   8.888996   5.761800
    44  H    8.131673   6.966155   8.781977   8.969202   5.318470
    45  H    6.829142   5.551442   7.137352   7.656377   5.234918
    46  H    6.621448   5.495035   6.965920   7.644963   4.624229
    47  H    4.572164   3.290681   5.115020   5.387410   2.984305
    48  H    5.817693   4.510104   6.554120   6.368895   3.690212
    49  H    5.480258   4.555504   6.209115   6.450900   2.577880
    50  H    6.489457   5.439569   7.386273   7.211769   3.297194
                   41         42         43         44         45
    41  O    0.000000
    42  H    6.375313   0.000000
    43  H    5.989672   1.771477   0.000000
    44  H    5.385937   1.765913   1.775774   0.000000
    45  H    5.040349   2.431895   2.523298   3.061392   0.000000
    46  H    4.205444   2.500492   3.068739   2.488126   1.760245
    47  H    2.892147   4.280816   3.747615   3.873458   2.403295
    48  H    4.082398   3.756748   2.563029   3.220372   2.493885
    49  H    2.407775   4.292212   4.061315   3.078394   3.737087
    50  H    3.710784   3.869162   3.071338   2.317677   3.847517
                   46         47         48         49         50
    46  H    0.000000
    47  H    2.501136   0.000000
    48  H    3.069414   1.754281   0.000000
    49  H    2.543803   2.534716   3.073022   0.000000
    50  H    3.180220   3.071085   2.506972   1.760841   0.000000
 Symmetry turned off by external request.
 Stoichiometry    C15H9F18N3O5(1+,2)
 Framework group  C1[X(C15H9F18N3O5)]
 Deg. of freedom   144
 Full point group                 C1      NOp   1
 Rotational constants (GHZ):      0.1351419      0.0562590      0.0485943
 Leave Link  202 at Sun Mar  3 17:26:52 2024, MaxMem=  5368709120 cpu:         0.1
 (Enter /home/k0335/k033513/app/g09/l301.exe)
 Standard basis: 6-31G(d,p) (6D, 7F)
 Ernie: Thresh=  0.10000D-02 Tol=  0.10000D-05 Strict=F.
   660 basis functions,  1211 primitive gaussians,   660 cartesian basis functions
   161 alpha electrons      160 beta electrons
       nuclear repulsion energy      6324.5395128766 Hartrees.
 IExCor=20419 DFT=T Ex+Corr=CAM-B3LYP ExCW=0 ScaHFX=  1.000000
 ScaDFX=  1.000000  1.000000  1.000000  0.810000 ScalE2=  1.000000  1.000000
 IRadAn=      0 IRanWt=     -1 IRanGd=            0 ICorTp=0 IEmpDi=  4
  HFx wShort=  0.000000 wLong=  0.330000 cFull=  0.190000 cShort=  0.000000 cLong=  0.460000
  DFx wShort=  0.000000 wLong=  0.330000 cFull=  0.190000 cShort=  0.000000 cLong=  0.460000
 NAtoms=   50 NActive=   50 NUniq=   50 SFac= 1.00D+00 NAtFMM=   60 NAOKFM=F Big=F
 Integral buffers will be    131072 words long.
 Raffenetti 2 integral format.
 Two-electron integral symmetry is turned off.
 Using the following non-standard input for PCM:
 eps=4.9
 --- end of non-standard input.
 ------------------------------------------------------------------------------
 Polarizable Continuum Model (PCM)
 =================================
 Model                : PCM (using non-symmetric T matrix).
 Atomic radii         : UFF (Universal Force Field).
 Polarization charges : Total charges.
 Charge compensation  : None.
 Solution method      : On-the-fly selection.
 Cavity type          : Scaled VdW (van der Waals Surface) (Alpha=1.100).
 Cavity algorithm     : GePol (No added spheres)
                        Default sphere list used, NSphG=   50.
                        Lebedev-Laikov grids with approx.  5.0 points / Ang**2.
                        Smoothing algorithm: Karplus/York (Gamma=1.0000).
                        Polarization charges: spherical gaussians, with
                                              point-specific exponents (IZeta= 3).
                        Self-potential: point-specific (ISelfS= 7).
                        Self-field    : sphere-specific E.n sum rule (ISelfD= 2).
 Solvent              : Generic,
                        Eps                           =   4.900000
                        Eps(infinity)                 =   0.000000
                        RSolv                         =   0.000000 Ang.
                        Molar volume                  =   0.000000 cm**3/mol
                        Thermal expansion coefficient =   0.000000 K**-1
                        Absolute temperature          = 298.150000 K
                        Numeral density               =   0.000000 Ang**-3
                        Hydrogen bond acidity         =   0.000000
                        Hydrogen bond basicity        =   0.000000
                        Surface tension at interface  =   0.000000 (cal/mol)*Ang**-2
                        Carbon aromaticity            =   0.000000
                        Electronegative halogenicity  =   0.000000
 ------------------------------------------------------------------------------
 GePol: Number of generator spheres                  =      50
 GePol: Total number of spheres                      =      50
 GePol: Number of exposed spheres                    =      50 (100.00%)
 GePol: Number of points                             =    3919
 GePol: Average weight of points                     =       0.12
 GePol: Minimum weight of points                     =   0.21D-10
 GePol: Maximum weight of points                     =    0.20577
 GePol: Number of points with low weight             =     181
 GePol: Fraction of low-weight points (<1% of avg)   =       4.62%
 GePol: Cavity surface area                          =    485.856 Ang**2
 GePol: Cavity volume                                =    571.122 Ang**3
 Leave Link  301 at Sun Mar  3 17:26:52 2024, MaxMem=  5368709120 cpu:         0.7
 (Enter /home/k0335/k033513/app/g09/l302.exe)
 NPDir=0 NMtPBC=     1 NCelOv=     1 NCel=       1 NClECP=     1 NCelD=      1
         NCelK=      1 NCelE2=     1 NClLst=     1 CellRange=     0.0.
 One-electron integrals computed using PRISM.
 NBasis=   660 RedAO= T EigKep=  1.08D-03  NBF=   660
 NBsUse=   660 1.00D-06 EigRej= -1.00D+00 NBFU=   660
 Precomputing XC quadrature grid using
 IXCGrd= 4 IRadAn=           0 IRanWt=          -1 IRanGd=           0 AccXCQ= 0.00D+00.
 Generated NRdTot=       0 NPtTot=           0 NUsed=           0 NTot=          32
 NSgBfM=   637   637   638   638   638 MxSgAt=    50 MxSgA2=    50.
 Leave Link  302 at Sun Mar  3 17:26:53 2024, MaxMem=  5368709120 cpu:        14.9
 (Enter /home/k0335/k033513/app/g09/l303.exe)
 DipDrv:  MaxL=1.
 Leave Link  303 at Sun Mar  3 17:26:53 2024, MaxMem=  5368709120 cpu:         0.9
 (Enter /home/k0335/k033513/app/g09/l401.exe)
 ExpMin= 1.61D-01 ExpMax= 7.00D+03 ExpMxC= 1.05D+03 IAcc=1 IRadAn=         1 AccDes= 0.00D+00
 Harris functional with IExCor=20419 and IRadAn=       1 diagonalized for initial guess.
 HarFok:  IExCor=20419 AccDes= 0.00D+00 IRadAn=         1 IDoV= 1 UseB2=F ITyADJ=14
 ICtDFT=  3500011 ScaDFX=  1.000000  1.000000  1.000000  1.000000
 FoFCou: FMM=F IPFlag=           0 FMFlag=      100000 FMFlg1=           0
         NFxFlg=           0 DoJE=T BraDBF=F KetDBF=T FulRan=T
         wScrn=  0.000000 ICntrl=     500 IOpCl=  0 I1Cent=   200000004 NGrid=           0
         NMat0=    1 NMatS0=      1 NMatT0=    0 NMatD0=    1 NMtDS0=    0 NMtDT0=    0
 Symmetry not used in FoFCou.
 Harris En= -2825.15279392966    
 JPrj=0 DoOrth=F DoCkMO=F.
 Initial guess <Sx>= 0.0000 <Sy>= 0.0000 <Sz>= 0.5000 <S**2>= 0.7500 S= 0.5000
 Leave Link  401 at Sun Mar  3 17:26:54 2024, MaxMem=  5368709120 cpu:        18.7
 (Enter /home/k0335/k033513/app/g09/l502.exe)
 UHF open shell SCF:
 Using DIIS extrapolation, IDIIS=  1040.
 Two-electron integral symmetry not used.
 IVT=     1345250 IEndB=     1345250 NGot=  5368709120 MDV=  5367816771
 LenX=  5367816771 LenY=  5367380511
 Requested convergence on RMS density matrix=1.00D-08 within 128 cycles.
 Requested convergence on MAX density matrix=1.00D-06.
 Requested convergence on             energy=1.00D-06.
 No special actions if energy rises.
 Fock matrices will be formed incrementally for  20 cycles.

 Cycle   1  Pass 1  IDiag  1:
 FoFJK:  IHMeth= 1 ICntrl=       0 DoSepK=T KAlg= 0 I1Cent=   0 FoldK=F
 IRaf=         1 NMat=   1 IRICut=       1 DoRegI=T DoRafI=F ISym2E= 0.
 FoFCou: FMM=F IPFlag=           0 FMFlag=      100000 FMFlg1=           0
         NFxFlg=           0 DoJE=T BraDBF=F KetDBF=F FulRan=T
         wScrn=  0.000000 ICntrl=     500 IOpCl=  0 I1Cent=           0 NGrid=           0
         NMat0=    1 NMatS0=      1 NMatT0=    0 NMatD0=    1 NMtDS0=    0 NMtDT0=    0
 Symmetry not used in FoFCou.
 Inv3:  Mode=1 IEnd=    46075683.
 Iteration    1 A*A^-1 deviation from unit magnitude is 6.88D-15 for   3915.
 Iteration    1 A*A^-1 deviation from orthogonality  is 3.64D-15 for   3912     99.
 Iteration    1 A^-1*A deviation from unit magnitude is 6.88D-15 for   3915.
 Iteration    1 A^-1*A deviation from orthogonality  is 1.31D-13 for   3743   3715.
 E= -2912.19148156615    
 DIIS: error= 4.96D-02 at cycle   1 NSaved=   1.
 NSaved= 1 IEnMin= 1 EnMin= -2912.19148156615     IErMin= 1 ErrMin= 4.96D-02
 ErrMax= 4.96D-02  0.00D+00 EMaxC= 1.00D-01 BMatC= 1.04D+01 BMatP= 1.04D+01
 IDIUse=3 WtCom= 5.04D-01 WtEn= 4.96D-01
 Coeff-Com:  0.100D+01
 Coeff-En:   0.100D+01
 Coeff:      0.100D+01
 Gap=     0.528 Goal=   None    Shift=    0.000
 Gap=     0.016 Goal=   None    Shift=    0.000
 GapD=    0.016 DampG=0.250 DampE=0.500 DampFc=0.2500 IDamp=-1.
 Damping current iteration by 2.50D-01
 RMSDP=3.26D-03 MaxDP=1.67D-01              OVMax= 6.33D-01

 Cycle   2  Pass 1  IDiag  1:
 RMSU=  8.14D-04    CP:  1.00D+00
 E= -2912.57437338687     Delta-E=       -0.382891820722 Rises=F Damp=T
 DIIS: error= 3.58D-02 at cycle   2 NSaved=   2.
 NSaved= 2 IEnMin= 2 EnMin= -2912.57437338687     IErMin= 2 ErrMin= 3.58D-02
 ErrMax= 3.58D-02  0.00D+00 EMaxC= 1.00D-01 BMatC= 4.27D+00 BMatP= 1.04D+01
 IDIUse=3 WtCom= 6.42D-01 WtEn= 3.58D-01
 Coeff-Com: -0.144D+01 0.244D+01
 Coeff-En:   0.000D+00 0.100D+01
 Coeff:     -0.923D+00 0.192D+01
 Gap=     0.493 Goal=   None    Shift=    0.000
 Gap=     0.065 Goal=   None    Shift=    0.000
 RMSDP=1.58D-03 MaxDP=9.38D-02 DE=-3.83D-01 OVMax= 6.92D-01

 Cycle   3  Pass 1  IDiag  1:
 RMSU=  1.14D-03    CP:  1.00D+00  2.35D+00
 E= -2913.20157975424     Delta-E=       -0.627206367362 Rises=F Damp=F
 DIIS: error= 8.59D-03 at cycle   3 NSaved=   3.
 NSaved= 3 IEnMin= 3 EnMin= -2913.20157975424     IErMin= 3 ErrMin= 8.59D-03
 ErrMax= 8.59D-03  0.00D+00 EMaxC= 1.00D-01 BMatC= 5.28D-01 BMatP= 4.27D+00
 IDIUse=3 WtCom= 9.14D-01 WtEn= 8.59D-02
 Coeff-Com: -0.607D+00 0.100D+01 0.604D+00
 Coeff-En:   0.000D+00 0.000D+00 0.100D+01
 Coeff:     -0.555D+00 0.918D+00 0.638D+00
 Gap=     0.356 Goal=   None    Shift=    0.000
 Gap=     0.026 Goal=   None    Shift=    0.000
 RMSDP=7.80D-04 MaxDP=9.61D-02 DE=-6.27D-01 OVMax= 3.95D-01

 Cycle   4  Pass 1  IDiag  1:
 RMSU=  5.93D-04    CP:  1.00D+00  2.61D+00  5.99D-01
 E= -2913.28401368792     Delta-E=       -0.082433933683 Rises=F Damp=F
 DIIS: error= 3.44D-03 at cycle   4 NSaved=   4.
 NSaved= 4 IEnMin= 4 EnMin= -2913.28401368792     IErMin= 4 ErrMin= 3.44D-03
 ErrMax= 3.44D-03  0.00D+00 EMaxC= 1.00D-01 BMatC= 1.59D-01 BMatP= 5.28D-01
 IDIUse=3 WtCom= 9.66D-01 WtEn= 3.44D-02
 Coeff-Com: -0.964D-01 0.154D+00 0.357D+00 0.585D+00
 Coeff-En:   0.000D+00 0.000D+00 0.217D+00 0.783D+00
 Coeff:     -0.930D-01 0.149D+00 0.352D+00 0.592D+00
 Gap=     0.362 Goal=   None    Shift=    0.000
 Gap=     0.063 Goal=   None    Shift=    0.000
 RMSDP=3.41D-04 MaxDP=5.96D-02 DE=-8.24D-02 OVMax= 1.48D-01

 Cycle   5  Pass 1  IDiag  1:
 RMSU=  2.33D-04    CP:  9.99D-01  2.55D+00  7.71D-01  7.62D-01
 E= -2913.31803707195     Delta-E=       -0.034023384029 Rises=F Damp=F
 DIIS: error= 1.18D-03 at cycle   5 NSaved=   5.
 NSaved= 5 IEnMin= 5 EnMin= -2913.31803707195     IErMin= 5 ErrMin= 1.18D-03
 ErrMax= 1.18D-03  0.00D+00 EMaxC= 1.00D-01 BMatC= 1.30D-02 BMatP= 1.59D-01
 IDIUse=3 WtCom= 9.88D-01 WtEn= 1.18D-02
 Coeff-Com:  0.430D-02-0.599D-02 0.135D+00 0.322D+00 0.545D+00
 Coeff-En:   0.000D+00 0.000D+00 0.000D+00 0.000D+00 0.100D+01
 Coeff:      0.424D-02-0.592D-02 0.134D+00 0.318D+00 0.550D+00
 Gap=     0.359 Goal=   None    Shift=    0.000
 Gap=     0.072 Goal=   None    Shift=    0.000
 RMSDP=1.46D-04 MaxDP=1.00D-02 DE=-3.40D-02 OVMax= 8.05D-02

 Cycle   6  Pass 1  IDiag  1:
 RMSU=  1.22D-04    CP:  1.00D+00  2.58D+00  7.57D-01  8.35D-01  1.26D+00
 E= -2913.32416553339     Delta-E=       -0.006128461438 Rises=F Damp=F
 DIIS: error= 6.97D-04 at cycle   6 NSaved=   6.
 NSaved= 6 IEnMin= 6 EnMin= -2913.32416553339     IErMin= 6 ErrMin= 6.97D-04
 ErrMax= 6.97D-04  0.00D+00 EMaxC= 1.00D-01 BMatC= 2.33D-03 BMatP= 1.30D-02
 IDIUse=3 WtCom= 9.93D-01 WtEn= 6.97D-03
 Coeff-Com:  0.174D-01-0.240D-01 0.272D-01 0.869D-01 0.227D+00 0.666D+00
 Coeff-En:   0.000D+00 0.000D+00 0.000D+00 0.000D+00 0.000D+00 0.100D+01
 Coeff:      0.172D-01-0.238D-01 0.270D-01 0.863D-01 0.225D+00 0.668D+00
 Gap=     0.364 Goal=   None    Shift=    0.000
 Gap=     0.080 Goal=   None    Shift=    0.000
 RMSDP=1.37D-04 MaxDP=1.12D-02 DE=-6.13D-03 OVMax= 7.29D-02

 Cycle   7  Pass 1  IDiag  1:
 RMSU=  5.21D-05    CP:  9.99D-01  2.60D+00  7.44D-01  8.55D-01  1.65D+00
                    CP:  1.69D+00
 E= -2913.32870886019     Delta-E=       -0.004543326804 Rises=F Damp=F
 DIIS: error= 7.53D-04 at cycle   7 NSaved=   7.
 NSaved= 7 IEnMin= 7 EnMin= -2913.32870886019     IErMin= 6 ErrMin= 6.97D-04
 ErrMax= 7.53D-04  0.00D+00 EMaxC= 1.00D-01 BMatC= 1.58D-03 BMatP= 2.33D-03
 IDIUse=3 WtCom= 9.93D-01 WtEn= 6.97D-03
 Coeff-Com:  0.105D-01-0.128D-01 0.820D-02 0.941D-02 0.393D-01-0.347D+00
 Coeff-Com:  0.129D+01
 Coeff-En:   0.000D+00 0.000D+00 0.000D+00 0.000D+00 0.000D+00 0.000D+00
 Coeff-En:   0.100D+01
 Coeff:      0.104D-01-0.128D-01 0.814D-02 0.934D-02 0.390D-01-0.345D+00
 Coeff:      0.129D+01
 Gap=     0.363 Goal=   None    Shift=    0.000
 Gap=     0.090 Goal=   None    Shift=    0.000
 RMSDP=2.07D-04 MaxDP=2.30D-02 DE=-4.54D-03 OVMax= 1.21D-01

 Cycle   8  Pass 1  IDiag  1:
 RMSU=  5.14D-05    CP:  9.99D-01  2.61D+00  7.09D-01  8.40D-01  2.11D+00
                    CP:  2.77D+00  2.90D+00
 E= -2913.33518064268     Delta-E=       -0.006471782484 Rises=F Damp=F
 DIIS: error= 7.83D-04 at cycle   8 NSaved=   8.
 NSaved= 8 IEnMin= 8 EnMin= -2913.33518064268     IErMin= 6 ErrMin= 6.97D-04
 ErrMax= 7.83D-04  0.00D+00 EMaxC= 1.00D-01 BMatC= 2.18D-03 BMatP= 1.58D-03
 IDIUse=3 WtCom= 9.93D-01 WtEn= 6.97D-03
 Coeff-Com:  0.142D-02-0.413D-03 0.502D-01 0.914D-01 0.167D+00-0.843D+00
 Coeff-Com:  0.928D+00 0.605D+00
 Coeff-En:   0.000D+00 0.000D+00 0.000D+00 0.000D+00 0.000D+00 0.000D+00
 Coeff-En:   0.000D+00 0.100D+01
 Coeff:      0.141D-02-0.410D-03 0.498D-01 0.907D-01 0.166D+00-0.837D+00
 Coeff:      0.922D+00 0.608D+00
 Gap=     0.359 Goal=   None    Shift=    0.000
 Gap=     0.097 Goal=   None    Shift=    0.000
 RMSDP=1.15D-04 MaxDP=1.38D-02 DE=-6.47D-03 OVMax= 6.80D-02

 Cycle   9  Pass 1  IDiag  1:
 RMSU=  7.92D-05    CP:  9.99D-01  2.61D+00  6.85D-01  8.06D-01  2.26D+00
                    CP:  3.00D+00  3.00D+00  1.73D+00
 E= -2913.33875337004     Delta-E=       -0.003572727361 Rises=F Damp=F
 DIIS: error= 7.46D-04 at cycle   9 NSaved=   9.
 NSaved= 9 IEnMin= 9 EnMin= -2913.33875337004     IErMin= 6 ErrMin= 6.97D-04
 ErrMax= 7.46D-04  0.00D+00 EMaxC= 1.00D-01 BMatC= 2.03D-03 BMatP= 1.58D-03
 IDIUse=3 WtCom= 9.93D-01 WtEn= 6.97D-03
 Coeff-Com:  0.135D-02-0.445D-03 0.518D-01 0.950D-01 0.179D+00-0.860D+00
 Coeff-Com:  0.861D+00 0.476D+00 0.195D+00
 Coeff-En:   0.000D+00 0.000D+00 0.000D+00 0.000D+00 0.000D+00 0.000D+00
 Coeff-En:   0.000D+00 0.000D+00 0.100D+01
 Coeff:      0.134D-02-0.442D-03 0.514D-01 0.943D-01 0.178D+00-0.854D+00
 Coeff:      0.855D+00 0.473D+00 0.201D+00
 Gap=     0.358 Goal=   None    Shift=    0.000
 Gap=     0.100 Goal=   None    Shift=    0.000
 RMSDP=3.32D-05 MaxDP=3.92D-03 DE=-3.57D-03 OVMax= 1.99D-02

 Cycle  10  Pass 1  IDiag  1:
 RMSU=  6.88D-06    CP:  9.99D-01  2.61D+00  6.78D-01  7.96D-01  2.29D+00
                    CP:  3.00D+00  3.00D+00  1.98D+00  1.34D+00
 E= -2913.33975322214     Delta-E=       -0.000999852107 Rises=F Damp=F
 DIIS: error= 7.48D-04 at cycle  10 NSaved=  10.
 NSaved=10 IEnMin=10 EnMin= -2913.33975322214     IErMin= 6 ErrMin= 6.97D-04
 ErrMax= 7.48D-04  0.00D+00 EMaxC= 1.00D-01 BMatC= 1.95D-03 BMatP= 1.58D-03
 IDIUse=3 WtCom= 9.93D-01 WtEn= 6.97D-03
 Large coefficients: NSaved= 10 BigCof=   11.02 CofMax=   10.00 Det=-3.67D-06
 Inversion failed.  Reducing to  9 matrices.
 Coeff-Com:  0.294D-02 0.294D-01 0.480D-01 0.139D+00-0.233D+00 0.795D+00
 Coeff-Com: -0.101D+01-0.877D+01 0.100D+02
 Coeff-En:   0.000D+00 0.000D+00 0.000D+00 0.000D+00 0.000D+00 0.000D+00
 Coeff-En:   0.000D+00 0.000D+00 0.100D+01
 Coeff:      0.291D-02 0.292D-01 0.477D-01 0.138D+00-0.232D+00 0.789D+00
 Coeff:     -0.101D+01-0.870D+01 0.993D+01
 Gap=     0.354 Goal=   None    Shift=    0.000
 Gap=     0.105 Goal=   None    Shift=    0.000
 RMSDP=3.06D-04 MaxDP=3.71D-02 DE=-1.00D-03 OVMax= 1.55D-01

 Cycle  11  Pass 1  IDiag  1:
 RMSU=  1.54D-04    CP:  9.99D-01  2.62D+00  6.11D-01  6.58D-01  2.36D+00
                    CP:  3.00D+00  3.00D+00  3.00D+00  3.00D+00  3.00D+00
 E= -2913.34764905673     Delta-E=       -0.007895834589 Rises=F Damp=F
 DIIS: error= 5.00D-04 at cycle  11 NSaved=  10.
 NSaved=10 IEnMin=10 EnMin= -2913.34764905673     IErMin=10 ErrMin= 5.00D-04
 ErrMax= 5.00D-04  0.00D+00 EMaxC= 1.00D-01 BMatC= 1.57D-03 BMatP= 1.58D-03
 IDIUse=3 WtCom= 9.95D-01 WtEn= 5.00D-03
 Large coefficients: NSaved= 10 BigCof=   10.83 CofMax=   10.00 Det=-4.01D-06
 Inversion failed.  Reducing to  9 matrices.
 Large coefficients: NSaved=  9 BigCof=   10.59 CofMax=   10.00 Det=-4.08D-06
 Inversion failed.  Reducing to  8 matrices.
 Large coefficients: NSaved=  8 BigCof=   10.50 CofMax=   10.00 Det=-4.20D-06
 Inversion failed.  Reducing to  7 matrices.
 Large coefficients: NSaved=  7 BigCof=   10.50 CofMax=   10.00 Det=-4.21D-06
 Inversion failed.  Reducing to  6 matrices.
 Large coefficients: NSaved=  6 BigCof=   10.51 CofMax=   10.00 Det=-4.30D-06
 Inversion failed.  Reducing to  5 matrices.
 Large coefficients: NSaved=  5 BigCof=   10.76 CofMax=   10.00 Det=-5.16D-06
 Inversion failed.  Reducing to  4 matrices.
 Coeff-Com: -0.317D+00-0.753D+01 0.747D+01 0.137D+01
 Coeff-En:   0.000D+00 0.000D+00 0.000D+00 0.100D+01
 Coeff:     -0.315D+00-0.749D+01 0.743D+01 0.137D+01
 Gap=     0.338 Goal=   None    Shift=    0.000
 Gap=     0.144 Goal=   None    Shift=    0.000
 RMSDP=3.03D-04 MaxDP=2.93D-02 DE=-7.90D-03 OVMax= 1.21D-01

 Cycle  12  Pass 1  IDiag  1:
 RMSU=  1.42D-04    CP:  9.98D-01  2.61D+00  5.58D-01  5.27D-01  2.32D+00
                    CP:  3.00D+00  3.00D+00  3.00D+00  3.00D+00  3.00D+00
                    CP:  2.62D+00
 E= -2913.34870058730     Delta-E=       -0.001051530571 Rises=F Damp=F
 DIIS: error= 1.19D-03 at cycle  12 NSaved=   5.
 NSaved= 5 IEnMin= 5 EnMin= -2913.34870058730     IErMin= 4 ErrMin= 5.00D-04
 ErrMax= 1.19D-03  0.00D+00 EMaxC= 1.00D-01 BMatC= 1.21D-02 BMatP= 1.57D-03
 IDIUse=3 WtCom= 9.95D-01 WtEn= 5.00D-03
 Coeff-Com:  0.633D+00-0.202D+00-0.520D+00 0.843D+00 0.246D+00
 Coeff-En:   0.000D+00 0.000D+00 0.000D+00 0.000D+00 0.100D+01
 Coeff:      0.630D+00-0.201D+00-0.517D+00 0.839D+00 0.250D+00
 Gap=     0.354 Goal=   None    Shift=    0.000
 Gap=     0.121 Goal=   None    Shift=    0.000
 RMSDP=2.01D-04 MaxDP=2.32D-02 DE=-1.05D-03 OVMax= 8.53D-02

 Cycle  13  Pass 1  IDiag  1:
 RMSU=  2.85D-05    CP:  9.99D-01  2.62D+00  5.86D-01  6.09D-01  2.32D+00
                    CP:  3.00D+00  3.00D+00  3.00D+00  3.00D+00  3.00D+00
                    CP:  1.68D+00  1.16D-01
 E= -2913.34978050588     Delta-E=       -0.001079918575 Rises=F Damp=F
 DIIS: error= 4.80D-04 at cycle  13 NSaved=   6.
 NSaved= 6 IEnMin= 6 EnMin= -2913.34978050588     IErMin= 6 ErrMin= 4.80D-04
 ErrMax= 4.80D-04  0.00D+00 EMaxC= 1.00D-01 BMatC= 1.42D-03 BMatP= 1.57D-03
 IDIUse=3 WtCom= 9.95D-01 WtEn= 4.80D-03
 Coeff-Com:  0.632D+00 0.135D+01-0.217D+01 0.361D+00 0.252D+00 0.572D+00
 Coeff-En:   0.000D+00 0.000D+00 0.000D+00 0.000D+00 0.000D+00 0.100D+01
 Coeff:      0.629D+00 0.134D+01-0.216D+01 0.359D+00 0.251D+00 0.574D+00
 Gap=     0.351 Goal=   None    Shift=    0.000
 Gap=     0.119 Goal=   None    Shift=    0.000
 RMSDP=5.07D-05 MaxDP=6.39D-03 DE=-1.08D-03 OVMax= 3.12D-02

 Cycle  14  Pass 1  IDiag  1:
 RMSU=  1.56D-05    CP:  9.98D-01  2.62D+00  5.75D-01  5.83D-01  2.28D+00
                    CP:  3.00D+00  3.00D+00  3.00D+00  3.00D+00  3.00D+00
                    CP:  1.96D+00  1.36D-01  1.26D+00
 E= -2913.35051204398     Delta-E=       -0.000731538104 Rises=F Damp=F
 DIIS: error= 4.29D-04 at cycle  14 NSaved=   7.
 NSaved= 7 IEnMin= 7 EnMin= -2913.35051204398     IErMin= 7 ErrMin= 4.29D-04
 ErrMax= 4.29D-04  0.00D+00 EMaxC= 1.00D-01 BMatC= 1.29D-03 BMatP= 1.42D-03
 IDIUse=3 WtCom= 9.96D-01 WtEn= 4.29D-03
 Coeff-Com:  0.441D+00 0.345D+01-0.406D+01-0.469D+00 0.268D+00-0.166D+00
 Coeff-Com:  0.154D+01
 Coeff-En:   0.000D+00 0.000D+00 0.000D+00 0.000D+00 0.000D+00 0.000D+00
 Coeff-En:   0.100D+01
 Coeff:      0.439D+00 0.343D+01-0.404D+01-0.467D+00 0.267D+00-0.165D+00
 Coeff:      0.153D+01
 Gap=     0.349 Goal=   None    Shift=    0.000
 Gap=     0.120 Goal=   None    Shift=    0.000
 RMSDP=1.24D-04 MaxDP=1.51D-02 DE=-7.32D-04 OVMax= 7.87D-02

 Cycle  15  Pass 1  IDiag  1:
 RMSU=  2.07D-05    CP:  9.98D-01  2.62D+00  5.51D-01  5.19D-01  2.17D+00
                    CP:  3.00D+00  3.00D+00  3.00D+00  3.00D+00  3.00D+00
                    CP:  2.59D+00  2.50D-01  2.39D+00  3.00D+00
 E= -2913.35184177516     Delta-E=       -0.001329731180 Rises=F Damp=F
 DIIS: error= 3.82D-04 at cycle  15 NSaved=   8.
 NSaved= 8 IEnMin= 8 EnMin= -2913.35184177516     IErMin= 8 ErrMin= 3.82D-04
 ErrMax= 3.82D-04  0.00D+00 EMaxC= 1.00D-01 BMatC= 1.05D-03 BMatP= 1.29D-03
 IDIUse=3 WtCom= 9.96D-01 WtEn= 3.82D-03
 Coeff-Com:  0.186D+00 0.294D+01-0.310D+01-0.545D+00 0.247D+00-0.487D+00
 Coeff-Com:  0.944D+00 0.820D+00
 Coeff-En:   0.000D+00 0.000D+00 0.000D+00 0.000D+00 0.000D+00 0.000D+00
 Coeff-En:   0.000D+00 0.100D+01
 Coeff:      0.186D+00 0.293D+01-0.309D+01-0.543D+00 0.246D+00-0.486D+00
 Coeff:      0.940D+00 0.821D+00
 Gap=     0.347 Goal=   None    Shift=    0.000
 Gap=     0.124 Goal=   None    Shift=    0.000
 RMSDP=7.07D-05 MaxDP=9.27D-03 DE=-1.33D-03 OVMax= 4.41D-02

 Cycle  16  Pass 1  IDiag  1:
 RMSU=  2.46D-05    CP:  9.98D-01  2.62D+00  5.38D-01  4.89D-01  2.09D+00
                    CP:  3.00D+00  3.00D+00  3.00D+00  3.00D+00  3.00D+00
                    CP:  2.92D+00  3.56D-01  3.00D+00  3.00D+00  1.97D+00
 E= -2913.35235694439     Delta-E=       -0.000515169228 Rises=F Damp=F
 DIIS: error= 2.95D-04 at cycle  16 NSaved=   9.
 NSaved= 9 IEnMin= 9 EnMin= -2913.35235694439     IErMin= 9 ErrMin= 2.95D-04
 ErrMax= 2.95D-04  0.00D+00 EMaxC= 1.00D-01 BMatC= 6.18D-04 BMatP= 1.05D-03
 IDIUse=3 WtCom= 9.97D-01 WtEn= 2.95D-03
 Coeff-Com:  0.184D+00 0.139D+01-0.151D+01-0.785D-01 0.163D+00-0.263D+00
 Coeff-Com: -0.240D+00 0.113D+00 0.124D+01
 Coeff-En:   0.000D+00 0.000D+00 0.000D+00 0.000D+00 0.000D+00 0.000D+00
 Coeff-En:   0.000D+00 0.000D+00 0.100D+01
 Coeff:      0.183D+00 0.139D+01-0.151D+01-0.783D-01 0.163D+00-0.262D+00
 Coeff:     -0.239D+00 0.112D+00 0.124D+01
 Gap=     0.345 Goal=   None    Shift=    0.000
 Gap=     0.127 Goal=   None    Shift=    0.000
 RMSDP=6.52D-05 MaxDP=8.40D-03 DE=-5.15D-04 OVMax= 3.77D-02

 Cycle  17  Pass 1  IDiag  1:
 RMSU=  3.21D-05    CP:  9.98D-01  2.62D+00  5.28D-01  4.59D-01  2.01D+00
                    CP:  3.00D+00  3.00D+00  3.00D+00  3.00D+00  3.00D+00
                    CP:  3.00D+00  4.40D-01  3.00D+00  3.00D+00  3.00D+00
                    CP:  2.18D+00
 E= -2913.35260632994     Delta-E=       -0.000249385550 Rises=F Damp=F
 DIIS: error= 2.20D-04 at cycle  17 NSaved=  10.
 NSaved=10 IEnMin=10 EnMin= -2913.35260632994     IErMin=10 ErrMin= 2.20D-04
 ErrMax= 2.20D-04  0.00D+00 EMaxC= 1.00D-01 BMatC= 3.65D-04 BMatP= 6.18D-04
 IDIUse=3 WtCom= 9.98D-01 WtEn= 2.20D-03
 Coeff-Com:  0.146D+00 0.910D+00-0.106D+01 0.545D-01 0.125D+00-0.778D-01
 Coeff-Com: -0.217D+00-0.293D+00 0.664D+00 0.746D+00
 Coeff-En:   0.000D+00 0.000D+00 0.000D+00 0.000D+00 0.000D+00 0.000D+00
 Coeff-En:   0.000D+00 0.000D+00 0.000D+00 0.100D+01
 Coeff:      0.146D+00 0.908D+00-0.106D+01 0.543D-01 0.125D+00-0.777D-01
 Coeff:     -0.216D+00-0.293D+00 0.663D+00 0.747D+00
 Gap=     0.344 Goal=   None    Shift=    0.000
 Gap=     0.129 Goal=   None    Shift=    0.000
 RMSDP=2.46D-05 MaxDP=2.75D-03 DE=-2.49D-04 OVMax= 1.16D-02

 Cycle  18  Pass 1  IDiag  1:
 RMSU=  9.86D-06    CP:  9.98D-01  2.62D+00  5.24D-01  4.50D-01  1.99D+00
                    CP:  3.00D+00  3.00D+00  3.00D+00  3.00D+00  3.00D+00
                    CP:  3.00D+00  4.96D-01  3.00D+00  3.00D+00  3.00D+00
                    CP:  2.63D+00  1.48D+00
 E= -2913.35268903405     Delta-E=       -0.000082704108 Rises=F Damp=F
 DIIS: error= 1.54D-04 at cycle  18 NSaved=  11.
 NSaved=11 IEnMin=11 EnMin= -2913.35268903405     IErMin=11 ErrMin= 1.54D-04
 ErrMax= 1.54D-04  0.00D+00 EMaxC= 1.00D-01 BMatC= 1.55D-04 BMatP= 3.65D-04
 IDIUse=3 WtCom= 9.98D-01 WtEn= 1.54D-03
 Coeff-Com:  0.764D-01 0.561D+00-0.691D+00-0.205D-01 0.731D-01 0.181D-01
 Coeff-Com:  0.242D+00-0.249D+00-0.359D+00 0.165D+00 0.118D+01
 Coeff-En:   0.000D+00 0.000D+00 0.000D+00 0.000D+00 0.000D+00 0.000D+00
 Coeff-En:   0.000D+00 0.000D+00 0.000D+00 0.000D+00 0.100D+01
 Coeff:      0.763D-01 0.561D+00-0.690D+00-0.205D-01 0.730D-01 0.181D-01
 Coeff:      0.242D+00-0.248D+00-0.358D+00 0.165D+00 0.118D+01
 Gap=     0.344 Goal=   None    Shift=    0.000
 Gap=     0.132 Goal=   None    Shift=    0.000
 RMSDP=1.69D-05 MaxDP=1.80D-03 DE=-8.27D-05 OVMax= 6.80D-03

 Cycle  19  Pass 1  IDiag  1:
 RMSU=  6.63D-06    CP:  9.98D-01  2.62D+00  5.23D-01  4.45D-01  1.98D+00
                    CP:  3.00D+00  3.00D+00  3.00D+00  3.00D+00  3.00D+00
                    CP:  3.00D+00  5.47D-01  3.00D+00  3.00D+00  3.00D+00
                    CP:  2.89D+00  1.74D+00  1.81D+00
 E= -2913.35273883088     Delta-E=       -0.000049796829 Rises=F Damp=F
 DIIS: error= 6.29D-05 at cycle  19 NSaved=  12.
 NSaved=12 IEnMin=12 EnMin= -2913.35273883088     IErMin=12 ErrMin= 6.29D-05
 ErrMax= 6.29D-05  0.00D+00 EMaxC= 1.00D-01 BMatC= 2.58D-05 BMatP= 1.55D-04
 IDIUse=1 WtCom= 1.00D+00 WtEn= 0.00D+00
 Coeff-Com:  0.593D-02 0.196D+00-0.185D+00-0.959D-01 0.251D-01-0.283D-01
 Coeff-Com:  0.199D+00 0.211D-01-0.168D+00-0.345D+00 0.361D+00 0.101D+01
 Coeff:      0.593D-02 0.196D+00-0.185D+00-0.959D-01 0.251D-01-0.283D-01
 Coeff:      0.199D+00 0.211D-01-0.168D+00-0.345D+00 0.361D+00 0.101D+01
 Gap=     0.344 Goal=   None    Shift=    0.000
 Gap=     0.133 Goal=   None    Shift=    0.000
 RMSDP=8.45D-06 MaxDP=7.43D-04 DE=-4.98D-05 OVMax= 4.31D-03

 Cycle  20  Pass 1  IDiag  1:
 RMSU=  3.17D-06    CP:  9.98D-01  2.62D+00  5.23D-01  4.47D-01  1.98D+00
                    CP:  3.00D+00  3.00D+00  3.00D+00  3.00D+00  3.00D+00
                    CP:  3.00D+00  5.54D-01  3.00D+00  3.00D+00  3.00D+00
                    CP:  2.92D+00  1.70D+00  2.02D+00  2.08D+00
 E= -2913.35275223389     Delta-E=       -0.000013403012 Rises=F Damp=F
 DIIS: error= 3.75D-05 at cycle  20 NSaved=  13.
 NSaved=13 IEnMin=13 EnMin= -2913.35275223389     IErMin=13 ErrMin= 3.75D-05
 ErrMax= 3.75D-05  0.00D+00 EMaxC= 1.00D-01 BMatC= 1.00D-05 BMatP= 2.58D-05
 IDIUse=1 WtCom= 1.00D+00 WtEn= 0.00D+00
 Coeff-Com: -0.228D-01 0.125D-01 0.503D-01-0.537D-01-0.457D-02-0.365D-01
 Coeff-Com: -0.357D-02 0.890D-01 0.137D+00-0.317D+00-0.329D+00 0.463D+00
 Coeff-Com:  0.102D+01
 Coeff:     -0.228D-01 0.125D-01 0.503D-01-0.537D-01-0.457D-02-0.365D-01
 Coeff:     -0.357D-02 0.890D-01 0.137D+00-0.317D+00-0.329D+00 0.463D+00
 Coeff:      0.102D+01
 Gap=     0.344 Goal=   None    Shift=    0.000
 Gap=     0.133 Goal=   None    Shift=    0.000
 RMSDP=8.66D-06 MaxDP=1.05D-03 DE=-1.34D-05 OVMax= 3.98D-03

 Cycle  21  Pass 1  IDiag  1:
 Restarting incremental Fock formation.
 E= -2913.35276205188     Delta-E=       -0.000009817990 Rises=F Damp=F
 DIIS: error= 3.07D-05 at cycle  21 NSaved=  14.
 NSaved=14 IEnMin=14 EnMin= -2913.35276205188     IErMin=14 ErrMin= 3.07D-05
 ErrMax= 3.07D-05  0.00D+00 EMaxC= 1.00D-01 BMatC= 2.91D-06 BMatP= 1.00D-05
 IDIUse=1 WtCom= 1.00D+00 WtEn= 0.00D+00
 Coeff-Com: -0.507D-02 0.512D-01-0.427D-01 0.176D-01-0.201D-02-0.151D-01
 Coeff-Com: -0.824D-01 0.309D-01 0.163D+00-0.112D-01-0.304D+00-0.256D+00
 Coeff-Com:  0.340D+00 0.112D+01
 Coeff:     -0.507D-02 0.512D-01-0.427D-01 0.176D-01-0.201D-02-0.151D-01
 Coeff:     -0.824D-01 0.309D-01 0.163D+00-0.112D-01-0.304D+00-0.256D+00
 Coeff:      0.340D+00 0.112D+01
 Gap=     0.344 Goal=   None    Shift=    0.000
 Gap=     0.134 Goal=   None    Shift=    0.000
 RMSDP=7.66D-06 MaxDP=9.65D-04 DE=-9.82D-06 OVMax= 3.27D-03

 Cycle  22  Pass 1  IDiag  1:
 RMSU=  7.66D-06    CP:  1.00D+00
 E= -2913.35276811186     Delta-E=       -0.000006059983 Rises=F Damp=F
 DIIS: error= 2.39D-05 at cycle  22 NSaved=  15.
 NSaved=15 IEnMin=15 EnMin= -2913.35276811186     IErMin=15 ErrMin= 2.39D-05
 ErrMax= 2.39D-05  0.00D+00 EMaxC= 1.00D-01 BMatC= 5.71D-07 BMatP= 2.91D-06
 IDIUse=1 WtCom= 1.00D+00 WtEn= 0.00D+00
 Coeff-Com:  0.119D-01 0.663D-01-0.915D-01 0.235D-01 0.933D-03 0.683D-02
 Coeff-Com: -0.283D-01-0.798D-02 0.212D-01 0.728D-01-0.500D-01-0.203D+00
 Coeff-Com: -0.180D+00 0.564D+00 0.794D+00
 Coeff:      0.119D-01 0.663D-01-0.915D-01 0.235D-01 0.933D-03 0.683D-02
 Coeff:     -0.283D-01-0.798D-02 0.212D-01 0.728D-01-0.500D-01-0.203D+00
 Coeff:     -0.180D+00 0.564D+00 0.794D+00
 Gap=     0.344 Goal=   None    Shift=    0.000
 Gap=     0.133 Goal=   None    Shift=    0.000
 RMSDP=4.26D-06 MaxDP=5.40D-04 DE=-6.06D-06 OVMax= 1.87D-03

 Cycle  23  Pass 1  IDiag  1:
 RMSU=  1.29D-06    CP:  1.00D+00  1.53D+00
 E= -2913.35277065842     Delta-E=       -0.000002546562 Rises=F Damp=F
 DIIS: error= 2.21D-05 at cycle  23 NSaved=  16.
 NSaved=16 IEnMin=16 EnMin= -2913.35277065842     IErMin=16 ErrMin= 2.21D-05
 ErrMax= 2.21D-05  0.00D+00 EMaxC= 1.00D-01 BMatC= 4.16D-07 BMatP= 5.71D-07
 IDIUse=1 WtCom= 1.00D+00 WtEn= 0.00D+00
 Coeff-Com:  0.113D-01 0.637D-02-0.241D-01-0.524D-02-0.239D-02 0.135D-01
 Coeff-Com:  0.405D-01-0.154D-01-0.928D-01 0.992D-02 0.114D+00 0.109D+00
 Coeff-Com: -0.264D+00-0.459D+00 0.276D+00 0.128D+01
 Coeff:      0.113D-01 0.637D-02-0.241D-01-0.524D-02-0.239D-02 0.135D-01
 Coeff:      0.405D-01-0.154D-01-0.928D-01 0.992D-02 0.114D+00 0.109D+00
 Coeff:     -0.264D+00-0.459D+00 0.276D+00 0.128D+01
 Gap=     0.344 Goal=   None    Shift=    0.000
 Gap=     0.133 Goal=   None    Shift=    0.000
 RMSDP=7.41D-06 MaxDP=9.85D-04 DE=-2.55D-06 OVMax= 2.97D-03

 Cycle  24  Pass 1  IDiag  1:
 RMSU=  1.79D-06    CP:  1.00D+00  2.45D+00  2.18D+00
 E= -2913.35277427066     Delta-E=       -0.000003612231 Rises=F Damp=F
 DIIS: error= 1.76D-05 at cycle  24 NSaved=  17.
 NSaved=17 IEnMin=17 EnMin= -2913.35277427066     IErMin=17 ErrMin= 1.76D-05
 ErrMax= 1.76D-05  0.00D+00 EMaxC= 1.00D-01 BMatC= 2.73D-07 BMatP= 4.16D-07
 IDIUse=1 WtCom= 1.00D+00 WtEn= 0.00D+00
 Coeff-Com: -0.128D-01-0.837D-01 0.107D+00-0.245D-01-0.228D-02-0.653D-02
 Coeff-Com:  0.356D-01 0.117D-01-0.393D-01-0.626D-01 0.293D-01 0.215D+00
 Coeff-Com:  0.283D-01-0.545D+00-0.500D+00 0.390D+00 0.146D+01
 Coeff:     -0.128D-01-0.837D-01 0.107D+00-0.245D-01-0.228D-02-0.653D-02
 Coeff:      0.356D-01 0.117D-01-0.393D-01-0.626D-01 0.293D-01 0.215D+00
 Coeff:      0.283D-01-0.545D+00-0.500D+00 0.390D+00 0.146D+01
 Gap=     0.343 Goal=   None    Shift=    0.000
 Gap=     0.134 Goal=   None    Shift=    0.000
 RMSDP=9.15D-06 MaxDP=1.21D-03 DE=-3.61D-06 OVMax= 3.53D-03

 Cycle  25  Pass 1  IDiag  1:
 RMSU=  4.57D-06    CP:  1.00D+00  3.00D+00  3.00D+00  2.42D+00
 E= -2913.35277717585     Delta-E=       -0.000002905193 Rises=F Damp=F
 DIIS: error= 1.12D-05 at cycle  25 NSaved=  18.
 NSaved=18 IEnMin=18 EnMin= -2913.35277717585     IErMin=18 ErrMin= 1.12D-05
 ErrMax= 1.12D-05  0.00D+00 EMaxC= 1.00D-01 BMatC= 7.01D-07 BMatP= 2.73D-07
 IDIUse=1 WtCom= 1.00D+00 WtEn= 0.00D+00
 Coeff-Com: -0.117D-01-0.570D-01 0.750D-01 0.309D-02-0.513D-02-0.325D-02
 Coeff-Com: -0.246D-01 0.192D-01 0.280D-01 0.152D-02-0.562D-01-0.193D-01
 Coeff-Com:  0.177D+00 0.193D+00-0.473D+00-0.565D+00 0.328D+00 0.139D+01
 Coeff:     -0.117D-01-0.570D-01 0.750D-01 0.309D-02-0.513D-02-0.325D-02
 Coeff:     -0.246D-01 0.192D-01 0.280D-01 0.152D-02-0.562D-01-0.193D-01
 Coeff:      0.177D+00 0.193D+00-0.473D+00-0.565D+00 0.328D+00 0.139D+01
 Gap=     0.343 Goal=   None    Shift=    0.000
 Gap=     0.134 Goal=   None    Shift=    0.000
 RMSDP=6.80D-06 MaxDP=8.52D-04 DE=-2.91D-06 OVMax= 2.99D-03

 Cycle  26  Pass 1  IDiag  1:
 RMSU=  2.47D-06    CP:  1.00D+00  3.00D+00  3.00D+00  3.00D+00  2.34D+00
 E= -2913.35277864887     Delta-E=       -0.000001473025 Rises=F Damp=F
 DIIS: error= 6.90D-06 at cycle  26 NSaved=  19.
 NSaved=19 IEnMin=19 EnMin= -2913.35277864887     IErMin=19 ErrMin= 6.90D-06
 ErrMax= 6.90D-06  0.00D+00 EMaxC= 1.00D-01 BMatC= 3.86D-07 BMatP= 2.73D-07
 IDIUse=1 WtCom= 1.00D+00 WtEn= 0.00D+00
 Coeff-Com:  0.279D-04 0.126D-01-0.154D-01 0.127D-01-0.365D-02 0.420D-02
 Coeff-Com: -0.247D-01 0.619D-02 0.168D-01 0.366D-01-0.222D-01-0.978D-01
 Coeff-Com:  0.685D-01 0.308D+00-0.729D-01-0.301D+00-0.526D+00 0.509D+00
 Coeff-Com:  0.109D+01
 Coeff:      0.279D-04 0.126D-01-0.154D-01 0.127D-01-0.365D-02 0.420D-02
 Coeff:     -0.247D-01 0.619D-02 0.168D-01 0.366D-01-0.222D-01-0.978D-01
 Coeff:      0.685D-01 0.308D+00-0.729D-01-0.301D+00-0.526D+00 0.509D+00
 Coeff:      0.109D+01
 Gap=     0.343 Goal=   None    Shift=    0.000
 Gap=     0.133 Goal=   None    Shift=    0.000
 RMSDP=3.65D-06 MaxDP=4.53D-04 DE=-1.47D-06 OVMax= 1.75D-03

 Cycle  27  Pass 1  IDiag  1:
 RMSU=  5.27D-07    CP:  1.00D+00  3.00D+00  3.00D+00  3.00D+00  2.98D+00
                    CP:  1.86D+00
 E= -2913.35277917560     Delta-E=       -0.000000526725 Rises=F Damp=F
 DIIS: error= 3.64D-06 at cycle  27 NSaved=  20.
 NSaved=20 IEnMin=20 EnMin= -2913.35277917560     IErMin=20 ErrMin= 3.64D-06
 ErrMax= 3.64D-06  0.00D+00 EMaxC= 1.00D-01 BMatC= 1.71D-08 BMatP= 2.73D-07
 IDIUse=1 WtCom= 1.00D+00 WtEn= 0.00D+00
 Coeff-Com:  0.385D-02 0.180D-01-0.250D-01 0.248D-02 0.716D-03 0.129D-02
 Coeff-Com:  0.367D-03-0.345D-02-0.189D-02 0.468D-02 0.122D-02-0.175D-01
 Coeff-Com: -0.335D-01 0.163D-01 0.146D+00 0.910D-01-0.224D+00-0.408D+00
 Coeff-Com:  0.227D+00 0.120D+01
 Coeff:      0.385D-02 0.180D-01-0.250D-01 0.248D-02 0.716D-03 0.129D-02
 Coeff:      0.367D-03-0.345D-02-0.189D-02 0.468D-02 0.122D-02-0.175D-01
 Coeff:     -0.335D-01 0.163D-01 0.146D+00 0.910D-01-0.224D+00-0.408D+00
 Coeff:      0.227D+00 0.120D+01
 Gap=     0.343 Goal=   None    Shift=    0.000
 Gap=     0.134 Goal=   None    Shift=    0.000
 RMSDP=2.80D-06 MaxDP=3.54D-04 DE=-5.27D-07 OVMax= 1.31D-03

 Cycle  28  Pass 1  IDiag  1:
 RMSU=  2.39D-06    CP:  1.00D+00  3.00D+00  3.00D+00  3.00D+00  3.00D+00
                    CP:  2.33D+00  2.12D+00
 E= -2913.35277933706     Delta-E=       -0.000000161459 Rises=F Damp=F
 DIIS: error= 2.43D-06 at cycle  28 NSaved=  20.
 NSaved=20 IEnMin=20 EnMin= -2913.35277933706     IErMin=20 ErrMin= 2.43D-06
 ErrMax= 2.43D-06  0.00D+00 EMaxC= 1.00D-01 BMatC= 1.49D-08 BMatP= 1.71D-08
 IDIUse=1 WtCom= 1.00D+00 WtEn= 0.00D+00
 Coeff-Com: -0.881D-02 0.898D-02-0.228D-02 0.111D-02-0.183D-02 0.384D-02
 Coeff-Com:  0.954D-03-0.162D-02-0.918D-02-0.107D-01 0.249D-01-0.249D-01
 Coeff-Com: -0.451D-01 0.627D-01 0.117D+00 0.561D-02-0.274D+00-0.186D+00
 Coeff-Com:  0.432D+00 0.907D+00
 Coeff:     -0.881D-02 0.898D-02-0.228D-02 0.111D-02-0.183D-02 0.384D-02
 Coeff:      0.954D-03-0.162D-02-0.918D-02-0.107D-01 0.249D-01-0.249D-01
 Coeff:     -0.451D-01 0.627D-01 0.117D+00 0.561D-02-0.274D+00-0.186D+00
 Coeff:      0.432D+00 0.907D+00
 Gap=     0.343 Goal=   None    Shift=    0.000
 Gap=     0.134 Goal=   None    Shift=    0.000
 RMSDP=1.02D-06 MaxDP=1.29D-04 DE=-1.61D-07 OVMax= 4.83D-04

 Cycle  29  Pass 1  IDiag  1:
 RMSU=  1.50D-07    CP:  1.00D+00  3.00D+00  3.00D+00  3.00D+00  3.00D+00
                    CP:  2.42D+00  2.79D+00  1.39D+00
 E= -2913.35277935873     Delta-E=       -0.000000021670 Rises=F Damp=F
 DIIS: error= 1.63D-06 at cycle  29 NSaved=  20.
 NSaved=20 IEnMin=20 EnMin= -2913.35277935873     IErMin=20 ErrMin= 1.63D-06
 ErrMax= 1.63D-06  0.00D+00 EMaxC= 1.00D-01 BMatC= 2.15D-08 BMatP= 1.49D-08
 IDIUse=1 WtCom= 1.00D+00 WtEn= 0.00D+00
 Coeff-Com:  0.303D-03-0.122D-02 0.386D-03-0.564D-03 0.215D-02 0.199D-02
 Coeff-Com: -0.203D-02 0.292D-02 0.361D-04 0.626D-02-0.171D-01-0.118D-01
 Coeff-Com:  0.160D-01 0.985D-01-0.585D-01-0.585D-01-0.733D-01-0.105D+00
 Coeff-Com:  0.244D+00 0.955D+00
 Coeff:      0.303D-03-0.122D-02 0.386D-03-0.564D-03 0.215D-02 0.199D-02
 Coeff:     -0.203D-02 0.292D-02 0.361D-04 0.626D-02-0.171D-01-0.118D-01
 Coeff:      0.160D-01 0.985D-01-0.585D-01-0.585D-01-0.733D-01-0.105D+00
 Coeff:      0.244D+00 0.955D+00
 Gap=     0.343 Goal=   None    Shift=    0.000
 Gap=     0.134 Goal=   None    Shift=    0.000
 RMSDP=5.41D-07 MaxDP=8.25D-05 DE=-2.17D-08 OVMax= 1.94D-04

 Cycle  30  Pass 1  IDiag  1:
 RMSU=  4.08D-07    CP:  1.00D+00  3.00D+00  3.00D+00  3.00D+00  3.00D+00
                    CP:  2.52D+00  2.93D+00  1.31D+00  2.29D+00
 E= -2913.35277937317     Delta-E=       -0.000000014439 Rises=F Damp=F
 DIIS: error= 4.82D-07 at cycle  30 NSaved=  20.
 NSaved=20 IEnMin=20 EnMin= -2913.35277937317     IErMin=20 ErrMin= 4.82D-07
 ErrMax= 4.82D-07  0.00D+00 EMaxC= 1.00D-01 BMatC= 1.71D-09 BMatP= 1.49D-08
 IDIUse=1 WtCom= 1.00D+00 WtEn= 0.00D+00
 Coeff-Com:  0.305D-03-0.261D-04 0.100D-02 0.374D-03-0.202D-02-0.217D-02
 Coeff-Com:  0.282D-02 0.840D-02-0.344D-02-0.655D-02-0.158D-01-0.360D-02
 Coeff-Com:  0.242D-01 0.162D-01 0.232D-01-0.499D-01-0.155D+00-0.458D-01
 Coeff-Com:  0.468D+00 0.740D+00
 Coeff:      0.305D-03-0.261D-04 0.100D-02 0.374D-03-0.202D-02-0.217D-02
 Coeff:      0.282D-02 0.840D-02-0.344D-02-0.655D-02-0.158D-01-0.360D-02
 Coeff:      0.242D-01 0.162D-01 0.232D-01-0.499D-01-0.155D+00-0.458D-01
 Coeff:      0.468D+00 0.740D+00
 Gap=     0.343 Goal=   None    Shift=    0.000
 Gap=     0.134 Goal=   None    Shift=    0.000
 RMSDP=3.16D-07 MaxDP=3.96D-05 DE=-1.44D-08 OVMax= 1.72D-04

 Cycle  31  Pass 1  IDiag  1:
 RMSU=  6.21D-08    CP:  1.00D+00  3.00D+00  3.00D+00  3.00D+00  3.00D+00
                    CP:  2.58D+00  3.00D+00  1.42D+00  2.55D+00  1.11D+00
 E= -2913.35277937572     Delta-E=       -0.000000002557 Rises=F Damp=F
 DIIS: error= 3.69D-07 at cycle  31 NSaved=  20.
 NSaved=20 IEnMin=20 EnMin= -2913.35277937572     IErMin=20 ErrMin= 3.69D-07
 ErrMax= 3.69D-07  0.00D+00 EMaxC= 1.00D-01 BMatC= 1.07D-09 BMatP= 1.71D-09
 IDIUse=1 WtCom= 1.00D+00 WtEn= 0.00D+00
 Coeff-Com: -0.456D-04 0.136D-03 0.194D-03-0.421D-03-0.816D-03 0.183D-03
 Coeff-Com:  0.307D-02-0.172D-02 0.650D-03 0.425D-02-0.579D-02-0.275D-01
 Coeff-Com:  0.177D-01 0.475D-01-0.651D-02-0.811D-01-0.552D-01 0.568D-01
 Coeff-Com:  0.921D-01 0.957D+00
 Coeff:     -0.456D-04 0.136D-03 0.194D-03-0.421D-03-0.816D-03 0.183D-03
 Coeff:      0.307D-02-0.172D-02 0.650D-03 0.425D-02-0.579D-02-0.275D-01
 Coeff:      0.177D-01 0.475D-01-0.651D-02-0.811D-01-0.552D-01 0.568D-01
 Coeff:      0.921D-01 0.957D+00
 Gap=     0.343 Goal=   None    Shift=    0.000
 Gap=     0.134 Goal=   None    Shift=    0.000
 RMSDP=1.35D-07 MaxDP=1.85D-05 DE=-2.56D-09 OVMax= 4.95D-05

 Cycle  32  Pass 1  IDiag  1:
 RMSU=  5.56D-08    CP:  1.00D+00  3.00D+00  3.00D+00  3.00D+00  3.00D+00
                    CP:  2.58D+00  3.00D+00  1.47D+00  2.64D+00  1.02D+00
                    CP:  1.68D+00
 E= -2913.35277937675     Delta-E=       -0.000000001022 Rises=F Damp=F
 DIIS: error= 2.30D-07 at cycle  32 NSaved=  20.
 NSaved=20 IEnMin=20 EnMin= -2913.35277937675     IErMin=20 ErrMin= 2.30D-07
 ErrMax= 2.30D-07  0.00D+00 EMaxC= 1.00D-01 BMatC= 1.12D-10 BMatP= 1.07D-09
 IDIUse=1 WtCom= 1.00D+00 WtEn= 0.00D+00
 Coeff-Com: -0.317D-03-0.327D-03 0.668D-03 0.759D-03-0.145D-03-0.214D-02
 Coeff-Com: -0.241D-03 0.117D-02 0.126D-01-0.248D-02-0.250D-01 0.507D-03
 Coeff-Com:  0.197D-01 0.166D-01 0.154D-01-0.391D-01-0.132D+00-0.188D+00
 Coeff-Com:  0.308D+00 0.101D+01
 Coeff:     -0.317D-03-0.327D-03 0.668D-03 0.759D-03-0.145D-03-0.214D-02
 Coeff:     -0.241D-03 0.117D-02 0.126D-01-0.248D-02-0.250D-01 0.507D-03
 Coeff:      0.197D-01 0.166D-01 0.154D-01-0.391D-01-0.132D+00-0.188D+00
 Coeff:      0.308D+00 0.101D+01
 Gap=     0.343 Goal=   None    Shift=    0.000
 Gap=     0.134 Goal=   None    Shift=    0.000
 RMSDP=6.15D-08 MaxDP=7.60D-06 DE=-1.02D-09 OVMax= 2.64D-05

 Cycle  33  Pass 1  IDiag  1:
 RMSU=  1.86D-08    CP:  1.00D+00  3.00D+00  3.00D+00  3.00D+00  3.00D+00
                    CP:  2.59D+00  3.00D+00  1.48D+00  2.80D+00  1.05D+00
                    CP:  2.16D+00  1.60D+00
 E= -2913.35277937701     Delta-E=       -0.000000000260 Rises=F Damp=F
 DIIS: error= 1.68D-07 at cycle  33 NSaved=  20.
 NSaved=20 IEnMin=20 EnMin= -2913.35277937701     IErMin=20 ErrMin= 1.68D-07
 ErrMax= 1.68D-07  0.00D+00 EMaxC= 1.00D-01 BMatC= 1.12D-10 BMatP= 1.12D-10
 IDIUse=1 WtCom= 1.00D+00 WtEn= 0.00D+00
 Coeff-Com: -0.116D-03 0.168D-03 0.342D-03-0.261D-03-0.182D-02 0.157D-02
 Coeff-Com: -0.101D-02 0.184D-02 0.785D-03 0.351D-02-0.285D-02-0.174D-01
 Coeff-Com:  0.476D-02 0.536D-01 0.419D-02-0.973D-01-0.724D-01-0.273D+00
 Coeff-Com:  0.355D+00 0.104D+01
 Coeff:     -0.116D-03 0.168D-03 0.342D-03-0.261D-03-0.182D-02 0.157D-02
 Coeff:     -0.101D-02 0.184D-02 0.785D-03 0.351D-02-0.285D-02-0.174D-01
 Coeff:      0.476D-02 0.536D-01 0.419D-02-0.973D-01-0.724D-01-0.273D+00
 Coeff:      0.355D+00 0.104D+01
 Gap=     0.343 Goal=   None    Shift=    0.000
 Gap=     0.134 Goal=   None    Shift=    0.000
 RMSDP=4.54D-08 MaxDP=4.94D-06 DE=-2.60D-10 OVMax= 2.07D-05

 Cycle  34  Pass 1  IDiag  1:
 RMSU=  1.34D-08    CP:  1.00D+00  3.00D+00  3.00D+00  3.00D+00  3.00D+00
                    CP:  2.59D+00  3.00D+00  1.47D+00  2.91D+00  1.11D+00
                    CP:  2.48D+00  1.79D+00  2.11D+00
 E= -2913.35277937731     Delta-E=       -0.000000000302 Rises=F Damp=F
 DIIS: error= 7.76D-08 at cycle  34 NSaved=  20.
 NSaved=20 IEnMin=20 EnMin= -2913.35277937731     IErMin=20 ErrMin= 7.76D-08
 ErrMax= 7.76D-08  0.00D+00 EMaxC= 1.00D-01 BMatC= 1.61D-11 BMatP= 1.12D-10
 IDIUse=1 WtCom= 1.00D+00 WtEn= 0.00D+00
 Coeff-Com: -0.545D-04 0.781D-04 0.409D-04-0.474D-03-0.928D-04 0.174D-03
 Coeff-Com: -0.918D-04-0.594D-03 0.264D-02 0.358D-02-0.842D-02-0.726D-02
 Coeff-Com:  0.111D-01 0.202D-01 0.178D-01 0.201D-01-0.193D+00-0.197D+00
 Coeff-Com:  0.105D+00 0.123D+01
 Coeff:     -0.545D-04 0.781D-04 0.409D-04-0.474D-03-0.928D-04 0.174D-03
 Coeff:     -0.918D-04-0.594D-03 0.264D-02 0.358D-02-0.842D-02-0.726D-02
 Coeff:      0.111D-01 0.202D-01 0.178D-01 0.201D-01-0.193D+00-0.197D+00
 Coeff:      0.105D+00 0.123D+01
 Gap=     0.343 Goal=   None    Shift=    0.000
 Gap=     0.134 Goal=   None    Shift=    0.000
 RMSDP=3.09D-08 MaxDP=3.54D-06 DE=-3.02D-10 OVMax= 1.09D-05

 Cycle  35  Pass 1  IDiag  1:
 RMSU=  5.07D-09    CP:  1.00D+00  3.00D+00  3.00D+00  3.00D+00  3.00D+00
                    CP:  2.59D+00  3.00D+00  1.47D+00  2.93D+00  1.09D+00
                    CP:  2.73D+00  2.05D+00  3.00D+00  1.67D+00
 E= -2913.35277937716     Delta-E=        0.000000000144 Rises=F Damp=F
 DIIS: error= 4.46D-08 at cycle  35 NSaved=  20.
 NSaved=20 IEnMin=19 EnMin= -2913.35277937731     IErMin=20 ErrMin= 4.46D-08
 ErrMax= 4.46D-08  0.00D+00 EMaxC= 1.00D-01 BMatC= 5.08D-12 BMatP= 1.61D-11
 IDIUse=1 WtCom= 1.00D+00 WtEn= 0.00D+00
 Coeff-Com:  0.495D-05 0.676D-04 0.471D-04-0.308D-03 0.329D-03-0.132D-03
 Coeff-Com: -0.735D-03 0.104D-03 0.286D-02 0.101D-02-0.537D-02-0.108D-01
 Coeff-Com:  0.797D-02 0.399D-01 0.252D-01-0.249D-01-0.142D+00-0.253D+00
 Coeff-Com:  0.426D+00 0.933D+00
 Coeff:      0.495D-05 0.676D-04 0.471D-04-0.308D-03 0.329D-03-0.132D-03
 Coeff:     -0.735D-03 0.104D-03 0.286D-02 0.101D-02-0.537D-02-0.108D-01
 Coeff:      0.797D-02 0.399D-01 0.252D-01-0.249D-01-0.142D+00-0.253D+00
 Coeff:      0.426D+00 0.933D+00
 Gap=     0.343 Goal=   None    Shift=    0.000
 Gap=     0.134 Goal=   None    Shift=    0.000
 RMSDP=1.51D-08 MaxDP=1.96D-06 DE= 1.44D-10 OVMax= 5.53D-06

 Cycle  36  Pass 1  IDiag  1:
 RMSU=  7.83D-09    CP:  1.00D+00  3.00D+00  3.00D+00  3.00D+00  3.00D+00
                    CP:  2.59D+00  3.00D+00  1.47D+00  2.94D+00  1.09D+00
                    CP:  2.82D+00  2.16D+00  3.00D+00  2.06D+00  2.17D+00
 E= -2913.35277937736     Delta-E=       -0.000000000195 Rises=F Damp=F
 DIIS: error= 3.03D-08 at cycle  36 NSaved=  20.
 NSaved=20 IEnMin=20 EnMin= -2913.35277937736     IErMin=20 ErrMin= 3.03D-08
 ErrMax= 3.03D-08  0.00D+00 EMaxC= 1.00D-01 BMatC= 2.03D-12 BMatP= 5.08D-12
 IDIUse=1 WtCom= 1.00D+00 WtEn= 0.00D+00
 Coeff-Com: -0.150D-04 0.184D-03 0.210D-05 0.243D-03-0.274D-03-0.794D-03
 Coeff-Com: -0.121D-02 0.169D-02 0.421D-02-0.128D-02-0.117D-01-0.263D-02
 Coeff-Com:  0.171D-01 0.464D-02 0.594D-01-0.228D-02-0.186D+00-0.216D+00
 Coeff-Com:  0.441D+00 0.893D+00
 Coeff:     -0.150D-04 0.184D-03 0.210D-05 0.243D-03-0.274D-03-0.794D-03
 Coeff:     -0.121D-02 0.169D-02 0.421D-02-0.128D-02-0.117D-01-0.263D-02
 Coeff:      0.171D-01 0.464D-02 0.594D-01-0.228D-02-0.186D+00-0.216D+00
 Coeff:      0.441D+00 0.893D+00
 Gap=     0.343 Goal=   None    Shift=    0.000
 Gap=     0.134 Goal=   None    Shift=    0.000
 RMSDP=8.98D-09 MaxDP=9.39D-07 DE=-1.95D-10 OVMax= 3.31D-06

 Error on total polarization charges =  0.00307
 SCF Done:  E(UCAM-B3LYP) =  -2913.35277938     A.U. after   36 cycles
            NFock= 36  Conv=0.90D-08     -V/T= 2.0074
 <Sx>= 0.0000 <Sy>= 0.0000 <Sz>= 0.5000 <S**2>= 0.7791 S= 0.5144
 <L.S>= 0.000000000000E+00
 KE= 2.891840674948D+03 PE=-1.949015853370D+04 EE= 7.360425566494D+03
 Annihilation of the first spin contaminant:
 S**2 before annihilation     0.7791,   after     0.7505
 Leave Link  502 at Sun Mar  3 17:30:18 2024, MaxMem=  5368709120 cpu:      4796.1
 (Enter /home/k0335/k033513/app/g09/l601.exe)
 Copying SCF densities to generalized density rwf, IOpCl= 1 IROHF=0.

 **********************************************************************

            Population analysis using the SCF density.

 **********************************************************************

 Alpha  occ. eigenvalues --  -24.87217 -24.86885 -24.86705 -24.86598 -24.86443
 Alpha  occ. eigenvalues --  -24.86371 -24.86088 -24.86079 -24.86019 -24.85862
 Alpha  occ. eigenvalues --  -24.85731 -24.85564 -24.85528 -24.85477 -24.85441
 Alpha  occ. eigenvalues --  -24.85414 -24.85385 -24.84928 -19.35862 -19.35522
 Alpha  occ. eigenvalues --  -19.35498 -19.35485 -19.30507 -14.67193 -14.59962
 Alpha  occ. eigenvalues --  -14.59836 -10.61880 -10.61798 -10.58465 -10.58082
 Alpha  occ. eigenvalues --  -10.57986 -10.57717 -10.55138 -10.55058 -10.52759
 Alpha  occ. eigenvalues --  -10.52667 -10.52524 -10.41570 -10.34869 -10.31398
[...]
    34   Atom        0.000117      0.000224     -0.000341
    35   Atom       -0.000886      0.001297     -0.000410
    36   Atom       -0.001410      0.001572     -0.000163
    37   Atom       -0.009530     -0.005967      0.015497
    38   Atom       -0.000482      0.000680     -0.000198
    39   Atom       -0.001279      0.001709     -0.000430
    40   Atom        0.053689      0.061483     -0.115172
    41   Atom       -0.323847     -0.400339      0.724186
    42   Atom       -0.001083      0.002929     -0.001847
    43   Atom       -0.000730      0.002532     -0.001803
    44   Atom       -0.002764      0.001627      0.001137
    45   Atom       -0.002165     -0.004627      0.006792
    46   Atom        0.004409     -0.002892     -0.001517
    47   Atom       -0.000162      0.004267     -0.004105
    48   Atom        0.004206     -0.006649      0.002444
    49   Atom        0.008040     -0.004795     -0.003245
    50   Atom       -0.001880      0.011086     -0.009205
 --------------------------------------------------------
                        XY            XZ            YZ
 --------------------------------------------------------
     1   Atom       -0.005334     -0.010207      0.003280
     2   Atom       -0.034273     -0.028414      0.025838
     3   Atom       -0.068903     -0.106739      0.092660
     4   Atom       -0.018233     -0.078073      0.022517
     5   Atom       -0.061357     -0.545577      0.179745
     6   Atom        0.018010      0.067161      0.006353
     7   Atom       -0.029737     -0.572493      0.066297
     8   Atom       -0.005145      0.017466      0.008678
     9   Atom       -0.003429      0.000312     -0.000818
    10   Atom       -0.001149      0.000684     -0.001093
    11   Atom        0.001024      0.002093     -0.003764
    12   Atom       -0.001656      0.000057      0.000224
    13   Atom       -0.006581     -0.015078      0.005802
    14   Atom       -0.000958     -0.000459     -0.000173
    15   Atom       -0.000350      0.000136     -0.000009
    16   Atom       -0.000462      0.000304     -0.000194
    17   Atom       -0.000084      0.000067      0.000003
    18   Atom       -0.000305     -0.000033      0.000029
    19   Atom       -0.000996     -0.000407      0.000362
    20   Atom       -0.001100     -0.000761      0.000444
    21   Atom       -0.000537     -0.000493      0.000284
    22   Atom       -0.000808     -0.000133      0.000275
    23   Atom       -0.004999     -0.000153     -0.001936
    24   Atom       -0.003026     -0.002972      0.008300
    25   Atom       -0.001049      0.008281     -0.002935
    26   Atom       -0.002229      0.000534     -0.000465
    27   Atom       -0.000322      0.000277     -0.000767
    28   Atom       -0.003179     -0.001407     -0.001731
    29   Atom        0.000475     -0.000113     -0.001105
    30   Atom        0.000376     -0.000150     -0.000537
    31   Atom        0.002538     -0.000074      0.000131
    32   Atom        0.001450      0.000455      0.001581
    33   Atom        0.001577      0.001000      0.015682
    34   Atom        0.001061      0.000502      0.000924
    35   Atom        0.000790     -0.000205      0.000127
    36   Atom        0.000824     -0.000369     -0.001872
    37   Atom        0.002181     -0.003518     -0.009667
    38   Atom        0.000994     -0.000428     -0.000678
    39   Atom       -0.000121     -0.000010     -0.000883
    40   Atom        0.024373      0.056042     -0.012137
    41   Atom       -0.061667     -0.356089      0.212567
    42   Atom       -0.002237      0.000550     -0.001479
    43   Atom        0.000142      0.000311      0.001102
    44   Atom       -0.001068     -0.001184     -0.001386
    45   Atom       -0.002313     -0.006420      0.001459
    46   Atom       -0.003370      0.003897      0.000663
    47   Atom        0.004509     -0.010678     -0.001130
    48   Atom       -0.000468      0.005623      0.009486
    49   Atom        0.002294      0.011363     -0.000513
    50   Atom        0.009535      0.000921     -0.005312
 --------------------------------------------------------


 ---------------------------------------------------------------------------------
              Anisotropic Spin Dipole Couplings in Principal Axis System
 ---------------------------------------------------------------------------------

       Atom             a.u.   MegaHertz   Gauss  10(-4) cm-1        Axes

              Baa    -0.0096    -1.286    -0.459    -0.429  0.6891  0.1756  0.7031
     1 C(13)  Bbb    -0.0041    -0.546    -0.195    -0.182  0.1560  0.9115 -0.3806
              Bcc     0.0137     1.832     0.654     0.611  0.7077 -0.3720 -0.6007
 
              Baa    -0.0302    -4.053    -1.446    -1.352  0.5033 -0.1506  0.8509
     2 C(13)  Bbb    -0.0300    -4.025    -1.436    -1.343  0.5741  0.7943 -0.1990
              Bcc     0.0602     8.078     2.883     2.695  0.6459 -0.5886 -0.4862
 
              Baa    -0.0948   -12.726    -4.541    -4.245  0.4016 -0.5985  0.6932
     3 C(13)  Bbb    -0.0931   -12.493    -4.458    -4.167  0.7441  0.6545  0.1340
              Bcc     0.1879    25.218     8.998     8.412 -0.5339  0.4620  0.7082
 
              Baa    -0.0784   -10.525    -3.756    -3.511  0.7626  0.5947  0.2545
     4 C(13)  Bbb    -0.0629    -8.442    -3.012    -2.816 -0.5031  0.7926 -0.3446
              Bcc     0.1413    18.967     6.768     6.327 -0.4067  0.1347  0.9036
 
              Baa    -0.6015   -23.198    -8.277    -7.738  0.9420 -0.0661  0.3292
     5 N(14)  Bbb    -0.6010   -23.178    -8.270    -7.731  0.0971  0.9922 -0.0785
              Bcc     1.2024    46.375    16.548    15.469 -0.3214  0.1059  0.9410
 
              Baa    -0.1383   -18.564    -6.624    -6.192 -0.3314 -0.0001  0.9435
     6 C(13)  Bbb     0.0487     6.539     2.333     2.181 -0.5352  0.8235 -0.1879
              Bcc     0.0896    12.025     4.291     4.011  0.7770  0.5673  0.2730
 
              Baa    -0.4646    33.617    11.995    11.213  0.6877 -0.6030  0.4043
     7 O(17)  Bbb    -0.4540    32.853    11.723    10.959  0.5522  0.7960  0.2479
              Bcc     0.9186   -66.470   -23.718   -22.172 -0.4713  0.0527  0.8804
 
              Baa    -0.0426    -1.641    -0.586    -0.548 -0.2847 -0.1609  0.9450
     8 N(14)  Bbb     0.0180     0.694     0.248     0.231  0.3496  0.9005  0.2587
              Bcc     0.0246     0.947     0.338     0.316  0.8926 -0.4040  0.2001
 
              Baa    -0.0028    -0.375    -0.134    -0.125  0.6624  0.6978  0.2724
     9 C(13)  Bbb    -0.0015    -0.198    -0.071    -0.066 -0.2902 -0.0962  0.9521
              Bcc     0.0043     0.573     0.205     0.191 -0.6906  0.7098 -0.1388
 
              Baa    -0.0014    -0.699    -0.249    -0.233 -0.2986  0.2601  0.9182
    10 F(19)  Bbb    -0.0009    -0.460    -0.164    -0.154  0.8383  0.5314  0.1221
              Bcc     0.0023     1.159     0.414     0.387 -0.4562  0.8062 -0.3767
 
              Baa    -0.0091    -4.591    -1.638    -1.531 -0.1147  0.6698  0.7336
    11 F(19)  Bbb    -0.0014    -0.690    -0.246    -0.230  0.0552  0.7417 -0.6685
              Bcc     0.0105     5.281     1.884     1.762  0.9919  0.0362  0.1220
 
              Baa    -0.0021    -0.281    -0.100    -0.094 -0.0884 -0.2044  0.9749
    12 C(13)  Bbb    -0.0011    -0.141    -0.050    -0.047  0.4231  0.8783  0.2225
              Bcc     0.0031     0.423     0.151     0.141  0.9017 -0.4322 -0.0088
 
              Baa    -0.0117    -5.854    -2.089    -1.953 -0.1471  0.8223 -0.5497
    13 F(19)  Bbb    -0.0107    -5.390    -1.923    -1.798  0.6445  0.5013  0.5774
              Bcc     0.0224    11.244     4.012     3.751  0.7503 -0.2693 -0.6037
 
              Baa    -0.0017     0.124     0.044     0.041  0.3871  0.9103  0.1468
    14 O(17)  Bbb     0.0004    -0.031    -0.011    -0.010  0.3831 -0.3036  0.8724
              Bcc     0.0013    -0.093    -0.033    -0.031  0.8387 -0.2814 -0.4663
 
              Baa    -0.0005    -0.070    -0.025    -0.023 -0.2348 -0.6644  0.7095
    15 C(13)  Bbb    -0.0005    -0.063    -0.022    -0.021  0.1123  0.7065  0.6988
              Bcc     0.0010     0.133     0.047     0.044  0.9655 -0.2437  0.0912
 
              Baa    -0.0005    -0.258    -0.092    -0.086  0.0270  0.5941  0.8039
    16 F(19)  Bbb    -0.0004    -0.201    -0.072    -0.067  0.4793  0.6980 -0.5320
              Bcc     0.0009     0.459     0.164     0.153  0.8772 -0.3997  0.2659
 
              Baa    -0.0003    -0.172    -0.062    -0.058 -0.0843 -0.1885  0.9785
    17 F(19)  Bbb    -0.0003    -0.148    -0.053    -0.049  0.0749  0.9780  0.1948
              Bcc     0.0006     0.320     0.114     0.107  0.9936 -0.0897  0.0683
 
              Baa    -0.0004    -0.181    -0.065    -0.060  0.2059  0.7103 -0.6731
    18 F(19)  Bbb    -0.0003    -0.164    -0.059    -0.055  0.2379  0.6309  0.7385
              Bcc     0.0007     0.345     0.123     0.115  0.9492 -0.3122 -0.0391
 
              Baa    -0.0009    -0.124    -0.044    -0.041 -0.1150 -0.5506  0.8268
    19 C(13)  Bbb    -0.0007    -0.094    -0.034    -0.031  0.5392  0.6644  0.5174
              Bcc     0.0016     0.218     0.078     0.073  0.8343 -0.5054 -0.2204
 
              Baa    -0.0011    -0.559    -0.200    -0.187  0.3282 -0.0552  0.9430
    20 F(19)  Bbb    -0.0008    -0.392    -0.140    -0.131  0.5055  0.8536 -0.1259
              Bcc     0.0019     0.952     0.340     0.317  0.7980 -0.5180 -0.3080
 
              Baa    -0.0006    -0.308    -0.110    -0.103  0.2092 -0.3616  0.9086
    21 F(19)  Bbb    -0.0005    -0.237    -0.084    -0.079  0.5145  0.8308  0.2122
              Bcc     0.0011     0.545     0.195     0.182  0.8316 -0.4231 -0.3598
 
              Baa    -0.0007    -0.347    -0.124    -0.116 -0.3266 -0.5661  0.7569
    22 F(19)  Bbb    -0.0004    -0.224    -0.080    -0.075  0.5846  0.5082  0.6324
              Bcc     0.0011     0.571     0.204     0.190  0.7427 -0.6490 -0.1650
 
              Baa    -0.0051    -0.688    -0.245    -0.229  0.7725  0.5373  0.3385
    23 C(13)  Bbb    -0.0016    -0.212    -0.076    -0.071 -0.3847 -0.0281  0.9226
              Bcc     0.0067     0.900     0.321     0.300 -0.5052  0.8430 -0.1850
 
              Baa    -0.0283     2.048     0.731     0.683  0.0592 -0.1839  0.9812
    24 O(17)  Bbb     0.0099    -0.713    -0.255    -0.238  0.8847  0.4649  0.0338
              Bcc     0.0185    -1.335    -0.476    -0.445 -0.4624  0.8661  0.1902
 
              Baa    -0.0418    -1.612    -0.575    -0.538 -0.1427  0.0411  0.9889
    25 N(14)  Bbb     0.0163     0.627     0.224     0.209  0.9781  0.1589  0.1345
              Bcc     0.0255     0.985     0.352     0.329 -0.1516  0.9864 -0.0629
 
              Baa    -0.0023    -0.306    -0.109    -0.102  0.7119  0.2479 -0.6570
    26 C(13)  Bbb    -0.0017    -0.227    -0.081    -0.076  0.5660  0.3512  0.7458
              Bcc     0.0040     0.533     0.190     0.178 -0.4156  0.9029 -0.1097
 
              Baa    -0.0013    -0.671    -0.240    -0.224  0.0961  0.9143  0.3935
    27 F(19)  Bbb     0.0003     0.141     0.050     0.047  0.7526  0.1920 -0.6299
              Bcc     0.0011     0.530     0.189     0.177  0.6514 -0.3567  0.6696
 
              Baa    -0.0059    -2.970    -1.060    -0.991  0.3319  0.2506  0.9094
    28 F(19)  Bbb    -0.0004    -0.220    -0.079    -0.074  0.8284  0.3837 -0.4081
              Bcc     0.0064     3.190     1.138     1.064 -0.4512  0.8888 -0.0802
 
              Baa    -0.0019    -0.260    -0.093    -0.087  0.9929 -0.0674  0.0983
    29 C(13)  Bbb    -0.0018    -0.240    -0.086    -0.080 -0.0820  0.2127  0.9737
              Bcc     0.0037     0.500     0.178     0.167  0.0866  0.9748 -0.2056
 
              Baa    -0.0009    -0.456    -0.163    -0.152  0.5933  0.0857  0.8004
    30 F(19)  Bbb    -0.0008    -0.392    -0.140    -0.131  0.7887 -0.2609 -0.5567
              Bcc     0.0017     0.848     0.303     0.283  0.1611  0.9616 -0.2223
 
              Baa    -0.0021     0.155     0.055     0.052  0.7637 -0.4210  0.4894
    31 O(17)  Bbb    -0.0018     0.133     0.048     0.045 -0.4361  0.2227  0.8719
              Bcc     0.0040    -0.289    -0.103    -0.096  0.4761  0.8793  0.0136
 
              Baa    -0.0018    -0.237    -0.085    -0.079  0.7627 -0.4929  0.4187
    32 C(13)  Bbb    -0.0013    -0.180    -0.064    -0.060 -0.5512 -0.1569  0.8195
              Bcc     0.0031     0.418     0.149     0.139  0.3382  0.8558  0.3914
 
              Baa    -0.0109    -5.458    -1.948    -1.821  0.6174 -0.5384  0.5735
    33 F(19)  Bbb    -0.0103    -5.183    -1.849    -1.729  0.7844  0.3673 -0.4997
              Bcc     0.0212    10.641     3.797     3.550  0.0584  0.7584  0.6491
 
              Baa    -0.0011    -0.560    -0.200    -0.187 -0.3599  0.7061 -0.6098
    34 F(19)  Bbb    -0.0006    -0.312    -0.111    -0.104  0.7282 -0.1960 -0.6567
              Bcc     0.0017     0.872     0.311     0.291  0.5832  0.6804  0.4437
 
              Baa    -0.0012    -0.608    -0.217    -0.203  0.9113 -0.3014  0.2807
    35 F(19)  Bbb    -0.0003    -0.173    -0.062    -0.058 -0.2760  0.0589  0.9593
              Bcc     0.0016     0.781     0.279     0.260  0.3056  0.9517  0.0295
 
              Baa    -0.0017    -0.221    -0.079    -0.074  0.8956 -0.3714 -0.2450
    36 C(13)  Bbb    -0.0013    -0.175    -0.062    -0.058  0.3970  0.4184  0.8169
              Bcc     0.0030     0.396     0.141     0.132  0.2009  0.8289 -0.5221
 
              Baa    -0.0107    -5.364    -1.914    -1.789  0.7867 -0.6059 -0.1180
    37 F(19)  Bbb    -0.0091    -4.566    -1.629    -1.523  0.6018  0.7102  0.3653
              Bcc     0.0198     9.931     3.543     3.312 -0.1375 -0.3584  0.9234
 
              Baa    -0.0011    -0.530    -0.189    -0.177  0.8759 -0.4788  0.0590
    38 F(19)  Bbb    -0.0006    -0.277    -0.099    -0.092  0.1478  0.3828  0.9119
              Bcc     0.0016     0.807     0.288     0.269  0.4592  0.7901 -0.4061
 
              Baa    -0.0013    -0.647    -0.231    -0.216  0.9951  0.0629  0.0767
    39 F(19)  Bbb    -0.0007    -0.373    -0.133    -0.124 -0.0934  0.3335  0.9381
              Bcc     0.0020     1.020     0.364     0.340 -0.0335  0.9407 -0.3377
 
              Baa    -0.1339   -17.965    -6.410    -5.993 -0.2964  0.0960  0.9502
    40 C(13)  Bbb     0.0469     6.288     2.244     2.098 -0.5888  0.7650 -0.2610
              Bcc     0.0870    11.677     4.167     3.895  0.7519  0.6369  0.1702
 
              Baa    -0.4405    31.877    11.375    10.633 -0.3753  0.8848 -0.2762
    41 O(17)  Bbb    -0.4317    31.235    11.146    10.419  0.8806  0.4333  0.1916
              Bcc     0.8722   -63.113   -22.520   -21.052 -0.2892  0.1713  0.9418
 
              Baa    -0.0023    -1.223    -0.437    -0.408  0.2902  0.3737  0.8810
    42 H(1)   Bbb    -0.0020    -1.086    -0.388    -0.362  0.8733  0.2732 -0.4035
              Bcc     0.0043     2.310     0.824     0.770 -0.3914  0.8864 -0.2471
 
              Baa    -0.0021    -1.131    -0.403    -0.377 -0.1913 -0.2208  0.9564
    43 H(1)   Bbb    -0.0007    -0.368    -0.131    -0.123  0.9797 -0.1020  0.1724
              Bcc     0.0028     1.499     0.535     0.500  0.0595  0.9700  0.2358
 
              Baa    -0.0035    -1.866    -0.666    -0.622  0.9087  0.2745  0.3144
    44 H(1)   Bbb     0.0007     0.377     0.134     0.126 -0.4172  0.5751  0.7038
              Bcc     0.0028     1.489     0.531     0.497 -0.0124  0.7707 -0.6371
 
              Baa    -0.0066    -3.543    -1.264    -1.182  0.7244  0.6310  0.2777
    45 H(1)   Bbb    -0.0039    -2.066    -0.737    -0.689 -0.5055  0.7601 -0.4083
              Bcc     0.0105     5.609     2.001     1.871 -0.4687  0.1554  0.8696
 
              Baa    -0.0056    -2.974    -1.061    -0.992  0.4517  0.7034 -0.5488
    46 H(1)   Bbb    -0.0015    -0.823    -0.294    -0.274 -0.1164  0.6564  0.7454
              Bcc     0.0071     3.797     1.355     1.266  0.8845 -0.2728  0.3784
 
              Baa    -0.0132    -7.062    -2.520    -2.356  0.6525 -0.1198  0.7483
    47 H(1)   Bbb     0.0019     1.040     0.371     0.347 -0.3286  0.8451  0.4218
              Bcc     0.0113     6.022     2.149     2.009  0.6829  0.5211 -0.5120
 
              Baa    -0.0133    -7.105    -2.535    -2.370  0.2002  0.8062 -0.5567
    48 H(1)   Bbb     0.0019     1.006     0.359     0.336  0.8081 -0.4572 -0.3715
              Bcc     0.0114     6.098     2.176     2.034  0.5540  0.3755  0.7430
 
              Baa    -0.0108    -5.737    -2.047    -1.914 -0.5221  0.2707  0.8088
    49 H(1)   Bbb    -0.0045    -2.387    -0.852    -0.796  0.0729  0.9590 -0.2739
              Bcc     0.0152     8.124     2.899     2.710  0.8498  0.0840  0.5204
 
              Baa    -0.0120    -6.402    -2.284    -2.135 -0.4192  0.3645  0.8315
    50 H(1)   Bbb    -0.0048    -2.585    -0.922    -0.862  0.7935 -0.2980  0.5307
              Bcc     0.0168     8.987     3.207     2.998  0.4412  0.8822 -0.1643
 

 ---------------------------------------------------------------------------------

 No NMR shielding tensors so no spin-rotation constants.
 Leave Link  601 at Sun Mar  3 17:30:19 2024, MaxMem=  5368709120 cpu:         6.2
 (Enter /home/k0335/k033513/app/g09/l9999.exe)
 1\1\GINC-C24U17N2\SP\UCAM-B3LYP\6-31G(d,p)\C15H9F18N3O5(1+,2)\K033513\
 03-Mar-2024\0\\#p CAM-B3LYP/6-31G(d,p) SCRF=(PCM,Solvent=Generic,Read)
  NoSymm out=wfn\\Title A126125650_p1\\1,2\C,0,-2.335254,4.974399,0.013
 297\C,0,-3.058093,3.717111,0.471098\C,0,-2.117806,2.54832,0.769042\C,0
 ,-1.385646,2.02832,-0.472554\N,0,-0.579705,0.843497,-0.161237\C,0,0.71
 3232,1.0338,0.281883\O,0,1.183089,2.157968,0.441739\N,0,1.439704,-0.10
 6994,0.507662\C,0,2.862681,0.042792,0.779171\F,0,3.334026,-1.086257,1.
 373883\F,0,2.987497,0.981011,1.774185\C,0,3.783204,0.476379,-0.400343\
 F,0,3.096596,1.395997,-1.166987\O,0,4.940416,1.227831,0.003949\C,0,5.9
 49293,0.468605,0.616889\F,0,5.452394,-0.250894,1.629699\F,0,6.885151,1
 .306113,1.0983\F,0,6.520763,-0.343922,-0.283689\C,0,4.056173,-0.712351
 ,-1.319708\F,0,2.92805,-1.112566,-1.950551\F,0,4.931089,-0.367357,-2.2
 98173\F,0,4.578856,-1.771802,-0.674278\C,0,0.950866,-1.348844,0.194198
 \O,0,1.711809,-2.280516,-0.05071\N,0,-0.420672,-1.470844,0.135745\C,0,
 -0.930372,-2.82953,-0.031961\F,0,-0.203425,-3.636615,0.808649\F,0,-0.5
 92019,-3.246938,-1.286736\C,0,-2.421306,-3.218881,0.232016\F,0,-2.5113
 95,-4.594532,0.193256\O,0,-3.45019,-2.775123,-0.65057\C,0,-3.216505,-3
 .10458,-1.995784\F,0,-2.316939,-2.258694,-2.529511\F,0,-4.373399,-2.97
 9807,-2.674518\F,0,-2.776912,-4.366719,-2.127541\C,0,-2.73395,-2.81371
 4,1.673689\F,0,-2.607433,-1.48337,1.88845\F,0,-4.000812,-3.147033,2.02
 2718\F,0,-1.913863,-3.418134,2.5651\C,0,-1.181275,-0.394117,-0.220677\
 O,0,-2.351346,-0.519078,-0.568903\H,0,-3.046817,5.800024,-0.089434\H,0
 ,-1.570928,5.274127,0.737194\H,0,-1.854492,4.829721,-0.958527\H,0,-3.6
 20449,3.951396,1.382854\H,0,-3.792731,3.421562,-0.286894\H,0,-2.70878,
 1.73461,1.208073\H,0,-1.390567,2.845048,1.534792\H,0,-2.111234,1.77639
 7,-1.254848\H,0,-0.73057,2.804188,-0.883398\\Version=ES64L-G09RevD.01\
 HF=-2913.3527794\S2=0.779073\S2-1=0.\S2A=0.750536\RMSD=8.977e-09\Dipol
 e=-3.0766104,4.4315437,0.1969689\Quadrupole=1.9297149,4.1792454,-6.108
 9603,-11.4685666,-0.1622716,-0.3075421\PG=C01 [X(C15H9F18N3O5)]\\@

 Writing a WFN file to "A126125650/A126125650_p1.wfn"


 The juvenile sea squirt wanders through the sea searching
 for a suitable rock or hunk of coral to cling to and make
 its home for life.  For this task it has a rudimentary
 nervous system.  When it finds its spot and takes root, it
 doesn't need its brain any more so it eats it.
 It's rather like getting tenure.

                               -- source unknown
 Job cpu time:       0 days  1 hours 20 minutes 48.8 seconds.
 File lengths (MBytes):  RWF=    661 Int=      0 D2E=      0 Chk=     22 Scr=      1
 Normal termination of Gaussian 09 at Sun Mar  3 17:30:19 2024.
