 Entering Gaussian System, Link 0=g09
 Initial command:
 /home/k0335/k033513/app/g09/l1.exe "/home/k0335/k033513/app/g09/scratch/Gau-558960.inp" -scrdir="/home/k0335/k033513/app/g09/scratch/"
 Default is to use a total of  36 processors:
                               36 via shared-memory
                                1 via Linda
 Entering Link 1 = /home/k0335/k033513/app/g09/l1.exe PID=    558961.
  
 Copyright (c) 1988,1990,1992,1993,1995,1998,2003,2009,2013,
            Gaussian, Inc.  All Rights Reserved.
  
 This is part of the Gaussian(R) 09 program.  It is based on
 the Gaussian(R) 03 system (copyright 2003, Gaussian, Inc.),
 the Gaussian(R) 98 system (copyright 1998, Gaussian, Inc.),
 the Gaussian(R) 94 system (copyright 1995, Gaussian, Inc.),
 the Gaussian 92(TM) system (copyright 1992, Gaussian, Inc.),
 the Gaussian 90(TM) system (copyright 1990, Gaussian, Inc.),
 the Gaussian 88(TM) system (copyright 1988, Gaussian, Inc.),
 the Gaussian 86(TM) system (copyright 1986, Carnegie Mellon
 University), and the Gaussian 82(TM) system (copyright 1983,
 Carnegie Mellon University). Gaussian is a federally registered
 trademark of Gaussian, Inc.
  
 This software contains proprietary and confidential information,
 including trade secrets, belonging to Gaussian, Inc.
  
 This software is provided under written license and may be
 used, copied, transmitted, or stored only in accord with that
 written license.
  
 The following legend is applicable only to US Government
 contracts under FAR:
  
                    RESTRICTED RIGHTS LEGEND
  
 Use, reproduction and disclosure by the US Government is
 subject to restrictions as set forth in subparagraphs (a)
 and (c) of the Commercial Computer Software - Restricted
 Rights clause in FAR 52.227-19.
  
 Gaussian, Inc.
 340 Quinnipiac St., Bldg. 40, Wallingford CT 06492
  
  
 ---------------------------------------------------------------
 Warning -- This program may not be used in any manner that
 competes with the business of Gaussian, Inc. or will provide
 assistance to any competitor of Gaussian, Inc.  The licensee
 of this program is prohibited from giving any competitor of
 Gaussian, Inc. access to this program.  By using this program,
 the user acknowledges that Gaussian, Inc. is engaged in the
 business of creating and licensing software in the field of
 computational chemistry and represents and warrants to the
 licensee that it is not a competitor of Gaussian, Inc. and that
 it will not use this program in any manner prohibited above.
 ---------------------------------------------------------------
  

 Cite this work as:
 Gaussian 09, Revision D.01,
 M. J. Frisch, G. W. Trucks, H. B. Schlegel, G. E. Scuseria, 
 M. A. Robb, J. R. Cheeseman, G. Scalmani, V. Barone, B. Mennucci, 
 G. A. Petersson, H. Nakatsuji, M. Caricato, X. Li, H. P. Hratchian, 
 A. F. Izmaylov, J. Bloino, G. Zheng, J. L. Sonnenberg, M. Hada, 
 M. Ehara, K. Toyota, R. Fukuda, J. Hasegawa, M. Ishida, T. Nakajima, 
 Y. Honda, O. Kitao, H. Nakai, T. Vreven, J. A. Montgomery, Jr., 
 J. E. Peralta, F. Ogliaro, M. Bearpark, J. J. Heyd, E. Brothers, 
 K. N. Kudin, V. N. Staroverov, T. Keith, R. Kobayashi, J. Normand, 
 K. Raghavachari, A. Rendell, J. C. Burant, S. S. Iyengar, J. Tomasi, 
 M. Cossi, N. Rega, J. M. Millam, M. Klene, J. E. Knox, J. B. Cross, 
 V. Bakken, C. Adamo, J. Jaramillo, R. Gomperts, R. E. Stratmann, 
 O. Yazyev, A. J. Austin, R. Cammi, C. Pomelli, J. W. Ochterski, 
 R. L. Martin, K. Morokuma, V. G. Zakrzewski, G. A. Voth, 
 P. Salvador, J. J. Dannenberg, S. Dapprich, A. D. Daniels, 
 O. Farkas, J. B. Foresman, J. V. Ortiz, J. Cioslowski, 
 and D. J. Fox, Gaussian, Inc., Wallingford CT, 2013.
 
 ******************************************
 Gaussian 09:  ES64L-G09RevD.01 24-Apr-2013
                 3-Mar-2024 
 ******************************************
 %nprocshared=24
 Will use up to   24 processors via shared memory.
 %mem=40GB
 %rwf=A1374950791/A1374950791_p1.rwf
 %nosave
 %chk=A1374950791/A1374950791_p1.chk
 ----------------------------------------------------------------------
 #p CAM-B3LYP/6-31G(d,p) SCRF=(PCM,Solvent=Generic,Read) NoSymm out=wfn
 ----------------------------------------------------------------------
 1/38=1,40=2/1;
 2/12=2,15=1,17=6,18=5,40=1/2;
 3/5=1,6=6,7=101,11=2,16=1,25=1,30=1,70=2203,72=-2,74=-40/1,2,3;
 4//1;
 5/5=2,38=5/2;
 6/7=2,8=2,9=2,10=2,28=1/1;
 99/5=1,6=100,9=1/99;
 Leave Link    1 at Sun Mar  3 18:26:03 2024, MaxMem=  5368709120 cpu:         1.2
 (Enter /home/k0335/k033513/app/g09/l101.exe)
 --------------------
 Title A1374950791_p1
 --------------------
 Symbolic Z-matrix:
 Charge =  1 Multiplicity = 2
 O                     1.70927  -3.35172   0.12011 
 C                     0.79766  -2.52782   0.15753 
 N                    -0.44746  -2.80636   0.68967 
 Cl                   -0.84077  -4.46873   1.0423 
 C                    -1.40247  -1.84051   0.94557 
 O                    -2.57506  -2.1085    1.20213 
 N                    -0.94198  -0.5412    0.87196 
 C                    -1.86011   0.53021   1.24561 
 F                    -2.6097    0.11913   2.30711 
 F                    -1.12793   1.55897   1.7585 
 C                    -2.77835   1.03333   0.10345 
 F                    -2.00169   1.59065  -0.87218 
 O                    -3.41431  -0.08689  -0.52184 
 C                    -4.45043   0.28136  -1.39473 
 F                    -4.7469   -0.77641  -2.17129 
 F                    -5.53618   0.61556  -0.68117 
 F                    -4.0753    1.30228  -2.17983 
 C                    -3.67683   2.10301   0.74002 
 F                    -4.52994   1.57043   1.64282 
 F                    -2.97462   3.07029   1.36855 
 F                    -4.43597   2.73118  -0.1896 
 C                     0.17338  -0.20511   0.14232 
 O                     0.47261   0.96442  -0.07751 
 N                     0.9473   -1.24109  -0.32144 
 C                     2.2008   -0.9172   -0.99761 
 F                     1.96577   0.06564  -1.9071 
 F                     2.54884  -1.97684  -1.78074 
 C                     3.36853  -0.53287  -0.05038 
 F                     3.54119  -1.56474   0.84507 
 O                     3.07422   0.56938   0.81777 
 C                     3.36596   1.84071   0.28426 
 F                     2.79579   2.77571   1.06354 
 F                     2.90133   1.95983  -0.96415 
 F                     4.69479   2.02985   0.28775 
 C                     4.64454  -0.45896  -0.89938 
 F                     4.92931  -1.62998  -1.51054 
 F                     4.57685   0.48362  -1.86236 
 F                     5.71787  -0.16064  -0.12653 
 
 NAtoms=     38 NQM=       38 NQMF=       0 NMMI=      0 NMMIF=      0
                NMic=       0 NMicF=      0.
                    Isotopes and Nuclear Properties:
 (Nuclear quadrupole moments (NQMom) in fm**2, nuclear magnetic moments (NMagM)
  in nuclear magnetons)

  Atom         1           2           3           4           5           6           7           8           9          10
 IAtWgt=          16          12          14          35          12          16          14          12          19          19
 AtmWgt=  15.9949146  12.0000000  14.0030740  34.9688527  12.0000000  15.9949146  14.0030740  12.0000000  18.9984033  18.9984033
 NucSpn=           0           0           2           3           0           0           2           0           1           1
 AtZEff=   0.0000000   0.0000000   0.0000000   0.0000000   0.0000000   0.0000000   0.0000000   0.0000000   0.0000000   0.0000000
 NQMom=    0.0000000   0.0000000   2.0440000  -8.1650000   0.0000000   0.0000000   2.0440000   0.0000000   0.0000000   0.0000000
 NMagM=    0.0000000   0.0000000   0.4037610   0.8218740   0.0000000   0.0000000   0.4037610   0.0000000   2.6288670   2.6288670
 AtZNuc=   8.0000000   6.0000000   7.0000000  17.0000000   6.0000000   8.0000000   7.0000000   6.0000000   9.0000000   9.0000000

  Atom        11          12          13          14          15          16          17          18          19          20
 IAtWgt=          12          19          16          12          19          19          19          12          19          19
 AtmWgt=  12.0000000  18.9984033  15.9949146  12.0000000  18.9984033  18.9984033  18.9984033  12.0000000  18.9984033  18.9984033
 NucSpn=           0           1           0           0           1           1           1           0           1           1
 AtZEff=   0.0000000   0.0000000   0.0000000   0.0000000   0.0000000   0.0000000   0.0000000   0.0000000   0.0000000   0.0000000
 NQMom=    0.0000000   0.0000000   0.0000000   0.0000000   0.0000000   0.0000000   0.0000000   0.0000000   0.0000000   0.0000000
 NMagM=    0.0000000   2.6288670   0.0000000   0.0000000   2.6288670   2.6288670   2.6288670   0.0000000   2.6288670   2.6288670
 AtZNuc=   6.0000000   9.0000000   8.0000000   6.0000000   9.0000000   9.0000000   9.0000000   6.0000000   9.0000000   9.0000000

  Atom        21          22          23          24          25          26          27          28          29          30
 IAtWgt=          19          12          16          14          12          19          19          12          19          16
 AtmWgt=  18.9984033  12.0000000  15.9949146  14.0030740  12.0000000  18.9984033  18.9984033  12.0000000  18.9984033  15.9949146
 NucSpn=           1           0           0           2           0           1           1           0           1           0
 AtZEff=   0.0000000   0.0000000   0.0000000   0.0000000   0.0000000   0.0000000   0.0000000   0.0000000   0.0000000   0.0000000
 NQMom=    0.0000000   0.0000000   0.0000000   2.0440000   0.0000000   0.0000000   0.0000000   0.0000000   0.0000000   0.0000000
 NMagM=    2.6288670   0.0000000   0.0000000   0.4037610   0.0000000   2.6288670   2.6288670   0.0000000   2.6288670   0.0000000
 AtZNuc=   9.0000000   6.0000000   8.0000000   7.0000000   6.0000000   9.0000000   9.0000000   6.0000000   9.0000000   8.0000000

  Atom        31          32          33          34          35          36          37          38
 IAtWgt=          12          19          19          19          12          19          19          19
 AtmWgt=  12.0000000  18.9984033  18.9984033  18.9984033  12.0000000  18.9984033  18.9984033  18.9984033
 NucSpn=           0           1           1           1           0           1           1           1
 AtZEff=   0.0000000   0.0000000   0.0000000   0.0000000   0.0000000   0.0000000   0.0000000   0.0000000
 NQMom=    0.0000000   0.0000000   0.0000000   0.0000000   0.0000000   0.0000000   0.0000000   0.0000000
 NMagM=    0.0000000   2.6288670   2.6288670   2.6288670   0.0000000   2.6288670   2.6288670   2.6288670
 AtZNuc=   6.0000000   9.0000000   9.0000000   9.0000000   6.0000000   9.0000000   9.0000000   9.0000000
 Leave Link  101 at Sun Mar  3 18:26:03 2024, MaxMem=  5368709120 cpu:         1.1
 (Enter /home/k0335/k033513/app/g09/l202.exe)
                          Input orientation:                          
 ---------------------------------------------------------------------
 Center     Atomic      Atomic             Coordinates (Angstroms)
 Number     Number       Type             X           Y           Z
 ---------------------------------------------------------------------
      1          8           0        1.709266   -3.351718    0.120110
      2          6           0        0.797663   -2.527818    0.157533
      3          7           0       -0.447464   -2.806358    0.689667
      4         17           0       -0.840765   -4.468734    1.042297
      5          6           0       -1.402465   -1.840506    0.945565
      6          8           0       -2.575060   -2.108503    1.202128
      7          7           0       -0.941983   -0.541200    0.871962
      8          6           0       -1.860113    0.530208    1.245606
      9          9           0       -2.609704    0.119131    2.307114
     10          9           0       -1.127929    1.558965    1.758497
     11          6           0       -2.778348    1.033332    0.103454
     12          9           0       -2.001694    1.590647   -0.872178
     13          8           0       -3.414307   -0.086894   -0.521837
     14          6           0       -4.450425    0.281357   -1.394732
     15          9           0       -4.746903   -0.776409   -2.171287
     16          9           0       -5.536182    0.615562   -0.681173
     17          9           0       -4.075297    1.302279   -2.179825
     18          6           0       -3.676829    2.103009    0.740016
     19          9           0       -4.529936    1.570427    1.642816
     20          9           0       -2.974624    3.070292    1.368545
     21          9           0       -4.435965    2.731176   -0.189601
     22          6           0        0.173375   -0.205109    0.142324
     23          8           0        0.472611    0.964418   -0.077505
     24          7           0        0.947299   -1.241090   -0.321435
     25          6           0        2.200803   -0.917195   -0.997607
     26          9           0        1.965769    0.065637   -1.907100
     27          9           0        2.548841   -1.976838   -1.780740
     28          6           0        3.368531   -0.532866   -0.050377
     29          9           0        3.541187   -1.564735    0.845066
     30          8           0        3.074223    0.569381    0.817769
     31          6           0        3.365955    1.840714    0.284262
     32          9           0        2.795787    2.775711    1.063540
     33          9           0        2.901326    1.959834   -0.964151
     34          9           0        4.694785    2.029853    0.287745
     35          6           0        4.644544   -0.458957   -0.899377
     36          9           0        4.929306   -1.629978   -1.510540
     37          9           0        4.576854    0.483617   -1.862360
     38          9           0        5.717869   -0.160641   -0.126531
 ---------------------------------------------------------------------
                    Distance matrix (angstroms):
                    1          2          3          4          5
     1  O    0.000000
     2  C    1.229322   0.000000
     3  N    2.296366   1.382423   0.000000
     4  Cl   2.932714   2.689686   1.744284   0.000000
     5  C    3.556404   2.435971   1.382165   2.689321   0.000000
     6  O    4.590403   3.555596   2.297016   2.933260   1.229889
     7  N    3.936167   2.735586   2.325666   3.932529   1.380455
     8  C    5.392268   4.195140   3.665695   5.105862   2.433054
     9  F    5.956784   4.820497   3.981194   5.077146   2.674214
    10  F    5.903287   4.792993   4.545490   6.076887   3.506085
    11  C    6.274362   5.047036   4.529888   5.908332   3.295626
    12  F    6.259619   5.085121   4.918195   6.459804   3.928877
    13  O    6.109188   4.915317   4.203021   5.316969   3.045641
    14  C    7.309978   6.151700   5.468309   6.444542   4.389687
    15  F    7.318800   6.263629   5.548957   6.262452   4.693861
    16  F    8.299270   7.120524   6.283613   7.132135   5.076038
    17  F    7.772423   6.624094   6.186764   7.358591   5.175828
    18  C    7.690796   6.465673   5.876497   7.163968   4.557005
    19  F    8.091587   6.883676   6.060637   7.102258   4.679925
    20  F    8.046094   6.858246   6.432918   7.841983   5.173638
    21  F    8.652247   7.427542   6.880809   8.141360   5.602767
    22  C    3.501514   2.405191   2.729748   4.474028   2.408940
    23  O    4.494151   3.515198   3.956494   5.700706   3.525646
    24  N    2.286986   1.381112   2.327607   3.933780   2.736052
    25  C    2.723564   2.428427   3.664580   5.101546   4.196661
    26  F    3.981669   3.514710   4.562373   6.093939   4.807918
    27  F    2.491669   2.669664   3.971002   5.066410   4.802514
    28  C    3.275386   3.260740   4.503138   5.865421   5.046209
    29  F    2.659850   2.987834   4.180325   5.260572   4.952357
    30  O    4.210089   3.900164   4.879990   6.384367   5.085727
    31  C    5.452790   5.069147   6.025097   7.621040   6.060242
    32  F    6.294122   5.739405   6.466680   8.105982   6.240889
    33  F    5.550605   5.081594   6.055253   7.704256   6.050803
    34  F    6.156519   5.998073   7.070587   8.569906   7.251818
    35  C    4.245383   4.493967   5.827855   7.066613   6.471384
    36  F    3.999008   4.545224   5.927431   6.918759   6.794711
    37  F    5.182957   5.237461   6.525377   7.893884   7.002731
    38  F    5.129591   5.467417   6.758500   7.933568   7.393950
                    6          7          8          9         10
     6  O    0.000000
     7  N    2.287442   0.000000
     8  C    2.734197   1.459619   0.000000
     9  F    2.486875   2.297170   1.362964   0.000000
    10  F    3.981715   2.287185   1.362898   2.137700   0.000000
    11  C    3.334597   2.538108   1.549452   2.391719   2.395692
    12  F    4.279627   2.951234   2.372675   3.555690   2.772169
    13  O    2.786269   2.874275   2.433144   2.948355   3.624403
    14  C    3.996512   4.257190   3.707159   4.137419   4.755430
    15  F    4.227447   4.877920   4.660039   5.042389   5.830450
    16  F    4.442476   4.985679   4.151294   4.211956   5.125885
    17  F    5.032072   4.746522   4.151712   4.866254   4.925774
    18  C    4.377702   3.806394   2.455561   2.744144   2.798246
    19  F    4.189304   4.233981   2.892713   2.496967   3.403993
    20  F    5.196851   4.173859   2.776558   3.118241   2.417944
    21  F    5.368647   4.903394   3.679551   4.048653   4.014009
    22  C    3.507134   1.374537   2.427549   3.540759   2.723484
    23  O    4.513159   2.273642   2.716756   3.987679   2.507213
    24  N    3.934547   2.341672   3.670787   4.627282   4.058694
    25  C    5.391374   3.676107   4.859837   5.927574   4.980756
    26  F    5.917205   4.067734   4.979232   6.220725   5.023704
    27  F    5.930362   4.613430   5.906177   6.907548   6.208602
    28  C    6.275163   4.408096   5.490757   6.459269   5.278819
    29  F    6.150744   4.598604   5.807173   6.542664   5.691441
    30  O    6.263641   4.167282   4.953004   5.893038   4.418408
    31  C    7.192667   4.957543   5.472969   6.539440   4.737905
    32  F    7.260906   5.000952   5.172314   6.150059   4.166411
    33  F    7.157858   4.939383   5.440419   6.667894   4.879386
    34  F    8.415030   6.222923   6.792137   7.815643   6.024022
    35  C    7.698052   5.861202   6.920257   7.952351   6.667664
    36  F    7.993939   6.429136   7.639303   8.629631   7.585912
    37  F    8.201222   6.243743   7.148158   8.316488   6.841895
    38  F    8.621611   6.745031   7.732131   8.680402   7.305842
                   11         12         13         14         15
    11  C    0.000000
    12  F    1.365888   0.000000
    13  O    1.431900   2.220891   0.000000
    14  C    2.367672   2.825524   1.403957   0.000000
    15  F    3.510672   3.850560   2.229782   1.345290   0.000000
    16  F    2.897554   3.671495   2.240800   1.341539   2.186546
    17  F    2.639654   2.468385   2.261777   1.341407   2.184507
    18  C    1.535151   2.380706   2.541036   2.911016   4.232232
    19  F    2.392941   3.566176   2.945686   3.300715   4.483536
    20  F    2.405865   2.856008   3.706034   4.194264   5.519827
    21  F    2.390868   2.773516   3.015905   2.730231   4.040658
    22  C    3.201237   2.997479   3.650554   4.896807   5.467021
    23  O    3.256721   2.673173   4.051027   5.141784   5.887081
    24  N    4.385655   4.125362   4.516186   5.710099   6.005149
    25  C    5.459747   4.895507   5.696070   6.770012   7.047550
    26  F    5.242653   4.374641   5.557647   6.440233   6.770436
    27  F    6.402363   5.853187   6.380898   7.364657   7.404150
    28  C    6.345137   5.833008   6.813814   7.975357   8.391534
    29  F    6.872879   6.605217   7.240948   8.502389   8.855071
    30  O    5.914227   5.446452   6.657797   7.848468   8.480308
    31  C    6.199759   5.496503   7.094887   8.145331   8.871162
    32  F    5.918499   5.307278   7.019487   8.048136   8.942809
    33  F    5.852938   4.917760   6.653718   7.553206   8.212162
    34  F    7.541534   6.810371   8.419823   9.461651  10.152212
    35  C    7.637534   6.955149   8.076264   9.138485   9.482500
    36  F    8.313010   7.669335   8.542512   9.573190   9.736231
    37  F    7.633191   6.744129   8.122877   9.041645   9.413583
    38  F    8.582783   7.950764   9.141025  10.256603  10.680433
                   16         17         18         19         20
    16  F    0.000000
    17  F    2.202663   0.000000
    18  C    2.772989   3.053755   0.000000
    19  F    2.706515   3.858910   1.351474   0.000000
    20  F    4.097392   4.114399   1.350473   2.178030   0.000000
    21  F    2.434737   2.476453   1.354647   2.171157   2.162946
    22  C    5.826722   5.071076   4.528655   5.246441   4.705504
    23  O    6.049108   5.021690   4.379793   5.324681   4.290594
    24  N    6.753673   5.928643   5.804501   6.462431   6.068404
    25  C    7.893694   6.761149   6.832827   7.646106   6.948653
    26  F    7.621324   6.172369   6.557211   7.553839   6.645697
    27  F    8.561377   7.402100   7.858647   8.626292   8.117893
    28  C    9.000595   7.956939   7.563706   8.347247   7.431803
    29  F    9.459478   8.682198   8.097107   8.695325   8.013320
    30  O    8.740025   7.787063   6.923494   7.714015   6.568597
    31  C    9.037760   7.857090   7.062387   8.016472   6.549082
    32  F    8.782481   7.739652   6.515516   7.446777   5.785970
    33  F    8.548607   7.112209   6.796823   7.884895   6.418830
    34  F   10.373606   9.139617   8.384141   9.335029   7.814760
    35  C   10.239599   8.987610   8.859827   9.734076   8.697746
    36  F   10.735769   9.493627   9.647059  10.472034   9.636067
    37  F   10.182638   8.696592   8.804435   9.818403   8.611298
    38  F   11.294414  10.112480   9.702338  10.542518   9.393275
                   21         22         23         24         25
    21  F    0.000000
    22  C    5.475213   0.000000
    23  O    5.218057   1.227054   0.000000
    24  N    6.691473   1.373786   2.269162   0.000000
    25  C    7.616441   2.432483   2.715456   1.460612   0.000000
    26  F    7.144025   2.736077   2.526805   2.293284   1.359550
    27  F    8.572318   3.532710   3.982804   2.288194   1.362817
    28  C    8.460704   3.217698   3.260207   2.537207   1.551948
    29  F    9.119229   3.699268   4.082145   2.862468   2.368835
    30  O    7.879789   3.077496   2.779560   3.016521   2.503669
    31  C    7.866856   3.794484   3.044702   3.964124   3.256813
    32  F    7.339658   4.075656   3.159100   4.633547   4.270818
    33  F    7.418270   3.654173   2.770496   3.804894   2.961275
    34  F    9.170077   5.045726   4.369818   5.011369   4.069050
    35  C    9.650719   4.597927   4.484027   3.823005   2.488273
    36  F   10.415030   5.232694   5.352253   4.173917   2.866337
    37  F    9.438249   4.887098   4.501298   4.303805   2.890621
    38  F   10.557790   5.551187   5.364783   4.895273   3.701473
                   26         27         28         29         30
    26  F    0.000000
    27  F    2.127826   0.000000
    28  C    2.402783   2.398146   0.000000
    29  F    3.565736   2.837153   1.377092   0.000000
    30  O    2.984517   3.675800   1.433612   2.184777   0.000000
    31  C    3.148569   4.416516   2.397055   3.455762   1.409264
    32  F    4.105866   5.544153   3.537729   4.409402   2.237369
    33  F    2.313526   4.035895   2.695703   4.013138   2.266824
    34  F    4.015348   4.993724   2.905306   3.816079   2.245022
    35  C    2.909732   2.733630   1.534429   2.341628   2.544008
    36  F    3.437284   2.420730   2.402447   2.734961   3.701288
    37  F    2.644707   3.189567   2.403448   3.549438   3.073816
    38  F    4.159313   4.009703   2.379861   2.766482   2.900603
                   31         32         33         34         35
    31  C    0.000000
    32  F    1.344093   0.000000
    33  F    1.337387   2.188224   0.000000
    34  F    1.342228   2.182740   2.188296   0.000000
    35  C    2.885182   4.211178   2.982206   2.757890   0.000000
    36  F    4.208454   5.530632   4.159086   4.084506   1.351259
    37  F    2.813534   4.121503   2.406946   2.650982   1.349209
    38  F    3.115393   4.310104   3.623663   2.452874   1.355843
                   36         37         38
    36  F    0.000000
    37  F    2.171470   0.000000
    38  F    2.167086   2.174876   0.000000
 Symmetry turned off by external request.
 Stoichiometry    C11ClF18N3O5(1+,2)
 Framework group  C1[X(C11ClF18N3O5)]
 Deg. of freedom   108
 Full point group                 C1      NOp   1
 Rotational constants (GHZ):      0.1601200      0.0645532      0.0549871
 Leave Link  202 at Sun Mar  3 18:26:03 2024, MaxMem=  5368709120 cpu:         0.1
 (Enter /home/k0335/k033513/app/g09/l301.exe)
 Standard basis: 6-31G(d,p) (6D, 7F)
 Ernie: Thresh=  0.10000D-02 Tol=  0.10000D-05 Strict=F.
   574 basis functions,  1088 primitive gaussians,   574 cartesian basis functions
   153 alpha electrons      152 beta electrons
       nuclear repulsion energy      5888.3534059702 Hartrees.
 IExCor=20419 DFT=T Ex+Corr=CAM-B3LYP ExCW=0 ScaHFX=  1.000000
 ScaDFX=  1.000000  1.000000  1.000000  0.810000 ScalE2=  1.000000  1.000000
 IRadAn=      0 IRanWt=     -1 IRanGd=            0 ICorTp=0 IEmpDi=  4
  HFx wShort=  0.000000 wLong=  0.330000 cFull=  0.190000 cShort=  0.000000 cLong=  0.460000
  DFx wShort=  0.000000 wLong=  0.330000 cFull=  0.190000 cShort=  0.000000 cLong=  0.460000
 NAtoms=   38 NActive=   38 NUniq=   38 SFac= 1.00D+00 NAtFMM=   60 NAOKFM=F Big=F
 Integral buffers will be    131072 words long.
 Raffenetti 2 integral format.
 Two-electron integral symmetry is turned off.
 Using the following non-standard input for PCM:
 eps=4.9
 --- end of non-standard input.
 ------------------------------------------------------------------------------
 Polarizable Continuum Model (PCM)
 =================================
 Model                : PCM (using non-symmetric T matrix).
 Atomic radii         : UFF (Universal Force Field).
 Polarization charges : Total charges.
 Charge compensation  : None.
 Solution method      : On-the-fly selection.
 Cavity type          : Scaled VdW (van der Waals Surface) (Alpha=1.100).
 Cavity algorithm     : GePol (No added spheres)
                        Default sphere list used, NSphG=   38.
                        Lebedev-Laikov grids with approx.  5.0 points / Ang**2.
                        Smoothing algorithm: Karplus/York (Gamma=1.0000).
                        Polarization charges: spherical gaussians, with
                                              point-specific exponents (IZeta= 3).
                        Self-potential: point-specific (ISelfS= 7).
                        Self-field    : sphere-specific E.n sum rule (ISelfD= 2).
 Solvent              : Generic,
                        Eps                           =   4.900000
                        Eps(infinity)                 =   0.000000
                        RSolv                         =   0.000000 Ang.
                        Molar volume                  =   0.000000 cm**3/mol
                        Thermal expansion coefficient =   0.000000 K**-1
                        Absolute temperature          = 298.150000 K
                        Numeral density               =   0.000000 Ang**-3
                        Hydrogen bond acidity         =   0.000000
                        Hydrogen bond basicity        =   0.000000
                        Surface tension at interface  =   0.000000 (cal/mol)*Ang**-2
                        Carbon aromaticity            =   0.000000
                        Electronegative halogenicity  =   0.000000
 ------------------------------------------------------------------------------
 GePol: Number of generator spheres                  =      38
 GePol: Total number of spheres                      =      38
 GePol: Number of exposed spheres                    =      38 (100.00%)
 GePol: Number of points                             =    3305
 GePol: Average weight of points                     =       0.13
 GePol: Minimum weight of points                     =   0.73D-11
 GePol: Maximum weight of points                     =    0.21616
 GePol: Number of points with low weight             =     124
 GePol: Fraction of low-weight points (<1% of avg)   =       3.75%
 GePol: Cavity surface area                          =    421.804 Ang**2
 GePol: Cavity volume                                =    494.849 Ang**3
 Leave Link  301 at Sun Mar  3 18:26:03 2024, MaxMem=  5368709120 cpu:         1.0
 (Enter /home/k0335/k033513/app/g09/l302.exe)
 NPDir=0 NMtPBC=     1 NCelOv=     1 NCel=       1 NClECP=     1 NCelD=      1
         NCelK=      1 NCelE2=     1 NClLst=     1 CellRange=     0.0.
 One-electron integrals computed using PRISM.
 NBasis=   574 RedAO= T EigKep=  1.21D-03  NBF=   574
 NBsUse=   574 1.00D-06 EigRej= -1.00D+00 NBFU=   574
 Precomputing XC quadrature grid using
 IXCGrd= 4 IRadAn=           0 IRanWt=          -1 IRanGd=           0 AccXCQ= 0.00D+00.
 Generated NRdTot=       0 NPtTot=           0 NUsed=           0 NTot=          32
 NSgBfM=   559   559   559   560   560 MxSgAt=    38 MxSgA2=    38.
 Leave Link  302 at Sun Mar  3 18:26:03 2024, MaxMem=  5368709120 cpu:        12.5
 (Enter /home/k0335/k033513/app/g09/l303.exe)
 DipDrv:  MaxL=1.
 Leave Link  303 at Sun Mar  3 18:26:04 2024, MaxMem=  5368709120 cpu:         0.9
 (Enter /home/k0335/k033513/app/g09/l401.exe)
 ExpMin= 1.43D-01 ExpMax= 2.52D+04 ExpMxC= 3.78D+03 IAcc=1 IRadAn=         1 AccDes= 0.00D+00
 Harris functional with IExCor=20419 and IRadAn=       1 diagonalized for initial guess.
 HarFok:  IExCor=20419 AccDes= 0.00D+00 IRadAn=         1 IDoV= 1 UseB2=F ITyADJ=14
 ICtDFT=  3500011 ScaDFX=  1.000000  1.000000  1.000000  1.000000
 FoFCou: FMM=F IPFlag=           0 FMFlag=      100000 FMFlg1=           0
         NFxFlg=           0 DoJE=T BraDBF=F KetDBF=T FulRan=T
         wScrn=  0.000000 ICntrl=     500 IOpCl=  0 I1Cent=   200000004 NGrid=           0
         NMat0=    1 NMatS0=      1 NMatT0=    0 NMatD0=    1 NMtDS0=    0 NMtDT0=    0
 Symmetry not used in FoFCou.
 Harris En= -3128.03505423743    
 JPrj=0 DoOrth=F DoCkMO=F.
 Initial guess <Sx>= 0.0000 <Sy>= 0.0000 <Sz>= 0.5000 <S**2>= 0.7500 S= 0.5000
 Leave Link  401 at Sun Mar  3 18:26:04 2024, MaxMem=  5368709120 cpu:        14.9
 (Enter /home/k0335/k033513/app/g09/l502.exe)
 UHF open shell SCF:
 Using DIIS extrapolation, IDIIS=  1040.
 Two-electron integral symmetry not used.
 IVT=     1024274 IEndB=     1024274 NGot=  5368709120 MDV=  5368031537
 LenX=  5368031537 LenY=  5367701487
 Requested convergence on RMS density matrix=1.00D-08 within 128 cycles.
 Requested convergence on MAX density matrix=1.00D-06.
 Requested convergence on             energy=1.00D-06.
 No special actions if energy rises.
 Fock matrices will be formed incrementally for  20 cycles.

 Cycle   1  Pass 1  IDiag  1:
 FoFJK:  IHMeth= 1 ICntrl=       0 DoSepK=T KAlg= 0 I1Cent=   0 FoldK=F
 IRaf=         1 NMat=   1 IRICut=       1 DoRegI=T DoRafI=F ISym2E= 0.
 FoFCou: FMM=F IPFlag=           0 FMFlag=      100000 FMFlg1=           0
         NFxFlg=           0 DoJE=T BraDBF=F KetDBF=F FulRan=T
         wScrn=  0.000000 ICntrl=     500 IOpCl=  0 I1Cent=           0 NGrid=           0
         NMat0=    1 NMatS0=      1 NMatT0=    0 NMatD0=    1 NMtDS0=    0 NMtDT0=    0
 Symmetry not used in FoFCou.
 Inv3:  Mode=1 IEnd=    32769075.
 Iteration    1 A*A^-1 deviation from unit magnitude is 5.22D-15 for   3303.
 Iteration    1 A*A^-1 deviation from orthogonality  is 6.29D-15 for   3300   2809.
 Iteration    1 A^-1*A deviation from unit magnitude is 4.88D-15 for   3303.
 Iteration    1 A^-1*A deviation from orthogonality  is 1.22D-13 for   3074   3062.
 E= -3214.54271890794    
 DIIS: error= 1.40D-01 at cycle   1 NSaved=   1.
 NSaved= 1 IEnMin= 1 EnMin= -3214.54271890794     IErMin= 1 ErrMin= 1.40D-01
 ErrMax= 1.40D-01  0.00D+00 EMaxC= 1.00D-01 BMatC= 1.05D+01 BMatP= 1.05D+01
 IDIUse=3 WtCom= 0.00D+00 WtEn= 1.00D+00
 Coeff-Com:  0.100D+01
 Coeff-En:   0.100D+01
 Coeff:      0.100D+01
 Gap=     0.429 Goal=   None    Shift=    0.000
 Gap=     0.114 Goal=   None    Shift=    0.000
 GapD=    0.114 DampG=1.000 DampE=0.250 DampFc=0.2500 IDamp=-1.
 Damping current iteration by 2.50D-01
 RMSDP=4.11D-03 MaxDP=5.48D-01              OVMax= 7.73D-01

 Cycle   2  Pass 1  IDiag  1:
 RMSU=  1.03D-03    CP:  1.00D+00
 E= -3214.91484288094     Delta-E=       -0.372123973002 Rises=F Damp=T
 DIIS: error= 9.41D-02 at cycle   2 NSaved=   2.
 NSaved= 2 IEnMin= 2 EnMin= -3214.91484288094     IErMin= 2 ErrMin= 9.41D-02
 ErrMax= 9.41D-02  0.00D+00 EMaxC= 1.00D-01 BMatC= 4.37D+00 BMatP= 1.05D+01
 IDIUse=3 WtCom= 5.92D-02 WtEn= 9.41D-01
 Coeff-Com: -0.132D+01 0.232D+01
 Coeff-En:   0.000D+00 0.100D+01
 Coeff:     -0.780D-01 0.108D+01
 Gap=     0.275 Goal=   None    Shift=    0.000
 Gap=     0.034 Goal=   None    Shift=    0.000
 RMSDP=2.15D-03 MaxDP=2.12D-01 DE=-3.72D-01 OVMax= 9.18D-01

 Cycle   3  Pass 1  IDiag  1:
 RMSU=  1.40D-03    CP:  1.01D+00  2.58D+00
 E= -3215.59982815085     Delta-E=       -0.684985269912 Rises=F Damp=F
 DIIS: error= 1.83D-02 at cycle   3 NSaved=   3.
 NSaved= 3 IEnMin= 3 EnMin= -3215.59982815085     IErMin= 3 ErrMin= 1.83D-02
 ErrMax= 1.83D-02  0.00D+00 EMaxC= 1.00D-01 BMatC= 7.14D-01 BMatP= 4.37D+00
 IDIUse=3 WtCom= 8.17D-01 WtEn= 1.83D-01
 Coeff-Com: -0.420D-01 0.314D+00 0.728D+00
 Coeff-En:   0.000D+00 0.000D+00 0.100D+01
 Coeff:     -0.343D-01 0.256D+00 0.778D+00
 Gap=     0.307 Goal=   None    Shift=    0.000
 Gap=     0.090 Goal=   None    Shift=    0.000
 RMSDP=8.33D-04 MaxDP=1.15D-01 DE=-6.85D-01 OVMax= 1.45D-01

 Cycle   4  Pass 1  IDiag  1:
 RMSU=  6.25D-04    CP:  1.01D+00  2.13D+00  7.94D-01
 E= -3215.67896666444     Delta-E=       -0.079138513591 Rises=F Damp=F
 DIIS: error= 5.94D-03 at cycle   4 NSaved=   4.
 NSaved= 4 IEnMin= 4 EnMin= -3215.67896666444     IErMin= 4 ErrMin= 5.94D-03
 ErrMax= 5.94D-03  0.00D+00 EMaxC= 1.00D-01 BMatC= 2.04D-01 BMatP= 7.14D-01
 IDIUse=3 WtCom= 9.41D-01 WtEn= 5.94D-02
 Coeff-Com:  0.278D-01 0.228D-01 0.385D+00 0.565D+00
 Coeff-En:   0.000D+00 0.000D+00 0.155D+00 0.845D+00
 Coeff:      0.261D-01 0.214D-01 0.371D+00 0.581D+00
 Gap=     0.282 Goal=   None    Shift=    0.000
 Gap=     0.127 Goal=   None    Shift=    0.000
 RMSDP=4.03D-04 MaxDP=4.15D-02 DE=-7.91D-02 OVMax= 1.08D-01

 Cycle   5  Pass 1  IDiag  1:
 RMSU=  2.49D-04    CP:  1.01D+00  2.23D+00  8.47D-01  5.37D-01
 E= -3215.70912943684     Delta-E=       -0.030162772395 Rises=F Damp=F
 DIIS: error= 2.47D-03 at cycle   5 NSaved=   5.
 NSaved= 5 IEnMin= 5 EnMin= -3215.70912943684     IErMin= 5 ErrMin= 2.47D-03
 ErrMax= 2.47D-03  0.00D+00 EMaxC= 1.00D-01 BMatC= 2.72D-02 BMatP= 2.04D-01
 IDIUse=3 WtCom= 9.75D-01 WtEn= 2.47D-02
 Coeff-Com:  0.251D-01-0.306D-01 0.129D+00 0.330D+00 0.546D+00
 Coeff-En:   0.000D+00 0.000D+00 0.000D+00 0.570D-01 0.943D+00
 Coeff:      0.244D-01-0.299D-01 0.126D+00 0.323D+00 0.556D+00
 Gap=     0.274 Goal=   None    Shift=    0.000
 Gap=     0.118 Goal=   None    Shift=    0.000
 RMSDP=1.28D-04 MaxDP=1.26D-02 DE=-3.02D-02 OVMax= 1.79D-02

 Cycle   6  Pass 1  IDiag  1:
 RMSU=  8.08D-05    CP:  1.01D+00  2.22D+00  8.58D-01  6.56D-01  7.44D-01
 E= -3215.71414802749     Delta-E=       -0.005018590655 Rises=F Damp=F
 DIIS: error= 7.68D-04 at cycle   6 NSaved=   6.
 NSaved= 6 IEnMin= 6 EnMin= -3215.71414802749     IErMin= 6 ErrMin= 7.68D-04
 ErrMax= 7.68D-04  0.00D+00 EMaxC= 1.00D-01 BMatC= 1.23D-03 BMatP= 2.72D-02
 IDIUse=3 WtCom= 9.92D-01 WtEn= 7.68D-03
 Coeff-Com:  0.114D-01-0.167D-01 0.379D-01 0.121D+00 0.254D+00 0.593D+00
 Coeff-En:   0.000D+00 0.000D+00 0.000D+00 0.000D+00 0.000D+00 0.100D+01
 Coeff:      0.113D-01-0.166D-01 0.376D-01 0.120D+00 0.252D+00 0.596D+00
 Gap=     0.270 Goal=   None    Shift=    0.000
 Gap=     0.120 Goal=   None    Shift=    0.000
 RMSDP=4.68D-05 MaxDP=5.96D-03 DE=-5.02D-03 OVMax= 2.13D-02

 Cycle   7  Pass 1  IDiag  1:
 RMSU=  3.95D-05    CP:  1.01D+00  2.23D+00  8.59D-01  6.47D-01  8.28D-01
                    CP:  1.13D+00
 E= -3215.71465017584     Delta-E=       -0.000502148345 Rises=F Damp=F
 DIIS: error= 4.32D-04 at cycle   7 NSaved=   7.
 NSaved= 7 IEnMin= 7 EnMin= -3215.71465017584     IErMin= 7 ErrMin= 4.32D-04
 ErrMax= 4.32D-04  0.00D+00 EMaxC= 1.00D-01 BMatC= 4.21D-04 BMatP= 1.23D-03
 IDIUse=3 WtCom= 9.96D-01 WtEn= 4.32D-03
 Coeff-Com:  0.178D-02-0.333D-02-0.185D-01-0.431D-01-0.753D-01 0.295D+00
 Coeff-Com:  0.843D+00
 Coeff-En:   0.000D+00 0.000D+00 0.000D+00 0.000D+00 0.000D+00 0.000D+00
 Coeff-En:   0.100D+01
 Coeff:      0.177D-02-0.332D-02-0.184D-01-0.429D-01-0.749D-01 0.294D+00
 Coeff:      0.844D+00
 Gap=     0.269 Goal=   None    Shift=    0.000
 Gap=     0.121 Goal=   None    Shift=    0.000
 RMSDP=5.25D-05 MaxDP=9.13D-03 DE=-5.02D-04 OVMax= 2.40D-02

 Cycle   8  Pass 1  IDiag  1:
 RMSU=  2.38D-05    CP:  1.01D+00  2.23D+00  8.60D-01  6.49D-01  9.09D-01
                    CP:  1.59D+00  1.51D+00
 E= -3215.71510934128     Delta-E=       -0.000459165445 Rises=F Damp=F
 DIIS: error= 3.23D-04 at cycle   8 NSaved=   8.
 NSaved= 8 IEnMin= 8 EnMin= -3215.71510934128     IErMin= 8 ErrMin= 3.23D-04
 ErrMax= 3.23D-04  0.00D+00 EMaxC= 1.00D-01 BMatC= 1.52D-04 BMatP= 4.21D-04
 IDIUse=3 WtCom= 9.97D-01 WtEn= 3.23D-03
 Coeff-Com: -0.239D-02 0.359D-02-0.156D-01-0.414D-01-0.111D+00-0.325D-01
 Coeff-Com:  0.188D+00 0.101D+01
 Coeff-En:   0.000D+00 0.000D+00 0.000D+00 0.000D+00 0.000D+00 0.000D+00
 Coeff-En:   0.000D+00 0.100D+01
 Coeff:     -0.238D-02 0.358D-02-0.156D-01-0.412D-01-0.111D+00-0.324D-01
 Coeff:      0.187D+00 0.101D+01
 Gap=     0.270 Goal=   None    Shift=    0.000
 Gap=     0.123 Goal=   None    Shift=    0.000
 RMSDP=5.37D-05 MaxDP=7.44D-03 DE=-4.59D-04 OVMax= 2.72D-02

 Cycle   9  Pass 1  IDiag  1:
 RMSU=  1.42D-05    CP:  1.01D+00  2.23D+00  8.58D-01  6.47D-01  9.82D-01
                    CP:  2.00D+00  2.27D+00  1.75D+00
 E= -3215.71545625063     Delta-E=       -0.000346909344 Rises=F Damp=F
 DIIS: error= 2.37D-04 at cycle   9 NSaved=   9.
 NSaved= 9 IEnMin= 9 EnMin= -3215.71545625063     IErMin= 9 ErrMin= 2.37D-04
 ErrMax= 2.37D-04  0.00D+00 EMaxC= 1.00D-01 BMatC= 1.04D-04 BMatP= 1.52D-04
 IDIUse=3 WtCom= 9.98D-01 WtEn= 2.37D-03
 Coeff-Com:  0.783D-03-0.514D-03 0.702D-02 0.179D-01-0.948D-02-0.103D+00
 Coeff-Com: -0.452D+00 0.337D+00 0.120D+01
 Coeff-En:   0.000D+00 0.000D+00 0.000D+00 0.000D+00 0.000D+00 0.000D+00
 Coeff-En:   0.000D+00 0.000D+00 0.100D+01
 Coeff:      0.781D-03-0.513D-03 0.701D-02 0.178D-01-0.946D-02-0.103D+00
 Coeff:     -0.451D+00 0.337D+00 0.120D+01
 Gap=     0.270 Goal=   None    Shift=    0.000
 Gap=     0.125 Goal=   None    Shift=    0.000
 RMSDP=6.35D-05 MaxDP=9.97D-03 DE=-3.47D-04 OVMax= 3.11D-02

 Cycle  10  Pass 1  IDiag  1:
 RMSU=  9.76D-06    CP:  1.01D+00  2.24D+00  8.56D-01  6.46D-01  1.05D+00
                    CP:  2.47D+00  3.00D+00  3.00D+00  2.10D+00
 E= -3215.71577471749     Delta-E=       -0.000318466864 Rises=F Damp=F
 DIIS: error= 1.94D-04 at cycle  10 NSaved=  10.
 NSaved=10 IEnMin=10 EnMin= -3215.71577471749     IErMin=10 ErrMin= 1.94D-04
 ErrMax= 1.94D-04  0.00D+00 EMaxC= 1.00D-01 BMatC= 5.39D-05 BMatP= 1.04D-04
 IDIUse=3 WtCom= 9.98D-01 WtEn= 1.94D-03
 Coeff-Com:  0.591D-02-0.790D-02 0.131D-01 0.304D-01 0.447D-01 0.334D-01
 Coeff-Com: -0.275D+00-0.391D+00 0.185D+00 0.136D+01
 Coeff-En:   0.000D+00 0.000D+00 0.000D+00 0.000D+00 0.000D+00 0.000D+00
 Coeff-En:   0.000D+00 0.000D+00 0.000D+00 0.100D+01
 Coeff:      0.590D-02-0.789D-02 0.131D-01 0.304D-01 0.447D-01 0.333D-01
 Coeff:     -0.275D+00-0.391D+00 0.185D+00 0.136D+01
 Gap=     0.271 Goal=   None    Shift=    0.000
 Gap=     0.126 Goal=   None    Shift=    0.000
 RMSDP=6.56D-05 MaxDP=9.17D-03 DE=-3.18D-04 OVMax= 3.17D-02

 Cycle  11  Pass 1  IDiag  1:
 RMSU=  4.25D-05    CP:  1.01D+00  2.24D+00  8.52D-01  6.43D-01  1.12D+00
                    CP:  2.90D+00  3.00D+00  3.00D+00  3.00D+00  3.00D+00
 E= -3215.71600151673     Delta-E=       -0.000226799239 Rises=F Damp=F
 DIIS: error= 1.39D-04 at cycle  11 NSaved=  11.
 NSaved=11 IEnMin=11 EnMin= -3215.71600151673     IErMin=11 ErrMin= 1.39D-04
 ErrMax= 1.39D-04  0.00D+00 EMaxC= 1.00D-01 BMatC= 4.02D-05 BMatP= 5.39D-05
 IDIUse=3 WtCom= 9.99D-01 WtEn= 1.39D-03
 Coeff-Com:  0.820D-02-0.112D-01 0.158D-02-0.680D-02-0.131D-02 0.971D-01
 Coeff-Com:  0.186D+00-0.129D+00-0.758D+00 0.320D+00 0.129D+01
 Coeff-En:   0.000D+00 0.000D+00 0.000D+00 0.000D+00 0.000D+00 0.000D+00
 Coeff-En:   0.000D+00 0.000D+00 0.000D+00 0.000D+00 0.100D+01
 Coeff:      0.819D-02-0.112D-01 0.158D-02-0.679D-02-0.131D-02 0.969D-01
 Coeff:      0.186D+00-0.128D+00-0.757D+00 0.319D+00 0.129D+01
 Gap=     0.272 Goal=   None    Shift=    0.000
 Gap=     0.126 Goal=   None    Shift=    0.000
 RMSDP=4.63D-05 MaxDP=5.75D-03 DE=-2.27D-04 OVMax= 2.21D-02

 Cycle  12  Pass 1  IDiag  1:
 RMSU=  2.70D-05    CP:  1.01D+00  2.24D+00  8.49D-01  6.38D-01  1.15D+00
                    CP:  3.00D+00  3.00D+00  3.00D+00  3.00D+00  3.00D+00
                    CP:  1.74D+00
 E= -3215.71611246165     Delta-E=       -0.000110944919 Rises=F Damp=F
 DIIS: error= 8.06D-05 at cycle  12 NSaved=  12.
 NSaved=12 IEnMin=12 EnMin= -3215.71611246165     IErMin=12 ErrMin= 8.06D-05
 ErrMax= 8.06D-05  0.00D+00 EMaxC= 1.00D-01 BMatC= 2.36D-05 BMatP= 4.02D-05
 IDIUse=1 WtCom= 1.00D+00 WtEn= 0.00D+00
 Coeff-Com:  0.583D-02-0.785D-02-0.289D-02-0.184D-01-0.258D-01 0.437D-01
 Coeff-Com:  0.195D+00 0.184D+00-0.537D+00-0.474D+00 0.581D+00 0.106D+01
 Coeff:      0.583D-02-0.785D-02-0.289D-02-0.184D-01-0.258D-01 0.437D-01
 Coeff:      0.195D+00 0.184D+00-0.537D+00-0.474D+00 0.581D+00 0.106D+01
 Gap=     0.273 Goal=   None    Shift=    0.000
 Gap=     0.126 Goal=   None    Shift=    0.000
 RMSDP=3.66D-05 MaxDP=4.45D-03 DE=-1.11D-04 OVMax= 1.74D-02

 Cycle  13  Pass 1  IDiag  1:
 RMSU=  6.14D-06    CP:  1.01D+00  2.24D+00  8.47D-01  6.33D-01  1.18D+00
                    CP:  3.00D+00  3.00D+00  3.00D+00  3.00D+00  3.00D+00
                    CP:  2.31D+00  1.96D+00
 E= -3215.71616901134     Delta-E=       -0.000056549690 Rises=F Damp=F
 DIIS: error= 5.07D-05 at cycle  13 NSaved=  13.
 NSaved=13 IEnMin=13 EnMin= -3215.71616901134     IErMin=13 ErrMin= 5.07D-05
 ErrMax= 5.07D-05  0.00D+00 EMaxC= 1.00D-01 BMatC= 9.02D-06 BMatP= 2.36D-05
 IDIUse=1 WtCom= 1.00D+00 WtEn= 0.00D+00
 Coeff-Com:  0.192D-02-0.249D-02 0.376D-03-0.310D-02-0.803D-02-0.821D-02
 Coeff-Com: -0.198D-01 0.144D+00 0.533D-01-0.235D+00-0.276D+00 0.254D+00
 Coeff-Com:  0.110D+01
 Coeff:      0.192D-02-0.249D-02 0.376D-03-0.310D-02-0.803D-02-0.821D-02
 Coeff:     -0.198D-01 0.144D+00 0.533D-01-0.235D+00-0.276D+00 0.254D+00
 Coeff:      0.110D+01
 Gap=     0.273 Goal=   None    Shift=    0.000
 Gap=     0.126 Goal=   None    Shift=    0.000
 RMSDP=1.94D-05 MaxDP=1.89D-03 DE=-5.65D-05 OVMax= 8.99D-03

 Cycle  14  Pass 1  IDiag  1:
 RMSU=  5.57D-06    CP:  1.01D+00  2.24D+00  8.46D-01  6.30D-01  1.19D+00
                    CP:  3.00D+00  3.00D+00  3.00D+00  3.00D+00  3.00D+00
                    CP:  2.57D+00  2.46D+00  1.75D+00
 E= -3215.71619150744     Delta-E=       -0.000022496099 Rises=F Damp=F
 DIIS: error= 4.01D-05 at cycle  14 NSaved=  14.
 NSaved=14 IEnMin=14 EnMin= -3215.71619150744     IErMin=14 ErrMin= 4.01D-05
 ErrMax= 4.01D-05  0.00D+00 EMaxC= 1.00D-01 BMatC= 3.49D-06 BMatP= 9.02D-06
 IDIUse=1 WtCom= 1.00D+00 WtEn= 0.00D+00
 Coeff-Com:  0.672D-03-0.855D-03 0.159D-02 0.309D-02 0.230D-02-0.901D-02
 Coeff-Com: -0.622D-01 0.318D-01 0.122D+00 0.171D-01-0.248D+00-0.158D+00
 Coeff-Com:  0.561D+00 0.739D+00
 Coeff:      0.672D-03-0.855D-03 0.159D-02 0.309D-02 0.230D-02-0.901D-02
 Coeff:     -0.622D-01 0.318D-01 0.122D+00 0.171D-01-0.248D+00-0.158D+00
 Coeff:      0.561D+00 0.739D+00
 Gap=     0.273 Goal=   None    Shift=    0.000
 Gap=     0.126 Goal=   None    Shift=    0.000
 RMSDP=1.00D-05 MaxDP=9.24D-04 DE=-2.25D-05 OVMax= 4.59D-03

 Cycle  15  Pass 1  IDiag  1:
 RMSU=  1.79D-06    CP:  1.01D+00  2.24D+00  8.45D-01  6.29D-01  1.19D+00
                    CP:  3.00D+00  3.00D+00  3.00D+00  3.00D+00  3.00D+00
                    CP:  2.69D+00  2.71D+00  2.28D+00  1.71D+00
 E= -3215.71620156621     Delta-E=       -0.000010058768 Rises=F Damp=F
 DIIS: error= 3.94D-05 at cycle  15 NSaved=  15.
 NSaved=15 IEnMin=15 EnMin= -3215.71620156621     IErMin=15 ErrMin= 3.94D-05
 ErrMax= 3.94D-05  0.00D+00 EMaxC= 1.00D-01 BMatC= 2.20D-06 BMatP= 3.49D-06
 IDIUse=1 WtCom= 1.00D+00 WtEn= 0.00D+00
 Coeff-Com:  0.324D-03-0.459D-03 0.611D-03 0.175D-02 0.317D-02 0.109D-01
 Coeff-Com:  0.277D-02-0.544D-01-0.407D-01 0.130D+00 0.122D+00-0.227D+00
 Coeff-Com: -0.445D+00 0.311D+00 0.119D+01
 Coeff:      0.324D-03-0.459D-03 0.611D-03 0.175D-02 0.317D-02 0.109D-01
 Coeff:      0.277D-02-0.544D-01-0.407D-01 0.130D+00 0.122D+00-0.227D+00
 Coeff:     -0.445D+00 0.311D+00 0.119D+01
 Gap=     0.274 Goal=   None    Shift=    0.000
 Gap=     0.126 Goal=   None    Shift=    0.000
 RMSDP=1.28D-05 MaxDP=1.25D-03 DE=-1.01D-05 OVMax= 5.15D-03

 Cycle  16  Pass 1  IDiag  1:
 RMSU=  1.56D-06    CP:  1.01D+00  2.24D+00  8.44D-01  6.28D-01  1.20D+00
                    CP:  3.00D+00  3.00D+00  3.00D+00  3.00D+00  3.00D+00
                    CP:  2.80D+00  2.98D+00  3.00D+00  3.00D+00  2.44D+00
 E= -3215.71621389955     Delta-E=       -0.000012333339 Rises=F Damp=F
 DIIS: error= 3.48D-05 at cycle  16 NSaved=  16.
 NSaved=16 IEnMin=16 EnMin= -3215.71621389955     IErMin=16 ErrMin= 3.48D-05
 ErrMax= 3.48D-05  0.00D+00 EMaxC= 1.00D-01 BMatC= 1.63D-06 BMatP= 2.20D-06
 IDIUse=1 WtCom= 1.00D+00 WtEn= 0.00D+00
 Coeff-Com:  0.529D-03-0.744D-03-0.379D-03-0.142D-02-0.571D-03 0.178D-01
 Coeff-Com:  0.519D-01-0.570D-01-0.136D+00 0.666D-01 0.292D+00-0.618D-01
 Coeff-Com: -0.702D+00-0.265D+00 0.614D+00 0.118D+01
 Coeff:      0.529D-03-0.744D-03-0.379D-03-0.142D-02-0.571D-03 0.178D-01
 Coeff:      0.519D-01-0.570D-01-0.136D+00 0.666D-01 0.292D+00-0.618D-01
 Coeff:     -0.702D+00-0.265D+00 0.614D+00 0.118D+01
 Gap=     0.274 Goal=   None    Shift=    0.000
 Gap=     0.126 Goal=   None    Shift=    0.000
 RMSDP=1.68D-05 MaxDP=1.61D-03 DE=-1.23D-05 OVMax= 6.56D-03

 Cycle  17  Pass 1  IDiag  1:
 RMSU=  1.44D-05    CP:  1.01D+00  2.24D+00  8.42D-01  6.27D-01  1.20D+00
                    CP:  3.00D+00  3.00D+00  3.00D+00  3.00D+00  3.00D+00
                    CP:  2.94D+00  3.00D+00  3.00D+00  3.00D+00  3.00D+00
                    CP:  3.00D+00
 E= -3215.71622789686     Delta-E=       -0.000013997316 Rises=F Damp=F
 DIIS: error= 2.92D-05 at cycle  17 NSaved=  17.
 NSaved=17 IEnMin=17 EnMin= -3215.71622789686     IErMin=17 ErrMin= 2.92D-05
 ErrMax= 2.92D-05  0.00D+00 EMaxC= 1.00D-01 BMatC= 1.32D-06 BMatP= 1.63D-06
 IDIUse=1 WtCom= 1.00D+00 WtEn= 0.00D+00
 Coeff-Com:  0.131D-02-0.173D-02 0.637D-03-0.755D-03-0.186D-02-0.120D-02
 Coeff-Com:  0.511D-02 0.133D-01 0.946D-02-0.656D-01-0.738D-02 0.994D-01
 Coeff-Com:  0.245D+00-0.149D+00-0.129D+01 0.744D-01 0.207D+01
 Coeff:      0.131D-02-0.173D-02 0.637D-03-0.755D-03-0.186D-02-0.120D-02
 Coeff:      0.511D-02 0.133D-01 0.946D-02-0.656D-01-0.738D-02 0.994D-01
 Coeff:      0.245D+00-0.149D+00-0.129D+01 0.744D-01 0.207D+01
 Gap=     0.275 Goal=   None    Shift=    0.000
 Gap=     0.126 Goal=   None    Shift=    0.000
 RMSDP=3.02D-05 MaxDP=2.85D-03 DE=-1.40D-05 OVMax= 1.08D-02

 Cycle  18  Pass 1  IDiag  1:
 RMSU=  9.95D-06    CP:  1.01D+00  2.24D+00  8.39D-01  6.27D-01  1.21D+00
                    CP:  3.00D+00  3.00D+00  3.00D+00  3.00D+00  3.00D+00
                    CP:  3.00D+00  3.00D+00  3.00D+00  3.00D+00  3.00D+00
                    CP:  3.00D+00  2.90D+00
 E= -3215.71624756854     Delta-E=       -0.000019671674 Rises=F Damp=F
 DIIS: error= 1.92D-05 at cycle  18 NSaved=  18.
 NSaved=18 IEnMin=18 EnMin= -3215.71624756854     IErMin=18 ErrMin= 1.92D-05
 ErrMax= 1.92D-05  0.00D+00 EMaxC= 1.00D-01 BMatC= 1.23D-06 BMatP= 1.32D-06
 IDIUse=1 WtCom= 1.00D+00 WtEn= 0.00D+00
 Coeff-Com:  0.149D-02-0.194D-02 0.203D-02 0.276D-02 0.224D-02-0.976D-02
 Coeff-Com: -0.506D-01 0.220D-01 0.134D+00-0.184D-01-0.242D+00-0.643D-01
 Coeff-Com:  0.710D+00 0.492D+00-0.110D+01-0.141D+01 0.122D+01 0.131D+01
 Coeff:      0.149D-02-0.194D-02 0.203D-02 0.276D-02 0.224D-02-0.976D-02
 Coeff:     -0.506D-01 0.220D-01 0.134D+00-0.184D-01-0.242D+00-0.643D-01
 Coeff:      0.710D+00 0.492D+00-0.110D+01-0.141D+01 0.122D+01 0.131D+01
 Gap=     0.276 Goal=   None    Shift=    0.000
 Gap=     0.126 Goal=   None    Shift=    0.000
 RMSDP=2.72D-05 MaxDP=2.48D-03 DE=-1.97D-05 OVMax= 9.30D-03

 Cycle  19  Pass 1  IDiag  1:
 RMSU=  2.32D-05    CP:  1.01D+00  2.25D+00  8.37D-01  6.26D-01  1.21D+00
                    CP:  3.00D+00  3.00D+00  3.00D+00  3.00D+00  3.00D+00
                    CP:  3.00D+00  3.00D+00  3.00D+00  3.00D+00  3.00D+00
                    CP:  3.00D+00  3.00D+00  2.08D+00
 E= -3215.71625911999     Delta-E=       -0.000011551456 Rises=F Damp=F
 DIIS: error= 1.41D-05 at cycle  19 NSaved=  19.
 NSaved=19 IEnMin=19 EnMin= -3215.71625911999     IErMin=19 ErrMin= 1.41D-05
 ErrMax= 1.41D-05  0.00D+00 EMaxC= 1.00D-01 BMatC= 7.84D-07 BMatP= 1.23D-06
 IDIUse=1 WtCom= 1.00D+00 WtEn= 0.00D+00
 Coeff-Com:  0.113D-02-0.149D-02 0.187D-02 0.327D-02 0.444D-02-0.216D-02
 Coeff-Com: -0.414D-01-0.203D-01 0.734D-01 0.695D-01-0.127D+00-0.165D+00
 Coeff-Com:  0.296D+00 0.547D+00 0.583D-01-0.112D+01-0.308D+00 0.693D+00
 Coeff-Com:  0.104D+01
 Coeff:      0.113D-02-0.149D-02 0.187D-02 0.327D-02 0.444D-02-0.216D-02
 Coeff:     -0.414D-01-0.203D-01 0.734D-01 0.695D-01-0.127D+00-0.165D+00
 Coeff:      0.296D+00 0.547D+00 0.583D-01-0.112D+01-0.308D+00 0.693D+00
 Coeff:      0.104D+01
 Gap=     0.276 Goal=   None    Shift=    0.000
 Gap=     0.126 Goal=   None    Shift=    0.000
 RMSDP=1.88D-05 MaxDP=1.62D-03 DE=-1.16D-05 OVMax= 6.48D-03

 Cycle  20  Pass 1  IDiag  1:
 RMSU=  1.56D-06    CP:  1.01D+00  2.25D+00  8.34D-01  6.26D-01  1.21D+00
                    CP:  3.00D+00  3.00D+00  3.00D+00  3.00D+00  3.00D+00
                    CP:  3.00D+00  3.00D+00  3.00D+00  3.00D+00  3.00D+00
                    CP:  3.00D+00  3.00D+00  2.87D+00  1.72D+00
 E= -3215.71626347120     Delta-E=       -0.000004351205 Rises=F Damp=F
 DIIS: error= 9.66D-06 at cycle  20 NSaved=  20.
 NSaved=20 IEnMin=20 EnMin= -3215.71626347120     IErMin=20 ErrMin= 9.66D-06
 ErrMax= 9.66D-06  0.00D+00 EMaxC= 1.00D-01 BMatC= 4.12D-07 BMatP= 7.84D-07
 IDIUse=1 WtCom= 1.00D+00 WtEn= 0.00D+00
 Coeff-Com:  0.480D-03-0.655D-03 0.476D-03 0.744D-03 0.211D-02 0.615D-02
 Coeff-Com:  0.425D-02-0.313D-01-0.195D-01 0.681D-01 0.554D-01-0.966D-01
 Coeff-Com: -0.201D+00 0.107D+00 0.449D+00 0.528D-01-0.504D+00-0.402D+00
 Coeff-Com:  0.490D+00 0.102D+01
 Coeff:      0.480D-03-0.655D-03 0.476D-03 0.744D-03 0.211D-02 0.615D-02
 Coeff:      0.425D-02-0.313D-01-0.195D-01 0.681D-01 0.554D-01-0.966D-01
 Coeff:     -0.201D+00 0.107D+00 0.449D+00 0.528D-01-0.504D+00-0.402D+00
 Coeff:      0.490D+00 0.102D+01
 Gap=     0.277 Goal=   None    Shift=    0.000
 Gap=     0.126 Goal=   None    Shift=    0.000
 RMSDP=9.57D-06 MaxDP=8.23D-04 DE=-4.35D-06 OVMax= 3.78D-03

 Cycle  21  Pass 1  IDiag  1:
 Restarting incremental Fock formation.
 E= -3215.71626464342     Delta-E=       -0.000001172228 Rises=F Damp=F
 DIIS: error= 3.40D-06 at cycle  21 NSaved=  20.
 NSaved=20 IEnMin=20 EnMin= -3215.71626464342     IErMin=20 ErrMin= 3.40D-06
 ErrMax= 3.40D-06  0.00D+00 EMaxC= 1.00D-01 BMatC= 4.70D-08 BMatP= 4.12D-07
 IDIUse=1 WtCom= 1.00D+00 WtEn= 0.00D+00
 Coeff-Com: -0.926D-05-0.192D-03-0.478D-03 0.197D-04 0.249D-02 0.122D-01
 Coeff-Com: -0.120D-01-0.274D-01 0.120D-01 0.588D-01 0.432D-02-0.168D+00
 Coeff-Com: -0.110D+00 0.144D+00 0.328D+00-0.783D-01-0.372D+00-0.104D+00
 Coeff-Com:  0.417D+00 0.894D+00
 Coeff:     -0.926D-05-0.192D-03-0.478D-03 0.197D-04 0.249D-02 0.122D-01
 Coeff:     -0.120D-01-0.274D-01 0.120D-01 0.588D-01 0.432D-02-0.168D+00
 Coeff:     -0.110D+00 0.144D+00 0.328D+00-0.783D-01-0.372D+00-0.104D+00
 Coeff:      0.417D+00 0.894D+00
 Gap=     0.277 Goal=   None    Shift=    0.000
 Gap=     0.126 Goal=   None    Shift=    0.000
 RMSDP=5.16D-06 MaxDP=4.27D-04 DE=-1.17D-06 OVMax= 1.91D-03

 Cycle  22  Pass 1  IDiag  1:
 RMSU=  5.16D-06    CP:  1.00D+00
 E= -3215.71626489360     Delta-E=       -0.000000250177 Rises=F Damp=F
 DIIS: error= 1.29D-06 at cycle  22 NSaved=  20.
 NSaved=20 IEnMin=20 EnMin= -3215.71626489360     IErMin=20 ErrMin= 1.29D-06
 ErrMax= 1.29D-06  0.00D+00 EMaxC= 1.00D-01 BMatC= 1.05D-08 BMatP= 4.70D-08
 IDIUse=1 WtCom= 1.00D+00 WtEn= 0.00D+00
 Coeff-Com: -0.137D-03-0.424D-03-0.513D-03-0.580D-04 0.524D-02 0.339D-02
 Coeff-Com: -0.901D-02-0.154D-01 0.107D-01 0.325D-01 0.315D-02-0.628D-01
 Coeff-Com: -0.969D-01 0.773D-01 0.137D+00-0.500D-01-0.155D+00-0.595D-01
 Coeff-Com:  0.428D+00 0.752D+00
 Coeff:     -0.137D-03-0.424D-03-0.513D-03-0.580D-04 0.524D-02 0.339D-02
 Coeff:     -0.901D-02-0.154D-01 0.107D-01 0.325D-01 0.315D-02-0.628D-01
 Coeff:     -0.969D-01 0.773D-01 0.137D+00-0.500D-01-0.155D+00-0.595D-01
 Coeff:      0.428D+00 0.752D+00
 Gap=     0.277 Goal=   None    Shift=    0.000
 Gap=     0.126 Goal=   None    Shift=    0.000
 RMSDP=1.57D-06 MaxDP=1.29D-04 DE=-2.50D-07 OVMax= 5.59D-04

 Cycle  23  Pass 1  IDiag  1:
 RMSU=  2.33D-07    CP:  1.00D+00  1.30D+00
 E= -3215.71626492678     Delta-E=       -0.000000033182 Rises=F Damp=F
 DIIS: error= 8.66D-07 at cycle  23 NSaved=  20.
 NSaved=20 IEnMin=20 EnMin= -3215.71626492678     IErMin=20 ErrMin= 8.66D-07
 ErrMax= 8.66D-07  0.00D+00 EMaxC= 1.00D-01 BMatC= 3.72D-09 BMatP= 1.05D-08
 IDIUse=1 WtCom= 1.00D+00 WtEn= 0.00D+00
 Coeff-Com: -0.352D-05-0.237D-03-0.636D-03-0.180D-02 0.431D-02 0.475D-02
 Coeff-Com: -0.645D-02-0.108D-01 0.465D-02 0.367D-01 0.760D-02-0.675D-01
 Coeff-Com: -0.574D-01 0.895D-01 0.737D-01-0.357D-01-0.159D+00-0.123D+00
 Coeff-Com:  0.152D+00 0.109D+01
 Coeff:     -0.352D-05-0.237D-03-0.636D-03-0.180D-02 0.431D-02 0.475D-02
 Coeff:     -0.645D-02-0.108D-01 0.465D-02 0.367D-01 0.760D-02-0.675D-01
 Coeff:     -0.574D-01 0.895D-01 0.737D-01-0.357D-01-0.159D+00-0.123D+00
 Coeff:      0.152D+00 0.109D+01
 Gap=     0.277 Goal=   None    Shift=    0.000
 Gap=     0.126 Goal=   None    Shift=    0.000
 RMSDP=9.00D-07 MaxDP=7.67D-05 DE=-3.32D-08 OVMax= 3.33D-04

 Cycle  24  Pass 1  IDiag  1:
 RMSU=  1.20D-07    CP:  1.00D+00  1.47D+00  1.59D+00
 E= -3215.71626493658     Delta-E=       -0.000000009793 Rises=F Damp=F
 DIIS: error= 3.95D-07 at cycle  24 NSaved=  20.
 NSaved=20 IEnMin=20 EnMin= -3215.71626493658     IErMin=20 ErrMin= 3.95D-07
 ErrMax= 3.95D-07  0.00D+00 EMaxC= 1.00D-01 BMatC= 4.71D-10 BMatP= 3.72D-09
 IDIUse=1 WtCom= 1.00D+00 WtEn= 0.00D+00
 Coeff-Com: -0.756D-04-0.425D-04-0.601D-03 0.101D-02 0.129D-02-0.297D-03
 Coeff-Com: -0.244D-02-0.312D-02 0.555D-02 0.667D-02 0.151D-02-0.195D-01
 Coeff-Com:  0.415D-02 0.155D-01 0.120D-01-0.266D-01-0.955D-01-0.965D-01
 Coeff-Com:  0.244D+00 0.953D+00
 Coeff:     -0.756D-04-0.425D-04-0.601D-03 0.101D-02 0.129D-02-0.297D-03
 Coeff:     -0.244D-02-0.312D-02 0.555D-02 0.667D-02 0.151D-02-0.195D-01
 Coeff:      0.415D-02 0.155D-01 0.120D-01-0.266D-01-0.955D-01-0.965D-01
 Coeff:      0.244D+00 0.953D+00
 Gap=     0.277 Goal=   None    Shift=    0.000
 Gap=     0.126 Goal=   None    Shift=    0.000
 RMSDP=3.74D-07 MaxDP=3.29D-05 DE=-9.79D-09 OVMax= 1.48D-04

 Cycle  25  Pass 1  IDiag  1:
 RMSU=  3.70D-08    CP:  1.00D+00  1.54D+00  1.79D+00  1.41D+00
 E= -3215.71626493835     Delta-E=       -0.000000001777 Rises=F Damp=F
 DIIS: error= 2.02D-07 at cycle  25 NSaved=  20.
 NSaved=20 IEnMin=20 EnMin= -3215.71626493835     IErMin=20 ErrMin= 2.02D-07
 ErrMax= 2.02D-07  0.00D+00 EMaxC= 1.00D-01 BMatC= 1.53D-10 BMatP= 4.71D-10
 IDIUse=1 WtCom= 1.00D+00 WtEn= 0.00D+00
 Coeff-Com:  0.219D-04-0.182D-03-0.146D-04 0.220D-03 0.703D-03-0.233D-03
 Coeff-Com: -0.221D-02-0.104D-02 0.282D-02 0.143D-01-0.470D-02-0.168D-01
 Coeff-Com: -0.343D-02 0.173D-01 0.166D-01-0.259D-01-0.765D-01-0.123D+00
 Coeff-Com:  0.393D+00 0.809D+00
 Coeff:      0.219D-04-0.182D-03-0.146D-04 0.220D-03 0.703D-03-0.233D-03
 Coeff:     -0.221D-02-0.104D-02 0.282D-02 0.143D-01-0.470D-02-0.168D-01
 Coeff:     -0.343D-02 0.173D-01 0.166D-01-0.259D-01-0.765D-01-0.123D+00
 Coeff:      0.393D+00 0.809D+00
 Gap=     0.277 Goal=   None    Shift=    0.000
 Gap=     0.126 Goal=   None    Shift=    0.000
 RMSDP=1.22D-07 MaxDP=1.07D-05 DE=-1.78D-09 OVMax= 5.47D-05

 Cycle  26  Pass 1  IDiag  1:
 RMSU=  2.03D-08    CP:  1.00D+00  1.56D+00  1.86D+00  1.61D+00  1.72D+00
 E= -3215.71626493863     Delta-E=       -0.000000000273 Rises=F Damp=F
 DIIS: error= 1.26D-07 at cycle  26 NSaved=  20.
 NSaved=20 IEnMin=20 EnMin= -3215.71626493863     IErMin=20 ErrMin= 1.26D-07
 ErrMax= 1.26D-07  0.00D+00 EMaxC= 1.00D-01 BMatC= 5.24D-11 BMatP= 1.53D-10
 IDIUse=1 WtCom= 1.00D+00 WtEn= 0.00D+00
 Coeff-Com:  0.580D-04-0.110D-03-0.986D-04 0.806D-04 0.894D-04 0.295D-03
 Coeff-Com: -0.543D-03-0.143D-02 0.362D-02-0.463D-04-0.316D-02-0.169D-02
 Coeff-Com:  0.355D-02 0.298D-02 0.148D-01 0.143D-01-0.566D-01-0.210D+00
 Coeff-Com:  0.111D+00 0.112D+01
 Coeff:      0.580D-04-0.110D-03-0.986D-04 0.806D-04 0.894D-04 0.295D-03
 Coeff:     -0.543D-03-0.143D-02 0.362D-02-0.463D-04-0.316D-02-0.169D-02
 Coeff:      0.355D-02 0.298D-02 0.148D-01 0.143D-01-0.566D-01-0.210D+00
 Coeff:      0.111D+00 0.112D+01
 Gap=     0.277 Goal=   None    Shift=    0.000
 Gap=     0.126 Goal=   None    Shift=    0.000
 RMSDP=3.82D-08 MaxDP=4.96D-06 DE=-2.73D-10 OVMax= 1.42D-05

 Cycle  27  Pass 1  IDiag  1:
 RMSU=  1.18D-08    CP:  1.00D+00  1.57D+00  1.86D+00  1.75D+00  2.45D+00
                    CP:  1.71D+00
 E= -3215.71626493875     Delta-E=       -0.000000000126 Rises=F Damp=F
 DIIS: error= 9.93D-08 at cycle  27 NSaved=  20.
 NSaved=20 IEnMin=20 EnMin= -3215.71626493875     IErMin=20 ErrMin= 9.93D-08
 ErrMax= 9.93D-08  0.00D+00 EMaxC= 1.00D-01 BMatC= 3.11D-11 BMatP= 5.24D-11
 IDIUse=1 WtCom= 1.00D+00 WtEn= 0.00D+00
 Coeff-Com: -0.808D-04-0.850D-04-0.157D-03 0.250D-04 0.659D-03 0.192D-03
 Coeff-Com: -0.193D-02-0.363D-03 0.154D-02 0.222D-02-0.308D-02-0.228D-02
 Coeff-Com: -0.799D-03 0.184D-01 0.266D-01-0.693D-02-0.219D+00-0.209D+00
 Coeff-Com:  0.442D+00 0.952D+00
 Coeff:     -0.808D-04-0.850D-04-0.157D-03 0.250D-04 0.659D-03 0.192D-03
 Coeff:     -0.193D-02-0.363D-03 0.154D-02 0.222D-02-0.308D-02-0.228D-02
 Coeff:     -0.799D-03 0.184D-01 0.266D-01-0.693D-02-0.219D+00-0.209D+00
 Coeff:      0.442D+00 0.952D+00
 Gap=     0.277 Goal=   None    Shift=    0.000
 Gap=     0.126 Goal=   None    Shift=    0.000
 RMSDP=6.56D-08 MaxDP=5.34D-06 DE=-1.26D-10 OVMax= 3.17D-05

 Cycle  28  Pass 1  IDiag  1:
 RMSU=  1.29D-08    CP:  1.00D+00  1.58D+00  1.81D+00  1.83D+00  3.00D+00
                    CP:  2.50D+00  1.57D+00
 E= -3215.71626493875     Delta-E=        0.000000000002 Rises=F Damp=F
 DIIS: error= 6.97D-08 at cycle  28 NSaved=  20.
 NSaved=20 IEnMin=19 EnMin= -3215.71626493875     IErMin=20 ErrMin= 6.97D-08
 ErrMax= 6.97D-08  0.00D+00 EMaxC= 1.00D-01 BMatC= 1.42D-11 BMatP= 3.11D-11
 IDIUse=1 WtCom= 1.00D+00 WtEn= 0.00D+00
 Coeff-Com:  0.285D-04-0.118D-04 0.846D-04 0.203D-03 0.558D-04-0.131D-02
 Coeff-Com: -0.219D-02 0.431D-03 0.581D-02-0.734D-03-0.310D-02-0.600D-02
 Coeff-Com:  0.567D-02 0.113D-01 0.300D-01-0.445D-01-0.123D+00-0.143D+00
 Coeff-Com:  0.193D+00 0.108D+01
 Coeff:      0.285D-04-0.118D-04 0.846D-04 0.203D-03 0.558D-04-0.131D-02
 Coeff:     -0.219D-02 0.431D-03 0.581D-02-0.734D-03-0.310D-02-0.600D-02
 Coeff:      0.567D-02 0.113D-01 0.300D-01-0.445D-01-0.123D+00-0.143D+00
 Coeff:      0.193D+00 0.108D+01
 Gap=     0.277 Goal=   None    Shift=    0.000
 Gap=     0.126 Goal=   None    Shift=    0.000
 RMSDP=3.64D-08 MaxDP=3.43D-06 DE= 1.82D-12 OVMax= 1.39D-05

 Cycle  29  Pass 1  IDiag  1:
 RMSU=  1.29D-08    CP:  1.00D+00  1.57D+00  1.83D+00  1.90D+00  3.00D+00
                    CP:  2.74D+00  2.40D+00  1.38D+00
 E= -3215.71626493878     Delta-E=       -0.000000000035 Rises=F Damp=F
 DIIS: error= 4.60D-08 at cycle  29 NSaved=  20.
 NSaved=20 IEnMin=20 EnMin= -3215.71626493878     IErMin=20 ErrMin= 4.60D-08
 ErrMax= 4.60D-08  0.00D+00 EMaxC= 1.00D-01 BMatC= 6.37D-12 BMatP= 1.42D-11
 IDIUse=1 WtCom= 1.00D+00 WtEn= 0.00D+00
 Coeff-Com:  0.204D-03 0.380D-04-0.465D-03 0.179D-03 0.433D-03 0.132D-02
 Coeff-Com: -0.218D-02-0.107D-03 0.117D-02 0.168D-02-0.144D-02-0.840D-02
 Coeff-Com: -0.122D-01 0.102D-01 0.112D+00 0.682D-01-0.315D+00-0.350D+00
 Coeff-Com:  0.386D+00 0.111D+01
 Coeff:      0.204D-03 0.380D-04-0.465D-03 0.179D-03 0.433D-03 0.132D-02
 Coeff:     -0.218D-02-0.107D-03 0.117D-02 0.168D-02-0.144D-02-0.840D-02
 Coeff:     -0.122D-01 0.102D-01 0.112D+00 0.682D-01-0.315D+00-0.350D+00
 Coeff:      0.386D+00 0.111D+01
 Gap=     0.277 Goal=   None    Shift=    0.000
 Gap=     0.126 Goal=   None    Shift=    0.000
 RMSDP=3.16D-08 MaxDP=3.09D-06 DE=-3.46D-11 OVMax= 1.14D-05

 Cycle  30  Pass 1  IDiag  1:
 RMSU=  4.16D-09    CP:  1.00D+00  1.57D+00  1.85D+00  1.94D+00  3.00D+00
                    CP:  3.00D+00  3.00D+00  1.84D+00  1.78D+00
 E= -3215.71626493887     Delta-E=       -0.000000000084 Rises=F Damp=F
 DIIS: error= 3.18D-08 at cycle  30 NSaved=  20.
 NSaved=20 IEnMin=20 EnMin= -3215.71626493887     IErMin=20 ErrMin= 3.18D-08
 ErrMax= 3.18D-08  0.00D+00 EMaxC= 1.00D-01 BMatC= 3.66D-12 BMatP= 6.37D-12
 IDIUse=1 WtCom= 1.00D+00 WtEn= 0.00D+00
 Coeff-Com: -0.121D-03-0.149D-03 0.445D-03 0.351D-03 0.142D-02-0.175D-02
 Coeff-Com: -0.216D-02 0.563D-03 0.258D-02 0.297D-02-0.317D-02-0.593D-02
 Coeff-Com: -0.961D-02 0.347D-01 0.352D-01-0.383D-01-0.557D-01-0.354D+00
 Coeff-Com:  0.180D+00 0.121D+01
 Coeff:     -0.121D-03-0.149D-03 0.445D-03 0.351D-03 0.142D-02-0.175D-02
 Coeff:     -0.216D-02 0.563D-03 0.258D-02 0.297D-02-0.317D-02-0.593D-02
 Coeff:     -0.961D-02 0.347D-01 0.352D-01-0.383D-01-0.557D-01-0.354D+00
 Coeff:      0.180D+00 0.121D+01
 Gap=     0.277 Goal=   None    Shift=    0.000
 Gap=     0.126 Goal=   None    Shift=    0.000
 RMSDP=1.43D-08 MaxDP=2.56D-06 DE=-8.37D-11 OVMax= 6.37D-06

 Cycle  31  Pass 1  IDiag  1:
 RMSU=  9.85D-09    CP:  1.00D+00  1.56D+00  1.83D+00  1.94D+00  3.00D+00
                    CP:  3.00D+00  3.00D+00  2.40D+00  2.16D+00  1.58D+00
 E= -3215.71626493895     Delta-E=       -0.000000000080 Rises=F Damp=F
 DIIS: error= 2.01D-08 at cycle  31 NSaved=  20.
 NSaved=20 IEnMin=20 EnMin= -3215.71626493895     IErMin=20 ErrMin= 2.01D-08
 ErrMax= 2.01D-08  0.00D+00 EMaxC= 1.00D-01 BMatC= 1.66D-12 BMatP= 3.66D-12
 IDIUse=1 WtCom= 1.00D+00 WtEn= 0.00D+00
 Coeff-Com: -0.392D-04-0.661D-04-0.138D-03 0.504D-03 0.113D-03-0.267D-03
 Coeff-Com: -0.808D-03 0.425D-04 0.132D-02 0.135D-02-0.861D-03-0.764D-02
 Coeff-Com: -0.142D-01 0.186D-01 0.905D-01-0.355D-01-0.195D+00-0.164D+00
 Coeff-Com:  0.264D+00 0.104D+01
 Coeff:     -0.392D-04-0.661D-04-0.138D-03 0.504D-03 0.113D-03-0.267D-03
 Coeff:     -0.808D-03 0.425D-04 0.132D-02 0.135D-02-0.861D-03-0.764D-02
 Coeff:     -0.142D-01 0.186D-01 0.905D-01-0.355D-01-0.195D+00-0.164D+00
 Coeff:      0.264D+00 0.104D+01
 Gap=     0.277 Goal=   None    Shift=    0.000
 Gap=     0.126 Goal=   None    Shift=    0.000
 RMSDP=7.96D-09 MaxDP=9.35D-07 DE=-8.00D-11 OVMax= 2.62D-06

 Error on total polarization charges =  0.00195
 SCF Done:  E(UCAM-B3LYP) =  -3215.71626494     A.U. after   31 cycles
            NFock= 31  Conv=0.80D-08     -V/T= 2.0068
 <Sx>= 0.0000 <Sy>= 0.0000 <Sz>= 0.5000 <S**2>= 0.7815 S= 0.5156
 <L.S>= 0.000000000000E+00
 KE= 3.194072895482D+03 PE=-1.934605506755D+04 EE= 7.047912501159D+03
 Annihilation of the first spin contaminant:
 S**2 before annihilation     0.7815,   after     0.7506
 Leave Link  502 at Sun Mar  3 18:28:15 2024, MaxMem=  5368709120 cpu:      3062.7
 (Enter /home/k0335/k033513/app/g09/l601.exe)
 Copying SCF densities to generalized density rwf, IOpCl= 1 IROHF=0.

 **********************************************************************

            Population analysis using the SCF density.

 **********************************************************************

 Alpha  occ. eigenvalues -- -101.83380 -24.87900 -24.87744 -24.87207 -24.87083
 Alpha  occ. eigenvalues --  -24.86690 -24.86226 -24.86034 -24.85958 -24.85819
 Alpha  occ. eigenvalues --  -24.85748 -24.85731 -24.85718 -24.85593 -24.85522
 Alpha  occ. eigenvalues --  -24.85503 -24.85387 -24.85086 -24.84890 -19.37482
 Alpha  occ. eigenvalues --  -19.37384 -19.36423 -19.36117 -19.31046 -14.72354
 Alpha  occ. eigenvalues --  -14.60840 -14.60769 -10.62243 -10.61832 -10.58453
 Alpha  occ. eigenvalues --  -10.58208 -10.58113 -10.58007 -10.57018 -10.56968
 Alpha  occ. eigenvalues --  -10.53552 -10.52711 -10.52649  -9.74287  -7.51215
 Alpha  occ. eigenvalues --   -7.50041  -7.49380  -1.45767  -1.45592  -1.44550
 Alpha  occ. eigenvalues --   -1.44334  -1.43451  -1.43354  -1.39026  -1.38940
 Alpha  occ. eigenvalues --   -1.36660  -1.36559  -1.35972  -1.35703  -1.35670
 Alpha  occ. eigenvalues --   -1.35339  -1.34882  -1.34866  -1.34539  -1.34445
 Alpha  occ. eigenvalues --   -1.34311  -1.29285  -1.26672  -1.23904  -1.23396
 Alpha  occ. eigenvalues --   -1.22848  -1.17541  -1.16571  -1.06471  -0.97620
 Alpha  occ. eigenvalues --   -0.96994  -0.93647  -0.91412  -0.87249  -0.85959
 Alpha  occ. eigenvalues --   -0.85106  -0.84873  -0.83512  -0.80532  -0.79159
 Alpha  occ. eigenvalues --   -0.77308  -0.76512  -0.75925  -0.75295  -0.74755
 Alpha  occ. eigenvalues --   -0.73696  -0.73463  -0.73311  -0.72552  -0.72158
 Alpha  occ. eigenvalues --   -0.71750  -0.71413  -0.71063  -0.70673  -0.70034
 Alpha  occ. eigenvalues --   -0.69951  -0.69636  -0.69392  -0.68527  -0.67427
 Alpha  occ. eigenvalues --   -0.66511  -0.64985  -0.63809  -0.63439  -0.62932
 Alpha  occ. eigenvalues --   -0.62319  -0.61467  -0.60343  -0.60108  -0.59921
 Alpha  occ. eigenvalues --   -0.59749  -0.59568  -0.59418  -0.59140  -0.59045
 Alpha  occ. eigenvalues --   -0.58446  -0.58127  -0.58021  -0.57930  -0.57398
 Alpha  occ. eigenvalues --   -0.57007  -0.56928  -0.56578  -0.56320  -0.55993
 Alpha  occ. eigenvalues --   -0.55462  -0.55315  -0.55068  -0.54558  -0.54466
 Alpha  occ. eigenvalues --   -0.54305  -0.54041  -0.53732  -0.53417  -0.53204
 Alpha  occ. eigenvalues --   -0.53052  -0.52658  -0.52465  -0.52129  -0.52067
 Alpha  occ. eigenvalues --   -0.51886  -0.51487  -0.51386  -0.51234  -0.51059
 Alpha  occ. eigenvalues --   -0.50726  -0.49745  -0.49453  -0.48310  -0.47958
 Alpha  occ. eigenvalues --   -0.46643  -0.44778  -0.43969
 Alpha virt. eigenvalues --   -0.16265  -0.09827  -0.07760  -0.00003   0.01033
 Alpha virt. eigenvalues --    0.01964   0.05215   0.06038   0.08391   0.10186
 Alpha virt. eigenvalues --    0.10988   0.13222   0.13832   0.14553   0.15160
 Alpha virt. eigenvalues --    0.15969   0.16523   0.17314   0.17708   0.19179
 Alpha virt. eigenvalues --    0.19937   0.20247   0.20766   0.21056   0.21726
 Alpha virt. eigenvalues --    0.22356   0.22491   0.23117   0.24078   0.24388
 Alpha virt. eigenvalues --    0.25471   0.25780   0.26627   0.26711   0.28072
 Alpha virt. eigenvalues --    0.28993   0.29731   0.30160   0.30755   0.31509
 Alpha virt. eigenvalues --    0.33519   0.36096   0.36628   0.40422   0.41739
 Alpha virt. eigenvalues --    0.42313   0.42918   0.45338   0.45583   0.45983
 Alpha virt. eigenvalues --    0.46822   0.48276   0.48497   0.49214   0.49873
 Alpha virt. eigenvalues --    0.50200   0.50818   0.51580   0.52064   0.52810
 Alpha virt. eigenvalues --    0.53206   0.53509   0.54039   0.54624   0.55741
 Alpha virt. eigenvalues --    0.56231   0.56831   0.57798   0.58337   0.59113
 Alpha virt. eigenvalues --    0.59962   0.61804   0.62661   0.63797   0.65061
 Alpha virt. eigenvalues --    0.67338   0.69977   0.70207   0.71267   0.72920
 Alpha virt. eigenvalues --    0.73139   0.75175   0.76376   0.76988   0.77248
 Alpha virt. eigenvalues --    0.78193   0.79662   0.81715   0.83644   0.84548
 Alpha virt. eigenvalues --    0.85488   0.86637   0.86936   0.88575   0.89055
 Alpha virt. eigenvalues --    0.91311   0.91767   0.92741   0.93174   0.94824
 Alpha virt. eigenvalues --    0.95209   0.95702   0.97433   0.98448   0.99106
 Alpha virt. eigenvalues --    1.01104   1.02253   1.02659   1.02780   1.03240
 Alpha virt. eigenvalues --    1.04211   1.05085   1.06036   1.06235   1.07036
 Alpha virt. eigenvalues --    1.08019   1.09531   1.10400   1.10989   1.11795
 Alpha virt. eigenvalues --    1.12678   1.12941   1.13759   1.14124   1.14874
 Alpha virt. eigenvalues --    1.15706   1.16141   1.17032   1.18403   1.18588
 Alpha virt. eigenvalues --    1.19732   1.20844   1.21117   1.22397   1.23454
 Alpha virt. eigenvalues --    1.23986   1.24596   1.25390   1.25762   1.26438
 Alpha virt. eigenvalues --    1.26588   1.27626   1.28442   1.29432   1.29736
 Alpha virt. eigenvalues --    1.30388   1.30635   1.31607   1.31947   1.32173
 Alpha virt. eigenvalues --    1.32218   1.33274   1.34128   1.34846   1.35329
 Alpha virt. eigenvalues --    1.35719   1.36204   1.36798   1.37107   1.37595
 Alpha virt. eigenvalues --    1.37824   1.38170   1.38604   1.39310   1.40152
 Alpha virt. eigenvalues --    1.40861   1.41093   1.41831   1.42477   1.43182
 Alpha virt. eigenvalues --    1.44415   1.44708   1.44806   1.45077   1.46535
 Alpha virt. eigenvalues --    1.47869   1.48168   1.48595   1.49132   1.50575
 Alpha virt. eigenvalues --    1.50741   1.51358   1.51892   1.52838   1.54225
 Alpha virt. eigenvalues --    1.55264   1.55663   1.56128   1.56991   1.57631
 Alpha virt. eigenvalues --    1.58420   1.59263   1.60883   1.61794   1.63266
 Alpha virt. eigenvalues --    1.63387   1.64828   1.65842   1.67113   1.68196
 Alpha virt. eigenvalues --    1.68608   1.69376   1.69726   1.70348   1.70911
 Alpha virt. eigenvalues --    1.71234   1.71581   1.72500   1.73810   1.73939
 Alpha virt. eigenvalues --    1.74832   1.75515   1.76060   1.76496   1.77986
 Alpha virt. eigenvalues --    1.78307   1.79348   1.79510   1.80110   1.81001
 Alpha virt. eigenvalues --    1.81174   1.81962   1.82317   1.82675   1.83037
 Alpha virt. eigenvalues --    1.83542   1.84410   1.84771   1.85249   1.85463
 Alpha virt. eigenvalues --    1.85912   1.86131   1.86827   1.87273   1.87899
 Alpha virt. eigenvalues --    1.88130   1.88507   1.89176   1.89235   1.90342
 Alpha virt. eigenvalues --    1.90557   1.90750   1.91096   1.91783   1.92042
 Alpha virt. eigenvalues --    1.92593   1.92760   1.93822   1.94158   1.94465
 Alpha virt. eigenvalues --    1.95722   1.96291   1.96836   1.97687   1.98378
 Alpha virt. eigenvalues --    1.98692   1.98776   1.99381   1.99690   2.00342
 Alpha virt. eigenvalues --    2.00594   2.01056   2.01242   2.01750   2.02053
 Alpha virt. eigenvalues --    2.02325   2.02763   2.03550   2.04115   2.04955
 Alpha virt. eigenvalues --    2.05545   2.06282   2.06702   2.07097   2.07532
 Alpha virt. eigenvalues --    2.08063   2.08705   2.09395   2.09725   2.10108
 Alpha virt. eigenvalues --    2.10936   2.11707   2.11925   2.12476   2.13505
 Alpha virt. eigenvalues --    2.14585   2.15847   2.16299   2.17586   2.19152
 Alpha virt. eigenvalues --    2.20176   2.20941   2.22515   2.23788   2.24090
 Alpha virt. eigenvalues --    2.24749   2.25915   2.26053   2.27645   2.28635
 Alpha virt. eigenvalues --    2.31206   2.32065   2.32938   2.34599   2.35255
 Alpha virt. eigenvalues --    2.35770   2.37247   2.38184   2.39218   2.39453
 Alpha virt. eigenvalues --    2.40995   2.41885   2.42051   2.43316   2.45786
 Alpha virt. eigenvalues --    2.46288   2.47077   2.49336   2.51497   2.52960
 Alpha virt. eigenvalues --    2.53205   2.53679   2.54347   2.55950   2.56900
 Alpha virt. eigenvalues --    2.58789   2.59205   2.60225   2.63519   2.64108
 Alpha virt. eigenvalues --    2.65338   2.66063   2.68226   2.69769   2.70895
 Alpha virt. eigenvalues --    2.72557   2.73501   2.75604   2.76854   2.78182
 Alpha virt. eigenvalues --    2.80144   2.82133   2.82372   2.82963   2.84441
 Alpha virt. eigenvalues --    2.85541   2.86100   2.86180   2.88180   2.89090
 Alpha virt. eigenvalues --    2.89396   2.90266   2.91298   2.93200   2.93950
 Alpha virt. eigenvalues --    2.94498   2.95623   2.96604   3.00111   3.02389
 Alpha virt. eigenvalues --    3.03110   3.04105   3.04525   3.04683   3.05391
 Alpha virt. eigenvalues --    3.05928   3.06936   3.09430   3.11514   3.13185
 Alpha virt. eigenvalues --    3.14436   3.15137   3.16453   3.18172   3.19387
 Alpha virt. eigenvalues --    3.24426   3.26097   3.28121   3.29076   3.30427
 Alpha virt. eigenvalues --    3.32337   3.34889   3.38232   3.91152   3.99897
 Alpha virt. eigenvalues --    4.06150   4.11852   4.15231   4.19519   4.21286
 Alpha virt. eigenvalues --    4.25350   4.26034   4.31689   4.35024   4.39008
 Alpha virt. eigenvalues --    4.42030   4.44421   4.44902   4.50025   4.56781
 Alpha virt. eigenvalues --    4.58642   4.65179   4.67463   4.72437   4.77640
 Alpha virt. eigenvalues --    4.82619   4.99546   5.01047   5.03611   5.17722
 Alpha virt. eigenvalues --    5.22048   5.28315   5.36876   5.41202   5.53388
 Alpha virt. eigenvalues --    5.65167   5.73612   6.18764   6.30646   6.59986
 Alpha virt. eigenvalues --    6.61233
  Beta  occ. eigenvalues -- -101.83190 -24.87882 -24.87726 -24.87205 -24.87080
  Beta  occ. eigenvalues --  -24.86690 -24.86225 -24.86034 -24.85958 -24.85819
  Beta  occ. eigenvalues --  -24.85748 -24.85731 -24.85718 -24.85592 -24.85522
  Beta  occ. eigenvalues --  -24.85503 -24.85386 -24.85086 -24.84890 -19.36815
  Beta  occ. eigenvalues --  -19.36727 -19.36422 -19.36116 -19.31013 -14.71249
  Beta  occ. eigenvalues --  -14.60860 -14.60788 -10.62243 -10.61832 -10.58453
  Beta  occ. eigenvalues --  -10.58208 -10.58113 -10.58007 -10.57224 -10.57173
  Beta  occ. eigenvalues --  -10.53569 -10.52712 -10.52650  -9.74106  -7.51150
  Beta  occ. eigenvalues --   -7.49401  -7.49269  -1.45766  -1.45591  -1.44542
  Beta  occ. eigenvalues --   -1.44327  -1.43440  -1.43342  -1.39024  -1.38938
  Beta  occ. eigenvalues --   -1.36639  -1.36536  -1.35971  -1.35703  -1.35666
  Beta  occ. eigenvalues --   -1.35336  -1.34878  -1.34863  -1.34524  -1.34326
  Beta  occ. eigenvalues --   -1.33466  -1.28288  -1.26370  -1.23886  -1.23392
  Beta  occ. eigenvalues --   -1.20949  -1.17299  -1.16366  -1.05284  -0.97560
  Beta  occ. eigenvalues --   -0.96939  -0.93294  -0.91378  -0.86943  -0.85804
  Beta  occ. eigenvalues --   -0.85086  -0.84803  -0.83440  -0.80444  -0.79150
  Beta  occ. eigenvalues --   -0.77239  -0.76455  -0.75783  -0.75173  -0.74666
  Beta  occ. eigenvalues --   -0.73666  -0.73261  -0.72547  -0.72033  -0.71816
  Beta  occ. eigenvalues --   -0.71590  -0.70948  -0.70910  -0.70648  -0.69992
  Beta  occ. eigenvalues --   -0.69886  -0.69457  -0.69009  -0.68494  -0.67365
  Beta  occ. eigenvalues --   -0.65782  -0.64151  -0.63050  -0.62836  -0.62433
  Beta  occ. eigenvalues --   -0.61882  -0.61343  -0.60303  -0.60076  -0.59807
  Beta  occ. eigenvalues --   -0.59629  -0.59479  -0.59393  -0.59079  -0.58965
  Beta  occ. eigenvalues --   -0.58417  -0.57993  -0.57935  -0.57908  -0.57218
  Beta  occ. eigenvalues --   -0.56933  -0.56575  -0.56443  -0.55928  -0.55638
  Beta  occ. eigenvalues --   -0.55333  -0.55141  -0.54772  -0.54468  -0.54240
  Beta  occ. eigenvalues --   -0.53796  -0.53719  -0.53436  -0.53242  -0.53140
  Beta  occ. eigenvalues --   -0.52867  -0.52492  -0.52412  -0.52102  -0.51966
  Beta  occ. eigenvalues --   -0.51684  -0.51370  -0.51193  -0.50714  -0.49667
  Beta  occ. eigenvalues --   -0.48915  -0.48184  -0.47886  -0.47835  -0.46179
  Beta  occ. eigenvalues --   -0.44501  -0.43591
  Beta virt. eigenvalues --   -0.30955  -0.15200  -0.08829  -0.06662   0.00566
  Beta virt. eigenvalues --    0.01090   0.02034   0.05245   0.06087   0.08448
  Beta virt. eigenvalues --    0.10174   0.11210   0.13483   0.13843   0.14563
  Beta virt. eigenvalues --    0.15153   0.16022   0.16607   0.17312   0.17735
  Beta virt. eigenvalues --    0.19188   0.19936   0.20247   0.20765   0.21054
  Beta virt. eigenvalues --    0.21730   0.22358   0.22495   0.23154   0.24082
  Beta virt. eigenvalues --    0.24398   0.25485   0.25827   0.26646   0.26888
  Beta virt. eigenvalues --    0.28100   0.29095   0.29769   0.30181   0.30774
  Beta virt. eigenvalues --    0.31548   0.33765   0.36574   0.36833   0.40627
  Beta virt. eigenvalues --    0.41897   0.42433   0.43039   0.45518   0.45615
  Beta virt. eigenvalues --    0.45956   0.46797   0.48313   0.48570   0.49279
  Beta virt. eigenvalues --    0.49893   0.50232   0.50839   0.51636   0.52329
  Beta virt. eigenvalues --    0.52900   0.53241   0.53540   0.54042   0.54642
  Beta virt. eigenvalues --    0.55825   0.56380   0.56988   0.58124   0.58335
  Beta virt. eigenvalues --    0.59230   0.61160   0.62283   0.62949   0.64048
  Beta virt. eigenvalues --    0.65248   0.67514   0.70089   0.70376   0.71449
  Beta virt. eigenvalues --    0.73073   0.73551   0.75329   0.76737   0.77545
  Beta virt. eigenvalues --    0.78128   0.78674   0.80102   0.82066   0.83718
  Beta virt. eigenvalues --    0.84969   0.85961   0.86790   0.87209   0.88869
  Beta virt. eigenvalues --    0.89453   0.91616   0.91967   0.92904   0.93435
  Beta virt. eigenvalues --    0.95129   0.95272   0.95916   0.97678   0.98561
  Beta virt. eigenvalues --    0.99413   1.01252   1.02496   1.02835   1.02950
  Beta virt. eigenvalues --    1.03749   1.04324   1.05180   1.06155   1.06364
  Beta virt. eigenvalues --    1.07106   1.08162   1.09582   1.10593   1.11070
  Beta virt. eigenvalues --    1.11869   1.12737   1.13084   1.13808   1.14188
  Beta virt. eigenvalues --    1.14896   1.15758   1.16195   1.17210   1.18441
  Beta virt. eigenvalues --    1.18603   1.19768   1.20881   1.21232   1.22465
  Beta virt. eigenvalues --    1.23664   1.24116   1.24642   1.25455   1.25799
  Beta virt. eigenvalues --    1.26485   1.26631   1.27873   1.28488   1.29556
  Beta virt. eigenvalues --    1.29799   1.30409   1.30683   1.31636   1.31969
  Beta virt. eigenvalues --    1.32182   1.32267   1.33549   1.34149   1.34883
  Beta virt. eigenvalues --    1.35401   1.35952   1.36398   1.36854   1.37155
  Beta virt. eigenvalues --    1.37655   1.37870   1.38207   1.38633   1.39366
  Beta virt. eigenvalues --    1.40223   1.41106   1.41472   1.41903   1.42706
  Beta virt. eigenvalues --    1.43209   1.44530   1.44813   1.44950   1.45214
  Beta virt. eigenvalues --    1.46560   1.47932   1.48216   1.48710   1.49288
  Beta virt. eigenvalues --    1.50623   1.50859   1.51446   1.51929   1.52855
  Beta virt. eigenvalues --    1.54251   1.55288   1.55683   1.56147   1.57097
  Beta virt. eigenvalues --    1.57727   1.58473   1.59311   1.60989   1.61890
  Beta virt. eigenvalues --    1.63348   1.63428   1.64901   1.65931   1.67467
  Beta virt. eigenvalues --    1.68268   1.68722   1.69475   1.69750   1.70467
  Beta virt. eigenvalues --    1.70994   1.71347   1.71671   1.72632   1.73916
  Beta virt. eigenvalues --    1.73981   1.74936   1.75981   1.76445   1.76775
  Beta virt. eigenvalues --    1.78337   1.78721   1.79547   1.79632   1.80318
  Beta virt. eigenvalues --    1.81085   1.81378   1.82158   1.82443   1.82723
  Beta virt. eigenvalues --    1.83174   1.83619   1.84565   1.84837   1.85459
  Beta virt. eigenvalues --    1.85748   1.86105   1.86276   1.87085   1.87460
  Beta virt. eigenvalues --    1.88033   1.88254   1.88638   1.89368   1.89665
  Beta virt. eigenvalues --    1.90484   1.90604   1.90882   1.91367   1.91919
  Beta virt. eigenvalues --    1.92177   1.92831   1.93289   1.93839   1.94326
  Beta virt. eigenvalues --    1.94613   1.95838   1.96342   1.96889   1.97698
  Beta virt. eigenvalues --    1.98387   1.98713   1.98813   1.99400   1.99703
  Beta virt. eigenvalues --    2.00367   2.00597   2.01067   2.01269   2.01784
  Beta virt. eigenvalues --    2.02065   2.02348   2.02769   2.03556   2.04180
[...]
     3  N(14)              0.07977      25.77524       9.19725       8.59770
     4  Cl(35)             0.02877      12.61561       4.50156       4.20811
     5  C(13)             -0.02603     -29.26229     -10.44151      -9.76085
     6  O(17)              0.02685     -16.27532      -5.80744      -5.42886
     7  N(14)             -0.00787      -2.54180      -0.90698      -0.84785
     8  C(13)             -0.00036      -0.40650      -0.14505      -0.13559
     9  F(19)              0.00333      14.03094       5.00659       4.68022
    10  F(19)             -0.00018      -0.76500      -0.27297      -0.25518
    11  C(13)             -0.00053      -0.59919      -0.21381      -0.19987
    12  F(19)              0.00000       0.01147       0.00409       0.00383
    13  O(17)              0.00047      -0.28205      -0.10064      -0.09408
    14  C(13)             -0.00002      -0.02687      -0.00959      -0.00896
    15  F(19)              0.00000      -0.01332      -0.00475      -0.00444
    16  F(19)              0.00001       0.02709       0.00967       0.00904
    17  F(19)             -0.00001      -0.04690      -0.01674      -0.01564
    18  C(13)             -0.00005      -0.05227      -0.01865      -0.01744
    19  F(19)              0.00001       0.02179       0.00778       0.00727
    20  F(19)             -0.00001      -0.03864      -0.01379      -0.01289
    21  F(19)             -0.00003      -0.10979      -0.03918      -0.03662
    22  C(13)             -0.00424      -4.76294      -1.69954      -1.58875
    23  O(17)              0.00121      -0.73575      -0.26253      -0.24542
    24  N(14)             -0.00791      -2.55444      -0.91149      -0.85207
    25  C(13)             -0.00034      -0.38533      -0.13750      -0.12853
    26  F(19)             -0.00016      -0.68141      -0.24314      -0.22729
    27  F(19)              0.00327      13.77732       4.91609       4.59562
    28  C(13)             -0.00048      -0.53721      -0.19169      -0.17919
    29  F(19)              0.00014       0.57492       0.20514       0.19177
    30  O(17)              0.00001      -0.00752      -0.00268      -0.00251
    31  C(13)             -0.00001      -0.01113      -0.00397      -0.00371
    32  F(19)              0.00000      -0.01956      -0.00698      -0.00652
    33  F(19)             -0.00003      -0.12025      -0.04291      -0.04011
    34  F(19)              0.00000      -0.01215      -0.00434      -0.00405
    35  C(13)              0.00000       0.00249       0.00089       0.00083
    36  F(19)              0.00000       0.01028       0.00367       0.00343
    37  F(19)              0.00000      -0.01333      -0.00476      -0.00445
    38  F(19)             -0.00002      -0.08251      -0.02944      -0.02752
 --------------------------------------------------------
       Center         ----  Spin Dipole Couplings  ----
                      3XX-RR        3YY-RR        3ZZ-RR
 --------------------------------------------------------
     1   Atom       -0.481662     -0.501992      0.983654
     2   Atom        0.072689      0.038720     -0.111409
     3   Atom       -0.189033     -0.561060      0.750093
     4   Atom       -0.590943     -0.971310      1.562253
     5   Atom        0.076991      0.049214     -0.126205
     6   Atom       -0.482421     -0.221165      0.703585
     7   Atom        0.015633      0.018286     -0.033919
     8   Atom       -0.001864      0.004234     -0.002370
     9   Atom       -0.019264      0.031017     -0.011753
    10   Atom        0.004610     -0.001814     -0.002795
    11   Atom       -0.000807      0.002069     -0.001263
    12   Atom        0.000092      0.000773     -0.000866
    13   Atom       -0.001091      0.002117     -0.001025
    14   Atom       -0.000004      0.000162     -0.000158
    15   Atom        0.000199     -0.000429      0.000230
    16   Atom        0.000474      0.000018     -0.000492
    17   Atom       -0.000230      0.000234     -0.000005
    18   Atom       -0.000382      0.001112     -0.000729
    19   Atom       -0.000088      0.000669     -0.000580
    20   Atom       -0.000377      0.000885     -0.000508
    21   Atom       -0.000145      0.000626     -0.000482
    22   Atom       -0.004941      0.009775     -0.004834
    23   Atom       -0.064378     -0.021729      0.086107
    24   Atom        0.004450      0.009627     -0.014077
    25   Atom       -0.001053      0.002492     -0.001439
    26   Atom       -0.001935      0.006456     -0.004520
    27   Atom       -0.008378     -0.002077      0.010455
    28   Atom        0.000493      0.001021     -0.001515
    29   Atom        0.002369      0.000082     -0.002451
    30   Atom        0.001036      0.000353     -0.001388
    31   Atom        0.000024      0.000514     -0.000538
    32   Atom       -0.000096      0.000522     -0.000427
    33   Atom       -0.000128      0.000490     -0.000362
    34   Atom        0.000130      0.000221     -0.000351
    35   Atom        0.000642      0.000018     -0.000661
    36   Atom        0.000959     -0.000673     -0.000286
    37   Atom        0.000167      0.000122     -0.000289
    38   Atom        0.000831     -0.000279     -0.000551
 --------------------------------------------------------
                        XY            XZ            YZ
 --------------------------------------------------------
     1   Atom       -0.013216     -0.081940     -0.045114
     2   Atom       -0.020649     -0.051450     -0.038104
     3   Atom        0.065965      0.726685      0.111306
     4   Atom        0.062016      0.782098      0.371489
     5   Atom       -0.013791     -0.043575     -0.009696
     6   Atom        0.028137      0.049365      0.605116
     7   Atom        0.011444     -0.006491      0.016633
     8   Atom        0.000471     -0.000353      0.000042
     9   Atom       -0.005654     -0.000826      0.020539
    10   Atom        0.006388     -0.002796     -0.002579
    11   Atom       -0.000774      0.000055     -0.000773
    12   Atom       -0.000621      0.000364     -0.001025
    13   Atom       -0.002675      0.001156     -0.002383
    14   Atom       -0.001023      0.000776     -0.000894
    15   Atom       -0.000708      0.001018     -0.000662
    16   Atom       -0.000907      0.000535     -0.000413
    17   Atom       -0.000538      0.000391     -0.000668
    18   Atom       -0.000733      0.000069     -0.000185
    19   Atom       -0.001071      0.000120      0.000141
    20   Atom       -0.000343     -0.000043      0.000031
    21   Atom       -0.000677     -0.000015     -0.000077
    22   Atom        0.002941     -0.005092     -0.001984
    23   Atom        0.005661     -0.025170      0.026095
    24   Atom       -0.012799     -0.012453     -0.027985
    25   Atom        0.001818     -0.001173     -0.002066
    26   Atom       -0.006239      0.000689      0.000656
    27   Atom        0.015108     -0.017451     -0.024573
    28   Atom        0.001822     -0.000476     -0.000355
    29   Atom        0.003504      0.000217      0.000479
    30   Atom        0.000924      0.000439      0.000086
    31   Atom        0.000649     -0.000053     -0.000054
    32   Atom        0.000480      0.000034      0.000078
    33   Atom        0.000515     -0.000244     -0.000277
    34   Atom        0.000521     -0.000069     -0.000047
    35   Atom        0.001028     -0.000443     -0.000323
    36   Atom        0.000818     -0.000580     -0.000344
    37   Atom        0.000591     -0.000370     -0.000299
    38   Atom        0.000694     -0.000436     -0.000115
 --------------------------------------------------------


 ---------------------------------------------------------------------------------
              Anisotropic Spin Dipole Couplings in Principal Axis System
 ---------------------------------------------------------------------------------

       Atom             a.u.   MegaHertz   Gauss  10(-4) cm-1        Axes

              Baa    -0.5126    37.094    13.236    12.373  0.5088  0.8592  0.0538
     1 O(17)  Bbb    -0.4769    34.508    12.313    11.511  0.8591 -0.5107  0.0324
              Bcc     0.9895   -71.602   -25.549   -23.884 -0.0553 -0.0297  0.9980
 
              Baa    -0.1350   -18.120    -6.466    -6.044  0.2557  0.2360  0.9375
     2 C(13)  Bbb     0.0464     6.220     2.220     2.075  0.1795  0.9413 -0.2859
              Bcc     0.0887    11.900     4.246     3.969  0.9499 -0.2414 -0.1983
 
              Baa    -0.5861   -22.605    -8.066    -7.540  0.8500 -0.2927 -0.4379
     3 N(14)  Bbb    -0.5694   -21.959    -7.835    -7.325  0.2234  0.9533 -0.2035
              Bcc     1.1555    44.564    15.901    14.865  0.4770  0.0751  0.8757
 
              Baa    -1.0362   -54.234   -19.352   -18.091  0.2260  0.9525 -0.2042
     4 Cl(35) Bbb    -0.8290   -43.390   -15.483   -14.473  0.9255 -0.2753 -0.2599
              Bcc     1.8653    97.624    34.835    32.564  0.3038  0.1302  0.9438
 
              Baa    -0.1360   -18.246    -6.511    -6.086  0.2041  0.0663  0.9767
     5 C(13)  Bbb     0.0466     6.259     2.233     2.088  0.2628  0.9574 -0.1200
              Bcc     0.0893    11.987     4.277     3.998  0.9430 -0.2812 -0.1780
 
              Baa    -0.5206    37.674    13.443    12.567 -0.0922  0.8941 -0.4382
     6 O(17)  Bbb    -0.4843    35.042    12.504    11.689  0.9950  0.0659 -0.0749
              Bcc     1.0049   -72.715   -25.947   -24.255  0.0381  0.4430  0.8957
 
              Baa    -0.0404    -1.558    -0.556    -0.520  0.1699 -0.2993  0.9389
     7 N(14)  Bbb     0.0107     0.412     0.147     0.137  0.7959 -0.5201 -0.3098
              Bcc     0.0297     1.146     0.409     0.382  0.5811  0.7999  0.1498
 
              Baa    -0.0026    -0.344    -0.123    -0.115  0.4721 -0.0382  0.8807
     8 C(13)  Bbb    -0.0017    -0.229    -0.082    -0.076  0.8782 -0.0663 -0.4736
              Bcc     0.0043     0.573     0.204     0.191  0.0765  0.9971  0.0023
 
              Baa    -0.0212   -10.671    -3.808    -3.559  0.6730  0.3325 -0.6607
     9 F(19)  Bbb    -0.0186    -9.321    -3.326    -3.109  0.7337 -0.1870  0.6532
              Bcc     0.0398    19.991     7.133     6.668 -0.0936  0.9244  0.3698
 
              Baa    -0.0060    -3.008    -1.073    -1.003 -0.4300  0.8485  0.3086
    10 F(19)  Bbb    -0.0037    -1.848    -0.659    -0.616  0.4027 -0.1257  0.9067
              Bcc     0.0097     4.856     1.733     1.620  0.8081  0.5141 -0.2876
 
              Baa    -0.0015    -0.196    -0.070    -0.065  0.2231  0.2551  0.9408
    11 C(13)  Bbb    -0.0010    -0.129    -0.046    -0.043  0.9469  0.1725 -0.2714
              Bcc     0.0024     0.325     0.116     0.108 -0.2315  0.9514 -0.2031
 
              Baa    -0.0014    -0.684    -0.244    -0.228 -0.0468  0.4213  0.9057
    12 F(19)  Bbb    -0.0002    -0.123    -0.044    -0.041  0.9023  0.4068 -0.1426
              Bcc     0.0016     0.807     0.288     0.269 -0.4285  0.8106 -0.3992
 
              Baa    -0.0027     0.192     0.069     0.064  0.7589  0.5763  0.3034
    13 O(17)  Bbb    -0.0022     0.157     0.056     0.052 -0.4793  0.1788  0.8593
              Bcc     0.0048    -0.349    -0.125    -0.116 -0.4409  0.7975 -0.4119
 
              Baa    -0.0010    -0.128    -0.046    -0.043  0.5894  0.7591  0.2764
    14 C(13)  Bbb    -0.0009    -0.115    -0.041    -0.038 -0.5661  0.1439  0.8117
              Bcc     0.0018     0.244     0.087     0.081 -0.5764  0.6348 -0.5145
 
              Baa    -0.0009    -0.447    -0.159    -0.149  0.5452  0.8383 -0.0002
    15 F(19)  Bbb    -0.0008    -0.396    -0.141    -0.132 -0.5387  0.3505  0.7661
              Bcc     0.0017     0.843     0.301     0.281  0.6423 -0.4176  0.6427
 
              Baa    -0.0007    -0.367    -0.131    -0.122 -0.3098  0.1427  0.9400
    16 F(19)  Bbb    -0.0007    -0.346    -0.123    -0.115  0.5922  0.8025  0.0733
              Bcc     0.0014     0.713     0.254     0.238  0.7439 -0.5794  0.3331
 
              Baa    -0.0006    -0.302    -0.108    -0.101  0.6067  0.6967  0.3828
    17 F(19)  Bbb    -0.0005    -0.261    -0.093    -0.087 -0.6611  0.1749  0.7296
              Bcc     0.0011     0.562     0.201     0.188 -0.4414  0.6957 -0.5667
 
              Baa    -0.0007    -0.100    -0.036    -0.033  0.0528  0.1197  0.9914
    18 C(13)  Bbb    -0.0007    -0.091    -0.033    -0.030  0.9250  0.3683 -0.0937
              Bcc     0.0014     0.192     0.068     0.064 -0.3764  0.9220 -0.0912
 
              Baa    -0.0009    -0.470    -0.168    -0.157  0.7235  0.5223 -0.4514
    19 F(19)  Bbb    -0.0005    -0.246    -0.088    -0.082  0.3807  0.2435  0.8920
              Bcc     0.0014     0.717     0.256     0.239 -0.5758  0.8173  0.0227
 
              Baa    -0.0005    -0.265    -0.095    -0.088  0.4648  0.0933  0.8805
    20 F(19)  Bbb    -0.0004    -0.224    -0.080    -0.075  0.8504  0.2301 -0.4733
              Bcc     0.0010     0.489     0.174     0.163 -0.2467  0.9687  0.0276
 
              Baa    -0.0006    -0.286    -0.102    -0.095  0.7300  0.4469  0.5171
    21 F(19)  Bbb    -0.0005    -0.227    -0.081    -0.076 -0.4647 -0.2302  0.8550
              Bcc     0.0010     0.513     0.183     0.171 -0.5011  0.8645 -0.0396
 
              Baa    -0.0100    -1.343    -0.479    -0.448  0.7192 -0.0374  0.6938
    22 C(13)  Bbb    -0.0009    -0.124    -0.044    -0.041 -0.6522  0.3078  0.6927
              Bcc     0.0109     1.466     0.523     0.489  0.2394  0.9507 -0.1970
 
              Baa    -0.0706     5.109     1.823     1.704  0.9587 -0.2121  0.1893
    23 O(17)  Bbb    -0.0249     1.802     0.643     0.601  0.2446  0.9548 -0.1690
              Bcc     0.0955    -6.910    -2.466    -2.305 -0.1449  0.2083  0.9673
 
              Baa    -0.0396    -1.526    -0.545    -0.509  0.3700  0.5302  0.7629
    24 N(14)  Bbb     0.0107     0.411     0.147     0.137  0.9093 -0.0382 -0.4144
              Bcc     0.0289     1.115     0.398     0.372 -0.1906  0.8470 -0.4963
 
              Baa    -0.0025    -0.337    -0.120    -0.113  0.4575  0.1922  0.8682
    25 C(13)  Bbb    -0.0017    -0.232    -0.083    -0.077  0.8064 -0.5013 -0.3139
              Bcc     0.0042     0.569     0.203     0.190  0.3749  0.8437 -0.3843
 
              Baa    -0.0059    -2.952    -1.053    -0.985  0.7266  0.3974 -0.5605
    26 F(19)  Bbb    -0.0039    -1.961    -0.700    -0.654  0.5020  0.2499  0.8280
              Bcc     0.0098     4.913     1.753     1.639 -0.4691  0.8830  0.0179
 
              Baa    -0.0217   -10.889    -3.885    -3.632 -0.3794  0.8228  0.4232
    27 F(19)  Bbb    -0.0188    -9.420    -3.361    -3.142  0.8208  0.0881  0.5644
              Bcc     0.0404    20.309     7.247     6.774 -0.4271 -0.5614  0.7088
 
              Baa    -0.0016    -0.218    -0.078    -0.073  0.2586 -0.0487  0.9648
    28 C(13)  Bbb    -0.0011    -0.141    -0.050    -0.047  0.7130 -0.6642 -0.2246
              Bcc     0.0027     0.359     0.128     0.120  0.6518  0.7459 -0.1370
 
              Baa    -0.0027    -1.371    -0.489    -0.457  0.3730 -0.5873  0.7183
    29 F(19)  Bbb    -0.0022    -1.110    -0.396    -0.370 -0.4586  0.5563  0.6930
              Bcc     0.0049     2.481     0.885     0.828  0.8066  0.5879  0.0619
 
              Baa    -0.0015     0.106     0.038     0.035 -0.1905  0.0502  0.9804
    30 O(17)  Bbb    -0.0003     0.019     0.007     0.006 -0.5395  0.8290 -0.1473
              Bcc     0.0017    -0.125    -0.045    -0.042  0.8202  0.5569  0.1308
 
              Baa    -0.0005    -0.073    -0.026    -0.024  0.1146 -0.0196  0.9932
    31 C(13)  Bbb    -0.0004    -0.057    -0.020    -0.019  0.8148 -0.5701 -0.1053
              Bcc     0.0010     0.130     0.046     0.043  0.5683  0.8213 -0.0494
 
              Baa    -0.0004    -0.218    -0.078    -0.073  0.0514 -0.1064  0.9930
    32 F(19)  Bbb    -0.0004    -0.179    -0.064    -0.060  0.8772 -0.4705 -0.0958
              Bcc     0.0008     0.397     0.142     0.132  0.4774  0.8759  0.0692
 
              Baa    -0.0005    -0.261    -0.093    -0.087  0.6204 -0.1033  0.7775
    33 F(19)  Bbb    -0.0004    -0.184    -0.066    -0.061  0.6148 -0.5515 -0.5638
              Bcc     0.0009     0.445     0.159     0.149  0.4870  0.8277 -0.2786
 
              Baa    -0.0004    -0.187    -0.067    -0.062  0.4958 -0.3736  0.7840
    34 F(19)  Bbb    -0.0003    -0.167    -0.060    -0.056 -0.5470  0.5669  0.6160
              Bcc     0.0007     0.354     0.126     0.118  0.6746  0.7342 -0.0767
 
              Baa    -0.0008    -0.107    -0.038    -0.036  0.2395  0.0815  0.9675
    35 C(13)  Bbb    -0.0007    -0.100    -0.036    -0.033 -0.5786  0.8122  0.0748
              Bcc     0.0015     0.207     0.074     0.069  0.7797  0.5777 -0.2416
 
              Baa    -0.0010    -0.517    -0.184    -0.172 -0.3322  0.9277  0.1704
    36 F(19)  Bbb    -0.0005    -0.258    -0.092    -0.086  0.3821 -0.0328  0.9235
              Bcc     0.0015     0.775     0.277     0.259  0.8623  0.3719 -0.3436
 
              Baa    -0.0005    -0.252    -0.090    -0.084  0.6113 -0.2142  0.7618
    37 F(19)  Bbb    -0.0004    -0.211    -0.075    -0.070 -0.4076  0.7400  0.5351
              Bcc     0.0009     0.463     0.165     0.154  0.6783  0.6376 -0.3651
 
              Baa    -0.0007    -0.363    -0.129    -0.121  0.4266 -0.4677  0.7741
    38 F(19)  Bbb    -0.0005    -0.276    -0.099    -0.092 -0.2078  0.7823  0.5872
              Bcc     0.0013     0.639     0.228     0.213  0.8802  0.4113 -0.2366
 

 ---------------------------------------------------------------------------------

 No NMR shielding tensors so no spin-rotation constants.
 Leave Link  601 at Sun Mar  3 18:28:16 2024, MaxMem=  5368709120 cpu:         8.1
 (Enter /home/k0335/k033513/app/g09/l9999.exe)
 1\1\GINC-C18U05N1\SP\UCAM-B3LYP\6-31G(d,p)\C11Cl1F18N3O5(1+,2)\K033513
 \03-Mar-2024\0\\#p CAM-B3LYP/6-31G(d,p) SCRF=(PCM,Solvent=Generic,Read
 ) NoSymm out=wfn\\Title A1374950791_p1\\1,2\O,0,1.709266,-3.351718,0.1
 2011\C,0,0.797663,-2.527818,0.157533\N,0,-0.447464,-2.806358,0.689667\
 Cl,0,-0.840765,-4.468734,1.042297\C,0,-1.402465,-1.840506,0.945565\O,0
 ,-2.57506,-2.108503,1.202128\N,0,-0.941983,-0.5412,0.871962\C,0,-1.860
 113,0.530208,1.245606\F,0,-2.609704,0.119131,2.307114\F,0,-1.127929,1.
 558965,1.758497\C,0,-2.778348,1.033332,0.103454\F,0,-2.001694,1.590647
 ,-0.872178\O,0,-3.414307,-0.086894,-0.521837\C,0,-4.450425,0.281357,-1
 .394732\F,0,-4.746903,-0.776409,-2.171287\F,0,-5.536182,0.615562,-0.68
 1173\F,0,-4.075297,1.302279,-2.179825\C,0,-3.676829,2.103009,0.740016\
 F,0,-4.529936,1.570427,1.642816\F,0,-2.974624,3.070292,1.368545\F,0,-4
 .435965,2.731176,-0.189601\C,0,0.173375,-0.205109,0.142324\O,0,0.47261
 1,0.964418,-0.077505\N,0,0.947299,-1.24109,-0.321435\C,0,2.200803,-0.9
 17195,-0.997607\F,0,1.965769,0.065637,-1.9071\F,0,2.548841,-1.976838,-
 1.78074\C,0,3.368531,-0.532866,-0.050377\F,0,3.541187,-1.564735,0.8450
 66\O,0,3.074223,0.569381,0.817769\C,0,3.365955,1.840714,0.284262\F,0,2
 .795787,2.775711,1.06354\F,0,2.901326,1.959834,-0.964151\F,0,4.694785,
 2.029853,0.287745\C,0,4.644544,-0.458957,-0.899377\F,0,4.929306,-1.629
 978,-1.51054\F,0,4.576854,0.483617,-1.86236\F,0,5.717869,-0.160641,-0.
 126531\\Version=ES64L-G09RevD.01\HF=-3215.7162649\S2=0.78152\S2-1=0.\S
 2A=0.750619\RMSD=7.963e-09\Dipole=-1.0275739,-5.151913,1.2214207\Quadr
 upole=-11.346313,21.6101083,-10.2637953,7.0056042,-0.4259262,-8.407028
 2\PG=C01 [X(C11Cl1F18N3O5)]\\@

 Writing a WFN file to "A1374950791/A1374950791_p1.wfn"


 KNOWING HOW CONTENTED, FREE, AND JOYFUL IS LIFE IN
 THE REALMS OF SCIENCE, ONE FERVENTLY WISHES THAT
 MANY WOULD ENTER HER PORTALS.
   --  DMITRI IVANOVICH MENDELEEV
 "FIRST PRINCIPLES OF CHEMISTRY", LONGMANS, GREEN,
 AND CO.  LONDON, 1891
 Job cpu time:       0 days  0 hours 51 minutes 50.8 seconds.
 File lengths (MBytes):  RWF=    489 Int=      0 D2E=      0 Chk=     17 Scr=      1
 Normal termination of Gaussian 09 at Sun Mar  3 18:28:16 2024.
