 Entering Gaussian System, Link 0=g09
 Initial command:
 /home/k0335/k033513/app/g09/l1.exe "/home/k0335/k033513/app/g09/scratch/Gau-3308593.inp" -scrdir="/home/k0335/k033513/app/g09/scratch/"
 Default is to use a total of  36 processors:
                               36 via shared-memory
                                1 via Linda
 Entering Link 1 = /home/k0335/k033513/app/g09/l1.exe PID=   3308594.
  
 Copyright (c) 1988,1990,1992,1993,1995,1998,2003,2009,2013,
            Gaussian, Inc.  All Rights Reserved.
  
 This is part of the Gaussian(R) 09 program.  It is based on
 the Gaussian(R) 03 system (copyright 2003, Gaussian, Inc.),
 the Gaussian(R) 98 system (copyright 1998, Gaussian, Inc.),
 the Gaussian(R) 94 system (copyright 1995, Gaussian, Inc.),
 the Gaussian 92(TM) system (copyright 1992, Gaussian, Inc.),
 the Gaussian 90(TM) system (copyright 1990, Gaussian, Inc.),
 the Gaussian 88(TM) system (copyright 1988, Gaussian, Inc.),
 the Gaussian 86(TM) system (copyright 1986, Carnegie Mellon
 University), and the Gaussian 82(TM) system (copyright 1983,
 Carnegie Mellon University). Gaussian is a federally registered
 trademark of Gaussian, Inc.
  
 This software contains proprietary and confidential information,
 including trade secrets, belonging to Gaussian, Inc.
  
 This software is provided under written license and may be
 used, copied, transmitted, or stored only in accord with that
 written license.
  
 The following legend is applicable only to US Government
 contracts under FAR:
  
                    RESTRICTED RIGHTS LEGEND
  
 Use, reproduction and disclosure by the US Government is
 subject to restrictions as set forth in subparagraphs (a)
 and (c) of the Commercial Computer Software - Restricted
 Rights clause in FAR 52.227-19.
  
 Gaussian, Inc.
 340 Quinnipiac St., Bldg. 40, Wallingford CT 06492
  
  
 ---------------------------------------------------------------
 Warning -- This program may not be used in any manner that
 competes with the business of Gaussian, Inc. or will provide
 assistance to any competitor of Gaussian, Inc.  The licensee
 of this program is prohibited from giving any competitor of
 Gaussian, Inc. access to this program.  By using this program,
 the user acknowledges that Gaussian, Inc. is engaged in the
 business of creating and licensing software in the field of
 computational chemistry and represents and warrants to the
 licensee that it is not a competitor of Gaussian, Inc. and that
 it will not use this program in any manner prohibited above.
 ---------------------------------------------------------------
  

 Cite this work as:
 Gaussian 09, Revision D.01,
 M. J. Frisch, G. W. Trucks, H. B. Schlegel, G. E. Scuseria, 
 M. A. Robb, J. R. Cheeseman, G. Scalmani, V. Barone, B. Mennucci, 
 G. A. Petersson, H. Nakatsuji, M. Caricato, X. Li, H. P. Hratchian, 
 A. F. Izmaylov, J. Bloino, G. Zheng, J. L. Sonnenberg, M. Hada, 
 M. Ehara, K. Toyota, R. Fukuda, J. Hasegawa, M. Ishida, T. Nakajima, 
 Y. Honda, O. Kitao, H. Nakai, T. Vreven, J. A. Montgomery, Jr., 
 J. E. Peralta, F. Ogliaro, M. Bearpark, J. J. Heyd, E. Brothers, 
 K. N. Kudin, V. N. Staroverov, T. Keith, R. Kobayashi, J. Normand, 
 K. Raghavachari, A. Rendell, J. C. Burant, S. S. Iyengar, J. Tomasi, 
 M. Cossi, N. Rega, J. M. Millam, M. Klene, J. E. Knox, J. B. Cross, 
 V. Bakken, C. Adamo, J. Jaramillo, R. Gomperts, R. E. Stratmann, 
 O. Yazyev, A. J. Austin, R. Cammi, C. Pomelli, J. W. Ochterski, 
 R. L. Martin, K. Morokuma, V. G. Zakrzewski, G. A. Voth, 
 P. Salvador, J. J. Dannenberg, S. Dapprich, A. D. Daniels, 
 O. Farkas, J. B. Foresman, J. V. Ortiz, J. Cioslowski, 
 and D. J. Fox, Gaussian, Inc., Wallingford CT, 2013.
 
 ******************************************
 Gaussian 09:  ES64L-G09RevD.01 24-Apr-2013
                30-Jan-2025 
 ******************************************
 %nprocshared=24
 Will use up to   24 processors via shared memory.
 %mem=40GB
 %rwf=finalDD2/finalDD2_0.rwf
 %nosave
 %chk=finalDD2/finalDD2_0.chk
 ----------------------------------------------------------------------
 #p CAM-B3LYP/6-31G(d,p) SCRF=(PCM,Solvent=Generic,Read) NoSymm out=wfn
 ----------------------------------------------------------------------
 1/38=1,40=2/1;
 2/12=2,15=1,17=6,18=5,40=1/2;
 3/5=1,6=6,7=101,11=2,16=1,25=1,30=1,70=2203,72=-2,74=-40/1,2,3;
 4//1;
 5/5=2,38=5/2;
 6/7=2,8=2,9=2,10=2,28=1/1;
 99/5=1,6=100,9=1/99;
 Leave Link    1 at Thu Jan 30 16:31:28 2025, MaxMem=  5368709120 cpu:         1.1
 (Enter /home/k0335/k033513/app/g09/l101.exe)
 ----------------
 Title finalDD2_0
 ----------------
 Symbolic Z-matrix:
 Charge =  0 Multiplicity = 1
 O                     5.71876  -0.80278   1.33303 
 C                     4.49337  -0.68384   1.2925 
 N                     3.88342   0.54979   1.20381 
 C                     4.73327   1.73806   1.11875 
 C                     5.1195    2.25271   2.51043 
 C                     5.80372   3.62703   2.51191 
 C                     7.07686   3.69273   1.67046 
 F                     6.73601   3.54405   0.35873 
 F                     7.86703   2.62945   1.98222 
 C                     7.85353   5.01169   1.86567 
 F                     8.9598    5.02048   1.08234 
 F                     8.26551   5.11412   3.15395 
 O                     7.06693   6.13509   1.53979 
 C                     7.70779   7.29863   1.98171 
 F                     7.58061   7.41903   3.31817 
 F                     7.09313   8.35604   1.40964 
 F                     9.00827   7.32928   1.64073 
 C                     2.51775   0.72885   1.266 
 O                     2.00852   1.85092   1.25641 
 N                     1.75291  -0.41501   1.33322 
 C                     0.29439  -0.27708   1.33317 
 C                    -0.28734  -0.32001  -0.08839 
 N                    -1.73986  -0.13526  -0.10026 
 C                    -2.23987   1.14042  -0.24083 
 O                    -1.49954   2.11947  -0.3478 
 N                    -3.61312   1.2626   -0.26992 
 C                    -4.18368   2.59015  -0.49898 
 C                    -4.27801   2.91228  -1.99508 
 C                    -4.58808   4.38241  -2.30482 
 C                    -5.93911   4.86239  -1.78029 
 F                    -5.92116   4.7972   -0.42323 
 F                    -6.90873   4.00475  -2.19551 
 C                    -6.2682    6.30121  -2.25171 
 F                    -6.17075   6.33891  -3.614 
 F                    -5.3288    7.18033  -1.81422 
 O                    -7.53377   6.84139  -1.96652 
 C                    -7.8178    6.76677  -0.60022 
 F                    -8.25444   5.53198  -0.29407 
 F                    -6.7488    7.07584   0.15302 
 F                    -8.8018    7.64495  -0.32004 
 C                    -4.46796   0.18228  -0.22459 
 O                    -5.67231   0.29045  -0.46602 
 N                    -3.89589  -1.03107   0.09302 
 C                    -4.77781  -2.18338   0.27232 
 C                    -5.01456  -2.92876  -1.04578 
 C                    -6.17663  -3.92978  -0.99512 
 C                    -5.9858   -5.0695    0.00703 
 F                    -5.88994  -4.55647   1.2614 
 F                    -4.78923  -5.66908  -0.24103 
 C                    -7.13015  -6.11494  -0.05882 
 F                    -7.13813  -6.6594   -1.31129 
 F                    -6.90454  -7.15807   0.77814 
 O                    -8.45049  -5.6703    0.14337 
 C                    -8.60067  -5.08238   1.40536 
 F                    -8.20221  -3.79722   1.34343 
 F                    -9.9077   -5.10131   1.73188 
 F                    -7.91     -5.72391   2.36021 
 C                    -2.53427  -1.23707   0.12946 
 O                    -2.0492   -2.34754   0.34979 
 C                     2.28384  -1.68535   1.27451 
 O                     1.56696  -2.68244   1.18028 
 N                     3.65831  -1.78017   1.31216 
 C                     4.25628  -3.11464   1.32168 
 C                     4.32361  -3.76384  -0.06961 
 C                     5.23781  -3.01647  -1.04397 
 C                     5.27252  -3.60981  -2.45225 
 F                     4.0096   -3.57903  -2.96416 
 F                     6.00341  -2.75285  -3.22983 
 C                     5.86756  -5.02819  -2.55828 
 F                     5.08644  -5.91933  -1.90034 
 F                     5.91185  -5.41699  -3.85716 
 O                     7.17559  -5.08721  -2.03751 
 C                     7.54345  -6.42331  -1.84979 
 F                     7.18901  -7.20766  -2.88167 
 F                     6.9968   -6.8873   -0.70983 
 F                     8.88637  -6.47176  -1.71779 
 H                     4.20667   2.52353   0.56312 
 H                     5.6319    1.48318   0.54584 
 H                     4.22061   2.32325   3.1369 
 H                     5.7738    1.5218    3.00264 
 H                     6.04521   3.87256   3.5534 
 H                     5.08893   4.3772    2.15279 
 H                     0.01125   0.66396   1.82057 
 H                    -0.13942  -1.07898   1.9426 
 H                    -0.04685  -1.27847  -0.56524 
 H                     0.18426   0.45466  -0.70422 
 H                    -5.17747   2.63252  -0.04068 
 H                    -3.56046   3.33685   0.00661 
 H                    -5.0326    2.26863  -2.46384 
 H                    -3.32625   2.66438  -2.48176 
 H                    -4.5617    4.49792  -3.39485 
 H                    -3.79204   5.0113   -1.88925 
 H                    -4.33015  -2.8557    1.01159 
 H                    -5.73467  -1.8427    0.68557 
 H                    -5.23424  -2.20414  -1.84018 
 H                    -4.0943   -3.44129  -1.35016 
 H                    -6.288    -4.35313  -2.00052 
 H                    -7.09844  -3.38284  -0.77257 
 H                     5.25984  -3.07715   1.7592 
 H                     3.65398  -3.75386   1.97855 
 H                     3.31661  -3.83507  -0.49588 
 H                     4.68887  -4.78729   0.06538 
 H                     6.25635  -2.9622   -0.64188 
 H                     4.88815  -1.98212  -1.14275 
 
 NAtoms=    104 NQM=      104 NQMF=       0 NMMI=      0 NMMIF=      0
                NMic=       0 NMicF=      0.
                    Isotopes and Nuclear Properties:
 (Nuclear quadrupole moments (NQMom) in fm**2, nuclear magnetic moments (NMagM)
  in nuclear magnetons)

  Atom         1           2           3           4           5           6           7           8           9          10
 IAtWgt=          16          12          14          12          12          12          12          19          19          12
 AtmWgt=  15.9949146  12.0000000  14.0030740  12.0000000  12.0000000  12.0000000  12.0000000  18.9984033  18.9984033  12.0000000
 NucSpn=           0           0           2           0           0           0           0           1           1           0
 AtZEff=   0.0000000   0.0000000   0.0000000   0.0000000   0.0000000   0.0000000   0.0000000   0.0000000   0.0000000   0.0000000
 NQMom=    0.0000000   0.0000000   2.0440000   0.0000000   0.0000000   0.0000000   0.0000000   0.0000000   0.0000000   0.0000000
 NMagM=    0.0000000   0.0000000   0.4037610   0.0000000   0.0000000   0.0000000   0.0000000   2.6288670   2.6288670   0.0000000
 AtZNuc=   8.0000000   6.0000000   7.0000000   6.0000000   6.0000000   6.0000000   6.0000000   9.0000000   9.0000000   6.0000000

  Atom        11          12          13          14          15          16          17          18          19          20
 IAtWgt=          19          19          16          12          19          19          19          12          16          14
 AtmWgt=  18.9984033  18.9984033  15.9949146  12.0000000  18.9984033  18.9984033  18.9984033  12.0000000  15.9949146  14.0030740
 NucSpn=           1           1           0           0           1           1           1           0           0           2
 AtZEff=   0.0000000   0.0000000   0.0000000   0.0000000   0.0000000   0.0000000   0.0000000   0.0000000   0.0000000   0.0000000
 NQMom=    0.0000000   0.0000000   0.0000000   0.0000000   0.0000000   0.0000000   0.0000000   0.0000000   0.0000000   2.0440000
 NMagM=    2.6288670   2.6288670   0.0000000   0.0000000   2.6288670   2.6288670   2.6288670   0.0000000   0.0000000   0.4037610
 AtZNuc=   9.0000000   9.0000000   8.0000000   6.0000000   9.0000000   9.0000000   9.0000000   6.0000000   8.0000000   7.0000000

  Atom        21          22          23          24          25          26          27          28          29          30
 IAtWgt=          12          12          14          12          16          14          12          12          12          12
 AtmWgt=  12.0000000  12.0000000  14.0030740  12.0000000  15.9949146  14.0030740  12.0000000  12.0000000  12.0000000  12.0000000
 NucSpn=           0           0           2           0           0           2           0           0           0           0
 AtZEff=   0.0000000   0.0000000   0.0000000   0.0000000   0.0000000   0.0000000   0.0000000   0.0000000   0.0000000   0.0000000
 NQMom=    0.0000000   0.0000000   2.0440000   0.0000000   0.0000000   2.0440000   0.0000000   0.0000000   0.0000000   0.0000000
 NMagM=    0.0000000   0.0000000   0.4037610   0.0000000   0.0000000   0.4037610   0.0000000   0.0000000   0.0000000   0.0000000
 AtZNuc=   6.0000000   6.0000000   7.0000000   6.0000000   8.0000000   7.0000000   6.0000000   6.0000000   6.0000000   6.0000000

  Atom        31          32          33          34          35          36          37          38          39          40
 IAtWgt=          19          19          12          19          19          16          12          19          19          19
 AtmWgt=  18.9984033  18.9984033  12.0000000  18.9984033  18.9984033  15.9949146  12.0000000  18.9984033  18.9984033  18.9984033
 NucSpn=           1           1           0           1           1           0           0           1           1           1
 AtZEff=   0.0000000   0.0000000   0.0000000   0.0000000   0.0000000   0.0000000   0.0000000   0.0000000   0.0000000   0.0000000
 NQMom=    0.0000000   0.0000000   0.0000000   0.0000000   0.0000000   0.0000000   0.0000000   0.0000000   0.0000000   0.0000000
 NMagM=    2.6288670   2.6288670   0.0000000   2.6288670   2.6288670   0.0000000   0.0000000   2.6288670   2.6288670   2.6288670
 AtZNuc=   9.0000000   9.0000000   6.0000000   9.0000000   9.0000000   8.0000000   6.0000000   9.0000000   9.0000000   9.0000000

  Atom        41          42          43          44          45          46          47          48          49          50
 IAtWgt=          12          16          14          12          12          12          12          19          19          12
 AtmWgt=  12.0000000  15.9949146  14.0030740  12.0000000  12.0000000  12.0000000  12.0000000  18.9984033  18.9984033  12.0000000
 NucSpn=           0           0           2           0           0           0           0           1           1           0
 AtZEff=   0.0000000   0.0000000   0.0000000   0.0000000   0.0000000   0.0000000   0.0000000   0.0000000   0.0000000   0.0000000
 NQMom=    0.0000000   0.0000000   2.0440000   0.0000000   0.0000000   0.0000000   0.0000000   0.0000000   0.0000000   0.0000000
 NMagM=    0.0000000   0.0000000   0.4037610   0.0000000   0.0000000   0.0000000   0.0000000   2.6288670   2.6288670   0.0000000
 AtZNuc=   6.0000000   8.0000000   7.0000000   6.0000000   6.0000000   6.0000000   6.0000000   9.0000000   9.0000000   6.0000000

  Atom        51          52          53          54          55          56          57          58          59          60
 IAtWgt=          19          19          16          12          19          19          19          12          16          12
 AtmWgt=  18.9984033  18.9984033  15.9949146  12.0000000  18.9984033  18.9984033  18.9984033  12.0000000  15.9949146  12.0000000
 NucSpn=           1           1           0           0           1           1           1           0           0           0
 AtZEff=   0.0000000   0.0000000   0.0000000   0.0000000   0.0000000   0.0000000   0.0000000   0.0000000   0.0000000   0.0000000
 NQMom=    0.0000000   0.0000000   0.0000000   0.0000000   0.0000000   0.0000000   0.0000000   0.0000000   0.0000000   0.0000000
 NMagM=    2.6288670   2.6288670   0.0000000   0.0000000   2.6288670   2.6288670   2.6288670   0.0000000   0.0000000   0.0000000
 AtZNuc=   9.0000000   9.0000000   8.0000000   6.0000000   9.0000000   9.0000000   9.0000000   6.0000000   8.0000000   6.0000000

  Atom        61          62          63          64          65          66          67          68          69          70
 IAtWgt=          16          14          12          12          12          12          19          19          12          19
 AtmWgt=  15.9949146  14.0030740  12.0000000  12.0000000  12.0000000  12.0000000  18.9984033  18.9984033  12.0000000  18.9984033
 NucSpn=           0           2           0           0           0           0           1           1           0           1
 AtZEff=   0.0000000   0.0000000   0.0000000   0.0000000   0.0000000   0.0000000   0.0000000   0.0000000   0.0000000   0.0000000
 NQMom=    0.0000000   2.0440000   0.0000000   0.0000000   0.0000000   0.0000000   0.0000000   0.0000000   0.0000000   0.0000000
 NMagM=    0.0000000   0.4037610   0.0000000   0.0000000   0.0000000   0.0000000   2.6288670   2.6288670   0.0000000   2.6288670
 AtZNuc=   8.0000000   7.0000000   6.0000000   6.0000000   6.0000000   6.0000000   9.0000000   9.0000000   6.0000000   9.0000000

  Atom        71          72          73          74          75          76          77          78          79          80
 IAtWgt=          19          16          12          19          19          19           1           1           1           1
 AtmWgt=  18.9984033  15.9949146  12.0000000  18.9984033  18.9984033  18.9984033   1.0078250   1.0078250   1.0078250   1.0078250
 NucSpn=           1           0           0           1           1           1           1           1           1           1
 AtZEff=   0.0000000   0.0000000   0.0000000   0.0000000   0.0000000   0.0000000   0.0000000   0.0000000   0.0000000   0.0000000
 NQMom=    0.0000000   0.0000000   0.0000000   0.0000000   0.0000000   0.0000000   0.0000000   0.0000000   0.0000000   0.0000000
 NMagM=    2.6288670   0.0000000   0.0000000   2.6288670   2.6288670   2.6288670   2.7928460   2.7928460   2.7928460   2.7928460
 AtZNuc=   9.0000000   8.0000000   6.0000000   9.0000000   9.0000000   9.0000000   1.0000000   1.0000000   1.0000000   1.0000000

  Atom        81          82          83          84          85          86          87          88          89          90
 IAtWgt=           1           1           1           1           1           1           1           1           1           1
 AtmWgt=   1.0078250   1.0078250   1.0078250   1.0078250   1.0078250   1.0078250   1.0078250   1.0078250   1.0078250   1.0078250
 NucSpn=           1           1           1           1           1           1           1           1           1           1
 AtZEff=   0.0000000   0.0000000   0.0000000   0.0000000   0.0000000   0.0000000   0.0000000   0.0000000   0.0000000   0.0000000
 NQMom=    0.0000000   0.0000000   0.0000000   0.0000000   0.0000000   0.0000000   0.0000000   0.0000000   0.0000000   0.0000000
 NMagM=    2.7928460   2.7928460   2.7928460   2.7928460   2.7928460   2.7928460   2.7928460   2.7928460   2.7928460   2.7928460
 AtZNuc=   1.0000000   1.0000000   1.0000000   1.0000000   1.0000000   1.0000000   1.0000000   1.0000000   1.0000000   1.0000000

  Atom        91          92          93          94          95          96          97          98          99         100
 IAtWgt=           1           1           1           1           1           1           1           1           1           1
 AtmWgt=   1.0078250   1.0078250   1.0078250   1.0078250   1.0078250   1.0078250   1.0078250   1.0078250   1.0078250   1.0078250
 NucSpn=           1           1           1           1           1           1           1           1           1           1
 AtZEff=   0.0000000   0.0000000   0.0000000   0.0000000   0.0000000   0.0000000   0.0000000   0.0000000   0.0000000   0.0000000
 NQMom=    0.0000000   0.0000000   0.0000000   0.0000000   0.0000000   0.0000000   0.0000000   0.0000000   0.0000000   0.0000000
 NMagM=    2.7928460   2.7928460   2.7928460   2.7928460   2.7928460   2.7928460   2.7928460   2.7928460   2.7928460   2.7928460
 AtZNuc=   1.0000000   1.0000000   1.0000000   1.0000000   1.0000000   1.0000000   1.0000000   1.0000000   1.0000000   1.0000000

  Atom       101         102         103         104
 IAtWgt=           1           1           1           1
 AtmWgt=   1.0078250   1.0078250   1.0078250   1.0078250
 NucSpn=           1           1           1           1
 AtZEff=   0.0000000   0.0000000   0.0000000   0.0000000
 NQMom=    0.0000000   0.0000000   0.0000000   0.0000000
 NMagM=    2.7928460   2.7928460   2.7928460   2.7928460
 AtZNuc=   1.0000000   1.0000000   1.0000000   1.0000000
 Leave Link  101 at Thu Jan 30 16:31:29 2025, MaxMem=  5368709120 cpu:         1.1
 (Enter /home/k0335/k033513/app/g09/l202.exe)
 Symmetry turned off by external request.
 Stoichiometry    C32H28F28N6O10
 Framework group  C1[X(C32H28F28N6O10)]
 Deg. of freedom   306
 Full point group                 C1      NOp   1
                          Input orientation:                          
 ---------------------------------------------------------------------
 Center     Atomic      Atomic             Coordinates (Angstroms)
 Number     Number       Type             X           Y           Z
 ---------------------------------------------------------------------
      1          8           0        5.718764   -0.802777    1.333028
      2          6           0        4.493369   -0.683843    1.292495
      3          7           0        3.883417    0.549788    1.203811
      4          6           0        4.733273    1.738059    1.118752
      5          6           0        5.119497    2.252714    2.510425
      6          6           0        5.803715    3.627028    2.511911
      7          6           0        7.076865    3.692725    1.670458
      8          9           0        6.736013    3.544050    0.358731
      9          9           0        7.867027    2.629451    1.982224
     10          6           0        7.853532    5.011694    1.865674
     11          9           0        8.959797    5.020477    1.082339
     12          9           0        8.265510    5.114123    3.153950
     13          8           0        7.066935    6.135086    1.539791
     14          6           0        7.707792    7.298633    1.981708
     15          9           0        7.580611    7.419025    3.318170
     16          9           0        7.093126    8.356041    1.409637
     17          9           0        9.008274    7.329281    1.640734
     18          6           0        2.517753    0.728849    1.265999
     19          8           0        2.008520    1.850916    1.256413
     20          7           0        1.752905   -0.415013    1.333223
     21          6           0        0.294391   -0.277083    1.333169
     22          6           0       -0.287335   -0.320013   -0.088386
     23          7           0       -1.739862   -0.135263   -0.100255
     24          6           0       -2.239869    1.140419   -0.240832
     25          8           0       -1.499542    2.119467   -0.347797
     26          7           0       -3.613120    1.262597   -0.269920
     27          6           0       -4.183677    2.590153   -0.498976
     28          6           0       -4.278007    2.912280   -1.995078
     29          6           0       -4.588079    4.382409   -2.304824
     30          6           0       -5.939109    4.862387   -1.780294
     31          9           0       -5.921164    4.797205   -0.423226
     32          9           0       -6.908730    4.004748   -2.195506
     33          6           0       -6.268204    6.301212   -2.251705
     34          9           0       -6.170751    6.338905   -3.614003
     35          9           0       -5.328801    7.180333   -1.814215
     36          8           0       -7.533769    6.841390   -1.966518
     37          6           0       -7.817800    6.766770   -0.600216
     38          9           0       -8.254443    5.531984   -0.294072
     39          9           0       -6.748800    7.075843    0.153019
     40          9           0       -8.801795    7.644952   -0.320038
     41          6           0       -4.467961    0.182275   -0.224587
     42          8           0       -5.672311    0.290452   -0.466022
     43          7           0       -3.895893   -1.031067    0.093015
     44          6           0       -4.777808   -2.183378    0.272321
     45          6           0       -5.014561   -2.928760   -1.045782
     46          6           0       -6.176627   -3.929776   -0.995117
     47          6           0       -5.985801   -5.069502    0.007026
     48          9           0       -5.889936   -4.556471    1.261399
     49          9           0       -4.789231   -5.669080   -0.241025
     50          6           0       -7.130146   -6.114945   -0.058815
     51          9           0       -7.138127   -6.659401   -1.311285
     52          9           0       -6.904541   -7.158066    0.778140
     53          8           0       -8.450493   -5.670296    0.143370
     54          6           0       -8.600674   -5.082377    1.405359
     55          9           0       -8.202212   -3.797219    1.343426
     56          9           0       -9.907697   -5.101306    1.731880
     57          9           0       -7.910005   -5.723907    2.360212
     58          6           0       -2.534270   -1.237070    0.129458
     59          8           0       -2.049204   -2.347541    0.349793
     60          6           0        2.283840   -1.685347    1.274512
     61          8           0        1.566959   -2.682439    1.180280
     62          7           0        3.658311   -1.780170    1.312159
     63          6           0        4.256282   -3.114640    1.321677
     64          6           0        4.323605   -3.763842   -0.069609
     65          6           0        5.237810   -3.016471   -1.043971
     66          6           0        5.272519   -3.609811   -2.452252
     67          9           0        4.009596   -3.579033   -2.964161
     68          9           0        6.003407   -2.752853   -3.229826
     69          6           0        5.867556   -5.028191   -2.558282
     70          9           0        5.086436   -5.919326   -1.900338
     71          9           0        5.911852   -5.416985   -3.857157
     72          8           0        7.175587   -5.087210   -2.037512
     73          6           0        7.543447   -6.423305   -1.849785
     74          9           0        7.189014   -7.207663   -2.881669
     75          9           0        6.996798   -6.887299   -0.709830
     76          9           0        8.886368   -6.471757   -1.717790
     77          1           0        4.206673    2.523533    0.563122
     78          1           0        5.631896    1.483176    0.545838
     79          1           0        4.220609    2.323245    3.136903
     80          1           0        5.773799    1.521804    3.002644
     81          1           0        6.045208    3.872556    3.553399
     82          1           0        5.088932    4.377196    2.152791
     83          1           0        0.011252    0.663955    1.820568
     84          1           0       -0.139420   -1.078983    1.942598
     85          1           0       -0.046846   -1.278472   -0.565238
     86          1           0        0.184255    0.454660   -0.704220
     87          1           0       -5.177466    2.632520   -0.040684
     88          1           0       -3.560455    3.336845    0.006614
     89          1           0       -5.032597    2.268630   -2.463839
     90          1           0       -3.326246    2.664383   -2.481762
     91          1           0       -4.561697    4.497921   -3.394845
     92          1           0       -3.792039    5.011297   -1.889247
     93          1           0       -4.330147   -2.855695    1.011587
     94          1           0       -5.734666   -1.842701    0.685571
     95          1           0       -5.234236   -2.204142   -1.840179
     96          1           0       -4.094302   -3.441290   -1.350160
     97          1           0       -6.287996   -4.353133   -2.000517
     98          1           0       -7.098441   -3.382837   -0.772574
     99          1           0        5.259844   -3.077155    1.759203
    100          1           0        3.653978   -3.753861    1.978549
    101          1           0        3.316607   -3.835073   -0.495882
    102          1           0        4.688872   -4.787293    0.065384
    103          1           0        6.256353   -2.962195   -0.641878
    104          1           0        4.888154   -1.982117   -1.142755
 ---------------------------------------------------------------------
 Rotational constants (GHZ):      0.0165163      0.0103499      0.0069260
 Leave Link  202 at Thu Jan 30 16:31:29 2025, MaxMem=  5368709120 cpu:         0.0
 (Enter /home/k0335/k033513/app/g09/l301.exe)
 Standard basis: 6-31G(d,p) (6D, 7F)
 Ernie: Thresh=  0.10000D-02 Tol=  0.10000D-05 Strict=F.
  1280 basis functions,  2324 primitive gaussians,  1280 cartesian basis functions
   297 alpha electrons      297 beta electrons
       nuclear repulsion energy     13491.7303982064 Hartrees.
 IExCor=20419 DFT=T Ex+Corr=CAM-B3LYP ExCW=0 ScaHFX=  1.000000
 ScaDFX=  1.000000  1.000000  1.000000  0.810000 ScalE2=  1.000000  1.000000
 IRadAn=      0 IRanWt=     -1 IRanGd=            0 ICorTp=0 IEmpDi=  4
  HFx wShort=  0.000000 wLong=  0.330000 cFull=  0.190000 cShort=  0.000000 cLong=  0.460000
  DFx wShort=  0.000000 wLong=  0.330000 cFull=  0.190000 cShort=  0.000000 cLong=  0.460000
 NAtoms=  104 NActive=  104 NUniq=  104 SFac= 1.00D+00 NAtFMM=   60 NAOKFM=T Big=T
 Integral buffers will be    131072 words long.
 Raffenetti 2 integral format.
 Two-electron integral symmetry is turned off.
 Using the following non-standard input for PCM:
 eps=4.9
 --- end of non-standard input.
 ------------------------------------------------------------------------------
 Polarizable Continuum Model (PCM)
 =================================
 Model                : PCM (using non-symmetric T matrix).
 Atomic radii         : UFF (Universal Force Field).
 Polarization charges : Total charges.
 Charge compensation  : None.
 Solution method      : On-the-fly selection.
 Cavity type          : Scaled VdW (van der Waals Surface) (Alpha=1.100).
 Cavity algorithm     : GePol (No added spheres)
                        Default sphere list used, NSphG=  104.
                        Lebedev-Laikov grids with approx.  5.0 points / Ang**2.
                        Smoothing algorithm: Karplus/York (Gamma=1.0000).
                        Polarization charges: spherical gaussians, with
                                              point-specific exponents (IZeta= 3).
                        Self-potential: point-specific (ISelfS= 7).
                        Self-field    : sphere-specific E.n sum rule (ISelfD= 2).
 Solvent              : Generic,
                        Eps                           =   4.900000
                        Eps(infinity)                 =   0.000000
                        RSolv                         =   0.000000 Ang.
                        Molar volume                  =   0.000000 cm**3/mol
                        Thermal expansion coefficient =   0.000000 K**-1
                        Absolute temperature          = 298.150000 K
                        Numeral density               =   0.000000 Ang**-3
                        Hydrogen bond acidity         =   0.000000
                        Hydrogen bond basicity        =   0.000000
                        Surface tension at interface  =   0.000000 (cal/mol)*Ang**-2
                        Carbon aromaticity            =   0.000000
                        Electronegative halogenicity  =   0.000000
 ------------------------------------------------------------------------------
 GePol: Number of generator spheres                  =     104
 GePol: Total number of spheres                      =     104
 GePol: Number of exposed spheres                    =     104 (100.00%)
 GePol: Number of points                             =    7964
 GePol: Average weight of points                     =       0.12
 GePol: Minimum weight of points                     =   0.35D-11
 GePol: Maximum weight of points                     =    0.20577
 GePol: Number of points with low weight             =     396
 GePol: Fraction of low-weight points (<1% of avg)   =       4.97%
 GePol: Cavity surface area                          =    994.634 Ang**2
 GePol: Cavity volume                                =   1149.052 Ang**3
 Leave Link  301 at Thu Jan 30 16:31:29 2025, MaxMem=  5368709120 cpu:         0.8
 (Enter /home/k0335/k033513/app/g09/l302.exe)
 NPDir=0 NMtPBC=     1 NCelOv=     1 NCel=       1 NClECP=     1 NCelD=      1
         NCelK=      1 NCelE2=     1 NClLst=     1 CellRange=     0.0.
 One-electron integrals computed using PRISM.
 NBasis=  1280 RedAO= T EigKep=  1.43D-03  NBF=  1280
 NBsUse=  1280 1.00D-06 EigRej= -1.00D+00 NBFU=  1280
 Precomputing XC quadrature grid using
 IXCGrd= 4 IRadAn=           0 IRanWt=          -1 IRanGd=           0 AccXCQ= 0.00D+00.
 Generated NRdTot=       0 NPtTot=           0 NUsed=           0 NTot=          32
 NSgBfM=   968   968   968   968   968 MxSgAt=   104 MxSgA2=   102.
 Leave Link  302 at Thu Jan 30 16:31:32 2025, MaxMem=  5368709120 cpu:        65.0
 (Enter /home/k0335/k033513/app/g09/l303.exe)
 DipDrv:  MaxL=1.
 Leave Link  303 at Thu Jan 30 16:31:32 2025, MaxMem=  5368709120 cpu:         2.3
 (Enter /home/k0335/k033513/app/g09/l401.exe)
 ExpMin= 1.61D-01 ExpMax= 7.00D+03 ExpMxC= 1.05D+03 IAcc=1 IRadAn=         1 AccDes= 0.00D+00
 Harris functional with IExCor=20419 and IRadAn=       1 diagonalized for initial guess.
 HarFok:  IExCor=20419 AccDes= 0.00D+00 IRadAn=         1 IDoV= 1 UseB2=F ITyADJ=14
 ICtDFT=  3500011 ScaDFX=  1.000000  1.000000  1.000000  1.000000
 FoFCou: FMM=F IPFlag=           0 FMFlag=      100000 FMFlg1=        2001
         NFxFlg=           0 DoJE=T BraDBF=F KetDBF=T FulRan=T
         wScrn=  0.000000 ICntrl=     500 IOpCl=  0 I1Cent=   200000004 NGrid=           0
         NMat0=    1 NMatS0=      1 NMatT0=    0 NMatD0=    1 NMtDS0=    0 NMtDT0=    0
 Symmetry not used in FoFCou.
 Harris En= -4951.39904152226    
 JPrj=0 DoOrth=F DoCkMO=F.
 Leave Link  401 at Thu Jan 30 16:31:34 2025, MaxMem=  5368709120 cpu:        58.8
 (Enter /home/k0335/k033513/app/g09/l502.exe)
 Closed shell SCF:
 Using DIIS extrapolation, IDIIS=  1040.
 Two-electron integral symmetry not used.
 IVT=     4972358 IEndB=     4972358 NGot=  5368709120 MDV=  5365393083
 LenX=  5365393083 LenY=  5363753403
 Requested convergence on RMS density matrix=1.00D-08 within 128 cycles.
 Requested convergence on MAX density matrix=1.00D-06.
 Requested convergence on             energy=1.00D-06.
 No special actions if energy rises.
 Fock matrices will be formed incrementally for  20 cycles.

 Cycle   1  Pass 1  IDiag  1:
 FoFJK:  IHMeth= 1 ICntrl=       0 DoSepK=T KAlg= 0 I1Cent=   0 FoldK=F
 IRaf=         1 NMat=   1 IRICut=       1 DoRegI=T DoRafI=F ISym2E= 0.
 FoFCou: FMM=T IPFlag=           0 FMFlag=      100000 FMFlg1=        2001
         NFxFlg=           0 DoJE=T BraDBF=F KetDBF=F FulRan=T
         wScrn=  0.000000 ICntrl=     500 IOpCl=  0 I1Cent=           0 NGrid=           0
         NMat0=    1 NMatS0=      1 NMatT0=    0 NMatD0=    1 NMtDS0=    0 NMtDT0=    0
 Symmetry not used in FoFCou.
 FMM levels:  10  Number of levels for PrismC:   9
 Inv3:  Mode=1 IEnd=   190275888.
 Iteration    1 A*A^-1 deviation from unit magnitude is 7.66D-15 for   7932.
 Iteration    1 A*A^-1 deviation from orthogonality  is 2.95D-15 for   7304   6804.
 Iteration    1 A^-1*A deviation from unit magnitude is 7.88D-15 for   7932.
 Iteration    1 A^-1*A deviation from orthogonality  is 2.93D-12 for   7486   7484.
 E= -5109.44317796814    
 DIIS: error= 5.98D-02 at cycle   1 NSaved=   1.
 NSaved= 1 IEnMin= 1 EnMin= -5109.44317796814     IErMin= 1 ErrMin= 5.98D-02
 ErrMax= 5.98D-02  0.00D+00 EMaxC= 1.00D-01 BMatC= 4.35D+00 BMatP= 4.35D+00
 IDIUse=3 WtCom= 4.02D-01 WtEn= 5.98D-01
 Coeff-Com:  0.100D+01
 Coeff-En:   0.100D+01
 Coeff:      0.100D+01
 Gap=     0.378 Goal=   None    Shift=    0.000
 GapD=    0.378 DampG=1.000 DampE=0.500 DampFc=0.5000 IDamp=-1.
 Damping current iteration by 5.00D-01
 RMSDP=2.07D-03 MaxDP=1.34D-01              OVMax= 1.37D-01

 Cycle   2  Pass 1  IDiag  1:
 RMSU=  1.03D-03    CP:  9.99D-01
 E= -5110.32031652016     Delta-E=       -0.877138552016 Rises=F Damp=T
 DIIS: error= 3.22D-02 at cycle   2 NSaved=   2.
 NSaved= 2 IEnMin= 2 EnMin= -5110.32031652016     IErMin= 2 ErrMin= 3.22D-02
 ErrMax= 3.22D-02  0.00D+00 EMaxC= 1.00D-01 BMatC= 5.75D-01 BMatP= 4.35D+00
 IDIUse=3 WtCom= 6.78D-01 WtEn= 3.22D-01
 Coeff-Com: -0.244D+00 0.124D+01
 Coeff-En:   0.000D+00 0.100D+01
 Coeff:     -0.165D+00 0.117D+01
 Gap=     0.410 Goal=   None    Shift=    0.000
 RMSDP=6.51D-04 MaxDP=4.95D-02 DE=-8.77D-01 OVMax= 1.16D-01

 Cycle   3  Pass 1  IDiag  1:
 RMSU=  6.14D-04    CP:  9.98D-01  1.21D+00
 E= -5111.01795970066     Delta-E=       -0.697643180501 Rises=F Damp=F
 DIIS: error= 9.51D-03 at cycle   3 NSaved=   3.
 NSaved= 3 IEnMin= 3 EnMin= -5111.01795970066     IErMin= 3 ErrMin= 9.51D-03
 ErrMax= 9.51D-03  0.00D+00 EMaxC= 1.00D-01 BMatC= 2.66D-01 BMatP= 5.75D-01
 IDIUse=3 WtCom= 9.05D-01 WtEn= 9.51D-02
 Coeff-Com: -0.187D+00 0.585D+00 0.602D+00
 Coeff-En:   0.000D+00 0.000D+00 0.100D+01
 Coeff:     -0.170D+00 0.530D+00 0.640D+00
 Gap=     0.377 Goal=   None    Shift=    0.000
 RMSDP=4.50D-04 MaxDP=5.78D-02 DE=-6.98D-01 OVMax= 8.18D-02

 Cycle   4  Pass 1  IDiag  1:
 RMSU=  2.45D-04    CP:  9.97D-01  1.38D+00  4.56D-01
 E= -5111.16869020037     Delta-E=       -0.150730499710 Rises=F Damp=F
 DIIS: error= 5.12D-03 at cycle   4 NSaved=   4.
 NSaved= 4 IEnMin= 4 EnMin= -5111.16869020037     IErMin= 4 ErrMin= 5.12D-03
 ErrMax= 5.12D-03  0.00D+00 EMaxC= 1.00D-01 BMatC= 5.88D-02 BMatP= 2.66D-01
 IDIUse=3 WtCom= 9.49D-01 WtEn= 5.12D-02
 Coeff-Com: -0.634D-01 0.148D+00 0.361D+00 0.554D+00
 Coeff-En:   0.000D+00 0.000D+00 0.188D+00 0.812D+00
 Coeff:     -0.602D-01 0.141D+00 0.352D+00 0.567D+00
 Gap=     0.374 Goal=   None    Shift=    0.000
 RMSDP=1.75D-04 MaxDP=2.37D-02 DE=-1.51D-01 OVMax= 2.73D-02

 Cycle   5  Pass 1  IDiag  1:
 RMSU=  6.65D-05    CP:  9.97D-01  1.36D+00  6.56D-01  5.81D-01
 E= -5111.20899706567     Delta-E=       -0.040306865299 Rises=F Damp=F
 DIIS: error= 8.61D-04 at cycle   5 NSaved=   5.
 NSaved= 5 IEnMin= 5 EnMin= -5111.20899706567     IErMin= 5 ErrMin= 8.61D-04
 ErrMax= 8.61D-04  0.00D+00 EMaxC= 1.00D-01 BMatC= 2.63D-03 BMatP= 5.88D-02
 IDIUse=3 WtCom= 9.91D-01 WtEn= 8.61D-03
 Coeff-Com: -0.209D-01 0.415D-01 0.154D+00 0.307D+00 0.518D+00
 Coeff-En:   0.000D+00 0.000D+00 0.000D+00 0.000D+00 0.100D+01
 Coeff:     -0.208D-01 0.412D-01 0.153D+00 0.305D+00 0.522D+00
 Gap=     0.370 Goal=   None    Shift=    0.000
 RMSDP=3.17D-05 MaxDP=3.29D-03 DE=-4.03D-02 OVMax= 4.77D-03

 Cycle   6  Pass 1  IDiag  1:
 RMSU=  1.60D-05    CP:  9.97D-01  1.37D+00  6.48D-01  6.33D-01  6.62D-01
 E= -5111.21088363327     Delta-E=       -0.001886567603 Rises=F Damp=F
 DIIS: error= 8.91D-05 at cycle   6 NSaved=   6.
 NSaved= 6 IEnMin= 6 EnMin= -5111.21088363327     IErMin= 6 ErrMin= 8.91D-05
 ErrMax= 8.91D-05  0.00D+00 EMaxC= 1.00D-01 BMatC= 4.20D-05 BMatP= 2.63D-03
 IDIUse=1 WtCom= 1.00D+00 WtEn= 0.00D+00
 Coeff-Com: -0.120D-02 0.101D-02 0.168D-01 0.433D-01 0.136D+00 0.804D+00
 Coeff:     -0.120D-02 0.101D-02 0.168D-01 0.433D-01 0.136D+00 0.804D+00
 Gap=     0.370 Goal=   None    Shift=    0.000
 RMSDP=6.90D-06 MaxDP=5.13D-04 DE=-1.89D-03 OVMax= 7.55D-04

 Cycle   7  Pass 1  IDiag  1:
 RMSU=  5.34D-06    CP:  9.97D-01  1.37D+00  6.52D-01  6.43D-01  7.02D-01
                    CP:  9.71D-01
 E= -5111.21091825842     Delta-E=       -0.000034625144 Rises=F Damp=F
 DIIS: error= 4.33D-05 at cycle   7 NSaved=   7.
 NSaved= 7 IEnMin= 7 EnMin= -5111.21091825842     IErMin= 7 ErrMin= 4.33D-05
 ErrMax= 4.33D-05  0.00D+00 EMaxC= 1.00D-01 BMatC= 1.09D-05 BMatP= 4.20D-05
 IDIUse=1 WtCom= 1.00D+00 WtEn= 0.00D+00
 Coeff-Com:  0.249D-02-0.538D-02-0.137D-01-0.234D-01-0.959D-02 0.363D+00
 Coeff-Com:  0.686D+00
 Coeff:      0.249D-02-0.538D-02-0.137D-01-0.234D-01-0.959D-02 0.363D+00
 Coeff:      0.686D+00
 Gap=     0.370 Goal=   None    Shift=    0.000
 RMSDP=2.71D-06 MaxDP=2.23D-04 DE=-3.46D-05 OVMax= 4.28D-04

 Cycle   8  Pass 1  IDiag  1:
 RMSU=  1.46D-06    CP:  9.97D-01  1.37D+00  6.53D-01  6.43D-01  7.18D-01
                    CP:  1.07D+00  8.21D-01
 E= -5111.21092840564     Delta-E=       -0.000010147221 Rises=F Damp=F
 DIIS: error= 7.97D-06 at cycle   8 NSaved=   8.
 NSaved= 8 IEnMin= 8 EnMin= -5111.21092840564     IErMin= 8 ErrMin= 7.97D-06
 ErrMax= 7.97D-06  0.00D+00 EMaxC= 1.00D-01 BMatC= 3.61D-07 BMatP= 1.09D-05
 IDIUse=1 WtCom= 1.00D+00 WtEn= 0.00D+00
 Coeff-Com:  0.804D-03-0.166D-02-0.482D-02-0.964D-02-0.948D-02 0.569D-01
 Coeff-Com:  0.186D+00 0.782D+00
 Coeff:      0.804D-03-0.166D-02-0.482D-02-0.964D-02-0.948D-02 0.569D-01
 Coeff:      0.186D+00 0.782D+00
 Gap=     0.370 Goal=   None    Shift=    0.000
 RMSDP=6.77D-07 MaxDP=9.87D-05 DE=-1.01D-05 OVMax= 1.17D-04

 Cycle   9  Pass 1  IDiag  1:
 RMSU=  4.71D-07    CP:  9.97D-01  1.37D+00  6.53D-01  6.42D-01  7.21D-01
                    CP:  1.09D+00  8.69D-01  1.08D+00
 E= -5111.21092875181     Delta-E=       -0.000000346172 Rises=F Damp=F
 DIIS: error= 4.69D-06 at cycle   9 NSaved=   9.
 NSaved= 9 IEnMin= 9 EnMin= -5111.21092875181     IErMin= 9 ErrMin= 4.69D-06
 ErrMax= 4.69D-06  0.00D+00 EMaxC= 1.00D-01 BMatC= 9.09D-08 BMatP= 3.61D-07
 IDIUse=1 WtCom= 1.00D+00 WtEn= 0.00D+00
 Coeff-Com: -0.316D-04 0.103D-03 0.661D-04-0.731D-03-0.216D-02-0.312D-01
 Coeff-Com: -0.208D-01 0.358D+00 0.697D+00
 Coeff:     -0.316D-04 0.103D-03 0.661D-04-0.731D-03-0.216D-02-0.312D-01
 Coeff:     -0.208D-01 0.358D+00 0.697D+00
 Gap=     0.370 Goal=   None    Shift=    0.000
 RMSDP=2.97D-07 MaxDP=4.40D-05 DE=-3.46D-07 OVMax= 7.28D-05

 Cycle  10  Pass 1  IDiag  1:
 RMSU=  1.74D-07    CP:  9.97D-01  1.37D+00  6.53D-01  6.42D-01  7.22D-01
                    CP:  1.09D+00  8.88D-01  1.19D+00  9.01D-01
 E= -5111.21092883476     Delta-E=       -0.000000082946 Rises=F Damp=F
 DIIS: error= 1.62D-06 at cycle  10 NSaved=  10.
 NSaved=10 IEnMin=10 EnMin= -5111.21092883476     IErMin=10 ErrMin= 1.62D-06
 ErrMax= 1.62D-06  0.00D+00 EMaxC= 1.00D-01 BMatC= 7.27D-09 BMatP= 9.09D-08
 IDIUse=1 WtCom= 1.00D+00 WtEn= 0.00D+00
 Coeff-Com: -0.875D-04 0.194D-03 0.502D-03 0.635D-03 0.341D-03-0.165D-01
 Coeff-Com: -0.249D-01 0.475D-01 0.254D+00 0.738D+00
 Coeff:     -0.875D-04 0.194D-03 0.502D-03 0.635D-03 0.341D-03-0.165D-01
 Coeff:     -0.249D-01 0.475D-01 0.254D+00 0.738D+00
 Gap=     0.370 Goal=   None    Shift=    0.000
 RMSDP=1.02D-07 MaxDP=1.96D-05 DE=-8.29D-08 OVMax= 2.07D-05

 Cycle  11  Pass 1  IDiag  1:
 RMSU=  6.55D-08    CP:  9.97D-01  1.37D+00  6.53D-01  6.42D-01  7.22D-01
                    CP:  1.09D+00  8.93D-01  1.22D+00  9.99D-01  9.28D-01
 E= -5111.21092884152     Delta-E=       -0.000000006763 Rises=F Damp=F
 DIIS: error= 1.25D-06 at cycle  11 NSaved=  11.
 NSaved=11 IEnMin=11 EnMin= -5111.21092884152     IErMin=11 ErrMin= 1.25D-06
 ErrMax= 1.25D-06  0.00D+00 EMaxC= 1.00D-01 BMatC= 2.06D-09 BMatP= 7.27D-09
 IDIUse=1 WtCom= 1.00D+00 WtEn= 0.00D+00
 Coeff-Com: -0.451D-04 0.961D-04 0.277D-03 0.433D-03 0.479D-03-0.579D-02
 Coeff-Com: -0.118D-01-0.177D-01 0.595D-01 0.412D+00 0.562D+00
 Coeff:     -0.451D-04 0.961D-04 0.277D-03 0.433D-03 0.479D-03-0.579D-02
 Coeff:     -0.118D-01-0.177D-01 0.595D-01 0.412D+00 0.562D+00
 Gap=     0.370 Goal=   None    Shift=    0.000
 RMSDP=3.92D-08 MaxDP=7.95D-06 DE=-6.76D-09 OVMax= 9.50D-06

 Cycle  12  Pass 1  IDiag  1:
 RMSU=  2.28D-08    CP:  9.97D-01  1.37D+00  6.53D-01  6.42D-01  7.22D-01
                    CP:  1.09D+00  8.94D-01  1.23D+00  1.01D+00  1.04D+00
                    CP:  7.40D-01
 E= -5111.21092884337     Delta-E=       -0.000000001848 Rises=F Damp=F
 DIIS: error= 2.38D-07 at cycle  12 NSaved=  12.
 NSaved=12 IEnMin=12 EnMin= -5111.21092884337     IErMin=12 ErrMin= 2.38D-07
 ErrMax= 2.38D-07  0.00D+00 EMaxC= 1.00D-01 BMatC= 1.54D-10 BMatP= 2.06D-09
 IDIUse=1 WtCom= 1.00D+00 WtEn= 0.00D+00
 Coeff-Com: -0.672D-05 0.132D-04 0.516D-04 0.961D-04 0.193D-03-0.951D-04
 Coeff-Com: -0.144D-02-0.149D-01-0.109D-01 0.665D-01 0.231D+00 0.729D+00
 Coeff:     -0.672D-05 0.132D-04 0.516D-04 0.961D-04 0.193D-03-0.951D-04
 Coeff:     -0.144D-02-0.149D-01-0.109D-01 0.665D-01 0.231D+00 0.729D+00
 Gap=     0.370 Goal=   None    Shift=    0.000
 RMSDP=1.34D-08 MaxDP=2.33D-06 DE=-1.85D-09 OVMax= 2.59D-06

 Cycle  13  Pass 1  IDiag  1:
 RMSU=  7.39D-09    CP:  9.97D-01  1.37D+00  6.53D-01  6.42D-01  7.22D-01
                    CP:  1.09D+00  8.94D-01  1.23D+00  1.02D+00  1.06D+00
                    CP:  8.43D-01  8.81D-01
 E= -5111.21092884374     Delta-E=       -0.000000000367 Rises=F Damp=F
 DIIS: error= 1.01D-07 at cycle  13 NSaved=  13.
 NSaved=13 IEnMin=13 EnMin= -5111.21092884374     IErMin=13 ErrMin= 1.01D-07
 ErrMax= 1.01D-07  0.00D+00 EMaxC= 1.00D-01 BMatC= 2.64D-11 BMatP= 1.54D-10
 IDIUse=1 WtCom= 1.00D+00 WtEn= 0.00D+00
 Coeff-Com:  0.252D-05-0.592D-05-0.853D-05-0.928D-05 0.446D-04 0.686D-03
 Coeff-Com:  0.836D-03-0.453D-02-0.116D-01-0.199D-01 0.367D-01 0.349D+00
 Coeff-Com:  0.649D+00
 Coeff:      0.252D-05-0.592D-05-0.853D-05-0.928D-05 0.446D-04 0.686D-03
 Coeff:      0.836D-03-0.453D-02-0.116D-01-0.199D-01 0.367D-01 0.349D+00
 Coeff:      0.649D+00
 Gap=     0.370 Goal=   None    Shift=    0.000
 RMSDP=4.42D-09 MaxDP=6.36D-07 DE=-3.67D-10 OVMax= 9.75D-07

 Error on total polarization charges =  0.00414
 SCF Done:  E(RCAM-B3LYP) =  -5111.21092884     A.U. after   13 cycles
            NFock= 13  Conv=0.44D-08     -V/T= 2.0077
 KE= 5.072319740698D+03 PE=-3.903873040342D+04 EE= 1.536346933568D+04
 Leave Link  502 at Thu Jan 30 16:34:28 2025, MaxMem=  5368709120 cpu:      3693.3
 (Enter /home/k0335/k033513/app/g09/l601.exe)
 Copying SCF densities to generalized density rwf, IOpCl= 0 IROHF=0.

 **********************************************************************

            Population analysis using the SCF density.

 **********************************************************************

 Alpha  occ. eigenvalues --  -24.83686 -24.83491 -24.83389 -24.83383 -24.83266
 Alpha  occ. eigenvalues --  -24.83170 -24.83094 -24.82898 -24.82859 -24.82829
 Alpha  occ. eigenvalues --  -24.82816 -24.82805 -24.82731 -24.82662 -24.81967
 Alpha  occ. eigenvalues --  -24.81908 -24.81789 -24.81739 -24.81655 -24.81484
 Alpha  occ. eigenvalues --  -24.81070 -24.81064 -24.80704 -24.80702 -24.80700
 Alpha  occ. eigenvalues --  -24.80600 -24.80414 -24.79822 -19.32533 -19.32382
 Alpha  occ. eigenvalues --  -19.32321 -19.32227 -19.22323 -19.22267 -19.22234
 Alpha  occ. eigenvalues --  -19.22187 -19.22157 -19.22079 -14.49351 -14.49246
 Alpha  occ. eigenvalues --  -14.49067 -14.48974 -14.48806 -14.48768 -10.59384
 Alpha  occ. eigenvalues --  -10.59128 -10.59120 -10.59063 -10.52543 -10.52484
 Alpha  occ. eigenvalues --  -10.52427 -10.52404 -10.46456 -10.46381 -10.46162
 Alpha  occ. eigenvalues --  -10.45939 -10.43554 -10.43515 -10.43503 -10.43418
 Alpha  occ. eigenvalues --  -10.43349 -10.43321 -10.31939 -10.31906 -10.31417
 Alpha  occ. eigenvalues --  -10.31067 -10.31046 -10.30978 -10.28859 -10.28778
 Alpha  occ. eigenvalues --  -10.28731 -10.28408 -10.27776 -10.27738 -10.27662
 Alpha  occ. eigenvalues --  -10.27513  -1.42976  -1.42747  -1.42681  -1.42637
 Alpha  occ. eigenvalues --   -1.38849  -1.38774  -1.38389  -1.38377  -1.36198
 Alpha  occ. eigenvalues --   -1.36004  -1.35723  -1.35187  -1.33548  -1.33245
 Alpha  occ. eigenvalues --   -1.33239  -1.33197  -1.32884  -1.32535  -1.32389
 Alpha  occ. eigenvalues --   -1.32352  -1.31610  -1.31515  -1.31022  -1.30790
 Alpha  occ. eigenvalues --   -1.29896  -1.29866  -1.29714  -1.29023  -1.20562
 Alpha  occ. eigenvalues --   -1.20467  -1.20442  -1.20427  -1.20334  -1.20157
 Alpha  occ. eigenvalues --   -1.15651  -1.15583  -1.15444  -1.15413  -1.07165
 Alpha  occ. eigenvalues --   -1.07007  -1.05017  -1.04490  -1.04313  -1.04142
 Alpha  occ. eigenvalues --   -0.91887  -0.91636  -0.91574  -0.91288  -0.88752
 Alpha  occ. eigenvalues --   -0.87901  -0.87325  -0.86926  -0.86561  -0.83666
 Alpha  occ. eigenvalues --   -0.83023  -0.82919  -0.82199  -0.80248  -0.79814
 Alpha  occ. eigenvalues --   -0.79465  -0.79289  -0.79145  -0.76522  -0.76188
 Alpha  occ. eigenvalues --   -0.75948  -0.75533  -0.74427  -0.73920  -0.73879
 Alpha  occ. eigenvalues --   -0.72639  -0.71912  -0.71567  -0.71433  -0.71330
 Alpha  occ. eigenvalues --   -0.71137  -0.70977  -0.70816  -0.70701  -0.70590
 Alpha  occ. eigenvalues --   -0.70462  -0.70210  -0.70114  -0.69958  -0.69864
 Alpha  occ. eigenvalues --   -0.69631  -0.69292  -0.69082  -0.68803  -0.67304
 Alpha  occ. eigenvalues --   -0.66991  -0.66865  -0.66778  -0.66093  -0.65919
 Alpha  occ. eigenvalues --   -0.65870  -0.65625  -0.63856  -0.63819  -0.63541
 Alpha  occ. eigenvalues --   -0.63311  -0.62802  -0.62089  -0.61347  -0.61046
 Alpha  occ. eigenvalues --   -0.60928  -0.60808  -0.60366  -0.59966  -0.59931
 Alpha  occ. eigenvalues --   -0.59861  -0.59527  -0.59358  -0.57414  -0.57291
 Alpha  occ. eigenvalues --   -0.57189  -0.57090  -0.56769  -0.56612  -0.56512
 Alpha  occ. eigenvalues --   -0.56283  -0.56248  -0.56191  -0.55708  -0.55453
 Alpha  occ. eigenvalues --   -0.55381  -0.55270  -0.55119  -0.54999  -0.54650
 Alpha  occ. eigenvalues --   -0.54352  -0.54249  -0.54086  -0.54002  -0.53957
 Alpha  occ. eigenvalues --   -0.53945  -0.53816  -0.53701  -0.53429  -0.53265
 Alpha  occ. eigenvalues --   -0.53127  -0.53063  -0.52943  -0.52816  -0.52673
 Alpha  occ. eigenvalues --   -0.52579  -0.52493  -0.52346  -0.52221  -0.52047
 Alpha  occ. eigenvalues --   -0.51887  -0.51791  -0.51526  -0.51481  -0.51346
 Alpha  occ. eigenvalues --   -0.51287  -0.51199  -0.50973  -0.50809  -0.50750
 Alpha  occ. eigenvalues --   -0.50523  -0.50303  -0.50278  -0.50251  -0.50214
 Alpha  occ. eigenvalues --   -0.50100  -0.49962  -0.49960  -0.49841  -0.49771
 Alpha  occ. eigenvalues --   -0.49608  -0.49506  -0.49417  -0.49387  -0.49284
 Alpha  occ. eigenvalues --   -0.49143  -0.49049  -0.48820  -0.48758  -0.48719
 Alpha  occ. eigenvalues --   -0.48242  -0.48206  -0.48091  -0.47888  -0.47683
 Alpha  occ. eigenvalues --   -0.47557  -0.47368  -0.47293  -0.46716  -0.46339
 Alpha  occ. eigenvalues --   -0.46144  -0.46002  -0.45828  -0.45301  -0.45204
 Alpha  occ. eigenvalues --   -0.44908  -0.44813  -0.44440  -0.44230  -0.43825
 Alpha  occ. eigenvalues --   -0.42978  -0.42565  -0.42186  -0.42142  -0.41971
 Alpha  occ. eigenvalues --   -0.41950  -0.41353  -0.40596  -0.40490  -0.40439
 Alpha  occ. eigenvalues --   -0.38367  -0.38257  -0.38213  -0.38119  -0.36741
 Alpha  occ. eigenvalues --   -0.35761  -0.35465  -0.34791  -0.34554  -0.34430
 Alpha  occ. eigenvalues --   -0.34190  -0.34104
 Alpha virt. eigenvalues --    0.02903   0.03123   0.03318   0.03375   0.10855
 Alpha virt. eigenvalues --    0.11037   0.11120   0.11190   0.11679   0.12044
 Alpha virt. eigenvalues --    0.12279   0.12719   0.13591   0.14040   0.14735
 Alpha virt. eigenvalues --    0.15120   0.15420   0.15553   0.15819   0.16380
 Alpha virt. eigenvalues --    0.16673   0.16772   0.17066   0.17450   0.17887
 Alpha virt. eigenvalues --    0.18102   0.18415   0.18510   0.18865   0.19053
 Alpha virt. eigenvalues --    0.19375   0.19415   0.19628   0.19695   0.19770
 Alpha virt. eigenvalues --    0.19920   0.20136   0.20446   0.20461   0.20731
 Alpha virt. eigenvalues --    0.20877   0.20924   0.21114   0.21301   0.21497
 Alpha virt. eigenvalues --    0.21626   0.22011   0.22179   0.22255   0.22438
 Alpha virt. eigenvalues --    0.22583   0.22683   0.22986   0.23311   0.23357
 Alpha virt. eigenvalues --    0.23454   0.23565   0.23921   0.24462   0.24529
 Alpha virt. eigenvalues --    0.24871   0.24925   0.25048   0.25427   0.25664
 Alpha virt. eigenvalues --    0.25767   0.25971   0.26149   0.26382   0.26477
 Alpha virt. eigenvalues --    0.26701   0.26912   0.27244   0.27594   0.28349
 Alpha virt. eigenvalues --    0.28730   0.29015   0.29201   0.29327   0.29463
 Alpha virt. eigenvalues --    0.29585   0.29648   0.29832   0.30052   0.30083
 Alpha virt. eigenvalues --    0.30434   0.30803   0.31269   0.31642   0.31666
 Alpha virt. eigenvalues --    0.31874   0.32051   0.32077   0.32517   0.33075
 Alpha virt. eigenvalues --    0.33762   0.34149   0.34756   0.34951   0.35052
 Alpha virt. eigenvalues --    0.36189   0.36608   0.37015   0.37388   0.38513
 Alpha virt. eigenvalues --    0.41512   0.41856   0.42174   0.42631   0.48669
 Alpha virt. eigenvalues --    0.49812   0.50046   0.50397   0.50763   0.50820
 Alpha virt. eigenvalues --    0.50862   0.51366   0.51477   0.52081   0.52120
 Alpha virt. eigenvalues --    0.52332   0.52786   0.53082   0.53209   0.53544
 Alpha virt. eigenvalues --    0.53970   0.54022   0.54331   0.54505   0.54825
 Alpha virt. eigenvalues --    0.54917   0.55128   0.55470   0.55758   0.55834
 Alpha virt. eigenvalues --    0.56214   0.56717   0.56956   0.57373   0.57418
 Alpha virt. eigenvalues --    0.57802   0.57967   0.57983   0.58244   0.58426
 Alpha virt. eigenvalues --    0.58634   0.58755   0.59024   0.59681   0.59765
 Alpha virt. eigenvalues --    0.59872   0.60411   0.60565   0.61039   0.61450
 Alpha virt. eigenvalues --    0.61818   0.62487   0.62867   0.63074   0.63357
 Alpha virt. eigenvalues --    0.63613   0.63779   0.64224   0.64339   0.64810
 Alpha virt. eigenvalues --    0.65132   0.65419   0.65826   0.66285   0.66653
 Alpha virt. eigenvalues --    0.67379   0.67663   0.67896   0.68351   0.69138
 Alpha virt. eigenvalues --    0.69810   0.70396   0.70634   0.70890   0.71512
 Alpha virt. eigenvalues --    0.71934   0.72252   0.72508   0.72768   0.73037
 Alpha virt. eigenvalues --    0.73419   0.73708   0.74509   0.74659   0.75014
 Alpha virt. eigenvalues --    0.76697   0.77481   0.78740   0.78924   0.79425
 Alpha virt. eigenvalues --    0.80664   0.81353   0.82156   0.82893   0.83155
 Alpha virt. eigenvalues --    0.83401   0.83571   0.83851   0.84200   0.84423
 Alpha virt. eigenvalues --    0.84719   0.85159   0.85530   0.86196   0.86406
 Alpha virt. eigenvalues --    0.86700   0.87063   0.87380   0.87675   0.87801
 Alpha virt. eigenvalues --    0.88195   0.88555   0.89435   0.89637   0.89713
 Alpha virt. eigenvalues --    0.90218   0.90387   0.90742   0.91096   0.91228
 Alpha virt. eigenvalues --    0.91928   0.92302   0.92601   0.92722   0.93120
 Alpha virt. eigenvalues --    0.93343   0.93503   0.93774   0.93974   0.94543
 Alpha virt. eigenvalues --    0.94880   0.94947   0.95476   0.95642   0.96004
 Alpha virt. eigenvalues --    0.96032   0.96300   0.96685   0.97211   0.97334
 Alpha virt. eigenvalues --    0.97652   0.98117   0.98326   0.98645   0.99041
 Alpha virt. eigenvalues --    0.99194   0.99744   0.99873   1.00497   1.01277
 Alpha virt. eigenvalues --    1.01629   1.01749   1.02158   1.02272   1.02643
 Alpha virt. eigenvalues --    1.02841   1.03035   1.03860   1.04226   1.04368
 Alpha virt. eigenvalues --    1.04580   1.04668   1.04995   1.05922   1.06182
 Alpha virt. eigenvalues --    1.06904   1.07311   1.08121   1.08496   1.09390
 Alpha virt. eigenvalues --    1.09630   1.10595   1.11011   1.11065   1.11196
 Alpha virt. eigenvalues --    1.11389   1.11615   1.11847   1.12141   1.12372
 Alpha virt. eigenvalues --    1.12839   1.13012   1.13243   1.13564   1.13685
 Alpha virt. eigenvalues --    1.13893   1.14319   1.14493   1.14933   1.15183
 Alpha virt. eigenvalues --    1.15512   1.15942   1.16160   1.16394   1.16967
 Alpha virt. eigenvalues --    1.17240   1.17607   1.17810   1.18312   1.18820
 Alpha virt. eigenvalues --    1.19122   1.19287   1.19432   1.20121   1.20365
 Alpha virt. eigenvalues --    1.20554   1.20905   1.21442   1.21561   1.21941
 Alpha virt. eigenvalues --    1.22068   1.22650   1.22886   1.22994   1.24050
 Alpha virt. eigenvalues --    1.24365   1.24584   1.24889   1.24911   1.25227
 Alpha virt. eigenvalues --    1.25498   1.25750   1.25803   1.26014   1.26418
 Alpha virt. eigenvalues --    1.27091   1.28035   1.28145   1.29136   1.29429
 Alpha virt. eigenvalues --    1.29615   1.29702   1.29839   1.30288   1.31464
 Alpha virt. eigenvalues --    1.31710   1.32366   1.32897   1.33549   1.33708
 Alpha virt. eigenvalues --    1.33888   1.34231   1.34862   1.35668   1.35774
 Alpha virt. eigenvalues --    1.36312   1.36778   1.36931   1.36972   1.37188
 Alpha virt. eigenvalues --    1.37347   1.37447   1.37979   1.38119   1.38253
 Alpha virt. eigenvalues --    1.38288   1.38527   1.38702   1.38927   1.38959
 Alpha virt. eigenvalues --    1.39279   1.39595   1.39696   1.40030   1.40346
 Alpha virt. eigenvalues --    1.40818   1.40922   1.41245   1.41272   1.41431
 Alpha virt. eigenvalues --    1.41613   1.41959   1.42570   1.42661   1.42696
 Alpha virt. eigenvalues --    1.42811   1.42970   1.43140   1.43245   1.43565
 Alpha virt. eigenvalues --    1.43725   1.43951   1.44215   1.44372   1.44542
 Alpha virt. eigenvalues --    1.45125   1.45224   1.45355   1.45693   1.45953
 Alpha virt. eigenvalues --    1.46147   1.46275   1.46736   1.47217   1.47574
 Alpha virt. eigenvalues --    1.48239   1.48636   1.48746   1.48939   1.50503
 Alpha virt. eigenvalues --    1.50713   1.51530   1.51651   1.52011   1.52195
 Alpha virt. eigenvalues --    1.52381   1.53192   1.53628   1.54743   1.54815
 Alpha virt. eigenvalues --    1.55174   1.55398   1.55490   1.55826   1.55944
 Alpha virt. eigenvalues --    1.56093   1.56185   1.56387   1.56682   1.57323
 Alpha virt. eigenvalues --    1.57864   1.58325   1.58501   1.58787   1.59023
 Alpha virt. eigenvalues --    1.59222   1.59840   1.60519   1.60926   1.61668
 Alpha virt. eigenvalues --    1.62246   1.62597   1.63668   1.63935   1.64509
 Alpha virt. eigenvalues --    1.64675   1.65187   1.65605   1.66031   1.67121
 Alpha virt. eigenvalues --    1.67522   1.67863   1.68344   1.68981   1.69717
 Alpha virt. eigenvalues --    1.69854   1.70371   1.70697   1.71426   1.71790
 Alpha virt. eigenvalues --    1.72181   1.72451   1.72943   1.73121   1.73562
 Alpha virt. eigenvalues --    1.74037   1.74437   1.74501   1.74690   1.75083
 Alpha virt. eigenvalues --    1.75496   1.75709   1.75748   1.76286   1.76756
 Alpha virt. eigenvalues --    1.77969   1.78593   1.78979   1.79074   1.79196
 Alpha virt. eigenvalues --    1.79701   1.80329   1.80571   1.80929   1.80972
 Alpha virt. eigenvalues --    1.81536   1.81652   1.81868   1.81921   1.82329
 Alpha virt. eigenvalues --    1.82632   1.83021   1.83169   1.83362   1.83594
 Alpha virt. eigenvalues --    1.84176   1.84622   1.84760   1.85335   1.85623
 Alpha virt. eigenvalues --    1.85754   1.85787   1.86056   1.86073   1.86275
 Alpha virt. eigenvalues --    1.86408   1.86603   1.86772   1.87213   1.87411
 Alpha virt. eigenvalues --    1.87675   1.87751   1.87953   1.88052   1.88215
 Alpha virt. eigenvalues --    1.88228   1.88468   1.88498   1.88584   1.88853
 Alpha virt. eigenvalues --    1.89190   1.89250   1.89429   1.89854   1.90370
 Alpha virt. eigenvalues --    1.90442   1.90865   1.90988   1.91481   1.91689
 Alpha virt. eigenvalues --    1.92097   1.92209   1.92350   1.92487   1.92924
 Alpha virt. eigenvalues --    1.92943   1.93315   1.93586   1.93738   1.93888
 Alpha virt. eigenvalues --    1.93992   1.94161   1.94222   1.94409   1.94569
 Alpha virt. eigenvalues --    1.94859   1.95510   1.95720   1.96085   1.96246
 Alpha virt. eigenvalues --    1.96455   1.96596   1.96896   1.97309   1.97399
 Alpha virt. eigenvalues --    1.97519   1.97739   1.97942   1.98184   1.98384
 Alpha virt. eigenvalues --    1.98466   1.98526   1.98703   1.98971   1.99325
 Alpha virt. eigenvalues --    1.99474   1.99844   1.99994   2.00202   2.00443
 Alpha virt. eigenvalues --    2.00606   2.00996   2.01079   2.01137   2.01333
 Alpha virt. eigenvalues --    2.01618   2.01744   2.01805   2.02044   2.02405
 Alpha virt. eigenvalues --    2.02552   2.02648   2.02935   2.03193   2.03526
 Alpha virt. eigenvalues --    2.03653   2.03871   2.04174   2.04256   2.04579
 Alpha virt. eigenvalues --    2.04749   2.04849   2.04938   2.05087   2.05601
 Alpha virt. eigenvalues --    2.05904   2.06277   2.06402   2.06519   2.06717
 Alpha virt. eigenvalues --    2.07156   2.07435   2.07649   2.07813   2.07883
 Alpha virt. eigenvalues --    2.08316   2.08531   2.08748   2.09066   2.09167
 Alpha virt. eigenvalues --    2.09219   2.09597   2.09695   2.09764   2.09957
 Alpha virt. eigenvalues --    2.10294   2.10331   2.10501   2.10556   2.10947
 Alpha virt. eigenvalues --    2.11142   2.11638   2.12174   2.12627   2.12865
 Alpha virt. eigenvalues --    2.12917   2.14782   2.16237   2.16277   2.16650
 Alpha virt. eigenvalues --    2.17000   2.17272   2.17480   2.18466   2.18662
 Alpha virt. eigenvalues --    2.19022   2.19358   2.19762   2.19787   2.19894
 Alpha virt. eigenvalues --    2.20088   2.20523   2.20707   2.21128   2.21502
 Alpha virt. eigenvalues --    2.21634   2.22019   2.22261   2.22453   2.23012
 Alpha virt. eigenvalues --    2.23307   2.23862   2.24029   2.24463   2.24575
 Alpha virt. eigenvalues --    2.25201   2.25600   2.25976   2.26263   2.26464
 Alpha virt. eigenvalues --    2.26797   2.26976   2.27627   2.28441   2.29312
 Alpha virt. eigenvalues --    2.29687   2.30435   2.31049   2.31156   2.31631
 Alpha virt. eigenvalues --    2.31723   2.32031   2.32321   2.32555   2.32745
 Alpha virt. eigenvalues --    2.33100   2.34026   2.34745   2.35147   2.35452
 Alpha virt. eigenvalues --    2.35478   2.35772   2.36288   2.36318   2.36462
 Alpha virt. eigenvalues --    2.36748   2.37112   2.37618   2.38558   2.38773
 Alpha virt. eigenvalues --    2.39111   2.39369   2.39592   2.40224   2.40417
 Alpha virt. eigenvalues --    2.40528   2.41160   2.41473   2.41867   2.42012
 Alpha virt. eigenvalues --    2.42394   2.42600   2.43039   2.43274   2.43344
 Alpha virt. eigenvalues --    2.43609   2.44202   2.44520   2.44685   2.45031
 Alpha virt. eigenvalues --    2.45391   2.45995   2.46445   2.46550   2.47039
 Alpha virt. eigenvalues --    2.47914   2.48284   2.48966   2.49450   2.49872
 Alpha virt. eigenvalues --    2.50893   2.51417   2.51507   2.51887   2.52209
 Alpha virt. eigenvalues --    2.53253   2.53623   2.54324   2.54869   2.55162
 Alpha virt. eigenvalues --    2.56159   2.56405   2.56889   2.57403   2.57690
 Alpha virt. eigenvalues --    2.58325   2.58591   2.59224   2.60196   2.60396
 Alpha virt. eigenvalues --    2.61589   2.61728   2.62340   2.62536   2.63076
 Alpha virt. eigenvalues --    2.63523   2.63893   2.64538   2.64806   2.65310
 Alpha virt. eigenvalues --    2.65951   2.66183   2.66327   2.66918   2.67592
 Alpha virt. eigenvalues --    2.68204   2.69051   2.70084   2.70456   2.71254
 Alpha virt. eigenvalues --    2.71383   2.71598   2.72748   2.73060   2.73449
 Alpha virt. eigenvalues --    2.74062   2.74269   2.75121   2.75250   2.75322
 Alpha virt. eigenvalues --    2.75803   2.76104   2.76374   2.76857   2.77018
 Alpha virt. eigenvalues --    2.77280   2.77607   2.78546   2.78842   2.79258
 Alpha virt. eigenvalues --    2.79723   2.79906   2.80076   2.80299   2.80659
 Alpha virt. eigenvalues --    2.81234   2.81938   2.82604   2.82935   2.83427
 Alpha virt. eigenvalues --    2.83655   2.83946   2.84275   2.85034   2.85332
 Alpha virt. eigenvalues --    2.85435   2.86040   2.86525   2.86953   2.86971
 Alpha virt. eigenvalues --    2.88378   2.88641   2.89133   2.89367   2.89791
 Alpha virt. eigenvalues --    2.90010   2.90179   2.90537   2.91652   2.92560
 Alpha virt. eigenvalues --    2.92828   2.93233   2.93506   2.93578   2.93690
 Alpha virt. eigenvalues --    2.94273   2.94365   2.94817   2.95280   2.96014
 Alpha virt. eigenvalues --    2.96081   2.96385   2.96732   2.97664   2.97730
 Alpha virt. eigenvalues --    2.98018   2.98106   2.98498   2.98755   2.99160
 Alpha virt. eigenvalues --    2.99509   2.99896   2.99943   3.00222   3.00848
 Alpha virt. eigenvalues --    3.02664   3.02877   3.03240   3.03685   3.04063
 Alpha virt. eigenvalues --    3.04382   3.04848   3.05365   3.05645   3.05804
 Alpha virt. eigenvalues --    3.06244   3.06354   3.06566   3.07154   3.07417
 Alpha virt. eigenvalues --    3.07820   3.08241   3.09037   3.09162   3.09345
 Alpha virt. eigenvalues --    3.09422   3.12884   3.14787   3.16038   3.16717
 Alpha virt. eigenvalues --    3.16860   3.17872   3.18059   3.18861   3.19559
 Alpha virt. eigenvalues --    3.20708   3.20785   3.21025   3.21250   3.21610
 Alpha virt. eigenvalues --    3.22081   3.22177   3.22709   3.24176   3.24233
 Alpha virt. eigenvalues --    3.28417   3.28876   3.28946   3.29800   3.31140
 Alpha virt. eigenvalues --    3.31527   3.32560   3.33084   3.33412   3.33861
 Alpha virt. eigenvalues --    3.36896   3.38138   3.38201   3.39287   3.41554
 Alpha virt. eigenvalues --    3.42369   3.42527   3.43454   3.43584   3.44261
 Alpha virt. eigenvalues --    3.45637   3.48943   3.49044   3.49126   3.49381
 Alpha virt. eigenvalues --    3.51365   3.56250   3.56843   3.57424   3.57584
 Alpha virt. eigenvalues --    3.59120   3.60218   3.61619   3.62827   3.62950
 Alpha virt. eigenvalues --    3.63543   3.64758   4.07561   4.08285   4.09242
 Alpha virt. eigenvalues --    4.11868   4.13225   4.14250   4.15228   4.15935
 Alpha virt. eigenvalues --    4.16598   4.19974   4.25127   4.25442   4.25935
 Alpha virt. eigenvalues --    4.27551   4.28087   4.30524   4.31209   4.33821
 Alpha virt. eigenvalues --    4.35245   4.37725   4.38288   4.38948   4.39110
 Alpha virt. eigenvalues --    4.40355   4.43288   4.44738   4.46101   4.47191
 Alpha virt. eigenvalues --    4.48288   4.49343   4.49966   4.51835   4.53036
 Alpha virt. eigenvalues --    4.56366   4.57610   4.58132   4.62677   4.63992
 Alpha virt. eigenvalues --    4.64917   4.66228   4.67792   4.68850   4.70089
 Alpha virt. eigenvalues --    4.72285   4.74475   4.75897   4.78294   4.79084
 Alpha virt. eigenvalues --    4.81151   4.82439   4.84174   4.85834   4.87002
 Alpha virt. eigenvalues --    4.89085   4.90917   4.91731   4.96779   4.98635
 Alpha virt. eigenvalues --    4.98927   5.03575   5.08716   5.22540   5.30253
 Alpha virt. eigenvalues --    5.31081   5.35550   5.37205   5.42882   5.47239
 Alpha virt. eigenvalues --    5.71801   5.84753   6.02277   6.09813   6.10744
 Alpha virt. eigenvalues --    6.19577   6.35219   6.48256
          Condensed to atoms (all electrons):
 Mulliken charges:
               1
     1  O   -0.537542
     2  C    0.823783
     3  N   -0.573961
     4  C   -0.058473
     5  C   -0.203069
     6  C   -0.265824
     7  C    0.546680
     8  F   -0.280450
     9  F   -0.281002
    10  C    0.758261
    11  F   -0.264053
    12  F   -0.263752
    13  O   -0.510960
    14  C    0.987259
    15  F   -0.247927
    16  F   -0.247962
    17  F   -0.241624
    18  C    0.824595
    19  O   -0.532520
    20  N   -0.574446
    21  C   -0.053531
    22  C   -0.052689
    23  N   -0.574111
    24  C    0.823394
    25  O   -0.534380
    26  N   -0.570249
    27  C   -0.056763
    28  C   -0.207338
    29  C   -0.261735
    30  C    0.549971
    31  F   -0.280743
    32  F   -0.282701
    33  C    0.744025
    34  F   -0.271565
    35  F   -0.260870
    36  O   -0.494871
    37  C    0.977770
    38  F   -0.243938
    39  F   -0.244061
    40  F   -0.245302
    41  C    0.818972
    42  O   -0.533792
    43  N   -0.570334
    44  C   -0.056874
    45  C   -0.205549
    46  C   -0.262913
    47  C    0.546549
    48  F   -0.276303
    49  F   -0.280613
    50  C    0.731531
    51  F   -0.269746
    52  F   -0.259470
    53  O   -0.493364
    54  C    0.982011
    55  F   -0.245244
    56  F   -0.241927
    57  F   -0.238320
    58  C    0.820962
    59  O   -0.529140
    60  C    0.824149
    61  O   -0.526372
    62  N   -0.562118
    63  C   -0.071201
    64  C   -0.213120
    65  C   -0.254114
    66  C    0.541986
    67  F   -0.281551
    68  F   -0.289132
    69  C    0.761873
    70  F   -0.260020
    71  F   -0.265576
    72  O   -0.512967
    73  C    0.989415
    74  F   -0.242289
    75  F   -0.248494
    76  F   -0.247269
    77  H    0.150048
    78  H    0.152442
    79  H    0.129650
    80  H    0.135801
    81  H    0.145884
    82  H    0.151983
    83  H    0.161650
    84  H    0.162093
    85  H    0.162486
    86  H    0.159282
    87  H    0.152938
    88  H    0.148484
    89  H    0.135850
    90  H    0.131061
    91  H    0.149806
    92  H    0.149496
    93  H    0.154568
    94  H    0.145409
    95  H    0.130855
    96  H    0.136869
    97  H    0.148972
    98  H    0.143830
    99  H    0.157842
   100  H    0.151950
   101  H    0.137652
   102  H    0.128739
   103  H    0.149050
   104  H    0.138349
 Sum of Mulliken charges =   0.00000
 Mulliken charges with hydrogens summed into heavy atoms:
               1
     1  O   -0.537542
     2  C    0.823783
     3  N   -0.573961
     4  C    0.244016
     5  C    0.062383
     6  C    0.032043
     7  C    0.546680
     8  F   -0.280450
     9  F   -0.281002
    10  C    0.758261
    11  F   -0.264053
    12  F   -0.263752
    13  O   -0.510960
    14  C    0.987259
    15  F   -0.247927
    16  F   -0.247962
    17  F   -0.241624
    18  C    0.824595
    19  O   -0.532520
    20  N   -0.574446
    21  C    0.270212
    22  C    0.269079
    23  N   -0.574111
    24  C    0.823394
    25  O   -0.534380
    26  N   -0.570249
    27  C    0.244659
    28  C    0.059572
    29  C    0.037568
    30  C    0.549971
    31  F   -0.280743
    32  F   -0.282701
    33  C    0.744025
    34  F   -0.271565
    35  F   -0.260870
    36  O   -0.494871
    37  C    0.977770
    38  F   -0.243938
    39  F   -0.244061
    40  F   -0.245302
    41  C    0.818972
    42  O   -0.533792
    43  N   -0.570334
    44  C    0.243103
    45  C    0.062174
    46  C    0.029889
    47  C    0.546549
    48  F   -0.276303
    49  F   -0.280613
    50  C    0.731531
    51  F   -0.269746
    52  F   -0.259470
    53  O   -0.493364
    54  C    0.982011
    55  F   -0.245244
    56  F   -0.241927
    57  F   -0.238320
    58  C    0.820962
    59  O   -0.529140
    60  C    0.824149
    61  O   -0.526372
    62  N   -0.562118
    63  C    0.238591
    64  C    0.053271
    65  C    0.033284
    66  C    0.541986
    67  F   -0.281551
    68  F   -0.289132
    69  C    0.761873
    70  F   -0.260020
    71  F   -0.265576
    72  O   -0.512967
    73  C    0.989415
    74  F   -0.242289
    75  F   -0.248494
    76  F   -0.247269
 Electronic spatial extent (au):  <R**2>=         134202.8989
 Charge=              0.0000 electrons
 Dipole moment (field-independent basis, Debye):
    X=             -0.2741    Y=              1.0368    Z=              1.7017  Tot=              2.0114
 Quadrupole moment (field-independent basis, Debye-Ang):
   XX=           -463.6718   YY=           -454.8579   ZZ=           -404.4926
   XY=              0.8117   XZ=             18.5514   YZ=              0.4138
 Traceless Quadrupole moment (field-independent basis, Debye-Ang):
   XX=            -22.6644   YY=            -13.8504   ZZ=             36.5148
   XY=              0.8117   XZ=             18.5514   YZ=              0.4138
 Octapole moment (field-independent basis, Debye-Ang**2):
  XXX=            -63.0627  YYY=             -9.7220  ZZZ=             79.1089  XYY=            121.5756
  XXY=           -121.4261  XXZ=             79.3463  XZZ=            -19.5596  YZZ=             19.4430
  YYZ=             48.4371  XYZ=            -73.6067
 Hexadecapole moment (field-independent basis, Debye-Ang**3):
 XXXX=         -93571.8121 YYYY=         -53495.2515 ZZZZ=          -7015.8865 XXXY=           -693.0471
 XXXZ=          -2554.3606 YYYX=          -1179.5217 YYYZ=          -1772.7464 ZZZX=          -2189.2615
 ZZZY=          -1850.7188 XXYY=         -25112.6519 XXZZ=         -15931.5367 YYZZ=          -9840.5858
 XXYZ=           -532.2993 YYXZ=           -751.8690 ZZXY=            -31.6400
 N-N= 1.349173039821D+04 E-N=-3.903873040393D+04  KE= 5.072319740698D+03
 Leave Link  601 at Thu Jan 30 16:34:28 2025, MaxMem=  5368709120 cpu:         4.8
 (Enter /home/k0335/k033513/app/g09/l9999.exe)
 1\1\GINC-C15U03N1\SP\RCAM-B3LYP\6-31G(d,p)\C32H28F28N6O10\K033513\30-J
 an-2025\0\\#p CAM-B3LYP/6-31G(d,p) SCRF=(PCM,Solvent=Generic,Read) NoS
 ymm out=wfn\\Title finalDD2_0\\0,1\O,0,5.718764,-0.802777,1.333028\C,0
 ,4.493369,-0.683843,1.292495\N,0,3.883417,0.549788,1.203811\C,0,4.7332
 73,1.738059,1.118752\C,0,5.119497,2.252714,2.510425\C,0,5.803715,3.627
 028,2.511911\C,0,7.076865,3.692725,1.670458\F,0,6.736013,3.54405,0.358
 731\F,0,7.867027,2.629451,1.982224\C,0,7.853532,5.011694,1.865674\F,0,
 8.959797,5.020477,1.082339\F,0,8.26551,5.114123,3.15395\O,0,7.066935,6
 .135086,1.539791\C,0,7.707792,7.298633,1.981708\F,0,7.580611,7.419025,
 3.31817\F,0,7.093126,8.356041,1.409637\F,0,9.008274,7.329281,1.640734\
 C,0,2.517753,0.728849,1.265999\O,0,2.00852,1.850916,1.256413\N,0,1.752
 905,-0.415013,1.333223\C,0,0.294391,-0.277083,1.333169\C,0,-0.287335,-
 0.320013,-0.088386\N,0,-1.739862,-0.135263,-0.100255\C,0,-2.239869,1.1
 40419,-0.240832\O,0,-1.499542,2.119467,-0.347797\N,0,-3.61312,1.262597
 ,-0.26992\C,0,-4.183677,2.590153,-0.498976\C,0,-4.278007,2.91228,-1.99
 5078\C,0,-4.588079,4.382409,-2.304824\C,0,-5.939109,4.862387,-1.780294
 \F,0,-5.921164,4.797205,-0.423226\F,0,-6.90873,4.004748,-2.195506\C,0,
 -6.268204,6.301212,-2.251705\F,0,-6.170751,6.338905,-3.614003\F,0,-5.3
 28801,7.180333,-1.814215\O,0,-7.533769,6.84139,-1.966518\C,0,-7.8178,6
 .76677,-0.600216\F,0,-8.254443,5.531984,-0.294072\F,0,-6.7488,7.075843
 ,0.153019\F,0,-8.801795,7.644952,-0.320038\C,0,-4.467961,0.182275,-0.2
 24587\O,0,-5.672311,0.290452,-0.466022\N,0,-3.895893,-1.031067,0.09301
 5\C,0,-4.777808,-2.183378,0.272321\C,0,-5.014561,-2.92876,-1.045782\C,
 0,-6.176627,-3.929776,-0.995117\C,0,-5.985801,-5.069502,0.007026\F,0,-
 5.889936,-4.556471,1.261399\F,0,-4.789231,-5.66908,-0.241025\C,0,-7.13
 0146,-6.114945,-0.058815\F,0,-7.138127,-6.659401,-1.311285\F,0,-6.9045
 41,-7.158066,0.77814\O,0,-8.450493,-5.670296,0.14337\C,0,-8.600674,-5.
 082377,1.405359\F,0,-8.202212,-3.797219,1.343426\F,0,-9.907697,-5.1013
 06,1.73188\F,0,-7.910005,-5.723907,2.360212\C,0,-2.53427,-1.23707,0.12
 9458\O,0,-2.049204,-2.347541,0.349793\C,0,2.28384,-1.685347,1.274512\O
 ,0,1.566959,-2.682439,1.18028\N,0,3.658311,-1.78017,1.312159\C,0,4.256
 282,-3.11464,1.321677\C,0,4.323605,-3.763842,-0.069609\C,0,5.23781,-3.
 016471,-1.043971\C,0,5.272519,-3.609811,-2.452252\F,0,4.009596,-3.5790
 33,-2.964161\F,0,6.003407,-2.752853,-3.229826\C,0,5.867556,-5.028191,-
 2.558282\F,0,5.086436,-5.919326,-1.900338\F,0,5.911852,-5.416985,-3.85
 7157\O,0,7.175587,-5.08721,-2.037512\C,0,7.543447,-6.423305,-1.849785\
 F,0,7.189014,-7.207663,-2.881669\F,0,6.996798,-6.887299,-0.70983\F,0,8
 .886368,-6.471757,-1.71779\H,0,4.206673,2.523533,0.563122\H,0,5.631896
 ,1.483176,0.545838\H,0,4.220609,2.323245,3.136903\H,0,5.773799,1.52180
 4,3.002644\H,0,6.045208,3.872556,3.553399\H,0,5.088932,4.377196,2.1527
 91\H,0,0.011252,0.663955,1.820568\H,0,-0.13942,-1.078983,1.942598\H,0,
 -0.046846,-1.278472,-0.565238\H,0,0.184255,0.45466,-0.70422\H,0,-5.177
 466,2.63252,-0.040684\H,0,-3.560455,3.336845,0.006614\H,0,-5.032597,2.
 26863,-2.463839\H,0,-3.326246,2.664383,-2.481762\H,0,-4.561697,4.49792
 1,-3.394845\H,0,-3.792039,5.011297,-1.889247\H,0,-4.330147,-2.855695,1
 .011587\H,0,-5.734666,-1.842701,0.685571\H,0,-5.234236,-2.204142,-1.84
 0179\H,0,-4.094302,-3.44129,-1.35016\H,0,-6.287996,-4.353133,-2.000517
 \H,0,-7.098441,-3.382837,-0.772574\H,0,5.259844,-3.077155,1.759203\H,0
 ,3.653978,-3.753861,1.978549\H,0,3.316607,-3.835073,-0.495882\H,0,4.68
 8872,-4.787293,0.065384\H,0,6.256353,-2.962195,-0.641878\H,0,4.888154,
 -1.982117,-1.142755\\Version=ES64L-G09RevD.01\HF=-5111.2109288\RMSD=4.
 420e-09\Dipole=-0.1078309,0.407921,0.6694985\Quadrupole=-16.8504025,-1
 0.2974629,27.1478654,0.6034734,13.792499,0.3076435\PG=C01 [X(C32H28F28
 N6O10)]\\@

 Writing a WFN file to "finalDD2/finalDD2_0.wfn"


      TO SUSPECT YOUR OWN MORTALITY IS TO KNOW THE BEGINNING OF TERROR.
      TO LEARN IRREFUTABLY THAT YOU ARE MORTAL IS TO KNOW THE END
      OF TERROR.

                                                  -- JESSICA
                                                     CHILDREN OF DUNE
                                                     BY FRANK HERBERT
 Job cpu time:       0 days  1 hours  4 minutes  3.5 seconds.
 File lengths (MBytes):  RWF=   1909 Int=      0 D2E=      0 Chk=     60 Scr=      1
 Normal termination of Gaussian 09 at Thu Jan 30 16:34:29 2025.
