 Entering Gaussian System, Link 0=g09
 Initial command:
 /home/k0335/k033513/app/g09/l1.exe "/home/k0335/k033513/app/g09/scratch/Gau-2978155.inp" -scrdir="/home/k0335/k033513/app/g09/scratch/"
 Default is to use a total of  36 processors:
                               36 via shared-memory
                                1 via Linda
 Entering Link 1 = /home/k0335/k033513/app/g09/l1.exe PID=   2978156.
  
 Copyright (c) 1988,1990,1992,1993,1995,1998,2003,2009,2013,
            Gaussian, Inc.  All Rights Reserved.
  
 This is part of the Gaussian(R) 09 program.  It is based on
 the Gaussian(R) 03 system (copyright 2003, Gaussian, Inc.),
 the Gaussian(R) 98 system (copyright 1998, Gaussian, Inc.),
 the Gaussian(R) 94 system (copyright 1995, Gaussian, Inc.),
 the Gaussian 92(TM) system (copyright 1992, Gaussian, Inc.),
 the Gaussian 90(TM) system (copyright 1990, Gaussian, Inc.),
 the Gaussian 88(TM) system (copyright 1988, Gaussian, Inc.),
 the Gaussian 86(TM) system (copyright 1986, Carnegie Mellon
 University), and the Gaussian 82(TM) system (copyright 1983,
 Carnegie Mellon University). Gaussian is a federally registered
 trademark of Gaussian, Inc.
  
 This software contains proprietary and confidential information,
 including trade secrets, belonging to Gaussian, Inc.
  
 This software is provided under written license and may be
 used, copied, transmitted, or stored only in accord with that
 written license.
  
 The following legend is applicable only to US Government
 contracts under FAR:
  
                    RESTRICTED RIGHTS LEGEND
  
 Use, reproduction and disclosure by the US Government is
 subject to restrictions as set forth in subparagraphs (a)
 and (c) of the Commercial Computer Software - Restricted
 Rights clause in FAR 52.227-19.
  
 Gaussian, Inc.
 340 Quinnipiac St., Bldg. 40, Wallingford CT 06492
  
  
 ---------------------------------------------------------------
 Warning -- This program may not be used in any manner that
 competes with the business of Gaussian, Inc. or will provide
 assistance to any competitor of Gaussian, Inc.  The licensee
 of this program is prohibited from giving any competitor of
 Gaussian, Inc. access to this program.  By using this program,
 the user acknowledges that Gaussian, Inc. is engaged in the
 business of creating and licensing software in the field of
 computational chemistry and represents and warrants to the
 licensee that it is not a competitor of Gaussian, Inc. and that
 it will not use this program in any manner prohibited above.
 ---------------------------------------------------------------
  

 Cite this work as:
 Gaussian 09, Revision D.01,
 M. J. Frisch, G. W. Trucks, H. B. Schlegel, G. E. Scuseria, 
 M. A. Robb, J. R. Cheeseman, G. Scalmani, V. Barone, B. Mennucci, 
 G. A. Petersson, H. Nakatsuji, M. Caricato, X. Li, H. P. Hratchian, 
 A. F. Izmaylov, J. Bloino, G. Zheng, J. L. Sonnenberg, M. Hada, 
 M. Ehara, K. Toyota, R. Fukuda, J. Hasegawa, M. Ishida, T. Nakajima, 
 Y. Honda, O. Kitao, H. Nakai, T. Vreven, J. A. Montgomery, Jr., 
 J. E. Peralta, F. Ogliaro, M. Bearpark, J. J. Heyd, E. Brothers, 
 K. N. Kudin, V. N. Staroverov, T. Keith, R. Kobayashi, J. Normand, 
 K. Raghavachari, A. Rendell, J. C. Burant, S. S. Iyengar, J. Tomasi, 
 M. Cossi, N. Rega, J. M. Millam, M. Klene, J. E. Knox, J. B. Cross, 
 V. Bakken, C. Adamo, J. Jaramillo, R. Gomperts, R. E. Stratmann, 
 O. Yazyev, A. J. Austin, R. Cammi, C. Pomelli, J. W. Ochterski, 
 R. L. Martin, K. Morokuma, V. G. Zakrzewski, G. A. Voth, 
 P. Salvador, J. J. Dannenberg, S. Dapprich, A. D. Daniels, 
 O. Farkas, J. B. Foresman, J. V. Ortiz, J. Cioslowski, 
 and D. J. Fox, Gaussian, Inc., Wallingford CT, 2013.
 
 ******************************************
 Gaussian 09:  ES64L-G09RevD.01 24-Apr-2013
                30-Jan-2025 
 ******************************************
 %nprocshared=24
 Will use up to   24 processors via shared memory.
 %mem=40GB
 %rwf=finalDD2/finalDD2_p1.rwf
 %nosave
 %chk=finalDD2/finalDD2_p1.chk
 ----------------------------------------------------------------------
 #p CAM-B3LYP/6-31G(d,p) SCRF=(PCM,Solvent=Generic,Read) NoSymm out=wfn
 ----------------------------------------------------------------------
 1/38=1,40=2/1;
 2/12=2,15=1,17=6,18=5,40=1/2;
 3/5=1,6=6,7=101,11=2,16=1,25=1,30=1,70=2203,72=-2,74=-40/1,2,3;
 4//1;
 5/5=2,38=5/2;
 6/7=2,8=2,9=2,10=2,28=1/1;
 99/5=1,6=100,9=1/99;
 Leave Link    1 at Thu Jan 30 16:34:36 2025, MaxMem=  5368709120 cpu:         0.8
 (Enter /home/k0335/k033513/app/g09/l101.exe)
 -----------------
 Title finalDD2_p1
 -----------------
 Symbolic Z-matrix:
 Charge =  1 Multiplicity = 2
 O                     5.71876  -0.80278   1.33303 
 C                     4.49337  -0.68384   1.2925 
 N                     3.88342   0.54979   1.20381 
 C                     4.73327   1.73806   1.11875 
 C                     5.1195    2.25271   2.51043 
 C                     5.80372   3.62703   2.51191 
 C                     7.07686   3.69273   1.67046 
 F                     6.73601   3.54405   0.35873 
 F                     7.86703   2.62945   1.98222 
 C                     7.85353   5.01169   1.86567 
 F                     8.9598    5.02048   1.08234 
 F                     8.26551   5.11412   3.15395 
 O                     7.06693   6.13509   1.53979 
 C                     7.70779   7.29863   1.98171 
 F                     7.58061   7.41903   3.31817 
 F                     7.09313   8.35604   1.40964 
 F                     9.00827   7.32928   1.64073 
 C                     2.51775   0.72885   1.266 
 O                     2.00852   1.85092   1.25641 
 N                     1.75291  -0.41501   1.33322 
 C                     0.29439  -0.27708   1.33317 
 C                    -0.28734  -0.32001  -0.08839 
 N                    -1.73986  -0.13526  -0.10026 
 C                    -2.23987   1.14042  -0.24083 
 O                    -1.49954   2.11947  -0.3478 
 N                    -3.61312   1.2626   -0.26992 
 C                    -4.18368   2.59015  -0.49898 
 C                    -4.27801   2.91228  -1.99508 
 C                    -4.58808   4.38241  -2.30482 
 C                    -5.93911   4.86239  -1.78029 
 F                    -5.92116   4.7972   -0.42323 
 F                    -6.90873   4.00475  -2.19551 
 C                    -6.2682    6.30121  -2.25171 
 F                    -6.17075   6.33891  -3.614 
 F                    -5.3288    7.18033  -1.81422 
 O                    -7.53377   6.84139  -1.96652 
 C                    -7.8178    6.76677  -0.60022 
 F                    -8.25444   5.53198  -0.29407 
 F                    -6.7488    7.07584   0.15302 
 F                    -8.8018    7.64495  -0.32004 
 C                    -4.46796   0.18228  -0.22459 
 O                    -5.67231   0.29045  -0.46602 
 N                    -3.89589  -1.03107   0.09302 
 C                    -4.77781  -2.18338   0.27232 
 C                    -5.01456  -2.92876  -1.04578 
 C                    -6.17663  -3.92978  -0.99512 
 C                    -5.9858   -5.0695    0.00703 
 F                    -5.88994  -4.55647   1.2614 
 F                    -4.78923  -5.66908  -0.24103 
 C                    -7.13015  -6.11494  -0.05882 
 F                    -7.13813  -6.6594   -1.31129 
 F                    -6.90454  -7.15807   0.77814 
 O                    -8.45049  -5.6703    0.14337 
 C                    -8.60067  -5.08238   1.40536 
 F                    -8.20221  -3.79722   1.34343 
 F                    -9.9077   -5.10131   1.73188 
 F                    -7.91     -5.72391   2.36021 
 C                    -2.53427  -1.23707   0.12946 
 O                    -2.0492   -2.34754   0.34979 
 C                     2.28384  -1.68535   1.27451 
 O                     1.56696  -2.68244   1.18028 
 N                     3.65831  -1.78017   1.31216 
 C                     4.25628  -3.11464   1.32168 
 C                     4.32361  -3.76384  -0.06961 
 C                     5.23781  -3.01647  -1.04397 
 C                     5.27252  -3.60981  -2.45225 
 F                     4.0096   -3.57903  -2.96416 
 F                     6.00341  -2.75285  -3.22983 
 C                     5.86756  -5.02819  -2.55828 
 F                     5.08644  -5.91933  -1.90034 
 F                     5.91185  -5.41699  -3.85716 
 O                     7.17559  -5.08721  -2.03751 
 C                     7.54345  -6.42331  -1.84979 
 F                     7.18901  -7.20766  -2.88167 
 F                     6.9968   -6.8873   -0.70983 
 F                     8.88637  -6.47176  -1.71779 
 H                     4.20667   2.52353   0.56312 
 H                     5.6319    1.48318   0.54584 
 H                     4.22061   2.32325   3.1369 
 H                     5.7738    1.5218    3.00264 
 H                     6.04521   3.87256   3.5534 
 H                     5.08893   4.3772    2.15279 
 H                     0.01125   0.66396   1.82057 
 H                    -0.13942  -1.07898   1.9426 
 H                    -0.04685  -1.27847  -0.56524 
 H                     0.18426   0.45466  -0.70422 
 H                    -5.17747   2.63252  -0.04068 
 H                    -3.56046   3.33685   0.00661 
 H                    -5.0326    2.26863  -2.46384 
 H                    -3.32625   2.66438  -2.48176 
 H                    -4.5617    4.49792  -3.39485 
 H                    -3.79204   5.0113   -1.88925 
 H                    -4.33015  -2.8557    1.01159 
 H                    -5.73467  -1.8427    0.68557 
 H                    -5.23424  -2.20414  -1.84018 
 H                    -4.0943   -3.44129  -1.35016 
 H                    -6.288    -4.35313  -2.00052 
 H                    -7.09844  -3.38284  -0.77257 
 H                     5.25984  -3.07715   1.7592 
 H                     3.65398  -3.75386   1.97855 
 H                     3.31661  -3.83507  -0.49588 
 H                     4.68887  -4.78729   0.06538 
 H                     6.25635  -2.9622   -0.64188 
 H                     4.88815  -1.98212  -1.14275 
 
 NAtoms=    104 NQM=      104 NQMF=       0 NMMI=      0 NMMIF=      0
                NMic=       0 NMicF=      0.
                    Isotopes and Nuclear Properties:
 (Nuclear quadrupole moments (NQMom) in fm**2, nuclear magnetic moments (NMagM)
  in nuclear magnetons)

  Atom         1           2           3           4           5           6           7           8           9          10
 IAtWgt=          16          12          14          12          12          12          12          19          19          12
 AtmWgt=  15.9949146  12.0000000  14.0030740  12.0000000  12.0000000  12.0000000  12.0000000  18.9984033  18.9984033  12.0000000
 NucSpn=           0           0           2           0           0           0           0           1           1           0
 AtZEff=   0.0000000   0.0000000   0.0000000   0.0000000   0.0000000   0.0000000   0.0000000   0.0000000   0.0000000   0.0000000
 NQMom=    0.0000000   0.0000000   2.0440000   0.0000000   0.0000000   0.0000000   0.0000000   0.0000000   0.0000000   0.0000000
 NMagM=    0.0000000   0.0000000   0.4037610   0.0000000   0.0000000   0.0000000   0.0000000   2.6288670   2.6288670   0.0000000
 AtZNuc=   8.0000000   6.0000000   7.0000000   6.0000000   6.0000000   6.0000000   6.0000000   9.0000000   9.0000000   6.0000000

  Atom        11          12          13          14          15          16          17          18          19          20
 IAtWgt=          19          19          16          12          19          19          19          12          16          14
 AtmWgt=  18.9984033  18.9984033  15.9949146  12.0000000  18.9984033  18.9984033  18.9984033  12.0000000  15.9949146  14.0030740
 NucSpn=           1           1           0           0           1           1           1           0           0           2
 AtZEff=   0.0000000   0.0000000   0.0000000   0.0000000   0.0000000   0.0000000   0.0000000   0.0000000   0.0000000   0.0000000
 NQMom=    0.0000000   0.0000000   0.0000000   0.0000000   0.0000000   0.0000000   0.0000000   0.0000000   0.0000000   2.0440000
 NMagM=    2.6288670   2.6288670   0.0000000   0.0000000   2.6288670   2.6288670   2.6288670   0.0000000   0.0000000   0.4037610
 AtZNuc=   9.0000000   9.0000000   8.0000000   6.0000000   9.0000000   9.0000000   9.0000000   6.0000000   8.0000000   7.0000000

  Atom        21          22          23          24          25          26          27          28          29          30
 IAtWgt=          12          12          14          12          16          14          12          12          12          12
 AtmWgt=  12.0000000  12.0000000  14.0030740  12.0000000  15.9949146  14.0030740  12.0000000  12.0000000  12.0000000  12.0000000
 NucSpn=           0           0           2           0           0           2           0           0           0           0
 AtZEff=   0.0000000   0.0000000   0.0000000   0.0000000   0.0000000   0.0000000   0.0000000   0.0000000   0.0000000   0.0000000
 NQMom=    0.0000000   0.0000000   2.0440000   0.0000000   0.0000000   2.0440000   0.0000000   0.0000000   0.0000000   0.0000000
 NMagM=    0.0000000   0.0000000   0.4037610   0.0000000   0.0000000   0.4037610   0.0000000   0.0000000   0.0000000   0.0000000
 AtZNuc=   6.0000000   6.0000000   7.0000000   6.0000000   8.0000000   7.0000000   6.0000000   6.0000000   6.0000000   6.0000000

  Atom        31          32          33          34          35          36          37          38          39          40
 IAtWgt=          19          19          12          19          19          16          12          19          19          19
 AtmWgt=  18.9984033  18.9984033  12.0000000  18.9984033  18.9984033  15.9949146  12.0000000  18.9984033  18.9984033  18.9984033
 NucSpn=           1           1           0           1           1           0           0           1           1           1
 AtZEff=   0.0000000   0.0000000   0.0000000   0.0000000   0.0000000   0.0000000   0.0000000   0.0000000   0.0000000   0.0000000
 NQMom=    0.0000000   0.0000000   0.0000000   0.0000000   0.0000000   0.0000000   0.0000000   0.0000000   0.0000000   0.0000000
 NMagM=    2.6288670   2.6288670   0.0000000   2.6288670   2.6288670   0.0000000   0.0000000   2.6288670   2.6288670   2.6288670
 AtZNuc=   9.0000000   9.0000000   6.0000000   9.0000000   9.0000000   8.0000000   6.0000000   9.0000000   9.0000000   9.0000000

  Atom        41          42          43          44          45          46          47          48          49          50
 IAtWgt=          12          16          14          12          12          12          12          19          19          12
 AtmWgt=  12.0000000  15.9949146  14.0030740  12.0000000  12.0000000  12.0000000  12.0000000  18.9984033  18.9984033  12.0000000
 NucSpn=           0           0           2           0           0           0           0           1           1           0
 AtZEff=   0.0000000   0.0000000   0.0000000   0.0000000   0.0000000   0.0000000   0.0000000   0.0000000   0.0000000   0.0000000
 NQMom=    0.0000000   0.0000000   2.0440000   0.0000000   0.0000000   0.0000000   0.0000000   0.0000000   0.0000000   0.0000000
 NMagM=    0.0000000   0.0000000   0.4037610   0.0000000   0.0000000   0.0000000   0.0000000   2.6288670   2.6288670   0.0000000
 AtZNuc=   6.0000000   8.0000000   7.0000000   6.0000000   6.0000000   6.0000000   6.0000000   9.0000000   9.0000000   6.0000000

  Atom        51          52          53          54          55          56          57          58          59          60
 IAtWgt=          19          19          16          12          19          19          19          12          16          12
 AtmWgt=  18.9984033  18.9984033  15.9949146  12.0000000  18.9984033  18.9984033  18.9984033  12.0000000  15.9949146  12.0000000
 NucSpn=           1           1           0           0           1           1           1           0           0           0
 AtZEff=   0.0000000   0.0000000   0.0000000   0.0000000   0.0000000   0.0000000   0.0000000   0.0000000   0.0000000   0.0000000
 NQMom=    0.0000000   0.0000000   0.0000000   0.0000000   0.0000000   0.0000000   0.0000000   0.0000000   0.0000000   0.0000000
 NMagM=    2.6288670   2.6288670   0.0000000   0.0000000   2.6288670   2.6288670   2.6288670   0.0000000   0.0000000   0.0000000
 AtZNuc=   9.0000000   9.0000000   8.0000000   6.0000000   9.0000000   9.0000000   9.0000000   6.0000000   8.0000000   6.0000000

  Atom        61          62          63          64          65          66          67          68          69          70
 IAtWgt=          16          14          12          12          12          12          19          19          12          19
 AtmWgt=  15.9949146  14.0030740  12.0000000  12.0000000  12.0000000  12.0000000  18.9984033  18.9984033  12.0000000  18.9984033
 NucSpn=           0           2           0           0           0           0           1           1           0           1
 AtZEff=   0.0000000   0.0000000   0.0000000   0.0000000   0.0000000   0.0000000   0.0000000   0.0000000   0.0000000   0.0000000
 NQMom=    0.0000000   2.0440000   0.0000000   0.0000000   0.0000000   0.0000000   0.0000000   0.0000000   0.0000000   0.0000000
 NMagM=    0.0000000   0.4037610   0.0000000   0.0000000   0.0000000   0.0000000   2.6288670   2.6288670   0.0000000   2.6288670
 AtZNuc=   8.0000000   7.0000000   6.0000000   6.0000000   6.0000000   6.0000000   9.0000000   9.0000000   6.0000000   9.0000000

  Atom        71          72          73          74          75          76          77          78          79          80
 IAtWgt=          19          16          12          19          19          19           1           1           1           1
 AtmWgt=  18.9984033  15.9949146  12.0000000  18.9984033  18.9984033  18.9984033   1.0078250   1.0078250   1.0078250   1.0078250
 NucSpn=           1           0           0           1           1           1           1           1           1           1
 AtZEff=   0.0000000   0.0000000   0.0000000   0.0000000   0.0000000   0.0000000   0.0000000   0.0000000   0.0000000   0.0000000
 NQMom=    0.0000000   0.0000000   0.0000000   0.0000000   0.0000000   0.0000000   0.0000000   0.0000000   0.0000000   0.0000000
 NMagM=    2.6288670   0.0000000   0.0000000   2.6288670   2.6288670   2.6288670   2.7928460   2.7928460   2.7928460   2.7928460
 AtZNuc=   9.0000000   8.0000000   6.0000000   9.0000000   9.0000000   9.0000000   1.0000000   1.0000000   1.0000000   1.0000000

  Atom        81          82          83          84          85          86          87          88          89          90
 IAtWgt=           1           1           1           1           1           1           1           1           1           1
 AtmWgt=   1.0078250   1.0078250   1.0078250   1.0078250   1.0078250   1.0078250   1.0078250   1.0078250   1.0078250   1.0078250
 NucSpn=           1           1           1           1           1           1           1           1           1           1
 AtZEff=   0.0000000   0.0000000   0.0000000   0.0000000   0.0000000   0.0000000   0.0000000   0.0000000   0.0000000   0.0000000
 NQMom=    0.0000000   0.0000000   0.0000000   0.0000000   0.0000000   0.0000000   0.0000000   0.0000000   0.0000000   0.0000000
 NMagM=    2.7928460   2.7928460   2.7928460   2.7928460   2.7928460   2.7928460   2.7928460   2.7928460   2.7928460   2.7928460
 AtZNuc=   1.0000000   1.0000000   1.0000000   1.0000000   1.0000000   1.0000000   1.0000000   1.0000000   1.0000000   1.0000000

  Atom        91          92          93          94          95          96          97          98          99         100
 IAtWgt=           1           1           1           1           1           1           1           1           1           1
 AtmWgt=   1.0078250   1.0078250   1.0078250   1.0078250   1.0078250   1.0078250   1.0078250   1.0078250   1.0078250   1.0078250
 NucSpn=           1           1           1           1           1           1           1           1           1           1
 AtZEff=   0.0000000   0.0000000   0.0000000   0.0000000   0.0000000   0.0000000   0.0000000   0.0000000   0.0000000   0.0000000
 NQMom=    0.0000000   0.0000000   0.0000000   0.0000000   0.0000000   0.0000000   0.0000000   0.0000000   0.0000000   0.0000000
 NMagM=    2.7928460   2.7928460   2.7928460   2.7928460   2.7928460   2.7928460   2.7928460   2.7928460   2.7928460   2.7928460
 AtZNuc=   1.0000000   1.0000000   1.0000000   1.0000000   1.0000000   1.0000000   1.0000000   1.0000000   1.0000000   1.0000000

  Atom       101         102         103         104
 IAtWgt=           1           1           1           1
 AtmWgt=   1.0078250   1.0078250   1.0078250   1.0078250
 NucSpn=           1           1           1           1
 AtZEff=   0.0000000   0.0000000   0.0000000   0.0000000
 NQMom=    0.0000000   0.0000000   0.0000000   0.0000000
 NMagM=    2.7928460   2.7928460   2.7928460   2.7928460
 AtZNuc=   1.0000000   1.0000000   1.0000000   1.0000000
 Leave Link  101 at Thu Jan 30 16:34:36 2025, MaxMem=  5368709120 cpu:         1.1
 (Enter /home/k0335/k033513/app/g09/l202.exe)
 Symmetry turned off by external request.
 Stoichiometry    C32H28F28N6O10(1+,2)
 Framework group  C1[X(C32H28F28N6O10)]
 Deg. of freedom   306
 Full point group                 C1      NOp   1
                          Input orientation:                          
 ---------------------------------------------------------------------
 Center     Atomic      Atomic             Coordinates (Angstroms)
 Number     Number       Type             X           Y           Z
 ---------------------------------------------------------------------
      1          8           0        5.718764   -0.802777    1.333028
      2          6           0        4.493369   -0.683843    1.292495
      3          7           0        3.883417    0.549788    1.203811
      4          6           0        4.733273    1.738059    1.118752
      5          6           0        5.119497    2.252714    2.510425
      6          6           0        5.803715    3.627028    2.511911
      7          6           0        7.076865    3.692725    1.670458
      8          9           0        6.736013    3.544050    0.358731
      9          9           0        7.867027    2.629451    1.982224
     10          6           0        7.853532    5.011694    1.865674
     11          9           0        8.959797    5.020477    1.082339
     12          9           0        8.265510    5.114123    3.153950
     13          8           0        7.066935    6.135086    1.539791
     14          6           0        7.707792    7.298633    1.981708
     15          9           0        7.580611    7.419025    3.318170
     16          9           0        7.093126    8.356041    1.409637
     17          9           0        9.008274    7.329281    1.640734
     18          6           0        2.517753    0.728849    1.265999
     19          8           0        2.008520    1.850916    1.256413
     20          7           0        1.752905   -0.415013    1.333223
     21          6           0        0.294391   -0.277083    1.333169
     22          6           0       -0.287335   -0.320013   -0.088386
     23          7           0       -1.739862   -0.135263   -0.100255
     24          6           0       -2.239869    1.140419   -0.240832
     25          8           0       -1.499542    2.119467   -0.347797
     26          7           0       -3.613120    1.262597   -0.269920
     27          6           0       -4.183677    2.590153   -0.498976
     28          6           0       -4.278007    2.912280   -1.995078
     29          6           0       -4.588079    4.382409   -2.304824
     30          6           0       -5.939109    4.862387   -1.780294
     31          9           0       -5.921164    4.797205   -0.423226
     32          9           0       -6.908730    4.004748   -2.195506
     33          6           0       -6.268204    6.301212   -2.251705
     34          9           0       -6.170751    6.338905   -3.614003
     35          9           0       -5.328801    7.180333   -1.814215
     36          8           0       -7.533769    6.841390   -1.966518
     37          6           0       -7.817800    6.766770   -0.600216
     38          9           0       -8.254443    5.531984   -0.294072
     39          9           0       -6.748800    7.075843    0.153019
     40          9           0       -8.801795    7.644952   -0.320038
     41          6           0       -4.467961    0.182275   -0.224587
     42          8           0       -5.672311    0.290452   -0.466022
     43          7           0       -3.895893   -1.031067    0.093015
     44          6           0       -4.777808   -2.183378    0.272321
     45          6           0       -5.014561   -2.928760   -1.045782
     46          6           0       -6.176627   -3.929776   -0.995117
     47          6           0       -5.985801   -5.069502    0.007026
     48          9           0       -5.889936   -4.556471    1.261399
     49          9           0       -4.789231   -5.669080   -0.241025
     50          6           0       -7.130146   -6.114945   -0.058815
     51          9           0       -7.138127   -6.659401   -1.311285
     52          9           0       -6.904541   -7.158066    0.778140
     53          8           0       -8.450493   -5.670296    0.143370
     54          6           0       -8.600674   -5.082377    1.405359
     55          9           0       -8.202212   -3.797219    1.343426
     56          9           0       -9.907697   -5.101306    1.731880
     57          9           0       -7.910005   -5.723907    2.360212
     58          6           0       -2.534270   -1.237070    0.129458
     59          8           0       -2.049204   -2.347541    0.349793
     60          6           0        2.283840   -1.685347    1.274512
     61          8           0        1.566959   -2.682439    1.180280
     62          7           0        3.658311   -1.780170    1.312159
     63          6           0        4.256282   -3.114640    1.321677
     64          6           0        4.323605   -3.763842   -0.069609
     65          6           0        5.237810   -3.016471   -1.043971
     66          6           0        5.272519   -3.609811   -2.452252
     67          9           0        4.009596   -3.579033   -2.964161
     68          9           0        6.003407   -2.752853   -3.229826
     69          6           0        5.867556   -5.028191   -2.558282
     70          9           0        5.086436   -5.919326   -1.900338
     71          9           0        5.911852   -5.416985   -3.857157
     72          8           0        7.175587   -5.087210   -2.037512
     73          6           0        7.543447   -6.423305   -1.849785
     74          9           0        7.189014   -7.207663   -2.881669
     75          9           0        6.996798   -6.887299   -0.709830
     76          9           0        8.886368   -6.471757   -1.717790
     77          1           0        4.206673    2.523533    0.563122
     78          1           0        5.631896    1.483176    0.545838
     79          1           0        4.220609    2.323245    3.136903
     80          1           0        5.773799    1.521804    3.002644
     81          1           0        6.045208    3.872556    3.553399
     82          1           0        5.088932    4.377196    2.152791
     83          1           0        0.011252    0.663955    1.820568
     84          1           0       -0.139420   -1.078983    1.942598
     85          1           0       -0.046846   -1.278472   -0.565238
     86          1           0        0.184255    0.454660   -0.704220
     87          1           0       -5.177466    2.632520   -0.040684
     88          1           0       -3.560455    3.336845    0.006614
     89          1           0       -5.032597    2.268630   -2.463839
     90          1           0       -3.326246    2.664383   -2.481762
     91          1           0       -4.561697    4.497921   -3.394845
     92          1           0       -3.792039    5.011297   -1.889247
     93          1           0       -4.330147   -2.855695    1.011587
     94          1           0       -5.734666   -1.842701    0.685571
     95          1           0       -5.234236   -2.204142   -1.840179
     96          1           0       -4.094302   -3.441290   -1.350160
     97          1           0       -6.287996   -4.353133   -2.000517
     98          1           0       -7.098441   -3.382837   -0.772574
     99          1           0        5.259844   -3.077155    1.759203
    100          1           0        3.653978   -3.753861    1.978549
    101          1           0        3.316607   -3.835073   -0.495882
    102          1           0        4.688872   -4.787293    0.065384
    103          1           0        6.256353   -2.962195   -0.641878
    104          1           0        4.888154   -1.982117   -1.142755
 ---------------------------------------------------------------------
 Rotational constants (GHZ):      0.0165163      0.0103499      0.0069260
 Leave Link  202 at Thu Jan 30 16:34:36 2025, MaxMem=  5368709120 cpu:         0.0
 (Enter /home/k0335/k033513/app/g09/l301.exe)
 Standard basis: 6-31G(d,p) (6D, 7F)
 Ernie: Thresh=  0.10000D-02 Tol=  0.10000D-05 Strict=F.
  1280 basis functions,  2324 primitive gaussians,  1280 cartesian basis functions
   297 alpha electrons      296 beta electrons
       nuclear repulsion energy     13491.7303982064 Hartrees.
 IExCor=20419 DFT=T Ex+Corr=CAM-B3LYP ExCW=0 ScaHFX=  1.000000
 ScaDFX=  1.000000  1.000000  1.000000  0.810000 ScalE2=  1.000000  1.000000
 IRadAn=      0 IRanWt=     -1 IRanGd=            0 ICorTp=0 IEmpDi=  4
  HFx wShort=  0.000000 wLong=  0.330000 cFull=  0.190000 cShort=  0.000000 cLong=  0.460000
  DFx wShort=  0.000000 wLong=  0.330000 cFull=  0.190000 cShort=  0.000000 cLong=  0.460000
 NAtoms=  104 NActive=  104 NUniq=  104 SFac= 1.00D+00 NAtFMM=   60 NAOKFM=T Big=T
 Integral buffers will be    131072 words long.
 Raffenetti 2 integral format.
 Two-electron integral symmetry is turned off.
 Using the following non-standard input for PCM:
 eps=4.9
 --- end of non-standard input.
 ------------------------------------------------------------------------------
 Polarizable Continuum Model (PCM)
 =================================
 Model                : PCM (using non-symmetric T matrix).
 Atomic radii         : UFF (Universal Force Field).
 Polarization charges : Total charges.
 Charge compensation  : None.
 Solution method      : On-the-fly selection.
 Cavity type          : Scaled VdW (van der Waals Surface) (Alpha=1.100).
 Cavity algorithm     : GePol (No added spheres)
                        Default sphere list used, NSphG=  104.
                        Lebedev-Laikov grids with approx.  5.0 points / Ang**2.
                        Smoothing algorithm: Karplus/York (Gamma=1.0000).
                        Polarization charges: spherical gaussians, with
                                              point-specific exponents (IZeta= 3).
                        Self-potential: point-specific (ISelfS= 7).
                        Self-field    : sphere-specific E.n sum rule (ISelfD= 2).
 Solvent              : Generic,
                        Eps                           =   4.900000
                        Eps(infinity)                 =   0.000000
                        RSolv                         =   0.000000 Ang.
                        Molar volume                  =   0.000000 cm**3/mol
                        Thermal expansion coefficient =   0.000000 K**-1
                        Absolute temperature          = 298.150000 K
                        Numeral density               =   0.000000 Ang**-3
                        Hydrogen bond acidity         =   0.000000
                        Hydrogen bond basicity        =   0.000000
                        Surface tension at interface  =   0.000000 (cal/mol)*Ang**-2
                        Carbon aromaticity            =   0.000000
                        Electronegative halogenicity  =   0.000000
 ------------------------------------------------------------------------------
 GePol: Number of generator spheres                  =     104
 GePol: Total number of spheres                      =     104
 GePol: Number of exposed spheres                    =     104 (100.00%)
 GePol: Number of points                             =    7964
 GePol: Average weight of points                     =       0.12
 GePol: Minimum weight of points                     =   0.35D-11
 GePol: Maximum weight of points                     =    0.20577
 GePol: Number of points with low weight             =     396
 GePol: Fraction of low-weight points (<1% of avg)   =       4.97%
 GePol: Cavity surface area                          =    994.634 Ang**2
 GePol: Cavity volume                                =   1149.052 Ang**3
 Leave Link  301 at Thu Jan 30 16:34:36 2025, MaxMem=  5368709120 cpu:         0.8
 (Enter /home/k0335/k033513/app/g09/l302.exe)
 NPDir=0 NMtPBC=     1 NCelOv=     1 NCel=       1 NClECP=     1 NCelD=      1
         NCelK=      1 NCelE2=     1 NClLst=     1 CellRange=     0.0.
 One-electron integrals computed using PRISM.
 NBasis=  1280 RedAO= T EigKep=  1.43D-03  NBF=  1280
 NBsUse=  1280 1.00D-06 EigRej= -1.00D+00 NBFU=  1280
 Precomputing XC quadrature grid using
 IXCGrd= 4 IRadAn=           0 IRanWt=          -1 IRanGd=           0 AccXCQ= 0.00D+00.
 Generated NRdTot=       0 NPtTot=           0 NUsed=           0 NTot=          32
 NSgBfM=   968   968   968   968   968 MxSgAt=   104 MxSgA2=   102.
 Leave Link  302 at Thu Jan 30 16:34:39 2025, MaxMem=  5368709120 cpu:        66.3
 (Enter /home/k0335/k033513/app/g09/l303.exe)
 DipDrv:  MaxL=1.
 Leave Link  303 at Thu Jan 30 16:34:39 2025, MaxMem=  5368709120 cpu:         2.2
 (Enter /home/k0335/k033513/app/g09/l401.exe)
 ExpMin= 1.61D-01 ExpMax= 7.00D+03 ExpMxC= 1.05D+03 IAcc=1 IRadAn=         1 AccDes= 0.00D+00
 Harris functional with IExCor=20419 and IRadAn=       1 diagonalized for initial guess.
 HarFok:  IExCor=20419 AccDes= 0.00D+00 IRadAn=         1 IDoV= 1 UseB2=F ITyADJ=14
 ICtDFT=  3500011 ScaDFX=  1.000000  1.000000  1.000000  1.000000
 FoFCou: FMM=F IPFlag=           0 FMFlag=      100000 FMFlg1=        2001
         NFxFlg=           0 DoJE=T BraDBF=F KetDBF=T FulRan=T
         wScrn=  0.000000 ICntrl=     500 IOpCl=  0 I1Cent=   200000004 NGrid=           0
         NMat0=    1 NMatS0=      1 NMatT0=    0 NMatD0=    1 NMtDS0=    0 NMtDT0=    0
 Symmetry not used in FoFCou.
 Harris En= -4951.28445188762    
 JPrj=0 DoOrth=F DoCkMO=F.
 Initial guess <Sx>= 0.0000 <Sy>= 0.0000 <Sz>= 0.5000 <S**2>= 0.7500 S= 0.5000
 Leave Link  401 at Thu Jan 30 16:34:42 2025, MaxMem=  5368709120 cpu:        64.8
 (Enter /home/k0335/k033513/app/g09/l502.exe)
 UHF open shell SCF:
 Using DIIS extrapolation, IDIIS=  1040.
 Two-electron integral symmetry not used.
 IVT=     4972358 IEndB=     4972358 NGot=  5368709120 MDV=  5365393083
 LenX=  5365393083 LenY=  5363753403
 Requested convergence on RMS density matrix=1.00D-08 within 128 cycles.
 Requested convergence on MAX density matrix=1.00D-06.
 Requested convergence on             energy=1.00D-06.
 No special actions if energy rises.
 Fock matrices will be formed incrementally for  20 cycles.

 Cycle   1  Pass 1  IDiag  1:
 FoFJK:  IHMeth= 1 ICntrl=       0 DoSepK=T KAlg= 0 I1Cent=   0 FoldK=F
 IRaf=         1 NMat=   1 IRICut=       1 DoRegI=T DoRafI=F ISym2E= 0.
 FoFCou: FMM=T IPFlag=           0 FMFlag=      100000 FMFlg1=        2001
         NFxFlg=           0 DoJE=T BraDBF=F KetDBF=F FulRan=T
         wScrn=  0.000000 ICntrl=     500 IOpCl=  0 I1Cent=           0 NGrid=           0
         NMat0=    1 NMatS0=      1 NMatT0=    0 NMatD0=    1 NMtDS0=    0 NMtDT0=    0
 Symmetry not used in FoFCou.
 FMM levels:  10  Number of levels for PrismC:   9
 Inv3:  Mode=1 IEnd=   190275888.
 Iteration    1 A*A^-1 deviation from unit magnitude is 7.88D-15 for   7932.
 Iteration    1 A*A^-1 deviation from orthogonality  is 2.96D-15 for   7310   6014.
 Iteration    1 A^-1*A deviation from unit magnitude is 8.33D-15 for   7932.
 Iteration    1 A^-1*A deviation from orthogonality  is 3.01D-12 for   7486   7484.
 E= -5109.01540251136    
 DIIS: error= 5.99D-02 at cycle   1 NSaved=   1.
 NSaved= 1 IEnMin= 1 EnMin= -5109.01540251136     IErMin= 1 ErrMin= 5.99D-02
 ErrMax= 5.99D-02  0.00D+00 EMaxC= 1.00D-01 BMatC= 1.78D+01 BMatP= 1.78D+01
 IDIUse=3 WtCom= 4.01D-01 WtEn= 5.99D-01
 Coeff-Com:  0.100D+01
 Coeff-En:   0.100D+01
 Coeff:      0.100D+01
 Gap=     0.410 Goal=   None    Shift=    0.000
 Gap=     0.104 Goal=   None    Shift=    0.000
 GapD=    0.104 DampG=1.000 DampE=0.500 DampFc=0.5000 IDamp=-1.
 Damping current iteration by 5.00D-01
 RMSDP=2.19D-03 MaxDP=1.95D-01              OVMax= 4.32D-01

 Cycle   2  Pass 1  IDiag  1:
 RMSU=  1.10D-03    CP:  9.99D-01
 E= -5109.89881544737     Delta-E=       -0.883412936011 Rises=F Damp=T
 DIIS: error= 3.23D-02 at cycle   2 NSaved=   2.
 NSaved= 2 IEnMin= 2 EnMin= -5109.89881544737     IErMin= 2 ErrMin= 3.23D-02
 ErrMax= 3.23D-02  0.00D+00 EMaxC= 1.00D-01 BMatC= 2.39D+00 BMatP= 1.78D+01
 IDIUse=3 WtCom= 6.77D-01 WtEn= 3.23D-01
 Coeff-Com: -0.206D+00 0.121D+01
 Coeff-En:   0.000D+00 0.100D+01
 Coeff:     -0.139D+00 0.114D+01
 Gap=     0.462 Goal=   None    Shift=    0.000
 Gap=     0.102 Goal=   None    Shift=    0.000
 RMSDP=7.29D-04 MaxDP=1.01D-01 DE=-8.83D-01 OVMax= 3.65D-01

 Cycle   3  Pass 1  IDiag  1:
 RMSU=  7.18D-04    CP:  9.98D-01  1.12D+00
 E= -5110.59790750459     Delta-E=       -0.699092057224 Rises=F Damp=F
 DIIS: error= 1.36D-02 at cycle   3 NSaved=   3.
 NSaved= 3 IEnMin= 3 EnMin= -5110.59790750459     IErMin= 3 ErrMin= 1.36D-02
 ErrMax= 1.36D-02  0.00D+00 EMaxC= 1.00D-01 BMatC= 1.56D+00 BMatP= 2.39D+00
 IDIUse=3 WtCom= 8.64D-01 WtEn= 1.36D-01
 Coeff-Com: -0.191D+00 0.623D+00 0.569D+00
 Coeff-En:   0.000D+00 0.000D+00 0.100D+01
 Coeff:     -0.165D+00 0.538D+00 0.627D+00
 Gap=     0.404 Goal=   None    Shift=    0.000
 Gap=     0.080 Goal=   None    Shift=    0.000
 RMSDP=5.59D-04 MaxDP=9.27D-02 DE=-6.99D-01 OVMax= 1.09D-01

 Cycle   4  Pass 1  IDiag  1:
 RMSU=  3.04D-04    CP:  9.98D-01  1.34D+00  4.43D-01
 E= -5110.82827898596     Delta-E=       -0.230371481368 Rises=F Damp=F
 DIIS: error= 6.45D-03 at cycle   4 NSaved=   4.
 NSaved= 4 IEnMin= 4 EnMin= -5110.82827898596     IErMin= 4 ErrMin= 6.45D-03
 ErrMax= 6.45D-03  0.00D+00 EMaxC= 1.00D-01 BMatC= 3.68D-01 BMatP= 1.56D+00
 IDIUse=3 WtCom= 9.36D-01 WtEn= 6.45D-02
 Coeff-Com: -0.671D-01 0.162D+00 0.366D+00 0.539D+00
 Coeff-En:   0.000D+00 0.000D+00 0.198D+00 0.802D+00
 Coeff:     -0.627D-01 0.152D+00 0.355D+00 0.556D+00
 Gap=     0.370 Goal=   None    Shift=    0.000
 Gap=     0.100 Goal=   None    Shift=    0.000
 RMSDP=2.19D-04 MaxDP=3.52D-02 DE=-2.30D-01 OVMax= 5.02D-02

 Cycle   5  Pass 1  IDiag  1:
 RMSU=  9.49D-05    CP:  9.97D-01  1.30D+00  6.56D-01  6.11D-01
 E= -5110.89296699181     Delta-E=       -0.064688005848 Rises=F Damp=F
 DIIS: error= 1.40D-03 at cycle   5 NSaved=   5.
 NSaved= 5 IEnMin= 5 EnMin= -5110.89296699181     IErMin= 5 ErrMin= 1.40D-03
 ErrMax= 1.40D-03  0.00D+00 EMaxC= 1.00D-01 BMatC= 1.60D-02 BMatP= 3.68D-01
 IDIUse=3 WtCom= 9.86D-01 WtEn= 1.40D-02
 Coeff-Com: -0.186D-01 0.350D-01 0.138D+00 0.290D+00 0.556D+00
 Coeff-En:   0.000D+00 0.000D+00 0.000D+00 0.000D+00 0.100D+01
 Coeff:     -0.184D-01 0.346D-01 0.136D+00 0.286D+00 0.562D+00
 Gap=     0.362 Goal=   None    Shift=    0.000
 Gap=     0.082 Goal=   None    Shift=    0.000
 RMSDP=4.62D-05 MaxDP=6.76D-03 DE=-6.47D-02 OVMax= 3.54D-02

 Cycle   6  Pass 1  IDiag  1:
 RMSU=  3.50D-05    CP:  9.97D-01  1.31D+00  6.52D-01  6.81D-01  7.99D-01
 E= -5110.89632874095     Delta-E=       -0.003361749143 Rises=F Damp=F
 DIIS: error= 3.36D-04 at cycle   6 NSaved=   6.
 NSaved= 6 IEnMin= 6 EnMin= -5110.89632874095     IErMin= 6 ErrMin= 3.36D-04
 ErrMax= 3.36D-04  0.00D+00 EMaxC= 1.00D-01 BMatC= 6.17D-04 BMatP= 1.60D-02
 IDIUse=3 WtCom= 9.97D-01 WtEn= 3.36D-03
 Coeff-Com:  0.522D-04-0.200D-02 0.526D-02 0.285D-01 0.162D+00 0.806D+00
 Coeff-En:   0.000D+00 0.000D+00 0.000D+00 0.000D+00 0.000D+00 0.100D+01
 Coeff:      0.521D-04-0.199D-02 0.525D-02 0.284D-01 0.161D+00 0.807D+00
 Gap=     0.363 Goal=   None    Shift=    0.000
 Gap=     0.086 Goal=   None    Shift=    0.000
 RMSDP=2.48D-05 MaxDP=3.64D-03 DE=-3.36D-03 OVMax= 3.13D-02

 Cycle   7  Pass 1  IDiag  1:
 RMSU=  1.63D-05    CP:  9.97D-01  1.31D+00  6.58D-01  6.98D-01  9.15D-01
                    CP:  1.38D+00
 E= -5110.89682451260     Delta-E=       -0.000495771648 Rises=F Damp=F
 DIIS: error= 3.44D-04 at cycle   7 NSaved=   7.
 NSaved= 7 IEnMin= 7 EnMin= -5110.89682451260     IErMin= 6 ErrMin= 3.36D-04
 ErrMax= 3.44D-04  0.00D+00 EMaxC= 1.00D-01 BMatC= 1.92D-04 BMatP= 6.17D-04
 IDIUse=3 WtCom= 9.97D-01 WtEn= 3.36D-03
 Coeff-Com:  0.352D-02-0.726D-02-0.236D-01-0.405D-01-0.194D-01 0.337D+00
 Coeff-Com:  0.750D+00
 Coeff-En:   0.000D+00 0.000D+00 0.000D+00 0.000D+00 0.000D+00 0.000D+00
 Coeff-En:   0.100D+01
 Coeff:      0.351D-02-0.723D-02-0.235D-01-0.404D-01-0.193D-01 0.336D+00
 Coeff:      0.751D+00
 Gap=     0.362 Goal=   None    Shift=    0.000
 Gap=     0.089 Goal=   None    Shift=    0.000
 RMSDP=2.14D-05 MaxDP=3.54D-03 DE=-4.96D-04 OVMax= 3.26D-02

 Cycle   8  Pass 1  IDiag  1:
 RMSU=  9.37D-06    CP:  9.97D-01  1.31D+00  6.60D-01  7.04D-01  9.90D-01
                    CP:  1.84D+00  1.47D+00
 E= -5110.89713930225     Delta-E=       -0.000314789650 Rises=F Damp=F
 DIIS: error= 2.93D-04 at cycle   8 NSaved=   8.
 NSaved= 8 IEnMin= 8 EnMin= -5110.89713930225     IErMin= 8 ErrMin= 2.93D-04
 ErrMax= 2.93D-04  0.00D+00 EMaxC= 1.00D-01 BMatC= 1.04D-04 BMatP= 1.92D-04
 IDIUse=3 WtCom= 9.97D-01 WtEn= 2.93D-03
 Coeff-Com:  0.126D-02-0.228D-02-0.950D-02-0.203D-01-0.310D-01-0.811D-01
 Coeff-Com:  0.367D+00 0.776D+00
 Coeff-En:   0.000D+00 0.000D+00 0.000D+00 0.000D+00 0.000D+00 0.000D+00
 Coeff-En:   0.000D+00 0.100D+01
 Coeff:      0.126D-02-0.228D-02-0.947D-02-0.203D-01-0.309D-01-0.808D-01
 Coeff:      0.365D+00 0.777D+00
 Gap=     0.362 Goal=   None    Shift=    0.000
 Gap=     0.091 Goal=   None    Shift=    0.000
 RMSDP=1.87D-05 MaxDP=2.13D-03 DE=-3.15D-04 OVMax= 2.86D-02

 Cycle   9  Pass 1  IDiag  1:
 RMSU=  4.79D-06    CP:  9.97D-01  1.31D+00  6.62D-01  7.07D-01  1.04D+00
                    CP:  2.19D+00  2.14D+00  1.59D+00
 E= -5110.89736392287     Delta-E=       -0.000224620624 Rises=F Damp=F
 DIIS: error= 2.47D-04 at cycle   9 NSaved=   9.
 NSaved= 9 IEnMin= 9 EnMin= -5110.89736392287     IErMin= 9 ErrMin= 2.47D-04
 ErrMax= 2.47D-04  0.00D+00 EMaxC= 1.00D-01 BMatC= 6.11D-05 BMatP= 1.04D-04
 IDIUse=3 WtCom= 9.98D-01 WtEn= 2.47D-03
 Coeff-Com: -0.120D-02 0.269D-02 0.702D-02 0.845D-02-0.425D-02-0.279D+00
 Coeff-Com: -0.678D-01 0.480D+00 0.853D+00
 Coeff-En:   0.000D+00 0.000D+00 0.000D+00 0.000D+00 0.000D+00 0.000D+00
 Coeff-En:   0.000D+00 0.000D+00 0.100D+01
 Coeff:     -0.119D-02 0.268D-02 0.701D-02 0.843D-02-0.423D-02-0.278D+00
 Coeff:     -0.676D-01 0.479D+00 0.854D+00
 Gap=     0.362 Goal=   None    Shift=    0.000
 Gap=     0.094 Goal=   None    Shift=    0.000
 RMSDP=2.24D-05 MaxDP=2.58D-03 DE=-2.25D-04 OVMax= 3.48D-02

 Cycle  10  Pass 1  IDiag  1:
 RMSU=  3.64D-06    CP:  9.97D-01  1.31D+00  6.64D-01  7.09D-01  1.10D+00
                    CP:  2.59D+00  2.92D+00  2.62D+00  1.66D+00
 E= -5110.89758382188     Delta-E=       -0.000219899008 Rises=F Damp=F
 DIIS: error= 2.10D-04 at cycle  10 NSaved=  10.
 NSaved=10 IEnMin=10 EnMin= -5110.89758382188     IErMin=10 ErrMin= 2.10D-04
 ErrMax= 2.10D-04  0.00D+00 EMaxC= 1.00D-01 BMatC= 3.45D-05 BMatP= 6.11D-05
 IDIUse=3 WtCom= 9.98D-01 WtEn= 2.10D-03
 Coeff-Com: -0.418D-03 0.754D-03 0.360D-02 0.656D-02 0.222D-01 0.203D-01
 Coeff-Com: -0.274D-01-0.414D+00 0.165D+00 0.122D+01
 Coeff-En:   0.000D+00 0.000D+00 0.000D+00 0.000D+00 0.000D+00 0.000D+00
 Coeff-En:   0.000D+00 0.000D+00 0.000D+00 0.100D+01
 Coeff:     -0.417D-03 0.753D-03 0.359D-02 0.655D-02 0.222D-01 0.202D-01
 Coeff:     -0.273D-01-0.413D+00 0.165D+00 0.122D+01
 Gap=     0.362 Goal=   None    Shift=    0.000
 Gap=     0.096 Goal=   None    Shift=    0.000
 RMSDP=2.01D-05 MaxDP=2.85D-03 DE=-2.20D-04 OVMax= 3.10D-02

 Cycle  11  Pass 1  IDiag  1:
 RMSU=  1.17D-05    CP:  9.97D-01  1.31D+00  6.65D-01  7.08D-01  1.13D+00
                    CP:  2.91D+00  3.00D+00  3.00D+00  2.91D+00  1.91D+00
 E= -5110.89774412991     Delta-E=       -0.000160308031 Rises=F Damp=F
 DIIS: error= 1.39D-04 at cycle  11 NSaved=  11.
 NSaved=11 IEnMin=11 EnMin= -5110.89774412991     IErMin=11 ErrMin= 1.39D-04
 ErrMax= 1.39D-04  0.00D+00 EMaxC= 1.00D-01 BMatC= 2.94D-05 BMatP= 3.45D-05
 IDIUse=3 WtCom= 9.99D-01 WtEn= 1.39D-03
 Coeff-Com:  0.155D-02-0.351D-02-0.762D-02-0.104D-01 0.216D-01 0.328D+00
 Coeff-Com:  0.151D+00-0.953D+00-0.848D+00 0.976D+00 0.134D+01
 Coeff-En:   0.000D+00 0.000D+00 0.000D+00 0.000D+00 0.000D+00 0.000D+00
 Coeff-En:   0.000D+00 0.000D+00 0.000D+00 0.000D+00 0.100D+01
 Coeff:      0.155D-02-0.351D-02-0.761D-02-0.104D-01 0.216D-01 0.327D+00
 Coeff:      0.151D+00-0.952D+00-0.846D+00 0.975D+00 0.134D+01
 Gap=     0.361 Goal=   None    Shift=    0.000
 Gap=     0.099 Goal=   None    Shift=    0.000
 RMSDP=3.34D-05 MaxDP=4.62D-03 DE=-1.60D-04 OVMax= 4.90D-02

 Cycle  12  Pass 1  IDiag  1:
 RMSU=  1.87D-05    CP:  9.97D-01  1.31D+00  6.66D-01  7.03D-01  1.19D+00
                    CP:  3.00D+00  3.00D+00  3.00D+00  3.00D+00  3.00D+00
                    CP:  3.00D+00
 E= -5110.89792060765     Delta-E=       -0.000176477741 Rises=F Damp=F
 DIIS: error= 6.92D-05 at cycle  12 NSaved=  12.
 NSaved=12 IEnMin=12 EnMin= -5110.89792060765     IErMin=12 ErrMin= 6.92D-05
 ErrMax= 6.92D-05  0.00D+00 EMaxC= 1.00D-01 BMatC= 1.04D-05 BMatP= 2.94D-05
 IDIUse=1 WtCom= 1.00D+00 WtEn= 0.00D+00
 Coeff-Com:  0.120D-02-0.253D-02-0.673D-02-0.124D-01-0.248D-02 0.154D+00
 Coeff-Com:  0.145D+00-0.131D+00-0.438D+00-0.327D+00 0.577D+00 0.104D+01
 Coeff:      0.120D-02-0.253D-02-0.673D-02-0.124D-01-0.248D-02 0.154D+00
 Coeff:      0.145D+00-0.131D+00-0.438D+00-0.327D+00 0.577D+00 0.104D+01
 Gap=     0.360 Goal=   None    Shift=    0.000
 Gap=     0.100 Goal=   None    Shift=    0.000
 RMSDP=1.34D-05 MaxDP=2.29D-03 DE=-1.76D-04 OVMax= 1.89D-02

 Cycle  13  Pass 1  IDiag  1:
 RMSU=  9.84D-06    CP:  9.97D-01  1.31D+00  6.67D-01  6.99D-01  1.20D+00
                    CP:  3.00D+00  3.00D+00  3.00D+00  3.00D+00  3.00D+00
                    CP:  3.00D+00  1.47D+00
 E= -5110.89795940303     Delta-E=       -0.000038795377 Rises=F Damp=F
 DIIS: error= 3.14D-05 at cycle  13 NSaved=  13.
 NSaved=13 IEnMin=13 EnMin= -5110.89795940303     IErMin=13 ErrMin= 3.14D-05
 ErrMax= 3.14D-05  0.00D+00 EMaxC= 1.00D-01 BMatC= 4.53D-06 BMatP= 1.04D-05
 IDIUse=1 WtCom= 1.00D+00 WtEn= 0.00D+00
 Coeff-Com:  0.129D-03-0.198D-03-0.728D-03-0.330D-02-0.810D-02-0.309D-01
 Coeff-Com:  0.143D-01 0.236D+00 0.576D-01-0.580D+00-0.160D+00 0.558D+00
 Coeff-Com:  0.917D+00
 Coeff:      0.129D-03-0.198D-03-0.728D-03-0.330D-02-0.810D-02-0.309D-01
 Coeff:      0.143D-01 0.236D+00 0.576D-01-0.580D+00-0.160D+00 0.558D+00
 Coeff:      0.917D+00
 Gap=     0.360 Goal=   None    Shift=    0.000
 Gap=     0.100 Goal=   None    Shift=    0.000
 RMSDP=1.32D-05 MaxDP=1.96D-03 DE=-3.88D-05 OVMax= 1.79D-02

 Cycle  14  Pass 1  IDiag  1:
 RMSU=  1.99D-06    CP:  9.97D-01  1.31D+00  6.68D-01  6.95D-01  1.22D+00
                    CP:  3.00D+00  3.00D+00  3.00D+00  3.00D+00  3.00D+00
                    CP:  3.00D+00  1.95D+00  1.94D+00
 E= -5110.89797333699     Delta-E=       -0.000013933965 Rises=F Damp=F
 DIIS: error= 1.83D-05 at cycle  14 NSaved=  14.
 NSaved=14 IEnMin=14 EnMin= -5110.89797333699     IErMin=14 ErrMin= 1.83D-05
 ErrMax= 1.83D-05  0.00D+00 EMaxC= 1.00D-01 BMatC= 1.53D-06 BMatP= 4.53D-06
 IDIUse=1 WtCom= 1.00D+00 WtEn= 0.00D+00
 Coeff-Com: -0.268D-03 0.608D-03 0.155D-02 0.158D-02-0.291D-02-0.607D-01
 Coeff-Com: -0.330D-01 0.158D+00 0.193D+00-0.187D+00-0.197D+00-0.997D-01
 Coeff-Com:  0.450D+00 0.777D+00
 Coeff:     -0.268D-03 0.608D-03 0.155D-02 0.158D-02-0.291D-02-0.607D-01
 Coeff:     -0.330D-01 0.158D+00 0.193D+00-0.187D+00-0.197D+00-0.997D-01
 Coeff:      0.450D+00 0.777D+00
 Gap=     0.360 Goal=   None    Shift=    0.000
 Gap=     0.100 Goal=   None    Shift=    0.000
 RMSDP=1.48D-06 MaxDP=1.84D-04 DE=-1.39D-05 OVMax= 1.46D-03

 Cycle  15  Pass 1  IDiag  1:
 RMSU=  1.16D-06    CP:  9.97D-01  1.31D+00  6.68D-01  6.95D-01  1.22D+00
                    CP:  3.00D+00  3.00D+00  3.00D+00  3.00D+00  3.00D+00
                    CP:  3.00D+00  1.92D+00  1.90D+00  7.26D-01
 E= -5110.89797421312     Delta-E=       -0.000000876131 Rises=F Damp=F
 DIIS: error= 8.96D-06 at cycle  15 NSaved=  15.
 NSaved=15 IEnMin=15 EnMin= -5110.89797421312     IErMin=15 ErrMin= 8.96D-06
 ErrMax= 8.96D-06  0.00D+00 EMaxC= 1.00D-01 BMatC= 4.77D-07 BMatP= 1.53D-06
 IDIUse=1 WtCom= 1.00D+00 WtEn= 0.00D+00
 Coeff-Com: -0.152D-03 0.325D-03 0.838D-03 0.145D-02 0.441D-03-0.206D-01
 Coeff-Com: -0.181D-01 0.167D-02 0.812D-01 0.144D-01-0.437D-01-0.160D+00
 Coeff-Com:  0.329D-01 0.410D+00 0.699D+00
 Coeff:     -0.152D-03 0.325D-03 0.838D-03 0.145D-02 0.441D-03-0.206D-01
 Coeff:     -0.181D-01 0.167D-02 0.812D-01 0.144D-01-0.437D-01-0.160D+00
 Coeff:      0.329D-01 0.410D+00 0.699D+00
 Gap=     0.360 Goal=   None    Shift=    0.000
 Gap=     0.100 Goal=   None    Shift=    0.000
 RMSDP=2.07D-06 MaxDP=3.35D-04 DE=-8.76D-07 OVMax= 2.56D-03

 Cycle  16  Pass 1  IDiag  1:
 RMSU=  3.97D-07    CP:  9.97D-01  1.31D+00  6.68D-01  6.94D-01  1.22D+00
                    CP:  3.00D+00  3.00D+00  3.00D+00  3.00D+00  3.00D+00
                    CP:  3.00D+00  1.99D+00  2.05D+00  9.43D-01  1.26D+00
 E= -5110.89797467007     Delta-E=       -0.000000456948 Rises=F Damp=F
 DIIS: error= 5.41D-06 at cycle  16 NSaved=  16.
 NSaved=16 IEnMin=16 EnMin= -5110.89797467007     IErMin=16 ErrMin= 5.41D-06
 ErrMax= 5.41D-06  0.00D+00 EMaxC= 1.00D-01 BMatC= 2.04D-07 BMatP= 4.77D-07
 IDIUse=1 WtCom= 1.00D+00 WtEn= 0.00D+00
 Coeff-Com:  0.922D-05-0.331D-04-0.992D-04 0.252D-03 0.129D-02 0.910D-02
 Coeff-Com:  0.464D-02-0.590D-01-0.192D-02 0.585D-01 0.649D-01-0.621D-01
 Coeff-Com: -0.133D+00-0.848D-01 0.344D+00 0.858D+00
 Coeff:      0.922D-05-0.331D-04-0.992D-04 0.252D-03 0.129D-02 0.910D-02
 Coeff:      0.464D-02-0.590D-01-0.192D-02 0.585D-01 0.649D-01-0.621D-01
 Coeff:     -0.133D+00-0.848D-01 0.344D+00 0.858D+00
 Gap=     0.360 Goal=   None    Shift=    0.000
 Gap=     0.100 Goal=   None    Shift=    0.000
 RMSDP=9.96D-07 MaxDP=1.68D-04 DE=-4.57D-07 OVMax= 1.20D-03

 Cycle  17  Pass 1  IDiag  1:
 RMSU=  2.95D-07    CP:  9.97D-01  1.31D+00  6.68D-01  6.95D-01  1.22D+00
                    CP:  3.00D+00  3.00D+00  3.00D+00  3.00D+00  3.00D+00
                    CP:  3.00D+00  1.96D+00  2.00D+00  9.05D-01  1.80D+00
                    CP:  1.73D+00
 E= -5110.89797498980     Delta-E=       -0.000000319731 Rises=F Damp=F
 DIIS: error= 5.09D-06 at cycle  17 NSaved=  17.
 NSaved=17 IEnMin=17 EnMin= -5110.89797498980     IErMin=17 ErrMin= 5.09D-06
 ErrMax= 5.09D-06  0.00D+00 EMaxC= 1.00D-01 BMatC= 1.37D-07 BMatP= 2.04D-07
 IDIUse=1 WtCom= 1.00D+00 WtEn= 0.00D+00
 Coeff-Com:  0.713D-04-0.160D-03-0.426D-03-0.468D-03 0.490D-03 0.137D-01
 Coeff-Com:  0.112D-01-0.480D-01-0.218D-01 0.850D-02 0.737D-01 0.188D-01
 Coeff-Com: -0.709D-01-0.209D+00-0.392D-01 0.545D+00 0.719D+00
 Coeff:      0.713D-04-0.160D-03-0.426D-03-0.468D-03 0.490D-03 0.137D-01
 Coeff:      0.112D-01-0.480D-01-0.218D-01 0.850D-02 0.737D-01 0.188D-01
 Coeff:     -0.709D-01-0.209D+00-0.392D-01 0.545D+00 0.719D+00
 Gap=     0.360 Goal=   None    Shift=    0.000
 Gap=     0.100 Goal=   None    Shift=    0.000
 RMSDP=6.17D-07 MaxDP=1.49D-04 DE=-3.20D-07 OVMax= 5.39D-04

 Cycle  18  Pass 1  IDiag  1:
 RMSU=  1.38D-07    CP:  9.97D-01  1.31D+00  6.68D-01  6.94D-01  1.22D+00
                    CP:  3.00D+00  3.00D+00  3.00D+00  3.00D+00  3.00D+00
                    CP:  3.00D+00  1.97D+00  2.02D+00  9.60D-01  2.11D+00
                    CP:  2.62D+00  1.68D+00
 E= -5110.89797520516     Delta-E=       -0.000000215357 Rises=F Damp=F
 DIIS: error= 4.46D-06 at cycle  18 NSaved=  18.
 NSaved=18 IEnMin=18 EnMin= -5110.89797520516     IErMin=18 ErrMin= 4.46D-06
 ErrMax= 4.46D-06  0.00D+00 EMaxC= 1.00D-01 BMatC= 9.26D-08 BMatP= 1.37D-07
 IDIUse=1 WtCom= 1.00D+00 WtEn= 0.00D+00
 Coeff-Com:  0.247D-04-0.482D-04-0.138D-03-0.324D-03-0.450D-03 0.111D-02
 Coeff-Com:  0.480D-02-0.193D-02 0.127D-01-0.426D-01 0.238D-01 0.125D-01
 Coeff-Com:  0.414D-01-0.781D-01-0.183D+00-0.158D-01 0.768D-01 0.115D+01
 Coeff:      0.247D-04-0.482D-04-0.138D-03-0.324D-03-0.450D-03 0.111D-02
 Coeff:      0.480D-02-0.193D-02 0.127D-01-0.426D-01 0.238D-01 0.125D-01
 Coeff:      0.414D-01-0.781D-01-0.183D+00-0.158D-01 0.768D-01 0.115D+01
 Gap=     0.361 Goal=   None    Shift=    0.000
 Gap=     0.100 Goal=   None    Shift=    0.000
 RMSDP=8.40D-07 MaxDP=2.16D-04 DE=-2.15D-07 OVMax= 7.67D-04

 Cycle  19  Pass 1  IDiag  1:
 RMSU=  3.04D-07    CP:  9.97D-01  1.31D+00  6.68D-01  6.94D-01  1.22D+00
                    CP:  3.00D+00  3.00D+00  3.00D+00  3.00D+00  3.00D+00
                    CP:  3.00D+00  1.96D+00  2.01D+00  9.63D-01  2.59D+00
                    CP:  3.00D+00  2.86D+00  1.97D+00
 E= -5110.89797545541     Delta-E=       -0.000000250249 Rises=F Damp=F
 DIIS: error= 5.12D-06 at cycle  19 NSaved=  19.
 NSaved=19 IEnMin=19 EnMin= -5110.89797545541     IErMin=18 ErrMin= 4.46D-06
 ErrMax= 5.12D-06  0.00D+00 EMaxC= 1.00D-01 BMatC= 8.78D-08 BMatP= 9.26D-08
 IDIUse=1 WtCom= 1.00D+00 WtEn= 0.00D+00
 Coeff-Com: -0.195D-04 0.458D-04 0.120D-03 0.581D-04-0.487D-03-0.622D-02
 Coeff-Com: -0.133D-02 0.107D-01 0.328D-01-0.412D-01-0.851D-02-0.184D-01
 Coeff-Com:  0.692D-01 0.773D-01-0.680D-01-0.147D+00-0.843D+00 0.770D+00
 Coeff-Com:  0.117D+01
 Coeff:     -0.195D-04 0.458D-04 0.120D-03 0.581D-04-0.487D-03-0.622D-02
 Coeff:     -0.133D-02 0.107D-01 0.328D-01-0.412D-01-0.851D-02-0.184D-01
 Coeff:      0.692D-01 0.773D-01-0.680D-01-0.147D+00-0.843D+00 0.770D+00
 Coeff:      0.117D+01
 Gap=     0.361 Goal=   None    Shift=    0.000
 Gap=     0.100 Goal=   None    Shift=    0.000
 RMSDP=1.05D-06 MaxDP=2.90D-04 DE=-2.50D-07 OVMax= 1.01D-03

 Cycle  20  Pass 1  IDiag  1:
 RMSU=  4.72D-07    CP:  9.97D-01  1.31D+00  6.68D-01  6.94D-01  1.22D+00
                    CP:  3.00D+00  3.00D+00  3.00D+00  3.00D+00  3.00D+00
                    CP:  3.00D+00  1.96D+00  2.02D+00  1.02D+00  3.00D+00
                    CP:  3.00D+00  3.00D+00  3.00D+00  2.99D+00
 E= -5110.89797575864     Delta-E=       -0.000000303229 Rises=F Damp=F
 DIIS: error= 4.49D-06 at cycle  20 NSaved=  20.
 NSaved=20 IEnMin=20 EnMin= -5110.89797575864     IErMin=18 ErrMin= 4.46D-06
 ErrMax= 4.49D-06  0.00D+00 EMaxC= 1.00D-01 BMatC= 6.75D-08 BMatP= 8.78D-08
 IDIUse=1 WtCom= 1.00D+00 WtEn= 0.00D+00
 Coeff-Com: -0.366D-04 0.760D-04 0.201D-03 0.376D-03 0.237D-03-0.518D-02
 Coeff-Com: -0.321D-02-0.524D-02 0.291D-01 0.240D-03-0.978D-02-0.464D-01
 Coeff-Com:  0.600D-02 0.125D+00 0.146D+00 0.160D+00-0.109D+01-0.443D+00
 Coeff-Com:  0.271D+00 0.187D+01
 Coeff:     -0.366D-04 0.760D-04 0.201D-03 0.376D-03 0.237D-03-0.518D-02
 Coeff:     -0.321D-02-0.524D-02 0.291D-01 0.240D-03-0.978D-02-0.464D-01
 Coeff:      0.600D-02 0.125D+00 0.146D+00 0.160D+00-0.109D+01-0.443D+00
 Coeff:      0.271D+00 0.187D+01
 Gap=     0.361 Goal=   None    Shift=    0.000
 Gap=     0.100 Goal=   None    Shift=    0.000
 RMSDP=2.09D-06 MaxDP=5.88D-04 DE=-3.03D-07 OVMax= 2.02D-03

 Cycle  21  Pass 1  IDiag  1:
 Restarting incremental Fock formation.
 E= -5110.89797624012     Delta-E=       -0.000000481479 Rises=F Damp=F
 DIIS: error= 3.71D-06 at cycle  21 NSaved=  20.
 NSaved=20 IEnMin=20 EnMin= -5110.89797624012     IErMin=20 ErrMin= 3.71D-06
 ErrMax= 3.71D-06  0.00D+00 EMaxC= 1.00D-01 BMatC= 4.15D-08 BMatP= 6.75D-08
 IDIUse=1 WtCom= 1.00D+00 WtEn= 0.00D+00
 Coeff-Com: -0.279D-05-0.137D-04 0.121D-03 0.703D-03 0.338D-02 0.139D-02
 Coeff-Com: -0.233D-01-0.690D-03 0.231D-01 0.240D-01-0.202D-01-0.552D-01
 Coeff-Com: -0.484D-01 0.138D+00 0.395D+00 0.683D-01-0.665D+00-0.153D+01
 Coeff-Com:  0.972D+00 0.172D+01
 Coeff:     -0.279D-05-0.137D-04 0.121D-03 0.703D-03 0.338D-02 0.139D-02
 Coeff:     -0.233D-01-0.690D-03 0.231D-01 0.240D-01-0.202D-01-0.552D-01
 Coeff:     -0.484D-01 0.138D+00 0.395D+00 0.683D-01-0.665D+00-0.153D+01
 Coeff:      0.972D+00 0.172D+01
 Gap=     0.361 Goal=   None    Shift=    0.000
 Gap=     0.100 Goal=   None    Shift=    0.000
 RMSDP=2.98D-06 MaxDP=8.56D-04 DE=-4.81D-07 OVMax= 2.88D-03

 Cycle  22  Pass 1  IDiag  1:
 RMSU=  2.98D-06    CP:  1.00D+00
 E= -5110.89797665567     Delta-E=       -0.000000415548 Rises=F Damp=F
 DIIS: error= 2.25D-06 at cycle  22 NSaved=  20.
 NSaved=20 IEnMin=20 EnMin= -5110.89797665567     IErMin=20 ErrMin= 2.25D-06
 ErrMax= 2.25D-06  0.00D+00 EMaxC= 1.00D-01 BMatC= 1.73D-08 BMatP= 4.15D-08
 IDIUse=1 WtCom= 1.00D+00 WtEn= 0.00D+00
 Coeff-Com:  0.261D-05 0.199D-04 0.232D-03 0.153D-02 0.935D-03-0.624D-02
 Coeff-Com:  0.104D-03-0.160D-02 0.163D-01-0.220D-04-0.103D-01-0.729D-01
 Coeff-Com: -0.560D-02 0.116D+00 0.325D+00 0.139D+00-0.859D+00-0.467D+00
 Coeff-Com:  0.798D+00 0.102D+01
 Coeff:      0.261D-05 0.199D-04 0.232D-03 0.153D-02 0.935D-03-0.624D-02
 Coeff:      0.104D-03-0.160D-02 0.163D-01-0.220D-04-0.103D-01-0.729D-01
 Coeff:     -0.560D-02 0.116D+00 0.325D+00 0.139D+00-0.859D+00-0.467D+00
 Coeff:      0.798D+00 0.102D+01
 Gap=     0.362 Goal=   None    Shift=    0.000
 Gap=     0.100 Goal=   None    Shift=    0.000
 RMSDP=1.63D-06 MaxDP=4.77D-04 DE=-4.16D-07 OVMax= 1.57D-03

 Cycle  23  Pass 1  IDiag  1:
 RMSU=  1.42D-07    CP:  1.00D+00  1.54D+00
 E= -5110.89797675366     Delta-E=       -0.000000097993 Rises=F Damp=F
 DIIS: error= 1.45D-06 at cycle  23 NSaved=  20.
 NSaved=20 IEnMin=20 EnMin= -5110.89797675366     IErMin=20 ErrMin= 1.45D-06
 ErrMax= 1.45D-06  0.00D+00 EMaxC= 1.00D-01 BMatC= 6.94D-09 BMatP= 1.73D-08
 IDIUse=1 WtCom= 1.00D+00 WtEn= 0.00D+00
 Coeff-Com: -0.385D-04-0.182D-03-0.649D-03 0.309D-03 0.365D-02 0.475D-02
 Coeff-Com: -0.142D-01 0.300D-02 0.323D-02 0.203D-01-0.176D-01-0.587D-01
 Coeff-Com: -0.490D-01 0.463D-03 0.464D+00 0.115D+00-0.523D+00-0.271D+00
 Coeff-Com:  0.349D+00 0.970D+00
 Coeff:     -0.385D-04-0.182D-03-0.649D-03 0.309D-03 0.365D-02 0.475D-02
 Coeff:     -0.142D-01 0.300D-02 0.323D-02 0.203D-01-0.176D-01-0.587D-01
 Coeff:     -0.490D-01 0.463D-03 0.464D+00 0.115D+00-0.523D+00-0.271D+00
 Coeff:      0.349D+00 0.970D+00
 Gap=     0.362 Goal=   None    Shift=    0.000
 Gap=     0.100 Goal=   None    Shift=    0.000
 RMSDP=4.02D-07 MaxDP=1.31D-04 DE=-9.80D-08 OVMax= 3.67D-04

 Cycle  24  Pass 1  IDiag  1:
 RMSU=  9.07D-08    CP:  1.00D+00  1.67D+00  1.78D+00
 E= -5110.89797677233     Delta-E=       -0.000000018674 Rises=F Damp=F
 DIIS: error= 1.09D-06 at cycle  24 NSaved=  20.
 NSaved=20 IEnMin=20 EnMin= -5110.89797677233     IErMin=20 ErrMin= 1.09D-06
 ErrMax= 1.09D-06  0.00D+00 EMaxC= 1.00D-01 BMatC= 5.06D-09 BMatP= 6.94D-09
 IDIUse=1 WtCom= 1.00D+00 WtEn= 0.00D+00
 Coeff-Com: -0.121D-03-0.622D-03-0.508D-04 0.111D-02 0.383D-02-0.661D-02
 Coeff-Com: -0.851D-04-0.303D-02 0.137D-01 0.158D-01-0.221D-01-0.201D-01
 Coeff-Com: -0.212D+00 0.227D+00 0.292D+00-0.293D-02-0.435D+00-0.318D+00
 Coeff-Com:  0.540D+00 0.926D+00
 Coeff:     -0.121D-03-0.622D-03-0.508D-04 0.111D-02 0.383D-02-0.661D-02
 Coeff:     -0.851D-04-0.303D-02 0.137D-01 0.158D-01-0.221D-01-0.201D-01
 Coeff:     -0.212D+00 0.227D+00 0.292D+00-0.293D-02-0.435D+00-0.318D+00
 Coeff:      0.540D+00 0.926D+00
 Gap=     0.362 Goal=   None    Shift=    0.000
 Gap=     0.100 Goal=   None    Shift=    0.000
 RMSDP=4.23D-07 MaxDP=1.37D-04 DE=-1.87D-08 OVMax= 3.83D-04

 Cycle  25  Pass 1  IDiag  1:
 RMSU=  4.22D-08    CP:  1.00D+00  1.80D+00  2.45D+00  2.23D+00
 E= -5110.89797678473     Delta-E=       -0.000000012395 Rises=F Damp=F
 DIIS: error= 8.65D-07 at cycle  25 NSaved=  20.
 NSaved=20 IEnMin=20 EnMin= -5110.89797678473     IErMin=20 ErrMin= 8.65D-07
 ErrMax= 8.65D-07  0.00D+00 EMaxC= 1.00D-01 BMatC= 2.67D-09 BMatP= 5.06D-09
 IDIUse=1 WtCom= 1.00D+00 WtEn= 0.00D+00
 Coeff-Com: -0.117D-03-0.490D-04-0.867D-03 0.224D-02-0.175D-02 0.216D-02
 Coeff-Com: -0.678D-02 0.584D-02 0.112D-01 0.113D-01 0.315D-01-0.164D+00
 Coeff-Com: -0.322D-01 0.360D-01 0.284D+00-0.285D-01-0.348D+00-0.250D+00
 Coeff-Com:  0.168D+00 0.128D+01
 Coeff:     -0.117D-03-0.490D-04-0.867D-03 0.224D-02-0.175D-02 0.216D-02
 Coeff:     -0.678D-02 0.584D-02 0.112D-01 0.113D-01 0.315D-01-0.164D+00
 Coeff:     -0.322D-01 0.360D-01 0.284D+00-0.285D-01-0.348D+00-0.250D+00
 Coeff:      0.168D+00 0.128D+01
 Gap=     0.362 Goal=   None    Shift=    0.000
 Gap=     0.100 Goal=   None    Shift=    0.000
 RMSDP=2.04D-07 MaxDP=4.60D-05 DE=-1.24D-08 OVMax= 1.82D-04

 Cycle  26  Pass 1  IDiag  1:
 RMSU=  1.04D-07    CP:  1.00D+00  1.80D+00  3.00D+00  3.00D+00  1.66D+00
 E= -5110.89797679560     Delta-E=       -0.000000010878 Rises=F Damp=F
 DIIS: error= 6.94D-07 at cycle  26 NSaved=  20.
 NSaved=20 IEnMin=20 EnMin= -5110.89797679560     IErMin=20 ErrMin= 6.94D-07
 ErrMax= 6.94D-07  0.00D+00 EMaxC= 1.00D-01 BMatC= 2.07D-09 BMatP= 2.67D-09
 IDIUse=1 WtCom= 1.00D+00 WtEn= 0.00D+00
 Coeff-Com: -0.504D-04-0.196D-02 0.106D-02 0.155D-02 0.363D-02-0.715D-02
 Coeff-Com: -0.357D-02-0.387D-02 0.217D-01 0.570D-01-0.485D-01-0.891D-01
 Coeff-Com: -0.119D+00 0.188D+00 0.132D+00-0.104D+00-0.296D+00-0.447D+00
 Coeff-Com:  0.763D+00 0.951D+00
 Coeff:     -0.504D-04-0.196D-02 0.106D-02 0.155D-02 0.363D-02-0.715D-02
 Coeff:     -0.357D-02-0.387D-02 0.217D-01 0.570D-01-0.485D-01-0.891D-01
 Coeff:     -0.119D+00 0.188D+00 0.132D+00-0.104D+00-0.296D+00-0.447D+00
 Coeff:      0.763D+00 0.951D+00
 Gap=     0.362 Goal=   None    Shift=    0.000
 Gap=     0.100 Goal=   None    Shift=    0.000
 RMSDP=2.27D-07 MaxDP=7.13D-05 DE=-1.09D-08 OVMax= 2.16D-04

 Cycle  27  Pass 1  IDiag  1:
 RMSU=  8.76D-08    CP:  1.00D+00  1.85D+00  3.00D+00  3.00D+00  2.97D+00
                    CP:  2.46D+00
 E= -5110.89797680480     Delta-E=       -0.000000009193 Rises=F Damp=F
 DIIS: error= 5.70D-07 at cycle  27 NSaved=  20.
 NSaved=20 IEnMin=20 EnMin= -5110.89797680480     IErMin=20 ErrMin= 5.70D-07
 ErrMax= 5.70D-07  0.00D+00 EMaxC= 1.00D-01 BMatC= 1.08D-09 BMatP= 2.07D-09
 IDIUse=1 WtCom= 1.00D+00 WtEn= 0.00D+00
 Coeff-Com: -0.596D-03 0.953D-03-0.493D-03 0.276D-02-0.138D-02-0.181D-02
 Coeff-Com: -0.108D-01 0.646D-02 0.287D-01 0.353D-01-0.470D-02-0.159D+00
 Coeff-Com: -0.454D-01 0.168D+00 0.209D+00 0.476D-01-0.513D+00-0.450D+00
 Coeff-Com:  0.591D-01 0.163D+01
 Coeff:     -0.596D-03 0.953D-03-0.493D-03 0.276D-02-0.138D-02-0.181D-02
 Coeff:     -0.108D-01 0.646D-02 0.287D-01 0.353D-01-0.470D-02-0.159D+00
 Coeff:     -0.454D-01 0.168D+00 0.209D+00 0.476D-01-0.513D+00-0.450D+00
 Coeff:      0.591D-01 0.163D+01
 Gap=     0.362 Goal=   None    Shift=    0.000
 Gap=     0.100 Goal=   None    Shift=    0.000
 RMSDP=2.65D-07 MaxDP=5.36D-05 DE=-9.19D-09 OVMax= 2.45D-04

 Cycle  28  Pass 1  IDiag  1:
 RMSU=  2.02D-07    CP:  1.00D+00  1.84D+00  3.00D+00  3.00D+00  3.00D+00
                    CP:  3.00D+00  1.78D+00
 E= -5110.89797681343     Delta-E=       -0.000000008629 Rises=F Damp=F
 DIIS: error= 4.13D-07 at cycle  28 NSaved=  20.
 NSaved=20 IEnMin=20 EnMin= -5110.89797681343     IErMin=20 ErrMin= 4.13D-07
 ErrMax= 4.13D-07  0.00D+00 EMaxC= 1.00D-01 BMatC= 6.25D-10 BMatP= 1.08D-09
 IDIUse=1 WtCom= 1.00D+00 WtEn= 0.00D+00
 Coeff-Com:  0.183D-03-0.212D-02 0.851D-04 0.363D-02 0.355D-02-0.194D-03
 Coeff-Com: -0.185D-01-0.221D-01-0.144D-01 0.120D+00 0.610D-01-0.137D+00
 Coeff-Com: -0.990D-01 0.767D-01 0.310D+00 0.149D+00-0.644D+00-0.893D+00
 Coeff-Com:  0.774D+00 0.133D+01
 Coeff:      0.183D-03-0.212D-02 0.851D-04 0.363D-02 0.355D-02-0.194D-03
 Coeff:     -0.185D-01-0.221D-01-0.144D-01 0.120D+00 0.610D-01-0.137D+00
 Coeff:     -0.990D-01 0.767D-01 0.310D+00 0.149D+00-0.644D+00-0.893D+00
 Coeff:      0.774D+00 0.133D+01
 Gap=     0.362 Goal=   None    Shift=    0.000
 Gap=     0.100 Goal=   None    Shift=    0.000
 RMSDP=2.72D-07 MaxDP=7.48D-05 DE=-8.63D-09 OVMax= 2.46D-04

 Cycle  29  Pass 1  IDiag  1:
 RMSU=  4.12D-08    CP:  1.00D+00  1.87D+00  3.00D+00  3.00D+00  3.00D+00
                    CP:  3.00D+00  3.00D+00  2.10D+00
 E= -5110.89797681809     Delta-E=       -0.000000004668 Rises=F Damp=F
 DIIS: error= 2.59D-07 at cycle  29 NSaved=  20.
 NSaved=20 IEnMin=20 EnMin= -5110.89797681809     IErMin=20 ErrMin= 2.59D-07
 ErrMax= 2.59D-07  0.00D+00 EMaxC= 1.00D-01 BMatC= 2.22D-10 BMatP= 6.25D-10
 IDIUse=1 WtCom= 1.00D+00 WtEn= 0.00D+00
 Coeff-Com: -0.779D-03-0.118D-03 0.313D-03 0.168D-02 0.358D-02-0.494D-02
 Coeff-Com: -0.140D-01-0.326D-01 0.438D-01 0.101D+00-0.241D-01-0.117D+00
 Coeff-Com: -0.860D-01 0.159D+00 0.317D+00-0.100D+00-0.529D+00-0.279D+00
 Coeff-Com:  0.596D+00 0.966D+00
 Coeff:     -0.779D-03-0.118D-03 0.313D-03 0.168D-02 0.358D-02-0.494D-02
 Coeff:     -0.140D-01-0.326D-01 0.438D-01 0.101D+00-0.241D-01-0.117D+00
 Coeff:     -0.860D-01 0.159D+00 0.317D+00-0.100D+00-0.529D+00-0.279D+00
 Coeff:      0.596D+00 0.966D+00
 Gap=     0.362 Goal=   None    Shift=    0.000
 Gap=     0.100 Goal=   None    Shift=    0.000
 RMSDP=1.14D-07 MaxDP=2.38D-05 DE=-4.67D-09 OVMax= 9.26D-05

 Cycle  30  Pass 1  IDiag  1:
 RMSU=  3.90D-08    CP:  1.00D+00  1.88D+00  3.00D+00  3.00D+00  3.00D+00
                    CP:  3.00D+00  3.00D+00  2.59D+00  1.96D+00
 E= -5110.89797681936     Delta-E=       -0.000000001270 Rises=F Damp=F
 DIIS: error= 1.70D-07 at cycle  30 NSaved=  20.
 NSaved=20 IEnMin=20 EnMin= -5110.89797681936     IErMin=20 ErrMin= 1.70D-07
 ErrMax= 1.70D-07  0.00D+00 EMaxC= 1.00D-01 BMatC= 9.20D-11 BMatP= 2.22D-10
 IDIUse=1 WtCom= 1.00D+00 WtEn= 0.00D+00
 Coeff-Com:  0.319D-03-0.141D-02 0.176D-03 0.175D-02 0.551D-02-0.113D-02
 Coeff-Com: -0.136D-01-0.245D-01 0.353D-01 0.364D-01-0.202D-01-0.782D-01
 Coeff-Com: -0.738D-02 0.113D+00 0.169D+00-0.260D-01-0.401D+00-0.934D-01
 Coeff-Com:  0.575D+00 0.731D+00
 Coeff:      0.319D-03-0.141D-02 0.176D-03 0.175D-02 0.551D-02-0.113D-02
 Coeff:     -0.136D-01-0.245D-01 0.353D-01 0.364D-01-0.202D-01-0.782D-01
 Coeff:     -0.738D-02 0.113D+00 0.169D+00-0.260D-01-0.401D+00-0.934D-01
 Coeff:      0.575D+00 0.731D+00
 Gap=     0.362 Goal=   None    Shift=    0.000
 Gap=     0.100 Goal=   None    Shift=    0.000
 RMSDP=4.36D-08 MaxDP=5.90D-06 DE=-1.27D-09 OVMax= 3.72D-05

 Cycle  31  Pass 1  IDiag  1:
 RMSU=  1.16D-08    CP:  1.00D+00  1.87D+00  3.00D+00  3.00D+00  3.00D+00
                    CP:  3.00D+00  3.00D+00  2.78D+00  2.19D+00  1.22D+00
 E= -5110.89797681994     Delta-E=       -0.000000000575 Rises=F Damp=F
 DIIS: error= 1.29D-07 at cycle  31 NSaved=  20.
 NSaved=20 IEnMin=20 EnMin= -5110.89797681994     IErMin=20 ErrMin= 1.29D-07
 ErrMax= 1.29D-07  0.00D+00 EMaxC= 1.00D-01 BMatC= 2.94D-11 BMatP= 9.20D-11
 IDIUse=1 WtCom= 1.00D+00 WtEn= 0.00D+00
 Coeff-Com: -0.484D-03 0.363D-03 0.858D-03 0.334D-02-0.173D-02-0.662D-04
 Coeff-Com: -0.242D-01 0.212D-02 0.234D-01 0.157D-01-0.251D-01-0.477D-01
 Coeff-Com: -0.500D-01 0.138D+00 0.151D+00-0.128D+00-0.229D+00-0.897D-02
 Coeff-Com:  0.254D+00 0.926D+00
 Coeff:     -0.484D-03 0.363D-03 0.858D-03 0.334D-02-0.173D-02-0.662D-04
 Coeff:     -0.242D-01 0.212D-02 0.234D-01 0.157D-01-0.251D-01-0.477D-01
 Coeff:     -0.500D-01 0.138D+00 0.151D+00-0.128D+00-0.229D+00-0.897D-02
 Coeff:      0.254D+00 0.926D+00
 Gap=     0.362 Goal=   None    Shift=    0.000
 Gap=     0.100 Goal=   None    Shift=    0.000
 RMSDP=4.25D-08 MaxDP=1.30D-05 DE=-5.75D-10 OVMax= 3.91D-05

 Cycle  32  Pass 1  IDiag  1:
 RMSU=  5.15D-09    CP:  1.00D+00  1.88D+00  3.00D+00  3.00D+00  3.00D+00
                    CP:  3.00D+00  3.00D+00  2.91D+00  2.45D+00  1.45D+00
                    CP:  1.71D+00
 E= -5110.89797681999     Delta-E=       -0.000000000051 Rises=F Damp=F
 DIIS: error= 1.05D-07 at cycle  32 NSaved=  20.
 NSaved=20 IEnMin=20 EnMin= -5110.89797681999     IErMin=20 ErrMin= 1.05D-07
 ErrMax= 1.05D-07  0.00D+00 EMaxC= 1.00D-01 BMatC= 1.62D-11 BMatP= 2.94D-11
 IDIUse=1 WtCom= 1.00D+00 WtEn= 0.00D+00
 Coeff-Com: -0.117D-03-0.260D-03 0.595D-03-0.813D-03 0.908D-02-0.582D-02
 Coeff-Com: -0.779D-02-0.445D-02 0.161D-01 0.114D-01-0.160D-01-0.662D-01
 Coeff-Com:  0.333D-01 0.810D-01 0.624D-01-0.900D-01-0.157D+00-0.170D+00
 Coeff-Com:  0.264D+00 0.104D+01
 Coeff:     -0.117D-03-0.260D-03 0.595D-03-0.813D-03 0.908D-02-0.582D-02
 Coeff:     -0.779D-02-0.445D-02 0.161D-01 0.114D-01-0.160D-01-0.662D-01
 Coeff:      0.333D-01 0.810D-01 0.624D-01-0.900D-01-0.157D+00-0.170D+00
 Coeff:      0.264D+00 0.104D+01
 Gap=     0.362 Goal=   None    Shift=    0.000
 Gap=     0.100 Goal=   None    Shift=    0.000
 RMSDP=2.05D-08 MaxDP=4.59D-06 DE=-5.09D-11 OVMax= 1.62D-05

 Cycle  33  Pass 1  IDiag  1:
 RMSU=  3.56D-09    CP:  1.00D+00  1.88D+00  3.00D+00  3.00D+00  3.00D+00
                    CP:  3.00D+00  3.00D+00  2.91D+00  2.59D+00  1.49D+00
                    CP:  2.69D+00  1.90D+00
 E= -5110.89797682013     Delta-E=       -0.000000000142 Rises=F Damp=F
 DIIS: error= 8.42D-08 at cycle  33 NSaved=  20.
 NSaved=20 IEnMin=20 EnMin= -5110.89797682013     IErMin=20 ErrMin= 8.42D-08
 ErrMax= 8.42D-08  0.00D+00 EMaxC= 1.00D-01 BMatC= 1.03D-11 BMatP= 1.62D-11
 IDIUse=1 WtCom= 1.00D+00 WtEn= 0.00D+00
 Coeff-Com:  0.857D-03-0.697D-03-0.266D-02-0.558D-05 0.428D-02 0.928D-02
 Coeff-Com: -0.894D-02-0.754D-02 0.503D-02 0.264D-01 0.559D-02-0.397D-01
 Coeff-Com: -0.902D-01 0.636D-01 0.105D+00 0.437D-01-0.223D+00-0.520D+00
 Coeff-Com:  0.152D+00 0.148D+01
 Coeff:      0.857D-03-0.697D-03-0.266D-02-0.558D-05 0.428D-02 0.928D-02
 Coeff:     -0.894D-02-0.754D-02 0.503D-02 0.264D-01 0.559D-02-0.397D-01
 Coeff:     -0.902D-01 0.636D-01 0.105D+00 0.437D-01-0.223D+00-0.520D+00
 Coeff:      0.152D+00 0.148D+01
 Gap=     0.362 Goal=   None    Shift=    0.000
 Gap=     0.100 Goal=   None    Shift=    0.000
 RMSDP=2.37D-08 MaxDP=3.92D-06 DE=-1.42D-10 OVMax= 2.17D-05

 Cycle  34  Pass 1  IDiag  1:
 RMSU=  1.20D-08    CP:  1.00D+00  1.87D+00  3.00D+00  3.00D+00  3.00D+00
                    CP:  3.00D+00  3.00D+00  2.97D+00  2.70D+00  1.57D+00
                    CP:  3.00D+00  3.00D+00  2.05D+00
 E= -5110.89797682036     Delta-E=       -0.000000000233 Rises=F Damp=F
 DIIS: error= 5.54D-08 at cycle  34 NSaved=  20.
 NSaved=20 IEnMin=20 EnMin= -5110.89797682036     IErMin=20 ErrMin= 5.54D-08
 ErrMax= 5.54D-08  0.00D+00 EMaxC= 1.00D-01 BMatC= 6.68D-12 BMatP= 1.03D-11
 IDIUse=1 WtCom= 1.00D+00 WtEn= 0.00D+00
 Coeff-Com: -0.713D-04-0.225D-02 0.287D-02-0.906D-03 0.895D-02-0.638D-02
 Coeff-Com: -0.742D-02-0.681D-02 0.155D-01 0.228D-01 0.458D-02-0.602D-01
 Coeff-Com: -0.391D-01 0.345D-01 0.144D+00 0.373D-01-0.307D+00-0.483D+00
 Coeff-Com:  0.578D+00 0.106D+01
 Coeff:     -0.713D-04-0.225D-02 0.287D-02-0.906D-03 0.895D-02-0.638D-02
 Coeff:     -0.742D-02-0.681D-02 0.155D-01 0.228D-01 0.458D-02-0.602D-01
 Coeff:     -0.391D-01 0.345D-01 0.144D+00 0.373D-01-0.307D+00-0.483D+00
 Coeff:      0.578D+00 0.106D+01
 Gap=     0.362 Goal=   None    Shift=    0.000
 Gap=     0.100 Goal=   None    Shift=    0.000
 RMSDP=2.07D-08 MaxDP=5.12D-06 DE=-2.33D-10 OVMax= 2.03D-05

 Cycle  35  Pass 1  IDiag  1:
 RMSU=  6.67D-09    CP:  1.00D+00  1.88D+00  3.00D+00  3.00D+00  3.00D+00
                    CP:  3.00D+00  3.00D+00  3.00D+00  2.78D+00  1.65D+00
                    CP:  3.00D+00  3.00D+00  2.93D+00  1.90D+00
