 Entering Gaussian System, Link 0=g09
 Initial command:
 /home/k0335/k033513/app/g09/l1.exe "/home/k0335/k033513/app/g09/scratch/Gau-2404620.inp" -scrdir="/home/k0335/k033513/app/g09/scratch/"
 Default is to use a total of  36 processors:
                               36 via shared-memory
                                1 via Linda
 Entering Link 1 = /home/k0335/k033513/app/g09/l1.exe PID=   2404621.
  
 Copyright (c) 1988,1990,1992,1993,1995,1998,2003,2009,2013,
            Gaussian, Inc.  All Rights Reserved.
  
 This is part of the Gaussian(R) 09 program.  It is based on
 the Gaussian(R) 03 system (copyright 2003, Gaussian, Inc.),
 the Gaussian(R) 98 system (copyright 1998, Gaussian, Inc.),
 the Gaussian(R) 94 system (copyright 1995, Gaussian, Inc.),
 the Gaussian 92(TM) system (copyright 1992, Gaussian, Inc.),
 the Gaussian 90(TM) system (copyright 1990, Gaussian, Inc.),
 the Gaussian 88(TM) system (copyright 1988, Gaussian, Inc.),
 the Gaussian 86(TM) system (copyright 1986, Carnegie Mellon
 University), and the Gaussian 82(TM) system (copyright 1983,
 Carnegie Mellon University). Gaussian is a federally registered
 trademark of Gaussian, Inc.
  
 This software contains proprietary and confidential information,
 including trade secrets, belonging to Gaussian, Inc.
  
 This software is provided under written license and may be
 used, copied, transmitted, or stored only in accord with that
 written license.
  
 The following legend is applicable only to US Government
 contracts under FAR:
  
                    RESTRICTED RIGHTS LEGEND
  
 Use, reproduction and disclosure by the US Government is
 subject to restrictions as set forth in subparagraphs (a)
 and (c) of the Commercial Computer Software - Restricted
 Rights clause in FAR 52.227-19.
  
 Gaussian, Inc.
 340 Quinnipiac St., Bldg. 40, Wallingford CT 06492
  
  
 ---------------------------------------------------------------
 Warning -- This program may not be used in any manner that
 competes with the business of Gaussian, Inc. or will provide
 assistance to any competitor of Gaussian, Inc.  The licensee
 of this program is prohibited from giving any competitor of
 Gaussian, Inc. access to this program.  By using this program,
 the user acknowledges that Gaussian, Inc. is engaged in the
 business of creating and licensing software in the field of
 computational chemistry and represents and warrants to the
 licensee that it is not a competitor of Gaussian, Inc. and that
 it will not use this program in any manner prohibited above.
 ---------------------------------------------------------------
  

 Cite this work as:
 Gaussian 09, Revision D.01,
 M. J. Frisch, G. W. Trucks, H. B. Schlegel, G. E. Scuseria, 
 M. A. Robb, J. R. Cheeseman, G. Scalmani, V. Barone, B. Mennucci, 
 G. A. Petersson, H. Nakatsuji, M. Caricato, X. Li, H. P. Hratchian, 
 A. F. Izmaylov, J. Bloino, G. Zheng, J. L. Sonnenberg, M. Hada, 
 M. Ehara, K. Toyota, R. Fukuda, J. Hasegawa, M. Ishida, T. Nakajima, 
 Y. Honda, O. Kitao, H. Nakai, T. Vreven, J. A. Montgomery, Jr., 
 J. E. Peralta, F. Ogliaro, M. Bearpark, J. J. Heyd, E. Brothers, 
 K. N. Kudin, V. N. Staroverov, T. Keith, R. Kobayashi, J. Normand, 
 K. Raghavachari, A. Rendell, J. C. Burant, S. S. Iyengar, J. Tomasi, 
 M. Cossi, N. Rega, J. M. Millam, M. Klene, J. E. Knox, J. B. Cross, 
 V. Bakken, C. Adamo, J. Jaramillo, R. Gomperts, R. E. Stratmann, 
 O. Yazyev, A. J. Austin, R. Cammi, C. Pomelli, J. W. Ochterski, 
 R. L. Martin, K. Morokuma, V. G. Zakrzewski, G. A. Voth, 
 P. Salvador, J. J. Dannenberg, S. Dapprich, A. D. Daniels, 
 O. Farkas, J. B. Foresman, J. V. Ortiz, J. Cioslowski, 
 and D. J. Fox, Gaussian, Inc., Wallingford CT, 2013.
 
 ******************************************
 Gaussian 09:  ES64L-G09RevD.01 24-Apr-2013
                 5-Feb-2025 
 ******************************************
 %nprocshared=24
 Will use up to   24 processors via shared memory.
 %mem=40GB
 %rwf=cytopopt/S1/S1_neu.rwf
 %nosave
 %chk=cytopopt/S1/S1_neu.chk
 ----------------------------------------------------------------------
 #p CAM-B3LYP/6-31G(d,p) opt SCRF=(PCM,Solvent=Generic,Read) NoSymm out
 =wfn
 ----------------------------------------------------------------------
 1/14=-1,18=20,19=15,26=3,38=1,40=2/1,3;
 2/9=110,12=2,15=1,17=6,18=5,40=1/2;
 3/5=1,6=6,7=101,11=2,16=1,25=1,30=1,70=2203,71=1,72=-2,74=-40/1,2,3;
 4//1;
 5/5=2,38=5/2;
 6/7=2,8=2,9=2,10=2,28=1/1;
 7/30=1/1,2,3,16;
 1/14=-1,18=20,19=15,26=3/3(2);
 2/9=110,15=1/2;
 99/6=100/99;
 2/9=110,15=1/2;
 3/5=1,6=6,7=101,11=2,16=1,25=1,30=1,70=2205,71=1,72=-2,74=-40/1,2,3;
 4/5=5,16=3,69=1/1;
 5/5=2,38=5/2;
 7/30=1/1,2,3,16;
 1/14=-1,18=20,19=15,26=3/3(-5);
 2/9=110,15=1/2;
 6/7=2,8=2,9=2,10=2,19=2,28=1/1;
 99/6=100,9=1/99;
 Leave Link    1 at Wed Feb  5 01:16:37 2025, MaxMem=  5368709120 cpu:         1.4
 (Enter /home/k0335/k033513/app/g09/l101.exe)
 ------------
 Title S1_neu
 ------------
 Symbolic Z-matrix:
 Charge =  0 Multiplicity = 1
 F                    -0.07835  -0.42538  -1.40655 
 C                     0.47986   0.3314   -0.4232 
 C                     1.83444  -0.21991  -0.02845 
 F                     2.78019   0.25712  -0.89509 
 C                     1.91857  -1.74241  -0.06805 
 F                     1.01081  -2.31967   0.74393 
 F                     1.69265  -2.2211   -1.31294 
 F                     3.13788  -2.18632   0.31379 
 F                     2.19099   0.25062   1.19412 
 C                    -0.55588   0.60878   0.67276 
 O                    -1.50194   1.54774   0.11746 
 C                    -0.84252   2.14375  -0.99654 
 F                    -1.04327   3.47325  -0.98465 
 F                    -1.46      1.64427  -2.09215 
 C                     0.61696   1.73748  -0.95044 
 F                     1.32345   2.51215  -0.09348 
 F                     1.23169   1.80357  -2.14662 
 C                    -1.2879   -0.53244   1.37966 
 F                    -0.39164  -1.22321   2.13719 
 C                    -2.05431  -1.46371   0.45422 
 F                    -2.75936  -2.38987   1.14424 
 F                    -1.21984  -2.14184  -0.36592 
 F                    -2.92569  -0.79486  -0.3324 
 F                    -2.16076   0.01677   2.28333 
 F                     0.06398   1.33381   1.65579 
 
 NAtoms=     25 NQM=       25 NQMF=       0 NMMI=      0 NMMIF=      0
                NMic=       0 NMicF=      0.
                    Isotopes and Nuclear Properties:
 (Nuclear quadrupole moments (NQMom) in fm**2, nuclear magnetic moments (NMagM)
  in nuclear magnetons)

  Atom         1           2           3           4           5           6           7           8           9          10
 IAtWgt=          19          12          12          19          12          19          19          19          19          12
 AtmWgt=  18.9984033  12.0000000  12.0000000  18.9984033  12.0000000  18.9984033  18.9984033  18.9984033  18.9984033  12.0000000
 NucSpn=           1           0           0           1           0           1           1           1           1           0
 AtZEff=   0.0000000   0.0000000   0.0000000   0.0000000   0.0000000   0.0000000   0.0000000   0.0000000   0.0000000   0.0000000
 NQMom=    0.0000000   0.0000000   0.0000000   0.0000000   0.0000000   0.0000000   0.0000000   0.0000000   0.0000000   0.0000000
 NMagM=    2.6288670   0.0000000   0.0000000   2.6288670   0.0000000   2.6288670   2.6288670   2.6288670   2.6288670   0.0000000
 AtZNuc=   9.0000000   6.0000000   6.0000000   9.0000000   6.0000000   9.0000000   9.0000000   9.0000000   9.0000000   6.0000000

  Atom        11          12          13          14          15          16          17          18          19          20
 IAtWgt=          16          12          19          19          12          19          19          12          19          12
 AtmWgt=  15.9949146  12.0000000  18.9984033  18.9984033  12.0000000  18.9984033  18.9984033  12.0000000  18.9984033  12.0000000
 NucSpn=           0           0           1           1           0           1           1           0           1           0
 AtZEff=   0.0000000   0.0000000   0.0000000   0.0000000   0.0000000   0.0000000   0.0000000   0.0000000   0.0000000   0.0000000
 NQMom=    0.0000000   0.0000000   0.0000000   0.0000000   0.0000000   0.0000000   0.0000000   0.0000000   0.0000000   0.0000000
 NMagM=    0.0000000   0.0000000   2.6288670   2.6288670   0.0000000   2.6288670   2.6288670   0.0000000   2.6288670   0.0000000
 AtZNuc=   8.0000000   6.0000000   9.0000000   9.0000000   6.0000000   9.0000000   9.0000000   6.0000000   9.0000000   6.0000000

  Atom        21          22          23          24          25
 IAtWgt=          19          19          19          19          19
 AtmWgt=  18.9984033  18.9984033  18.9984033  18.9984033  18.9984033
 NucSpn=           1           1           1           1           1
 AtZEff=   0.0000000   0.0000000   0.0000000   0.0000000   0.0000000
 NQMom=    0.0000000   0.0000000   0.0000000   0.0000000   0.0000000
 NMagM=    2.6288670   2.6288670   2.6288670   2.6288670   2.6288670
 AtZNuc=   9.0000000   9.0000000   9.0000000   9.0000000   9.0000000
 Leave Link  101 at Wed Feb  5 01:16:38 2025, MaxMem=  5368709120 cpu:         3.1
 (Enter /home/k0335/k033513/app/g09/l103.exe)

 GradGradGradGradGradGradGradGradGradGradGradGradGradGradGradGradGradGrad
 Berny optimization.
 Initialization pass.
                           ----------------------------
                           !    Initial Parameters    !
                           ! (Angstroms and Degrees)  !
 --------------------------                            --------------------------
 ! Name  Definition              Value          Derivative Info.                !
 --------------------------------------------------------------------------------
 ! R1    R(1,2)                  1.3606         estimate D2E/DX2                !
 ! R2    R(2,3)                  1.5148         estimate D2E/DX2                !
 ! R3    R(2,10)                 1.5332         estimate D2E/DX2                !
 ! R4    R(2,15)                 1.5079         estimate D2E/DX2                !
 ! R5    R(3,4)                  1.3686         estimate D2E/DX2                !
 ! R6    R(3,5)                  1.5253         estimate D2E/DX2                !
 ! R7    R(3,9)                  1.3576         estimate D2E/DX2                !
 ! R8    R(5,6)                  1.3478         estimate D2E/DX2                !
 ! R9    R(5,7)                  1.3528         estimate D2E/DX2                !
 ! R10   R(5,8)                  1.3526         estimate D2E/DX2                !
 ! R11   R(10,11)                1.444          estimate D2E/DX2                !
 ! R12   R(10,18)                1.529          estimate D2E/DX2                !
 ! R13   R(10,25)                1.3698         estimate D2E/DX2                !
 ! R14   R(11,12)                1.4251         estimate D2E/DX2                !
 ! R15   R(12,13)                1.3446         estimate D2E/DX2                !
 ! R16   R(12,14)                1.3532         estimate D2E/DX2                !
 ! R17   R(12,15)                1.5157         estimate D2E/DX2                !
 ! R18   R(15,16)                1.3541         estimate D2E/DX2                !
 ! R19   R(15,17)                1.3465         estimate D2E/DX2                !
 ! R20   R(18,19)                1.3617         estimate D2E/DX2                !
 ! R21   R(18,20)                1.5202         estimate D2E/DX2                !
 ! R22   R(18,24)                1.3712         estimate D2E/DX2                !
 ! R23   R(20,21)                1.3531         estimate D2E/DX2                !
 ! R24   R(20,22)                1.3523         estimate D2E/DX2                !
 ! R25   R(20,23)                1.3511         estimate D2E/DX2                !
 ! A1    A(1,2,3)              110.6573         estimate D2E/DX2                !
 ! A2    A(1,2,10)             109.8816         estimate D2E/DX2                !
 ! A3    A(1,2,15)             107.6522         estimate D2E/DX2                !
 ! A4    A(3,2,10)             118.9233         estimate D2E/DX2                !
 ! A5    A(3,2,15)             110.4374         estimate D2E/DX2                !
 ! A6    A(10,2,15)             98.2012         estimate D2E/DX2                !
 ! A7    A(2,3,4)              109.0303         estimate D2E/DX2                !
 ! A8    A(2,3,5)              113.943          estimate D2E/DX2                !
 ! A9    A(2,3,9)              110.0827         estimate D2E/DX2                !
 ! A10   A(4,3,5)              107.0585         estimate D2E/DX2                !
 ! A11   A(4,3,9)              105.542          estimate D2E/DX2                !
 ! A12   A(5,3,9)              110.7828         estimate D2E/DX2                !
 ! A13   A(3,5,6)              112.0067         estimate D2E/DX2                !
 ! A14   A(3,5,7)              111.5852         estimate D2E/DX2                !
 ! A15   A(3,5,8)              111.7135         estimate D2E/DX2                !
 ! A16   A(6,5,7)              106.88           estimate D2E/DX2                !
 ! A17   A(6,5,8)              107.2479         estimate D2E/DX2                !
 ! A18   A(7,5,8)              107.1098         estimate D2E/DX2                !
 ! A19   A(2,10,11)            106.5794         estimate D2E/DX2                !
 ! A20   A(2,10,18)            121.2546         estimate D2E/DX2                !
 ! A21   A(2,10,25)            107.641          estimate D2E/DX2                !
 ! A22   A(11,10,18)           110.4546         estimate D2E/DX2                !
 ! A23   A(11,10,25)           103.1965         estimate D2E/DX2                !
 ! A24   A(18,10,25)           106.255          estimate D2E/DX2                !
 ! A25   A(10,11,12)           105.6285         estimate D2E/DX2                !
 ! A26   A(11,12,13)           109.7251         estimate D2E/DX2                !
 ! A27   A(11,12,14)           105.5083         estimate D2E/DX2                !
 ! A28   A(11,12,15)           108.0395         estimate D2E/DX2                !
 ! A29   A(13,12,14)           107.6977         estimate D2E/DX2                !
 ! A30   A(13,12,15)           114.1125         estimate D2E/DX2                !
 ! A31   A(14,12,15)           111.4126         estimate D2E/DX2                !
 ! A32   A(2,15,12)             99.9643         estimate D2E/DX2                !
 ! A33   A(2,15,16)            111.0757         estimate D2E/DX2                !
 ! A34   A(2,15,17)            113.4459         estimate D2E/DX2                !
 ! A35   A(12,15,16)           111.6104         estimate D2E/DX2                !
 ! A36   A(12,15,17)           113.5426         estimate D2E/DX2                !
 ! A37   A(16,15,17)           107.2135         estimate D2E/DX2                !
 ! A38   A(10,18,19)           108.7056         estimate D2E/DX2                !
 ! A39   A(10,18,20)           114.6537         estimate D2E/DX2                !
 ! A40   A(10,18,24)           108.0895         estimate D2E/DX2                !
 ! A41   A(19,18,20)           111.0824         estimate D2E/DX2                !
 ! A42   A(19,18,24)           104.8054         estimate D2E/DX2                !
 ! A43   A(20,18,24)           109.0038         estimate D2E/DX2                !
 ! A44   A(18,20,21)           111.8107         estimate D2E/DX2                !
 ! A45   A(18,20,22)           111.4245         estimate D2E/DX2                !
 ! A46   A(18,20,23)           112.1052         estimate D2E/DX2                !
 ! A47   A(21,20,22)           106.7115         estimate D2E/DX2                !
 ! A48   A(21,20,23)           107.4384         estimate D2E/DX2                !
 ! A49   A(22,20,23)           107.0453         estimate D2E/DX2                !
 ! D1    D(1,2,3,4)             83.8148         estimate D2E/DX2                !
 ! D2    D(1,2,3,5)            -35.7022         estimate D2E/DX2                !
 ! D3    D(1,2,3,9)           -160.8516         estimate D2E/DX2                !
 ! D4    D(10,2,3,4)          -147.6084         estimate D2E/DX2                !
 ! D5    D(10,2,3,5)            92.8746         estimate D2E/DX2                !
 ! D6    D(10,2,3,9)           -32.2748         estimate D2E/DX2                !
 ! D7    D(15,2,3,4)           -35.2852         estimate D2E/DX2                !
 ! D8    D(15,2,3,5)          -154.8021         estimate D2E/DX2                !
 ! D9    D(15,2,3,9)            80.0485         estimate D2E/DX2                !
 ! D10   D(1,2,10,11)          -71.7608         estimate D2E/DX2                !
 ! D11   D(1,2,10,18)           55.628          estimate D2E/DX2                !
 ! D12   D(1,2,10,25)          178.0802         estimate D2E/DX2                !
 ! D13   D(3,2,10,11)          159.3055         estimate D2E/DX2                !
 ! D14   D(3,2,10,18)          -73.3057         estimate D2E/DX2                !
 ! D15   D(3,2,10,25)           49.1466         estimate D2E/DX2                !
 ! D16   D(15,2,10,11)          40.4434         estimate D2E/DX2                !
 ! D17   D(15,2,10,18)         167.8322         estimate D2E/DX2                !
 ! D18   D(15,2,10,25)         -69.7156         estimate D2E/DX2                !
 ! D19   D(1,2,15,12)           70.0378         estimate D2E/DX2                !
 ! D20   D(1,2,15,16)         -172.0287         estimate D2E/DX2                !
 ! D21   D(1,2,15,17)          -51.1763         estimate D2E/DX2                !
 ! D22   D(3,2,15,12)         -169.0543         estimate D2E/DX2                !
 ! D23   D(3,2,15,16)          -51.1207         estimate D2E/DX2                !
 ! D24   D(3,2,15,17)           69.7316         estimate D2E/DX2                !
 ! D25   D(10,2,15,12)         -43.9431         estimate D2E/DX2                !
 ! D26   D(10,2,15,16)          73.9904         estimate D2E/DX2                !
 ! D27   D(10,2,15,17)        -165.1573         estimate D2E/DX2                !
 ! D28   D(2,3,5,6)            -58.6014         estimate D2E/DX2                !
 ! D29   D(2,3,5,7)             61.1808         estimate D2E/DX2                !
 ! D30   D(2,3,5,8)           -178.9446         estimate D2E/DX2                !
 ! D31   D(4,3,5,6)           -179.2278         estimate D2E/DX2                !
 ! D32   D(4,3,5,7)            -59.4455         estimate D2E/DX2                !
 ! D33   D(4,3,5,8)             60.429          estimate D2E/DX2                !
 ! D34   D(9,3,5,6)             66.175          estimate D2E/DX2                !
 ! D35   D(9,3,5,7)           -174.0428         estimate D2E/DX2                !
 ! D36   D(9,3,5,8)            -54.1682         estimate D2E/DX2                !
 ! D37   D(2,10,11,12)         -19.0361         estimate D2E/DX2                !
 ! D38   D(18,10,11,12)       -152.573          estimate D2E/DX2                !
 ! D39   D(25,10,11,12)         94.204          estimate D2E/DX2                !
 ! D40   D(2,10,18,19)          67.8611         estimate D2E/DX2                !
 ! D41   D(2,10,18,20)         -57.1169         estimate D2E/DX2                !
 ! D42   D(2,10,18,24)        -178.9093         estimate D2E/DX2                !
 ! D43   D(11,10,18,19)       -166.5038         estimate D2E/DX2                !
 ! D44   D(11,10,18,20)         68.5181         estimate D2E/DX2                !
 ! D45   D(11,10,18,24)        -53.2743         estimate D2E/DX2                !
 ! D46   D(25,10,18,19)        -55.247          estimate D2E/DX2                !
 ! D47   D(25,10,18,20)        179.7749         estimate D2E/DX2                !
 ! D48   D(25,10,18,24)         57.9826         estimate D2E/DX2                !
 ! D49   D(10,11,12,13)       -135.4881         estimate D2E/DX2                !
 ! D50   D(10,11,12,14)        108.7498         estimate D2E/DX2                !
 ! D51   D(10,11,12,15)        -10.5142         estimate D2E/DX2                !
 ! D52   D(11,12,15,2)          35.867          estimate D2E/DX2                !
 ! D53   D(11,12,15,16)        -81.6692         estimate D2E/DX2                !
 ! D54   D(11,12,15,17)        157.0116         estimate D2E/DX2                !
 ! D55   D(13,12,15,2)         158.1877         estimate D2E/DX2                !
 ! D56   D(13,12,15,16)         40.6515         estimate D2E/DX2                !
 ! D57   D(13,12,15,17)        -80.6676         estimate D2E/DX2                !
 ! D58   D(14,12,15,2)         -79.5857         estimate D2E/DX2                !
 ! D59   D(14,12,15,16)        162.8781         estimate D2E/DX2                !
 ! D60   D(14,12,15,17)         41.5589         estimate D2E/DX2                !
 ! D61   D(10,18,20,21)       -175.403          estimate D2E/DX2                !
 ! D62   D(10,18,20,22)         65.2733         estimate D2E/DX2                !
 ! D63   D(10,18,20,23)        -54.6767         estimate D2E/DX2                !
 ! D64   D(19,18,20,21)         60.8777         estimate D2E/DX2                !
 ! D65   D(19,18,20,22)        -58.4461         estimate D2E/DX2                !
 ! D66   D(19,18,20,23)       -178.396          estimate D2E/DX2                !
 ! D67   D(24,18,20,21)        -54.1104         estimate D2E/DX2                !
 ! D68   D(24,18,20,22)       -173.4341         estimate D2E/DX2                !
 ! D69   D(24,18,20,23)         66.616          estimate D2E/DX2                !
 --------------------------------------------------------------------------------
 Trust Radius=3.00D-01 FncErr=1.00D-07 GrdErr=1.00D-06
 Number of steps in this run=    150 maximum allowed number of steps=    150.
 GradGradGradGradGradGradGradGradGradGradGradGradGradGradGradGradGradGrad

 Leave Link  103 at Wed Feb  5 01:16:38 2025, MaxMem=  5368709120 cpu:         0.1
 (Enter /home/k0335/k033513/app/g09/l202.exe)
                          Input orientation:                          
 ---------------------------------------------------------------------
 Center     Atomic      Atomic             Coordinates (Angstroms)
 Number     Number       Type             X           Y           Z
 ---------------------------------------------------------------------
      1          9           0       -0.078351   -0.425379   -1.406549
      2          6           0        0.479864    0.331400   -0.423202
      3          6           0        1.834435   -0.219908   -0.028450
      4          9           0        2.780189    0.257120   -0.895093
      5          6           0        1.918568   -1.742408   -0.068047
      6          9           0        1.010807   -2.319672    0.743934
      7          9           0        1.692646   -2.221099   -1.312938
      8          9           0        3.137884   -2.186315    0.313791
      9          9           0        2.190986    0.250624    1.194115
     10          6           0       -0.555880    0.608783    0.672758
     11          8           0       -1.501938    1.547743    0.117455
     12          6           0       -0.842520    2.143750   -0.996543
     13          9           0       -1.043272    3.473247   -0.984650
     14          9           0       -1.459995    1.644274   -2.092146
     15          6           0        0.616957    1.737477   -0.950443
     16          9           0        1.323447    2.512147   -0.093476
     17          9           0        1.231686    1.803567   -2.146622
     18          6           0       -1.287896   -0.532436    1.379659
     19          9           0       -0.391636   -1.223214    2.137187
     20          6           0       -2.054310   -1.463709    0.454215
     21          9           0       -2.759360   -2.389872    1.144236
     22          9           0       -1.219836   -2.141838   -0.365917
     23          9           0       -2.925688   -0.794859   -0.332400
     24          9           0       -2.160762    0.016770    2.283334
     25          9           0        0.063977    1.333807    1.655792
 ---------------------------------------------------------------------
                    Distance matrix (angstroms):
                    1          2          3          4          5
     1  F    0.000000
     2  C    1.360621   0.000000
     3  C    2.366458   1.514804   0.000000
     4  F    2.983059   2.349403   1.368604   0.000000
     5  C    2.741138   2.548859   1.525337   2.329057   0.000000
     6  F    3.065810   2.944875   2.384103   3.529445   1.347804
     7  F    2.523847   2.962722   2.382179   2.738414   1.352753
     8  F    4.050263   3.734584   2.383876   2.749495   1.352622
     9  F    3.517147   2.355881   1.357643   2.170712   2.374751
    10  C    2.370874   1.533243   2.625267   3.702861   3.492819
    11  O    2.870958   2.387329   3.778527   4.585583   4.749670
    12  C    2.711546   2.315606   3.700023   4.085791   4.856741
    13  F    4.038361   3.536435   4.778589   4.997034   6.067595
    14  F    2.581172   2.876120   4.311297   4.619122   5.194351
    15  C    2.317203   1.507922   2.482676   2.621849   3.818693
    16  F    3.509738   2.361357   2.780191   2.801755   4.296051
    17  F    2.689257   2.388030   2.990721   2.521048   4.167280
    18  C    3.039312   2.668613   3.439389   4.727284   3.720389
    19  F    3.645923   3.119604   3.263740   4.631046   3.235686
    20  C    2.906026   3.227122   4.111246   5.306059   4.016739
    21  F    4.189695   4.511624   5.214105   6.469315   4.875638
    22  F    2.309141   3.001528   3.624399   4.694169   3.177712
    23  F    3.065557   3.588104   4.804344   5.829264   4.943131
    24  F    4.259949   3.794369   4.621900   5.879895   5.026394
    25  F    3.534533   2.345207   2.895725   3.878669   3.984247
                    6          7          8          9         10
     6  F    0.000000
     7  F    2.169180   0.000000
     8  F    2.174227   2.176274   0.000000
     9  F    2.863897   3.555710   2.758670   0.000000
    10  C    3.321961   4.123965   4.646001   2.818752   0.000000
    11  O    4.654381   5.143497   5.959000   4.059483   1.443964
    12  C    5.136752   5.057576   6.025782   4.193455   2.285794
    13  F    6.384759   6.326025   7.155324   5.058927   3.345102
    14  F    5.464529   5.048507   6.449995   5.106019   3.087776
    15  C    4.414350   4.118110   4.832132   3.047528   2.298756
    16  F    4.913804   4.901736   5.053078   2.743173   2.782405
    17  F    5.040357   4.135873   5.060275   3.806890   3.545674
    18  C    2.980335   4.357211   4.843441   3.570746   1.529031
    19  F    2.260580   4.152514   4.087768   3.119538   2.351115
    20  C    3.195552   4.211431   5.244116   4.637772   2.566764
    21  F    3.792009   5.087882   5.958906   5.610760   3.750940
    22  F    2.497832   3.063606   4.410635   4.448739   3.014233
    23  F    4.356552   4.932000   6.254648   5.440922   2.931986
    24  F    4.229369   5.726254   6.066987   4.492082   2.349485
    25  F    3.882767   4.909509   4.862214   2.431172   1.369758
                   11         12         13         14         15
    11  O    0.000000
    12  C    1.425148   0.000000
    13  F    2.265519   1.344621   0.000000
    14  F    2.212106   1.353181   2.178382   0.000000
    15  C    2.380362   1.515670   2.402172   2.371898   0.000000
    16  F    2.992886   2.375428   2.705414   3.534888   1.354117
    17  F    3.558678   2.395983   3.051794   2.696941   1.346515
    18  C    2.442564   3.606476   4.657821   4.101355   3.769661
    19  F    3.604205   4.621689   5.676904   5.220262   4.395044
    20  C    3.080157   4.072701   5.240808   4.061616   4.399582
    21  F    4.259132   5.367582   6.469411   5.332621   5.729067
    22  F    3.731788   4.348140   5.651830   4.167996   4.331808
    23  F    2.777988   3.662799   4.710164   3.345793   4.398299
    24  F    2.732940   4.125457   4.886280   4.720664   4.597159
    25  F    2.205525   2.917640   3.574232   4.057822   2.694661
                   16         17         18         19         20
    16  F    0.000000
    17  F    2.173917   0.000000
    18  C    4.273023   4.923399   0.000000
    19  F    4.676568   5.490683   1.361729   0.000000
    20  C    5.245630   5.313870   1.520232   2.377965   0.000000
    21  F    6.498541   6.659063   2.381323   2.820135   1.353145
    22  F    5.310564   4.974645   2.375256   2.792009   1.352340
    23  F    5.389668   5.227521   2.383773   3.564234   1.351082
    24  F    4.900596   5.858827   1.371186   2.165347   2.355595
    25  F    2.456560   4.005318   2.320921   2.641530   3.709046
                   21         22         23         24         25
    21  F    0.000000
    22  F    2.170764   0.000000
    23  F    2.179951   2.173800   0.000000
    24  F    2.729064   3.544497   2.843575   0.000000
    25  F    4.700926   4.220852   4.173994   2.660425   0.000000
 Symmetry turned off by external request.
 Stoichiometry    C8F16O
 Framework group  C1[X(C8F16O)]
 Deg. of freedom    69
 Full point group                 C1      NOp   1
 Rotational constants (GHZ):      0.2835392      0.2760712      0.1917843
 Leave Link  202 at Wed Feb  5 01:16:38 2025, MaxMem=  5368709120 cpu:         0.1
 (Enter /home/k0335/k033513/app/g09/l301.exe)
 Standard basis: 6-31G(d,p) (6D, 7F)
 Ernie: Thresh=  0.10000D-02 Tol=  0.10000D-05 Strict=F.
   375 basis functions,   700 primitive gaussians,   375 cartesian basis functions
   100 alpha electrons      100 beta electrons
       nuclear repulsion energy      3174.5075319485 Hartrees.
 IExCor=20419 DFT=T Ex+Corr=CAM-B3LYP ExCW=0 ScaHFX=  1.000000
 ScaDFX=  1.000000  1.000000  1.000000  0.810000 ScalE2=  1.000000  1.000000
 IRadAn=      0 IRanWt=     -1 IRanGd=            0 ICorTp=0 IEmpDi=  4
  HFx wShort=  0.000000 wLong=  0.330000 cFull=  0.190000 cShort=  0.000000 cLong=  0.460000
  DFx wShort=  0.000000 wLong=  0.330000 cFull=  0.190000 cShort=  0.000000 cLong=  0.460000
 NAtoms=   25 NActive=   25 NUniq=   25 SFac= 1.00D+00 NAtFMM=   60 NAOKFM=F Big=F
 Integral buffers will be    131072 words long.
 Raffenetti 2 integral format.
 Two-electron integral symmetry is turned off.
 Using the following non-standard input for PCM:
 eps=2.05
 --- end of non-standard input.
 ------------------------------------------------------------------------------
 Polarizable Continuum Model (PCM)
 =================================
 Model                : PCM (using non-symmetric T matrix).
 Atomic radii         : UFF (Universal Force Field).
 Polarization charges : Total charges.
 Charge compensation  : None.
 Solution method      : On-the-fly selection.
 Cavity type          : Scaled VdW (van der Waals Surface) (Alpha=1.100).
 Cavity algorithm     : GePol (No added spheres)
                        Default sphere list used, NSphG=   25.
                        Lebedev-Laikov grids with approx.  5.0 points / Ang**2.
                        Smoothing algorithm: Karplus/York (Gamma=1.0000).
                        Polarization charges: spherical gaussians, with
                                              point-specific exponents (IZeta= 3).
                        Self-potential: point-specific (ISelfS= 7).
                        Self-field    : sphere-specific E.n sum rule (ISelfD= 2).
 1st derivatives      : Analytical E(r).r(x)/FMM algorithm (CHGder, D1EAlg=3).
                        Cavity 1st derivative terms included.
 Solvent              : Generic,
                        Eps                           =   2.050000
                        Eps(infinity)                 =   0.000000
                        RSolv                         =   0.000000 Ang.
                        Molar volume                  =   0.000000 cm**3/mol
                        Thermal expansion coefficient =   0.000000 K**-1
                        Absolute temperature          = 298.150000 K
                        Numeral density               =   0.000000 Ang**-3
                        Hydrogen bond acidity         =   0.000000
                        Hydrogen bond basicity        =   0.000000
                        Surface tension at interface  =   0.000000 (cal/mol)*Ang**-2
                        Carbon aromaticity            =   0.000000
                        Electronegative halogenicity  =   0.000000
 ------------------------------------------------------------------------------
 GePol: Number of generator spheres                  =      25
 GePol: Total number of spheres                      =      25
 GePol: Number of exposed spheres                    =      25 (100.00%)
 GePol: Number of points                             =    2216
 GePol: Average weight of points                     =       0.12
 GePol: Minimum weight of points                     =   0.28D-09
 GePol: Maximum weight of points                     =    0.20286
 GePol: Number of points with low weight             =      92
 GePol: Fraction of low-weight points (<1% of avg)   =       4.15%
 GePol: Cavity surface area                          =    275.282 Ang**2
 GePol: Cavity volume                                =    315.381 Ang**3
 Leave Link  301 at Wed Feb  5 01:16:38 2025, MaxMem=  5368709120 cpu:         0.7
 (Enter /home/k0335/k033513/app/g09/l302.exe)
 NPDir=0 NMtPBC=     1 NCelOv=     1 NCel=       1 NClECP=     1 NCelD=      1
         NCelK=      1 NCelE2=     1 NClLst=     1 CellRange=     0.0.
 One-electron integrals computed using PRISM.
 NBasis=   375 RedAO= T EigKep=  8.31D-04  NBF=   375
 NBsUse=   375 1.00D-06 EigRej= -1.00D+00 NBFU=   375
 Precomputing XC quadrature grid using
 IXCGrd= 4 IRadAn=           0 IRanWt=          -1 IRanGd=           0 AccXCQ= 0.00D+00.
 Generated NRdTot=       0 NPtTot=           0 NUsed=           0 NTot=          32
 NSgBfM=   372   372   372   372   372 MxSgAt=    25 MxSgA2=    25.
 Leave Link  302 at Wed Feb  5 01:16:38 2025, MaxMem=  5368709120 cpu:         5.3
 (Enter /home/k0335/k033513/app/g09/l303.exe)
 DipDrv:  MaxL=1.
 Leave Link  303 at Wed Feb  5 01:16:38 2025, MaxMem=  5368709120 cpu:         0.5
 (Enter /home/k0335/k033513/app/g09/l401.exe)
 ExpMin= 1.69D-01 ExpMax= 7.00D+03 ExpMxC= 1.05D+03 IAcc=1 IRadAn=         1 AccDes= 0.00D+00
 Harris functional with IExCor=20419 and IRadAn=       1 diagonalized for initial guess.
 HarFok:  IExCor=20419 AccDes= 0.00D+00 IRadAn=         1 IDoV= 1 UseB2=F ITyADJ=14
 ICtDFT=  3500011 ScaDFX=  1.000000  1.000000  1.000000  1.000000
 FoFCou: FMM=F IPFlag=           0 FMFlag=      100000 FMFlg1=           0
         NFxFlg=           0 DoJE=T BraDBF=F KetDBF=T FulRan=T
         wScrn=  0.000000 ICntrl=     500 IOpCl=  0 I1Cent=   200000004 NGrid=           0
         NMat0=    1 NMatS0=      1 NMatT0=    0 NMatD0=    1 NMtDS0=    0 NMtDT0=    0
 Symmetry not used in FoFCou.
 Harris En= -1919.90723759855    
 JPrj=0 DoOrth=F DoCkMO=F.
 Leave Link  401 at Wed Feb  5 01:16:39 2025, MaxMem=  5368709120 cpu:         6.1
 (Enter /home/k0335/k033513/app/g09/l502.exe)
 Closed shell SCF:
 Using DIIS extrapolation, IDIIS=  1040.
 Two-electron integral symmetry not used.
 Keep R1 ints in memory in canonical form, NReq=4997350725.
 IVT=      451725 IEndB=      451725 NGot=  5368709120 MDV=   397936896
 LenX=   397936896 LenY=   397795830
 Requested convergence on RMS density matrix=1.00D-08 within 128 cycles.
 Requested convergence on MAX density matrix=1.00D-06.
 Requested convergence on             energy=1.00D-06.
 No special actions if energy rises.
 FoFCou: FMM=F IPFlag=           0 FMFlag=           0 FMFlg1=           0
         NFxFlg=           0 DoJE=F BraDBF=F KetDBF=F FulRan=T
         wScrn=  0.000000 ICntrl=     600 IOpCl=  0 I1Cent=           0 NGrid=           0
         NMat0=    1 NMatS0=  70500 NMatT0=    0 NMatD0=    1 NMtDS0=    0 NMtDT0=    0
 Symmetry not used in FoFCou.

 Cycle   1  Pass 1  IDiag  1:
 Inv3:  Mode=1 IEnd=    14731968.
 Iteration    1 A*A^-1 deviation from unit magnitude is 4.22D-15 for   2190.
 Iteration    1 A*A^-1 deviation from orthogonality  is 2.07D-15 for   2188   1756.
 Iteration    1 A^-1*A deviation from unit magnitude is 4.44D-15 for   2179.
 Iteration    1 A^-1*A deviation from orthogonality  is 1.46D-15 for   2172    470.
 E= -1976.34018442615    
 DIIS: error= 4.70D-02 at cycle   1 NSaved=   1.
 NSaved= 1 IEnMin= 1 EnMin= -1976.34018442615     IErMin= 1 ErrMin= 4.70D-02
 ErrMax= 4.70D-02  0.00D+00 EMaxC= 1.00D-01 BMatC= 1.65D+00 BMatP= 1.65D+00
 IDIUse=3 WtCom= 5.30D-01 WtEn= 4.70D-01
 Coeff-Com:  0.100D+01
 Coeff-En:   0.100D+01
 Coeff:      0.100D+01
 Gap=     0.468 Goal=   None    Shift=    0.000
 GapD=    0.468 DampG=2.000 DampE=0.500 DampFc=1.0000 IDamp=-1.
 RMSDP=3.99D-03 MaxDP=1.90D-01              OVMax= 8.42D-02

 Cycle   2  Pass 1  IDiag  1:
 E= -1976.61469809962     Delta-E=       -0.274513673463 Rises=F Damp=F
 DIIS: error= 2.02D-02 at cycle   2 NSaved=   2.
 NSaved= 2 IEnMin= 2 EnMin= -1976.61469809962     IErMin= 2 ErrMin= 2.02D-02
 ErrMax= 2.02D-02  0.00D+00 EMaxC= 1.00D-01 BMatC= 6.32D-01 BMatP= 1.65D+00
 IDIUse=3 WtCom= 7.98D-01 WtEn= 2.02D-01
 Coeff-Com:  0.366D+00 0.634D+00
 Coeff-En:   0.315D+00 0.685D+00
 Coeff:      0.356D+00 0.644D+00
 Gap=     0.469 Goal=   None    Shift=    0.000
 RMSDP=1.72D-03 MaxDP=9.25D-02 DE=-2.75D-01 OVMax= 5.67D-02

 Cycle   3  Pass 1  IDiag  1:
 E= -1976.89670059062     Delta-E=       -0.282002490999 Rises=F Damp=F
 DIIS: error= 9.28D-03 at cycle   3 NSaved=   3.
 NSaved= 3 IEnMin= 3 EnMin= -1976.89670059062     IErMin= 3 ErrMin= 9.28D-03
 ErrMax= 9.28D-03  0.00D+00 EMaxC= 1.00D-01 BMatC= 1.01D-01 BMatP= 6.32D-01
 IDIUse=3 WtCom= 9.07D-01 WtEn= 9.28D-02
 Coeff-Com:  0.907D-01 0.318D+00 0.592D+00
 Coeff-En:   0.000D+00 0.875D-01 0.913D+00
 Coeff:      0.823D-01 0.296D+00 0.622D+00
 Gap=     0.465 Goal=   None    Shift=    0.000
 RMSDP=8.05D-04 MaxDP=4.43D-02 DE=-2.82D-01 OVMax= 3.03D-02

 Cycle   4  Pass 1  IDiag  1:
 E= -1976.95483636074     Delta-E=       -0.058135770128 Rises=F Damp=F
 DIIS: error= 3.06D-03 at cycle   4 NSaved=   4.
 NSaved= 4 IEnMin= 4 EnMin= -1976.95483636074     IErMin= 4 ErrMin= 3.06D-03
 ErrMax= 3.06D-03  0.00D+00 EMaxC= 1.00D-01 BMatC= 7.31D-03 BMatP= 1.01D-01
 IDIUse=3 WtCom= 9.69D-01 WtEn= 3.06D-02
 Coeff-Com:  0.107D-02 0.555D-01 0.275D+00 0.669D+00
 Coeff-En:   0.000D+00 0.000D+00 0.635D-02 0.994D+00
 Coeff:      0.104D-02 0.538D-01 0.267D+00 0.679D+00
 Gap=     0.455 Goal=   None    Shift=    0.000
 RMSDP=2.02D-04 MaxDP=8.73D-03 DE=-5.81D-02 OVMax= 7.57D-03

 Cycle   5  Pass 1  IDiag  1:
 E= -1976.96007497644     Delta-E=       -0.005238615699 Rises=F Damp=F
 DIIS: error= 2.01D-04 at cycle   5 NSaved=   5.
 NSaved= 5 IEnMin= 5 EnMin= -1976.96007497644     IErMin= 5 ErrMin= 2.01D-04
 ErrMax= 2.01D-04  0.00D+00 EMaxC= 1.00D-01 BMatC= 7.80D-05 BMatP= 7.31D-03
 IDIUse=3 WtCom= 9.98D-01 WtEn= 2.01D-03
 Coeff-Com: -0.584D-03 0.187D-01 0.102D+00 0.280D+00 0.599D+00
 Coeff-En:   0.000D+00 0.000D+00 0.000D+00 0.000D+00 0.100D+01
 Coeff:     -0.583D-03 0.186D-01 0.102D+00 0.280D+00 0.600D+00
 Gap=     0.455 Goal=   None    Shift=    0.000
 RMSDP=2.39D-05 MaxDP=1.08D-03 DE=-5.24D-03 OVMax= 8.43D-04

 Cycle   6  Pass 1  IDiag  1:
 E= -1976.96012260518     Delta-E=       -0.000047628739 Rises=F Damp=F
 DIIS: error= 7.42D-05 at cycle   6 NSaved=   6.
 NSaved= 6 IEnMin= 6 EnMin= -1976.96012260518     IErMin= 6 ErrMin= 7.42D-05
 ErrMax= 7.42D-05  0.00D+00 EMaxC= 1.00D-01 BMatC= 8.46D-06 BMatP= 7.80D-05
 IDIUse=1 WtCom= 1.00D+00 WtEn= 0.00D+00
 Coeff-Com: -0.344D-03-0.294D-02-0.989D-02-0.141D-01 0.243D+00 0.784D+00
 Coeff:     -0.344D-03-0.294D-02-0.989D-02-0.141D-01 0.243D+00 0.784D+00
 Gap=     0.456 Goal=   None    Shift=    0.000
 RMSDP=6.74D-06 MaxDP=3.20D-04 DE=-4.76D-05 OVMax= 2.71D-04

 Cycle   7  Pass 1  IDiag  1:
 E= -1976.96012863136     Delta-E=       -0.000006026175 Rises=F Damp=F
 DIIS: error= 8.57D-06 at cycle   7 NSaved=   7.
 NSaved= 7 IEnMin= 7 EnMin= -1976.96012863136     IErMin= 7 ErrMin= 8.57D-06
 ErrMax= 8.57D-06  0.00D+00 EMaxC= 1.00D-01 BMatC= 2.36D-07 BMatP= 8.46D-06
 IDIUse=1 WtCom= 1.00D+00 WtEn= 0.00D+00
 Coeff-Com: -0.729D-04-0.180D-02-0.774D-02-0.174D-01 0.499D-01 0.240D+00
 Coeff-Com:  0.737D+00
 Coeff:     -0.729D-04-0.180D-02-0.774D-02-0.174D-01 0.499D-01 0.240D+00
 Coeff:      0.737D+00
 Gap=     0.456 Goal=   None    Shift=    0.000
 RMSDP=1.63D-06 MaxDP=6.71D-05 DE=-6.03D-06 OVMax= 9.63D-05

 Cycle   8  Pass 1  IDiag  1:
 E= -1976.96012883231     Delta-E=       -0.000000200952 Rises=F Damp=F
 DIIS: error= 4.49D-06 at cycle   8 NSaved=   8.
 NSaved= 8 IEnMin= 8 EnMin= -1976.96012883231     IErMin= 8 ErrMin= 4.49D-06
 ErrMax= 4.49D-06  0.00D+00 EMaxC= 1.00D-01 BMatC= 2.98D-08 BMatP= 2.36D-07
 IDIUse=1 WtCom= 1.00D+00 WtEn= 0.00D+00
 Coeff-Com:  0.163D-05-0.500D-03-0.239D-02-0.620D-02-0.234D-02 0.255D-01
 Coeff-Com:  0.278D+00 0.708D+00
 Coeff:      0.163D-05-0.500D-03-0.239D-02-0.620D-02-0.234D-02 0.255D-01
 Coeff:      0.278D+00 0.708D+00
 Gap=     0.456 Goal=   None    Shift=    0.000
 RMSDP=5.42D-07 MaxDP=2.42D-05 DE=-2.01D-07 OVMax= 2.67D-05

 Cycle   9  Pass 1  IDiag  1:
 E= -1976.96012885729     Delta-E=       -0.000000024979 Rises=F Damp=F
 DIIS: error= 1.35D-06 at cycle   9 NSaved=   9.
 NSaved= 9 IEnMin= 9 EnMin= -1976.96012885729     IErMin= 9 ErrMin= 1.35D-06
 ErrMax= 1.35D-06  0.00D+00 EMaxC= 1.00D-01 BMatC= 3.87D-09 BMatP= 2.98D-08
 IDIUse=1 WtCom= 1.00D+00 WtEn= 0.00D+00
 Coeff-Com:  0.925D-05 0.101D-04-0.599D-04-0.482D-03-0.692D-02-0.184D-01
 Coeff-Com:  0.234D-01 0.292D+00 0.711D+00
 Coeff:      0.925D-05 0.101D-04-0.599D-04-0.482D-03-0.692D-02-0.184D-01
 Coeff:      0.234D-01 0.292D+00 0.711D+00
 Gap=     0.456 Goal=   None    Shift=    0.000
 RMSDP=1.97D-07 MaxDP=1.03D-05 DE=-2.50D-08 OVMax= 1.71D-05

 Cycle  10  Pass 1  IDiag  1:
 E= -1976.96012886029     Delta-E=       -0.000000003006 Rises=F Damp=F
 DIIS: error= 4.76D-07 at cycle  10 NSaved=  10.
 NSaved=10 IEnMin=10 EnMin= -1976.96012886029     IErMin=10 ErrMin= 4.76D-07
 ErrMax= 4.76D-07  0.00D+00 EMaxC= 1.00D-01 BMatC= 4.20D-10 BMatP= 3.87D-09
 IDIUse=1 WtCom= 1.00D+00 WtEn= 0.00D+00
 Coeff-Com:  0.376D-05 0.587D-04 0.229D-03 0.464D-03-0.277D-02-0.109D-01
 Coeff-Com: -0.197D-01 0.541D-01 0.306D+00 0.672D+00
 Coeff:      0.376D-05 0.587D-04 0.229D-03 0.464D-03-0.277D-02-0.109D-01
 Coeff:     -0.197D-01 0.541D-01 0.306D+00 0.672D+00
 Gap=     0.456 Goal=   None    Shift=    0.000
 RMSDP=5.61D-08 MaxDP=3.06D-06 DE=-3.01D-09 OVMax= 3.34D-06

 Cycle  11  Pass 1  IDiag  1:
 E= -1976.96012886060     Delta-E=       -0.000000000310 Rises=F Damp=F
 DIIS: error= 9.78D-08 at cycle  11 NSaved=  11.
 NSaved=11 IEnMin=11 EnMin= -1976.96012886060     IErMin=11 ErrMin= 9.78D-08
 ErrMax= 9.78D-08  0.00D+00 EMaxC= 1.00D-01 BMatC= 1.79D-11 BMatP= 4.20D-10
 IDIUse=1 WtCom= 1.00D+00 WtEn= 0.00D+00
 Coeff-Com:  0.442D-06 0.171D-04 0.719D-04 0.181D-03-0.297D-03-0.184D-02
 Coeff-Com: -0.672D-02-0.243D-02 0.414D-01 0.191D+00 0.778D+00
 Coeff:      0.442D-06 0.171D-04 0.719D-04 0.181D-03-0.297D-03-0.184D-02
 Coeff:     -0.672D-02-0.243D-02 0.414D-01 0.191D+00 0.778D+00
 Gap=     0.456 Goal=   None    Shift=    0.000
 RMSDP=1.50D-08 MaxDP=9.66D-07 DE=-3.10D-10 OVMax= 1.46D-06

 Cycle  12  Pass 1  IDiag  1:
 E= -1976.96012886066     Delta-E=       -0.000000000052 Rises=F Damp=F
 DIIS: error= 6.48D-08 at cycle  12 NSaved=  12.
 NSaved=12 IEnMin=12 EnMin= -1976.96012886066     IErMin=12 ErrMin= 6.48D-08
 ErrMax= 6.48D-08  0.00D+00 EMaxC= 1.00D-01 BMatC= 4.87D-12 BMatP= 1.79D-11
 IDIUse=1 WtCom= 1.00D+00 WtEn= 0.00D+00
 Coeff-Com: -0.197D-06 0.205D-05 0.103D-04 0.407D-04 0.170D-03 0.319D-03
 Coeff-Com: -0.116D-02-0.746D-02-0.145D-01 0.171D-01 0.391D+00 0.614D+00
 Coeff:     -0.197D-06 0.205D-05 0.103D-04 0.407D-04 0.170D-03 0.319D-03
 Coeff:     -0.116D-02-0.746D-02-0.145D-01 0.171D-01 0.391D+00 0.614D+00
 Gap=     0.456 Goal=   None    Shift=    0.000
 RMSDP=5.31D-09 MaxDP=3.72D-07 DE=-5.18D-11 OVMax= 3.14D-07

 Error on total polarization charges =  0.00045
 SCF Done:  E(RCAM-B3LYP) =  -1976.96012886     A.U. after   12 cycles
            NFock= 12  Conv=0.53D-08     -V/T= 2.0068
 KE= 1.963685414285D+03 PE=-1.103564906556D+04 EE= 3.920495990470D+03
 Leave Link  502 at Wed Feb  5 01:17:17 2025, MaxMem=  5368709120 cpu:       334.2
 (Enter /home/k0335/k033513/app/g09/l601.exe)
 Copying SCF densities to generalized density rwf, IOpCl= 0 IROHF=0.

 **********************************************************************

            Population analysis using the SCF density.

 **********************************************************************

 Alpha  occ. eigenvalues --  -24.84573 -24.83931 -24.83922 -24.83856 -24.83754
 Alpha  occ. eigenvalues --  -24.83737 -24.83701 -24.83648 -24.83564 -24.83511
 Alpha  occ. eigenvalues --  -24.83419 -24.83364 -24.83353 -24.83184 -24.82654
 Alpha  occ. eigenvalues --  -24.82552 -19.32435 -10.55558 -10.55489 -10.53207
 Alpha  occ. eigenvalues --  -10.50531 -10.50306 -10.49689 -10.48645 -10.44390
 Alpha  occ. eigenvalues --   -1.42781  -1.42265  -1.41095  -1.39170  -1.38921
 Alpha  occ. eigenvalues --   -1.38251  -1.37169  -1.35486  -1.33753  -1.33184
 Alpha  occ. eigenvalues --   -1.33075  -1.32810  -1.32697  -1.32311  -1.32200
 Alpha  occ. eigenvalues --   -1.31918  -1.20565  -0.98353  -0.93763  -0.90935
 Alpha  occ. eigenvalues --   -0.86405  -0.82258  -0.78416  -0.77106  -0.76007
 Alpha  occ. eigenvalues --   -0.73531  -0.72186  -0.71629  -0.70748  -0.70556
 Alpha  occ. eigenvalues --   -0.69871  -0.69442  -0.68937  -0.68175  -0.67630
 Alpha  occ. eigenvalues --   -0.66110  -0.65868  -0.65698  -0.65407  -0.64497
 Alpha  occ. eigenvalues --   -0.63501  -0.58831  -0.58791  -0.58110  -0.57579
 Alpha  occ. eigenvalues --   -0.57179  -0.56707  -0.56097  -0.55967  -0.55355
 Alpha  occ. eigenvalues --   -0.55108  -0.55050  -0.54919  -0.54444  -0.53947
 Alpha  occ. eigenvalues --   -0.53899  -0.53502  -0.53169  -0.52572  -0.52164
 Alpha  occ. eigenvalues --   -0.51955  -0.51491  -0.51446  -0.51209  -0.50891
 Alpha  occ. eigenvalues --   -0.50567  -0.50349  -0.49751  -0.49578  -0.49021
 Alpha  occ. eigenvalues --   -0.48430  -0.46571  -0.44922  -0.44260  -0.42699
 Alpha virt. eigenvalues --    0.02855   0.05181   0.06833   0.09523   0.10481
 Alpha virt. eigenvalues --    0.14522   0.15166   0.15540   0.19899   0.20590
 Alpha virt. eigenvalues --    0.23188   0.23858   0.24795   0.25997   0.26494
 Alpha virt. eigenvalues --    0.27145   0.27451   0.28342   0.28759   0.29598
 Alpha virt. eigenvalues --    0.31860   0.32182   0.34987   0.36577   0.37163
 Alpha virt. eigenvalues --    0.44941   0.47726   0.49241   0.50337   0.51435
 Alpha virt. eigenvalues --    0.52133   0.52436   0.54885   0.55530   0.56710
 Alpha virt. eigenvalues --    0.58041   0.60159   0.60427   0.61750   0.62049
 Alpha virt. eigenvalues --    0.64665   0.65495   0.67401   0.68467   0.70555
 Alpha virt. eigenvalues --    0.73278   0.76803   0.80617   0.83180   0.83477
 Alpha virt. eigenvalues --    0.86675   0.89293   0.93736   0.96921   0.99683
 Alpha virt. eigenvalues --    1.01106   1.03629   1.04688   1.06007   1.07350
 Alpha virt. eigenvalues --    1.08274   1.09350   1.09444   1.11428   1.11872
 Alpha virt. eigenvalues --    1.13718   1.14885   1.15696   1.16192   1.17790
 Alpha virt. eigenvalues --    1.18463   1.20074   1.21023   1.22872   1.24805
 Alpha virt. eigenvalues --    1.25529   1.27036   1.27735   1.28453   1.29180
 Alpha virt. eigenvalues --    1.30261   1.31394   1.31539   1.33457   1.34243
 Alpha virt. eigenvalues --    1.35568   1.35932   1.36102   1.36986   1.37455
 Alpha virt. eigenvalues --    1.38062   1.38411   1.38647   1.39162   1.39945
 Alpha virt. eigenvalues --    1.40296   1.41022   1.41624   1.42381   1.42653
 Alpha virt. eigenvalues --    1.42993   1.43376   1.43915   1.45775   1.46773
 Alpha virt. eigenvalues --    1.47979   1.48998   1.49440   1.50646   1.51769
 Alpha virt. eigenvalues --    1.52048   1.53773   1.55081   1.55707   1.57734
 Alpha virt. eigenvalues --    1.58414   1.60067   1.61582   1.62947   1.65901
 Alpha virt. eigenvalues --    1.66990   1.67289   1.67973   1.68506   1.69571
 Alpha virt. eigenvalues --    1.71113   1.72610   1.73676   1.74999   1.75754
 Alpha virt. eigenvalues --    1.76213   1.77604   1.78772   1.79958   1.80911
 Alpha virt. eigenvalues --    1.82011   1.82546   1.82769   1.83072   1.84939
 Alpha virt. eigenvalues --    1.85411   1.86207   1.86952   1.87566   1.88088
 Alpha virt. eigenvalues --    1.89149   1.90268   1.91421   1.91467   1.93051
 Alpha virt. eigenvalues --    1.93869   1.94344   1.95424   1.96859   1.97776
 Alpha virt. eigenvalues --    1.98373   1.99464   2.00116   2.00733   2.01725
 Alpha virt. eigenvalues --    2.02497   2.03025   2.03759   2.04424   2.04924
 Alpha virt. eigenvalues --    2.05719   2.06180   2.06642   2.07803   2.08276
 Alpha virt. eigenvalues --    2.08812   2.09363   2.10339   2.10674   2.11438
 Alpha virt. eigenvalues --    2.12137   2.12783   2.13009   2.13282   2.16451
 Alpha virt. eigenvalues --    2.17683   2.19134   2.19380   2.22274   2.23117
 Alpha virt. eigenvalues --    2.23665   2.26693   2.28751   2.30391   2.31056
 Alpha virt. eigenvalues --    2.31519   2.32265   2.33964   2.35376   2.37376
 Alpha virt. eigenvalues --    2.38231   2.38648   2.40094   2.40684   2.41255
 Alpha virt. eigenvalues --    2.42780   2.43401   2.43968   2.48306   2.50588
 Alpha virt. eigenvalues --    2.51571   2.53066   2.56055   2.58561   2.59164
 Alpha virt. eigenvalues --    2.60815   2.66348   2.69450   2.70977   2.72718
 Alpha virt. eigenvalues --    2.76399   2.76870   2.78366   2.81143   2.82538
 Alpha virt. eigenvalues --    2.85726   2.86051   2.87043   2.87611   2.89976
 Alpha virt. eigenvalues --    2.90547   2.92770   2.93867   2.94863   2.98051
 Alpha virt. eigenvalues --    2.98838   3.00414   3.01826   3.07133   3.07957
 Alpha virt. eigenvalues --    3.10270   3.10744   3.12167   3.13977   3.14799
 Alpha virt. eigenvalues --    3.15531   3.16333   3.18748   3.20320   3.21363
 Alpha virt. eigenvalues --    3.26408   3.27437   3.28078   3.33455   3.43459
 Alpha virt. eigenvalues --    4.15315   4.28826   4.35293   4.40941   4.43287
 Alpha virt. eigenvalues --    4.52484   4.54385   4.65214   4.68687   4.71829
 Alpha virt. eigenvalues --    4.84256   4.94359   4.99635   5.13058   5.18240
 Alpha virt. eigenvalues --    5.30987   5.43462   5.48400   5.59886   5.72747
 Alpha virt. eigenvalues --    5.95327   6.00666   6.15542   6.63230   6.85033
          Condensed to atoms (all electrons):
               1          2          3          4          5          6
     1  F    9.145458   0.182890  -0.026950  -0.000179   0.010530  -0.000954
     2  C    0.182890   5.757405   0.088262  -0.029893  -0.056341   0.010654
     3  C   -0.026950   0.088262   4.828144   0.224401   0.237708  -0.039052
     4  F   -0.000179  -0.029893   0.224401   9.117299  -0.014092   0.000338
     5  C    0.010530  -0.056341   0.237708  -0.014092   4.190967   0.268837
     6  F   -0.000954   0.010654  -0.039052   0.000338   0.268837   9.083861
     7  F   -0.000858  -0.000195  -0.031669  -0.000491   0.281954  -0.038937
     8  F    0.000001   0.002751  -0.023056  -0.000542   0.300916  -0.038858
     9  F    0.000323  -0.038352   0.254766  -0.038956  -0.014976  -0.000275
    10  C   -0.017639   0.057399  -0.035247   0.002149  -0.004026  -0.001693
    11  O   -0.001818  -0.021658   0.002162  -0.000005  -0.000010   0.000001
    12  C    0.009002  -0.084075   0.003926   0.000324  -0.000099   0.000000
    13  F    0.000001   0.002085  -0.000036   0.000000   0.000000   0.000000
    14  F   -0.000123   0.005898   0.000002   0.000000   0.000003   0.000000
    15  C   -0.018203   0.116275  -0.025946   0.015242   0.003470   0.000092
    16  F    0.000358  -0.055051   0.016449  -0.001987   0.000186   0.000000
    17  F   -0.000879  -0.025129  -0.003527  -0.001428  -0.000129   0.000000
    18  C   -0.006416  -0.026841  -0.003548  -0.000003   0.000853   0.007069
    19  F   -0.000014  -0.003569   0.005807   0.000000  -0.000292  -0.006927
    20  C    0.012091  -0.003181   0.000432   0.000000   0.000098   0.000359
    21  F    0.000000  -0.000010  -0.000001   0.000000   0.000004  -0.000017
    22  F   -0.009414   0.010900  -0.002350   0.000000   0.004897  -0.000961
    23  F   -0.000342  -0.002248  -0.000007   0.000000   0.000005   0.000000
    24  F    0.000000   0.002164   0.000013   0.000000  -0.000001   0.000000
    25  F    0.000349  -0.032844  -0.000850  -0.000008   0.000000  -0.000002
               7          8          9         10         11         12
     1  F   -0.000858   0.000001   0.000323  -0.017639  -0.001818   0.009002
     2  C   -0.000195   0.002751  -0.038352   0.057399  -0.021658  -0.084075
     3  C   -0.031669  -0.023056   0.254766  -0.035247   0.002162   0.003926
     4  F   -0.000491  -0.000542  -0.038956   0.002149  -0.000005   0.000324
     5  C    0.281954   0.300916  -0.014976  -0.004026  -0.000010  -0.000099
     6  F   -0.038937  -0.038858  -0.000275  -0.001693   0.000001   0.000000
     7  F    9.074025  -0.038947   0.000282   0.000206   0.000000   0.000002
     8  F   -0.038947   9.043005  -0.000626   0.000013   0.000000   0.000000
     9  F    0.000282  -0.000626   9.090184   0.008307   0.000008  -0.000085
    10  C    0.000206   0.000013   0.008307   5.081969   0.167620  -0.029390
    11  O    0.000000   0.000000   0.000008   0.167620   8.403636   0.188337
    12  C    0.000002   0.000000  -0.000085  -0.029390   0.188337   4.320416
    13  F    0.000000   0.000000   0.000000   0.000976  -0.041250   0.320455
    14  F    0.000000   0.000000   0.000000  -0.001765  -0.051912   0.275736
    15  C   -0.000256  -0.000027  -0.002154  -0.026092  -0.048653   0.251183
    16  F    0.000000   0.000000  -0.000180   0.013040  -0.001217  -0.015545
    17  F    0.000002   0.000000   0.000008   0.001212   0.000777  -0.021030
    18  C   -0.000080  -0.000004  -0.001660   0.157333  -0.036190  -0.001124
    19  F    0.000000  -0.000003  -0.000112  -0.022810   0.000636   0.000009
    20  C    0.000062   0.000001   0.000005  -0.056288   0.004181   0.000450
    21  F    0.000000   0.000000   0.000000   0.002484  -0.000006   0.000001
    22  F   -0.000027   0.000000   0.000001  -0.002619  -0.000039  -0.000075
    23  F    0.000000   0.000000   0.000000   0.005015  -0.000284   0.000939
    24  F    0.000000   0.000000   0.000000  -0.021416   0.000597   0.000189
    25  F    0.000000   0.000000  -0.002738   0.220315  -0.056953   0.002935
              13         14         15         16         17         18
     1  F    0.000001  -0.000123  -0.018203   0.000358  -0.000879  -0.006416
     2  C    0.002085   0.005898   0.116275  -0.055051  -0.025129  -0.026841
     3  C   -0.000036   0.000002  -0.025946   0.016449  -0.003527  -0.003548
     4  F    0.000000   0.000000   0.015242  -0.001987  -0.001428  -0.000003
     5  C    0.000000   0.000003   0.003470   0.000186  -0.000129   0.000853
     6  F    0.000000   0.000000   0.000092   0.000000   0.000000   0.007069
     7  F    0.000000   0.000000  -0.000256   0.000000   0.000002  -0.000080
     8  F    0.000000   0.000000  -0.000027   0.000000   0.000000  -0.000004
     9  F    0.000000   0.000000  -0.002154  -0.000180   0.000008  -0.001660
    10  C    0.000976  -0.001765  -0.026092   0.013040   0.001212   0.157333
    11  O   -0.041250  -0.051912  -0.048653  -0.001217   0.000777  -0.036190
    12  C    0.320455   0.275736   0.251183  -0.015545  -0.021030  -0.001124
    13  F    9.025961  -0.041444  -0.025305  -0.000429  -0.000136  -0.000043
    14  F   -0.041444   9.096224  -0.031860   0.000310  -0.000036  -0.000270
    15  C   -0.025305  -0.031860   4.735948   0.230730   0.278438   0.002385
    16  F   -0.000429   0.000310   0.230730   9.111553  -0.038942   0.000069
    17  F   -0.000136  -0.000036   0.278438  -0.038942   9.069446  -0.000025
    18  C   -0.000043  -0.000270   0.002385   0.000069  -0.000025   4.801262
    19  F    0.000000   0.000000   0.000002   0.000000   0.000000   0.240606
    20  C    0.000002   0.000145  -0.000266   0.000002   0.000001   0.200230
    21  F    0.000000   0.000000   0.000000   0.000000   0.000000  -0.018217
    22  F    0.000000  -0.000001   0.000110   0.000000   0.000000  -0.028237
    23  F    0.000000   0.000000  -0.000015   0.000000   0.000000  -0.034168
    24  F    0.000000   0.000000  -0.000102   0.000000   0.000000   0.247980
    25  F   -0.000013  -0.000007   0.003488  -0.002137   0.000002  -0.017780
              19         20         21         22         23         24
     1  F   -0.000014   0.012091   0.000000  -0.009414  -0.000342   0.000000
     2  C   -0.003569  -0.003181  -0.000010   0.010900  -0.002248   0.002164
     3  C    0.005807   0.000432  -0.000001  -0.002350  -0.000007   0.000013
     4  F    0.000000   0.000000   0.000000   0.000000   0.000000   0.000000
     5  C   -0.000292   0.000098   0.000004   0.004897   0.000005  -0.000001
     6  F   -0.006927   0.000359  -0.000017  -0.000961   0.000000   0.000000
     7  F    0.000000   0.000062   0.000000  -0.000027   0.000000   0.000000
     8  F   -0.000003   0.000001   0.000000   0.000000   0.000000   0.000000
     9  F   -0.000112   0.000005   0.000000   0.000001   0.000000   0.000000
    10  C   -0.022810  -0.056288   0.002484  -0.002619   0.005015  -0.021416
    11  O    0.000636   0.004181  -0.000006  -0.000039  -0.000284   0.000597
    12  C    0.000009   0.000450   0.000001  -0.000075   0.000939   0.000189
    13  F    0.000000   0.000002   0.000000   0.000000   0.000000   0.000000
    14  F    0.000000   0.000145   0.000000  -0.000001   0.000000   0.000000
    15  C    0.000002  -0.000266   0.000000   0.000110  -0.000015  -0.000102
    16  F    0.000000   0.000002   0.000000   0.000000   0.000000   0.000000
    17  F    0.000000   0.000001   0.000000   0.000000   0.000000   0.000000
    18  C    0.240606   0.200230  -0.018217  -0.028237  -0.034168   0.247980
    19  F    9.103335  -0.017265  -0.000547  -0.000254   0.000286  -0.039464
    20  C   -0.017265   4.267115   0.289857   0.263285   0.284513  -0.019634
    21  F   -0.000547   0.289857   9.049884  -0.039530  -0.039128  -0.000469
    22  F   -0.000254   0.263285  -0.039530   9.084906  -0.038374   0.000316
    23  F    0.000286   0.284513  -0.039128  -0.038374   9.060963  -0.000256
    24  F   -0.039464  -0.019634  -0.000469   0.000316  -0.000256   9.095133
    25  F   -0.000976   0.001747  -0.000001   0.000000   0.000001  -0.001438
              25
     1  F    0.000349
     2  C   -0.032844
     3  C   -0.000850
     4  F   -0.000008
     5  C    0.000000
     6  F   -0.000002
     7  F    0.000000
     8  F    0.000000
     9  F   -0.002738
    10  C    0.220315
    11  O   -0.056953
    12  C    0.002935
    13  F   -0.000013
    14  F   -0.000007
    15  C    0.003488
    16  F   -0.002137
    17  F    0.000002
    18  C   -0.017780
    19  F   -0.000976
    20  C    0.001747
    21  F   -0.000001
    22  F    0.000000
    23  F    0.000001
    24  F   -0.001438
    25  F    9.160465
 Mulliken charges:
               1
     1  F   -0.277216
     2  C    0.142703
     3  C    0.530168
     4  F   -0.272169
     5  C    0.789537
     6  F   -0.243536
     7  F   -0.245075
     8  F   -0.244624
     9  F   -0.253770
    10  C    0.500948
    11  O   -0.507960
    12  C    0.777519
    13  F   -0.240825
    14  F   -0.250900
    15  C    0.541514
    16  F   -0.257209
    17  F   -0.258625
    18  C    0.516816
    19  F   -0.258449
    20  C    0.772059
    21  F   -0.244303
    22  F   -0.242535
    23  F   -0.236901
    24  F   -0.263613
    25  F   -0.273555
 Sum of Mulliken charges =   0.00000
 Mulliken charges with hydrogens summed into heavy atoms:
               1
     1  F   -0.277216
     2  C    0.142703
     3  C    0.530168
     4  F   -0.272169
     5  C    0.789537
     6  F   -0.243536
     7  F   -0.245075
     8  F   -0.244624
     9  F   -0.253770
    10  C    0.500948
    11  O   -0.507960
    12  C    0.777519
    13  F   -0.240825
    14  F   -0.250900
    15  C    0.541514
    16  F   -0.257209
    17  F   -0.258625
    18  C    0.516816
    19  F   -0.258449
    20  C    0.772059
    21  F   -0.244303
    22  F   -0.242535
    23  F   -0.236901
    24  F   -0.263613
    25  F   -0.273555
 Electronic spatial extent (au):  <R**2>=           5622.2554
 Charge=              0.0000 electrons
 Dipole moment (field-independent basis, Debye):
    X=              0.3969    Y=             -0.1820    Z=             -0.1823  Tot=              0.4732
 Quadrupole moment (field-independent basis, Debye-Ang):
   XX=           -131.7355   YY=           -130.8766   ZZ=           -131.1554
   XY=              0.6277   XZ=             -0.0434   YZ=             -0.9897
 Traceless Quadrupole moment (field-independent basis, Debye-Ang):
   XX=             -0.4797   YY=              0.3792   ZZ=              0.1005
   XY=              0.6277   XZ=             -0.0434   YZ=             -0.9897
 Octapole moment (field-independent basis, Debye-Ang**2):
  XXX=              2.2332  YYY=             -4.0134  ZZZ=             -1.8694  XYY=              1.7666
  XXY=             -3.0340  XXZ=             -0.1166  XZZ=              2.1467  YZZ=             -2.2891
  YYZ=             -1.8883  XYZ=             -0.6623
 Hexadecapole moment (field-independent basis, Debye-Ang**3):
 XXXX=          -2248.5928 YYYY=          -2166.9482 ZZZZ=          -1114.8393 XXXY=             57.3907
 XXXZ=            152.5521 YYYX=             59.8548 YYYZ=            245.9887 ZZZX=            152.7841
 ZZZY=            250.3469 XXYY=           -743.0021 XXZZ=           -561.4394 YYZZ=           -544.8772
 XXYZ=             86.4442 YYXZ=             51.7936 ZZXY=             19.9314
 N-N= 3.174507531948D+03 E-N=-1.103564906454D+04  KE= 1.963685414285D+03
 No NMR shielding tensors so no spin-rotation constants.
 Leave Link  601 at Wed Feb  5 01:17:18 2025, MaxMem=  5368709120 cpu:         3.0
 (Enter /home/k0335/k033513/app/g09/l701.exe)
 Compute integral first derivatives.
 ... and contract with generalized density number  0.
 D1PCM: PCM CHGder 1st derivatives, ID1Alg=3 FixD1E=F DoIter=F DoCFld=F I1PDM=0.
 GePol: Maximum number of non-zero 1st derivatives   =     208
 Leave Link  701 at Wed Feb  5 01:17:19 2025, MaxMem=  5368709120 cpu:        15.4
 (Enter /home/k0335/k033513/app/g09/l702.exe)
 L702 exits ... SP integral derivatives will be done elsewhere.
 Leave Link  702 at Wed Feb  5 01:17:19 2025, MaxMem=  5368709120 cpu:         0.2
 (Enter /home/k0335/k033513/app/g09/l703.exe)
 Compute integral first derivatives, UseDBF=F ICtDFT=           0.
 Integral derivatives from FoFJK, PRISM(SPDF).
 Calling FoFJK, ICntrl=      2127 FMM=F ISym2X=0 I1Cent= 0 IOpClX= 0 NMat=1 NMatS=1 NMatT=0.
 FoFJK:  IHMeth= 1 ICntrl=    2127 DoSepK=T KAlg= 0 I1Cent=   0 FoldK=F
 IRaf=         1 NMat=   1 IRICut=       1 DoRegI=T DoRafI=F ISym2E= 0.
 FoFCou: FMM=F IPFlag=           0 FMFlag=      100000 FMFlg1=         800
         NFxFlg=           0 DoJE=F BraDBF=F KetDBF=F FulRan=T
         wScrn=  0.000000 ICntrl=    2527 IOpCl=  0 I1Cent=           0 NGrid=           0
         NMat0=    1 NMatS0=      1 NMatT0=    0 NMatD0=    1 NMtDS0=    0 NMtDT0=    0
 Symmetry not used in FoFCou.
 Leave Link  703 at Wed Feb  5 01:17:24 2025, MaxMem=  5368709120 cpu:       133.4
 (Enter /home/k0335/k033513/app/g09/l716.exe)
 Dipole        = 1.56167930D-01-7.16222687D-02-7.17414861D-02
 -------------------------------------------------------------------
 Center     Atomic                   Forces (Hartrees/Bohr)
 Number     Number              X              Y              Z
 -------------------------------------------------------------------
      1        9           0.005465516    0.007277336   -0.006024427
      2        6           0.003556964   -0.000828176    0.004192508
      3        6           0.027559378    0.008814803    0.009083683
      4        9          -0.011136485   -0.011010531    0.004138319
      5        6           0.009370201   -0.047825290   -0.002929092
      6        9           0.020036827    0.007001402   -0.012139407
      7        9           0.005372286    0.013137398    0.013961695
      8        9          -0.015383281    0.015594229   -0.003898946
      9        9          -0.003441668   -0.014696940   -0.008684566
     10        6          -0.016869824    0.036170349    0.020001114
     11        8           0.039475700   -0.017607384   -0.015557517
     12        6          -0.051245859    0.017302568   -0.000152010
     13        9           0.006014974   -0.015648978    0.002899408
     14        9           0.013001246    0.008440692    0.001893255
     15        6           0.019688698    0.017234110   -0.016243657
     16        9          -0.008611456   -0.002616955   -0.006867399
     17        9          -0.014195178   -0.001434952    0.004185320
     18        6          -0.005389102    0.005691507    0.032784801
     19        9          -0.015427132    0.010090253   -0.009768529
     20        6          -0.025821076   -0.035833902   -0.023526448
     21        9           0.012697987    0.018397248   -0.002270365
     22        9          -0.013354723    0.003253076    0.016636746
     23        9           0.013921801   -0.001992603    0.015156734
     24        9           0.006888213   -0.004418716   -0.021747388
     25        9          -0.002174010   -0.014490543    0.004876166
 -------------------------------------------------------------------
 Cartesian Forces:  Max     0.051245859 RMS     0.016581341
 Leave Link  716 at Wed Feb  5 01:17:25 2025, MaxMem=  5368709120 cpu:         0.2
 (Enter /home/k0335/k033513/app/g09/l103.exe)

 GradGradGradGradGradGradGradGradGradGradGradGradGradGradGradGradGradGrad
 Berny optimization.
 FormGI is forming the generalized inverse of G from B-inverse, IUseBI=4.
 Internal  Forces:  Max     0.051908405 RMS     0.014189921
 Search for a local minimum.
 Step number   1 out of a maximum of  150
 All quantities printed in internal units (Hartrees-Bohrs-Radians)
 RMS Force = .14190D-01 SwitMx=.10000D-02 MixMth= 1
 Mixed Optimization -- RFO/linear search
 Second derivative matrix not updated -- first step.
 ITU=  0
     Eigenvalues ---    0.00382   0.00431   0.00498   0.00570   0.00794
     Eigenvalues ---    0.00895   0.03241   0.04168   0.05022   0.05104
     Eigenvalues ---    0.05173   0.05285   0.06509   0.06793   0.06932
     Eigenvalues ---    0.07059   0.08091   0.08276   0.08277   0.08353
     Eigenvalues ---    0.08437   0.08797   0.09959   0.10143   0.10397
     Eigenvalues ---    0.12920   0.13381   0.13585   0.14323   0.17553
     Eigenvalues ---    0.17876   0.18772   0.19360   0.19489   0.20792
     Eigenvalues ---    0.23175   0.25000   0.25000   0.25000   0.25000
     Eigenvalues ---    0.25000   0.25000   0.25000   0.25000   0.27616
     Eigenvalues ---    0.29513   0.29723   0.29858   0.30305   0.30344
     Eigenvalues ---    0.30873   0.37557   0.39802   0.50749   0.51023
     Eigenvalues ---    0.51246   0.52600   0.52822   0.53427   0.54155
     Eigenvalues ---    0.54350   0.54358   0.54440   0.54467   0.54527
     Eigenvalues ---    0.54792   0.55491   0.55769   0.56182
 RFO step:  Lambda=-9.17557052D-02 EMin= 3.81916669D-03
 Linear search not attempted -- first point.
 Maximum step size (   0.300) exceeded in Quadratic search.
    -- Step size scaled by   0.649
 Iteration  1 RMS(Cart)=  0.19164213 RMS(Int)=  0.00914590
 Iteration  2 RMS(Cart)=  0.01918903 RMS(Int)=  0.00064221
 Iteration  3 RMS(Cart)=  0.00021957 RMS(Int)=  0.00063740
 Iteration  4 RMS(Cart)=  0.00000021 RMS(Int)=  0.00063740
 ITry= 1 IFail=0 DXMaxC= 7.73D-01 DCOld= 1.00D+10 DXMaxT= 3.00D-01 DXLimC= 3.00D+00 Rises=F
 Variable       Old X    -DE/DX   Delta X   Delta X   Delta X     New X
                                 (Linear)    (Quad)   (Total)
    R1        2.57120  -0.00194   0.00000  -0.00203  -0.00203   2.56917
    R2        2.86257   0.03939   0.00000   0.06380   0.06380   2.92636
    R3        2.89741   0.04542   0.00000   0.07829   0.07794   2.97535
    R4        2.84956   0.02559   0.00000   0.04787   0.04778   2.89734
    R5        2.58629  -0.01416   0.00000  -0.01520  -0.01520   2.57109
    R6        2.88247   0.01327   0.00000   0.02205   0.02205   2.90452
    R7        2.56557  -0.01381   0.00000  -0.01432  -0.01432   2.55126
    R8        2.54698  -0.02381   0.00000  -0.02388  -0.02388   2.52310
    R9        2.55633  -0.01840   0.00000  -0.01876  -0.01876   2.53757
   R10        2.55608  -0.02008   0.00000  -0.02047  -0.02047   2.53561
   R11        2.72870  -0.01797   0.00000  -0.02382  -0.02368   2.70502
   R12        2.88945   0.01963   0.00000   0.03291   0.03291   2.92236
   R13        2.58847  -0.00516   0.00000  -0.00556  -0.00556   2.58291
   R14        2.69314  -0.02177   0.00000  -0.03129  -0.03095   2.66219
   R15        2.54097  -0.01634   0.00000  -0.01622  -0.01622   2.52474
   R16        2.55714  -0.01058   0.00000  -0.01081  -0.01081   2.54633
   R17        2.86420   0.00927   0.00000   0.01032   0.01033   2.87453
   R18        2.55891  -0.01033   0.00000  -0.01058  -0.01058   2.54833
   R19        2.54455  -0.01027   0.00000  -0.01026  -0.01026   2.53429
   R20        2.57329  -0.02071   0.00000  -0.02175  -0.02175   2.55155
   R21        2.87282   0.01261   0.00000   0.02070   0.02070   2.89352
   R22        2.59117  -0.02049   0.00000  -0.02218  -0.02218   2.56899
   R23        2.55707  -0.02037   0.00000  -0.02080  -0.02080   2.53628
   R24        2.55555  -0.01996   0.00000  -0.02032  -0.02032   2.53523
   R25        2.55318  -0.01879   0.00000  -0.01905  -0.01905   2.53412
    A1        1.93133  -0.00623   0.00000  -0.01363  -0.01485   1.91648
    A2        1.91780   0.00327   0.00000   0.01105   0.00997   1.92777
    A3        1.87888  -0.00998   0.00000  -0.03750  -0.03731   1.84157
    A4        2.07560   0.01534   0.00000   0.05304   0.05336   2.12897
    A5        1.92750   0.00632   0.00000  -0.00170  -0.00166   1.92584
    A6        1.71393  -0.01130   0.00000  -0.02083  -0.02138   1.69255
    A7        1.90294  -0.01249   0.00000  -0.02831  -0.02656   1.87638
    A8        1.98868   0.04589   0.00000   0.08994   0.09005   2.07873
    A9        1.92131  -0.00794   0.00000  -0.00093  -0.00142   1.91989
   A10        1.86852  -0.02315   0.00000  -0.05769  -0.05716   1.81136
   A11        1.84206   0.01133   0.00000   0.01560   0.01452   1.85657
   A12        1.93352  -0.01658   0.00000  -0.02601  -0.02777   1.90576
   A13        1.95489   0.01254   0.00000   0.02730   0.02747   1.98235
   A14        1.94753  -0.00991   0.00000  -0.01818  -0.01850   1.92903
   A15        1.94977  -0.01780   0.00000  -0.03792  -0.03811   1.91166
   A16        1.86541   0.00409   0.00000   0.01542   0.01545   1.88086
   A17        1.87183   0.00209   0.00000   0.00282   0.00310   1.87493
   A18        1.86942   0.01023   0.00000   0.01291   0.01222   1.88163
   A19        1.86016  -0.01474   0.00000  -0.02535  -0.02430   1.83586
   A20        2.11629   0.05191   0.00000   0.12328   0.12404   2.24033
   A21        1.87869  -0.00635   0.00000  -0.01172  -0.01095   1.86774
   A22        1.92780  -0.02385   0.00000  -0.06575  -0.06583   1.86196
   A23        1.80112   0.01182   0.00000   0.02235   0.02049   1.82161
   A24        1.85450  -0.02319   0.00000  -0.05427  -0.05570   1.79880
   A25        1.84356   0.03316   0.00000   0.06141   0.06131   1.90487
   A26        1.91506   0.00421   0.00000   0.00907   0.00890   1.92396
   A27        1.84147   0.01385   0.00000   0.03346   0.03333   1.87480
   A28        1.88564  -0.01186   0.00000  -0.02629  -0.02649   1.85916
   A29        1.87968   0.00167   0.00000   0.00519   0.00492   1.88460
   A30        1.99164  -0.00151   0.00000  -0.00495  -0.00518   1.98646
   A31        1.94452  -0.00488   0.00000  -0.01285  -0.01245   1.93207
   A32        1.74471   0.00524   0.00000   0.02014   0.02031   1.76502
   A33        1.93864   0.00033   0.00000   0.00153   0.00151   1.94014
   A34        1.98000   0.00091   0.00000   0.00277   0.00291   1.98292
   A35        1.94797  -0.00080   0.00000  -0.00691  -0.00742   1.94055
   A36        1.98169  -0.01026   0.00000  -0.03017  -0.02994   1.95175
   A37        1.87123   0.00435   0.00000   0.01207   0.01187   1.88310
   A38        1.89727  -0.00913   0.00000  -0.00375  -0.00492   1.89235
   A39        2.00108   0.04760   0.00000   0.09460   0.09456   2.09564
   A40        1.88652  -0.02046   0.00000  -0.04850  -0.04714   1.83938
   A41        1.93875  -0.01442   0.00000  -0.01803  -0.01984   1.91892
   A42        1.82920   0.01016   0.00000   0.01038   0.00957   1.83877
   A43        1.90248  -0.01719   0.00000  -0.04308  -0.04185   1.86062
   A44        1.95146  -0.01653   0.00000  -0.03555  -0.03580   1.91566
   A45        1.94472   0.00996   0.00000   0.02214   0.02230   1.96702
   A46        1.95661  -0.01206   0.00000  -0.02196  -0.02226   1.93435
   A47        1.86247   0.00214   0.00000   0.00227   0.00248   1.86494
   A48        1.87515   0.01151   0.00000   0.01599   0.01529   1.89044
   A49        1.86829   0.00660   0.00000   0.02025   0.02035   1.88864
    D1        1.46284  -0.00644   0.00000  -0.01214  -0.01187   1.45098
    D2       -0.62312   0.00208   0.00000   0.02293   0.02359  -0.59953
    D3       -2.80739  -0.00434   0.00000  -0.01001  -0.01020  -2.81759
    D4       -2.57625   0.00624   0.00000   0.03931   0.03932  -2.53693
    D5        1.62097   0.01476   0.00000   0.07438   0.07478   1.69574
    D6       -0.56330   0.00834   0.00000   0.04144   0.04099  -0.52231
    D7       -0.61584   0.00590   0.00000   0.04426   0.04406  -0.57178
    D8       -2.70181   0.01442   0.00000   0.07933   0.07951  -2.62229
    D9        1.39711   0.00800   0.00000   0.04639   0.04573   1.44284
   D10       -1.25246   0.00579   0.00000   0.02220   0.02236  -1.23010
   D11        0.97089   0.00038   0.00000   0.00582   0.00610   0.97699
   D12        3.10809   0.00173   0.00000   0.01327   0.01449   3.12258
   D13        2.78041  -0.00236   0.00000  -0.01729  -0.01790   2.76251
   D14       -1.27943  -0.00777   0.00000  -0.03367  -0.03417  -1.31359
   D15        0.85777  -0.00642   0.00000  -0.02622  -0.02577   0.83200
   D16        0.70587  -0.00934   0.00000  -0.02527  -0.02544   0.68043
   D17        2.92922  -0.01475   0.00000  -0.04165  -0.04170   2.88752
   D18       -1.21677  -0.01340   0.00000  -0.03420  -0.03331  -1.25008
   D19        1.22239  -0.00251   0.00000   0.00022   0.00073   1.22312
   D20       -3.00247  -0.00052   0.00000   0.00359   0.00372  -2.99874
   D21       -0.89320   0.00602   0.00000   0.02235   0.02245  -0.87075
   D22       -2.95055  -0.01260   0.00000  -0.04087  -0.04038  -2.99093
   D23       -0.89223  -0.01061   0.00000  -0.03750  -0.03739  -0.92961
   D24        1.21705  -0.00407   0.00000  -0.01874  -0.01866   1.19838
   D25       -0.76695   0.00157   0.00000   0.00797   0.00850  -0.75845
   D26        1.29138   0.00356   0.00000   0.01134   0.01149   1.30287
   D27       -2.88254   0.01010   0.00000   0.03011   0.03021  -2.85233
   D28       -1.02279  -0.00775   0.00000  -0.03328  -0.03363  -1.05642
   D29        1.06781  -0.00076   0.00000  -0.00738  -0.00786   1.05994
   D30       -3.12317  -0.00671   0.00000  -0.02937  -0.02939   3.13062
   D31       -3.12812  -0.00433   0.00000  -0.01315  -0.01243  -3.14054
   D32       -1.03752   0.00266   0.00000   0.01275   0.01334  -1.02418
   D33        1.05469  -0.00328   0.00000  -0.00924  -0.00819   1.04650
   D34        1.15497   0.00363   0.00000   0.01384   0.01328   1.16825
   D35       -3.03762   0.01063   0.00000   0.03974   0.03904  -2.99858
   D36       -0.94541   0.00468   0.00000   0.01775   0.01751  -0.92790
   D37       -0.33224   0.00299   0.00000   0.00638   0.00672  -0.32552
   D38       -2.66290  -0.03517   0.00000  -0.08499  -0.08555  -2.74846
   D39        1.64417  -0.00470   0.00000  -0.00686  -0.00636   1.63781
   D40        1.18440   0.00797   0.00000   0.03491   0.03552   1.21992
   D41       -0.99688  -0.00063   0.00000  -0.00772  -0.00800  -1.00487
   D42       -3.12256   0.00486   0.00000   0.02050   0.02112  -3.10144
   D43       -2.90604   0.00849   0.00000   0.04113   0.03967  -2.86638
   D44        1.19587  -0.00011   0.00000  -0.00150  -0.00385   1.19202
   D45       -0.92981   0.00538   0.00000   0.02671   0.02527  -0.90455
   D46       -0.96424  -0.00062   0.00000   0.00910   0.01082  -0.95342
   D47        3.13766  -0.00922   0.00000  -0.03353  -0.03269   3.10497
   D48        1.01199  -0.00373   0.00000  -0.00532  -0.00358   1.00841
   D49       -2.36471   0.00531   0.00000   0.01918   0.01918  -2.34553
   D50        1.89804  -0.00603   0.00000  -0.00904  -0.00968   1.88836
   D51       -0.18351  -0.00173   0.00000   0.00140   0.00102  -0.18249
   D52        0.62600   0.00342   0.00000  -0.00143  -0.00145   0.62455
   D53       -1.42540   0.00055   0.00000  -0.01123  -0.01108  -1.43648
   D54        2.74037   0.00292   0.00000   0.00012   0.00012   2.74049
   D55        2.76090  -0.00091   0.00000  -0.01243  -0.01252   2.74838
   D56        0.70950  -0.00378   0.00000  -0.02224  -0.02215   0.68735
   D57       -1.40792  -0.00141   0.00000  -0.01089  -0.01095  -1.41887
   D58       -1.38903  -0.00362   0.00000  -0.01923  -0.01935  -1.40839
   D59        2.84276  -0.00649   0.00000  -0.02903  -0.02899   2.81377
   D60        0.72534  -0.00412   0.00000  -0.01769  -0.01779   0.70755
   D61       -3.06136   0.01000   0.00000   0.04750   0.04748  -3.01388
   D62        1.13923   0.01166   0.00000   0.05356   0.05381   1.19304
   D63       -0.95429   0.00459   0.00000   0.02735   0.02778  -0.92651
   D64        1.06252  -0.00272   0.00000  -0.00571  -0.00579   1.05672
   D65       -1.02008  -0.00105   0.00000   0.00035   0.00054  -1.01954
   D66       -3.11360  -0.00813   0.00000  -0.02586  -0.02549  -3.13909
   D67       -0.94440   0.00315   0.00000   0.01707   0.01646  -0.92795
   D68       -3.02700   0.00481   0.00000   0.02313   0.02279  -3.00421
   D69        1.16267  -0.00227   0.00000  -0.00308  -0.00324   1.15943
         Item               Value     Threshold  Converged?
 Maximum Force            0.051908     0.000450     NO 
 RMS     Force            0.014190     0.000300     NO 
 Maximum Displacement     0.772842     0.001800     NO 
 RMS     Displacement     0.204026     0.001200     NO 
 Predicted change in Energy=-4.698556D-02
 Lowest energy point so far.  Saving SCF results.
 GradGradGradGradGradGradGradGradGradGradGradGradGradGradGradGradGradGrad

 Leave Link  103 at Wed Feb  5 01:17:25 2025, MaxMem=  5368709120 cpu:         5.8
 (Enter /home/k0335/k033513/app/g09/l202.exe)
                          Input orientation:                          
 ---------------------------------------------------------------------
 Center     Atomic      Atomic             Coordinates (Angstroms)
 Number     Number       Type             X           Y           Z
 ---------------------------------------------------------------------
      1          9           0        0.030347   -0.411325   -1.477263
      2          6           0        0.531981    0.293118   -0.428218
      3          6           0        1.932069   -0.251272   -0.052124
      4          9           0        2.835534    0.332297   -0.885386
      5          6           0        2.214331   -1.754771   -0.201119
      6          9           0        1.419777   -2.524081    0.546890
      7          9           0        2.068485   -2.136710   -1.480194
      8          9           0        3.480220   -2.011664    0.162097
      9          9           0        2.259149    0.139956    1.197933
     10          6           0       -0.585166    0.539476    0.653589
     11          8           0       -1.482113    1.482919    0.058272
[...]
 Leave Link  202 at Wed Feb  5 01:31:21 2025, MaxMem=  5368709120 cpu:         0.0
 (Enter /home/k0335/k033513/app/g09/l601.exe)
 Copying SCF densities to generalized density rwf, IOpCl= 0 IROHF=0.

 **********************************************************************

            Population analysis using the SCF density.

 **********************************************************************

 Alpha  occ. eigenvalues --  -24.83846 -24.83743 -24.83636 -24.83604 -24.83541
 Alpha  occ. eigenvalues --  -24.83504 -24.83483 -24.83458 -24.83458 -24.83391
 Alpha  occ. eigenvalues --  -24.83373 -24.83168 -24.83093 -24.83028 -24.83019
 Alpha  occ. eigenvalues --  -24.82626 -19.32323 -10.54719 -10.54693 -10.52778
 Alpha  occ. eigenvalues --  -10.49574 -10.49101 -10.49016 -10.47923 -10.43501
 Alpha  occ. eigenvalues --   -1.43374  -1.43137  -1.41386  -1.39393  -1.39199
 Alpha  occ. eigenvalues --   -1.38567  -1.36124  -1.35460  -1.34183  -1.33881
 Alpha  occ. eigenvalues --   -1.33673  -1.33457  -1.33326  -1.32727  -1.32544
 Alpha  occ. eigenvalues --   -1.32463  -1.22594  -0.95762  -0.92391  -0.89143
 Alpha  occ. eigenvalues --   -0.85985  -0.81411  -0.78635  -0.76609  -0.75737
 Alpha  occ. eigenvalues --   -0.73524  -0.71743  -0.71264  -0.70727  -0.70541
 Alpha  occ. eigenvalues --   -0.70067  -0.69877  -0.69444  -0.68539  -0.67839
 Alpha  occ. eigenvalues --   -0.66309  -0.66194  -0.66019  -0.65705  -0.64911
 Alpha  occ. eigenvalues --   -0.63412  -0.58557  -0.58288  -0.57849  -0.57144
 Alpha  occ. eigenvalues --   -0.56967  -0.56361  -0.56203  -0.56200  -0.55763
 Alpha  occ. eigenvalues --   -0.55062  -0.55010  -0.54910  -0.54546  -0.54091
 Alpha  occ. eigenvalues --   -0.53808  -0.53391  -0.52895  -0.52495  -0.52232
 Alpha  occ. eigenvalues --   -0.51802  -0.51708  -0.51486  -0.51112  -0.50982
 Alpha  occ. eigenvalues --   -0.50455  -0.50121  -0.50057  -0.49905  -0.48927
 Alpha  occ. eigenvalues --   -0.47845  -0.45851  -0.44547  -0.43607  -0.41899
 Alpha virt. eigenvalues --    0.04125   0.07981   0.09195   0.11509   0.13504
 Alpha virt. eigenvalues --    0.15832   0.16928   0.18177   0.21379   0.21946
 Alpha virt. eigenvalues --    0.24412   0.24955   0.25826   0.26090   0.26703
 Alpha virt. eigenvalues --    0.28278   0.28998   0.29829   0.30485   0.31560
 Alpha virt. eigenvalues --    0.32460   0.34901   0.35784   0.36774   0.38520
 Alpha virt. eigenvalues --    0.44803   0.47813   0.49351   0.50199   0.51055
 Alpha virt. eigenvalues --    0.51531   0.52784   0.55055   0.55683   0.56086
 Alpha virt. eigenvalues --    0.58242   0.59377   0.60442   0.61193   0.62715
 Alpha virt. eigenvalues --    0.64263   0.65144   0.68315   0.69069   0.71331
 Alpha virt. eigenvalues --    0.73095   0.76690   0.79694   0.81312   0.81726
 Alpha virt. eigenvalues --    0.87198   0.88938   0.93576   0.95845   0.99009
 Alpha virt. eigenvalues --    1.01906   1.03478   1.04932   1.06394   1.08331
 Alpha virt. eigenvalues --    1.08578   1.09338   1.09703   1.11686   1.12816
 Alpha virt. eigenvalues --    1.13759   1.14514   1.14988   1.16154   1.17826
 Alpha virt. eigenvalues --    1.18663   1.19004   1.21570   1.21848   1.24206
 Alpha virt. eigenvalues --    1.25958   1.26434   1.28974   1.29689   1.30520
 Alpha virt. eigenvalues --    1.30950   1.31880   1.32865   1.33663   1.34101
 Alpha virt. eigenvalues --    1.35429   1.36182   1.36256   1.37651   1.38180
 Alpha virt. eigenvalues --    1.38605   1.39051   1.39746   1.40063   1.40654
 Alpha virt. eigenvalues --    1.40877   1.41515   1.42295   1.42618   1.43133
 Alpha virt. eigenvalues --    1.44156   1.44839   1.45275   1.46478   1.47449
 Alpha virt. eigenvalues --    1.48149   1.48972   1.50374   1.51485   1.51692
 Alpha virt. eigenvalues --    1.52604   1.53291   1.55000   1.55428   1.56257
 Alpha virt. eigenvalues --    1.57640   1.58842   1.60470   1.61391   1.63962
 Alpha virt. eigenvalues --    1.65013   1.66462   1.67398   1.69040   1.69628
 Alpha virt. eigenvalues --    1.71092   1.72349   1.73030   1.74289   1.74797
 Alpha virt. eigenvalues --    1.75053   1.76410   1.77563   1.79442   1.80266
 Alpha virt. eigenvalues --    1.81195   1.82030   1.83449   1.84088   1.84684
 Alpha virt. eigenvalues --    1.85631   1.86138   1.86436   1.86898   1.87220
 Alpha virt. eigenvalues --    1.87693   1.87957   1.89454   1.89740   1.90952
 Alpha virt. eigenvalues --    1.91369   1.92797   1.93232   1.95083   1.96115
 Alpha virt. eigenvalues --    1.97096   1.98050   1.98441   1.99250   1.99618
 Alpha virt. eigenvalues --    2.01449   2.02057   2.03082   2.03584   2.03910
 Alpha virt. eigenvalues --    2.04279   2.04700   2.04881   2.06580   2.07661
 Alpha virt. eigenvalues --    2.08302   2.08947   2.10934   2.10992   2.11528
 Alpha virt. eigenvalues --    2.12127   2.14508   2.16039   2.16200   2.16847
 Alpha virt. eigenvalues --    2.17980   2.19465   2.20427   2.21791   2.23321
 Alpha virt. eigenvalues --    2.25388   2.26365   2.27963   2.28905   2.30423
 Alpha virt. eigenvalues --    2.32273   2.33572   2.34906   2.35360   2.37307
 Alpha virt. eigenvalues --    2.38532   2.41251   2.42616   2.43761   2.44805
 Alpha virt. eigenvalues --    2.46957   2.47823   2.49118   2.51028   2.53406
 Alpha virt. eigenvalues --    2.55576   2.58159   2.59451   2.60845   2.62864
 Alpha virt. eigenvalues --    2.63667   2.66960   2.70818   2.73361   2.74611
 Alpha virt. eigenvalues --    2.75868   2.77060   2.78555   2.82290   2.85370
 Alpha virt. eigenvalues --    2.86029   2.87571   2.87747   2.90399   2.92935
 Alpha virt. eigenvalues --    2.94615   2.95141   2.96735   2.97622   2.98461
 Alpha virt. eigenvalues --    3.01620   3.04223   3.05659   3.08026   3.10129
 Alpha virt. eigenvalues --    3.11117   3.11368   3.12662   3.14198   3.15258
 Alpha virt. eigenvalues --    3.15872   3.17789   3.18690   3.19998   3.21820
 Alpha virt. eigenvalues --    3.23291   3.25469   3.27307   3.31441   3.40229
 Alpha virt. eigenvalues --    4.15086   4.21160   4.30443   4.39405   4.44921
 Alpha virt. eigenvalues --    4.50685   4.55407   4.64300   4.68788   4.70444
 Alpha virt. eigenvalues --    4.83019   4.87480   4.98117   5.02407   5.30248
 Alpha virt. eigenvalues --    5.33627   5.49169   5.54525   5.57639   5.71358
 Alpha virt. eigenvalues --    5.88513   6.00628   6.53391   6.57788   6.79653
          Condensed to atoms (all electrons):
               1          2          3          4          5          6
     1  F    9.147773   0.191110  -0.031854   0.000259   0.015864  -0.001852
     2  C    0.191110   5.697935   0.102814  -0.036023  -0.062701   0.012069
     3  C   -0.031854   0.102814   4.801520   0.234282   0.260433  -0.043467
     4  F    0.000259  -0.036023   0.234282   9.104610  -0.017544   0.000376
     5  C    0.015864  -0.062701   0.260433  -0.017544   4.169024   0.282276
     6  F   -0.001852   0.012069  -0.043467   0.000376   0.282276   9.061434
     7  F   -0.001002   0.002613  -0.036284   0.000006   0.286011  -0.036891
     8  F    0.000004   0.002602  -0.023898  -0.000558   0.302406  -0.038877
     9  F    0.000357  -0.039749   0.256704  -0.035486  -0.020069  -0.000034
    10  C   -0.019066   0.087921  -0.033597   0.001449  -0.000046  -0.001905
    11  O   -0.003733  -0.019083   0.002287  -0.000007  -0.000019   0.000000
    12  C    0.013906  -0.084939   0.004926   0.000258  -0.000104  -0.000001
    13  F    0.000002   0.001187  -0.000031   0.000000   0.000000   0.000000
    14  F   -0.000171   0.001656  -0.000039   0.000000   0.000001   0.000000
    15  C   -0.026473   0.161269  -0.032248   0.016766   0.003064   0.000095
    16  F    0.000371  -0.055360   0.012917  -0.002695   0.000151   0.000000
    17  F   -0.000510  -0.030696  -0.000503  -0.000682  -0.000166   0.000000
    18  C   -0.003364  -0.036453  -0.003856  -0.000001   0.000771   0.003304
    19  F   -0.000121   0.000550   0.005531   0.000000  -0.000543   0.001079
    20  C    0.009282  -0.001480   0.000312   0.000000  -0.000022  -0.000451
    21  F    0.000001  -0.000003   0.000000   0.000000   0.000000   0.000000
    22  F   -0.001076   0.004311  -0.000586   0.000000   0.000749   0.001737
    23  F   -0.000292  -0.001183  -0.000004   0.000000   0.000000   0.000000
    24  F    0.000001   0.002409   0.000015   0.000000  -0.000001   0.000000
    25  F    0.000345  -0.039282   0.002988  -0.000027   0.000074   0.000001
               7          8          9         10         11         12
     1  F   -0.001002   0.000004   0.000357  -0.019066  -0.003733   0.013906
     2  C    0.002613   0.002602  -0.039749   0.087921  -0.019083  -0.084939
     3  C   -0.036284  -0.023898   0.256704  -0.033597   0.002287   0.004926
     4  F    0.000006  -0.000558  -0.035486   0.001449  -0.000007   0.000258
     5  C    0.286011   0.302406  -0.020069  -0.000046  -0.000019  -0.000104
     6  F   -0.036891  -0.038877  -0.000034  -0.001905   0.000000  -0.000001
     7  F    9.060909  -0.038985   0.000363   0.000118   0.000000   0.000002
     8  F   -0.038985   9.036863  -0.000631   0.000003   0.000000   0.000000
     9  F    0.000363  -0.000631   9.083668   0.009287   0.000017  -0.000027
    10  C    0.000118   0.000003   0.009287   5.019848   0.154843  -0.024852
    11  O    0.000000   0.000000   0.000017   0.154843   8.396681   0.192900
    12  C    0.000002   0.000000  -0.000027  -0.024852   0.192900   4.276028
    13  F    0.000000   0.000000   0.000000   0.002405  -0.047132   0.313961
    14  F    0.000000   0.000000   0.000000   0.000347  -0.045143   0.311843
    15  C   -0.000402  -0.000016   0.000123  -0.028822  -0.049264   0.255293
    16  F    0.000000   0.000000  -0.000261   0.012962  -0.000731  -0.019661
    17  F    0.000010   0.000000   0.000000   0.001506   0.000948  -0.024150
    18  C   -0.000011  -0.000003  -0.001989   0.186423  -0.039774  -0.001126
    19  F    0.000000  -0.000001   0.000303  -0.028500   0.000847  -0.000003
    20  C    0.000003   0.000000  -0.000010  -0.051487   0.005353   0.000450
    21  F    0.000000   0.000000   0.000000   0.002532  -0.000006   0.000001
    22  F   -0.000005   0.000000   0.000001  -0.001192  -0.000075  -0.000022
    23  F    0.000000   0.000000   0.000000   0.002228  -0.000379   0.000609
    24  F    0.000000   0.000000   0.000000  -0.024199   0.001288   0.000104
    25  F    0.000000   0.000000  -0.001684   0.229655  -0.047387   0.004876
              13         14         15         16         17         18
     1  F    0.000002  -0.000171  -0.026473   0.000371  -0.000510  -0.003364
     2  C    0.001187   0.001656   0.161269  -0.055360  -0.030696  -0.036453
     3  C   -0.000031  -0.000039  -0.032248   0.012917  -0.000503  -0.003856
     4  F    0.000000   0.000000   0.016766  -0.002695  -0.000682  -0.000001
     5  C    0.000000   0.000001   0.003064   0.000151  -0.000166   0.000771
     6  F    0.000000   0.000000   0.000095   0.000000   0.000000   0.003304
     7  F    0.000000   0.000000  -0.000402   0.000000   0.000010  -0.000011
     8  F    0.000000   0.000000  -0.000016   0.000000   0.000000  -0.000003
     9  F    0.000000   0.000000   0.000123  -0.000261   0.000000  -0.001989
    10  C    0.002405   0.000347  -0.028822   0.012962   0.001506   0.186423
    11  O   -0.047132  -0.045143  -0.049264  -0.000731   0.000948  -0.039774
    12  C    0.313961   0.311843   0.255293  -0.019661  -0.024150  -0.001126
    13  F    9.041457  -0.042633  -0.029887   0.000104   0.000104  -0.000049
    14  F   -0.042633   9.046130  -0.034688   0.000333   0.000556  -0.000096
    15  C   -0.029887  -0.034688   4.724924   0.239426   0.278209   0.002733
    16  F    0.000104   0.000333   0.239426   9.103883  -0.034698   0.000058
    17  F    0.000104   0.000556   0.278209  -0.034698   9.063318  -0.000023
    18  C   -0.000049  -0.000096   0.002733   0.000058  -0.000023   4.785483
    19  F    0.000000   0.000000   0.000049   0.000000   0.000000   0.237927
    20  C    0.000002   0.000003  -0.000213   0.000000   0.000001   0.226024
    21  F    0.000000   0.000000   0.000000   0.000000   0.000000  -0.019508
    22  F    0.000000   0.000000   0.000029   0.000000   0.000000  -0.033134
    23  F    0.000000  -0.000012   0.000003   0.000000   0.000000  -0.035741
    24  F    0.000000   0.000000  -0.000080   0.000000   0.000000   0.244374
    25  F   -0.000047  -0.000005   0.002018  -0.000228   0.000003  -0.019023
              19         20         21         22         23         24
     1  F   -0.000121   0.009282   0.000001  -0.001076  -0.000292   0.000001
     2  C    0.000550  -0.001480  -0.000003   0.004311  -0.001183   0.002409
     3  C    0.005531   0.000312   0.000000  -0.000586  -0.000004   0.000015
     4  F    0.000000   0.000000   0.000000   0.000000   0.000000   0.000000
     5  C   -0.000543  -0.000022   0.000000   0.000749   0.000000  -0.000001
     6  F    0.001079  -0.000451   0.000000   0.001737   0.000000   0.000000
     7  F    0.000000   0.000003   0.000000  -0.000005   0.000000   0.000000
     8  F   -0.000001   0.000000   0.000000   0.000000   0.000000   0.000000
     9  F    0.000303  -0.000010   0.000000   0.000001   0.000000   0.000000
    10  C   -0.028500  -0.051487   0.002532  -0.001192   0.002228  -0.024199
    11  O    0.000847   0.005353  -0.000006  -0.000075  -0.000379   0.001288
    12  C   -0.000003   0.000450   0.000001  -0.000022   0.000609   0.000104
    13  F    0.000000   0.000002   0.000000   0.000000   0.000000   0.000000
    14  F    0.000000   0.000003   0.000000   0.000000  -0.000012   0.000000
    15  C    0.000049  -0.000213   0.000000   0.000029   0.000003  -0.000080
    16  F    0.000000   0.000000   0.000000   0.000000   0.000000   0.000000
    17  F    0.000000   0.000001   0.000000   0.000000   0.000000   0.000000
    18  C    0.237927   0.226024  -0.019508  -0.033134  -0.035741   0.244374
    19  F    9.102780  -0.019832  -0.000581   0.000180   0.000345  -0.033357
    20  C   -0.019832   4.225192   0.287337   0.283371   0.292991  -0.022554
    21  F   -0.000581   0.287337   9.049616  -0.039909  -0.039402  -0.000395
    22  F    0.000180   0.283371  -0.039909   9.056673  -0.038028   0.000373
    23  F    0.000345   0.292991  -0.039402  -0.038028   9.047801  -0.000144
    24  F   -0.033357  -0.022554  -0.000395   0.000373  -0.000144   9.093501
    25  F   -0.000735   0.001698  -0.000001  -0.000001   0.000000  -0.001447
              25
     1  F    0.000345
     2  C   -0.039282
     3  C    0.002988
     4  F   -0.000027
     5  C    0.000074
     6  F    0.000001
     7  F    0.000000
     8  F    0.000000
     9  F   -0.001684
    10  C    0.229655
    11  O   -0.047387
    12  C    0.004876
    13  F   -0.000047
    14  F   -0.000005
    15  C    0.002018
    16  F   -0.000228
    17  F    0.000003
    18  C   -0.019023
    19  F   -0.000735
    20  C    0.001698
    21  F   -0.000001
    22  F   -0.000001
    23  F    0.000000
    24  F   -0.001447
    25  F    9.142476
 Mulliken charges:
               1
     1  F   -0.289762
     2  C    0.138507
     3  C    0.521640
     4  F   -0.264982
     5  C    0.780389
     6  F   -0.238893
     7  F   -0.236456
     8  F   -0.238908
     9  F   -0.250884
    10  C    0.502140
    11  O   -0.502430
    12  C    0.779728
    13  F   -0.239442
    14  F   -0.238081
    15  C    0.518095
    16  F   -0.256571
    17  F   -0.253227
    18  C    0.507051
    19  F   -0.265919
    20  C    0.764030
    21  F   -0.239681
    22  F   -0.233395
    23  F   -0.228793
    24  F   -0.259889
    25  F   -0.274266
 Sum of Mulliken charges =   0.00000
 Mulliken charges with hydrogens summed into heavy atoms:
               1
     1  F   -0.289762
     2  C    0.138507
     3  C    0.521640
     4  F   -0.264982
     5  C    0.780389
     6  F   -0.238893
     7  F   -0.236456
     8  F   -0.238908
     9  F   -0.250884
    10  C    0.502140
    11  O   -0.502430
    12  C    0.779728
    13  F   -0.239442
    14  F   -0.238081
    15  C    0.518095
    16  F   -0.256571
    17  F   -0.253227
    18  C    0.507051
    19  F   -0.265919
    20  C    0.764030
    21  F   -0.239681
    22  F   -0.233395
    23  F   -0.228793
    24  F   -0.259889
    25  F   -0.274266
 Electronic spatial extent (au):  <R**2>=           5841.9928
 Charge=              0.0000 electrons
 Dipole moment (field-independent basis, Debye):
    X=              0.2514    Y=             -0.1867    Z=             -0.2781  Tot=              0.4188
 Quadrupole moment (field-independent basis, Debye-Ang):
   XX=           -130.6307   YY=           -130.0153   ZZ=           -130.7920
   XY=              0.2530   XZ=             -0.0558   YZ=             -0.6172
 Traceless Quadrupole moment (field-independent basis, Debye-Ang):
   XX=             -0.1514   YY=              0.4640   ZZ=             -0.3127
   XY=              0.2530   XZ=             -0.0558   YZ=             -0.6172
 Octapole moment (field-independent basis, Debye-Ang**2):
  XXX=              1.2613  YYY=             -7.5561  ZZZ=             -0.9389  XYY=              1.6771
  XXY=             -3.4777  XXZ=             -0.9553  XZZ=              1.5804  YZZ=             -1.5820
  YYZ=             -2.3093  XYZ=             -0.6805
 Hexadecapole moment (field-independent basis, Debye-Ang**3):
 XXXX=          -2451.7538 YYYY=          -2135.7196 ZZZZ=          -1159.4561 XXXY=             76.3188
 XXXZ=            185.8993 YYYX=             76.2410 YYYZ=            257.0060 ZZZX=            185.8716
 ZZZY=            259.3769 XXYY=           -764.5456 XXZZ=           -604.3171 YYZZ=           -545.3032
 XXYZ=             91.3700 YYXZ=             61.7608 ZZXY=             26.9999
 N-N= 3.137655550116D+03 E-N=-1.096248184917D+04  KE= 1.964002945804D+03
 No NMR shielding tensors so no spin-rotation constants.
 Leave Link  601 at Wed Feb  5 01:31:21 2025, MaxMem=  5368709120 cpu:         1.8
 (Enter /home/k0335/k033513/app/g09/l9999.exe)
 1\1\GINC-C18U04N2\FOpt\RCAM-B3LYP\6-31G(d,p)\C8F16O1\K033513\05-Feb-20
 25\0\\#p CAM-B3LYP/6-31G(d,p) opt SCRF=(PCM,Solvent=Generic,Read) NoSy
 mm out=wfn\\Title S1_neu\\0,1\F,-0.0094880141,-0.533016188,-1.31070455
 05\C,0.5274019563,0.3148406478,-0.3741689942\C,1.887750632,-0.24619375
 13,0.1048872643\F,2.8792888401,0.4235637351,-0.5231191341\C,2.11491515
 29,-1.7409439114,-0.2146782622\F,1.124078344,-2.4873299711,0.268734350
 7\F,2.2079901315,-1.9245167314,-1.527915193\F,3.2556290009,-2.12041332
 31,0.3554152918\F,2.038286456,-0.0871979879,1.4294142267\C,-0.57663120
 53,0.6346463482,0.6621554755\O,-1.4905753411,1.4189346428,-0.033635791
 8\C,-0.8777892012,2.1533480573,-1.0389348585\F,-0.9790379062,3.4565415
 034,-0.7844904443\F,-1.4848139612,1.9013187869,-2.1983292348\C,0.60230
 46271,1.6888647714,-1.0705398179\F,1.3501334112,2.5471828239,-0.360232
 0909\F,1.0658477351,1.5986328193,-2.3165387827\C,-1.3374399006,-0.4995
 988762,1.3794475338\F,-0.4263555824,-1.2427824696,2.0386035025\C,-2.22
 6952302,-1.4630377452,0.5628891515\F,-2.9434181179,-2.1822939013,1.425
 5547789\F,-1.4910596559,-2.2939483049,-0.1695468865\F,-3.05552647,-0.7
 936003423,-0.2322813789\F,-2.1442424785,0.1017321403,2.2726786662\F,-0
 .0102941508,1.3752672272,1.6553351784\\Version=ES64L-G09RevD.01\HF=-19
 76.9921934\RMSD=4.340e-09\RMSF=5.516e-06\Dipole=0.0988955,-0.0734414,-
 0.1094166\Quadrupole=-0.1125395,0.3450081,-0.2324686,0.1881136,-0.0415
 058,-0.4588491\PG=C01 [X(C8F16O1)]\\@

 Writing a WFN file to "cytopopt/S1/S1_neu.wfn"


 O WAD SOME POWER THE GIFTIE GIE US       
 TO SEE OURSELS AS OTHERS SEE US.....     
 IT WOULD FRAE MONIE A BLUNDER FREE US,   
                     AND FOOLISH NOTION...
 WHAT AIRS IN DRESS AND GAIT WAD LEA'E US,
                     AND EV'N DEVOTION....
                                          
              (ROBERT BURNS 'TO A LOUSE') 
 Job cpu time:       0 days  2 hours 51 minutes 47.8 seconds.
 File lengths (MBytes):  RWF=    230 Int=      0 D2E=      0 Chk=     13 Scr=      1
 Normal termination of Gaussian 09 at Wed Feb  5 01:31:21 2025.
