 Entering Gaussian System, Link 0=g09
 Initial command:
 /home/k0335/k033513/app/g09/l1.exe "/home/k0335/k033513/app/g09/scratch/Gau-621582.inp" -scrdir="/home/k0335/k033513/app/g09/scratch/"
 Default is to use a total of  36 processors:
                               36 via shared-memory
                                1 via Linda
 Entering Link 1 = /home/k0335/k033513/app/g09/l1.exe PID=    621583.
  
 Copyright (c) 1988,1990,1992,1993,1995,1998,2003,2009,2013,
            Gaussian, Inc.  All Rights Reserved.
  
 This is part of the Gaussian(R) 09 program.  It is based on
 the Gaussian(R) 03 system (copyright 2003, Gaussian, Inc.),
 the Gaussian(R) 98 system (copyright 1998, Gaussian, Inc.),
 the Gaussian(R) 94 system (copyright 1995, Gaussian, Inc.),
 the Gaussian 92(TM) system (copyright 1992, Gaussian, Inc.),
 the Gaussian 90(TM) system (copyright 1990, Gaussian, Inc.),
 the Gaussian 88(TM) system (copyright 1988, Gaussian, Inc.),
 the Gaussian 86(TM) system (copyright 1986, Carnegie Mellon
 University), and the Gaussian 82(TM) system (copyright 1983,
 Carnegie Mellon University). Gaussian is a federally registered
 trademark of Gaussian, Inc.
  
 This software contains proprietary and confidential information,
 including trade secrets, belonging to Gaussian, Inc.
  
 This software is provided under written license and may be
 used, copied, transmitted, or stored only in accord with that
 written license.
  
 The following legend is applicable only to US Government
 contracts under FAR:
  
                    RESTRICTED RIGHTS LEGEND
  
 Use, reproduction and disclosure by the US Government is
 subject to restrictions as set forth in subparagraphs (a)
 and (c) of the Commercial Computer Software - Restricted
 Rights clause in FAR 52.227-19.
  
 Gaussian, Inc.
 340 Quinnipiac St., Bldg. 40, Wallingford CT 06492
  
  
 ---------------------------------------------------------------
 Warning -- This program may not be used in any manner that
 competes with the business of Gaussian, Inc. or will provide
 assistance to any competitor of Gaussian, Inc.  The licensee
 of this program is prohibited from giving any competitor of
 Gaussian, Inc. access to this program.  By using this program,
 the user acknowledges that Gaussian, Inc. is engaged in the
 business of creating and licensing software in the field of
 computational chemistry and represents and warrants to the
 licensee that it is not a competitor of Gaussian, Inc. and that
 it will not use this program in any manner prohibited above.
 ---------------------------------------------------------------
  

 Cite this work as:
 Gaussian 09, Revision D.01,
 M. J. Frisch, G. W. Trucks, H. B. Schlegel, G. E. Scuseria, 
 M. A. Robb, J. R. Cheeseman, G. Scalmani, V. Barone, B. Mennucci, 
 G. A. Petersson, H. Nakatsuji, M. Caricato, X. Li, H. P. Hratchian, 
 A. F. Izmaylov, J. Bloino, G. Zheng, J. L. Sonnenberg, M. Hada, 
 M. Ehara, K. Toyota, R. Fukuda, J. Hasegawa, M. Ishida, T. Nakajima, 
 Y. Honda, O. Kitao, H. Nakai, T. Vreven, J. A. Montgomery, Jr., 
 J. E. Peralta, F. Ogliaro, M. Bearpark, J. J. Heyd, E. Brothers, 
 K. N. Kudin, V. N. Staroverov, T. Keith, R. Kobayashi, J. Normand, 
 K. Raghavachari, A. Rendell, J. C. Burant, S. S. Iyengar, J. Tomasi, 
 M. Cossi, N. Rega, J. M. Millam, M. Klene, J. E. Knox, J. B. Cross, 
 V. Bakken, C. Adamo, J. Jaramillo, R. Gomperts, R. E. Stratmann, 
 O. Yazyev, A. J. Austin, R. Cammi, C. Pomelli, J. W. Ochterski, 
 R. L. Martin, K. Morokuma, V. G. Zakrzewski, G. A. Voth, 
 P. Salvador, J. J. Dannenberg, S. Dapprich, A. D. Daniels, 
 O. Farkas, J. B. Foresman, J. V. Ortiz, J. Cioslowski, 
 and D. J. Fox, Gaussian, Inc., Wallingford CT, 2013.
 
 ******************************************
 Gaussian 09:  ES64L-G09RevD.01 24-Apr-2013
                 3-Mar-2024 
 ******************************************
 %nprocshared=24
 Will use up to   24 processors via shared memory.
 %mem=40GB
 %rwf=A1445123340/A1445123340_p1.rwf
 %nosave
 %chk=A1445123340/A1445123340_p1.chk
 ----------------------------------------------------------------------
 #p CAM-B3LYP/6-31G(d,p) SCRF=(PCM,Solvent=Generic,Read) NoSymm out=wfn
 ----------------------------------------------------------------------
 1/38=1,40=2/1;
 2/12=2,15=1,17=6,18=5,40=1/2;
 3/5=1,6=6,7=101,11=2,16=1,25=1,30=1,70=2203,72=-2,74=-40/1,2,3;
 4//1;
 5/5=2,38=5/2;
 6/7=2,8=2,9=2,10=2,28=1/1;
 99/5=1,6=100,9=1/99;
 Leave Link    1 at Sun Mar  3 17:38:14 2024, MaxMem=  5368709120 cpu:         0.8
 (Enter /home/k0335/k033513/app/g09/l101.exe)
 --------------------
 Title A1445123340_p1
 --------------------
 Symbolic Z-matrix:
 Charge =  1 Multiplicity = 2
 C                    -5.0678   -0.07681  -1.75965 
 C                    -4.77537   0.74484  -0.51374 
 C                    -3.2828    0.87306  -0.20501 
 C                    -2.62478  -0.46078   0.16599 
 N                    -1.22352  -0.28674   0.55201 
 C                    -0.9474    0.08269   1.85005 
 O                    -1.8183    0.13681   2.71873 
 N                     0.36645   0.40888   2.10464 
 C                     0.7101    0.89288   3.43222 
 C                     1.38425   0.19256   1.20539 
 O                     2.54968   0.45087   1.49549 
 N                     1.05052  -0.33645  -0.00852 
 C                     2.05117  -0.48964  -1.05849 
 F                     1.59795  -1.46322  -1.91595 
 F                     2.04835   0.65404  -1.80576 
 C                     3.53726  -0.87978  -0.77103 
 F                     4.14776  -1.1328   -1.98255 
 O                     4.41572   0.03991  -0.12474 
 C                     4.47304   1.29504  -0.75161 
 F                     3.38257   2.01914  -0.442 
 F                     5.5606    1.9498   -0.29982 
 F                     4.56943   1.17814  -2.08621 
 C                     3.50864  -2.21606  -0.02629 
 F                     2.89298  -3.18836  -0.7396 
 F                     4.76117  -2.66509   0.23767 
 F                     2.86103  -2.15149   1.15977 
 C                    -0.26028  -0.31464  -0.43699 
 O                    -0.57627  -0.29963  -1.62619 
 H                    -6.13914  -0.05072  -1.98346 
 H                    -4.78377  -1.12456  -1.62542 
 H                    -4.53085   0.31974  -2.62711 
 H                    -5.29797   0.30621   0.34421 
 H                    -5.18815   1.75079  -0.65556 
 H                    -2.76595   1.32073  -1.06259 
 H                    -3.16349   1.57976   0.62574 
 H                    -3.16953  -0.9257    0.99616 
 H                    -2.67084  -1.15759  -0.67822 
 H                    -0.14443   1.37279   3.91773 
 H                     1.53171   1.61378   3.37914 
 H                     1.03026   0.03763   4.03579 
 
 NAtoms=     40 NQM=       40 NQMF=       0 NMMI=      0 NMMIF=      0
                NMic=       0 NMicF=      0.
                    Isotopes and Nuclear Properties:
 (Nuclear quadrupole moments (NQMom) in fm**2, nuclear magnetic moments (NMagM)
  in nuclear magnetons)

  Atom         1           2           3           4           5           6           7           8           9          10
 IAtWgt=          12          12          12          12          14          12          16          14          12          12
 AtmWgt=  12.0000000  12.0000000  12.0000000  12.0000000  14.0030740  12.0000000  15.9949146  14.0030740  12.0000000  12.0000000
 NucSpn=           0           0           0           0           2           0           0           2           0           0
 AtZEff=   0.0000000   0.0000000   0.0000000   0.0000000   0.0000000   0.0000000   0.0000000   0.0000000   0.0000000   0.0000000
 NQMom=    0.0000000   0.0000000   0.0000000   0.0000000   2.0440000   0.0000000   0.0000000   2.0440000   0.0000000   0.0000000
 NMagM=    0.0000000   0.0000000   0.0000000   0.0000000   0.4037610   0.0000000   0.0000000   0.4037610   0.0000000   0.0000000
 AtZNuc=   6.0000000   6.0000000   6.0000000   6.0000000   7.0000000   6.0000000   8.0000000   7.0000000   6.0000000   6.0000000

  Atom        11          12          13          14          15          16          17          18          19          20
 IAtWgt=          16          14          12          19          19          12          19          16          12          19
 AtmWgt=  15.9949146  14.0030740  12.0000000  18.9984033  18.9984033  12.0000000  18.9984033  15.9949146  12.0000000  18.9984033
 NucSpn=           0           2           0           1           1           0           1           0           0           1
 AtZEff=   0.0000000   0.0000000   0.0000000   0.0000000   0.0000000   0.0000000   0.0000000   0.0000000   0.0000000   0.0000000
 NQMom=    0.0000000   2.0440000   0.0000000   0.0000000   0.0000000   0.0000000   0.0000000   0.0000000   0.0000000   0.0000000
 NMagM=    0.0000000   0.4037610   0.0000000   2.6288670   2.6288670   0.0000000   2.6288670   0.0000000   0.0000000   2.6288670
 AtZNuc=   8.0000000   7.0000000   6.0000000   9.0000000   9.0000000   6.0000000   9.0000000   8.0000000   6.0000000   9.0000000

  Atom        21          22          23          24          25          26          27          28          29          30
 IAtWgt=          19          19          12          19          19          19          12          16           1           1
 AtmWgt=  18.9984033  18.9984033  12.0000000  18.9984033  18.9984033  18.9984033  12.0000000  15.9949146   1.0078250   1.0078250
 NucSpn=           1           1           0           1           1           1           0           0           1           1
 AtZEff=   0.0000000   0.0000000   0.0000000   0.0000000   0.0000000   0.0000000   0.0000000   0.0000000   0.0000000   0.0000000
 NQMom=    0.0000000   0.0000000   0.0000000   0.0000000   0.0000000   0.0000000   0.0000000   0.0000000   0.0000000   0.0000000
 NMagM=    2.6288670   2.6288670   0.0000000   2.6288670   2.6288670   2.6288670   0.0000000   0.0000000   2.7928460   2.7928460
 AtZNuc=   9.0000000   9.0000000   6.0000000   9.0000000   9.0000000   9.0000000   6.0000000   8.0000000   1.0000000   1.0000000

  Atom        31          32          33          34          35          36          37          38          39          40
 IAtWgt=           1           1           1           1           1           1           1           1           1           1
 AtmWgt=   1.0078250   1.0078250   1.0078250   1.0078250   1.0078250   1.0078250   1.0078250   1.0078250   1.0078250   1.0078250
 NucSpn=           1           1           1           1           1           1           1           1           1           1
 AtZEff=   0.0000000   0.0000000   0.0000000   0.0000000   0.0000000   0.0000000   0.0000000   0.0000000   0.0000000   0.0000000
 NQMom=    0.0000000   0.0000000   0.0000000   0.0000000   0.0000000   0.0000000   0.0000000   0.0000000   0.0000000   0.0000000
 NMagM=    2.7928460   2.7928460   2.7928460   2.7928460   2.7928460   2.7928460   2.7928460   2.7928460   2.7928460   2.7928460
 AtZNuc=   1.0000000   1.0000000   1.0000000   1.0000000   1.0000000   1.0000000   1.0000000   1.0000000   1.0000000   1.0000000
 Leave Link  101 at Sun Mar  3 17:38:14 2024, MaxMem=  5368709120 cpu:         0.9
 (Enter /home/k0335/k033513/app/g09/l202.exe)
                          Input orientation:                          
 ---------------------------------------------------------------------
 Center     Atomic      Atomic             Coordinates (Angstroms)
 Number     Number       Type             X           Y           Z
 ---------------------------------------------------------------------
      1          6           0       -5.067800   -0.076806   -1.759646
      2          6           0       -4.775369    0.744835   -0.513743
      3          6           0       -3.282797    0.873057   -0.205009
      4          6           0       -2.624779   -0.460782    0.165991
      5          7           0       -1.223521   -0.286739    0.552010
      6          6           0       -0.947400    0.082693    1.850049
      7          8           0       -1.818304    0.136807    2.718732
      8          7           0        0.366446    0.408880    2.104641
      9          6           0        0.710103    0.892877    3.432217
     10          6           0        1.384245    0.192559    1.205389
     11          8           0        2.549680    0.450865    1.495492
     12          7           0        1.050523   -0.336450   -0.008520
     13          6           0        2.051168   -0.489642   -1.058489
     14          9           0        1.597953   -1.463224   -1.915949
     15          9           0        2.048350    0.654043   -1.805755
     16          6           0        3.537259   -0.879778   -0.771031
     17          9           0        4.147765   -1.132797   -1.982550
     18          8           0        4.415719    0.039907   -0.124740
     19          6           0        4.473037    1.295040   -0.751614
     20          9           0        3.382568    2.019145   -0.442001
     21          9           0        5.560596    1.949795   -0.299818
     22          9           0        4.569432    1.178139   -2.086212
     23          6           0        3.508644   -2.216061   -0.026290
     24          9           0        2.892978   -3.188357   -0.739595
     25          9           0        4.761170   -2.665087    0.237672
     26          9           0        2.861028   -2.151486    1.159768
     27          6           0       -0.260276   -0.314644   -0.436990
     28          8           0       -0.576269   -0.299634   -1.626191
     29          1           0       -6.139138   -0.050718   -1.983463
     30          1           0       -4.783774   -1.124564   -1.625421
     31          1           0       -4.530853    0.319740   -2.627113
     32          1           0       -5.297965    0.306208    0.344213
     33          1           0       -5.188154    1.750791   -0.655561
     34          1           0       -2.765951    1.320726   -1.062586
     35          1           0       -3.163485    1.579757    0.625741
     36          1           0       -3.169528   -0.925700    0.996160
     37          1           0       -2.670840   -1.157590   -0.678218
     38          1           0       -0.144428    1.372786    3.917732
     39          1           0        1.531709    1.613776    3.379139
     40          1           0        1.030258    0.037634    4.035787
 ---------------------------------------------------------------------
                    Distance matrix (angstroms):
                    1          2          3          4          5
     1  C    0.000000
     2  C    1.520817   0.000000
     3  C    2.550563   1.529552   0.000000
     4  C    3.134305   2.557457   1.532891   0.000000
     5  N    4.490691   3.849104   2.481697   1.463839   0.000000
     6  C    5.480240   4.547449   3.209676   2.438240   1.377544
     7  O    5.537213   4.422988   3.351875   2.742991   2.286448
     8  N    6.685779   5.779884   4.343607   3.669074   2.328636
     9  C    7.828147   6.758914   5.401209   4.860253   3.664149
    10  C    7.105834   6.418821   4.922762   4.192789   2.730764
    11  O    8.300624   7.601302   6.089970   5.419751   3.958695
    12  N    6.369280   5.946885   4.503241   3.681543   2.342636
    13  C    7.165316   6.958613   5.571047   4.833701   3.654923
    14  F    6.810202   6.889190   5.675143   4.813609   3.928824
    15  F    7.153730   6.945551   5.570591   5.193145   4.141167
    16  C    8.698802   8.473804   7.064416   6.246942   4.976661
    17  F    9.278547   9.236082   7.899136   7.136889   5.999210
    18  O    9.624119   9.226286   7.743883   7.064264   5.689087
    19  C    9.691525   9.267811   7.786514   7.369118   6.054109
    20  F    8.805562   8.257176   6.767331   6.527473   5.246067
    21  F   10.917922  10.408163   8.909206   8.545655   7.193882
    22  F    9.724082   9.486080   8.080192   7.714606   6.531798
    23  C    9.007571   8.810754   7.463127   6.382543   5.142966
    24  F    8.607917   8.621169   7.410875   6.221366   5.199346
    25  F   10.358433  10.155677   8.798854   7.708200   6.447625
    26  F    8.700206   8.336898   6.982626   5.825818   4.531025
    27  C    4.991821   4.638367   3.255777   2.444548   1.380848
    28  O    4.499035   4.467762   3.274180   2.726587   2.272369
    29  H    1.094778   2.157046   3.489261   4.139930   5.536029
    30  H    1.093839   2.174983   2.874194   2.882884   4.256590
    31  H    1.094559   2.169522   2.780358   3.470412   4.627427
    32  H    2.150790   1.096170   2.164224   2.786747   4.122604
    33  H    2.138598   1.096563   2.145647   3.483805   4.618232
    34  H    2.781636   2.161166   1.096802   2.168664   2.751355
    35  H    3.472850   2.143289   1.097181   2.159948   2.693084
    36  H    3.452322   2.765722   2.165909   1.096394   2.095825
    37  H    2.843061   2.841710   2.173004   1.095606   2.089635
    38  H    7.653335   6.440334   5.205390   4.856920   3.904683
    39  H    8.533387   7.462494   6.047665   5.648407   4.381314
    40  H    8.413468   7.409700   6.106122   5.346310   4.161903
                    6          7          8          9         10
     6  C    0.000000
     7  O    1.231264   0.000000
     8  N    1.377464   2.285665   0.000000
     9  C    2.430426   2.733778   1.454239   0.000000
    10  C    2.421616   3.542546   1.375269   2.429748   0.000000
    11  O    3.534237   4.546893   2.267010   2.707457   1.228463
    12  N    2.760735   3.986483   2.342846   3.669578   1.365575
    13  C    4.216464   5.443588   3.694729   4.886333   2.456690
    14  F    4.801190   5.975883   4.602882   5.911207   3.539780
    15  F    4.760868   5.974071   4.263813   5.411497   3.117850
    16  C    5.282857   6.472553   4.470367   5.366788   3.113135
    17  F    6.490527   7.701164   5.777566   6.726112   4.422281
    18  O    5.715301   6.852574   4.637121   5.206831   3.313967
    19  C    6.133480   7.277759   5.080114   5.641440   3.819157
    20  F    5.268013   6.370439   4.263254   4.839433   3.169165
    21  F    7.103662   8.175985   5.927481   6.210672   4.774456
    22  F    6.865099   8.060709   5.984990   6.740093   4.685234
    23  C    5.353620   6.437974   4.615690   5.427578   3.439703
    24  F    5.670496   6.724055   5.235757   6.231006   4.182085
    25  F    6.537417   7.569395   5.678771   6.267006   4.528382
    26  F    4.469023   5.437169   3.697458   4.365621   2.770833
    27  C    2.420860   3.548217   2.715908   4.167794   2.378889
    28  O    3.516839   4.539988   3.912775   5.353908   3.479039
    29  H    6.455057   6.388694   7.697171   8.782486   8.174916
    30  H    5.315461   5.408949   6.541374   7.735144   6.913231
    31  H    5.739539   5.997453   6.810358   8.031910   7.049300
    32  H    4.609221   4.216050   5.932554   6.780622   6.738432
    33  H    5.200445   5.034549   6.346103   7.227405   7.006258
    34  H    3.650109   4.074072   4.546944   5.698180   4.862160
    35  H    2.941286   2.876148   4.002313   4.832473   4.789797
    36  H    2.585312   2.433512   3.938648   4.928806   4.693733
    37  H    3.301618   3.733839   4.407180   5.703584   4.670609
    38  H    2.566012   2.401480   2.115988   1.093737   3.329652
    39  H    3.290640   3.720237   2.105696   1.094326   2.601306
    40  H    2.947984   3.139869   2.075523   1.094640   2.856652
                   11         12         13         14         15
    11  O    0.000000
    12  N    2.264815   0.000000
    13  C    2.766927   1.458490   0.000000
    14  F    4.025848   2.282013   1.374228   0.000000
    15  F    3.345272   2.281839   1.366173   2.167445   0.000000
    16  C    2.807677   2.657157   1.563107   2.326404   2.374892
    17  F    4.142299   3.758174   2.379760   2.571995   2.762535
    18  O    2.505222   3.388170   2.596808   3.661644   2.967728
    19  C    3.075942   3.863619   3.024022   4.150880   2.720514
    20  F    2.628133   3.342928   2.906320   4.181419   2.345947
    21  F    3.812551   5.064833   4.340797   5.473858   4.035182
    22  F    4.175755   4.358154   3.190511   3.979381   2.590210
    23  C    3.216819   3.094449   2.483987   2.790755   3.679192
    24  F    4.284554   3.473109   2.844890   2.457027   4.076044
    25  F    4.022680   4.387717   3.709003   4.011047   4.748854
    26  F    2.642325   2.817300   2.887605   3.395453   4.162423
    27  C    3.495189   1.379223   2.399929   2.638100   2.853353
    28  O    4.481039   2.294486   2.694775   2.482971   2.798279
    29  H    9.372848   7.461452   8.254050   7.865260   8.219685
    30  H    8.124138   6.105286   6.887741   6.397307   7.062144
    31  H    8.194328   6.199949   6.814593   6.422381   6.638697
    32  H    7.932963   6.390675   7.524009   7.469465   7.662356
    33  H    8.135780   6.610320   7.588786   7.613785   7.408967
    34  H    5.962915   4.292174   5.146075   5.246167   4.916733
    35  H    5.888219   4.672473   5.857615   6.196064   5.825147
    36  H    5.903694   4.377834   5.627379   5.612324   6.129647
    37  H    5.879283   3.869278   4.784153   4.455108   5.179200
    38  H    3.738369   4.445768   5.749092   6.716448   6.171156
    39  H    2.436545   3.938420   4.938294   6.124563   5.298220
    40  H    2.988729   4.061621   5.222253   6.164253   5.961550
                   16         17         18         19         20
    16  C    0.000000
    17  F    1.380041   0.000000
    18  O    1.426606   2.213254   0.000000
    19  C    2.367676   2.741423   1.404142   0.000000
    20  F    2.921634   3.590760   2.255092   1.345106   0.000000
    21  F    3.510330   3.785505   2.233622   1.347445   2.183765
    22  F    2.651434   2.351377   2.273009   1.343171   2.195306
    23  C    1.530069   2.325702   2.433489   3.712678   4.257427
    24  F    2.397003   2.710121   3.621944   4.753691   5.238925
    25  F    2.388047   2.766508   2.750940   4.091982   4.929962
    26  F    2.408841   3.545079   2.978125   4.257992   4.497981
    27  C    3.853859   4.742252   4.699802   5.009423   4.326304
    28  O    4.241342   4.810161   5.223944   5.366876   4.738294
    29  H    9.787236  10.343658  10.717652  10.767858   9.865258
    30  H    8.368363   8.938680   9.393546   9.607631   8.830206
    31  H    8.365304   8.822910   9.294156   9.248716   8.383610
    32  H    8.983959   9.833940   9.728643   9.881857   8.882789
    33  H    9.114058   9.860799   9.769507   9.672412   8.577581
    34  H    6.682640   7.393617   7.355028   7.245710   6.219100
    35  H    7.273256   8.222865   7.770373   7.764962   6.647100
    36  H    6.935854   7.903061   7.728181   8.148325   7.326007
    37  H    6.215005   6.942281   7.208305   7.553526   6.840409
    38  H    6.372861   7.714544   6.238036   6.567330   5.644887
    39  H    5.240606   6.567733   4.803306   5.080957   4.265104
    40  H    5.498381   6.878164   5.363892   6.029345   5.432341
                   21         22         23         24         25
    21  F    0.000000
    22  F    2.183818   0.000000
    23  C    4.651847   4.109640   0.000000
    24  F    5.806048   4.867254   1.353960   0.000000
    25  F    4.714352   4.495285   1.356511   2.172327   0.000000
    26  F    5.122359   4.953931   1.352889   2.164186   2.173611
    27  C    6.247324   5.317369   4.241323   4.277009   5.585219
    28  O    6.669356   5.373423   4.787368   4.600701   6.128426
    29  H   11.988348  10.779338  10.079630   9.642153  11.427383
    30  H   10.872667   9.643507   8.515444   7.998528   9.846333
    31  H   10.483832   9.156670   8.822022   8.425125  10.171425
    32  H   11.001114  10.199645   9.168177   8.970963  10.489335
    33  H   10.756476   9.878521   9.579467   9.471375  10.921854
    34  H    8.385042   7.407833   7.276903   7.242902   8.615969
    35  H    8.780841   8.204510   7.703940   7.828141   8.998303
    36  H    9.282408   8.591778   6.878111   6.699734   8.154553
    37  H    8.806564   7.736900   6.303284   5.923162   7.638467
    38  H    7.118143   7.635817   6.463750   7.191700   7.342489
    39  H    5.466220   6.267982   5.492984   6.471283   6.213445
    40  H    6.555745   7.162777   5.265169   6.056486   5.970769
                   26         27         28         29         30
    26  F    0.000000
    27  C    3.958050   0.000000
    28  O    4.796450   1.230559   0.000000
    29  H    9.761973   6.084592   5.579885   0.000000
    30  H    8.200905   4.746617   4.287611   1.765885   0.000000
    31  H    8.665295   4.841168   4.126040   1.771470   1.775773
    32  H    8.560056   5.135567   5.152082   2.500609   2.488164
    33  H    9.127569   5.347689   5.139635   2.431693   3.061343
    34  H    6.975529   3.056830   2.781712   3.755964   3.219912
    35  H    7.106484   3.625848   3.911137   4.280293   3.873812
    36  H    6.156048   3.300160   3.740812   4.296781   3.085129
    37  H    5.913340   2.565067   2.453970   3.867547   2.315766
    38  H    5.390698   4.671664   5.806768   8.531531   7.647669
    39  H    4.568358   4.636039   5.758302   9.506310   8.510549
    40  H    4.051599   4.668545   5.895140   9.361593   8.197740
                   31         32         33         34         35
    31  H    0.000000
    32  H    3.068782   0.000000
    33  H    2.523285   1.760235   0.000000
    34  H    2.562147   3.069108   2.493530   0.000000
    35  H    3.746785   2.501438   2.402139   1.753733   0.000000
    36  H    4.066010   2.544185   3.737196   3.073717   2.532698
    37  H    3.072514   3.176453   3.846565   2.509748   3.071820
    38  H    7.948876   6.361334   6.818876   5.628380   4.471549
    39  H    8.631584   7.587157   7.839269   6.187462   5.443088
    40  H    8.683304   7.331184   7.975732   6.484669   5.620857
                   36         37         38         39         40
    36  H    0.000000
    37  H    1.762386   0.000000
    38  H    4.792687   5.823085   0.000000
    39  H    5.850569   6.465604   1.776962   0.000000
    40  H    5.273097   6.111344   1.782261   1.779568   0.000000
 Symmetry turned off by external request.
 Stoichiometry    C12H12F9N3O4(1+,2)
 Framework group  C1[X(C12H12F9N3O4)]
 Deg. of freedom   114
 Full point group                 C1      NOp   1
 Rotational constants (GHZ):      0.3032139      0.1145074      0.1112829
 Leave Link  202 at Sun Mar  3 17:38:14 2024, MaxMem=  5368709120 cpu:         0.1
 (Enter /home/k0335/k033513/app/g09/l301.exe)
 Standard basis: 6-31G(d,p) (6D, 7F)
 Ernie: Thresh=  0.10000D-02 Tol=  0.10000D-05 Strict=F.
   480 basis functions,   868 primitive gaussians,   480 cartesian basis functions
   109 alpha electrons      108 beta electrons
       nuclear repulsion energy      3329.0125898275 Hartrees.
 IExCor=20419 DFT=T Ex+Corr=CAM-B3LYP ExCW=0 ScaHFX=  1.000000
 ScaDFX=  1.000000  1.000000  1.000000  0.810000 ScalE2=  1.000000  1.000000
 IRadAn=      0 IRanWt=     -1 IRanGd=            0 ICorTp=0 IEmpDi=  4
  HFx wShort=  0.000000 wLong=  0.330000 cFull=  0.190000 cShort=  0.000000 cLong=  0.460000
  DFx wShort=  0.000000 wLong=  0.330000 cFull=  0.190000 cShort=  0.000000 cLong=  0.460000
 NAtoms=   40 NActive=   40 NUniq=   40 SFac= 1.00D+00 NAtFMM=   60 NAOKFM=F Big=F
 Integral buffers will be    131072 words long.
 Raffenetti 2 integral format.
 Two-electron integral symmetry is turned off.
 Using the following non-standard input for PCM:
 eps=4.9
 --- end of non-standard input.
 ------------------------------------------------------------------------------
 Polarizable Continuum Model (PCM)
 =================================
 Model                : PCM (using non-symmetric T matrix).
 Atomic radii         : UFF (Universal Force Field).
 Polarization charges : Total charges.
 Charge compensation  : None.
 Solution method      : On-the-fly selection.
 Cavity type          : Scaled VdW (van der Waals Surface) (Alpha=1.100).
 Cavity algorithm     : GePol (No added spheres)
                        Default sphere list used, NSphG=   40.
                        Lebedev-Laikov grids with approx.  5.0 points / Ang**2.
                        Smoothing algorithm: Karplus/York (Gamma=1.0000).
                        Polarization charges: spherical gaussians, with
                                              point-specific exponents (IZeta= 3).
                        Self-potential: point-specific (ISelfS= 7).
                        Self-field    : sphere-specific E.n sum rule (ISelfD= 2).
 Solvent              : Generic,
                        Eps                           =   4.900000
                        Eps(infinity)                 =   0.000000
                        RSolv                         =   0.000000 Ang.
                        Molar volume                  =   0.000000 cm**3/mol
                        Thermal expansion coefficient =   0.000000 K**-1
                        Absolute temperature          = 298.150000 K
                        Numeral density               =   0.000000 Ang**-3
                        Hydrogen bond acidity         =   0.000000
                        Hydrogen bond basicity        =   0.000000
                        Surface tension at interface  =   0.000000 (cal/mol)*Ang**-2
                        Carbon aromaticity            =   0.000000
                        Electronegative halogenicity  =   0.000000
 ------------------------------------------------------------------------------
 GePol: Number of generator spheres                  =      40
 GePol: Total number of spheres                      =      40
 GePol: Number of exposed spheres                    =      40 (100.00%)
 GePol: Number of points                             =    3080
 GePol: Average weight of points                     =       0.13
 GePol: Minimum weight of points                     =   0.90D-10
 GePol: Maximum weight of points                     =    0.20577
 GePol: Number of points with low weight             =     167
 GePol: Fraction of low-weight points (<1% of avg)   =       5.42%
 GePol: Cavity surface area                          =    387.939 Ang**2
 GePol: Cavity volume                                =    436.211 Ang**3
 Leave Link  301 at Sun Mar  3 17:38:14 2024, MaxMem=  5368709120 cpu:         0.8
 (Enter /home/k0335/k033513/app/g09/l302.exe)
 NPDir=0 NMtPBC=     1 NCelOv=     1 NCel=       1 NClECP=     1 NCelD=      1
         NCelK=      1 NCelE2=     1 NClLst=     1 CellRange=     0.0.
 One-electron integrals computed using PRISM.
 NBasis=   480 RedAO= T EigKep=  1.21D-03  NBF=   480
 NBsUse=   480 1.00D-06 EigRej= -1.00D+00 NBFU=   480
 Precomputing XC quadrature grid using
 IXCGrd= 4 IRadAn=           0 IRanWt=          -1 IRanGd=           0 AccXCQ= 0.00D+00.
 Generated NRdTot=       0 NPtTot=           0 NUsed=           0 NTot=          32
 NSgBfM=   468   472   472   472   472 MxSgAt=    40 MxSgA2=    40.
 Leave Link  302 at Sun Mar  3 17:38:14 2024, MaxMem=  5368709120 cpu:         9.0
 (Enter /home/k0335/k033513/app/g09/l303.exe)
 DipDrv:  MaxL=1.
 Leave Link  303 at Sun Mar  3 17:38:14 2024, MaxMem=  5368709120 cpu:         0.7
 (Enter /home/k0335/k033513/app/g09/l401.exe)
 ExpMin= 1.61D-01 ExpMax= 7.00D+03 ExpMxC= 1.05D+03 IAcc=1 IRadAn=         1 AccDes= 0.00D+00
 Harris functional with IExCor=20419 and IRadAn=       1 diagonalized for initial guess.
 HarFok:  IExCor=20419 AccDes= 0.00D+00 IRadAn=         1 IDoV= 1 UseB2=F ITyADJ=14
 ICtDFT=  3500011 ScaDFX=  1.000000  1.000000  1.000000  1.000000
 FoFCou: FMM=F IPFlag=           0 FMFlag=      100000 FMFlg1=           0
         NFxFlg=           0 DoJE=T BraDBF=F KetDBF=T FulRan=T
         wScrn=  0.000000 ICntrl=     500 IOpCl=  0 I1Cent=   200000004 NGrid=           0
         NMat0=    1 NMatS0=      1 NMatT0=    0 NMatD0=    1 NMtDS0=    0 NMtDT0=    0
 Symmetry not used in FoFCou.
 Harris En= -1769.54813841136    
 JPrj=0 DoOrth=F DoCkMO=F.
 Initial guess <Sx>= 0.0000 <Sy>= 0.0000 <Sz>= 0.5000 <S**2>= 0.7500 S= 0.5000
 Leave Link  401 at Sun Mar  3 17:38:15 2024, MaxMem=  5368709120 cpu:        10.2
 (Enter /home/k0335/k033513/app/g09/l502.exe)
 UHF open shell SCF:
 Using DIIS extrapolation, IDIIS=  1040.
 Two-electron integral symmetry not used.
 IVT=      724230 IEndB=      724230 NGot=  5368709120 MDV=  5368232411
 LenX=  5368232411 LenY=  5368001531
 Requested convergence on RMS density matrix=1.00D-08 within 128 cycles.
 Requested convergence on MAX density matrix=1.00D-06.
 Requested convergence on             energy=1.00D-06.
 No special actions if energy rises.
 Fock matrices will be formed incrementally for  20 cycles.

 Cycle   1  Pass 1  IDiag  1:
 FoFJK:  IHMeth= 1 ICntrl=       0 DoSepK=T KAlg= 0 I1Cent=   0 FoldK=F
 IRaf=         1 NMat=   1 IRICut=       1 DoRegI=T DoRafI=F ISym2E= 0.
 FoFCou: FMM=F IPFlag=           0 FMFlag=      100000 FMFlg1=           0
         NFxFlg=           0 DoJE=T BraDBF=F KetDBF=F FulRan=T
         wScrn=  0.000000 ICntrl=     500 IOpCl=  0 I1Cent=           0 NGrid=           0
         NMat0=    1 NMatS0=      1 NMatT0=    0 NMatD0=    1 NMtDS0=    0 NMtDT0=    0
 Symmetry not used in FoFCou.
 Inv3:  Mode=1 IEnd=    28459200.
 Iteration    1 A*A^-1 deviation from unit magnitude is 7.11D-15 for   3069.
 Iteration    1 A*A^-1 deviation from orthogonality  is 6.50D-15 for   3069    504.
 Iteration    1 A^-1*A deviation from unit magnitude is 6.88D-15 for   3069.
 Iteration    1 A^-1*A deviation from orthogonality  is 8.31D-14 for   3027   3020.
 E= -1826.56280785138    
 DIIS: error= 5.23D-02 at cycle   1 NSaved=   1.
 NSaved= 1 IEnMin= 1 EnMin= -1826.56280785138     IErMin= 1 ErrMin= 5.23D-02
 ErrMax= 5.23D-02  0.00D+00 EMaxC= 1.00D-01 BMatC= 6.71D+00 BMatP= 6.71D+00
 IDIUse=3 WtCom= 4.77D-01 WtEn= 5.23D-01
 Coeff-Com:  0.100D+01
 Coeff-En:   0.100D+01
 Coeff:      0.100D+01
 Gap=     0.532 Goal=   None    Shift=    0.000
 Gap=    -0.005 Goal=   None    Shift=    0.000
 GapD=   -0.005 DampG=0.250 DampE=0.500 DampFc=0.2500 IDamp=-1.
 Damping current iteration by 2.50D-01
 RMSDP=3.78D-03 MaxDP=1.44D-01              OVMax= 6.28D-01

 Cycle   2  Pass 1  IDiag  1:
 RMSU=  9.44D-04    CP:  1.00D+00
 E= -1826.82377601409     Delta-E=       -0.260968162714 Rises=F Damp=T
 DIIS: error= 4.12D-02 at cycle   2 NSaved=   2.
 NSaved= 2 IEnMin= 2 EnMin= -1826.82377601409     IErMin= 2 ErrMin= 4.12D-02
 ErrMax= 4.12D-02  0.00D+00 EMaxC= 1.00D-01 BMatC= 2.74D+00 BMatP= 6.71D+00
 IDIUse=3 WtCom= 5.88D-01 WtEn= 4.12D-01
 Coeff-Com: -0.139D+01 0.239D+01
 Coeff-En:   0.000D+00 0.100D+01
 Coeff:     -0.816D+00 0.182D+01
 Gap=     0.484 Goal=   None    Shift=    0.000
 Gap=     0.062 Goal=   None    Shift=    0.000
 RMSDP=2.02D-03 MaxDP=7.95D-02 DE=-2.61D-01 OVMax= 8.26D-01

 Cycle   3  Pass 1  IDiag  1:
 RMSU=  1.51D-03    CP:  1.00D+00  2.42D+00
 E= -1827.28381494154     Delta-E=       -0.460038927445 Rises=F Damp=F
 DIIS: error= 6.23D-03 at cycle   3 NSaved=   3.
 NSaved= 3 IEnMin= 3 EnMin= -1827.28381494154     IErMin= 3 ErrMin= 6.23D-03
 ErrMax= 6.23D-03  0.00D+00 EMaxC= 1.00D-01 BMatC= 3.07D-01 BMatP= 2.74D+00
 IDIUse=3 WtCom= 9.38D-01 WtEn= 6.23D-02
 Coeff-Com: -0.474D+00 0.829D+00 0.645D+00
 Coeff-En:   0.000D+00 0.000D+00 0.100D+01
 Coeff:     -0.445D+00 0.777D+00 0.667D+00
 Gap=     0.380 Goal=   None    Shift=    0.000
 Gap=     0.074 Goal=   None    Shift=    0.000
 RMSDP=7.62D-04 MaxDP=4.93D-02 DE=-4.60D-01 OVMax= 1.14D-01

 Cycle   4  Pass 1  IDiag  1:
 RMSU=  7.27D-04    CP:  1.00D+00  2.47D+00  8.52D-01
 E= -1827.34105687992     Delta-E=       -0.057241938380 Rises=F Damp=F
 DIIS: error= 3.17D-03 at cycle   4 NSaved=   4.
 NSaved= 4 IEnMin= 4 EnMin= -1827.34105687992     IErMin= 4 ErrMin= 3.17D-03
 ErrMax= 3.17D-03  0.00D+00 EMaxC= 1.00D-01 BMatC= 7.22D-02 BMatP= 3.07D-01
 IDIUse=3 WtCom= 9.68D-01 WtEn= 3.17D-02
 Coeff-Com: -0.916D-01 0.147D+00 0.310D+00 0.635D+00
 Coeff-En:   0.000D+00 0.000D+00 0.669D-01 0.933D+00
 Coeff:     -0.887D-01 0.143D+00 0.302D+00 0.644D+00
 Gap=     0.371 Goal=   None    Shift=    0.000
 Gap=     0.104 Goal=   None    Shift=    0.000
 RMSDP=4.02D-04 MaxDP=4.05D-02 DE=-5.72D-02 OVMax= 9.92D-02

 Cycle   5  Pass 1  IDiag  1:
 RMSU=  3.42D-04    CP:  9.99D-01  2.51D+00  9.23D-01  7.55D-01
 E= -1827.35561141810     Delta-E=       -0.014554538184 Rises=F Damp=F
 DIIS: error= 2.03D-03 at cycle   5 NSaved=   5.
 NSaved= 5 IEnMin= 5 EnMin= -1827.35561141810     IErMin= 5 ErrMin= 2.03D-03
 ErrMax= 2.03D-03  0.00D+00 EMaxC= 1.00D-01 BMatC= 2.20D-02 BMatP= 7.22D-02
 IDIUse=3 WtCom= 9.80D-01 WtEn= 2.03D-02
 Coeff-Com: -0.356D-01 0.497D-01 0.110D+00 0.395D+00 0.481D+00
 Coeff-En:   0.000D+00 0.000D+00 0.000D+00 0.557D-01 0.944D+00
 Coeff:     -0.349D-01 0.487D-01 0.108D+00 0.388D+00 0.490D+00
 Gap=     0.349 Goal=   None    Shift=    0.000
 Gap=     0.116 Goal=   None    Shift=    0.000
 RMSDP=1.47D-04 MaxDP=1.16D-02 DE=-1.46D-02 OVMax= 3.28D-02

 Cycle   6  Pass 1  IDiag  1:
 RMSU=  1.29D-04    CP:  1.00D+00  2.54D+00  9.17D-01  8.38D-01  9.31D-01
 E= -1827.36075082261     Delta-E=       -0.005139404512 Rises=F Damp=F
 DIIS: error= 7.78D-04 at cycle   6 NSaved=   6.
 NSaved= 6 IEnMin= 6 EnMin= -1827.36075082261     IErMin= 6 ErrMin= 7.78D-04
 ErrMax= 7.78D-04  0.00D+00 EMaxC= 1.00D-01 BMatC= 1.33D-03 BMatP= 2.20D-02
 IDIUse=3 WtCom= 9.92D-01 WtEn= 7.78D-03
 Coeff-Com:  0.151D-02-0.330D-02-0.229D-01 0.401D-01 0.955D-01 0.889D+00
 Coeff-En:   0.000D+00 0.000D+00 0.000D+00 0.000D+00 0.000D+00 0.100D+01
 Coeff:      0.150D-02-0.328D-02-0.227D-01 0.397D-01 0.947D-01 0.890D+00
 Gap=     0.350 Goal=   None    Shift=    0.000
 Gap=     0.119 Goal=   None    Shift=    0.000
 RMSDP=1.20D-04 MaxDP=9.40D-03 DE=-5.14D-03 OVMax= 2.92D-02

 Cycle   7  Pass 1  IDiag  1:
 RMSU=  6.01D-05    CP:  9.99D-01  2.56D+00  9.12D-01  8.66D-01  1.18D+00
                    CP:  1.42D+00
 E= -1827.36227023388     Delta-E=       -0.001519411266 Rises=F Damp=F
 DIIS: error= 5.60D-04 at cycle   7 NSaved=   7.
 NSaved= 7 IEnMin= 7 EnMin= -1827.36227023388     IErMin= 7 ErrMin= 5.60D-04
 ErrMax= 5.60D-04  0.00D+00 EMaxC= 1.00D-01 BMatC= 8.13D-04 BMatP= 1.33D-03
 IDIUse=3 WtCom= 9.94D-01 WtEn= 5.60D-03
 Coeff-Com:  0.986D-02-0.138D-01-0.425D-01-0.724D-01-0.115D+00 0.510D+00
 Coeff-Com:  0.724D+00
 Coeff-En:   0.000D+00 0.000D+00 0.000D+00 0.000D+00 0.000D+00 0.000D+00
 Coeff-En:   0.100D+01
 Coeff:      0.981D-02-0.137D-01-0.423D-01-0.720D-01-0.114D+00 0.507D+00
 Coeff:      0.725D+00
 Gap=     0.351 Goal=   None    Shift=    0.000
 Gap=     0.123 Goal=   None    Shift=    0.000
 RMSDP=9.39D-05 MaxDP=1.14D-02 DE=-1.52D-03 OVMax= 3.37D-02

 Cycle   8  Pass 1  IDiag  1:
 RMSU=  4.75D-05    CP:  9.99D-01  2.57D+00  9.05D-01  8.74D-01  1.33D+00
                    CP:  1.86D+00  1.40D+00
 E= -1827.36319805144     Delta-E=       -0.000927817561 Rises=F Damp=F
 DIIS: error= 4.96D-04 at cycle   8 NSaved=   8.
 NSaved= 8 IEnMin= 8 EnMin= -1827.36319805144     IErMin= 8 ErrMin= 4.96D-04
 ErrMax= 4.96D-04  0.00D+00 EMaxC= 1.00D-01 BMatC= 4.63D-04 BMatP= 8.13D-04
 IDIUse=3 WtCom= 9.95D-01 WtEn= 4.96D-03
 Coeff-Com: -0.237D-02 0.447D-02-0.583D-02-0.179D-01-0.957D-01-0.350D-01
 Coeff-Com:  0.463D+00 0.690D+00
 Coeff-En:   0.000D+00 0.000D+00 0.000D+00 0.000D+00 0.000D+00 0.000D+00
 Coeff-En:   0.000D+00 0.100D+01
 Coeff:     -0.236D-02 0.445D-02-0.580D-02-0.178D-01-0.952D-01-0.349D-01
 Coeff:      0.460D+00 0.691D+00
 Gap=     0.352 Goal=   None    Shift=    0.000
 Gap=     0.124 Goal=   None    Shift=    0.000
 RMSDP=6.52D-05 MaxDP=7.00D-03 DE=-9.28D-04 OVMax= 2.00D-02

 Cycle   9  Pass 1  IDiag  1:
 RMSU=  2.15D-05    CP:  9.99D-01  2.58D+00  8.98D-01  8.63D-01  1.40D+00
                    CP:  2.08D+00  2.02D+00  1.56D+00
 E= -1827.36376333158     Delta-E=       -0.000565280140 Rises=F Damp=F
 DIIS: error= 5.20D-04 at cycle   9 NSaved=   9.
 NSaved= 9 IEnMin= 9 EnMin= -1827.36376333158     IErMin= 8 ErrMin= 4.96D-04
 ErrMax= 5.20D-04  0.00D+00 EMaxC= 1.00D-01 BMatC= 2.26D-04 BMatP= 4.63D-04
 IDIUse=3 WtCom= 9.95D-01 WtEn= 4.96D-03
 Coeff-Com: -0.579D-02 0.815D-02 0.142D-01 0.347D-01-0.307D-01-0.247D+00
 Coeff-Com:  0.861D-01 0.174D+00 0.967D+00
 Coeff-En:   0.000D+00 0.000D+00 0.000D+00 0.000D+00 0.000D+00 0.000D+00
 Coeff-En:   0.000D+00 0.000D+00 0.100D+01
 Coeff:     -0.576D-02 0.811D-02 0.141D-01 0.345D-01-0.306D-01-0.246D+00
 Coeff:      0.856D-01 0.173D+00 0.967D+00
 Gap=     0.352 Goal=   None    Shift=    0.000
 Gap=     0.125 Goal=   None    Shift=    0.000
 RMSDP=7.91D-05 MaxDP=8.72D-03 DE=-5.65D-04 OVMax= 2.86D-02

 Cycle  10  Pass 1  IDiag  1:
 RMSU=  1.72D-05    CP:  9.99D-01  2.58D+00  8.89D-01  8.54D-01  1.47D+00
                    CP:  2.29D+00  2.72D+00  2.53D+00  1.98D+00
 E= -1827.36434811339     Delta-E=       -0.000584781811 Rises=F Damp=F
 DIIS: error= 4.80D-04 at cycle  10 NSaved=  10.
 NSaved=10 IEnMin=10 EnMin= -1827.36434811339     IErMin=10 ErrMin= 4.80D-04
 ErrMax= 4.80D-04  0.00D+00 EMaxC= 1.00D-01 BMatC= 1.82D-04 BMatP= 2.26D-04
 IDIUse=3 WtCom= 9.95D-01 WtEn= 4.80D-03
 Coeff-Com: -0.394D-02 0.521D-02 0.391D-02 0.315D-01 0.372D-02-0.275D-01
 Coeff-Com: -0.165D-02-0.533D+00 0.127D+00 0.139D+01
 Coeff-En:   0.000D+00 0.000D+00 0.000D+00 0.000D+00 0.000D+00 0.000D+00
 Coeff-En:   0.000D+00 0.000D+00 0.000D+00 0.100D+01
 Coeff:     -0.392D-02 0.518D-02 0.389D-02 0.313D-01 0.370D-02-0.273D-01
 Coeff:     -0.164D-02-0.530D+00 0.126D+00 0.139D+01
 Gap=     0.352 Goal=   None    Shift=    0.000
 Gap=     0.127 Goal=   None    Shift=    0.000
 RMSDP=1.06D-04 MaxDP=1.18D-02 DE=-5.85D-04 OVMax= 4.12D-02

 Cycle  11  Pass 1  IDiag  1:
 RMSU=  5.99D-05    CP:  9.99D-01  2.59D+00  8.74D-01  8.37D-01  1.54D+00
                    CP:  2.48D+00  3.00D+00  3.00D+00  3.00D+00  2.49D+00
 E= -1827.36503144116     Delta-E=       -0.000683327767 Rises=F Damp=F
 DIIS: error= 4.08D-04 at cycle  11 NSaved=  11.
 NSaved=11 IEnMin=11 EnMin= -1827.36503144116     IErMin=11 ErrMin= 4.08D-04
 ErrMax= 4.08D-04  0.00D+00 EMaxC= 1.00D-01 BMatC= 1.35D-04 BMatP= 1.82D-04
 IDIUse=3 WtCom= 9.96D-01 WtEn= 4.08D-03
 Coeff-Com:  0.968D-03-0.147D-02-0.114D-01 0.216D-03 0.440D-02 0.206D+00
 Coeff-Com:  0.821D-01-0.707D+00-0.809D+00 0.112D+01 0.112D+01
 Coeff-En:   0.000D+00 0.000D+00 0.000D+00 0.000D+00 0.000D+00 0.000D+00
 Coeff-En:   0.000D+00 0.000D+00 0.000D+00 0.000D+00 0.100D+01
 Coeff:      0.964D-03-0.146D-02-0.113D-01 0.215D-03 0.438D-02 0.205D+00
 Coeff:      0.818D-01-0.704D+00-0.806D+00 0.111D+01 0.112D+01
 Gap=     0.351 Goal=   None    Shift=    0.000
 Gap=     0.129 Goal=   None    Shift=    0.000
 RMSDP=1.35D-04 MaxDP=1.35D-02 DE=-6.83D-04 OVMax= 5.65D-02

 Cycle  12  Pass 1  IDiag  1:
 RMSU=  4.37D-05    CP:  9.99D-01  2.60D+00  8.52D-01  8.14D-01  1.61D+00
                    CP:  2.68D+00  3.00D+00  3.00D+00  3.00D+00  3.00D+00
                    CP:  2.89D+00
 E= -1827.36572866007     Delta-E=       -0.000697218916 Rises=F Damp=F
 DIIS: error= 3.10D-04 at cycle  12 NSaved=  12.
 NSaved=12 IEnMin=12 EnMin= -1827.36572866007     IErMin=12 ErrMin= 3.10D-04
 ErrMax= 3.10D-04  0.00D+00 EMaxC= 1.00D-01 BMatC= 4.67D-05 BMatP= 1.35D-04
 IDIUse=3 WtCom= 9.97D-01 WtEn= 3.10D-03
 Coeff-Com:  0.248D-02-0.327D-02-0.473D-02-0.963D-02-0.975D-03 0.916D-01
 Coeff-Com:  0.106D+00-0.207D-01-0.355D+00-0.243D+00 0.242D+00 0.120D+01
 Coeff-En:   0.000D+00 0.000D+00 0.000D+00 0.000D+00 0.000D+00 0.000D+00
 Coeff-En:   0.000D+00 0.000D+00 0.000D+00 0.000D+00 0.000D+00 0.100D+01
 Coeff:      0.247D-02-0.326D-02-0.471D-02-0.960D-02-0.972D-03 0.913D-01
 Coeff:      0.105D+00-0.207D-01-0.354D+00-0.242D+00 0.241D+00 0.120D+01
 Gap=     0.349 Goal=   None    Shift=    0.000
 Gap=     0.129 Goal=   None    Shift=    0.000
 RMSDP=9.06D-05 MaxDP=8.41D-03 DE=-6.97D-04 OVMax= 3.98D-02

 Cycle  13  Pass 1  IDiag  1:
 RMSU=  6.74D-05    CP:  9.99D-01  2.61D+00  8.34D-01  7.94D-01  1.64D+00
                    CP:  2.75D+00  3.00D+00  3.00D+00  3.00D+00  3.00D+00
                    CP:  3.00D+00  1.92D+00
 E= -1827.36608861892     Delta-E=       -0.000359958849 Rises=F Damp=F
 DIIS: error= 2.33D-04 at cycle  13 NSaved=  13.
 NSaved=13 IEnMin=13 EnMin= -1827.36608861892     IErMin=13 ErrMin= 2.33D-04
 ErrMax= 2.33D-04  0.00D+00 EMaxC= 1.00D-01 BMatC= 4.22D-05 BMatP= 4.67D-05
 IDIUse=3 WtCom= 9.98D-01 WtEn= 2.33D-03
 Coeff-Com: -0.270D-04 0.307D-03 0.795D-02 0.243D-02 0.102D-02-0.105D+00
 Coeff-Com:  0.475D-01 0.326D+00 0.440D+00-0.729D+00-0.808D+00 0.770D+00
 Coeff-Com:  0.105D+01
 Coeff-En:   0.000D+00 0.000D+00 0.000D+00 0.000D+00 0.000D+00 0.000D+00
 Coeff-En:   0.000D+00 0.000D+00 0.000D+00 0.000D+00 0.000D+00 0.000D+00
 Coeff-En:   0.100D+01
 Coeff:     -0.270D-04 0.306D-03 0.794D-02 0.243D-02 0.102D-02-0.105D+00
 Coeff:      0.473D-01 0.325D+00 0.439D+00-0.728D+00-0.806D+00 0.768D+00
 Coeff:      0.105D+01
 Gap=     0.348 Goal=   None    Shift=    0.000
 Gap=     0.129 Goal=   None    Shift=    0.000
 RMSDP=7.80D-05 MaxDP=6.69D-03 DE=-3.60D-04 OVMax= 3.46D-02

 Cycle  14  Pass 1  IDiag  1:
 RMSU=  1.20D-05    CP:  9.99D-01  2.61D+00  8.18D-01  7.75D-01  1.67D+00
                    CP:  2.79D+00  3.00D+00  3.00D+00  3.00D+00  3.00D+00
                    CP:  3.00D+00  2.77D+00  1.90D+00
 E= -1827.36633271334     Delta-E=       -0.000244094421 Rises=F Damp=F
 DIIS: error= 1.71D-04 at cycle  14 NSaved=  14.
 NSaved=14 IEnMin=14 EnMin= -1827.36633271334     IErMin=14 ErrMin= 1.71D-04
 ErrMax= 1.71D-04  0.00D+00 EMaxC= 1.00D-01 BMatC= 3.00D-05 BMatP= 4.22D-05
 IDIUse=3 WtCom= 9.98D-01 WtEn= 1.71D-03
 Coeff-Com: -0.122D-02 0.168D-02 0.733D-02 0.130D-01 0.867D-03-0.117D+00
 Coeff-Com:  0.233D-01-0.326D-01 0.496D+00-0.992D-01-0.704D+00-0.233D+00
 Coeff-Com:  0.112D+00 0.153D+01
 Coeff-En:   0.000D+00 0.000D+00 0.000D+00 0.000D+00 0.000D+00 0.000D+00
 Coeff-En:   0.000D+00 0.000D+00 0.000D+00 0.000D+00 0.000D+00 0.000D+00
 Coeff-En:   0.000D+00 0.100D+01
 Coeff:     -0.122D-02 0.168D-02 0.732D-02 0.130D-01 0.866D-03-0.117D+00
 Coeff:      0.232D-01-0.325D-01 0.495D+00-0.990D-01-0.703D+00-0.232D+00
 Coeff:      0.111D+00 0.153D+01
 Gap=     0.346 Goal=   None    Shift=    0.000
 Gap=     0.130 Goal=   None    Shift=    0.000
 RMSDP=1.19D-04 MaxDP=8.99D-03 DE=-2.44D-04 OVMax= 5.24D-02

 Cycle  15  Pass 1  IDiag  1:
 RMSU=  5.11D-05    CP:  9.99D-01  2.62D+00  7.91D-01  7.48D-01  1.69D+00
                    CP:  2.88D+00  3.00D+00  3.00D+00  3.00D+00  3.00D+00
                    CP:  3.00D+00  3.00D+00  3.00D+00  2.71D+00
 E= -1827.36656633826     Delta-E=       -0.000233624916 Rises=F Damp=F
 DIIS: error= 7.95D-05 at cycle  15 NSaved=  15.
 NSaved=15 IEnMin=15 EnMin= -1827.36656633826     IErMin=15 ErrMin= 7.95D-05
 ErrMax= 7.95D-05  0.00D+00 EMaxC= 1.00D-01 BMatC= 1.81D-05 BMatP= 3.00D-05
 IDIUse=1 WtCom= 1.00D+00 WtEn= 0.00D+00
 Coeff-Com: -0.797D-03 0.104D-02 0.234D-02 0.922D-02 0.617D-02-0.487D-01
 Coeff-Com:  0.364D-02-0.154D+00 0.147D+00 0.380D+00-0.205D+00-0.471D+00
 Coeff-Com: -0.490D+00 0.111D+01 0.708D+00
 Coeff:     -0.797D-03 0.104D-02 0.234D-02 0.922D-02 0.617D-02-0.487D-01
 Coeff:      0.364D-02-0.154D+00 0.147D+00 0.380D+00-0.205D+00-0.471D+00
 Coeff:     -0.490D+00 0.111D+01 0.708D+00
 Gap=     0.346 Goal=   None    Shift=    0.000
 Gap=     0.130 Goal=   None    Shift=    0.000
 RMSDP=3.21D-05 MaxDP=2.57D-03 DE=-2.34D-04 OVMax= 1.31D-02

 Cycle  16  Pass 1  IDiag  1:
 RMSU=  1.96D-05    CP:  9.99D-01  2.62D+00  7.83D-01  7.40D-01  1.70D+00
                    CP:  2.87D+00  3.00D+00  3.00D+00  3.00D+00  3.00D+00
                    CP:  3.00D+00  3.00D+00  3.00D+00  3.00D+00  1.39D+00
 E= -1827.36661089373     Delta-E=       -0.000044555466 Rises=F Damp=F
 DIIS: error= 6.12D-05 at cycle  16 NSaved=  16.
 NSaved=16 IEnMin=16 EnMin= -1827.36661089373     IErMin=16 ErrMin= 6.12D-05
 ErrMax= 6.12D-05  0.00D+00 EMaxC= 1.00D-01 BMatC= 5.76D-06 BMatP= 1.81D-05
 IDIUse=1 WtCom= 1.00D+00 WtEn= 0.00D+00
 Coeff-Com:  0.724D-03-0.102D-02-0.314D-02-0.310D-02 0.521D-02 0.419D-01
 Coeff-Com:  0.910D-02-0.125D+00-0.221D+00 0.320D+00 0.274D+00-0.999D-01
 Coeff-Com: -0.528D+00-0.114D+00 0.386D+00 0.106D+01
 Coeff:      0.724D-03-0.102D-02-0.314D-02-0.310D-02 0.521D-02 0.419D-01
 Coeff:      0.910D-02-0.125D+00-0.221D+00 0.320D+00 0.274D+00-0.999D-01
 Coeff:     -0.528D+00-0.114D+00 0.386D+00 0.106D+01
 Gap=     0.346 Goal=   None    Shift=    0.000
 Gap=     0.130 Goal=   None    Shift=    0.000
 RMSDP=4.57D-05 MaxDP=3.38D-03 DE=-4.46D-05 OVMax= 1.96D-02

 Cycle  17  Pass 1  IDiag  1:
 RMSU=  8.22D-06    CP:  9.99D-01  2.62D+00  7.73D-01  7.29D-01  1.71D+00
                    CP:  2.88D+00  3.00D+00  3.00D+00  3.00D+00  3.00D+00
                    CP:  3.00D+00  3.00D+00  3.00D+00  3.00D+00  2.00D+00
                    CP:  2.35D+00
 E= -1827.36664717317     Delta-E=       -0.000036279441 Rises=F Damp=F
 DIIS: error= 3.24D-05 at cycle  17 NSaved=  17.
 NSaved=17 IEnMin=17 EnMin= -1827.36664717317     IErMin=17 ErrMin= 3.24D-05
 ErrMax= 3.24D-05  0.00D+00 EMaxC= 1.00D-01 BMatC= 1.93D-06 BMatP= 5.76D-06
 IDIUse=1 WtCom= 1.00D+00 WtEn= 0.00D+00
 Coeff-Com:  0.774D-03-0.103D-02-0.746D-03-0.299D-02 0.185D-02 0.226D-01
 Coeff-Com:  0.759D-02 0.405D-02-0.670D-01-0.513D-01 0.121D+00 0.171D+00
 Coeff-Com: -0.351D-01-0.430D+00-0.108D+00 0.283D+00 0.108D+01
 Coeff:      0.774D-03-0.103D-02-0.746D-03-0.299D-02 0.185D-02 0.226D-01
 Coeff:      0.759D-02 0.405D-02-0.670D-01-0.513D-01 0.121D+00 0.171D+00
 Coeff:     -0.351D-01-0.430D+00-0.108D+00 0.283D+00 0.108D+01
 Gap=     0.346 Goal=   None    Shift=    0.000
 Gap=     0.130 Goal=   None    Shift=    0.000
 RMSDP=2.08D-05 MaxDP=1.61D-03 DE=-3.63D-05 OVMax= 8.50D-03

 Cycle  18  Pass 1  IDiag  1:
 RMSU=  3.55D-06    CP:  9.99D-01  2.62D+00  7.68D-01  7.23D-01  1.71D+00
                    CP:  2.87D+00  3.00D+00  3.00D+00  3.00D+00  3.00D+00
                    CP:  3.00D+00  3.00D+00  3.00D+00  3.00D+00  2.26D+00
                    CP:  3.00D+00  1.26D+00
 E= -1827.36665640151     Delta-E=       -0.000009228347 Rises=F Damp=F
 DIIS: error= 1.99D-05 at cycle  18 NSaved=  18.
 NSaved=18 IEnMin=18 EnMin= -1827.36665640151     IErMin=18 ErrMin= 1.99D-05
 ErrMax= 1.99D-05  0.00D+00 EMaxC= 1.00D-01 BMatC= 1.54D-06 BMatP= 1.93D-06
 IDIUse=1 WtCom= 1.00D+00 WtEn= 0.00D+00
 Coeff-Com: -0.576D-05 0.498D-04 0.136D-02 0.530D-03-0.164D-02-0.112D-01
 Coeff-Com:  0.101D-01 0.202D-01 0.931D-01-0.168D+00-0.839D-01 0.148D+00
 Coeff-Com:  0.154D+00-0.105D+00-0.135D+00-0.389D+00 0.451D+00 0.101D+01
 Coeff:     -0.576D-05 0.498D-04 0.136D-02 0.530D-03-0.164D-02-0.112D-01
 Coeff:      0.101D-01 0.202D-01 0.931D-01-0.168D+00-0.839D-01 0.148D+00
 Coeff:      0.154D+00-0.105D+00-0.135D+00-0.389D+00 0.451D+00 0.101D+01
 Gap=     0.346 Goal=   None    Shift=    0.000
 Gap=     0.130 Goal=   None    Shift=    0.000
 RMSDP=1.84D-05 MaxDP=1.39D-03 DE=-9.23D-06 OVMax= 8.05D-03

 Cycle  19  Pass 1  IDiag  1:
 RMSU=  9.72D-06    CP:  9.99D-01  2.62D+00  7.63D-01  7.19D-01  1.71D+00
                    CP:  2.87D+00  3.00D+00  3.00D+00  3.00D+00  3.00D+00
                    CP:  3.00D+00  3.00D+00  3.00D+00  3.00D+00  2.51D+00
                    CP:  3.00D+00  1.84D+00  1.51D+00
 E= -1827.36666005112     Delta-E=       -0.000003649606 Rises=F Damp=F
 DIIS: error= 1.39D-05 at cycle  19 NSaved=  19.
 NSaved=19 IEnMin=19 EnMin= -1827.36666005112     IErMin=19 ErrMin= 1.39D-05
 ErrMax= 1.39D-05  0.00D+00 EMaxC= 1.00D-01 BMatC= 5.95D-07 BMatP= 1.54D-06
 IDIUse=1 WtCom= 1.00D+00 WtEn= 0.00D+00
 Coeff-Com: -0.368D-04 0.445D-04 0.623D-03 0.453D-03 0.557D-03-0.127D-01
 Coeff-Com:  0.311D-02 0.197D-01 0.393D-01-0.248D-01-0.733D-01 0.217D-01
 Coeff-Com:  0.607D-01 0.516D-01-0.518D-01-0.159D+00-0.177D+00 0.338D+00
 Coeff-Com:  0.963D+00
 Coeff:     -0.368D-04 0.445D-04 0.623D-03 0.453D-03 0.557D-03-0.127D-01
 Coeff:      0.311D-02 0.197D-01 0.393D-01-0.248D-01-0.733D-01 0.217D-01
 Coeff:      0.607D-01 0.516D-01-0.518D-01-0.159D+00-0.177D+00 0.338D+00
 Coeff:      0.963D+00
 Gap=     0.346 Goal=   None    Shift=    0.000
 Gap=     0.130 Goal=   None    Shift=    0.000
 RMSDP=3.86D-06 MaxDP=5.75D-04 DE=-3.65D-06 OVMax= 1.09D-03

 Cycle  20  Pass 1  IDiag  1:
 RMSU=  1.29D-06    CP:  9.99D-01  2.62D+00  7.63D-01  7.18D-01  1.71D+00
                    CP:  2.87D+00  3.00D+00  3.00D+00  3.00D+00  3.00D+00
                    CP:  3.00D+00  3.00D+00  3.00D+00  3.00D+00  2.51D+00
                    CP:  3.00D+00  1.72D+00  2.35D+00  1.15D+00
 E= -1827.36666062177     Delta-E=       -0.000000570650 Rises=F Damp=F
 DIIS: error= 1.13D-05 at cycle  20 NSaved=  20.
 NSaved=20 IEnMin=20 EnMin= -1827.36666062177     IErMin=20 ErrMin= 1.13D-05
 ErrMax= 1.13D-05  0.00D+00 EMaxC= 1.00D-01 BMatC= 4.55D-07 BMatP= 5.95D-07
 IDIUse=1 WtCom= 1.00D+00 WtEn= 0.00D+00
 Coeff-Com: -0.796D-04 0.102D-03-0.669D-04 0.358D-03 0.723D-03-0.398D-02
 Coeff-Com:  0.300D-02-0.938D-02-0.248D-02 0.402D-01-0.201D-01-0.225D-01
 Coeff-Com: -0.334D-01 0.627D-01 0.585D-01 0.197D-01-0.239D+00-0.211D+00
 Coeff-Com:  0.503D+00 0.854D+00
 Coeff:     -0.796D-04 0.102D-03-0.669D-04 0.358D-03 0.723D-03-0.398D-02
 Coeff:      0.300D-02-0.938D-02-0.248D-02 0.402D-01-0.201D-01-0.225D-01
 Coeff:     -0.334D-01 0.627D-01 0.585D-01 0.197D-01-0.239D+00-0.211D+00
 Coeff:      0.503D+00 0.854D+00
 Gap=     0.346 Goal=   None    Shift=    0.000
 Gap=     0.130 Goal=   None    Shift=    0.000
 RMSDP=4.15D-06 MaxDP=2.92D-04 DE=-5.71D-07 OVMax= 1.85D-03

 Cycle  21  Pass 1  IDiag  1:
 Restarting incremental Fock formation.
 E= -1827.36666100473     Delta-E=       -0.000000382961 Rises=F Damp=F
 DIIS: error= 4.27D-06 at cycle  21 NSaved=  20.
 NSaved=20 IEnMin=20 EnMin= -1827.36666100473     IErMin=20 ErrMin= 4.27D-06
 ErrMax= 4.27D-06  0.00D+00 EMaxC= 1.00D-01 BMatC= 6.31D-08 BMatP= 4.55D-07
 IDIUse=1 WtCom= 1.00D+00 WtEn= 0.00D+00
 Coeff-Com: -0.763D-06-0.358D-03-0.335D-03 0.331D-03 0.367D-02 0.210D-02
 Coeff-Com: -0.957D-02-0.197D-01 0.284D-01 0.196D-01-0.379D-02-0.422D-01
 Coeff-Com: -0.271D-01 0.536D-01 0.101D+00 0.361D-02-0.303D+00-0.199D+00
 Coeff-Com:  0.224D+00 0.117D+01
 Coeff:     -0.763D-06-0.358D-03-0.335D-03 0.331D-03 0.367D-02 0.210D-02
 Coeff:     -0.957D-02-0.197D-01 0.284D-01 0.196D-01-0.379D-02-0.422D-01
 Coeff:     -0.271D-01 0.536D-01 0.101D+00 0.361D-02-0.303D+00-0.199D+00
 Coeff:      0.224D+00 0.117D+01
 Gap=     0.346 Goal=   None    Shift=    0.000
 Gap=     0.130 Goal=   None    Shift=    0.000
 RMSDP=1.87D-06 MaxDP=1.80D-04 DE=-3.83D-07 OVMax= 6.27D-04

 Cycle  22  Pass 1  IDiag  1:
 RMSU=  1.87D-06    CP:  1.00D+00
 E= -1827.36666113662     Delta-E=       -0.000000131886 Rises=F Damp=F
 DIIS: error= 2.71D-06 at cycle  22 NSaved=  20.
 NSaved=20 IEnMin=20 EnMin= -1827.36666113662     IErMin=20 ErrMin= 2.71D-06
 ErrMax= 2.71D-06  0.00D+00 EMaxC= 1.00D-01 BMatC= 2.74D-08 BMatP= 6.31D-08
 IDIUse=1 WtCom= 1.00D+00 WtEn= 0.00D+00
 Coeff-Com:  0.122D-04-0.691D-04-0.134D-03 0.778D-03 0.125D-02-0.106D-02
 Coeff-Com:  0.187D-02-0.793D-02 0.250D-02 0.147D-01-0.157D-02-0.296D-01
 Coeff-Com:  0.710D-03 0.125D-01 0.864D-01-0.171D-01-0.235D+00-0.249D+00
 Coeff-Com:  0.361D+00 0.106D+01
 Coeff:      0.122D-04-0.691D-04-0.134D-03 0.778D-03 0.125D-02-0.106D-02
 Coeff:      0.187D-02-0.793D-02 0.250D-02 0.147D-01-0.157D-02-0.296D-01
 Coeff:      0.710D-03 0.125D-01 0.864D-01-0.171D-01-0.235D+00-0.249D+00
 Coeff:      0.361D+00 0.106D+01
 Gap=     0.346 Goal=   None    Shift=    0.000
 Gap=     0.130 Goal=   None    Shift=    0.000
 RMSDP=1.28D-06 MaxDP=1.00D-04 DE=-1.32D-07 OVMax= 4.46D-04

 Cycle  23  Pass 1  IDiag  1:
 RMSU=  3.13D-07    CP:  1.00D+00  1.66D+00
 E= -1827.36666118382     Delta-E=       -0.000000047205 Rises=F Damp=F
 DIIS: error= 1.68D-06 at cycle  23 NSaved=  20.
 NSaved=20 IEnMin=20 EnMin= -1827.36666118382     IErMin=20 ErrMin= 1.68D-06
 ErrMax= 1.68D-06  0.00D+00 EMaxC= 1.00D-01 BMatC= 5.98D-09 BMatP= 2.74D-08
 IDIUse=1 WtCom= 1.00D+00 WtEn= 0.00D+00
 Coeff-Com: -0.393D-04-0.134D-04-0.169D-03 0.606D-03 0.301D-03 0.414D-03
 Coeff-Com:  0.751D-04-0.398D-02 0.588D-02 0.790D-03-0.135D-02-0.712D-02
 Coeff-Com: -0.833D-02 0.113D-01 0.443D-01-0.756D-02-0.744D-01-0.199D+00
 Coeff-Com:  0.179D+00 0.106D+01
 Coeff:     -0.393D-04-0.134D-04-0.169D-03 0.606D-03 0.301D-03 0.414D-03
 Coeff:      0.751D-04-0.398D-02 0.588D-02 0.790D-03-0.135D-02-0.712D-02
 Coeff:     -0.833D-02 0.113D-01 0.443D-01-0.756D-02-0.744D-01-0.199D+00
 Coeff:      0.179D+00 0.106D+01
 Gap=     0.346 Goal=   None    Shift=    0.000
 Gap=     0.130 Goal=   None    Shift=    0.000
 RMSDP=6.30D-07 MaxDP=8.05D-05 DE=-4.72D-08 OVMax= 2.25D-04

 Cycle  24  Pass 1  IDiag  1:
 RMSU=  5.71D-07    CP:  1.00D+00  1.79D+00  6.11D-01
 E= -1827.36666120127     Delta-E=       -0.000000017454 Rises=F Damp=F
 DIIS: error= 1.38D-06 at cycle  24 NSaved=  20.
 NSaved=20 IEnMin=20 EnMin= -1827.36666120127     IErMin=20 ErrMin= 1.38D-06
 ErrMax= 1.38D-06  0.00D+00 EMaxC= 1.00D-01 BMatC= 5.05D-09 BMatP= 5.98D-09
 IDIUse=1 WtCom= 1.00D+00 WtEn= 0.00D+00
 Coeff-Com: -0.349D-05-0.352D-03 0.353D-03 0.432D-03 0.734D-03 0.374D-03
 Coeff-Com: -0.576D-02 0.331D-02 0.649D-03 0.641D-02-0.892D-03-0.127D-01
 Coeff-Com: -0.157D-01 0.328D-01 0.663D-01 0.455D-01-0.208D+00-0.342D+00
 Coeff-Com:  0.438D+00 0.990D+00
 Coeff:     -0.349D-05-0.352D-03 0.353D-03 0.432D-03 0.734D-03 0.374D-03
 Coeff:     -0.576D-02 0.331D-02 0.649D-03 0.641D-02-0.892D-03-0.127D-01
 Coeff:     -0.157D-01 0.328D-01 0.663D-01 0.455D-01-0.208D+00-0.342D+00
 Coeff:      0.438D+00 0.990D+00
 Gap=     0.346 Goal=   None    Shift=    0.000
 Gap=     0.130 Goal=   None    Shift=    0.000
 RMSDP=4.25D-07 MaxDP=5.22D-05 DE=-1.75D-08 OVMax= 1.70D-04

 Cycle  25  Pass 1  IDiag  1:
 RMSU=  1.22D-07    CP:  1.00D+00  1.92D+00  1.17D+00  1.47D+00
 E= -1827.36666121156     Delta-E=       -0.000000010284 Rises=F Damp=F
 DIIS: error= 1.34D-06 at cycle  25 NSaved=  20.
 NSaved=20 IEnMin=20 EnMin= -1827.36666121156     IErMin=20 ErrMin= 1.34D-06
 ErrMax= 1.34D-06  0.00D+00 EMaxC= 1.00D-01 BMatC= 1.92D-09 BMatP= 5.05D-09
 IDIUse=1 WtCom= 1.00D+00 WtEn= 0.00D+00
 Coeff-Com: -0.243D-03-0.111D-03 0.116D-04-0.331D-03 0.346D-02-0.337D-02
 Coeff-Com: -0.199D-03-0.381D-02 0.535D-02 0.559D-02 0.146D-02-0.183D-01
 Coeff-Com: -0.132D-01 0.187D-01 0.824D-01 0.302D-01-0.222D+00-0.352D+00
 Coeff-Com:  0.246D+00 0.122D+01
 Coeff:     -0.243D-03-0.111D-03 0.116D-04-0.331D-03 0.346D-02-0.337D-02
 Coeff:     -0.199D-03-0.381D-02 0.535D-02 0.559D-02 0.146D-02-0.183D-01
 Coeff:     -0.132D-01 0.187D-01 0.824D-01 0.302D-01-0.222D+00-0.352D+00
 Coeff:      0.246D+00 0.122D+01
 Gap=     0.346 Goal=   None    Shift=    0.000
 Gap=     0.130 Goal=   None    Shift=    0.000
 RMSDP=4.10D-07 MaxDP=4.39D-05 DE=-1.03D-08 OVMax= 1.61D-04

 Cycle  26  Pass 1  IDiag  1:
 RMSU=  1.02D-07    CP:  1.00D+00  1.98D+00  1.37D+00  2.10D+00  1.97D+00
 E= -1827.36666121881     Delta-E=       -0.000000007249 Rises=F Damp=F
 DIIS: error= 1.24D-06 at cycle  26 NSaved=  20.
 NSaved=20 IEnMin=20 EnMin= -1827.36666121881     IErMin=20 ErrMin= 1.24D-06
 ErrMax= 1.24D-06  0.00D+00 EMaxC= 1.00D-01 BMatC= 1.47D-09 BMatP= 1.92D-09
 IDIUse=1 WtCom= 1.00D+00 WtEn= 0.00D+00
 Coeff-Com: -0.978D-04-0.391D-03-0.895D-03 0.371D-02-0.206D-02 0.604D-03
 Coeff-Com: -0.502D-02 0.233D-02 0.294D-02 0.692D-02-0.364D-02-0.157D-01
 Coeff-Com: -0.302D-01 0.302D-01 0.802D-01 0.720D-01-0.227D+00-0.392D+00
 Coeff-Com:  0.170D+00 0.131D+01
 Coeff:     -0.978D-04-0.391D-03-0.895D-03 0.371D-02-0.206D-02 0.604D-03
 Coeff:     -0.502D-02 0.233D-02 0.294D-02 0.692D-02-0.364D-02-0.157D-01
 Coeff:     -0.302D-01 0.302D-01 0.802D-01 0.720D-01-0.227D+00-0.392D+00
 Coeff:      0.170D+00 0.131D+01
 Gap=     0.346 Goal=   None    Shift=    0.000
 Gap=     0.130 Goal=   None    Shift=    0.000
 RMSDP=3.62D-07 MaxDP=3.96D-05 DE=-7.25D-09 OVMax= 1.57D-04

 Cycle  27  Pass 1  IDiag  1:
 RMSU=  4.13D-08    CP:  1.00D+00  2.00D+00  1.57D+00  2.62D+00  3.00D+00
                    CP:  2.28D+00
 E= -1827.36666122377     Delta-E=       -0.000000004967 Rises=F Damp=F
 DIIS: error= 9.99D-07 at cycle  27 NSaved=  20.
 NSaved=20 IEnMin=20 EnMin= -1827.36666122377     IErMin=20 ErrMin= 9.99D-07
 ErrMax= 9.99D-07  0.00D+00 EMaxC= 1.00D-01 BMatC= 9.28D-10 BMatP= 1.47D-09
 IDIUse=1 WtCom= 1.00D+00 WtEn= 0.00D+00
 Coeff-Com:  0.966D-04-0.672D-03 0.862D-03-0.211D-02 0.301D-02-0.149D-02
 Coeff-Com:  0.347D-03-0.270D-02-0.789D-04 0.316D-02 0.102D-01-0.114D-01
 Coeff-Com: -0.868D-02-0.431D-01 0.859D-01 0.203D+00-0.198D+00-0.693D+00
 Coeff-Com:  0.877D-01 0.157D+01
 Coeff:      0.966D-04-0.672D-03 0.862D-03-0.211D-02 0.301D-02-0.149D-02
 Coeff:      0.347D-03-0.270D-02-0.789D-04 0.316D-02 0.102D-01-0.114D-01
 Coeff:     -0.868D-02-0.431D-01 0.859D-01 0.203D+00-0.198D+00-0.693D+00
 Coeff:      0.877D-01 0.157D+01
 Gap=     0.346 Goal=   None    Shift=    0.000
 Gap=     0.130 Goal=   None    Shift=    0.000
 RMSDP=4.20D-07 MaxDP=5.32D-05 DE=-4.97D-09 OVMax= 2.35D-04

 Cycle  28  Pass 1  IDiag  1:
 RMSU=  2.13D-07    CP:  1.00D+00  2.09D+00  2.19D+00  2.92D+00  3.00D+00
                    CP:  3.00D+00  3.00D+00
 E= -1827.36666122787     Delta-E=       -0.000000004100 Rises=F Damp=F
 DIIS: error= 6.98D-07 at cycle  28 NSaved=  20.
 NSaved=20 IEnMin=20 EnMin= -1827.36666122787     IErMin=20 ErrMin= 6.98D-07
 ErrMax= 6.98D-07  0.00D+00 EMaxC= 1.00D-01 BMatC= 1.41D-09 BMatP= 9.28D-10
 IDIUse=1 WtCom= 1.00D+00 WtEn= 0.00D+00
 Coeff-Com: -0.524D-05-0.787D-04-0.134D-02 0.120D-02 0.851D-03 0.132D-02
 Coeff-Com: -0.344D-02-0.447D-02 0.282D-02 0.193D-01-0.221D-02 0.497D-02
 Coeff-Com: -0.766D-01 0.696D-02 0.196D+00 0.169D+00-0.348D+00-0.850D+00
 Coeff-Com:  0.729D+00 0.116D+01
 Coeff:     -0.524D-05-0.787D-04-0.134D-02 0.120D-02 0.851D-03 0.132D-02
 Coeff:     -0.344D-02-0.447D-02 0.282D-02 0.193D-01-0.221D-02 0.497D-02
 Coeff:     -0.766D-01 0.696D-02 0.196D+00 0.169D+00-0.348D+00-0.850D+00
 Coeff:      0.729D+00 0.116D+01
 Gap=     0.346 Goal=   None    Shift=    0.000
 Gap=     0.130 Goal=   None    Shift=    0.000
 RMSDP=3.01D-07 MaxDP=3.28D-05 DE=-4.10D-09 OVMax= 1.52D-04

 Cycle  29  Pass 1  IDiag  1:
 RMSU=  1.72D-07    CP:  1.00D+00  2.10D+00  2.44D+00  3.00D+00  3.00D+00
                    CP:  3.00D+00  3.00D+00  1.94D+00
 E= -1827.36666123014     Delta-E=       -0.000000002269 Rises=F Damp=F
 DIIS: error= 4.54D-07 at cycle  29 NSaved=  20.
 NSaved=20 IEnMin=20 EnMin= -1827.36666123014     IErMin=20 ErrMin= 4.54D-07
 ErrMax= 4.54D-07  0.00D+00 EMaxC= 1.00D-01 BMatC= 5.60D-10 BMatP= 9.28D-10
 IDIUse=1 WtCom= 1.00D+00 WtEn= 0.00D+00
 Coeff-Com:  0.382D-03-0.304D-03-0.104D-02 0.384D-03 0.178D-02 0.447D-04
 Coeff-Com: -0.194D-02-0.377D-02 0.502D-02 0.556D-03 0.295D-01-0.305D-01
 Coeff-Com: -0.673D-01-0.268D-01 0.212D+00 0.211D+00-0.508D+00-0.314D+00
 Coeff-Com:  0.293D+00 0.120D+01
 Coeff:      0.382D-03-0.304D-03-0.104D-02 0.384D-03 0.178D-02 0.447D-04
 Coeff:     -0.194D-02-0.377D-02 0.502D-02 0.556D-03 0.295D-01-0.305D-01
 Coeff:     -0.673D-01-0.268D-01 0.212D+00 0.211D+00-0.508D+00-0.314D+00
 Coeff:      0.293D+00 0.120D+01
 Gap=     0.346 Goal=   None    Shift=    0.000
 Gap=     0.130 Goal=   None    Shift=    0.000
 RMSDP=2.39D-07 MaxDP=2.65D-05 DE=-2.27D-09 OVMax= 1.27D-04

 Cycle  30  Pass 1  IDiag  1:
 RMSU=  3.00D-08    CP:  1.00D+00  2.13D+00  2.58D+00  3.00D+00  3.00D+00
                    CP:  3.00D+00  3.00D+00  2.64D+00  1.97D+00
 E= -1827.36666123127     Delta-E=       -0.000000001125 Rises=F Damp=F
 DIIS: error= 1.83D-07 at cycle  30 NSaved=  20.
 NSaved=20 IEnMin=20 EnMin= -1827.36666123127     IErMin=20 ErrMin= 1.83D-07
 ErrMax= 1.83D-07  0.00D+00 EMaxC= 1.00D-01 BMatC= 7.24D-11 BMatP= 5.60D-10
 IDIUse=1 WtCom= 1.00D+00 WtEn= 0.00D+00
 Coeff-Com: -0.741D-04-0.142D-03 0.116D-03-0.835D-04 0.103D-02-0.326D-03
 Coeff-Com: -0.153D-02-0.254D-02 0.121D-03 0.111D-01 0.615D-02-0.346D-01
 Coeff-Com: -0.557D-01 0.435D-01 0.205D+00 0.225D-01-0.403D+00-0.310D+00
 Coeff-Com:  0.488D+00 0.103D+01
 Coeff:     -0.741D-04-0.142D-03 0.116D-03-0.835D-04 0.103D-02-0.326D-03
 Coeff:     -0.153D-02-0.254D-02 0.121D-03 0.111D-01 0.615D-02-0.346D-01
 Coeff:     -0.557D-01 0.435D-01 0.205D+00 0.225D-01-0.403D+00-0.310D+00
 Coeff:      0.488D+00 0.103D+01
 Gap=     0.346 Goal=   None    Shift=    0.000
 Gap=     0.130 Goal=   None    Shift=    0.000
 RMSDP=1.83D-07 MaxDP=2.06D-05 DE=-1.13D-09 OVMax= 1.02D-04

 Cycle  31  Pass 1  IDiag  1:
 RMSU=  5.97D-08    CP:  1.00D+00  2.17D+00  2.85D+00  3.00D+00  3.00D+00
                    CP:  3.00D+00  3.00D+00  3.00D+00  2.33D+00  1.44D+00
 E= -1827.36666123160     Delta-E=       -0.000000000327 Rises=F Damp=F
 DIIS: error= 9.64D-08 at cycle  31 NSaved=  20.
 NSaved=20 IEnMin=20 EnMin= -1827.36666123160     IErMin=20 ErrMin= 9.64D-08
 ErrMax= 9.64D-08  0.00D+00 EMaxC= 1.00D-01 BMatC= 4.01D-11 BMatP= 7.24D-11
 IDIUse=1 WtCom= 1.00D+00 WtEn= 0.00D+00
 Coeff-Com:  0.596D-03-0.453D-03-0.957D-03 0.359D-03 0.133D-02 0.228D-02
 Coeff-Com: -0.375D-02-0.629D-02-0.673D-02 0.242D-01 0.325D-01-0.403D-01
 Coeff-Com: -0.122D+00 0.233D-01 0.352D+00-0.366D-01-0.316D+00-0.345D+00
 Coeff-Com:  0.277D+00 0.116D+01
 Coeff:      0.596D-03-0.453D-03-0.957D-03 0.359D-03 0.133D-02 0.228D-02
 Coeff:     -0.375D-02-0.629D-02-0.673D-02 0.242D-01 0.325D-01-0.403D-01
 Coeff:     -0.122D+00 0.233D-01 0.352D+00-0.366D-01-0.316D+00-0.345D+00
 Coeff:      0.277D+00 0.116D+01
 Gap=     0.346 Goal=   None    Shift=    0.000
 Gap=     0.130 Goal=   None    Shift=    0.000
 RMSDP=6.10D-08 MaxDP=6.17D-06 DE=-3.27D-10 OVMax= 1.96D-05

 Cycle  32  Pass 1  IDiag  1:
 RMSU=  2.25D-08    CP:  1.00D+00  2.17D+00  2.83D+00  3.00D+00  3.00D+00
                    CP:  3.00D+00  3.00D+00  3.00D+00  2.61D+00  1.98D+00
                    CP:  1.44D+00
 E= -1827.36666123169     Delta-E=       -0.000000000095 Rises=F Damp=F
 DIIS: error= 5.63D-08 at cycle  32 NSaved=  20.
 NSaved=20 IEnMin=20 EnMin= -1827.36666123169     IErMin=20 ErrMin= 5.63D-08
 ErrMax= 5.63D-08  0.00D+00 EMaxC= 1.00D-01 BMatC= 1.10D-11 BMatP= 4.01D-11
 IDIUse=1 WtCom= 1.00D+00 WtEn= 0.00D+00
 Coeff-Com: -0.317D-04-0.155D-03 0.164D-03 0.144D-03 0.477D-03-0.523D-03
 Coeff-Com: -0.133D-02-0.170D-02 0.338D-02 0.449D-02-0.231D-02-0.215D-01
 Coeff-Com: -0.234D-02 0.178D-01 0.372D-01 0.216D-01-0.109D+00-0.178D+00
 Coeff-Com:  0.224D+00 0.101D+01
 Coeff:     -0.317D-04-0.155D-03 0.164D-03 0.144D-03 0.477D-03-0.523D-03
 Coeff:     -0.133D-02-0.170D-02 0.338D-02 0.449D-02-0.231D-02-0.215D-01
 Coeff:     -0.234D-02 0.178D-01 0.372D-01 0.216D-01-0.109D+00-0.178D+00
 Coeff:      0.224D+00 0.101D+01
 Gap=     0.346 Goal=   None    Shift=    0.000
 Gap=     0.130 Goal=   None    Shift=    0.000
 RMSDP=4.69D-08 MaxDP=4.59D-06 DE=-9.46D-11 OVMax= 2.31D-05

 Cycle  33  Pass 1  IDiag  1:
 RMSU=  5.66D-09    CP:  1.00D+00  2.19D+00  2.90D+00  3.00D+00  3.00D+00
                    CP:  3.00D+00  3.00D+00  3.00D+00  2.66D+00  2.19D+00
                    CP:  1.89D+00  1.28D+00
 E= -1827.36666123181     Delta-E=       -0.000000000124 Rises=F Damp=F
 DIIS: error= 4.58D-08 at cycle  33 NSaved=  20.
 NSaved=20 IEnMin=20 EnMin= -1827.36666123181     IErMin=20 ErrMin= 4.58D-08
 ErrMax= 4.58D-08  0.00D+00 EMaxC= 1.00D-01 BMatC= 5.86D-12 BMatP= 1.10D-11
 IDIUse=1 WtCom= 1.00D+00 WtEn= 0.00D+00
 Coeff-Com:  0.977D-04-0.125D-03-0.234D-03 0.213D-03 0.938D-03-0.391D-03
 Coeff-Com: -0.848D-03-0.346D-02 0.301D-02 0.183D-01 0.583D-02-0.421D-01
 Coeff-Com: -0.585D-01 0.885D-01 0.107D+00-0.232D-01-0.281D+00-0.213D+00
 Coeff-Com:  0.586D+00 0.813D+00
 Coeff:      0.977D-04-0.125D-03-0.234D-03 0.213D-03 0.938D-03-0.391D-03
 Coeff:     -0.848D-03-0.346D-02 0.301D-02 0.183D-01 0.583D-02-0.421D-01
 Coeff:     -0.585D-01 0.885D-01 0.107D+00-0.232D-01-0.281D+00-0.213D+00
 Coeff:      0.586D+00 0.813D+00
 Gap=     0.346 Goal=   None    Shift=    0.000
 Gap=     0.130 Goal=   None    Shift=    0.000
 RMSDP=1.87D-08 MaxDP=2.13D-06 DE=-1.24D-10 OVMax= 6.06D-06

 Cycle  34  Pass 1  IDiag  1:
 RMSU=  9.30D-09    CP:  1.00D+00  2.18D+00  2.88D+00  3.00D+00  3.00D+00
                    CP:  3.00D+00  3.00D+00  3.00D+00  2.71D+00  2.39D+00
                    CP:  1.98D+00  1.60D+00  7.02D-01
 E= -1827.36666123179     Delta-E=        0.000000000021 Rises=F Damp=F
 DIIS: error= 2.22D-08 at cycle  34 NSaved=  20.
 NSaved=20 IEnMin=19 EnMin= -1827.36666123181     IErMin=20 ErrMin= 2.22D-08
 ErrMax= 2.22D-08  0.00D+00 EMaxC= 1.00D-01 BMatC= 1.36D-12 BMatP= 5.86D-12
 IDIUse=1 WtCom= 1.00D+00 WtEn= 0.00D+00
 Coeff-Com:  0.749D-04-0.604D-04-0.284D-03-0.139D-04 0.378D-03 0.156D-02
 Coeff-Com: -0.782D-03-0.442D-02 0.154D-02 0.126D-01 0.656D-02-0.350D-01
 Coeff-Com: -0.117D-01 0.110D-01 0.711D-01 0.265D-01-0.190D+00-0.178D+00
 Coeff-Com:  0.181D+00 0.111D+01
 Coeff:      0.749D-04-0.604D-04-0.284D-03-0.139D-04 0.378D-03 0.156D-02
 Coeff:     -0.782D-03-0.442D-02 0.154D-02 0.126D-01 0.656D-02-0.350D-01
 Coeff:     -0.117D-01 0.110D-01 0.711D-01 0.265D-01-0.190D+00-0.178D+00
 Coeff:      0.181D+00 0.111D+01
 Gap=     0.346 Goal=   None    Shift=    0.000
 Gap=     0.130 Goal=   None    Shift=    0.000
 RMSDP=1.04D-08 MaxDP=8.65D-07 DE= 2.09D-11 OVMax= 3.56D-06

 Cycle  35  Pass 1  IDiag  1:
 RMSU=  1.73D-09    CP:  1.00D+00  2.19D+00  2.88D+00  3.00D+00  3.00D+00
                    CP:  3.00D+00  3.00D+00  3.00D+00  2.72D+00  2.49D+00
                    CP:  2.09D+00  1.73D+00  1.03D+00  1.47D+00
 E= -1827.36666123179     Delta-E=        0.000000000001 Rises=F Damp=F
 DIIS: error= 1.36D-08 at cycle  35 NSaved=  20.
 NSaved=20 IEnMin=18 EnMin= -1827.36666123181     IErMin=20 ErrMin= 1.36D-08
 ErrMax= 1.36D-08  0.00D+00 EMaxC= 1.00D-01 BMatC= 5.60D-13 BMatP= 1.36D-12
 IDIUse=1 WtCom= 1.00D+00 WtEn= 0.00D+00
 Coeff-Com:  0.164D-04-0.143D-03 0.139D-03 0.889D-04 0.489D-03-0.108D-02
 Coeff-Com: -0.255D-02-0.165D-02 0.486D-02 0.101D-01-0.719D-02-0.243D-01
 Coeff-Com: -0.176D-01 0.423D-01 0.976D-01-0.338D-01-0.338D+00-0.196D+00
 Coeff-Com:  0.513D+00 0.953D+00
 Coeff:      0.164D-04-0.143D-03 0.139D-03 0.889D-04 0.489D-03-0.108D-02
 Coeff:     -0.255D-02-0.165D-02 0.486D-02 0.101D-01-0.719D-02-0.243D-01
 Coeff:     -0.176D-01 0.423D-01 0.976D-01-0.338D-01-0.338D+00-0.196D+00
 Coeff:      0.513D+00 0.953D+00
 Gap=     0.346 Goal=   None    Shift=    0.000
 Gap=     0.130 Goal=   None    Shift=    0.000
 RMSDP=1.08D-08 MaxDP=9.77D-07 DE= 9.09D-13 OVMax= 3.98D-06

 Cycle  36  Pass 1  IDiag  1:
 RMSU=  1.50D-09    CP:  1.00D+00  2.19D+00  2.88D+00  3.00D+00  3.00D+00
                    CP:  3.00D+00  3.00D+00  3.00D+00  2.76D+00  2.58D+00
                    CP:  2.15D+00  1.92D+00  1.42D+00  1.71D+00  1.59D+00
 E= -1827.36666123185     Delta-E=       -0.000000000060 Rises=F Damp=F
 DIIS: error= 7.75D-09 at cycle  36 NSaved=  20.
 NSaved=20 IEnMin=20 EnMin= -1827.36666123185     IErMin=20 ErrMin= 7.75D-09
 ErrMax= 7.75D-09  0.00D+00 EMaxC= 1.00D-01 BMatC= 1.36D-13 BMatP= 5.60D-13
 IDIUse=1 WtCom= 1.00D+00 WtEn= 0.00D+00
 Coeff-Com: -0.206D-04-0.955D-04 0.961D-04-0.815D-04 0.632D-03-0.556D-03
 Coeff-Com: -0.186D-02-0.143D-02 0.500D-02 0.107D-01-0.952D-02-0.189D-01
 Coeff-Com: -0.758D-02 0.372D-01 0.512D-01-0.377D-01-0.105D+00-0.164D+00
 Coeff-Com:  0.234D+00 0.101D+01
 Coeff:     -0.206D-04-0.955D-04 0.961D-04-0.815D-04 0.632D-03-0.556D-03
 Coeff:     -0.186D-02-0.143D-02 0.500D-02 0.107D-01-0.952D-02-0.189D-01
 Coeff:     -0.758D-02 0.372D-01 0.512D-01-0.377D-01-0.105D+00-0.164D+00
 Coeff:      0.234D+00 0.101D+01
 Gap=     0.346 Goal=   None    Shift=    0.000
 Gap=     0.130 Goal=   None    Shift=    0.000
 RMSDP=3.18D-09 MaxDP=2.46D-07 DE=-6.00D-11 OVMax= 1.18D-06

 Error on total polarization charges =  0.00421
 SCF Done:  E(UCAM-B3LYP) =  -1827.36666123     A.U. after   36 cycles
            NFock= 36  Conv=0.32D-08     -V/T= 2.0078
 <Sx>= 0.0000 <Sy>= 0.0000 <Sz>= 0.5000 <S**2>= 0.7721 S= 0.5110
 <L.S>= 0.000000000000E+00
 KE= 1.813241017897D+03 PE=-1.093278521593D+04 EE= 3.963164946975D+03
 Annihilation of the first spin contaminant:
 S**2 before annihilation     0.7721,   after     0.7503
 Leave Link  502 at Sun Mar  3 17:40:02 2024, MaxMem=  5368709120 cpu:      2509.1
 (Enter /home/k0335/k033513/app/g09/l601.exe)
 Copying SCF densities to generalized density rwf, IOpCl= 1 IROHF=0.

 **********************************************************************

            Population analysis using the SCF density.

 **********************************************************************

 Alpha  occ. eigenvalues --  -24.86715 -24.86230 -24.86163 -24.85562 -24.85023
 Alpha  occ. eigenvalues --  -24.85015 -24.84923 -24.84889 -24.84850 -19.35793
 Alpha  occ. eigenvalues --  -19.34673 -19.32007 -19.29432 -14.66029 -14.59137
 Alpha  occ. eigenvalues --  -14.57389 -10.61203 -10.57825 -10.57647 -10.54615
 Alpha  occ. eigenvalues --  -10.52420 -10.52165 -10.51086 -10.40345 -10.35294
 Alpha  occ. eigenvalues --  -10.33793 -10.30531 -10.27952  -1.44763  -1.44134
 Alpha  occ. eigenvalues --   -1.42521  -1.37382  -1.35725  -1.35141  -1.34806
 Alpha  occ. eigenvalues --   -1.34434  -1.34227  -1.31443  -1.26175  -1.24532
 Alpha  occ. eigenvalues --   -1.22292  -1.18656  -1.15153  -1.13143  -0.97584
 Alpha  occ. eigenvalues --   -0.96215  -0.90877  -0.90519  -0.89329  -0.85057
 Alpha  occ. eigenvalues --   -0.83251  -0.82907  -0.81005  -0.80249  -0.78397
 Alpha  occ. eigenvalues --   -0.75905  -0.74451  -0.73083  -0.72457  -0.72138
 Alpha  occ. eigenvalues --   -0.71258  -0.70566  -0.69770  -0.69362  -0.69069
 Alpha  occ. eigenvalues --   -0.67633  -0.67365  -0.64555  -0.62951  -0.62849
 Alpha  occ. eigenvalues --   -0.62507  -0.61769  -0.61332  -0.60006  -0.59876
 Alpha  occ. eigenvalues --   -0.59157  -0.58955  -0.58326  -0.58129  -0.57410
 Alpha  occ. eigenvalues --   -0.56758  -0.56440  -0.56258  -0.55836  -0.55052
 Alpha  occ. eigenvalues --   -0.54443  -0.54319  -0.53941  -0.53668  -0.53390
 Alpha  occ. eigenvalues --   -0.53030  -0.52928  -0.52392  -0.52264  -0.51805
 Alpha  occ. eigenvalues --   -0.51209  -0.51042  -0.49934  -0.49651  -0.48554
 Alpha  occ. eigenvalues --   -0.48001  -0.46784  -0.46075  -0.45527  -0.44733
 Alpha  occ. eigenvalues --   -0.44241  -0.43715  -0.42548  -0.42191
 Alpha virt. eigenvalues --   -0.07595  -0.05312   0.02241   0.02869   0.07183
 Alpha virt. eigenvalues --    0.07547   0.09253   0.10889   0.11239   0.11685
 Alpha virt. eigenvalues --    0.13046   0.13590   0.14096   0.15268   0.16212
 Alpha virt. eigenvalues --    0.16303   0.17417   0.17698   0.17968   0.18704
 Alpha virt. eigenvalues --    0.19172   0.19527   0.19809   0.20738   0.20928
 Alpha virt. eigenvalues --    0.21079   0.21362   0.21605   0.21984   0.22502
 Alpha virt. eigenvalues --    0.22947   0.23317   0.24867   0.25387   0.27207
 Alpha virt. eigenvalues --    0.27752   0.28934   0.30405   0.31621   0.33408
 Alpha virt. eigenvalues --    0.34098   0.34518   0.41847   0.42851   0.46181
 Alpha virt. eigenvalues --    0.47139   0.48066   0.48823   0.49710   0.49818
 Alpha virt. eigenvalues --    0.50361   0.51484   0.51705   0.51778   0.52771
 Alpha virt. eigenvalues --    0.52965   0.53561   0.53958   0.55275   0.56027
 Alpha virt. eigenvalues --    0.56960   0.57987   0.58423   0.59648   0.61931
 Alpha virt. eigenvalues --    0.62107   0.62620   0.63018   0.63811   0.65653
 Alpha virt. eigenvalues --    0.67010   0.69352   0.69605   0.70004   0.71416
 Alpha virt. eigenvalues --    0.73666   0.74319   0.75047   0.76775   0.79232
 Alpha virt. eigenvalues --    0.80267   0.80670   0.80822   0.81836   0.82559
 Alpha virt. eigenvalues --    0.84472   0.85172   0.85900   0.86183   0.87063
 Alpha virt. eigenvalues --    0.87843   0.88271   0.89183   0.89754   0.89866
 Alpha virt. eigenvalues --    0.91591   0.92611   0.93747   0.94032   0.95205
 Alpha virt. eigenvalues --    0.96753   0.97388   0.98737   0.99719   1.00620
 Alpha virt. eigenvalues --    1.00891   1.01137   1.01870   1.02526   1.03738
 Alpha virt. eigenvalues --    1.05588   1.07156   1.07516   1.09370   1.10786
 Alpha virt. eigenvalues --    1.11332   1.11968   1.12683   1.14192   1.14324
 Alpha virt. eigenvalues --    1.15766   1.16138   1.16864   1.17978   1.18831
 Alpha virt. eigenvalues --    1.19581   1.21135   1.22149   1.23320   1.25632
 Alpha virt. eigenvalues --    1.26025   1.26883   1.27055   1.28416   1.30757
 Alpha virt. eigenvalues --    1.31324   1.32058   1.32898   1.33271   1.34226
 Alpha virt. eigenvalues --    1.36003   1.36169   1.37076   1.37893   1.38586
 Alpha virt. eigenvalues --    1.39358   1.39607   1.40465   1.41018   1.42477
 Alpha virt. eigenvalues --    1.42906   1.44613   1.45799   1.46079   1.46819
 Alpha virt. eigenvalues --    1.48319   1.48803   1.49326   1.50188   1.52438
 Alpha virt. eigenvalues --    1.52665   1.54131   1.54847   1.55665   1.57766
 Alpha virt. eigenvalues --    1.59748   1.60486   1.62327   1.63059   1.63745
 Alpha virt. eigenvalues --    1.64243   1.64478   1.66186   1.67260   1.68713
 Alpha virt. eigenvalues --    1.69461   1.70505   1.71858   1.72217   1.72577
 Alpha virt. eigenvalues --    1.73269   1.74536   1.75869   1.76598   1.76828
 Alpha virt. eigenvalues --    1.78142   1.79163   1.79940   1.80552   1.81477
 Alpha virt. eigenvalues --    1.82025   1.82393   1.82710   1.83687   1.84385
 Alpha virt. eigenvalues --    1.84910   1.85508   1.85697   1.86030   1.86553
 Alpha virt. eigenvalues --    1.88156   1.88616   1.89177   1.89801   1.90383
 Alpha virt. eigenvalues --    1.90822   1.91821   1.92110   1.92370   1.93048
 Alpha virt. eigenvalues --    1.94051   1.94773   1.95529   1.96114   1.96562
 Alpha virt. eigenvalues --    1.97375   1.98212   1.98912   2.00188   2.00860
 Alpha virt. eigenvalues --    2.01339   2.02011   2.02934   2.03318   2.04379
 Alpha virt. eigenvalues --    2.04847   2.06083   2.06465   2.07290   2.07918
 Alpha virt. eigenvalues --    2.08592   2.09188   2.09488   2.09813   2.09958
 Alpha virt. eigenvalues --    2.11279   2.11836   2.12693   2.13158   2.13670
 Alpha virt. eigenvalues --    2.14228   2.14767   2.16138   2.16589   2.16632
 Alpha virt. eigenvalues --    2.18522   2.19605   2.20727   2.23972   2.24617
 Alpha virt. eigenvalues --    2.24839   2.26171   2.26700   2.27950   2.28731
 Alpha virt. eigenvalues --    2.29747   2.30704   2.32160   2.32554   2.35043
 Alpha virt. eigenvalues --    2.36016   2.37652   2.38271   2.39077   2.40141
 Alpha virt. eigenvalues --    2.41374   2.42360   2.43477   2.44548   2.45615
 Alpha virt. eigenvalues --    2.46846   2.48355   2.48746   2.51033   2.52532
 Alpha virt. eigenvalues --    2.53547   2.54244   2.55364   2.55659   2.58621
 Alpha virt. eigenvalues --    2.59720   2.60849   2.62046   2.62711   2.64739
 Alpha virt. eigenvalues --    2.66233   2.66725   2.68070   2.69733   2.71376
 Alpha virt. eigenvalues --    2.71832   2.72639   2.73932   2.75350   2.76855
 Alpha virt. eigenvalues --    2.77903   2.79360   2.81716   2.83211   2.83880
 Alpha virt. eigenvalues --    2.85029   2.85395   2.86680   2.86983   2.88594
 Alpha virt. eigenvalues --    2.89108   2.90088   2.90481   2.91905   2.92612
 Alpha virt. eigenvalues --    2.94032   2.94789   2.95400   2.95931   2.97086
 Alpha virt. eigenvalues --    2.99471   3.01053   3.03096   3.05130   3.07996
 Alpha virt. eigenvalues --    3.09700   3.10252   3.12485   3.14510   3.15273
 Alpha virt. eigenvalues --    3.20836   3.22232   3.23229   3.23796   3.26685
 Alpha virt. eigenvalues --    3.29425   3.32886   3.33801   3.34528   3.36924
 Alpha virt. eigenvalues --    3.40994   3.43192   3.46821   3.47934   3.49053
 Alpha virt. eigenvalues --    3.50819   3.55647   3.60264   4.02119   4.06709
 Alpha virt. eigenvalues --    4.09279   4.12858   4.20638   4.22123   4.28637
 Alpha virt. eigenvalues --    4.32169   4.33832   4.39854   4.41925   4.45122
 Alpha virt. eigenvalues --    4.48286   4.54368   4.56754   4.61203   4.64258
 Alpha virt. eigenvalues --    4.66512   4.72777   4.78461   4.83902   4.87826
 Alpha virt. eigenvalues --    4.94155   5.29615   5.52504   6.02601   6.42865
 Alpha virt. eigenvalues --    6.45331
  Beta  occ. eigenvalues --  -24.86698 -24.86229 -24.86164 -24.85562 -24.85023
  Beta  occ. eigenvalues --  -24.85014 -24.84924 -24.84889 -24.84850 -19.35084
[...]
    13  C(13)              0.00010       0.10902       0.03890       0.03636
    14  F(19)              0.00311      13.10498       4.67618       4.37135
    15  F(19)             -0.00094      -3.95335      -1.41065      -1.31870
    16  C(13)              0.00005       0.05894       0.02103       0.01966
    17  F(19)             -0.00003      -0.13841      -0.04939      -0.04617
    18  O(17)             -0.00003       0.01584       0.00565       0.00528
    19  C(13)             -0.00001      -0.01013      -0.00361      -0.00338
    20  F(19)              0.00023       0.95004       0.33900       0.31690
    21  F(19)              0.00000      -0.01693      -0.00604      -0.00565
    22  F(19)             -0.00001      -0.02699      -0.00963      -0.00900
    23  C(13)             -0.00001      -0.01643      -0.00586      -0.00548
    24  F(19)              0.00001       0.05241       0.01870       0.01748
    25  F(19)              0.00000       0.00494       0.00176       0.00165
    26  F(19)             -0.00005      -0.19194      -0.06849      -0.06402
    27  C(13)             -0.02809     -31.57854     -11.26801     -10.53347
    28  O(17)              0.03025     -18.33552      -6.54257      -6.11607
    29  H(1)               0.00162       7.23857       2.58290       2.41453
    30  H(1)               0.00246      10.99932       3.92483       3.66898
    31  H(1)              -0.00009      -0.41799      -0.14915      -0.13943
    32  H(1)               0.00064       2.87572       1.02613       0.95924
    33  H(1)               0.01145      51.17412      18.26020      17.06985
    34  H(1)               0.00082       3.65803       1.30528       1.22019
    35  H(1)              -0.00110      -4.92706      -1.75810      -1.64349
    36  H(1)               0.00972      43.46819      15.51053      14.49943
    37  H(1)               0.00854      38.17868      13.62310      12.73504
    38  H(1)               0.00114       5.08520       1.81453       1.69624
    39  H(1)               0.00107       4.80023       1.71284       1.60118
    40  H(1)               0.00512      22.87436       8.16214       7.63006
 --------------------------------------------------------
       Center         ----  Spin Dipole Couplings  ----
                      3XX-RR        3YY-RR        3ZZ-RR
 --------------------------------------------------------
     1   Atom        0.002715      0.001289     -0.004004
     2   Atom        0.019570     -0.002963     -0.016607
     3   Atom       -0.011415      0.067123     -0.055708
     4   Atom       -0.040891      0.101266     -0.060375
     5   Atom       -0.613532      1.111493     -0.497961
     6   Atom        0.023310     -0.077839      0.054530
     7   Atom       -0.201312      0.396448     -0.195136
     8   Atom       -0.067774      0.108504     -0.040729
     9   Atom       -0.002995      0.005952     -0.002957
    10   Atom        0.020037     -0.019170     -0.000867
    11   Atom       -0.066048      0.131617     -0.065569
    12   Atom        0.025078     -0.042994      0.017917
    13   Atom        0.004281     -0.002820     -0.001460
    14   Atom        0.030182     -0.012321     -0.017861
    15   Atom        0.004556     -0.003857     -0.000699
    16   Atom        0.001509     -0.000998     -0.000511
    17   Atom        0.000630     -0.000321     -0.000309
    18   Atom        0.001928     -0.001166     -0.000763
    19   Atom        0.000898     -0.000565     -0.000333
    20   Atom       -0.000038     -0.000602      0.000640
    21   Atom        0.000569     -0.000204     -0.000365
    22   Atom        0.000680     -0.000379     -0.000302
    23   Atom        0.000983     -0.000397     -0.000586
    24   Atom        0.000496     -0.000156     -0.000339
    25   Atom        0.000623     -0.000197     -0.000426
    26   Atom       -0.000038      0.001407     -0.001369
    27   Atom        0.053521     -0.144345      0.090824
    28   Atom       -0.312458      0.772910     -0.460452
    29   Atom        0.002293     -0.001463     -0.000830
    30   Atom        0.000797      0.000471     -0.001268
    31   Atom        0.000574     -0.001933      0.001358
    32   Atom        0.005229     -0.003135     -0.002094
    33   Atom       -0.001026      0.005807     -0.004781
    34   Atom        0.001249     -0.003435      0.002186
    35   Atom       -0.004556      0.004449      0.000107
    36   Atom        0.005843     -0.008781      0.002938
    37   Atom       -0.003081     -0.006165      0.009247
    38   Atom        0.000245     -0.001849      0.001605
    39   Atom        0.001489     -0.001140     -0.000349
    40   Atom       -0.000776     -0.000973      0.001749
 --------------------------------------------------------
                        XY            XZ            YZ
 --------------------------------------------------------
     1   Atom       -0.005663      0.003036      0.000135
     2   Atom       -0.027375      0.013742     -0.009565
     3   Atom       -0.102577      0.042110     -0.061830
     4   Atom       -0.033682      0.010077     -0.028532
     5   Atom       -0.193523      0.056161     -0.487416
     6   Atom        0.018294     -0.002185      0.031831
     7   Atom       -0.038550     -0.006768     -0.053620
     8   Atom       -0.020434      0.014165     -0.070779
     9   Atom       -0.004228      0.003835     -0.002263
    10   Atom        0.006525     -0.001361      0.012422
    11   Atom       -0.022511      0.004488     -0.051320
    12   Atom       -0.014754      0.003351      0.008809
    13   Atom       -0.000293      0.000863      0.000534
    14   Atom       -0.017530     -0.016070      0.004557
    15   Atom        0.001019     -0.002668      0.003169
    16   Atom       -0.000472     -0.000202      0.000258
    17   Atom       -0.000043     -0.000213      0.000158
    18   Atom       -0.000055     -0.000504      0.000054
    19   Atom        0.000407     -0.000366     -0.000106
    20   Atom        0.001331     -0.001002     -0.001741
    21   Atom        0.000289     -0.000147     -0.000061
    22   Atom        0.000272     -0.000418     -0.000069
    23   Atom       -0.000797     -0.000013      0.000173
    24   Atom       -0.001296      0.000142     -0.000243
    25   Atom       -0.000537      0.000037      0.000047
    26   Atom        0.000385      0.000108      0.001154
    27   Atom        0.007460     -0.010813     -0.001259
    28   Atom       -0.558004     -0.106726      0.264027
    29   Atom        0.000734      0.001761      0.000451
    30   Atom        0.001134      0.002280      0.000672
    31   Atom       -0.000344      0.001832     -0.000134
    32   Atom        0.000086     -0.002669     -0.001585
    33   Atom       -0.003076      0.000920     -0.001099
    34   Atom       -0.003888     -0.005629     -0.008375
    35   Atom       -0.006597      0.002511      0.007785
    36   Atom        0.004872     -0.009986     -0.001946
    37   Atom        0.005464      0.003770      0.008202
    38   Atom        0.000958      0.000569      0.002549
    39   Atom        0.001687      0.001275      0.001385
    40   Atom       -0.000418      0.002379     -0.001566
 --------------------------------------------------------


 ---------------------------------------------------------------------------------
              Anisotropic Spin Dipole Couplings in Principal Axis System
 ---------------------------------------------------------------------------------

       Atom             a.u.   MegaHertz   Gauss  10(-4) cm-1        Axes

              Baa    -0.0062    -0.827    -0.295    -0.276 -0.5171 -0.4068  0.7531
     1 C(13)  Bbb    -0.0020    -0.262    -0.094    -0.088  0.3966  0.6659  0.6319
              Bcc     0.0081     1.089     0.389     0.363  0.7585 -0.6254  0.1830
 
              Baa    -0.0216    -2.900    -1.035    -0.967  0.2160  0.6777  0.7029
     2 C(13)  Bbb    -0.0210    -2.822    -1.007    -0.941 -0.5615 -0.5027  0.6573
              Bcc     0.0426     5.722     2.042     1.909  0.7988 -0.5366  0.2719
 
              Baa    -0.0821   -11.019    -3.932    -3.675  0.7004  0.6246  0.3454
     3 C(13)  Bbb    -0.0811   -10.888    -3.885    -3.632 -0.4713  0.0413  0.8810
              Bcc     0.1632    21.906     7.817     7.307 -0.5360  0.7799 -0.3233
 
              Baa    -0.0662    -8.890    -3.172    -2.965 -0.2258  0.1193  0.9669
     4 C(13)  Bbb    -0.0478    -6.411    -2.288    -2.138  0.9490  0.2510  0.1906
              Bcc     0.1140    15.301     5.460     5.104 -0.2199  0.9606 -0.1699
 
              Baa    -0.6367   -24.555    -8.762    -8.191  0.7850 -0.0842 -0.6138
     5 N(14)  Bbb    -0.6325   -24.393    -8.704    -8.137  0.6103  0.2753  0.7428
              Bcc     1.2692    48.949    17.466    16.328 -0.1064  0.9577 -0.2675
 
              Baa    -0.0881   -11.823    -4.219    -3.944 -0.1623  0.9625 -0.2173
     6 C(13)  Bbb     0.0262     3.518     1.255     1.174  0.9853  0.1462 -0.0883
              Bcc     0.0619     8.305     2.963     2.770  0.0533  0.2284  0.9721
 
              Baa    -0.2122    15.351     5.478     5.121  0.7665  0.1044  0.6337
     7 O(17)  Bbb    -0.1915    13.855     4.944     4.622 -0.6392  0.0282  0.7686
              Bcc     0.4036   -29.206   -10.422    -9.742 -0.0624  0.9941 -0.0883
 
              Baa    -0.0754    -2.908    -1.038    -0.970  0.7523 -0.1622 -0.6386
     8 N(14)  Bbb    -0.0642    -2.475    -0.883    -0.826  0.6485  0.3531  0.6743
              Bcc     0.1396     5.383     1.921     1.795 -0.1161  0.9214 -0.3708
 
              Baa    -0.0070    -0.940    -0.335    -0.313  0.7556  0.1346 -0.6411
     9 C(13)  Bbb    -0.0017    -0.234    -0.083    -0.078  0.5121  0.4890  0.7061
              Bcc     0.0087     1.174     0.419     0.391 -0.4085  0.8618 -0.3006
 
              Baa    -0.0263    -3.535    -1.261    -1.179 -0.1377  0.8874 -0.4400
    10 C(13)  Bbb     0.0052     0.701     0.250     0.234 -0.1063  0.4285  0.8973
              Bcc     0.0211     2.834     1.011     0.945  0.9848  0.1704  0.0353
 
              Baa    -0.0782     5.660     2.020     1.888  0.1004  0.2465  0.9639
    11 O(17)  Bbb    -0.0684     4.951     1.767     1.651  0.9892  0.0797 -0.1234
              Bcc     0.1466   -10.611    -3.786    -3.540 -0.1072  0.9659 -0.2358
 
              Baa    -0.0474    -1.827    -0.652    -0.610  0.2038  0.9688 -0.1411
    12 N(14)  Bbb     0.0190     0.733     0.262     0.244 -0.1280  0.1693  0.9772
              Bcc     0.0284     1.094     0.391     0.365  0.9706 -0.1811  0.1585
 
              Baa    -0.0030    -0.409    -0.146    -0.136  0.0791  0.9311 -0.3560
    13 C(13)  Bbb    -0.0014    -0.183    -0.065    -0.061 -0.1224  0.3635  0.9235
              Bcc     0.0044     0.592     0.211     0.198  0.9893 -0.0295  0.1427
 
              Baa    -0.0229   -11.476    -4.095    -3.828  0.3314  0.1485  0.9317
    14 F(19)  Bbb    -0.0183    -9.207    -3.285    -3.071  0.2582  0.9356 -0.2409
              Bcc     0.0412    20.684     7.380     6.899  0.9075 -0.3205 -0.2717
 
              Baa    -0.0063    -3.169    -1.131    -1.057 -0.2117  0.8045 -0.5550
    15 F(19)  Bbb     0.0006     0.315     0.112     0.105  0.3415  0.5929  0.7293
              Bcc     0.0057     2.854     1.018     0.952  0.9157 -0.0351 -0.4002
 
              Baa    -0.0012    -0.156    -0.056    -0.052  0.1403  0.9342 -0.3280
    16 C(13)  Bbb    -0.0005    -0.062    -0.022    -0.021  0.1689  0.3038  0.9376
              Bcc     0.0016     0.218     0.078     0.073  0.9756 -0.1870 -0.1152
 
              Baa    -0.0005    -0.244    -0.087    -0.081  0.1142 -0.6704  0.7332
    17 F(19)  Bbb    -0.0002    -0.098    -0.035    -0.033  0.2045  0.7381  0.6430
              Bcc     0.0007     0.342     0.122     0.114  0.9722 -0.0765 -0.2214
 
              Baa    -0.0012     0.085     0.030     0.028 -0.0047  0.9907 -0.1362
    18 O(17)  Bbb    -0.0008     0.061     0.022     0.020  0.1797  0.1348  0.9744
              Bcc     0.0020    -0.146    -0.052    -0.049  0.9837 -0.0199 -0.1787
 
              Baa    -0.0007    -0.090    -0.032    -0.030 -0.2413  0.9695  0.0433
    19 C(13)  Bbb    -0.0004    -0.058    -0.021    -0.019  0.2589  0.0213  0.9657
              Bcc     0.0011     0.148     0.053     0.049  0.9353  0.2442 -0.2561
 
              Baa    -0.0020    -1.017    -0.363    -0.339 -0.3524  0.8385  0.4156
    20 F(19)  Bbb    -0.0008    -0.379    -0.135    -0.127  0.7927  0.0314  0.6088
              Bcc     0.0028     1.396     0.498     0.466 -0.4974 -0.5439  0.6758
 
              Baa    -0.0004    -0.196    -0.070    -0.065  0.0999  0.1671  0.9809
    21 F(19)  Bbb    -0.0003    -0.150    -0.054    -0.050 -0.3326  0.9347 -0.1253
              Bcc     0.0007     0.346     0.124     0.116  0.9378  0.3137 -0.1489
 
              Baa    -0.0005    -0.239    -0.085    -0.080  0.3932 -0.5936  0.7021
    22 F(19)  Bbb    -0.0004    -0.210    -0.075    -0.070  0.0472  0.7757  0.6294
              Bcc     0.0009     0.450     0.160     0.150  0.9182  0.2143 -0.3330
 
              Baa    -0.0008    -0.114    -0.041    -0.038  0.3413  0.7930 -0.5046
    23 C(13)  Bbb    -0.0005    -0.067    -0.024    -0.022  0.2454  0.4431  0.8622
              Bcc     0.0014     0.181     0.065     0.060  0.9074 -0.4181 -0.0434
 
              Baa    -0.0012    -0.593    -0.212    -0.198  0.6001  0.7898  0.1272
    24 F(19)  Bbb    -0.0004    -0.182    -0.065    -0.061 -0.1870 -0.0161  0.9822
              Bcc     0.0015     0.775     0.276     0.258  0.7778 -0.6132  0.1381
 
              Baa    -0.0005    -0.254    -0.091    -0.085  0.3621  0.7203 -0.5916
    25 F(19)  Bbb    -0.0004    -0.192    -0.069    -0.064  0.2553  0.5338  0.8062
              Bcc     0.0009     0.446     0.159     0.149  0.8965 -0.4429  0.0093
 
              Baa    -0.0018    -0.897    -0.320    -0.299  0.0170 -0.3417  0.9397
    26 F(19)  Bbb    -0.0001    -0.060    -0.021    -0.020  0.9795 -0.1831 -0.0843
              Bcc     0.0019     0.957     0.341     0.319  0.2008  0.9218  0.3315
 
              Baa    -0.1446   -19.408    -6.925    -6.474 -0.0374  0.9993  0.0036
    27 C(13)  Bbb     0.0509     6.824     2.435     2.276  0.9644  0.0352  0.2620
              Bcc     0.0938    12.584     4.490     4.197 -0.2617 -0.0133  0.9651
 
              Baa    -0.5487    39.703    14.167    13.243  0.9056  0.4066 -0.1212
    28 O(17)  Bbb    -0.5132    37.133    13.250    12.386  0.1845 -0.1202  0.9755
              Bcc     1.0619   -76.836   -27.417   -25.630 -0.3820  0.9057  0.1839
 
              Baa    -0.0017    -0.922    -0.329    -0.308 -0.1807 -0.6905  0.7004
    29 H(1)   Bbb    -0.0015    -0.807    -0.288    -0.269 -0.4065  0.7009  0.5862
              Bcc     0.0032     1.729     0.617     0.577  0.8956  0.1788  0.4073
 
              Baa    -0.0027    -1.461    -0.521    -0.487 -0.5458  0.0174  0.8378
    30 H(1)   Bbb    -0.0002    -0.119    -0.043    -0.040 -0.3832  0.8839 -0.2680
              Bcc     0.0030     1.581     0.564     0.527  0.7452  0.4673  0.4757
 
              Baa    -0.0020    -1.059    -0.378    -0.353  0.1711  0.9838 -0.0543
    31 H(1)   Bbb    -0.0009    -0.468    -0.167    -0.156  0.7576 -0.1666 -0.6311
              Bcc     0.0029     1.527     0.545     0.509  0.6299 -0.0669  0.7738
 
              Baa    -0.0045    -2.427    -0.866    -0.809  0.1740  0.7302  0.6607
    32 H(1)   Bbb    -0.0016    -0.847    -0.302    -0.282 -0.2746  0.6803 -0.6795
              Bcc     0.0061     3.273     1.168     1.092  0.9457  0.0632 -0.3189
 
              Baa    -0.0050    -2.674    -0.954    -0.892 -0.1914  0.0452  0.9805
    33 H(1)   Bbb    -0.0021    -1.137    -0.406    -0.379  0.9126  0.3759  0.1608
              Bcc     0.0071     3.811     1.360     1.271 -0.3613  0.9256 -0.1132
 
              Baa    -0.0125    -6.685    -2.385    -2.230  0.4297  0.7042  0.5652
    34 H(1)   Bbb     0.0034     1.806     0.645     0.603  0.8223 -0.5638  0.0773
              Bcc     0.0091     4.878     1.741     1.627 -0.3731 -0.4315  0.8213
 
              Baa    -0.0115    -6.134    -2.189    -2.046  0.6842  0.5285 -0.5026
    35 H(1)   Bbb     0.0001     0.068     0.024     0.023  0.6816 -0.2180  0.6985
              Bcc     0.0114     6.066     2.164     2.023 -0.2596  0.8205  0.5093
 
              Baa    -0.0104    -5.547    -1.979    -1.850 -0.3599  0.9232 -0.1348
    36 H(1)   Bbb    -0.0051    -2.723    -0.972    -0.908  0.5531  0.3275  0.7661
              Bcc     0.0155     8.270     2.951     2.758  0.7514  0.2011 -0.6285
 
              Baa    -0.0115    -6.116    -2.182    -2.040 -0.4429  0.8583 -0.2593
    37 H(1)   Bbb    -0.0032    -1.693    -0.604    -0.565  0.8411  0.2975 -0.4518
              Bcc     0.0146     7.809     2.787     2.605  0.3106  0.4182  0.8536
 
              Baa    -0.0033    -1.761    -0.628    -0.587 -0.1679  0.8826 -0.4392
    38 H(1)   Bbb     0.0000     0.021     0.007     0.007  0.9373  0.0049 -0.3485
              Bcc     0.0033     1.740     0.621     0.580  0.3054  0.4702  0.8281
 
              Baa    -0.0023    -1.239    -0.442    -0.413 -0.2281  0.8601 -0.4563
    39 H(1)   Bbb    -0.0009    -0.469    -0.167    -0.157 -0.5910  0.2501  0.7669
              Bcc     0.0032     1.708     0.610     0.570  0.7737  0.4446  0.4513
 
              Baa    -0.0024    -1.285    -0.459    -0.429  0.7184 -0.4067 -0.5644
    40 H(1)   Bbb    -0.0013    -0.690    -0.246    -0.230  0.5148  0.8564  0.0382
              Bcc     0.0037     1.975     0.705     0.659  0.4678 -0.3180  0.8246
 

 ---------------------------------------------------------------------------------

 No NMR shielding tensors so no spin-rotation constants.
 Leave Link  601 at Sun Mar  3 17:40:02 2024, MaxMem=  5368709120 cpu:         6.9
 (Enter /home/k0335/k033513/app/g09/l9999.exe)
 1\1\GINC-C24U18N2\SP\UCAM-B3LYP\6-31G(d,p)\C12H12F9N3O4(1+,2)\K033513\
 03-Mar-2024\0\\#p CAM-B3LYP/6-31G(d,p) SCRF=(PCM,Solvent=Generic,Read)
  NoSymm out=wfn\\Title A1445123340_p1\\1,2\C,0,-5.0678,-0.076806,-1.75
 9646\C,0,-4.775369,0.744835,-0.513743\C,0,-3.282797,0.873057,-0.205009
 \C,0,-2.624779,-0.460782,0.165991\N,0,-1.223521,-0.286739,0.55201\C,0,
 -0.9474,0.082693,1.850049\O,0,-1.818304,0.136807,2.718732\N,0,0.366446
 ,0.40888,2.104641\C,0,0.710103,0.892877,3.432217\C,0,1.384245,0.192559
 ,1.205389\O,0,2.54968,0.450865,1.495492\N,0,1.050523,-0.33645,-0.00852
 \C,0,2.051168,-0.489642,-1.058489\F,0,1.597953,-1.463224,-1.915949\F,0
 ,2.04835,0.654043,-1.805755\C,0,3.537259,-0.879778,-0.771031\F,0,4.147
 765,-1.132797,-1.98255\O,0,4.415719,0.039907,-0.12474\C,0,4.473037,1.2
 9504,-0.751614\F,0,3.382568,2.019145,-0.442001\F,0,5.560596,1.949795,-
 0.299818\F,0,4.569432,1.178139,-2.086212\C,0,3.508644,-2.216061,-0.026
 29\F,0,2.892978,-3.188357,-0.739595\F,0,4.76117,-2.665087,0.237672\F,0
 ,2.861028,-2.151486,1.159768\C,0,-0.260276,-0.314644,-0.43699\O,0,-0.5
 76269,-0.299634,-1.626191\H,0,-6.139138,-0.050718,-1.983463\H,0,-4.783
 774,-1.124564,-1.625421\H,0,-4.530853,0.31974,-2.627113\H,0,-5.297965,
 0.306208,0.344213\H,0,-5.188154,1.750791,-0.655561\H,0,-2.765951,1.320
 726,-1.062586\H,0,-3.163485,1.579757,0.625741\H,0,-3.169528,-0.9257,0.
 99616\H,0,-2.67084,-1.15759,-0.678218\H,0,-0.144428,1.372786,3.917732\
 H,0,1.531709,1.613776,3.379139\H,0,1.030258,0.037634,4.035787\\Version
 =ES64L-G09RevD.01\HF=-1827.3666612\S2=0.772148\S2-1=0.\S2A=0.750256\RM
 SD=3.179e-09\Dipole=-5.5725717,0.5622562,1.7498752\Quadrupole=8.769858
 9,-5.6650483,-3.1048106,-0.4534742,4.6482351,1.6324184\PG=C01 [X(C12H1
 2F9N3O4)]\\@

 Writing a WFN file to "A1445123340/A1445123340_p1.wfn"


 RESEARCH IS WHAT I AM DOING WHEN I DON'T KNOW WHAT I AM DOING.
     -- WERNER VON BRAUN
 Job cpu time:       0 days  0 hours 42 minutes 23.8 seconds.
 File lengths (MBytes):  RWF=    374 Int=      0 D2E=      0 Chk=     13 Scr=      1
 Normal termination of Gaussian 09 at Sun Mar  3 17:40:03 2024.
