 Entering Gaussian System, Link 0=g09
 Initial command:
 /home/k0335/k033513/app/g09/l1.exe "/home/k0335/k033513/app/g09/scratch/Gau-1675871.inp" -scrdir="/home/k0335/k033513/app/g09/scratch/"
 Default is to use a total of  36 processors:
                               36 via shared-memory
                                1 via Linda
 Entering Link 1 = /home/k0335/k033513/app/g09/l1.exe PID=   1675872.
  
 Copyright (c) 1988,1990,1992,1993,1995,1998,2003,2009,2013,
            Gaussian, Inc.  All Rights Reserved.
  
 This is part of the Gaussian(R) 09 program.  It is based on
 the Gaussian(R) 03 system (copyright 2003, Gaussian, Inc.),
 the Gaussian(R) 98 system (copyright 1998, Gaussian, Inc.),
 the Gaussian(R) 94 system (copyright 1995, Gaussian, Inc.),
 the Gaussian 92(TM) system (copyright 1992, Gaussian, Inc.),
 the Gaussian 90(TM) system (copyright 1990, Gaussian, Inc.),
 the Gaussian 88(TM) system (copyright 1988, Gaussian, Inc.),
 the Gaussian 86(TM) system (copyright 1986, Carnegie Mellon
 University), and the Gaussian 82(TM) system (copyright 1983,
 Carnegie Mellon University). Gaussian is a federally registered
 trademark of Gaussian, Inc.
  
 This software contains proprietary and confidential information,
 including trade secrets, belonging to Gaussian, Inc.
  
 This software is provided under written license and may be
 used, copied, transmitted, or stored only in accord with that
 written license.
  
 The following legend is applicable only to US Government
 contracts under FAR:
  
                    RESTRICTED RIGHTS LEGEND
  
 Use, reproduction and disclosure by the US Government is
 subject to restrictions as set forth in subparagraphs (a)
 and (c) of the Commercial Computer Software - Restricted
 Rights clause in FAR 52.227-19.
  
 Gaussian, Inc.
 340 Quinnipiac St., Bldg. 40, Wallingford CT 06492
  
  
 ---------------------------------------------------------------
 Warning -- This program may not be used in any manner that
 competes with the business of Gaussian, Inc. or will provide
 assistance to any competitor of Gaussian, Inc.  The licensee
 of this program is prohibited from giving any competitor of
 Gaussian, Inc. access to this program.  By using this program,
 the user acknowledges that Gaussian, Inc. is engaged in the
 business of creating and licensing software in the field of
 computational chemistry and represents and warrants to the
 licensee that it is not a competitor of Gaussian, Inc. and that
 it will not use this program in any manner prohibited above.
 ---------------------------------------------------------------
  

 Cite this work as:
 Gaussian 09, Revision D.01,
 M. J. Frisch, G. W. Trucks, H. B. Schlegel, G. E. Scuseria, 
 M. A. Robb, J. R. Cheeseman, G. Scalmani, V. Barone, B. Mennucci, 
 G. A. Petersson, H. Nakatsuji, M. Caricato, X. Li, H. P. Hratchian, 
 A. F. Izmaylov, J. Bloino, G. Zheng, J. L. Sonnenberg, M. Hada, 
 M. Ehara, K. Toyota, R. Fukuda, J. Hasegawa, M. Ishida, T. Nakajima, 
 Y. Honda, O. Kitao, H. Nakai, T. Vreven, J. A. Montgomery, Jr., 
 J. E. Peralta, F. Ogliaro, M. Bearpark, J. J. Heyd, E. Brothers, 
 K. N. Kudin, V. N. Staroverov, T. Keith, R. Kobayashi, J. Normand, 
 K. Raghavachari, A. Rendell, J. C. Burant, S. S. Iyengar, J. Tomasi, 
 M. Cossi, N. Rega, J. M. Millam, M. Klene, J. E. Knox, J. B. Cross, 
 V. Bakken, C. Adamo, J. Jaramillo, R. Gomperts, R. E. Stratmann, 
 O. Yazyev, A. J. Austin, R. Cammi, C. Pomelli, J. W. Ochterski, 
 R. L. Martin, K. Morokuma, V. G. Zakrzewski, G. A. Voth, 
 P. Salvador, J. J. Dannenberg, S. Dapprich, A. D. Daniels, 
 O. Farkas, J. B. Foresman, J. V. Ortiz, J. Cioslowski, 
 and D. J. Fox, Gaussian, Inc., Wallingford CT, 2013.
 
 ******************************************
 Gaussian 09:  ES64L-G09RevD.01 24-Apr-2013
                 3-Feb-2025 
 ******************************************
 %nprocshared=24
 Will use up to   24 processors via shared memory.
 %mem=40GB
 %rwf=cytop/A0/A0_neu.rwf
 %nosave
 %chk=cytop/A0/A0_neu.chk
 ----------------------------------------------------------------------
 #p CAM-B3LYP/6-31G(d,p) SCRF=(PCM,Solvent=Generic,Read) NoSymm out=wfn
 ----------------------------------------------------------------------
 1/38=1,40=2/1;
 2/12=2,15=1,17=6,18=5,40=1/2;
 3/5=1,6=6,7=101,11=2,16=1,25=1,30=1,70=2203,72=-2,74=-40/1,2,3;
 4//1;
 5/5=2,38=5/2;
 6/7=2,8=2,9=2,10=2,28=1/1;
 99/5=1,6=100,9=1/99;
 Leave Link    1 at Mon Feb  3 21:35:31 2025, MaxMem=  5368709120 cpu:         1.8
 (Enter /home/k0335/k033513/app/g09/l101.exe)
 ------------
 Title A0_neu
 ------------
 Symbolic Z-matrix:
 Charge =  0 Multiplicity = 1
 F                    -0.51954  -0.38073  -1.49558 
 C                    -0.49006  -0.16273  -0.14995 
 C                    -0.76292   1.29767   0.13733 
 F                    -0.66699   1.54704   1.47194 
 C                    -2.11404   1.78916  -0.37782 
 F                    -2.25314   3.12404  -0.19438 
 F                    -2.26812   1.54754  -1.69797 
 F                    -3.14466   1.19877   0.26548 
 F                     0.23162   2.03941  -0.42799 
 C                     0.83539  -0.69681   0.41024 
 O                     0.6253   -2.08052   0.81143 
 C                    -0.71583  -2.38148   0.4687 
 F                    -1.19682  -3.3177    1.30599 
 F                    -0.6877   -2.90881  -0.77422 
 C                    -1.47256  -1.07857   0.51365 
 F                    -1.69823  -0.68771   1.7905 
 F                    -2.66224  -1.11359  -0.11113 
 C                     2.03998  -0.66933  -0.55043 
 F                     1.74912  -1.45956  -1.63049 
 C                     2.4232    0.73378  -0.9853 
 O                     3.06679   1.45125  -0.03946 
 O                     2.18365   1.24281  -2.0709 
 F                     3.10098  -1.29031   0.05713 
 F                     1.13249  -0.06069   1.57111 
 H                     3.26435   2.31706  -0.45973 
 
 NAtoms=     25 NQM=       25 NQMF=       0 NMMI=      0 NMMIF=      0
                NMic=       0 NMicF=      0.
                    Isotopes and Nuclear Properties:
 (Nuclear quadrupole moments (NQMom) in fm**2, nuclear magnetic moments (NMagM)
  in nuclear magnetons)

  Atom         1           2           3           4           5           6           7           8           9          10
 IAtWgt=          19          12          12          19          12          19          19          19          19          12
 AtmWgt=  18.9984033  12.0000000  12.0000000  18.9984033  12.0000000  18.9984033  18.9984033  18.9984033  18.9984033  12.0000000
 NucSpn=           1           0           0           1           0           1           1           1           1           0
 AtZEff=   0.0000000   0.0000000   0.0000000   0.0000000   0.0000000   0.0000000   0.0000000   0.0000000   0.0000000   0.0000000
 NQMom=    0.0000000   0.0000000   0.0000000   0.0000000   0.0000000   0.0000000   0.0000000   0.0000000   0.0000000   0.0000000
 NMagM=    2.6288670   0.0000000   0.0000000   2.6288670   0.0000000   2.6288670   2.6288670   2.6288670   2.6288670   0.0000000
 AtZNuc=   9.0000000   6.0000000   6.0000000   9.0000000   6.0000000   9.0000000   9.0000000   9.0000000   9.0000000   6.0000000

  Atom        11          12          13          14          15          16          17          18          19          20
 IAtWgt=          16          12          19          19          12          19          19          12          19          12
 AtmWgt=  15.9949146  12.0000000  18.9984033  18.9984033  12.0000000  18.9984033  18.9984033  12.0000000  18.9984033  12.0000000
 NucSpn=           0           0           1           1           0           1           1           0           1           0
 AtZEff=   0.0000000   0.0000000   0.0000000   0.0000000   0.0000000   0.0000000   0.0000000   0.0000000   0.0000000   0.0000000
 NQMom=    0.0000000   0.0000000   0.0000000   0.0000000   0.0000000   0.0000000   0.0000000   0.0000000   0.0000000   0.0000000
 NMagM=    0.0000000   0.0000000   2.6288670   2.6288670   0.0000000   2.6288670   2.6288670   0.0000000   2.6288670   0.0000000
 AtZNuc=   8.0000000   6.0000000   9.0000000   9.0000000   6.0000000   9.0000000   9.0000000   6.0000000   9.0000000   6.0000000

  Atom        21          22          23          24          25
 IAtWgt=          16          16          19          19           1
 AtmWgt=  15.9949146  15.9949146  18.9984033  18.9984033   1.0078250
 NucSpn=           0           0           1           1           1
 AtZEff=   0.0000000   0.0000000   0.0000000   0.0000000   0.0000000
 NQMom=    0.0000000   0.0000000   0.0000000   0.0000000   0.0000000
 NMagM=    0.0000000   0.0000000   2.6288670   2.6288670   2.7928460
 AtZNuc=   8.0000000   8.0000000   9.0000000   9.0000000   1.0000000
 Leave Link  101 at Mon Feb  3 21:35:31 2025, MaxMem=  5368709120 cpu:         0.6
 (Enter /home/k0335/k033513/app/g09/l202.exe)
                          Input orientation:                          
 ---------------------------------------------------------------------
 Center     Atomic      Atomic             Coordinates (Angstroms)
 Number     Number       Type             X           Y           Z
 ---------------------------------------------------------------------
      1          9           0       -0.519540   -0.380727   -1.495581
      2          6           0       -0.490062   -0.162729   -0.149953
      3          6           0       -0.762921    1.297667    0.137332
      4          9           0       -0.666994    1.547042    1.471935
      5          6           0       -2.114043    1.789158   -0.377820
      6          9           0       -2.253137    3.124044   -0.194377
      7          9           0       -2.268116    1.547539   -1.697973
      8          9           0       -3.144662    1.198772    0.265477
      9          9           0        0.231623    2.039411   -0.427986
     10          6           0        0.835385   -0.696809    0.410236
     11          8           0        0.625301   -2.080524    0.811430
     12          6           0       -0.715834   -2.381483    0.468695
     13          9           0       -1.196822   -3.317696    1.305992
     14          9           0       -0.687699   -2.908811   -0.774219
     15          6           0       -1.472559   -1.078568    0.513646
     16          9           0       -1.698232   -0.687709    1.790499
     17          9           0       -2.662239   -1.113588   -0.111128
     18          6           0        2.039975   -0.669329   -0.550434
     19          9           0        1.749122   -1.459561   -1.630491
     20          6           0        2.423200    0.733782   -0.985297
     21          8           0        3.066792    1.451246   -0.039456
     22          8           0        2.183650    1.242811   -2.070900
     23          9           0        3.100980   -1.290310    0.057134
     24          9           0        1.132488   -0.060689    1.571108
     25          1           0        3.264345    2.317060   -0.459731
 ---------------------------------------------------------------------
                    Distance matrix (angstroms):
                    1          2          3          4          5
     1  F    0.000000
     2  C    1.363491   0.000000
     3  C    2.354282   1.513189   0.000000
     4  F    3.541777   2.363291   1.361086   0.000000
     5  C    2.915515   2.549333   1.527244   2.360967   0.000000
     6  F    4.120911   3.730051   2.380426   2.789154   1.354592
     7  F    2.610879   2.912535   2.386712   3.551325   1.350897
     8  F    3.533753   3.012170   2.387235   2.777710   1.350764
     9  F    2.749741   2.333999   1.363410   2.158620   2.359511
    10  C    2.359633   1.534882   2.570407   2.901588   3.937028
    11  O    3.085818   2.417898   3.713993   3.907113   4.888022
    12  C    2.810682   2.314426   3.694342   4.054896   4.479489
    13  F    4.115010   3.545857   4.780754   4.896318   5.454950
    14  F    2.634359   2.823072   4.304770   4.990016   4.925698
    15  C    2.330712   1.498141   2.508324   2.908794   3.070841
    16  F    3.504551   2.345343   2.747633   2.481743   3.318038
    17  F    2.654233   2.371496   3.079495   3.683211   2.966071
    18  C    2.743667   2.611152   3.492610   4.041034   4.830095
    19  F    2.515733   2.981226   4.127695   4.949982   5.200712
    20  C    3.187827   3.160479   3.424855   4.030965   4.697810
    21  O    4.282313   3.907472   3.836866   4.029223   5.202857
    22  O    3.205324   3.579709   3.682605   4.557456   4.651363
    23  F    4.043072   3.769603   4.651214   4.924414   6.071966
    24  F    3.498028   2.367516   2.737411   2.415113   4.214287
    25  H    4.761179   4.510087   4.196965   4.447436   5.404854
                    6          7          8          9         10
     6  F    0.000000
     7  F    2.178622   0.000000
     8  F    2.170934   2.178327   0.000000
     9  F    2.721219   2.846665   3.547797   0.000000
    10  C    4.950095   4.371883   4.410777   2.924730   0.000000
    11  O    6.031963   5.275586   5.026377   4.320301   1.455939
    12  C    5.754458   4.747762   4.331135   4.609340   2.290813
    13  F    6.697979   5.817387   5.027448   5.809108   3.435301
    14  F    6.259565   4.817686   4.897946   5.044792   2.935246
    15  C    4.332730   3.524288   2.836158   3.675962   2.341589
    16  F    4.333257   4.182169   2.824299   4.010386   2.885208
    17  F    4.258147   3.123301   2.391981   4.291415   3.560744
    18  C    5.739971   4.979056   5.570994   3.259203   1.540999
    19  F    6.252194   5.018506   5.883073   3.998953   2.362472
    20  C    5.311030   4.814411   5.725534   2.611182   2.552501
    21  O    5.578880   5.587593   6.224057   2.921485   3.129783
    22  O    5.171601   4.477740   5.818205   2.672854   3.425782
    23  F    6.943799   6.321470   6.726588   4.422171   2.368511
    24  F    4.972114   4.983713   4.645958   3.036174   1.356666
    25  H    5.582494   5.721322   6.546134   3.045570   3.967379
                   11         12         13         14         15
    11  O    0.000000
    12  C    1.416576   0.000000
    13  F    2.257281   1.344957   0.000000
    14  F    2.219079   1.350445   2.180291   0.000000
    15  C    2.343845   1.507395   2.391137   2.371580   0.000000
    16  F    2.880506   2.362444   2.720844   3.540092   1.354272
    17  F    3.548802   2.394211   3.002294   2.749786   1.344213
    18  C    2.418150   3.400673   4.575699   3.536321   3.692917
    19  F    2.758903   3.366382   4.555676   2.961693   3.888664
    20  C    3.792227   4.655374   5.896528   4.794865   4.550646
    21  O    4.377018   5.408908   6.536929   5.800532   5.226049
    22  O    4.666994   5.290752   6.605241   5.211717   5.043465
    23  F    2.705991   3.991004   4.913353   4.202949   4.601141
    24  F    2.216773   3.165074   4.012987   4.114054   2.990079
    25  H    5.283857   6.227368   7.400693   6.559518   5.908977
                   16         17         18         19         20
    16  F    0.000000
    17  F    2.174136   0.000000
    18  C    4.410725   4.743540   0.000000
    19  F    4.917639   4.678490   1.369520   0.000000
    20  C    5.168354   5.480752   1.518120   2.383571   0.000000
    21  O    5.534376   6.277365   2.410869   3.569376   1.350400
    22  O    5.805714   5.733756   2.447190   2.772290   1.222714
    23  F    5.138105   5.768382   1.371309   2.168927   2.375499
    24  F    2.907621   4.282344   2.386402   3.547861   2.971923
    25  H    6.222487   6.856768   3.228905   4.234318   1.868292
                   21         22         23         24         25
    21  O    0.000000
    22  O    2.224893   0.000000
    23  F    2.743470   3.433180   0.000000
    24  F    2.936221   4.008525   2.771109   0.000000
    25  H    0.982493   2.217606   3.647870   3.784549   0.000000
 Symmetry turned off by external request.
 Stoichiometry    C8HF13O3
 Framework group  C1[X(C8HF13O3)]
 Deg. of freedom    69
 Full point group                 C1      NOp   1
 Rotational constants (GHZ):      0.3319411      0.2794219      0.1983755
 Leave Link  202 at Mon Feb  3 21:35:31 2025, MaxMem=  5368709120 cpu:         0.1
 (Enter /home/k0335/k033513/app/g09/l301.exe)
 Standard basis: 6-31G(d,p) (6D, 7F)
 Ernie: Thresh=  0.10000D-02 Tol=  0.10000D-05 Strict=F.
   365 basis functions,   679 primitive gaussians,   365 cartesian basis functions
    95 alpha electrons       95 beta electrons
       nuclear repulsion energy      2876.3601381705 Hartrees.
 IExCor=20419 DFT=T Ex+Corr=CAM-B3LYP ExCW=0 ScaHFX=  1.000000
 ScaDFX=  1.000000  1.000000  1.000000  0.810000 ScalE2=  1.000000  1.000000
 IRadAn=      0 IRanWt=     -1 IRanGd=            0 ICorTp=0 IEmpDi=  4
  HFx wShort=  0.000000 wLong=  0.330000 cFull=  0.190000 cShort=  0.000000 cLong=  0.460000
  DFx wShort=  0.000000 wLong=  0.330000 cFull=  0.190000 cShort=  0.000000 cLong=  0.460000
 NAtoms=   25 NActive=   25 NUniq=   25 SFac= 1.00D+00 NAtFMM=   60 NAOKFM=F Big=F
 Integral buffers will be    131072 words long.
 Raffenetti 2 integral format.
 Two-electron integral symmetry is turned off.
 Using the following non-standard input for PCM:
 eps=2.05
 --- end of non-standard input.
 ------------------------------------------------------------------------------
 Polarizable Continuum Model (PCM)
 =================================
 Model                : PCM (using non-symmetric T matrix).
 Atomic radii         : UFF (Universal Force Field).
 Polarization charges : Total charges.
 Charge compensation  : None.
 Solution method      : On-the-fly selection.
 Cavity type          : Scaled VdW (van der Waals Surface) (Alpha=1.100).
 Cavity algorithm     : GePol (No added spheres)
                        Default sphere list used, NSphG=   25.
                        Lebedev-Laikov grids with approx.  5.0 points / Ang**2.
                        Smoothing algorithm: Karplus/York (Gamma=1.0000).
                        Polarization charges: spherical gaussians, with
                                              point-specific exponents (IZeta= 3).
                        Self-potential: point-specific (ISelfS= 7).
                        Self-field    : sphere-specific E.n sum rule (ISelfD= 2).
 Solvent              : Generic,
                        Eps                           =   2.050000
                        Eps(infinity)                 =   0.000000
                        RSolv                         =   0.000000 Ang.
                        Molar volume                  =   0.000000 cm**3/mol
                        Thermal expansion coefficient =   0.000000 K**-1
                        Absolute temperature          = 298.150000 K
                        Numeral density               =   0.000000 Ang**-3
                        Hydrogen bond acidity         =   0.000000
                        Hydrogen bond basicity        =   0.000000
                        Surface tension at interface  =   0.000000 (cal/mol)*Ang**-2
                        Carbon aromaticity            =   0.000000
                        Electronegative halogenicity  =   0.000000
 ------------------------------------------------------------------------------
 GePol: Number of generator spheres                  =      25
 GePol: Total number of spheres                      =      25
 GePol: Number of exposed spheres                    =      24 ( 96.00%)
 GePol: Number of points                             =    2191
 GePol: Average weight of points                     =       0.13
 GePol: Minimum weight of points                     =   0.63D-09
 GePol: Maximum weight of points                     =    0.20322
 GePol: Number of points with low weight             =      95
 GePol: Fraction of low-weight points (<1% of avg)   =       4.34%
 GePol: Cavity surface area                          =    278.441 Ang**2
 GePol: Cavity volume                                =    315.361 Ang**3
 Leave Link  301 at Mon Feb  3 21:35:32 2025, MaxMem=  5368709120 cpu:         0.7
 (Enter /home/k0335/k033513/app/g09/l302.exe)
 NPDir=0 NMtPBC=     1 NCelOv=     1 NCel=       1 NClECP=     1 NCelD=      1
         NCelK=      1 NCelE2=     1 NClLst=     1 CellRange=     0.0.
 One-electron integrals computed using PRISM.
 NBasis=   365 RedAO= T EigKep=  8.85D-04  NBF=   365
 NBsUse=   365 1.00D-06 EigRej= -1.00D+00 NBFU=   365
 Precomputing XC quadrature grid using
 IXCGrd= 4 IRadAn=           0 IRanWt=          -1 IRanGd=           0 AccXCQ= 0.00D+00.
 Generated NRdTot=       0 NPtTot=           0 NUsed=           0 NTot=          32
 NSgBfM=   363   363   363   363   363 MxSgAt=    25 MxSgA2=    25.
 Leave Link  302 at Mon Feb  3 21:35:32 2025, MaxMem=  5368709120 cpu:         4.7
 (Enter /home/k0335/k033513/app/g09/l303.exe)
 DipDrv:  MaxL=1.
 Leave Link  303 at Mon Feb  3 21:35:32 2025, MaxMem=  5368709120 cpu:         0.4
 (Enter /home/k0335/k033513/app/g09/l401.exe)
 ExpMin= 1.61D-01 ExpMax= 7.00D+03 ExpMxC= 1.05D+03 IAcc=1 IRadAn=         1 AccDes= 0.00D+00
 Harris functional with IExCor=20419 and IRadAn=       1 diagonalized for initial guess.
 HarFok:  IExCor=20419 AccDes= 0.00D+00 IRadAn=         1 IDoV= 1 UseB2=F ITyADJ=14
 ICtDFT=  3500011 ScaDFX=  1.000000  1.000000  1.000000  1.000000
 FoFCou: FMM=F IPFlag=           0 FMFlag=      100000 FMFlg1=           0
         NFxFlg=           0 DoJE=T BraDBF=F KetDBF=T FulRan=T
         wScrn=  0.000000 ICntrl=     500 IOpCl=  0 I1Cent=   200000004 NGrid=           0
         NMat0=    1 NMatS0=      1 NMatT0=    0 NMatD0=    1 NMtDS0=    0 NMtDT0=    0
 Symmetry not used in FoFCou.
 Harris En= -1774.90904978068    
 JPrj=0 DoOrth=F DoCkMO=F.
 Leave Link  401 at Mon Feb  3 21:35:33 2025, MaxMem=  5368709120 cpu:         5.8
 (Enter /home/k0335/k033513/app/g09/l502.exe)
 Closed shell SCF:
 Using DIIS extrapolation, IDIIS=  1040.
 Two-electron integral symmetry not used.
 Keep R1 ints in memory in canonical form, NReq=4486581810.
 IVT=      429225 IEndB=      429225 NGot=  5368709120 MDV=   906641076
 LenX=   906641076 LenY=   906507410
 Requested convergence on RMS density matrix=1.00D-08 within 128 cycles.
 Requested convergence on MAX density matrix=1.00D-06.
 Requested convergence on             energy=1.00D-06.
 No special actions if energy rises.
 FoFCou: FMM=F IPFlag=           0 FMFlag=           0 FMFlg1=           0
         NFxFlg=           0 DoJE=F BraDBF=F KetDBF=F FulRan=T
         wScrn=  0.000000 ICntrl=     600 IOpCl=  0 I1Cent=           0 NGrid=           0
         NMat0=    1 NMatS0=  66795 NMatT0=    0 NMatD0=    1 NMtDS0=    0 NMtDT0=    0
 Symmetry not used in FoFCou.

 Cycle   1  Pass 1  IDiag  1:
 Inv3:  Mode=1 IEnd=    14401443.
 Iteration    1 A*A^-1 deviation from unit magnitude is 5.11D-15 for   2184.
 Iteration    1 A*A^-1 deviation from orthogonality  is 2.85D-15 for   2178    287.
 Iteration    1 A^-1*A deviation from unit magnitude is 5.11D-15 for   2184.
 Iteration    1 A^-1*A deviation from orthogonality  is 1.68D-15 for   2179   1301.
 E= -1827.95479389806    
 DIIS: error= 4.47D-02 at cycle   1 NSaved=   1.
 NSaved= 1 IEnMin= 1 EnMin= -1827.95479389806     IErMin= 1 ErrMin= 4.47D-02
 ErrMax= 4.47D-02  0.00D+00 EMaxC= 1.00D-01 BMatC= 1.51D+00 BMatP= 1.51D+00
 IDIUse=3 WtCom= 5.53D-01 WtEn= 4.47D-01
 Coeff-Com:  0.100D+01
 Coeff-En:   0.100D+01
 Coeff:      0.100D+01
 Gap=     0.469 Goal=   None    Shift=    0.000
 GapD=    0.469 DampG=2.000 DampE=0.500 DampFc=1.0000 IDamp=-1.
 RMSDP=3.98D-03 MaxDP=1.75D-01              OVMax= 1.32D-01

 Cycle   2  Pass 1  IDiag  1:
 E= -1828.18213302050     Delta-E=       -0.227339122444 Rises=F Damp=F
 DIIS: error= 1.84D-02 at cycle   2 NSaved=   2.
 NSaved= 2 IEnMin= 2 EnMin= -1828.18213302050     IErMin= 2 ErrMin= 1.84D-02
 ErrMax= 1.84D-02  0.00D+00 EMaxC= 1.00D-01 BMatC= 5.99D-01 BMatP= 1.51D+00
 IDIUse=3 WtCom= 8.16D-01 WtEn= 1.84D-01
 Coeff-Com:  0.369D+00 0.631D+00
 Coeff-En:   0.338D+00 0.662D+00
 Coeff:      0.364D+00 0.636D+00
 Gap=     0.424 Goal=   None    Shift=    0.000
 RMSDP=1.77D-03 MaxDP=8.71D-02 DE=-2.27D-01 OVMax= 9.01D-02

 Cycle   3  Pass 1  IDiag  1:
 E= -1828.45438460378     Delta-E=       -0.272251583274 Rises=F Damp=F
 DIIS: error= 8.25D-03 at cycle   3 NSaved=   3.
 NSaved= 3 IEnMin= 3 EnMin= -1828.45438460378     IErMin= 3 ErrMin= 8.25D-03
 ErrMax= 8.25D-03  0.00D+00 EMaxC= 1.00D-01 BMatC= 9.83D-02 BMatP= 5.99D-01
 IDIUse=3 WtCom= 9.17D-01 WtEn= 8.25D-02
 Coeff-Com:  0.896D-01 0.316D+00 0.594D+00
 Coeff-En:   0.000D+00 0.102D+00 0.898D+00
 Coeff:      0.822D-01 0.299D+00 0.619D+00
 Gap=     0.374 Goal=   None    Shift=    0.000
 RMSDP=8.00D-04 MaxDP=4.09D-02 DE=-2.72D-01 OVMax= 6.26D-02

 Cycle   4  Pass 1  IDiag  1:
 E= -1828.51205579949     Delta-E=       -0.057671195717 Rises=F Damp=F
 DIIS: error= 2.64D-03 at cycle   4 NSaved=   4.
 NSaved= 4 IEnMin= 4 EnMin= -1828.51205579949     IErMin= 4 ErrMin= 2.64D-03
 ErrMax= 2.64D-03  0.00D+00 EMaxC= 1.00D-01 BMatC= 7.96D-03 BMatP= 9.83D-02
 IDIUse=3 WtCom= 9.74D-01 WtEn= 2.64D-02
 Coeff-Com:  0.460D-02 0.720D-01 0.292D+00 0.631D+00
 Coeff-En:   0.000D+00 0.000D+00 0.178D-01 0.982D+00
 Coeff:      0.448D-02 0.701D-01 0.285D+00 0.641D+00
 Gap=     0.378 Goal=   None    Shift=    0.000
 RMSDP=2.14D-04 MaxDP=1.57D-02 DE=-5.77D-02 OVMax= 2.40D-02

 Cycle   5  Pass 1  IDiag  1:
 E= -1828.51742578883     Delta-E=       -0.005369989335 Rises=F Damp=F
 DIIS: error= 8.23D-04 at cycle   5 NSaved=   5.
 NSaved= 5 IEnMin= 5 EnMin= -1828.51742578883     IErMin= 5 ErrMin= 8.23D-04
 ErrMax= 8.23D-04  0.00D+00 EMaxC= 1.00D-01 BMatC= 5.85D-04 BMatP= 7.96D-03
 IDIUse=3 WtCom= 9.92D-01 WtEn= 8.23D-03
 Coeff-Com: -0.376D-03 0.305D-01 0.150D+00 0.380D+00 0.441D+00
 Coeff-En:   0.000D+00 0.000D+00 0.000D+00 0.000D+00 0.100D+01
 Coeff:     -0.373D-03 0.302D-01 0.149D+00 0.376D+00 0.445D+00
 Gap=     0.374 Goal=   None    Shift=    0.000
 RMSDP=4.99D-05 MaxDP=4.55D-03 DE=-5.37D-03 OVMax= 8.02D-03

 Cycle   6  Pass 1  IDiag  1:
 E= -1828.51783537441     Delta-E=       -0.000409585581 Rises=F Damp=F
 DIIS: error= 1.06D-04 at cycle   6 NSaved=   6.
 NSaved= 6 IEnMin= 6 EnMin= -1828.51783537441     IErMin= 6 ErrMin= 1.06D-04
 ErrMax= 1.06D-04  0.00D+00 EMaxC= 1.00D-01 BMatC= 1.04D-05 BMatP= 5.85D-04
 IDIUse=3 WtCom= 9.99D-01 WtEn= 1.06D-03
 Coeff-Com: -0.488D-03-0.817D-03 0.362D-02 0.163D-01 0.115D+00 0.866D+00
 Coeff-En:   0.000D+00 0.000D+00 0.000D+00 0.000D+00 0.000D+00 0.100D+01
 Coeff:     -0.487D-03-0.816D-03 0.362D-02 0.163D-01 0.115D+00 0.866D+00
 Gap=     0.375 Goal=   None    Shift=    0.000
 RMSDP=1.21D-05 MaxDP=6.95D-04 DE=-4.10D-04 OVMax= 1.12D-03

 Cycle   7  Pass 1  IDiag  1:
 E= -1828.51784374028     Delta-E=       -0.000008365865 Rises=F Damp=F
 DIIS: error= 3.66D-05 at cycle   7 NSaved=   7.
 NSaved= 7 IEnMin= 7 EnMin= -1828.51784374028     IErMin= 7 ErrMin= 3.66D-05
 ErrMax= 3.66D-05  0.00D+00 EMaxC= 1.00D-01 BMatC= 2.42D-06 BMatP= 1.04D-05
 IDIUse=1 WtCom= 1.00D+00 WtEn= 0.00D+00
 Coeff-Com: -0.194D-03-0.309D-02-0.109D-01-0.244D-01 0.243D-01 0.436D+00
 Coeff-Com:  0.578D+00
 Coeff:     -0.194D-03-0.309D-02-0.109D-01-0.244D-01 0.243D-01 0.436D+00
 Coeff:      0.578D+00
 Gap=     0.374 Goal=   None    Shift=    0.000
 RMSDP=3.76D-06 MaxDP=2.04D-04 DE=-8.37D-06 OVMax= 3.47D-04

 Cycle   8  Pass 1  IDiag  1:
 E= -1828.51784549895     Delta-E=       -0.000001758677 Rises=F Damp=F
 DIIS: error= 1.00D-05 at cycle   8 NSaved=   8.
 NSaved= 8 IEnMin= 8 EnMin= -1828.51784549895     IErMin= 8 ErrMin= 1.00D-05
 ErrMax= 1.00D-05  0.00D+00 EMaxC= 1.00D-01 BMatC= 1.18D-07 BMatP= 2.42D-06
 IDIUse=1 WtCom= 1.00D+00 WtEn= 0.00D+00
 Coeff-Com: -0.403D-05-0.944D-03-0.401D-02-0.105D-01-0.340D-02 0.331D-01
 Coeff-Com:  0.180D+00 0.806D+00
 Coeff:     -0.403D-05-0.944D-03-0.401D-02-0.105D-01-0.340D-02 0.331D-01
 Coeff:      0.180D+00 0.806D+00
 Gap=     0.375 Goal=   None    Shift=    0.000
 RMSDP=1.38D-06 MaxDP=7.34D-05 DE=-1.76D-06 OVMax= 1.50D-04

 Cycle   9  Pass 1  IDiag  1:
 E= -1828.51784563300     Delta-E=       -0.000000134043 Rises=F Damp=F
 DIIS: error= 2.97D-06 at cycle   9 NSaved=   9.
 NSaved= 9 IEnMin= 9 EnMin= -1828.51784563300     IErMin= 9 ErrMin= 2.97D-06
 ErrMax= 2.97D-06  0.00D+00 EMaxC= 1.00D-01 BMatC= 1.11D-08 BMatP= 1.18D-07
 IDIUse=1 WtCom= 1.00D+00 WtEn= 0.00D+00
 Coeff-Com:  0.165D-04-0.278D-05-0.214D-03-0.105D-02-0.241D-02-0.339D-01
 Coeff-Com: -0.444D-04 0.214D+00 0.823D+00
 Coeff:      0.165D-04-0.278D-05-0.214D-03-0.105D-02-0.241D-02-0.339D-01
 Coeff:     -0.444D-04 0.214D+00 0.823D+00
 Gap=     0.375 Goal=   None    Shift=    0.000
 RMSDP=5.25D-07 MaxDP=2.73D-05 DE=-1.34D-07 OVMax= 5.98D-05

 Cycle  10  Pass 1  IDiag  1:
 E= -1828.51784564669     Delta-E=       -0.000000013694 Rises=F Damp=F
 DIIS: error= 1.42D-06 at cycle  10 NSaved=  10.
 NSaved=10 IEnMin=10 EnMin= -1828.51784564669     IErMin=10 ErrMin= 1.42D-06
 ErrMax= 1.42D-06  0.00D+00 EMaxC= 1.00D-01 BMatC= 2.62D-09 BMatP= 1.11D-08
 IDIUse=1 WtCom= 1.00D+00 WtEn= 0.00D+00
 Coeff-Com:  0.779D-05 0.134D-03 0.479D-03 0.100D-02-0.189D-03-0.202D-01
 Coeff-Com: -0.239D-01-0.182D-01 0.383D+00 0.678D+00
 Coeff:      0.779D-05 0.134D-03 0.479D-03 0.100D-02-0.189D-03-0.202D-01
 Coeff:     -0.239D-01-0.182D-01 0.383D+00 0.678D+00
 Gap=     0.375 Goal=   None    Shift=    0.000
 RMSDP=1.83D-07 MaxDP=8.97D-06 DE=-1.37D-08 OVMax= 1.90D-05

 Cycle  11  Pass 1  IDiag  1:
 E= -1828.51784564899     Delta-E=       -0.000000002302 Rises=F Damp=F
 DIIS: error= 3.34D-07 at cycle  11 NSaved=  11.
 NSaved=11 IEnMin=11 EnMin= -1828.51784564899     IErMin=11 ErrMin= 3.34D-07
 ErrMax= 3.34D-07  0.00D+00 EMaxC= 1.00D-01 BMatC= 2.08D-10 BMatP= 2.62D-09
 IDIUse=1 WtCom= 1.00D+00 WtEn= 0.00D+00
 Coeff-Com:  0.141D-05 0.538D-04 0.212D-03 0.502D-03 0.301D-03-0.471D-02
 Coeff-Com: -0.867D-02-0.277D-01 0.682D-01 0.258D+00 0.714D+00
 Coeff:      0.141D-05 0.538D-04 0.212D-03 0.502D-03 0.301D-03-0.471D-02
 Coeff:     -0.867D-02-0.277D-01 0.682D-01 0.258D+00 0.714D+00
 Gap=     0.375 Goal=   None    Shift=    0.000
 RMSDP=5.30D-08 MaxDP=2.39D-06 DE=-2.30D-09 OVMax= 5.70D-06

 Cycle  12  Pass 1  IDiag  1:
 E= -1828.51784564928     Delta-E=       -0.000000000291 Rises=F Damp=F
 DIIS: error= 1.35D-07 at cycle  12 NSaved=  12.
 NSaved=12 IEnMin=12 EnMin= -1828.51784564928     IErMin=12 ErrMin= 1.35D-07
 ErrMax= 1.35D-07  0.00D+00 EMaxC= 1.00D-01 BMatC= 2.42D-11 BMatP= 2.08D-10
 IDIUse=1 WtCom= 1.00D+00 WtEn= 0.00D+00
 Coeff-Com: -0.755D-06-0.236D-05-0.162D-05 0.162D-04 0.201D-03 0.159D-02
 Coeff-Com:  0.116D-02-0.640D-02-0.377D-01-0.237D-01 0.236D+00 0.829D+00
 Coeff:     -0.755D-06-0.236D-05-0.162D-05 0.162D-04 0.201D-03 0.159D-02
 Coeff:      0.116D-02-0.640D-02-0.377D-01-0.237D-01 0.236D+00 0.829D+00
 Gap=     0.375 Goal=   None    Shift=    0.000
 RMSDP=2.17D-08 MaxDP=8.56D-07 DE=-2.91D-10 OVMax= 2.80D-06

 Cycle  13  Pass 1  IDiag  1:
 E= -1828.51784564931     Delta-E=       -0.000000000030 Rises=F Damp=F
 DIIS: error= 3.35D-08 at cycle  13 NSaved=  13.
 NSaved=13 IEnMin=13 EnMin= -1828.51784564931     IErMin=13 ErrMin= 3.35D-08
 ErrMax= 3.35D-08  0.00D+00 EMaxC= 1.00D-01 BMatC= 1.93D-12 BMatP= 2.42D-11
 IDIUse=1 WtCom= 1.00D+00 WtEn= 0.00D+00
 Coeff-Com: -0.327D-06-0.440D-05-0.145D-04-0.297D-04 0.512D-04 0.792D-03
 Coeff-Com:  0.940D-03-0.381D-03-0.167D-01-0.242D-01 0.278D-01 0.277D+00
 Coeff-Com:  0.735D+00
 Coeff:     -0.327D-06-0.440D-05-0.145D-04-0.297D-04 0.512D-04 0.792D-03
 Coeff:      0.940D-03-0.381D-03-0.167D-01-0.242D-01 0.278D-01 0.277D+00
 Coeff:      0.735D+00
 Gap=     0.375 Goal=   None    Shift=    0.000
 RMSDP=5.57D-09 MaxDP=2.66D-07 DE=-3.00D-11 OVMax= 8.98D-07

 Error on total polarization charges =  0.00064
 SCF Done:  E(RCAM-B3LYP) =  -1828.51784565     A.U. after   13 cycles
            NFock= 13  Conv=0.56D-08     -V/T= 2.0070
 KE= 1.815854556902D+03 PE=-1.008248350693D+04 EE= 3.561750966208D+03
 Leave Link  502 at Mon Feb  3 21:36:11 2025, MaxMem=  5368709120 cpu:       338.7
 (Enter /home/k0335/k033513/app/g09/l601.exe)
 Copying SCF densities to generalized density rwf, IOpCl= 0 IROHF=0.

 **********************************************************************

            Population analysis using the SCF density.

 **********************************************************************

 Alpha  occ. eigenvalues --  -24.84338 -24.84095 -24.84026 -24.83897 -24.83877
 Alpha  occ. eigenvalues --  -24.83748 -24.83637 -24.83470 -24.83387 -24.83131
 Alpha  occ. eigenvalues --  -24.82702 -24.82154 -24.82088 -19.31914 -19.30367
 Alpha  occ. eigenvalues --  -19.25428 -10.55753 -10.52919 -10.50565 -10.49471
 Alpha  occ. eigenvalues --  -10.49194 -10.48175 -10.44485 -10.43954  -1.42714
 Alpha  occ. eigenvalues --   -1.41001  -1.39455  -1.38628  -1.37713  -1.36328
 Alpha  occ. eigenvalues --   -1.35844  -1.33561  -1.33423  -1.32820  -1.32557
 Alpha  occ. eigenvalues --   -1.32289  -1.30667  -1.22277  -1.20161  -1.12378
 Alpha  occ. eigenvalues --   -0.98353  -0.92110  -0.90819  -0.85273  -0.81007
 Alpha  occ. eigenvalues --   -0.77548  -0.76569  -0.73793  -0.72560  -0.71452
 Alpha  occ. eigenvalues --   -0.70653  -0.70066  -0.69996  -0.68789  -0.68283
 Alpha  occ. eigenvalues --   -0.66923  -0.66404  -0.66042  -0.65849  -0.64631
 Alpha  occ. eigenvalues --   -0.64184  -0.62621  -0.58916  -0.58446  -0.58241
 Alpha  occ. eigenvalues --   -0.57203  -0.56653  -0.56490  -0.56174  -0.55671
 Alpha  occ. eigenvalues --   -0.55296  -0.54682  -0.54417  -0.54208  -0.53952
 Alpha  occ. eigenvalues --   -0.53674  -0.53173  -0.52831  -0.52236  -0.51974
 Alpha  occ. eigenvalues --   -0.51672  -0.51543  -0.51041  -0.50885  -0.50617
 Alpha  occ. eigenvalues --   -0.50076  -0.49676  -0.49633  -0.48765  -0.46203
 Alpha  occ. eigenvalues --   -0.44928  -0.44256  -0.42571  -0.41192  -0.37912
 Alpha virt. eigenvalues --   -0.00455   0.02618   0.06354   0.09385   0.10390
 Alpha virt. eigenvalues --    0.12148   0.12386   0.14240   0.17699   0.20137
 Alpha virt. eigenvalues --    0.22758   0.23794   0.24297   0.24857   0.25623
 Alpha virt. eigenvalues --    0.26343   0.27081   0.28378   0.29591   0.30633
 Alpha virt. eigenvalues --    0.32067   0.33088   0.35438   0.35619   0.38183
 Alpha virt. eigenvalues --    0.42103   0.45050   0.48650   0.49573   0.51012
 Alpha virt. eigenvalues --    0.52251   0.53266   0.54914   0.55072   0.57676
 Alpha virt. eigenvalues --    0.57810   0.60102   0.61201   0.61955   0.62916
 Alpha virt. eigenvalues --    0.64538   0.67619   0.68139   0.68918   0.70329
 Alpha virt. eigenvalues --    0.71579   0.74589   0.75085   0.78705   0.79898
 Alpha virt. eigenvalues --    0.82904   0.86549   0.88361   0.90663   0.92904
 Alpha virt. eigenvalues --    0.93484   0.95386   0.97529   1.00709   1.01649
 Alpha virt. eigenvalues --    1.02088   1.03374   1.06509   1.07841   1.09430
 Alpha virt. eigenvalues --    1.10012   1.11103   1.11387   1.12371   1.13123
 Alpha virt. eigenvalues --    1.14485   1.16021   1.17478   1.18382   1.19030
 Alpha virt. eigenvalues --    1.20426   1.22469   1.23658   1.24973   1.26988
 Alpha virt. eigenvalues --    1.27905   1.28340   1.28704   1.31342   1.33092
 Alpha virt. eigenvalues --    1.33648   1.34806   1.35762   1.36341   1.36567
 Alpha virt. eigenvalues --    1.37008   1.37699   1.37951   1.39108   1.39930
 Alpha virt. eigenvalues --    1.40536   1.41003   1.41221   1.41696   1.42276
 Alpha virt. eigenvalues --    1.43048   1.44014   1.45025   1.45622   1.46387
 Alpha virt. eigenvalues --    1.46560   1.47209   1.47812   1.49993   1.51175
 Alpha virt. eigenvalues --    1.52092   1.53063   1.55043   1.56712   1.57022
 Alpha virt. eigenvalues --    1.59447   1.59673   1.61728   1.62272   1.63854
 Alpha virt. eigenvalues --    1.65692   1.67278   1.67661   1.70655   1.72072
 Alpha virt. eigenvalues --    1.72472   1.73226   1.73811   1.74415   1.75272
 Alpha virt. eigenvalues --    1.76659   1.77461   1.77960   1.79231   1.81250
 Alpha virt. eigenvalues --    1.81689   1.82746   1.82984   1.84868   1.85363
 Alpha virt. eigenvalues --    1.85741   1.86651   1.88167   1.88791   1.89196
 Alpha virt. eigenvalues --    1.89475   1.90576   1.91402   1.92861   1.93768
 Alpha virt. eigenvalues --    1.96458   1.96902   1.97280   1.98250   1.99577
 Alpha virt. eigenvalues --    2.00420   2.01305   2.01930   2.02685   2.03554
 Alpha virt. eigenvalues --    2.04723   2.05371   2.05928   2.06295   2.06543
 Alpha virt. eigenvalues --    2.07090   2.07493   2.09173   2.09318   2.10035
 Alpha virt. eigenvalues --    2.10561   2.11490   2.11756   2.13883   2.14441
 Alpha virt. eigenvalues --    2.16721   2.18666   2.20555   2.22082   2.23746
 Alpha virt. eigenvalues --    2.24886   2.26163   2.27105   2.28934   2.30527
 Alpha virt. eigenvalues --    2.31597   2.32795   2.34043   2.35977   2.38012
 Alpha virt. eigenvalues --    2.38807   2.39474   2.40517   2.41832   2.42553
 Alpha virt. eigenvalues --    2.42770   2.44184   2.46175   2.47485   2.49178
 Alpha virt. eigenvalues --    2.51522   2.53086   2.55750   2.57806   2.58963
 Alpha virt. eigenvalues --    2.60120   2.61654   2.65817   2.67618   2.68560
 Alpha virt. eigenvalues --    2.71749   2.73952   2.77760   2.79079   2.80149
 Alpha virt. eigenvalues --    2.81679   2.84217   2.85994   2.86777   2.87685
 Alpha virt. eigenvalues --    2.88240   2.90906   2.91562   2.93816   2.95248
 Alpha virt. eigenvalues --    2.99027   2.99470   3.00753   3.03211   3.05621
 Alpha virt. eigenvalues --    3.07080   3.07719   3.08454   3.10083   3.12553
 Alpha virt. eigenvalues --    3.13994   3.16435   3.17437   3.19888   3.23083
 Alpha virt. eigenvalues --    3.23537   3.27036   3.32104   3.36593   3.37781
 Alpha virt. eigenvalues --    3.48183   4.00060   4.18623   4.28185   4.34166
 Alpha virt. eigenvalues --    4.37504   4.42239   4.49926   4.60295   4.66448
 Alpha virt. eigenvalues --    4.71360   4.77261   4.86747   4.95840   5.03753
 Alpha virt. eigenvalues --    5.11849   5.21931   5.28515   5.44724   5.56802
 Alpha virt. eigenvalues --    5.68644   6.27890   6.32242   6.60022   6.78571
          Condensed to atoms (all electrons):
               1          2          3          4          5          6
     1  F    9.136485   0.198512  -0.019670   0.000296   0.001155   0.000000
     2  C    0.198512   5.719685   0.109346  -0.035004  -0.047718   0.002531
     3  C   -0.019670   0.109346   4.789660   0.239509   0.238737  -0.021954
     4  F    0.000296  -0.035004   0.239509   9.111661  -0.014603  -0.000760
     5  C    0.001155  -0.047718   0.238737  -0.014603   4.188850   0.299315
     6  F    0.000000   0.002531  -0.021954  -0.000760   0.299315   9.047093
     7  F    0.000133   0.007445  -0.037033   0.000300   0.284544  -0.039198
     8  F   -0.000047  -0.005230  -0.033091  -0.000303   0.273954  -0.039773
     9  F   -0.000590  -0.035785   0.238208  -0.039447  -0.016875  -0.000533
    10  C   -0.027944   0.117477  -0.027261  -0.000718   0.003447  -0.000025
    11  O   -0.000226  -0.026978   0.002937  -0.000029  -0.000031   0.000000
    12  C    0.006569  -0.058256   0.002456  -0.000139   0.000123   0.000000
    13  F    0.000000   0.002228  -0.000023   0.000000   0.000000   0.000000
    14  F   -0.000137   0.006137   0.000130   0.000000  -0.000011   0.000000
    15  C   -0.021868   0.074741  -0.027513   0.002209  -0.009767   0.000016
    16  F    0.000366  -0.051710   0.007925  -0.001533  -0.001926   0.000001
    17  F   -0.000498  -0.027976  -0.007846   0.000002   0.012176   0.000000
    18  C    0.008020  -0.042766  -0.005765   0.000149  -0.000118   0.000000
    19  F   -0.001333   0.001716   0.000165   0.000000   0.000005   0.000000
    20  C    0.000049  -0.001276   0.000597  -0.000096   0.000026   0.000000
    21  O    0.000010  -0.001330   0.001283  -0.000009   0.000002   0.000000
    22  O   -0.000340   0.003970  -0.000840   0.000000  -0.000010   0.000000
    23  F    0.000004   0.001897   0.000031   0.000000   0.000000   0.000000
    24  F    0.000365  -0.044943   0.016079  -0.003796   0.000173   0.000000
    25  H    0.000001  -0.000021   0.000038   0.000001   0.000000   0.000000
               7          8          9         10         11         12
     1  F    0.000133  -0.000047  -0.000590  -0.027944  -0.000226   0.006569
     2  C    0.007445  -0.005230  -0.035785   0.117477  -0.026978  -0.058256
     3  C   -0.037033  -0.033091   0.238208  -0.027261   0.002937   0.002456
     4  F    0.000300  -0.000303  -0.039447  -0.000718  -0.000029  -0.000139
     5  C    0.284544   0.273954  -0.016875   0.003447  -0.000031   0.000123
     6  F   -0.039198  -0.039773  -0.000533  -0.000025   0.000000   0.000000
     7  F    9.063329  -0.038009  -0.000278   0.000055   0.000000   0.000014
     8  F   -0.038009   9.068488   0.000294   0.000073   0.000000   0.000200
     9  F   -0.000278   0.000294   9.104478   0.006585   0.000005  -0.000071
    10  C    0.000055   0.000073   0.006585   4.956373   0.193254  -0.039018
    11  O    0.000000   0.000000   0.000005   0.193254   8.367502   0.194992
    12  C    0.000014   0.000200  -0.000071  -0.039018   0.194992   4.326971
    13  F    0.000000   0.000000   0.000000   0.001597  -0.040467   0.322482
    14  F    0.000000   0.000000   0.000000   0.000432  -0.054038   0.273095
    15  C   -0.001773   0.020230   0.002158  -0.034999  -0.047618   0.236481
    16  F    0.000003  -0.000579   0.000001   0.015818  -0.002573  -0.016052
    17  F   -0.000304  -0.007766   0.000000   0.002276   0.000776  -0.019164
    18  C    0.000004   0.000000  -0.005591   0.216269  -0.034928  -0.002511
    19  F    0.000000   0.000000   0.000003  -0.028769  -0.001022   0.001839
    20  C   -0.000004   0.000000   0.020729  -0.072838   0.002306   0.000278
    21  O    0.000000   0.000000  -0.001938   0.007431  -0.000007  -0.000002
    22  O    0.000000   0.000000  -0.005413  -0.002108  -0.000012  -0.000005
    23  F    0.000000   0.000000   0.000001  -0.023164  -0.000084   0.000257
    24  F    0.000000   0.000000  -0.000932   0.256867  -0.049369  -0.000057
    25  H    0.000000   0.000000   0.000260  -0.000277   0.000002   0.000000
              13         14         15         16         17         18
     1  F    0.000000  -0.000137  -0.021868   0.000366  -0.000498   0.008020
     2  C    0.002228   0.006137   0.074741  -0.051710  -0.027976  -0.042766
     3  C   -0.000023   0.000130  -0.027513   0.007925  -0.007846  -0.005765
     4  F    0.000000   0.000000   0.002209  -0.001533   0.000002   0.000149
     5  C    0.000000  -0.000011  -0.009767  -0.001926   0.012176  -0.000118
     6  F    0.000000   0.000000   0.000016   0.000001   0.000000   0.000000
     7  F    0.000000   0.000000  -0.001773   0.000003  -0.000304   0.000004
     8  F    0.000000   0.000000   0.020230  -0.000579  -0.007766   0.000000
     9  F    0.000000   0.000000   0.002158   0.000001   0.000000  -0.005591
    10  C    0.001597   0.000432  -0.034999   0.015818   0.002276   0.216269
    11  O   -0.040467  -0.054038  -0.047618  -0.002573   0.000776  -0.034928
    12  C    0.322482   0.273095   0.236481  -0.016052  -0.019164  -0.002511
    13  F    9.026013  -0.040678  -0.026074  -0.000544  -0.000205  -0.000051
    14  F   -0.040678   9.096784  -0.035173   0.000308  -0.000037   0.000261
    15  C   -0.026074  -0.035173   4.822124   0.237685   0.262794   0.003644
    16  F   -0.000544   0.000308   0.237685   9.108906  -0.038580   0.000068
    17  F   -0.000205  -0.000037   0.262794  -0.038580   9.080022  -0.000012
    18  C   -0.000051   0.000261   0.003644   0.000068  -0.000012   4.640256
    19  F    0.000000   0.000307  -0.000643   0.000000   0.000000   0.270049
    20  C    0.000000  -0.000003  -0.000085  -0.000001   0.000000   0.218429
    21  O    0.000000   0.000000  -0.000006   0.000000   0.000000  -0.074566
    22  O    0.000000   0.000000   0.000020   0.000000   0.000000  -0.049241
    23  F    0.000000   0.000000  -0.000091   0.000000   0.000000   0.265105
    24  F   -0.000001  -0.000007   0.003847  -0.000424  -0.000001  -0.030626
    25  H    0.000000   0.000000  -0.000001   0.000000   0.000000   0.007085
              19         20         21         22         23         24
     1  F   -0.001333   0.000049   0.000010  -0.000340   0.000004   0.000365
     2  C    0.001716  -0.001276  -0.001330   0.003970   0.001897  -0.044943
     3  C    0.000165   0.000597   0.001283  -0.000840   0.000031   0.016079
     4  F    0.000000  -0.000096  -0.000009   0.000000   0.000000  -0.003796
     5  C    0.000005   0.000026   0.000002  -0.000010   0.000000   0.000173
     6  F    0.000000   0.000000   0.000000   0.000000   0.000000   0.000000
     7  F    0.000000  -0.000004   0.000000   0.000000   0.000000   0.000000
     8  F    0.000000   0.000000   0.000000   0.000000   0.000000   0.000000
     9  F    0.000003   0.020729  -0.001938  -0.005413   0.000001  -0.000932
    10  C   -0.028769  -0.072838   0.007431  -0.002108  -0.023164   0.256867
    11  O   -0.001022   0.002306  -0.000007  -0.000012  -0.000084  -0.049369
    12  C    0.001839   0.000278  -0.000002  -0.000005   0.000257  -0.000057
    13  F    0.000000   0.000000   0.000000   0.000000   0.000000  -0.000001
    14  F    0.000307  -0.000003   0.000000   0.000000   0.000000  -0.000007
    15  C   -0.000643  -0.000085  -0.000006   0.000020  -0.000091   0.003847
    16  F    0.000000  -0.000001   0.000000   0.000000   0.000000  -0.000424
    17  F    0.000000   0.000000   0.000000   0.000000   0.000000  -0.000001
    18  C    0.270049   0.218429  -0.074566  -0.049241   0.265105  -0.030626
    19  F    9.093425  -0.029646   0.000653  -0.001408  -0.040112   0.000297
    20  C   -0.029646   4.602519   0.244057   0.534896  -0.030505   0.001639
    21  O    0.000653   0.244057   8.111373  -0.095378   0.001778   0.000554
    22  O   -0.001408   0.534896  -0.095378   8.051037   0.000674   0.000017
    23  F   -0.040112  -0.030505   0.001778   0.000674   9.092059  -0.000340
    24  F    0.000297   0.001639   0.000554   0.000017  -0.000340   9.105447
    25  H   -0.000037  -0.012585   0.282511   0.008808  -0.000142   0.000090
              25
     1  F    0.000001
     2  C   -0.000021
     3  C    0.000038
     4  F    0.000001
     5  C    0.000000
     6  F    0.000000
     7  F    0.000000
     8  F    0.000000
     9  F    0.000260
    10  C   -0.000277
    11  O    0.000002
    12  C    0.000000
    13  F    0.000000
    14  F    0.000000
    15  C   -0.000001
    16  F    0.000000
    17  F    0.000000
    18  C    0.007085
    19  F   -0.000037
    20  C   -0.012585
    21  O    0.282511
    22  O    0.008808
    23  F   -0.000142
    24  F    0.000090
    25  H    0.352415
 Mulliken charges:
               1
     1  F   -0.279313
     2  C    0.133310
     3  C    0.533895
     4  F   -0.257688
     5  C    0.788555
     6  F   -0.246711
     7  F   -0.239227
     8  F   -0.238442
     9  F   -0.265268
    10  C    0.479168
    11  O   -0.504392
    12  C    0.769519
    13  F   -0.244275
    14  F   -0.247367
    15  C    0.539664
    16  F   -0.257158
    17  F   -0.255656
    18  C    0.616834
    19  F   -0.265489
    20  C    0.521515
    21  O   -0.476415
    22  O   -0.444667
    23  F   -0.267367
    24  F   -0.254878
    25  H    0.361851
 Sum of Mulliken charges =   0.00000
 Mulliken charges with hydrogens summed into heavy atoms:
               1
     1  F   -0.279313
     2  C    0.133310
     3  C    0.533895
     4  F   -0.257688
     5  C    0.788555
     6  F   -0.246711
     7  F   -0.239227
     8  F   -0.238442
     9  F   -0.265268
    10  C    0.479168
    11  O   -0.504392
    12  C    0.769519
    13  F   -0.244275
    14  F   -0.247367
    15  C    0.539664
    16  F   -0.257158
    17  F   -0.255656
    18  C    0.616834
    19  F   -0.265489
    20  C    0.521515
    21  O   -0.114563
    22  O   -0.444667
    23  F   -0.267367
    24  F   -0.254878
 Electronic spatial extent (au):  <R**2>=           5394.8103
 Charge=              0.0000 electrons
 Dipole moment (field-independent basis, Debye):
    X=              0.3966    Y=              1.8000    Z=              0.7754  Tot=              1.9996
 Quadrupole moment (field-independent basis, Debye-Ang):
   XX=           -120.9175   YY=           -123.0256   ZZ=           -132.6891
   XY=              7.0628   XZ=             -0.3270   YZ=              0.6235
 Traceless Quadrupole moment (field-independent basis, Debye-Ang):
   XX=              4.6266   YY=              2.5184   ZZ=             -7.1450
   XY=              7.0628   XZ=             -0.3270   YZ=              0.6235
 Octapole moment (field-independent basis, Debye-Ang**2):
  XXX=             59.7842  YYY=             53.9739  ZZZ=             41.4647  XYY=             28.6618
  XXY=             33.7257  XXZ=              2.6964  XZZ=              1.7018  YZZ=              5.5145
  YYZ=              8.7926  XYZ=              0.0980
 Hexadecapole moment (field-independent basis, Debye-Ang**3):
 XXXX=          -2458.0877 YYYY=          -2067.8439 ZZZZ=           -857.9393 XXXY=            175.9437
 XXXZ=            112.0226 YYYX=            155.4064 YYYZ=            143.2224 ZZZX=            175.7909
 ZZZY=            164.8169 XXYY=           -706.6173 XXZZ=           -578.8349 YYZZ=           -500.7536
 XXYZ=             38.7033 YYXZ=             43.0600 ZZXY=             14.4114
 N-N= 2.876360138170D+03 E-N=-1.008248350388D+04  KE= 1.815854556902D+03
 No NMR shielding tensors so no spin-rotation constants.
 Leave Link  601 at Mon Feb  3 21:36:12 2025, MaxMem=  5368709120 cpu:         3.0
 (Enter /home/k0335/k033513/app/g09/l9999.exe)
 1\1\GINC-C15U06N2\SP\RCAM-B3LYP\6-31G(d,p)\C8H1F13O3\K033513\03-Feb-20
 25\0\\#p CAM-B3LYP/6-31G(d,p) SCRF=(PCM,Solvent=Generic,Read) NoSymm o
 ut=wfn\\Title A0_neu\\0,1\F,0,-0.51954,-0.380727,-1.495581\C,0,-0.4900
 62,-0.162729,-0.149953\C,0,-0.762921,1.297667,0.137332\F,0,-0.666994,1
 .547042,1.471935\C,0,-2.114043,1.789158,-0.37782\F,0,-2.253137,3.12404
 4,-0.194377\F,0,-2.268116,1.547539,-1.697973\F,0,-3.144662,1.198772,0.
 265477\F,0,0.231623,2.039411,-0.427986\C,0,0.835385,-0.696809,0.410236
 \O,0,0.625301,-2.080524,0.81143\C,0,-0.715834,-2.381483,0.468695\F,0,-
 1.196822,-3.317696,1.305992\F,0,-0.687699,-2.908811,-0.774219\C,0,-1.4
 72559,-1.078568,0.513646\F,0,-1.698232,-0.687709,1.790499\F,0,-2.66223
 9,-1.113588,-0.111128\C,0,2.039975,-0.669329,-0.550434\F,0,1.749122,-1
 .459561,-1.630491\C,0,2.4232,0.733782,-0.985297\O,0,3.066792,1.451246,
 -0.039456\O,0,2.18365,1.242811,-2.0709\F,0,3.10098,-1.29031,0.057134\F
 ,0,1.132488,-0.060689,1.571108\H,0,3.264345,2.31706,-0.459731\\Version
 =ES64L-G09RevD.01\HF=-1828.5178456\RMSD=5.569e-09\Dipole=0.1560338,0.7
 081794,0.3050587\Quadrupole=3.4397447,1.8724022,-5.3121468,5.2510409,-
 0.2431483,0.4635825\PG=C01 [X(C8H1F13O3)]\\@

 Writing a WFN file to "cytop/A0/A0_neu.wfn"


 IF YOU GIVE EVERYONE A PIECE OF YOUR MIND,
 PRETTY SOON IT WILL BE ALL GONE.
 Job cpu time:       0 days  0 hours  5 minutes 58.6 seconds.
 File lengths (MBytes):  RWF=    132 Int=      0 D2E=      0 Chk=      6 Scr=      1
 Normal termination of Gaussian 09 at Mon Feb  3 21:36:12 2025.
