 Entering Gaussian System, Link 0=g09
 Initial command:
 /home/k0335/k033513/app/g09/l1.exe "/home/k0335/k033513/app/g09/scratch/Gau-1677533.inp" -scrdir="/home/k0335/k033513/app/g09/scratch/"
 Default is to use a total of  36 processors:
                               36 via shared-memory
                                1 via Linda
 Entering Link 1 = /home/k0335/k033513/app/g09/l1.exe PID=   1677534.
  
 Copyright (c) 1988,1990,1992,1993,1995,1998,2003,2009,2013,
            Gaussian, Inc.  All Rights Reserved.
  
 This is part of the Gaussian(R) 09 program.  It is based on
 the Gaussian(R) 03 system (copyright 2003, Gaussian, Inc.),
 the Gaussian(R) 98 system (copyright 1998, Gaussian, Inc.),
 the Gaussian(R) 94 system (copyright 1995, Gaussian, Inc.),
 the Gaussian 92(TM) system (copyright 1992, Gaussian, Inc.),
 the Gaussian 90(TM) system (copyright 1990, Gaussian, Inc.),
 the Gaussian 88(TM) system (copyright 1988, Gaussian, Inc.),
 the Gaussian 86(TM) system (copyright 1986, Carnegie Mellon
 University), and the Gaussian 82(TM) system (copyright 1983,
 Carnegie Mellon University). Gaussian is a federally registered
 trademark of Gaussian, Inc.
  
 This software contains proprietary and confidential information,
 including trade secrets, belonging to Gaussian, Inc.
  
 This software is provided under written license and may be
 used, copied, transmitted, or stored only in accord with that
 written license.
  
 The following legend is applicable only to US Government
 contracts under FAR:
  
                    RESTRICTED RIGHTS LEGEND
  
 Use, reproduction and disclosure by the US Government is
 subject to restrictions as set forth in subparagraphs (a)
 and (c) of the Commercial Computer Software - Restricted
 Rights clause in FAR 52.227-19.
  
 Gaussian, Inc.
 340 Quinnipiac St., Bldg. 40, Wallingford CT 06492
  
  
 ---------------------------------------------------------------
 Warning -- This program may not be used in any manner that
 competes with the business of Gaussian, Inc. or will provide
 assistance to any competitor of Gaussian, Inc.  The licensee
 of this program is prohibited from giving any competitor of
 Gaussian, Inc. access to this program.  By using this program,
 the user acknowledges that Gaussian, Inc. is engaged in the
 business of creating and licensing software in the field of
 computational chemistry and represents and warrants to the
 licensee that it is not a competitor of Gaussian, Inc. and that
 it will not use this program in any manner prohibited above.
 ---------------------------------------------------------------
  

 Cite this work as:
 Gaussian 09, Revision D.01,
 M. J. Frisch, G. W. Trucks, H. B. Schlegel, G. E. Scuseria, 
 M. A. Robb, J. R. Cheeseman, G. Scalmani, V. Barone, B. Mennucci, 
 G. A. Petersson, H. Nakatsuji, M. Caricato, X. Li, H. P. Hratchian, 
 A. F. Izmaylov, J. Bloino, G. Zheng, J. L. Sonnenberg, M. Hada, 
 M. Ehara, K. Toyota, R. Fukuda, J. Hasegawa, M. Ishida, T. Nakajima, 
 Y. Honda, O. Kitao, H. Nakai, T. Vreven, J. A. Montgomery, Jr., 
 J. E. Peralta, F. Ogliaro, M. Bearpark, J. J. Heyd, E. Brothers, 
 K. N. Kudin, V. N. Staroverov, T. Keith, R. Kobayashi, J. Normand, 
 K. Raghavachari, A. Rendell, J. C. Burant, S. S. Iyengar, J. Tomasi, 
 M. Cossi, N. Rega, J. M. Millam, M. Klene, J. E. Knox, J. B. Cross, 
 V. Bakken, C. Adamo, J. Jaramillo, R. Gomperts, R. E. Stratmann, 
 O. Yazyev, A. J. Austin, R. Cammi, C. Pomelli, J. W. Ochterski, 
 R. L. Martin, K. Morokuma, V. G. Zakrzewski, G. A. Voth, 
 P. Salvador, J. J. Dannenberg, S. Dapprich, A. D. Daniels, 
 O. Farkas, J. B. Foresman, J. V. Ortiz, J. Cioslowski, 
 and D. J. Fox, Gaussian, Inc., Wallingford CT, 2013.
 
 ******************************************
 Gaussian 09:  ES64L-G09RevD.01 24-Apr-2013
                 3-Feb-2025 
 ******************************************
 %nprocshared=24
 Will use up to   24 processors via shared memory.
 %mem=40GB
 %rwf=cytop/APN0/APN0_neu.rwf
 %nosave
 %chk=cytop/APN0/APN0_neu.chk
 ----------------------------------------------------------------------
 #p CAM-B3LYP/6-31G(d,p) SCRF=(PCM,Solvent=Generic,Read) NoSymm out=wfn
 ----------------------------------------------------------------------
 1/38=1,40=2/1;
 2/12=2,15=1,17=6,18=5,40=1/2;
 3/5=1,6=6,7=101,11=2,16=1,25=1,30=1,70=2203,72=-2,74=-40/1,2,3;
 4//1;
 5/5=2,38=5/2;
 6/7=2,8=2,9=2,10=2,28=1/1;
 99/5=1,6=100,9=1/99;
 Leave Link    1 at Mon Feb  3 21:38:59 2025, MaxMem=  5368709120 cpu:         1.4
 (Enter /home/k0335/k033513/app/g09/l101.exe)
 --------------
 Title APN0_neu
 --------------
 Symbolic Z-matrix:
 Charge =  0 Multiplicity = 1
 F                     1.83525  -3.9082   -1.34482 
 C                     2.02564  -2.91613  -0.45608 
 F                     1.86787  -3.44264   0.78103 
 C                     3.3621   -2.21498  -0.59644 
 F                     3.68328  -2.01079  -1.89469 
 F                     4.39041  -2.87701  -0.03376 
 C                     3.03808  -0.92434   0.0896 
 F                     2.89614  -1.1642    1.42877 
 C                     4.07015   0.15144  -0.12662 
 F                     3.69056   1.27144   0.55277 
 C                     5.43859  -0.32067   0.36099 
 O                     6.2453   -0.76573  -0.62684 
 O                     5.82313  -0.35924   1.5199 
 F                     4.10067   0.52295  -1.43588 
 C                     1.66384  -0.66199  -0.52243 
 F                     1.81676  -0.28085  -1.81755 
 C                     0.81      0.3647    0.22932 
 F                     0.7452    0.03083   1.55601 
 C                    -0.61352   0.47338  -0.34866 
 N                    -1.54093   0.84232   0.6283 
 C                    -2.9227    1.07082   0.46652 
 C                    -3.64734   1.42157   1.61339 
 C                    -5.02519   1.66665   1.54385 
 C                    -5.74905   2.0242    2.72855 
 N                    -6.32745   2.31262   3.69166 
 C                    -5.68987   1.56186   0.32049 
 C                    -4.97549   1.21274  -0.82909 
 C                    -5.6562    1.10458  -2.08707 
 N                    -6.22314   1.02142  -3.09574 
 C                    -3.59663   0.9686   -0.75338 
 O                    -0.86824   0.31829  -1.5387 
 F                     1.40871   1.58731   0.20235 
 O                     0.99501  -1.94314  -0.59453 
 H                     7.07873  -1.03634  -0.18299 
 H                    -1.16847   0.93878   1.57105 
 H                    -3.14464   1.50825   2.57603 
 H                    -6.76174   1.75153   0.26092 
 H                    -3.07479   0.69994  -1.6687 
 
 NAtoms=     38 NQM=       38 NQMF=       0 NMMI=      0 NMMIF=      0
                NMic=       0 NMicF=      0.
                    Isotopes and Nuclear Properties:
 (Nuclear quadrupole moments (NQMom) in fm**2, nuclear magnetic moments (NMagM)
  in nuclear magnetons)

  Atom         1           2           3           4           5           6           7           8           9          10
 IAtWgt=          19          12          19          12          19          19          12          19          12          19
 AtmWgt=  18.9984033  12.0000000  18.9984033  12.0000000  18.9984033  18.9984033  12.0000000  18.9984033  12.0000000  18.9984033
 NucSpn=           1           0           1           0           1           1           0           1           0           1
 AtZEff=   0.0000000   0.0000000   0.0000000   0.0000000   0.0000000   0.0000000   0.0000000   0.0000000   0.0000000   0.0000000
 NQMom=    0.0000000   0.0000000   0.0000000   0.0000000   0.0000000   0.0000000   0.0000000   0.0000000   0.0000000   0.0000000
 NMagM=    2.6288670   0.0000000   2.6288670   0.0000000   2.6288670   2.6288670   0.0000000   2.6288670   0.0000000   2.6288670
 AtZNuc=   9.0000000   6.0000000   9.0000000   6.0000000   9.0000000   9.0000000   6.0000000   9.0000000   6.0000000   9.0000000

  Atom        11          12          13          14          15          16          17          18          19          20
 IAtWgt=          12          16          16          19          12          19          12          19          12          14
 AtmWgt=  12.0000000  15.9949146  15.9949146  18.9984033  12.0000000  18.9984033  12.0000000  18.9984033  12.0000000  14.0030740
 NucSpn=           0           0           0           1           0           1           0           1           0           2
 AtZEff=   0.0000000   0.0000000   0.0000000   0.0000000   0.0000000   0.0000000   0.0000000   0.0000000   0.0000000   0.0000000
 NQMom=    0.0000000   0.0000000   0.0000000   0.0000000   0.0000000   0.0000000   0.0000000   0.0000000   0.0000000   2.0440000
 NMagM=    0.0000000   0.0000000   0.0000000   2.6288670   0.0000000   2.6288670   0.0000000   2.6288670   0.0000000   0.4037610
 AtZNuc=   6.0000000   8.0000000   8.0000000   9.0000000   6.0000000   9.0000000   6.0000000   9.0000000   6.0000000   7.0000000

  Atom        21          22          23          24          25          26          27          28          29          30
 IAtWgt=          12          12          12          12          14          12          12          12          14          12
 AtmWgt=  12.0000000  12.0000000  12.0000000  12.0000000  14.0030740  12.0000000  12.0000000  12.0000000  14.0030740  12.0000000
 NucSpn=           0           0           0           0           2           0           0           0           2           0
 AtZEff=   0.0000000   0.0000000   0.0000000   0.0000000   0.0000000   0.0000000   0.0000000   0.0000000   0.0000000   0.0000000
 NQMom=    0.0000000   0.0000000   0.0000000   0.0000000   2.0440000   0.0000000   0.0000000   0.0000000   2.0440000   0.0000000
 NMagM=    0.0000000   0.0000000   0.0000000   0.0000000   0.4037610   0.0000000   0.0000000   0.0000000   0.4037610   0.0000000
 AtZNuc=   6.0000000   6.0000000   6.0000000   6.0000000   7.0000000   6.0000000   6.0000000   6.0000000   7.0000000   6.0000000

  Atom        31          32          33          34          35          36          37          38
 IAtWgt=          16          19          16           1           1           1           1           1
 AtmWgt=  15.9949146  18.9984033  15.9949146   1.0078250   1.0078250   1.0078250   1.0078250   1.0078250
 NucSpn=           0           1           0           1           1           1           1           1
 AtZEff=   0.0000000   0.0000000   0.0000000   0.0000000   0.0000000   0.0000000   0.0000000   0.0000000
 NQMom=    0.0000000   0.0000000   0.0000000   0.0000000   0.0000000   0.0000000   0.0000000   0.0000000
 NMagM=    0.0000000   2.6288670   0.0000000   2.7928460   2.7928460   2.7928460   2.7928460   2.7928460
 AtZNuc=   8.0000000   9.0000000   8.0000000   1.0000000   1.0000000   1.0000000   1.0000000   1.0000000
 Leave Link  101 at Mon Feb  3 21:38:59 2025, MaxMem=  5368709120 cpu:         0.8
 (Enter /home/k0335/k033513/app/g09/l202.exe)
                          Input orientation:                          
 ---------------------------------------------------------------------
 Center     Atomic      Atomic             Coordinates (Angstroms)
 Number     Number       Type             X           Y           Z
 ---------------------------------------------------------------------
      1          9           0        1.835248   -3.908200   -1.344822
      2          6           0        2.025636   -2.916127   -0.456079
      3          9           0        1.867871   -3.442643    0.781034
      4          6           0        3.362101   -2.214980   -0.596436
      5          9           0        3.683281   -2.010787   -1.894685
      6          9           0        4.390407   -2.877006   -0.033762
      7          6           0        3.038084   -0.924340    0.089597
      8          9           0        2.896135   -1.164201    1.428773
      9          6           0        4.070150    0.151435   -0.126618
     10          9           0        3.690561    1.271436    0.552772
     11          6           0        5.438592   -0.320667    0.360991
     12          8           0        6.245299   -0.765728   -0.626839
     13          8           0        5.823129   -0.359236    1.519895
     14          9           0        4.100666    0.522954   -1.435882
     15          6           0        1.663841   -0.661988   -0.522431
     16          9           0        1.816758   -0.280849   -1.817548
     17          6           0        0.810002    0.364704    0.229315
     18          9           0        0.745196    0.030832    1.556013
     19          6           0       -0.613523    0.473383   -0.348659
     20          7           0       -1.540930    0.842322    0.628302
     21          6           0       -2.922704    1.070821    0.466517
     22          6           0       -3.647342    1.421569    1.613392
     23          6           0       -5.025193    1.666651    1.543853
     24          6           0       -5.749053    2.024201    2.728553
     25          7           0       -6.327447    2.312619    3.691656
     26          6           0       -5.689866    1.561857    0.320489
     27          6           0       -4.975492    1.212739   -0.829090
     28          6           0       -5.656201    1.104580   -2.087073
     29          7           0       -6.223140    1.021422   -3.095742
     30          6           0       -3.596633    0.968603   -0.753377
     31          8           0       -0.868236    0.318291   -1.538695
     32          9           0        1.408705    1.587310    0.202345
     33          8           0        0.995007   -1.943142   -0.594528
     34          1           0        7.078725   -1.036340   -0.182994
     35          1           0       -1.168466    0.938779    1.571051
     36          1           0       -3.144635    1.508254    2.576028
     37          1           0       -6.761737    1.751532    0.260921
     38          1           0       -3.074795    0.699940   -1.668702
 ---------------------------------------------------------------------
                    Distance matrix (angstroms):
                    1          2          3          4          5
     1  F    0.000000
     2  C    1.345482   0.000000
     3  F    2.176481   1.353720   0.000000
     4  C    2.399657   1.515733   2.374301   0.000000
     5  F    2.705134   2.374240   3.536297   1.352886   0.000000
     6  F    3.051406   2.402504   2.710540   1.346215   2.171036
     7  C    3.522470   2.300006   2.861701   1.497124   2.352450
     8  F    4.043246   2.716557   2.582284   2.328676   3.518761
     9  C    4.791601   3.701151   4.311759   2.514355   2.819740
    10  F    5.819938   4.617948   5.059332   3.685602   4.094275
    11  C    5.363234   4.364892   4.761640   2.969327   3.320496
    12  O    5.462525   4.739085   5.320701   3.227086   3.117939
    13  O    6.058461   4.986293   5.069258   3.738890   4.354989
    14  F    4.977503   4.134373   5.062218   2.957436   2.608554
    15  C    3.353148   2.283953   3.077774   2.302466   2.789351
    16  F    3.658071   2.973536   4.092943   2.760446   2.546084
    17  C    4.667627   3.565303   3.989909   3.721538   4.290695
    18  F    5.011889   3.791122   3.731758   4.065083   4.970701
    19  C    5.117332   4.297148   4.771664   4.805650   5.198444
    20  N    6.152988   5.293601   5.477607   5.906504   6.465143
    21  C    7.121075   6.421293   6.589377   7.171132   7.662286
    22  C    8.198552   7.435119   7.400740   8.200007   8.821888
    23  C    9.299949   8.643829   8.614007   9.486548  10.059056
    24  C   10.455017   9.746513   9.575842  10.584863  11.252750
    25  N   11.432160  10.691936  10.428710  11.522770  12.252090
    26  C    9.451038   8.954573   9.076151   9.851059  10.272617
    27  C    8.536754   8.136490   8.431886   9.017696   9.300589
    28  C    9.044374   8.822519   9.247429   9.724775   9.847256
    29  N    9.607524   9.513907  10.021064  10.421021  10.429478
    30  C    7.323820   6.840279   7.188485   7.654006   7.948364
    31  O    5.020920   4.473032   5.197312   5.020066   5.125197
    32  F    5.725058   4.592937   5.083910   4.348703   4.745264
    33  O    2.265038   1.424101   2.214174   2.382653   2.986938
    34  H    6.090277   5.398322   5.820021   3.920895   3.925363
    35  H    6.404515   5.401097   5.388908   5.930450   6.652121
    36  H    8.337282   7.449867   7.270392   8.140308   8.887708
    37  H   10.417251   9.975924  10.085639  10.906896  11.309292
    38  H    6.741541   6.368735   6.898706   7.147037   7.284964
                    6          7          8          9         10
     6  F    0.000000
     7  C    2.378424   0.000000
     8  F    2.702880   1.367873   0.000000
     9  C    3.046743   1.506387   2.351266   0.000000
    10  F    4.247750   2.337026   2.707548   1.363840   0.000000
    11  C    2.790948   2.490083   2.883712   1.527507   2.372169
    12  O    2.872257   3.290086   3.949838   2.413023   3.473932
    13  O    3.287204   3.181442   3.037032   2.458602   2.853465
    14  F    3.689122   2.356019   3.536048   1.361297   2.164060
    15  C    3.546726   1.527073   2.361771   2.570729   3.000297
    16  F    4.067627   2.354341   3.533266   2.850244   3.396931
    17  C    4.837065   2.577888   2.851000   3.286447   3.037171
    18  F    4.926507   2.884452   2.463906   3.728419   3.349741
    19  C    6.030222   3.934454   4.261296   4.699973   4.469296
    20  N    7.032246   4.937476   4.935021   5.703635   5.249604
    21  C    8.325696   6.297121   6.307150   7.077930   6.616869
    22  C    9.262628   7.247079   7.038280   8.012525   7.415678
    23  C   10.572947   8.593284   8.412752   9.370785   8.780820
    24  C   11.595726   9.637000   9.305623  10.395961   9.716326
    25  N   12.477313  10.543524  10.113525  11.285387  10.549746
    26  C   11.020023   9.078083   9.076293   9.871530   9.387796
    27  C   10.250787   8.344369   8.527034   9.134740   8.775731
    28  C   11.000157   9.189396   9.521081   9.967636   9.713835
    29  N   11.714130   9.985121  10.411982  10.748227  10.566723
    30  C    8.893782   6.950778   7.174027   7.735642   7.409516
    31  O    6.334672   4.410760   5.017384   5.139013   5.105424
    32  F    5.373678   2.995993   3.359671   3.041914   2.330116
    33  O    3.565852   2.383306   2.883537   3.750026   4.349232
    34  H    3.261499   4.051374   4.484217   3.235044   4.164953
    35  H    6.930852   4.833320   4.578619   5.562831   4.975711
    36  H    9.100460   7.094073   6.704410   7.822939   7.132289
    37  H   12.078101  10.160026  10.155780  10.956289  10.467388
    38  H    8.437820   6.564845   6.980070   7.330015   7.143640
                   11         12         13         14         15
    11  C    0.000000
    12  O    1.350801   0.000000
    13  O    1.221644   2.225293   0.000000
    14  F    2.393845   2.629582   3.532953   0.000000
    15  C    3.891745   4.583822   4.643536   2.859475   0.000000
    16  F    4.226736   4.611385   5.214948   2.451123   1.358668
    17  C    4.680910   5.617235   5.226962   3.691395   1.532403
    18  F    4.855883   5.970803   5.093021   4.522477   2.375676
    19  C    6.145097   6.975401   6.753905   4.838191   2.550618
    20  N    7.080800   8.049010   7.514522   6.015850   3.722592
    21  C    8.476948   9.413852   8.924363   7.297055   5.001704
    22  C    9.335850  10.376283   9.636899   8.374796   6.091930
    23  C   10.716314  11.732534  11.035891   9.667894   7.378026
    24  C   11.673352  12.763496  11.876743  10.798760   8.528511
    25  N   12.508685  13.645496  12.629008  11.757554   9.511440
    26  C   11.286634  12.196854  11.733637  10.000934   7.728713
    27  C   10.593431  11.395674  11.162395   9.122535   6.905750
    28  C   11.450711  12.135734  12.121386   9.795856   7.691026
    29  N   12.237083  12.835551  12.973932  10.468265   8.465239
    30  C    9.194527   9.994375   9.780738   7.740338   5.512236
    31  O    6.617640   7.253203   7.388395   4.974178   2.899164
    32  F    4.461562   5.442148   5.001212   3.326153   2.376917
    33  O    4.826064   5.380791   5.503663   4.053964   1.447029
    34  H    1.870333   0.982257   2.221446   3.587473   5.438412
    35  H    6.834008   7.918332   7.111249   6.080979   3.868732
    36  H    9.051140  10.178419   9.220831   8.340301   6.118157
    37  H   12.375462  13.278091  12.822605  11.062565   8.799380
    38  H    8.811302   9.491987   9.511154   7.181418   5.061962
                   16         17         18         19         20
    16  F    0.000000
    17  C    2.370642   0.000000
    18  F    3.553351   1.369598   0.000000
    19  C    2.938157   1.540224   2.381122   0.000000
    20  N    4.303227   2.431911   2.597217   1.396658   0.000000
    21  C    5.431985   3.806305   3.965106   2.520667   1.409853
    22  C    6.672778   4.785452   4.607801   3.735339   2.396435
    23  C    7.867914   6.121485   5.997786   4.946547   3.695652
    24  C    9.122598   7.212581   6.893739   6.184492   4.849350
    25  N   10.168849   8.168559   7.732387   7.235735   5.869979
    26  C    8.019736   6.609824   6.729085   5.234672   4.222102
    27  C    7.024423   5.942333   6.309667   4.450195   3.749322
    28  C    7.605076   6.908318   7.443312   5.371135   4.937357
    29  N    8.244371   7.807200   8.436694   6.270137   5.985288
    30  C    5.656712   4.555086   5.006413   3.050899   2.480101
    31  O    2.765126   2.438134   3.501859   1.226832   2.328734
    32  F    2.781455   1.361594   2.166861   2.373572   3.071936
    33  O    2.221322   2.457457   2.929813   2.913317   3.960442
    34  H    5.561549   6.436599   6.654066   7.840752   8.859234
    35  H    4.677783   2.458486   2.118182   2.051790   1.018238
    36  H    6.864388   4.738557   4.284156   4.003908   2.609401
    37  H    9.057659   7.697761   7.809745   6.309183   5.312105
    38  H    4.991131   4.336646   5.043691   2.802089   2.765726
                   21         22         23         24         25
    21  C    0.000000
    22  C    1.401230   0.000000
    23  C    2.436417   1.401205   0.000000
    24  C    3.743526   2.454371   1.433642   0.000000
    25  N    4.851377   3.506582   2.593491   1.159867   0.000000
    26  C    2.814183   2.421401   1.396206   2.452761   3.512110
    27  C    2.431600   2.788066   2.416478   3.730106   4.845066
    28  C    3.740851   4.222492   3.727964   4.903527   5.941686
    29  N    4.856440   5.382453   4.835001   5.928974   6.909909
    30  C    1.397416   2.410258   2.793800   4.227415   5.387211
    31  O    2.967830   4.344687   5.347941   6.703873   7.819009
    32  F    4.370086   5.251870   6.572745   7.603032   8.517594
    33  O    5.055517   6.143907   7.337989   8.500884   9.492166
    34  H   10.241610  11.149746  12.521701  13.505403  14.351094
    35  H    2.077205   2.525808   3.924905   4.847652   5.744518
    36  H    2.165788   1.089448   2.151040   2.659409   3.467264
    37  H    3.904332   3.411379   2.160718   2.681247   3.503337
    38  H    2.172520   3.408915   3.880605   5.314243   6.474096
                   26         27         28         29         30
    26  C    0.000000
    27  C    1.397764   0.000000
    28  C    2.450835   1.434428   0.000000
    29  N    3.499584   2.594405   1.160064   0.000000
    30  C    2.426265   1.402351   2.457449   3.519659   0.000000
    31  O    5.315180   4.262995   4.882989   5.620835   2.912693
    32  F    7.099600   6.477819   7.442268   8.333227   5.133187
    33  O    7.603276   6.757327   7.466918   8.194288   5.439361
    34  H   13.039978  12.279249  13.053252  13.771641  10.876967
    35  H    4.732356   4.508789   5.792161   6.880081   3.361525
    36  H    3.401254   3.877395   5.311820   6.471721   3.403008
    37  H    1.090152   2.160808   2.674665   3.477116   3.414625
    38  H    3.396819   2.140224   2.646210   3.471580   1.087343
                   31         32         33         34         35
    31  O    0.000000
    32  F    3.134659   0.000000
    33  O    3.078507   3.642835   0.000000
    34  H    8.174787   6.259485   6.164680   0.000000
    35  H    3.185226   2.989274   4.204262   8.659903   0.000000
    36  H    4.850665   5.135516   6.253095  10.890558   2.289001
    37  H    6.326622   8.172302   8.634204  14.125427   5.801869
    38  H    2.243092   4.938625   4.970213  10.407496   3.766581
                   36         37         38
    36  H    0.000000
    37  H    4.301434   0.000000
    38  H    4.321572   4.292183   0.000000
 Symmetry turned off by external request.
 Stoichiometry    C16H5F10N3O4
 Framework group  C1[X(C16H5F10N3O4)]
 Deg. of freedom   108
 Full point group                 C1      NOp   1
 Rotational constants (GHZ):      0.2816874      0.0614897      0.0584618
 Leave Link  202 at Mon Feb  3 21:38:59 2025, MaxMem=  5368709120 cpu:         0.1
 (Enter /home/k0335/k033513/app/g09/l301.exe)
 Standard basis: 6-31G(d,p) (6D, 7F)
 Ernie: Thresh=  0.10000D-02 Tol=  0.10000D-05 Strict=F.
   520 basis functions,   959 primitive gaussians,   520 cartesian basis functions
   122 alpha electrons      122 beta electrons
       nuclear repulsion energy      3799.4309361834 Hartrees.
 IExCor=20419 DFT=T Ex+Corr=CAM-B3LYP ExCW=0 ScaHFX=  1.000000
 ScaDFX=  1.000000  1.000000  1.000000  0.810000 ScalE2=  1.000000  1.000000
 IRadAn=      0 IRanWt=     -1 IRanGd=            0 ICorTp=0 IEmpDi=  4
  HFx wShort=  0.000000 wLong=  0.330000 cFull=  0.190000 cShort=  0.000000 cLong=  0.460000
  DFx wShort=  0.000000 wLong=  0.330000 cFull=  0.190000 cShort=  0.000000 cLong=  0.460000
 NAtoms=   38 NActive=   38 NUniq=   38 SFac= 1.00D+00 NAtFMM=   60 NAOKFM=F Big=F
 Integral buffers will be    131072 words long.
 Raffenetti 2 integral format.
 Two-electron integral symmetry is turned off.
 Using the following non-standard input for PCM:
 eps=2.05
 --- end of non-standard input.
 ------------------------------------------------------------------------------
 Polarizable Continuum Model (PCM)
 =================================
 Model                : PCM (using non-symmetric T matrix).
 Atomic radii         : UFF (Universal Force Field).
 Polarization charges : Total charges.
 Charge compensation  : None.
 Solution method      : On-the-fly selection.
 Cavity type          : Scaled VdW (van der Waals Surface) (Alpha=1.100).
 Cavity algorithm     : GePol (No added spheres)
                        Default sphere list used, NSphG=   38.
                        Lebedev-Laikov grids with approx.  5.0 points / Ang**2.
                        Smoothing algorithm: Karplus/York (Gamma=1.0000).
                        Polarization charges: spherical gaussians, with
                                              point-specific exponents (IZeta= 3).
                        Self-potential: point-specific (ISelfS= 7).
                        Self-field    : sphere-specific E.n sum rule (ISelfD= 2).
 Solvent              : Generic,
                        Eps                           =   2.050000
                        Eps(infinity)                 =   0.000000
                        RSolv                         =   0.000000 Ang.
                        Molar volume                  =   0.000000 cm**3/mol
                        Thermal expansion coefficient =   0.000000 K**-1
                        Absolute temperature          = 298.150000 K
                        Numeral density               =   0.000000 Ang**-3
                        Hydrogen bond acidity         =   0.000000
                        Hydrogen bond basicity        =   0.000000
                        Surface tension at interface  =   0.000000 (cal/mol)*Ang**-2
                        Carbon aromaticity            =   0.000000
                        Electronegative halogenicity  =   0.000000
 ------------------------------------------------------------------------------
 GePol: Number of generator spheres                  =      38
 GePol: Total number of spheres                      =      38
 GePol: Number of exposed spheres                    =      36 ( 94.74%)
 GePol: Number of points                             =    3307
 GePol: Average weight of points                     =       0.13
 GePol: Minimum weight of points                     =   0.34D-10
 GePol: Maximum weight of points                     =    0.20577
 GePol: Number of points with low weight             =     130
 GePol: Fraction of low-weight points (<1% of avg)   =       3.93%
 GePol: Cavity surface area                          =    428.628 Ang**2
 GePol: Cavity volume                                =    480.873 Ang**3
 Leave Link  301 at Mon Feb  3 21:38:59 2025, MaxMem=  5368709120 cpu:         0.7
 (Enter /home/k0335/k033513/app/g09/l302.exe)
 NPDir=0 NMtPBC=     1 NCelOv=     1 NCel=       1 NClECP=     1 NCelD=      1
         NCelK=      1 NCelE2=     1 NClLst=     1 CellRange=     0.0.
 One-electron integrals computed using PRISM.
 NBasis=   520 RedAO= T EigKep=  3.86D-04  NBF=   520
 NBsUse=   520 1.00D-06 EigRej= -1.00D+00 NBFU=   520
 Precomputing XC quadrature grid using
 IXCGrd= 4 IRadAn=           0 IRanWt=          -1 IRanGd=           0 AccXCQ= 0.00D+00.
 Generated NRdTot=       0 NPtTot=           0 NUsed=           0 NTot=          32
 NSgBfM=   497   497   497   497   497 MxSgAt=    38 MxSgA2=    38.
 Leave Link  302 at Mon Feb  3 21:39:00 2025, MaxMem=  5368709120 cpu:         8.5
 (Enter /home/k0335/k033513/app/g09/l303.exe)
 DipDrv:  MaxL=1.
 Leave Link  303 at Mon Feb  3 21:39:00 2025, MaxMem=  5368709120 cpu:         0.6
 (Enter /home/k0335/k033513/app/g09/l401.exe)
 ExpMin= 1.61D-01 ExpMax= 7.00D+03 ExpMxC= 1.05D+03 IAcc=1 IRadAn=         1 AccDes= 0.00D+00
 Harris functional with IExCor=20419 and IRadAn=       1 diagonalized for initial guess.
 HarFok:  IExCor=20419 AccDes= 0.00D+00 IRadAn=         1 IDoV= 1 UseB2=F ITyADJ=14
 ICtDFT=  3500011 ScaDFX=  1.000000  1.000000  1.000000  1.000000
 FoFCou: FMM=F IPFlag=           0 FMFlag=      100000 FMFlg1=           0
         NFxFlg=           0 DoJE=T BraDBF=F KetDBF=T FulRan=T
         wScrn=  0.000000 ICntrl=     500 IOpCl=  0 I1Cent=   200000004 NGrid=           0
         NMat0=    1 NMatS0=      1 NMatT0=    0 NMatD0=    1 NMtDS0=    0 NMtDT0=    0
 Symmetry not used in FoFCou.
 Harris En= -2009.86790854459    
 JPrj=0 DoOrth=F DoCkMO=F.
 Leave Link  401 at Mon Feb  3 21:39:01 2025, MaxMem=  5368709120 cpu:        10.0
 (Enter /home/k0335/k033513/app/g09/l502.exe)
 Closed shell SCF:
 Using DIIS extrapolation, IDIIS=  1040.
 Two-electron integral symmetry not used.
 IVT=      845426 IEndB=      845426 NGot=  5368709120 MDV=  5368151255
 LenX=  5368151255 LenY=  5367880335
 Requested convergence on RMS density matrix=1.00D-08 within 128 cycles.
 Requested convergence on MAX density matrix=1.00D-06.
 Requested convergence on             energy=1.00D-06.
 No special actions if energy rises.
 Fock matrices will be formed incrementally for  20 cycles.

 Cycle   1  Pass 1  IDiag  1:
 FoFJK:  IHMeth= 1 ICntrl=       0 DoSepK=T KAlg= 0 I1Cent=   0 FoldK=F
 IRaf=         1 NMat=   1 IRICut=       1 DoRegI=T DoRafI=F ISym2E= 0.
 FoFCou: FMM=F IPFlag=           0 FMFlag=      100000 FMFlg1=           0
         NFxFlg=           0 DoJE=T BraDBF=F KetDBF=F FulRan=T
         wScrn=  0.000000 ICntrl=     500 IOpCl=  0 I1Cent=           0 NGrid=           0
         NMat0=    1 NMatS0=      1 NMatT0=    0 NMatD0=    1 NMtDS0=    0 NMtDT0=    0
 Symmetry not used in FoFCou.
 Inv3:  Mode=1 IEnd=    32808747.
 Iteration    1 A*A^-1 deviation from unit magnitude is 7.88D-15 for   3278.
 Iteration    1 A*A^-1 deviation from orthogonality  is 4.27D-15 for   3306   1410.
 Iteration    1 A^-1*A deviation from unit magnitude is 7.99D-15 for   3278.
 Iteration    1 A^-1*A deviation from orthogonality  is 1.52D-15 for   3285    840.
 E= -2074.94766422136    
 DIIS: error= 4.39D-02 at cycle   1 NSaved=   1.
 NSaved= 1 IEnMin= 1 EnMin= -2074.94766422136     IErMin= 1 ErrMin= 4.39D-02
 ErrMax= 4.39D-02  0.00D+00 EMaxC= 1.00D-01 BMatC= 1.65D+00 BMatP= 1.65D+00
 IDIUse=3 WtCom= 5.61D-01 WtEn= 4.39D-01
 Coeff-Com:  0.100D+01
 Coeff-En:   0.100D+01
 Coeff:      0.100D+01
 Gap=     0.482 Goal=   None    Shift=    0.000
 GapD=    0.482 DampG=2.000 DampE=0.500 DampFc=1.0000 IDamp=-1.
 RMSDP=3.06D-03 MaxDP=1.16D-01              OVMax= 1.44D-01

 Cycle   2  Pass 1  IDiag  1:
 RMSU=  3.05D-03    CP:  9.93D-01
 E= -2075.17714118204     Delta-E=       -0.229476960673 Rises=F Damp=F
 DIIS: error= 1.65D-02 at cycle   2 NSaved=   2.
 NSaved= 2 IEnMin= 2 EnMin= -2075.17714118204     IErMin= 2 ErrMin= 1.65D-02
 ErrMax= 1.65D-02  0.00D+00 EMaxC= 1.00D-01 BMatC= 5.78D-01 BMatP= 1.65D+00
 IDIUse=3 WtCom= 8.35D-01 WtEn= 1.65D-01
 Coeff-Com:  0.347D+00 0.653D+00
 Coeff-En:   0.336D+00 0.664D+00
 Coeff:      0.345D+00 0.655D+00
 Gap=     0.315 Goal=   None    Shift=    0.000
 RMSDP=1.37D-03 MaxDP=6.63D-02 DE=-2.29D-01 OVMax= 8.52D-02

 Cycle   3  Pass 1  IDiag  1:
 RMSU=  9.52D-04    CP:  9.96D-01  6.80D-01
 E= -2075.44102271695     Delta-E=       -0.263881534913 Rises=F Damp=F
 DIIS: error= 9.58D-03 at cycle   3 NSaved=   3.
 NSaved= 3 IEnMin= 3 EnMin= -2075.44102271695     IErMin= 3 ErrMin= 9.58D-03
 ErrMax= 9.58D-03  0.00D+00 EMaxC= 1.00D-01 BMatC= 1.21D-01 BMatP= 5.78D-01
 IDIUse=3 WtCom= 9.04D-01 WtEn= 9.58D-02
 Coeff-Com:  0.701D-01 0.330D+00 0.600D+00
 Coeff-En:   0.000D+00 0.157D+00 0.843D+00
 Coeff:      0.634D-01 0.313D+00 0.624D+00
 Gap=     0.284 Goal=   None    Shift=    0.000
 RMSDP=6.35D-04 MaxDP=4.32D-02 DE=-2.64D-01 OVMax= 6.45D-02

 Cycle   4  Pass 1  IDiag  1:
 RMSU=  3.48D-04    CP:  9.92D-01  7.64D-01  5.17D-01
 E= -2075.51340234197     Delta-E=       -0.072379625016 Rises=F Damp=F
 DIIS: error= 3.20D-03 at cycle   4 NSaved=   4.
 NSaved= 4 IEnMin= 4 EnMin= -2075.51340234197     IErMin= 4 ErrMin= 3.20D-03
 ErrMax= 3.20D-03  0.00D+00 EMaxC= 1.00D-01 BMatC= 1.12D-02 BMatP= 1.21D-01
 IDIUse=3 WtCom= 9.68D-01 WtEn= 3.20D-02
 Coeff-Com:  0.579D-02 0.101D+00 0.318D+00 0.575D+00
 Coeff-En:   0.000D+00 0.000D+00 0.307D-01 0.969D+00
 Coeff:      0.560D-02 0.981D-01 0.309D+00 0.587D+00
 Gap=     0.282 Goal=   None    Shift=    0.000
 RMSDP=1.95D-04 MaxDP=1.76D-02 DE=-7.24D-02 OVMax= 2.14D-02

 Cycle   5  Pass 1  IDiag  1:
 RMSU=  9.66D-05    CP:  9.92D-01  7.66D-01  6.47D-01  6.66D-01
 E= -2075.52115759214     Delta-E=       -0.007755250170 Rises=F Damp=F
 DIIS: error= 1.14D-03 at cycle   5 NSaved=   5.
 NSaved= 5 IEnMin= 5 EnMin= -2075.52115759214     IErMin= 5 ErrMin= 1.14D-03
 ErrMax= 1.14D-03  0.00D+00 EMaxC= 1.00D-01 BMatC= 7.79D-04 BMatP= 1.12D-02
 IDIUse=3 WtCom= 9.89D-01 WtEn= 1.14D-02
 Coeff-Com:  0.759D-04 0.406D-01 0.151D+00 0.339D+00 0.470D+00
 Coeff-En:   0.000D+00 0.000D+00 0.000D+00 0.000D+00 0.100D+01
 Coeff:      0.751D-04 0.401D-01 0.149D+00 0.335D+00 0.476D+00
 Gap=     0.282 Goal=   None    Shift=    0.000
 RMSDP=4.55D-05 MaxDP=4.43D-03 DE=-7.76D-03 OVMax= 5.61D-03

 Cycle   6  Pass 1  IDiag  1:
 RMSU=  2.86D-05    CP:  9.92D-01  7.68D-01  6.44D-01  6.89D-01  6.53D-01
 E= -2075.52172239182     Delta-E=       -0.000564799686 Rises=F Damp=F
 DIIS: error= 9.77D-05 at cycle   6 NSaved=   6.
 NSaved= 6 IEnMin= 6 EnMin= -2075.52172239182     IErMin= 6 ErrMin= 9.77D-05
 ErrMax= 9.77D-05  0.00D+00 EMaxC= 1.00D-01 BMatC= 1.91D-05 BMatP= 7.79D-04
 IDIUse=1 WtCom= 1.00D+00 WtEn= 0.00D+00
 Coeff-Com: -0.557D-03 0.338D-03 0.843D-02 0.311D-01 0.144D+00 0.817D+00
 Coeff:     -0.557D-03 0.338D-03 0.843D-02 0.311D-01 0.144D+00 0.817D+00
 Gap=     0.282 Goal=   None    Shift=    0.000
 RMSDP=1.29D-05 MaxDP=7.31D-04 DE=-5.65D-04 OVMax= 8.94D-04

 Cycle   7  Pass 1  IDiag  1:
 RMSU=  8.63D-06    CP:  9.92D-01  7.69D-01  6.48D-01  7.04D-01  7.24D-01
                    CP:  9.71D-01
 E= -2075.52173906233     Delta-E=       -0.000016670505 Rises=F Damp=F
 DIIS: error= 7.58D-05 at cycle   7 NSaved=   7.
 NSaved= 7 IEnMin= 7 EnMin= -2075.52173906233     IErMin= 7 ErrMin= 7.58D-05
 ErrMax= 7.58D-05  0.00D+00 EMaxC= 1.00D-01 BMatC= 4.14D-06 BMatP= 1.91D-05
 IDIUse=1 WtCom= 1.00D+00 WtEn= 0.00D+00
 Coeff-Com: -0.241D-03-0.461D-02-0.129D-01-0.235D-01 0.182D-01 0.389D+00
 Coeff-Com:  0.635D+00
 Coeff:     -0.241D-03-0.461D-02-0.129D-01-0.235D-01 0.182D-01 0.389D+00
 Coeff:      0.635D+00
 Gap=     0.282 Goal=   None    Shift=    0.000
 RMSDP=5.25D-06 MaxDP=4.65D-04 DE=-1.67D-05 OVMax= 7.33D-04

 Cycle   8  Pass 1  IDiag  1:
 RMSU=  3.14D-06    CP:  9.92D-01  7.69D-01  6.49D-01  7.05D-01  7.43D-01
                    CP:  1.07D+00  8.09D-01
 E= -2075.52174298873     Delta-E=       -0.000003926407 Rises=F Damp=F
 DIIS: error= 2.36D-05 at cycle   8 NSaved=   8.
 NSaved= 8 IEnMin= 8 EnMin= -2075.52174298873     IErMin= 8 ErrMin= 2.36D-05
 ErrMax= 2.36D-05  0.00D+00 EMaxC= 1.00D-01 BMatC= 3.05D-07 BMatP= 4.14D-06
 IDIUse=1 WtCom= 1.00D+00 WtEn= 0.00D+00
 Coeff-Com: -0.300D-04-0.174D-02-0.535D-02-0.117D-01-0.598D-02 0.596D-01
 Coeff-Com:  0.241D+00 0.724D+00
 Coeff:     -0.300D-04-0.174D-02-0.535D-02-0.117D-01-0.598D-02 0.596D-01
 Coeff:      0.241D+00 0.724D+00
 Gap=     0.283 Goal=   None    Shift=    0.000
 RMSDP=1.66D-06 MaxDP=1.28D-04 DE=-3.93D-06 OVMax= 2.34D-04

 Cycle   9  Pass 1  IDiag  1:
 RMSU=  1.39D-06    CP:  9.92D-01  7.69D-01  6.49D-01  7.05D-01  7.48D-01
                    CP:  1.09D+00  8.85D-01  9.59D-01
 E= -2075.52174328643     Delta-E=       -0.000000297694 Rises=F Damp=F
 DIIS: error= 2.61D-05 at cycle   9 NSaved=   9.
 NSaved= 9 IEnMin= 9 EnMin= -2075.52174328643     IErMin= 8 ErrMin= 2.36D-05
 ErrMax= 2.61D-05  0.00D+00 EMaxC= 1.00D-01 BMatC= 1.07D-07 BMatP= 3.05D-07
 IDIUse=1 WtCom= 1.00D+00 WtEn= 0.00D+00
 Coeff-Com:  0.216D-04-0.239D-03-0.908D-03-0.301D-02-0.717D-02-0.388D-01
 Coeff-Com:  0.402D-01 0.429D+00 0.581D+00
 Coeff:      0.216D-04-0.239D-03-0.908D-03-0.301D-02-0.717D-02-0.388D-01
 Coeff:      0.402D-01 0.429D+00 0.581D+00
 Gap=     0.283 Goal=   None    Shift=    0.000
 RMSDP=8.42D-07 MaxDP=8.44D-05 DE=-2.98D-07 OVMax= 1.09D-04

 Cycle  10  Pass 1  IDiag  1:
 RMSU=  5.34D-07    CP:  9.92D-01  7.69D-01  6.49D-01  7.06D-01  7.50D-01
                    CP:  1.10D+00  9.13D-01  1.08D+00  8.03D-01
 E= -2075.52174339379     Delta-E=       -0.000000107364 Rises=F Damp=F
 DIIS: error= 5.70D-06 at cycle  10 NSaved=  10.
 NSaved=10 IEnMin=10 EnMin= -2075.52174339379     IErMin=10 ErrMin= 5.70D-06
 ErrMax= 5.70D-06  0.00D+00 EMaxC= 1.00D-01 BMatC= 1.03D-08 BMatP= 1.07D-07
 IDIUse=1 WtCom= 1.00D+00 WtEn= 0.00D+00
 Coeff-Com:  0.151D-04 0.224D-03 0.636D-03 0.898D-03-0.208D-02-0.307D-01
 Coeff-Com: -0.225D-01 0.491D-01 0.255D+00 0.749D+00
 Coeff:      0.151D-04 0.224D-03 0.636D-03 0.898D-03-0.208D-02-0.307D-01
 Coeff:     -0.225D-01 0.491D-01 0.255D+00 0.749D+00
 Gap=     0.283 Goal=   None    Shift=    0.000
 RMSDP=3.40D-07 MaxDP=2.58D-05 DE=-1.07D-07 OVMax= 4.97D-05

 Cycle  11  Pass 1  IDiag  1:
 RMSU=  1.85D-07    CP:  9.92D-01  7.69D-01  6.49D-01  7.06D-01  7.50D-01
                    CP:  1.10D+00  9.31D-01  1.10D+00  9.64D-01  1.01D+00
 E= -2075.52174340750     Delta-E=       -0.000000013713 Rises=F Damp=F
 DIIS: error= 1.79D-06 at cycle  11 NSaved=  11.
 NSaved=11 IEnMin=11 EnMin= -2075.52174340750     IErMin=11 ErrMin= 1.79D-06
 ErrMax= 1.79D-06  0.00D+00 EMaxC= 1.00D-01 BMatC= 1.70D-09 BMatP= 1.03D-08
 IDIUse=1 WtCom= 1.00D+00 WtEn= 0.00D+00
 Coeff-Com:  0.369D-05 0.132D-03 0.412D-03 0.822D-03 0.510D-04-0.846D-02
 Coeff-Com: -0.120D-01-0.348D-01 0.299D-01 0.348D+00 0.676D+00
 Coeff:      0.369D-05 0.132D-03 0.412D-03 0.822D-03 0.510D-04-0.846D-02
 Coeff:     -0.120D-01-0.348D-01 0.299D-01 0.348D+00 0.676D+00
 Gap=     0.283 Goal=   None    Shift=    0.000
 RMSDP=1.07D-07 MaxDP=7.25D-06 DE=-1.37D-08 OVMax= 2.42D-05

 Cycle  12  Pass 1  IDiag  1:
 RMSU=  7.07D-08    CP:  9.92D-01  7.69D-01  6.49D-01  7.06D-01  7.50D-01
                    CP:  1.10D+00  9.32D-01  1.11D+00  9.87D-01  1.12D+00
                    CP:  9.03D-01
 E= -2075.52174340954     Delta-E=       -0.000000002036 Rises=F Damp=F
 DIIS: error= 4.14D-07 at cycle  12 NSaved=  12.
 NSaved=12 IEnMin=12 EnMin= -2075.52174340954     IErMin=12 ErrMin= 4.14D-07
 ErrMax= 4.14D-07  0.00D+00 EMaxC= 1.00D-01 BMatC= 1.32D-10 BMatP= 1.70D-09
 IDIUse=1 WtCom= 1.00D+00 WtEn= 0.00D+00
 Coeff-Com: -0.997D-06 0.318D-05 0.198D-04 0.102D-03 0.299D-03 0.221D-02
 Coeff-Com:  0.112D-02-0.183D-01-0.355D-01-0.245D-01 0.159D+00 0.916D+00
 Coeff:     -0.997D-06 0.318D-05 0.198D-04 0.102D-03 0.299D-03 0.221D-02
 Coeff:      0.112D-02-0.183D-01-0.355D-01-0.245D-01 0.159D+00 0.916D+00
 Gap=     0.283 Goal=   None    Shift=    0.000
 RMSDP=5.45D-08 MaxDP=3.76D-06 DE=-2.04D-09 OVMax= 8.89D-06

 Cycle  13  Pass 1  IDiag  1:
 RMSU=  2.37D-08    CP:  9.92D-01  7.69D-01  6.49D-01  7.06D-01  7.50D-01
                    CP:  1.10D+00  9.33D-01  1.12D+00  1.00D+00  1.17D+00
                    CP:  1.04D+00  1.14D+00
 E= -2075.52174340987     Delta-E=       -0.000000000332 Rises=F Damp=F
 DIIS: error= 1.74D-07 at cycle  13 NSaved=  13.
 NSaved=13 IEnMin=13 EnMin= -2075.52174340987     IErMin=13 ErrMin= 1.74D-07
 ErrMax= 1.74D-07  0.00D+00 EMaxC= 1.00D-01 BMatC= 2.16D-11 BMatP= 1.32D-10
 IDIUse=1 WtCom= 1.00D+00 WtEn= 0.00D+00
 Coeff-Com: -0.928D-06-0.153D-04-0.422D-04-0.577D-04 0.100D-03 0.193D-02
 Coeff-Com:  0.233D-02-0.304D-02-0.179D-01-0.484D-01-0.832D-02 0.365D+00
 Coeff-Com:  0.709D+00
 Coeff:     -0.928D-06-0.153D-04-0.422D-04-0.577D-04 0.100D-03 0.193D-02
 Coeff:      0.233D-02-0.304D-02-0.179D-01-0.484D-01-0.832D-02 0.365D+00
 Coeff:      0.709D+00
 Gap=     0.283 Goal=   None    Shift=    0.000
 RMSDP=1.48D-08 MaxDP=1.07D-06 DE=-3.32D-10 OVMax= 2.56D-06

 Cycle  14  Pass 1  IDiag  1:
 RMSU=  1.03D-08    CP:  9.92D-01  7.69D-01  6.49D-01  7.06D-01  7.50D-01
                    CP:  1.10D+00  9.33D-01  1.12D+00  1.00D+00  1.18D+00
                    CP:  1.06D+00  1.25D+00  9.78D-01
 E= -2075.52174340993     Delta-E=       -0.000000000052 Rises=F Damp=F
 DIIS: error= 7.10D-08 at cycle  14 NSaved=  14.
 NSaved=14 IEnMin=14 EnMin= -2075.52174340993     IErMin=14 ErrMin= 7.10D-08
 ErrMax= 7.10D-08  0.00D+00 EMaxC= 1.00D-01 BMatC= 4.69D-12 BMatP= 2.16D-11
 IDIUse=1 WtCom= 1.00D+00 WtEn= 0.00D+00
 Coeff-Com: -0.275D-06-0.706D-05-0.203D-04-0.374D-04-0.104D-04 0.512D-03
 Coeff-Com:  0.902D-03 0.931D-03-0.308D-02-0.164D-01-0.213D-01 0.325D-01
 Coeff-Com:  0.329D+00 0.677D+00
 Coeff:     -0.275D-06-0.706D-05-0.203D-04-0.374D-04-0.104D-04 0.512D-03
 Coeff:      0.902D-03 0.931D-03-0.308D-02-0.164D-01-0.213D-01 0.325D-01
 Coeff:      0.329D+00 0.677D+00
 Gap=     0.283 Goal=   None    Shift=    0.000
 RMSDP=5.45D-09 MaxDP=3.63D-07 DE=-5.18D-11 OVMax= 9.07D-07

 Error on total polarization charges =  0.00259
 SCF Done:  E(RCAM-B3LYP) =  -2075.52174341     A.U. after   14 cycles
            NFock= 14  Conv=0.54D-08     -V/T= 2.0077
 KE= 2.059736912476D+03 PE=-1.248444797074D+04 EE= 4.549758378671D+03
 Leave Link  502 at Mon Feb  3 21:39:40 2025, MaxMem=  5368709120 cpu:       863.9
 (Enter /home/k0335/k033513/app/g09/l601.exe)
 Copying SCF densities to generalized density rwf, IOpCl= 0 IROHF=0.

 **********************************************************************

            Population analysis using the SCF density.

 **********************************************************************

 Alpha  occ. eigenvalues --  -24.84489 -24.83991 -24.83819 -24.83767 -24.83388
 Alpha  occ. eigenvalues --  -24.83299 -24.82669 -24.82646 -24.82497 -24.82371
 Alpha  occ. eigenvalues --  -19.32280 -19.30610 -19.25887 -19.25280 -14.49741
 Alpha  occ. eigenvalues --  -14.43288 -14.42988 -10.53163 -10.49635 -10.49537
 Alpha  occ. eigenvalues --  -10.49418 -10.47920 -10.44794 -10.43341 -10.43144
 Alpha  occ. eigenvalues --  -10.36453 -10.34378 -10.34125 -10.32708 -10.32462
 Alpha  occ. eigenvalues --  -10.32393 -10.32103 -10.31622  -1.41209  -1.39390
 Alpha  occ. eigenvalues --   -1.38729  -1.38150  -1.35885  -1.35601  -1.33454
 Alpha  occ. eigenvalues --   -1.32488  -1.32232  -1.31373  -1.22555  -1.20362
 Alpha  occ. eigenvalues --   -1.17121  -1.12754  -1.06926  -1.01530  -1.00635
 Alpha  occ. eigenvalues --   -0.98270  -0.98122  -0.92241  -0.90237  -0.89368
 Alpha  occ. eigenvalues --   -0.88569  -0.83708  -0.78729  -0.78389  -0.77374
 Alpha  occ. eigenvalues --   -0.75636  -0.74179  -0.73461  -0.71504  -0.71182
 Alpha  occ. eigenvalues --   -0.69452  -0.69188  -0.67996  -0.67794  -0.67376
 Alpha  occ. eigenvalues --   -0.66454  -0.66129  -0.65706  -0.64747  -0.63608
 Alpha  occ. eigenvalues --   -0.63162  -0.60689  -0.59026  -0.58976  -0.58716
 Alpha  occ. eigenvalues --   -0.58491  -0.58466  -0.57411  -0.56463  -0.55884
 Alpha  occ. eigenvalues --   -0.55770  -0.55230  -0.55036  -0.54629  -0.54240
 Alpha  occ. eigenvalues --   -0.53957  -0.53811  -0.53588  -0.53391  -0.52771
 Alpha  occ. eigenvalues --   -0.52206  -0.51695  -0.51447  -0.51026  -0.50790
 Alpha  occ. eigenvalues --   -0.50288  -0.50054  -0.49616  -0.49390  -0.48848
 Alpha  occ. eigenvalues --   -0.48470  -0.47170  -0.45772  -0.45264  -0.45153
 Alpha  occ. eigenvalues --   -0.44747  -0.44521  -0.44223  -0.43016  -0.42174
 Alpha  occ. eigenvalues --   -0.41607  -0.41397  -0.39534  -0.38125  -0.36889
 Alpha  occ. eigenvalues --   -0.34268  -0.32088
 Alpha virt. eigenvalues --   -0.03838  -0.03058  -0.00553   0.01303   0.03901
 Alpha virt. eigenvalues --    0.06389   0.08121   0.08475   0.08851   0.10324
 Alpha virt. eigenvalues --    0.10675   0.11500   0.11986   0.13241   0.14409
 Alpha virt. eigenvalues --    0.15760   0.17796   0.18780   0.19056   0.19981
 Alpha virt. eigenvalues --    0.22116   0.22297   0.23031   0.23597   0.23735
 Alpha virt. eigenvalues --    0.24815   0.26012   0.26970   0.27124   0.27774
 Alpha virt. eigenvalues --    0.28591   0.29184   0.30548   0.31587   0.32406
 Alpha virt. eigenvalues --    0.33341   0.33851   0.34546   0.35699   0.36364
 Alpha virt. eigenvalues --    0.38008   0.39188   0.40318   0.42133   0.44967
 Alpha virt. eigenvalues --    0.46195   0.47105   0.48343   0.49950   0.50895
 Alpha virt. eigenvalues --    0.52010   0.53271   0.53621   0.54418   0.54889
 Alpha virt. eigenvalues --    0.55563   0.56323   0.56391   0.56993   0.57989
 Alpha virt. eigenvalues --    0.58436   0.59172   0.60150   0.60612   0.60901
 Alpha virt. eigenvalues --    0.62404   0.62672   0.63460   0.63570   0.63997
 Alpha virt. eigenvalues --    0.64409   0.65110   0.65751   0.67828   0.68461
 Alpha virt. eigenvalues --    0.69100   0.69487   0.70296   0.70452   0.71192
 Alpha virt. eigenvalues --    0.71879   0.73570   0.74823   0.75794   0.75948
 Alpha virt. eigenvalues --    0.76391   0.77610   0.78594   0.79145   0.80011
 Alpha virt. eigenvalues --    0.80786   0.81840   0.82825   0.84537   0.84816
 Alpha virt. eigenvalues --    0.86091   0.87495   0.88684   0.89045   0.89512
 Alpha virt. eigenvalues --    0.90512   0.90837   0.91510   0.91892   0.92982
 Alpha virt. eigenvalues --    0.93736   0.94767   0.95594   0.96944   0.99388
 Alpha virt. eigenvalues --    0.99904   1.00859   1.02454   1.02846   1.03445
 Alpha virt. eigenvalues --    1.04759   1.05723   1.06811   1.07694   1.08620
 Alpha virt. eigenvalues --    1.09558   1.10285   1.11133   1.11171   1.12209
 Alpha virt. eigenvalues --    1.13574   1.14869   1.15269   1.16856   1.18088
 Alpha virt. eigenvalues --    1.18229   1.19266   1.19510   1.21459   1.22580
 Alpha virt. eigenvalues --    1.24543   1.25146   1.25604   1.26026   1.26670
 Alpha virt. eigenvalues --    1.27326   1.28146   1.28394   1.30283   1.32143
 Alpha virt. eigenvalues --    1.32762   1.33181   1.34061   1.34241   1.34907
 Alpha virt. eigenvalues --    1.35564   1.36096   1.36672   1.37417   1.37879
 Alpha virt. eigenvalues --    1.38136   1.38314   1.39970   1.40136   1.40596
 Alpha virt. eigenvalues --    1.41705   1.42267   1.42431   1.42779   1.43634
 Alpha virt. eigenvalues --    1.43959   1.44598   1.46593   1.47008   1.47663
 Alpha virt. eigenvalues --    1.48187   1.48772   1.50761   1.51396   1.51966
 Alpha virt. eigenvalues --    1.53522   1.53850   1.56182   1.56344   1.57326
 Alpha virt. eigenvalues --    1.57670   1.57926   1.58201   1.58701   1.59080
 Alpha virt. eigenvalues --    1.61060   1.61298   1.61568   1.62173   1.63747
 Alpha virt. eigenvalues --    1.64377   1.65675   1.66250   1.68014   1.68771
 Alpha virt. eigenvalues --    1.71183   1.71899   1.72806   1.74243   1.74943
 Alpha virt. eigenvalues --    1.75489   1.76535   1.78025   1.78873   1.79375
 Alpha virt. eigenvalues --    1.79822   1.80342   1.80780   1.81182   1.82384
 Alpha virt. eigenvalues --    1.82770   1.83558   1.83644   1.84235   1.84889
 Alpha virt. eigenvalues --    1.85874   1.86677   1.86893   1.87784   1.87916
 Alpha virt. eigenvalues --    1.88548   1.88927   1.89703   1.91148   1.91455
 Alpha virt. eigenvalues --    1.91924   1.92833   1.94141   1.94593   1.96088
 Alpha virt. eigenvalues --    1.96226   1.96761   1.98098   1.98820   1.99483
 Alpha virt. eigenvalues --    2.00349   2.00762   2.01097   2.01737   2.02785
 Alpha virt. eigenvalues --    2.03332   2.03711   2.03969   2.05080   2.05750
 Alpha virt. eigenvalues --    2.05921   2.06611   2.06993   2.07521   2.07845
 Alpha virt. eigenvalues --    2.07919   2.08318   2.08561   2.08883   2.09354
 Alpha virt. eigenvalues --    2.10757   2.10970   2.11788   2.12403   2.12677
 Alpha virt. eigenvalues --    2.14089   2.14912   2.16472   2.17320   2.17545
 Alpha virt. eigenvalues --    2.18664   2.19897   2.21608   2.22247   2.24562
 Alpha virt. eigenvalues --    2.25199   2.26550   2.27858   2.29539   2.30817
 Alpha virt. eigenvalues --    2.31277   2.31695   2.32523   2.33697   2.35401
 Alpha virt. eigenvalues --    2.36085   2.37490   2.38015   2.39626   2.41195
 Alpha virt. eigenvalues --    2.42002   2.43458   2.43806   2.44836   2.45110
 Alpha virt. eigenvalues --    2.46450   2.46892   2.50056   2.52001   2.52384
 Alpha virt. eigenvalues --    2.53450   2.53820   2.54463   2.55617   2.56288
 Alpha virt. eigenvalues --    2.57818   2.58095   2.59073   2.60371   2.61150
 Alpha virt. eigenvalues --    2.63440   2.64354   2.65051   2.68082   2.69574
 Alpha virt. eigenvalues --    2.70732   2.71081   2.71587   2.72905   2.74298
 Alpha virt. eigenvalues --    2.74928   2.76190   2.77659   2.78295   2.80291
 Alpha virt. eigenvalues --    2.80677   2.82211   2.83203   2.84646   2.85172
 Alpha virt. eigenvalues --    2.86439   2.86754   2.88320   2.89094   2.90107
 Alpha virt. eigenvalues --    2.90264   2.91097   2.92439   2.93763   2.95744
 Alpha virt. eigenvalues --    2.96507   2.98977   3.00275   3.01387   3.02157
 Alpha virt. eigenvalues --    3.05753   3.08134   3.09802   3.11678   3.13323
 Alpha virt. eigenvalues --    3.14045   3.14869   3.15792   3.17590   3.19256
 Alpha virt. eigenvalues --    3.21289   3.23036   3.23764   3.25564   3.30743
 Alpha virt. eigenvalues --    3.32291   3.32709   3.33465   3.36325   3.40614
 Alpha virt. eigenvalues --    3.45590   3.47327   3.47915   3.60352   3.80847
 Alpha virt. eigenvalues --    4.00005   4.08127   4.09552   4.14890   4.17830
 Alpha virt. eigenvalues --    4.20147   4.24741   4.25146   4.26753   4.31958
 Alpha virt. eigenvalues --    4.37809   4.38547   4.39556   4.39887   4.49079
 Alpha virt. eigenvalues --    4.50469   4.57051   4.65611   4.69664   4.74413
 Alpha virt. eigenvalues --    4.82184   4.89852   4.97637   5.02798   5.17489
 Alpha virt. eigenvalues --    5.23650   5.34316   5.51591   5.66487   5.99198
 Alpha virt. eigenvalues --    6.13496   6.41512   7.11010
          Condensed to atoms (all electrons):
               1          2          3          4          5          6
     1  F    9.028409   0.320906  -0.041729  -0.025544  -0.000387  -0.000149
     2  C    0.320906   4.326627   0.275092   0.242220  -0.016803  -0.020524
     3  F   -0.041729   0.275092   9.098800  -0.032035   0.000313  -0.000076
     4  C   -0.025544   0.242220  -0.032035   4.783404   0.240845   0.270980
     5  F   -0.000387  -0.016803   0.000313   0.240845   9.101161  -0.039260
     6  F   -0.000149  -0.020524  -0.000076   0.270980  -0.039260   9.068127
     7  C    0.001898  -0.081947   0.005264   0.110588  -0.050722  -0.027765
     8  F    0.000001   0.010516  -0.000247  -0.019374   0.000355  -0.000621
     9  C   -0.000024   0.003583   0.000033  -0.031178   0.008417  -0.008684
    10  F    0.000000  -0.000083   0.000000   0.001812   0.000002   0.000001
    11  C    0.000000  -0.000311  -0.000012  -0.014482  -0.002644   0.018166
    12  O    0.000000   0.000079   0.000000   0.010126   0.000223  -0.003259
    13  O    0.000000  -0.000011   0.000000  -0.001858   0.000001  -0.001163
    14  F    0.000000  -0.000098   0.000000   0.003403  -0.000599   0.000005
    15  C    0.001111  -0.033528  -0.001114  -0.035317   0.013796   0.001772
    16  F   -0.000006   0.003095  -0.000007   0.002096  -0.000751   0.000000
    17  C   -0.000037  -0.001875  -0.000036   0.003801   0.000090  -0.000031
    18  F    0.000000   0.000113  -0.000005   0.000022   0.000000   0.000000
    19  C   -0.000001  -0.000163   0.000002  -0.000121  -0.000001   0.000000
    20  N    0.000000  -0.000002   0.000000   0.000000   0.000000   0.000000
    21  C    0.000000   0.000000   0.000000   0.000000   0.000000   0.000000
    22  C    0.000000   0.000000   0.000000   0.000000   0.000000   0.000000
    23  C    0.000000   0.000000   0.000000   0.000000   0.000000   0.000000
    24  C    0.000000   0.000000   0.000000   0.000000   0.000000   0.000000
    25  N    0.000000   0.000000   0.000000   0.000000   0.000000   0.000000
    26  C    0.000000   0.000000   0.000000   0.000000   0.000000   0.000000
    27  C    0.000000   0.000000   0.000000   0.000000   0.000000   0.000000
    28  C    0.000000   0.000000   0.000000   0.000000   0.000000   0.000000
    29  N    0.000000   0.000000   0.000000   0.000000   0.000000   0.000000
    30  C    0.000000   0.000000   0.000000   0.000000   0.000000   0.000000
    31  O    0.000000   0.000083   0.000000  -0.000014   0.000000   0.000000
    32  F    0.000000   0.000012   0.000000   0.000021   0.000000   0.000000
    33  O   -0.041503   0.194475  -0.052262  -0.048658  -0.001361   0.000739
    34  H    0.000000  -0.000002   0.000000  -0.000170   0.000034   0.000151
    35  H    0.000000   0.000000   0.000000   0.000000   0.000000   0.000000
    36  H    0.000000   0.000000   0.000000   0.000000   0.000000   0.000000
    37  H    0.000000   0.000000   0.000000   0.000000   0.000000   0.000000
    38  H    0.000000   0.000000   0.000000   0.000000   0.000000   0.000000
               7          8          9         10         11         12
     1  F    0.001898   0.000001  -0.000024   0.000000   0.000000   0.000000
     2  C   -0.081947   0.010516   0.003583  -0.000083  -0.000311   0.000079
     3  F    0.005264  -0.000247   0.000033   0.000000  -0.000012   0.000000
     4  C    0.110588  -0.019374  -0.031178   0.001812  -0.014482   0.010126
     5  F   -0.050722   0.000355   0.008417   0.000002  -0.002644   0.000223
     6  F   -0.027765  -0.000621  -0.008684   0.000001   0.018166  -0.003259
     7  C    5.553745   0.193503   0.195659  -0.033497  -0.064297  -0.003157
     8  F    0.193503   9.141474  -0.022509  -0.000513   0.003666   0.000066
     9  C    0.195659  -0.022509   4.589321   0.273208   0.234453  -0.069624
    10  F   -0.033497  -0.000513   0.273208   9.099797  -0.029704   0.000686
    11  C   -0.064297   0.003666   0.234453  -0.029704   4.600827   0.234313
    12  O   -0.003157   0.000066  -0.069624   0.000686   0.234313   8.108864
    13  O    0.005851  -0.000827  -0.052321  -0.001651   0.554615  -0.095634
    14  F   -0.039455   0.000303   0.270279  -0.040487  -0.032248   0.003032
    15  C    0.174892  -0.024881  -0.032269  -0.003070   0.005040  -0.000103
    16  F   -0.036923   0.000335   0.006060  -0.000162   0.000068   0.000000
    17  C   -0.025979   0.005385  -0.008266   0.008765   0.000026   0.000000
    18  F    0.001430  -0.001675  -0.000379  -0.000208   0.000015   0.000000
    19  C    0.003788   0.000087   0.000186   0.000099   0.000004   0.000000
    20  N   -0.000067   0.000000  -0.000001   0.000000   0.000000   0.000000
    21  C    0.000002   0.000000   0.000000   0.000000   0.000000   0.000000
    22  C    0.000000   0.000000   0.000000   0.000000   0.000000   0.000000
    23  C    0.000000   0.000000   0.000000   0.000000   0.000000   0.000000
    24  C    0.000000   0.000000   0.000000   0.000000   0.000000   0.000000
    25  N    0.000000   0.000000   0.000000   0.000000   0.000000   0.000000
    26  C    0.000000   0.000000   0.000000   0.000000   0.000000   0.000000
    27  C    0.000000   0.000000   0.000000   0.000000   0.000000   0.000000
    28  C    0.000000   0.000000   0.000000   0.000000   0.000000   0.000000
    29  N    0.000000   0.000000   0.000000   0.000000   0.000000   0.000000
    30  C    0.000000   0.000000   0.000000   0.000000   0.000000   0.000000
    31  O    0.000109   0.000000  -0.000007   0.000000   0.000000   0.000000
    32  F   -0.003154  -0.000226   0.010014  -0.007493   0.000073   0.000000
    33  O   -0.022645  -0.002172   0.003096   0.000004  -0.000044   0.000000
    34  H   -0.000283   0.000003   0.007500  -0.000050  -0.011473   0.281222
    35  H   -0.000023   0.000005  -0.000001   0.000000   0.000000   0.000000
    36  H    0.000000   0.000000   0.000000   0.000000   0.000000   0.000000
    37  H    0.000000   0.000000   0.000000   0.000000   0.000000   0.000000
    38  H    0.000000   0.000000   0.000000   0.000000   0.000000   0.000000
              13         14         15         16         17         18
     1  F    0.000000   0.000000   0.001111  -0.000006  -0.000037   0.000000
     2  C   -0.000011  -0.000098  -0.033528   0.003095  -0.001875   0.000113
     3  F    0.000000   0.000000  -0.001114  -0.000007  -0.000036  -0.000005
     4  C   -0.001858   0.003403  -0.035317   0.002096   0.003801   0.000022
     5  F    0.000001  -0.000599   0.013796  -0.000751   0.000090   0.000000
     6  F   -0.001163   0.000005   0.001772   0.000000  -0.000031   0.000000
     7  C    0.005851  -0.039455   0.174892  -0.036923  -0.025979   0.001430
     8  F   -0.000827   0.000303  -0.024881   0.000335   0.005385  -0.001675
     9  C   -0.052321   0.270279  -0.032269   0.006060  -0.008266  -0.000379
    10  F   -0.001651  -0.040487  -0.003070  -0.000162   0.008765  -0.000208
    11  C    0.554615  -0.032248   0.005040   0.000068   0.000026   0.000015
    12  O   -0.095634   0.003032  -0.000103   0.000000   0.000000   0.000000
    13  O    8.022542   0.000691  -0.000033   0.000000  -0.000003   0.000000
    14  F    0.000691   9.098804   0.000203  -0.002199  -0.000215   0.000000
    15  C   -0.000033   0.000203   4.953688   0.227249   0.181773  -0.026104
    16  F    0.000000  -0.002199   0.227249   9.141644  -0.024085   0.000279
    17  C   -0.000003  -0.000215   0.181773  -0.024085   4.714062   0.228126
    18  F    0.000000   0.000000  -0.026104   0.000279   0.228126   9.132931
    19  C    0.000000   0.000013  -0.052838  -0.001598   0.279705  -0.032329
    20  N    0.000000   0.000000   0.003015   0.000024  -0.075795  -0.004272
    21  C    0.000000   0.000000  -0.000118   0.000001   0.003922   0.000528
    22  C    0.000000   0.000000  -0.000001   0.000000  -0.000358  -0.000062
    23  C    0.000000   0.000000   0.000000   0.000000  -0.000001   0.000000
    24  C    0.000000   0.000000   0.000000   0.000000   0.000000   0.000000
    25  N    0.000000   0.000000   0.000000   0.000000   0.000000   0.000000
    26  C    0.000000   0.000000   0.000000   0.000000   0.000000   0.000000
    27  C    0.000000   0.000000   0.000000   0.000000   0.000005   0.000000
    28  C    0.000000   0.000000   0.000000   0.000000   0.000000   0.000000
    29  N    0.000000   0.000000   0.000000   0.000000   0.000000   0.000000
    30  C    0.000000   0.000000   0.000004   0.000000   0.000425  -0.000011
    31  O    0.000000   0.000000   0.012396  -0.000837  -0.063548   0.000765
    32  F    0.000000  -0.000243  -0.027807   0.000021   0.251541  -0.039011
    33  O    0.000000   0.000003   0.162775  -0.053070  -0.033719   0.000402
    34  H    0.008587  -0.000100   0.000008   0.000000   0.000000   0.000000
    35  H    0.000000   0.000000   0.001117  -0.000006  -0.000494   0.019375
    36  H    0.000000   0.000000   0.000000   0.000000  -0.000003  -0.000030
    37  H    0.000000   0.000000   0.000000   0.000000   0.000000   0.000000
    38  H    0.000000   0.000000  -0.000009   0.000001   0.000304  -0.000002
              19         20         21         22         23         24
     1  F   -0.000001   0.000000   0.000000   0.000000   0.000000   0.000000
     2  C   -0.000163  -0.000002   0.000000   0.000000   0.000000   0.000000
     3  F    0.000002   0.000000   0.000000   0.000000   0.000000   0.000000
     4  C   -0.000121   0.000000   0.000000   0.000000   0.000000   0.000000
     5  F   -0.000001   0.000000   0.000000   0.000000   0.000000   0.000000
     6  F    0.000000   0.000000   0.000000   0.000000   0.000000   0.000000
     7  C    0.003788  -0.000067   0.000002   0.000000   0.000000   0.000000
     8  F    0.000087   0.000000   0.000000   0.000000   0.000000   0.000000
     9  C    0.000186  -0.000001   0.000000   0.000000   0.000000   0.000000
    10  F    0.000099   0.000000   0.000000   0.000000   0.000000   0.000000
    11  C    0.000004   0.000000   0.000000   0.000000   0.000000   0.000000
    12  O    0.000000   0.000000   0.000000   0.000000   0.000000   0.000000
    13  O    0.000000   0.000000   0.000000   0.000000   0.000000   0.000000
    14  F    0.000013   0.000000   0.000000   0.000000   0.000000   0.000000
    15  C   -0.052838   0.003015  -0.000118  -0.000001   0.000000   0.000000
    16  F   -0.001598   0.000024   0.000001   0.000000   0.000000   0.000000
    17  C    0.279705  -0.075795   0.003922  -0.000358  -0.000001   0.000000
    18  F   -0.032329  -0.004272   0.000528  -0.000062   0.000000   0.000000
    19  C    4.490549   0.236995  -0.024192   0.005677  -0.000105   0.000001
    20  N    0.236995   7.156076   0.220748  -0.052185   0.004013  -0.000175
    21  C   -0.024192   0.220748   4.592843   0.491804  -0.008004   0.003120
    22  C    0.005677  -0.052185   0.491804   4.959777   0.532644  -0.033994
    23  C   -0.000105   0.004013  -0.008004   0.532644   4.856378   0.202868
    24  C    0.000001  -0.000175   0.003120  -0.033994   0.202868   4.719206
    25  N    0.000000   0.000000  -0.000100  -0.000135  -0.095358   0.919123
    26  C    0.000001   0.000905  -0.046686  -0.048821   0.518412  -0.035031
    27  C    0.000299   0.003181  -0.010120  -0.038247  -0.014496   0.003589
    28  C    0.000000  -0.000151   0.003155   0.001751   0.003816  -0.000400
    29  N    0.000000   0.000000  -0.000126   0.000016  -0.000103  -0.000002
    30  C   -0.003505  -0.052385   0.527321  -0.068301  -0.038387   0.001645
    31  O    0.554402  -0.085715  -0.002530   0.000265  -0.000004   0.000000
    32  F   -0.024996  -0.001350  -0.000042   0.000000   0.000000   0.000000
    33  O    0.002901  -0.000112   0.000003   0.000000   0.000000   0.000000
    34  H    0.000000   0.000000   0.000000   0.000000   0.000000   0.000000
    35  H   -0.031989   0.338214  -0.022272  -0.005884   0.000023   0.000006
    36  H    0.000254  -0.007189  -0.039589   0.368829  -0.029232  -0.005476
    37  H    0.000000   0.000004   0.000145   0.004610  -0.035644  -0.005240
    38  H    0.001737  -0.009710  -0.025954   0.004865  -0.000070   0.000005
              25         26         27         28         29         30
     1  F    0.000000   0.000000   0.000000   0.000000   0.000000   0.000000
     2  C    0.000000   0.000000   0.000000   0.000000   0.000000   0.000000
     3  F    0.000000   0.000000   0.000000   0.000000   0.000000   0.000000
     4  C    0.000000   0.000000   0.000000   0.000000   0.000000   0.000000
     5  F    0.000000   0.000000   0.000000   0.000000   0.000000   0.000000
     6  F    0.000000   0.000000   0.000000   0.000000   0.000000   0.000000
     7  C    0.000000   0.000000   0.000000   0.000000   0.000000   0.000000
     8  F    0.000000   0.000000   0.000000   0.000000   0.000000   0.000000
     9  C    0.000000   0.000000   0.000000   0.000000   0.000000   0.000000
    10  F    0.000000   0.000000   0.000000   0.000000   0.000000   0.000000
    11  C    0.000000   0.000000   0.000000   0.000000   0.000000   0.000000
    12  O    0.000000   0.000000   0.000000   0.000000   0.000000   0.000000
    13  O    0.000000   0.000000   0.000000   0.000000   0.000000   0.000000
    14  F    0.000000   0.000000   0.000000   0.000000   0.000000   0.000000
    15  C    0.000000   0.000000   0.000000   0.000000   0.000000   0.000004
    16  F    0.000000   0.000000   0.000000   0.000000   0.000000   0.000000
    17  C    0.000000   0.000000   0.000005   0.000000   0.000000   0.000425
    18  F    0.000000   0.000000   0.000000   0.000000   0.000000  -0.000011
    19  C    0.000000   0.000001   0.000299   0.000000   0.000000  -0.003505
    20  N    0.000000   0.000905   0.003181  -0.000151   0.000000  -0.052385
    21  C   -0.000100  -0.046686  -0.010120   0.003155  -0.000126   0.527321
    22  C   -0.000135  -0.048821  -0.038247   0.001751   0.000016  -0.068301
    23  C   -0.095358   0.518412  -0.014496   0.003816  -0.000103  -0.038387
    24  C    0.919123  -0.035031   0.003589  -0.000400  -0.000002   0.001645
    25  N    6.630675   0.000156  -0.000116  -0.000002   0.000000   0.000016
    26  C    0.000156   4.865106   0.516752  -0.037641   0.000047  -0.043457
    27  C   -0.000116   0.516752   4.916800   0.202517  -0.095205   0.495650
    28  C   -0.000002  -0.037641   0.202517   4.713530   0.917843  -0.030556
    29  N    0.000000   0.000047  -0.095205   0.917843   6.631664  -0.000266
    30  C    0.000016  -0.043457   0.495650  -0.030556  -0.000266   4.927071
    31  O    0.000000   0.000002   0.000987  -0.000030   0.000000  -0.006743
    32  F    0.000000   0.000000   0.000000   0.000000   0.000000  -0.000004
    33  O    0.000000   0.000000   0.000000   0.000000   0.000000  -0.000002
    34  H    0.000000   0.000000   0.000000   0.000000   0.000000   0.000000
    35  H    0.000000  -0.000033   0.000021   0.000002   0.000000   0.003741
    36  H    0.000672   0.004897   0.000066   0.000003   0.000000   0.004911
    37  H    0.000499   0.378763  -0.035900  -0.004932   0.000560   0.004275
    38  H    0.000000   0.004853  -0.035790  -0.006011   0.000624   0.363701
              31         32         33         34         35         36
     1  F    0.000000   0.000000  -0.041503   0.000000   0.000000   0.000000
     2  C    0.000083   0.000012   0.194475  -0.000002   0.000000   0.000000
     3  F    0.000000   0.000000  -0.052262   0.000000   0.000000   0.000000
     4  C   -0.000014   0.000021  -0.048658  -0.000170   0.000000   0.000000
     5  F    0.000000   0.000000  -0.001361   0.000034   0.000000   0.000000
     6  F    0.000000   0.000000   0.000739   0.000151   0.000000   0.000000
     7  C    0.000109  -0.003154  -0.022645  -0.000283  -0.000023   0.000000
     8  F    0.000000  -0.000226  -0.002172   0.000003   0.000005   0.000000
     9  C   -0.000007   0.010014   0.003096   0.007500  -0.000001   0.000000
    10  F    0.000000  -0.007493   0.000004  -0.000050   0.000000   0.000000
    11  C    0.000000   0.000073  -0.000044  -0.011473   0.000000   0.000000
    12  O    0.000000   0.000000   0.000000   0.281222   0.000000   0.000000
    13  O    0.000000   0.000000   0.000000   0.008587   0.000000   0.000000
    14  F    0.000000  -0.000243   0.000003  -0.000100   0.000000   0.000000
    15  C    0.012396  -0.027807   0.162775   0.000008   0.001117   0.000000
    16  F   -0.000837   0.000021  -0.053070   0.000000  -0.000006   0.000000
    17  C   -0.063548   0.251541  -0.033719   0.000000  -0.000494  -0.000003
    18  F    0.000765  -0.039011   0.000402   0.000000   0.019375  -0.000030
    19  C    0.554402  -0.024996   0.002901   0.000000  -0.031989   0.000254
    20  N   -0.085715  -0.001350  -0.000112   0.000000   0.338214  -0.007189
    21  C   -0.002530  -0.000042   0.000003   0.000000  -0.022272  -0.039589
    22  C    0.000265   0.000000   0.000000   0.000000  -0.005884   0.368829
    23  C   -0.000004   0.000000   0.000000   0.000000   0.000023  -0.029232
    24  C    0.000000   0.000000   0.000000   0.000000   0.000006  -0.005476
    25  N    0.000000   0.000000   0.000000   0.000000   0.000000   0.000672
    26  C    0.000002   0.000000   0.000000   0.000000  -0.000033   0.004897
    27  C    0.000987   0.000000   0.000000   0.000000   0.000021   0.000066
    28  C   -0.000030   0.000000   0.000000   0.000000   0.000002   0.000003
    29  N    0.000000   0.000000   0.000000   0.000000   0.000000   0.000000
    30  C   -0.006743  -0.000004  -0.000002   0.000000   0.003741   0.004911
    31  O    8.042749  -0.000127  -0.001574   0.000000   0.002375   0.000002
    32  F   -0.000127   9.099597   0.000585   0.000000   0.000707   0.000000
    33  O   -0.001574   0.000585   8.409935   0.000000  -0.000031   0.000000
    34  H    0.000000   0.000000   0.000000   0.351578   0.000000   0.000000
    35  H    0.002375   0.000707  -0.000031   0.000000   0.385393   0.004458
    36  H    0.000002   0.000000   0.000000   0.000000   0.004458   0.552385
    37  H    0.000000   0.000000   0.000000   0.000000   0.000000  -0.000117
    38  H    0.020279  -0.000002   0.000000   0.000000  -0.000154  -0.000095
              37         38
     1  F    0.000000   0.000000
     2  C    0.000000   0.000000
     3  F    0.000000   0.000000
     4  C    0.000000   0.000000
     5  F    0.000000   0.000000
     6  F    0.000000   0.000000
     7  C    0.000000   0.000000
     8  F    0.000000   0.000000
     9  C    0.000000   0.000000
    10  F    0.000000   0.000000
    11  C    0.000000   0.000000
    12  O    0.000000   0.000000
    13  O    0.000000   0.000000
    14  F    0.000000   0.000000
    15  C    0.000000  -0.000009
    16  F    0.000000   0.000001
    17  C    0.000000   0.000304
    18  F    0.000000  -0.000002
    19  C    0.000000   0.001737
    20  N    0.000004  -0.009710
    21  C    0.000145  -0.025954
    22  C    0.004610   0.004865
    23  C   -0.035644  -0.000070
    24  C   -0.005240   0.000005
    25  N    0.000499   0.000000
    26  C    0.378763   0.004853
    27  C   -0.035900  -0.035790
    28  C   -0.004932  -0.006011
    29  N    0.000560   0.000624
    30  C    0.004275   0.363701
    31  O    0.000000   0.020279
    32  F    0.000000  -0.000002
    33  O    0.000000   0.000000
    34  H    0.000000   0.000000
    35  H    0.000000  -0.000154
    36  H   -0.000117  -0.000095
    37  H    0.536337  -0.000100
    38  H   -0.000100   0.504457
 Mulliken charges:
               1
     1  F   -0.242944
     2  C    0.778548
     3  F   -0.251981
     4  C    0.539432
     5  F   -0.252709
     6  F   -0.258410
     7  C    0.143186
     8  F   -0.282655
     9  C    0.623455
    10  F   -0.267455
    11  C    0.503950
    12  O   -0.466835
    13  O   -0.438786
    14  F   -0.261092
    15  C    0.498350
    16  F   -0.261229
    17  C    0.556513
    18  F   -0.279898
    19  C    0.595141
    20  N   -0.674067
    21  C    0.336142
    22  C   -0.122250
    23  C    0.103250
    24  C    0.230755
    25  N   -0.455432
    26  C   -0.078226
    27  C    0.090005
    28  C    0.237105
    29  N   -0.455053
    30  C   -0.085144
    31  O   -0.473287
    32  F   -0.258119
    33  O   -0.517765
    34  H    0.362996
    35  H    0.305449
    36  H    0.145254
    37  H    0.156739
    38  H    0.177068
 Sum of Mulliken charges =   0.00000
 Mulliken charges with hydrogens summed into heavy atoms:
               1
     1  F   -0.242944
     2  C    0.778548
     3  F   -0.251981
     4  C    0.539432
     5  F   -0.252709
     6  F   -0.258410
     7  C    0.143186
     8  F   -0.282655
     9  C    0.623455
    10  F   -0.267455
    11  C    0.503950
    12  O   -0.103839
    13  O   -0.438786
    14  F   -0.261092
    15  C    0.498350
    16  F   -0.261229
    17  C    0.556513
    18  F   -0.279898
    19  C    0.595141
    20  N   -0.368618
    21  C    0.336142
    22  C    0.023004
    23  C    0.103250
    24  C    0.230755
    25  N   -0.455432
    26  C    0.078513
    27  C    0.090005
    28  C    0.237105
    29  N   -0.455053
    30  C    0.091924
    31  O   -0.473287
    32  F   -0.258119
    33  O   -0.517765
 Electronic spatial extent (au):  <R**2>=          17412.8152
 Charge=              0.0000 electrons
 Dipole moment (field-independent basis, Debye):
    X=              5.4934    Y=             -0.6764    Z=              1.9864  Tot=              5.8805
 Quadrupole moment (field-independent basis, Debye-Ang):
   XX=           -193.4949   YY=           -179.5687   ZZ=           -209.2450
   XY=              2.0691   XZ=             -8.1211   YZ=             -2.5229
 Traceless Quadrupole moment (field-independent basis, Debye-Ang):
   XX=              0.6080   YY=             14.5342   ZZ=            -15.1421
   XY=              2.0691   XZ=             -8.1211   YZ=             -2.5229
 Octapole moment (field-independent basis, Debye-Ang**2):
  XXX=            414.3655  YYY=             36.0167  ZZZ=            -11.3190  XYY=             11.7330
  XXY=           -100.7315  XXZ=            -51.5960  XZZ=            122.3213  YZZ=            -26.5519
  YYZ=            -18.6359  XYZ=             37.6702
 Hexadecapole moment (field-independent basis, Debye-Ang**3):
 XXXX=         -16541.3830 YYYY=          -2918.7721 ZZZZ=          -2687.3660 XXXY=           2315.2250
 XXXZ=            315.7241 YYYX=           2193.4956 YYYZ=           -412.0238 ZZZX=            514.4955
 ZZZY=           -474.4408 XXYY=          -3311.1419 XXZZ=          -4544.7946 YYZZ=           -961.4154
 XXYZ=           -375.1495 YYXZ=            257.6995 ZZXY=           1066.4307
 N-N= 3.799430936183D+03 E-N=-1.248444797872D+04  KE= 2.059736912476D+03
 No NMR shielding tensors so no spin-rotation constants.
 Leave Link  601 at Mon Feb  3 21:39:40 2025, MaxMem=  5368709120 cpu:         4.9
 (Enter /home/k0335/k033513/app/g09/l9999.exe)
 1\1\GINC-C15U06N2\SP\RCAM-B3LYP\6-31G(d,p)\C16H5F10N3O4\K033513\03-Feb
 -2025\0\\#p CAM-B3LYP/6-31G(d,p) SCRF=(PCM,Solvent=Generic,Read) NoSym
 m out=wfn\\Title APN0_neu\\0,1\F,0,1.835248,-3.9082,-1.344822\C,0,2.02
 5636,-2.916127,-0.456079\F,0,1.867871,-3.442643,0.781034\C,0,3.362101,
 -2.21498,-0.596436\F,0,3.683281,-2.010787,-1.894685\F,0,4.390407,-2.87
 7006,-0.033762\C,0,3.038084,-0.92434,0.089597\F,0,2.896135,-1.164201,1
 .428773\C,0,4.07015,0.151435,-0.126618\F,0,3.690561,1.271436,0.552772\
 C,0,5.438592,-0.320667,0.360991\O,0,6.245299,-0.765728,-0.626839\O,0,5
 .823129,-0.359236,1.519895\F,0,4.100666,0.522954,-1.435882\C,0,1.66384
 1,-0.661988,-0.522431\F,0,1.816758,-0.280849,-1.817548\C,0,0.810002,0.
 364704,0.229315\F,0,0.745196,0.030832,1.556013\C,0,-0.613523,0.473383,
 -0.348659\N,0,-1.54093,0.842322,0.628302\C,0,-2.922704,1.070821,0.4665
 17\C,0,-3.647342,1.421569,1.613392\C,0,-5.025193,1.666651,1.543853\C,0
 ,-5.749053,2.024201,2.728553\N,0,-6.327447,2.312619,3.691656\C,0,-5.68
 9866,1.561857,0.320489\C,0,-4.975492,1.212739,-0.82909\C,0,-5.656201,1
 .10458,-2.087073\N,0,-6.22314,1.021422,-3.095742\C,0,-3.596633,0.96860
 3,-0.753377\O,0,-0.868236,0.318291,-1.538695\F,0,1.408705,1.58731,0.20
 2345\O,0,0.995007,-1.943142,-0.594528\H,0,7.078725,-1.03634,-0.182994\
 H,0,-1.168466,0.938779,1.571051\H,0,-3.144635,1.508254,2.576028\H,0,-6
 .761737,1.751532,0.260921\H,0,-3.074795,0.69994,-1.668702\\Version=ES6
 4L-G09RevD.01\HF=-2075.5217434\RMSD=5.447e-09\Dipole=2.1612646,-0.2661
 006,0.7814982\Quadrupole=0.4520037,10.805805,-11.2578087,1.5383151,-6.
 0378513,-1.8757279\PG=C01 [X(C16H5F10N3O4)]\\@

 Writing a WFN file to "cytop/APN0/APN0_neu.wfn"


 SOME PEOPLE TRY TO PULL THE WOOL OVER YOUR EYES
 USING THE WRONG YARN.
 Job cpu time:       0 days  0 hours 14 minutes 55.4 seconds.
 File lengths (MBytes):  RWF=    326 Int=      0 D2E=      0 Chk=     12 Scr=      1
 Normal termination of Gaussian 09 at Mon Feb  3 21:39:41 2025.
