 Entering Gaussian System, Link 0=g09
 Initial command:
 /home/k0335/k033513/app/g09/l1.exe "/home/k0335/k033513/app/g09/scratch/Gau-676436.inp" -scrdir="/home/k0335/k033513/app/g09/scratch/"
 Default is to use a total of  36 processors:
                               36 via shared-memory
                                1 via Linda
 Entering Link 1 = /home/k0335/k033513/app/g09/l1.exe PID=    676437.
  
 Copyright (c) 1988,1990,1992,1993,1995,1998,2003,2009,2013,
            Gaussian, Inc.  All Rights Reserved.
  
 This is part of the Gaussian(R) 09 program.  It is based on
 the Gaussian(R) 03 system (copyright 2003, Gaussian, Inc.),
 the Gaussian(R) 98 system (copyright 1998, Gaussian, Inc.),
 the Gaussian(R) 94 system (copyright 1995, Gaussian, Inc.),
 the Gaussian 92(TM) system (copyright 1992, Gaussian, Inc.),
 the Gaussian 90(TM) system (copyright 1990, Gaussian, Inc.),
 the Gaussian 88(TM) system (copyright 1988, Gaussian, Inc.),
 the Gaussian 86(TM) system (copyright 1986, Carnegie Mellon
 University), and the Gaussian 82(TM) system (copyright 1983,
 Carnegie Mellon University). Gaussian is a federally registered
 trademark of Gaussian, Inc.
  
 This software contains proprietary and confidential information,
 including trade secrets, belonging to Gaussian, Inc.
  
 This software is provided under written license and may be
 used, copied, transmitted, or stored only in accord with that
 written license.
  
 The following legend is applicable only to US Government
 contracts under FAR:
  
                    RESTRICTED RIGHTS LEGEND
  
 Use, reproduction and disclosure by the US Government is
 subject to restrictions as set forth in subparagraphs (a)
 and (c) of the Commercial Computer Software - Restricted
 Rights clause in FAR 52.227-19.
  
 Gaussian, Inc.
 340 Quinnipiac St., Bldg. 40, Wallingford CT 06492
  
  
 ---------------------------------------------------------------
 Warning -- This program may not be used in any manner that
 competes with the business of Gaussian, Inc. or will provide
 assistance to any competitor of Gaussian, Inc.  The licensee
 of this program is prohibited from giving any competitor of
 Gaussian, Inc. access to this program.  By using this program,
 the user acknowledges that Gaussian, Inc. is engaged in the
 business of creating and licensing software in the field of
 computational chemistry and represents and warrants to the
 licensee that it is not a competitor of Gaussian, Inc. and that
 it will not use this program in any manner prohibited above.
 ---------------------------------------------------------------
  

 Cite this work as:
 Gaussian 09, Revision D.01,
 M. J. Frisch, G. W. Trucks, H. B. Schlegel, G. E. Scuseria, 
 M. A. Robb, J. R. Cheeseman, G. Scalmani, V. Barone, B. Mennucci, 
 G. A. Petersson, H. Nakatsuji, M. Caricato, X. Li, H. P. Hratchian, 
 A. F. Izmaylov, J. Bloino, G. Zheng, J. L. Sonnenberg, M. Hada, 
 M. Ehara, K. Toyota, R. Fukuda, J. Hasegawa, M. Ishida, T. Nakajima, 
 Y. Honda, O. Kitao, H. Nakai, T. Vreven, J. A. Montgomery, Jr., 
 J. E. Peralta, F. Ogliaro, M. Bearpark, J. J. Heyd, E. Brothers, 
 K. N. Kudin, V. N. Staroverov, T. Keith, R. Kobayashi, J. Normand, 
 K. Raghavachari, A. Rendell, J. C. Burant, S. S. Iyengar, J. Tomasi, 
 M. Cossi, N. Rega, J. M. Millam, M. Klene, J. E. Knox, J. B. Cross, 
 V. Bakken, C. Adamo, J. Jaramillo, R. Gomperts, R. E. Stratmann, 
 O. Yazyev, A. J. Austin, R. Cammi, C. Pomelli, J. W. Ochterski, 
 R. L. Martin, K. Morokuma, V. G. Zakrzewski, G. A. Voth, 
 P. Salvador, J. J. Dannenberg, S. Dapprich, A. D. Daniels, 
 O. Farkas, J. B. Foresman, J. V. Ortiz, J. Cioslowski, 
 and D. J. Fox, Gaussian, Inc., Wallingford CT, 2013.
 
 ******************************************
 Gaussian 09:  ES64L-G09RevD.01 24-Apr-2013
                 3-Mar-2024 
 ******************************************
 %nprocshared=24
 Will use up to   24 processors via shared memory.
 %mem=40GB
 %rwf=A892693590/A892693590_0.rwf
 %nosave
 %chk=A892693590/A892693590_0.chk
 ----------------------------------------------------------------------
 #p CAM-B3LYP/6-31G(d,p) SCRF=(PCM,Solvent=Generic,Read) NoSymm out=wfn
 ----------------------------------------------------------------------
 1/38=1,40=2/1;
 2/12=2,15=1,17=6,18=5,40=1/2;
 3/5=1,6=6,7=101,11=2,16=1,25=1,30=1,70=2203,72=-2,74=-40/1,2,3;
 4//1;
 5/5=2,38=5/2;
 6/7=2,8=2,9=2,10=2,28=1/1;
 99/5=1,6=100,9=1/99;
 Leave Link    1 at Sun Mar  3 18:02:07 2024, MaxMem=  5368709120 cpu:         1.8
 (Enter /home/k0335/k033513/app/g09/l101.exe)
 ------------------
 Title A892693590_0
 ------------------
 Symbolic Z-matrix:
 Charge =  0 Multiplicity = 1
 C                     5.86043  -0.36348  -0.04506 
 C                     4.77106   0.1159    0.90089 
 C                     3.37944  -0.10884   0.31172 
 C                     2.28747   0.37739   1.26638 
 N                     0.94806   0.15456   0.73258 
 C                     0.46298   1.01924  -0.2984 
 N                    -0.96462   1.04643  -0.23173 
 C                    -1.67013   2.30508  -0.44237 
 C                    -1.78248   3.10389   0.85705 
 C                    -2.60893   4.38225   0.71135 
 C                    -1.97402   5.41091  -0.21148 
 C                    -1.64026  -0.12869   0.01734 
 O                    -2.86256  -0.15772   0.11716 
 N                    -0.84008  -1.23819   0.17783 
 C                    -1.49982  -2.52879   0.24519 
 F                    -2.28817  -2.57185   1.35707 
 F                    -0.56877  -3.51402   0.43126 
 C                    -2.33003  -2.98163  -0.99677 
 F                    -3.26886  -2.04027  -1.32819 
 O                    -3.14499  -4.154    -0.83569 
 C                    -2.50304  -5.27651  -0.29461 
 F                    -1.35484  -5.52144  -0.9373 
 F                    -3.31189  -6.34197  -0.44953 
 F                    -2.2784   -5.09734   1.01416 
 C                    -1.35617  -3.04606  -2.18056 
 F                    -0.25985  -3.79817  -1.96268 
 F                    -0.90097  -1.8086   -2.50964 
 F                    -1.96172  -3.54077  -3.28826 
 C                     0.33329  -1.07929   0.88758 
 O                     0.81887  -1.93607   1.62126 
 H                     5.81704   0.17381  -0.99784 
 H                     6.84746  -0.19335   0.39621 
 H                     5.75948  -1.43422  -0.24916 
 H                     4.86256  -0.41751   1.85419 
 H                     4.91926   1.18181   1.10957 
 H                     3.29588   0.41865  -0.64636 
 H                     3.23657  -1.17494   0.09629 
 H                     2.39904   1.44757   1.4754 
 H                     2.37686  -0.14807   2.22442 
 H                     0.86067   2.02812  -0.149 
 H                     0.77135   0.63856  -1.27837 
 H                    -2.67353   2.09249  -0.82869 
 H                    -1.1357    2.86599  -1.21651 
 H                    -0.78174   3.35185   1.23165 
 H                    -2.24975   2.47552   1.62598 
 H                    -2.73058   4.83247   1.70378 
 H                    -3.61425   4.1379    0.34907 
 H                    -0.95564   5.65153   0.10958 
 H                    -2.55961   6.33585  -0.20195 
 H                    -1.9364    5.05399  -1.24479 
 
 NAtoms=     50 NQM=       50 NQMF=       0 NMMI=      0 NMMIF=      0
                NMic=       0 NMicF=      0.
                    Isotopes and Nuclear Properties:
 (Nuclear quadrupole moments (NQMom) in fm**2, nuclear magnetic moments (NMagM)
  in nuclear magnetons)

  Atom         1           2           3           4           5           6           7           8           9          10
 IAtWgt=          12          12          12          12          14          12          14          12          12          12
 AtmWgt=  12.0000000  12.0000000  12.0000000  12.0000000  14.0030740  12.0000000  14.0030740  12.0000000  12.0000000  12.0000000
 NucSpn=           0           0           0           0           2           0           2           0           0           0
 AtZEff=   0.0000000   0.0000000   0.0000000   0.0000000   0.0000000   0.0000000   0.0000000   0.0000000   0.0000000   0.0000000
 NQMom=    0.0000000   0.0000000   0.0000000   0.0000000   2.0440000   0.0000000   2.0440000   0.0000000   0.0000000   0.0000000
 NMagM=    0.0000000   0.0000000   0.0000000   0.0000000   0.4037610   0.0000000   0.4037610   0.0000000   0.0000000   0.0000000
 AtZNuc=   6.0000000   6.0000000   6.0000000   6.0000000   7.0000000   6.0000000   7.0000000   6.0000000   6.0000000   6.0000000

  Atom        11          12          13          14          15          16          17          18          19          20
 IAtWgt=          12          12          16          14          12          19          19          12          19          16
 AtmWgt=  12.0000000  12.0000000  15.9949146  14.0030740  12.0000000  18.9984033  18.9984033  12.0000000  18.9984033  15.9949146
 NucSpn=           0           0           0           2           0           1           1           0           1           0
 AtZEff=   0.0000000   0.0000000   0.0000000   0.0000000   0.0000000   0.0000000   0.0000000   0.0000000   0.0000000   0.0000000
 NQMom=    0.0000000   0.0000000   0.0000000   2.0440000   0.0000000   0.0000000   0.0000000   0.0000000   0.0000000   0.0000000
 NMagM=    0.0000000   0.0000000   0.0000000   0.4037610   0.0000000   2.6288670   2.6288670   0.0000000   2.6288670   0.0000000
 AtZNuc=   6.0000000   6.0000000   8.0000000   7.0000000   6.0000000   9.0000000   9.0000000   6.0000000   9.0000000   8.0000000

  Atom        21          22          23          24          25          26          27          28          29          30
 IAtWgt=          12          19          19          19          12          19          19          19          12          16
 AtmWgt=  12.0000000  18.9984033  18.9984033  18.9984033  12.0000000  18.9984033  18.9984033  18.9984033  12.0000000  15.9949146
 NucSpn=           0           1           1           1           0           1           1           1           0           0
 AtZEff=   0.0000000   0.0000000   0.0000000   0.0000000   0.0000000   0.0000000   0.0000000   0.0000000   0.0000000   0.0000000
 NQMom=    0.0000000   0.0000000   0.0000000   0.0000000   0.0000000   0.0000000   0.0000000   0.0000000   0.0000000   0.0000000
 NMagM=    0.0000000   2.6288670   2.6288670   2.6288670   0.0000000   2.6288670   2.6288670   2.6288670   0.0000000   0.0000000
 AtZNuc=   6.0000000   9.0000000   9.0000000   9.0000000   6.0000000   9.0000000   9.0000000   9.0000000   6.0000000   8.0000000

  Atom        31          32          33          34          35          36          37          38          39          40
 IAtWgt=           1           1           1           1           1           1           1           1           1           1
 AtmWgt=   1.0078250   1.0078250   1.0078250   1.0078250   1.0078250   1.0078250   1.0078250   1.0078250   1.0078250   1.0078250
 NucSpn=           1           1           1           1           1           1           1           1           1           1
 AtZEff=   0.0000000   0.0000000   0.0000000   0.0000000   0.0000000   0.0000000   0.0000000   0.0000000   0.0000000   0.0000000
 NQMom=    0.0000000   0.0000000   0.0000000   0.0000000   0.0000000   0.0000000   0.0000000   0.0000000   0.0000000   0.0000000
 NMagM=    2.7928460   2.7928460   2.7928460   2.7928460   2.7928460   2.7928460   2.7928460   2.7928460   2.7928460   2.7928460
 AtZNuc=   1.0000000   1.0000000   1.0000000   1.0000000   1.0000000   1.0000000   1.0000000   1.0000000   1.0000000   1.0000000

  Atom        41          42          43          44          45          46          47          48          49          50
 IAtWgt=           1           1           1           1           1           1           1           1           1           1
 AtmWgt=   1.0078250   1.0078250   1.0078250   1.0078250   1.0078250   1.0078250   1.0078250   1.0078250   1.0078250   1.0078250
 NucSpn=           1           1           1           1           1           1           1           1           1           1
 AtZEff=   0.0000000   0.0000000   0.0000000   0.0000000   0.0000000   0.0000000   0.0000000   0.0000000   0.0000000   0.0000000
 NQMom=    0.0000000   0.0000000   0.0000000   0.0000000   0.0000000   0.0000000   0.0000000   0.0000000   0.0000000   0.0000000
 NMagM=    2.7928460   2.7928460   2.7928460   2.7928460   2.7928460   2.7928460   2.7928460   2.7928460   2.7928460   2.7928460
 AtZNuc=   1.0000000   1.0000000   1.0000000   1.0000000   1.0000000   1.0000000   1.0000000   1.0000000   1.0000000   1.0000000
 Leave Link  101 at Sun Mar  3 18:02:07 2024, MaxMem=  5368709120 cpu:         0.9
 (Enter /home/k0335/k033513/app/g09/l202.exe)
                          Input orientation:                          
 ---------------------------------------------------------------------
 Center     Atomic      Atomic             Coordinates (Angstroms)
 Number     Number       Type             X           Y           Z
 ---------------------------------------------------------------------
      1          6           0        5.860426   -0.363476   -0.045062
      2          6           0        4.771059    0.115901    0.900893
      3          6           0        3.379442   -0.108836    0.311716
      4          6           0        2.287471    0.377390    1.266378
      5          7           0        0.948057    0.154558    0.732583
      6          6           0        0.462978    1.019243   -0.298396
      7          7           0       -0.964616    1.046427   -0.231729
      8          6           0       -1.670131    2.305079   -0.442368
      9          6           0       -1.782481    3.103886    0.857046
     10          6           0       -2.608932    4.382255    0.711347
     11          6           0       -1.974018    5.410914   -0.211477
     12          6           0       -1.640259   -0.128688    0.017337
     13          8           0       -2.862559   -0.157716    0.117164
     14          7           0       -0.840077   -1.238187    0.177833
     15          6           0       -1.499816   -2.528785    0.245186
     16          9           0       -2.288173   -2.571849    1.357071
     17          9           0       -0.568767   -3.514017    0.431257
     18          6           0       -2.330032   -2.981633   -0.996771
     19          9           0       -3.268861   -2.040267   -1.328187
     20          8           0       -3.144985   -4.154001   -0.835693
     21          6           0       -2.503041   -5.276514   -0.294609
     22          9           0       -1.354842   -5.521438   -0.937299
     23          9           0       -3.311885   -6.341972   -0.449526
     24          9           0       -2.278398   -5.097335    1.014160
     25          6           0       -1.356166   -3.046063   -2.180564
     26          9           0       -0.259848   -3.798174   -1.962684
     27          9           0       -0.900971   -1.808603   -2.509644
     28          9           0       -1.961716   -3.540772   -3.288260
     29          6           0        0.333285   -1.079289    0.887583
     30          8           0        0.818874   -1.936067    1.621264
     31          1           0        5.817038    0.173808   -0.997839
     32          1           0        6.847460   -0.193345    0.396207
     33          1           0        5.759475   -1.434222   -0.249162
     34          1           0        4.862562   -0.417511    1.854190
     35          1           0        4.919259    1.181813    1.109573
     36          1           0        3.295876    0.418652   -0.646361
     37          1           0        3.236573   -1.174941    0.096289
     38          1           0        2.399044    1.447574    1.475401
     39          1           0        2.376863   -0.148068    2.224418
     40          1           0        0.860671    2.028120   -0.149002
     41          1           0        0.771351    0.638563   -1.278372
     42          1           0       -2.673525    2.092486   -0.828691
     43          1           0       -1.135700    2.865994   -1.216514
     44          1           0       -0.781736    3.351850    1.231654
     45          1           0       -2.249755    2.475520    1.625978
     46          1           0       -2.730576    4.832466    1.703775
     47          1           0       -3.614245    4.137899    0.349065
     48          1           0       -0.955640    5.651528    0.109581
     49          1           0       -2.559610    6.335853   -0.201947
     50          1           0       -1.936403    5.053990   -1.244789
 ---------------------------------------------------------------------
                    Distance matrix (angstroms):
                    1          2          3          4          5
     1  C    0.000000
     2  C    1.520314   0.000000
     3  C    2.519407   1.527820   0.000000
     4  C    3.877469   2.523919   1.529770   0.000000
     5  N    5.000446   3.826900   2.481560   1.458979   0.000000
     6  C    5.577503   4.562223   3.185995   2.487824   1.430349
     7  N    6.971648   5.920024   4.527781   3.642527   2.320269
     8  C    7.999270   6.934391   5.647461   4.722119   3.586106
     9  C    8.440997   7.202698   6.104459   4.915877   4.021177
    10  C    9.737769   8.526545   7.496014   6.349942   5.525038
    11  C    9.733950   8.646999   7.707198   6.758750   6.087614
    12  C    7.504618   6.476534   5.028365   4.152503   2.700219
    13  O    8.726919   7.678621   6.245223   5.303757   3.872602
    14  N    6.761031   5.817320   4.370091   3.684641   2.333433
    15  C    7.677628   6.837265   5.446810   4.881826   3.664692
    16  F    8.558186   7.567355   6.267460   5.444516   4.277437
    17  F    7.175466   6.473840   5.215161   4.898834   3.981205
    18  C    8.651248   7.976299   6.524047   6.142167   4.855124
    19  F    9.370268   8.617318   7.114748   6.591635   5.181354
    20  O    9.802582   9.160325   7.761962   7.379958   6.146232
    21  C    9.702979   9.133449   7.853415   7.573131   6.516268
    22  F    8.914076   8.525562   7.298612   7.274531   6.348920
    23  F   10.956153  10.433683   9.176346   8.913301   7.858078
    24  F    9.474800   8.768438   7.575599   7.133259   6.170225
    25  C    7.989734   7.552237   6.104486   6.072687   4.903044
    26  F    7.275450   6.987852   5.659376   5.860973   4.934328
    27  F    7.340235   6.892561   5.401038   5.403986   4.217220
    28  F    9.044305   8.732154   7.298355   7.358825   6.187845
    29  C    5.650797   4.595921   3.248457   2.466626   1.387209
    30  O    5.537773   4.511017   3.407374   2.763115   2.275336
    31  H    1.094687   2.168550   2.781492   4.198329   5.167369
    32  H    1.094486   2.159116   3.470076   4.677225   5.919218
    33  H    1.094689   2.168519   2.781329   4.199239   5.161181
    34  H    2.146115   1.096210   2.161979   2.758348   4.112009
    35  H    2.146368   1.096211   2.161802   2.756446   4.119201
    36  H    2.747763   2.159124   1.096877   2.162673   2.735596
    37  H    2.750102   2.160627   1.096996   2.163246   2.722084
    38  H    4.192001   2.780264   2.176638   1.096099   2.080633
    39  H    4.163190   2.748376   2.159892   1.096329   2.087736
    40  H    5.543292   4.477722   3.335124   2.600763   2.072453
    41  H    5.331399   4.584761   3.144698   2.973648   2.075916
    42  H    8.914827   7.894313   6.541006   5.651756   4.394200
    43  H    7.794072   6.851002   5.618862   4.906730   3.936103
    44  H    7.716992   6.435394   5.489812   4.274184   3.669323
    45  H    8.753703   7.442135   6.331985   5.011774   4.051052
    46  H   10.191249   8.897479   7.980389   6.724568   6.029791
    47  H   10.497005   9.316346   8.182164   7.057843   6.068665
    48  H    9.091916   8.004025   7.212183   6.298609   5.850545
    49  H   10.761163   9.676919   8.778964   7.820067   7.168367
    50  H    9.569683   8.601088   7.572033   6.783632   6.019514
                    6          7          8          9         10
     6  C    0.000000
     7  N    1.429408   0.000000
     8  C    2.494846   1.458192   0.000000
     9  C    3.274579   2.467280   1.529442   0.000000
    10  C    4.665411   3.836785   2.554812   1.529208   0.000000
    11  C    5.023274   4.479738   3.129196   2.549668   1.520809
    12  C    2.416824   1.378195   2.476983   3.342884   4.665682
    13  O    3.552058   2.274615   2.792905   3.514547   4.585708
    14  N    2.649667   2.324373   3.691663   4.494781   5.916321
    15  C    4.091032   3.646372   4.885487   5.672852   7.014978
    16  F    4.817193   4.167494   5.234920   5.720115   6.991381
    17  F    4.706096   4.625354   5.986493   6.741739   8.160382
    18  C    4.929061   4.321449   5.356506   6.385138   7.564542
    19  F    4.934338   4.004928   4.714090   5.783328   6.770819
    20  O    6.329971   5.671264   6.636988   7.576193   8.691856
    21  C    6.959442   6.507710   7.628638   8.489795   9.711590
    22  F    6.818590   6.617171   7.848486   8.820361  10.117999
    23  F    8.274051   7.755356   8.801528   9.657662  10.809755
    24  F    6.830115   6.405004   7.568831   8.217703   9.490183
    25  C    4.835137   4.549697   5.635124   6.872459   8.069230
    26  F    5.147799   5.192597   6.445926   7.609712   8.921214
    27  F    3.840142   3.652964   4.667721   6.020316   7.184611
    28  F    5.967593   5.601695   6.508310   7.833720   8.898882
    29  C    2.413960   2.730581   4.151673   4.687894   6.206139
    30  O    3.541979   3.938234   5.333014   5.722954   7.245619
    31  H    5.465340   6.880350   7.804394   8.353361   9.572320
    32  H    6.535630   7.934726   8.915979   9.249864  10.509937
    33  H    5.837362   7.167100   8.319780   8.871258  10.236416
    34  H    5.104334   6.360045   7.440615   7.586246   8.953606
    35  H    4.676243   6.036340   6.862238   6.976493   8.189937
    36  H    2.916693   4.326409   5.316149   5.938049   7.240185
    37  H    3.558518   4.763618   6.039572   6.639128   8.088922
    38  H    2.660484   3.793339   4.579447   4.539921   5.854567
    39  H    3.374931   4.315664   5.432112   5.453903   6.904445
    40  H    1.094674   2.074184   2.562758   3.025832   4.280222
    41  H    1.095611   2.067703   3.071972   4.142449   5.422225
    42  H    3.357188   2.090687   1.096011   2.158379   2.760241
    43  H    2.609445   2.076029   1.095237   2.185079   2.861138
    44  H    3.054738   2.736770   2.165023   1.096954   2.161273
    45  H    3.630823   2.673007   2.154778   1.097472   2.145040
    46  H    5.361730   4.604224   3.481115   2.145652   1.096540
    47  H    5.173874   4.112792   2.786606   2.163929   1.096181
    48  H    4.861788   4.617741   3.466102   2.780800   2.169459
    49  H    6.116509   5.524755   4.134745   3.488697   2.157101
    50  H    4.788723   4.246319   2.875985   2.871290   2.174854
                   11         12         13         14         15
    11  C    0.000000
    12  C    5.554362   0.000000
    13  O    5.648641   1.226713   0.000000
    14  N    6.756325   1.377330   2.293803   0.000000
    15  C    7.966946   2.414975   2.737778   1.451012   0.000000
    16  F    8.141470   2.860719   2.774045   2.294829   1.363690
    17  F    9.057717   3.574895   4.077363   2.305913   1.368268
    18  C    8.436722   3.105398   3.082036   2.576677   1.561021
    19  F    7.644852   2.849020   2.407928   2.968235   2.417369
    20  O    9.656522   4.381210   4.118009   3.852507   2.552686
    21  C   10.700836   5.228940   5.147903   4.392805   2.974534
    22  F   10.973902   5.484026   5.670504   4.455866   3.221065
    23  F   11.831183   6.451139   6.226400   5.705439   4.278623
    24  F   10.583862   5.107674   5.054274   4.202527   2.791946
    25  C    8.705142   3.663680   3.986392   3.016090   2.484447
    26  F    9.529554   4.392169   4.934856   3.387036   2.832589
    27  F    7.652086   3.123187   3.670610   2.748020   2.909702
    28  F    9.465697   4.761578   4.884004   4.309730   3.704418
    29  C    6.975265   2.357084   3.414127   1.380497   2.423628
    30  O    8.070769   3.447686   4.356351   2.307086   2.760657
    31  H    9.420520   7.532155   8.757200   6.906020   7.898447
    32  H   10.468786   8.496417   9.714093   7.761289   8.669147
    33  H   10.327837   7.518744   8.723711   6.616256   7.357972
    34  H    9.218261   6.763441   7.922263   6.000314   6.893927
    35  H    8.194372   6.777733   7.958386   6.316209   7.464598
    36  H    7.272110   5.010539   6.232294   4.531062   5.699202
    37  H    8.403479   4.988424   6.183413   4.077956   4.928331
    38  H    6.138183   4.574551   5.666236   4.403283   5.703154
    39  H    7.467666   4.583541   5.647314   3.965548   4.961231
    40  H    4.413917   3.306681   4.325640   3.697043   5.147103
    41  H    5.608088   2.843132   3.973271   2.870440   4.184677
    42  H    3.447061   2.591721   2.448221   3.932938   4.887428
    43  H    2.861729   3.277970   3.728748   4.344640   5.601142
    44  H    2.782788   3.784940   4.229535   4.709818   6.005883
    45  H    3.474019   3.121075   3.096123   4.227994   5.245194
    46  H    2.138965   5.352188   5.238003   6.538755   7.604622
    47  H    2.150609   4.712794   4.367049   6.052076   6.994732
    48  H    1.094563   5.821349   6.114222   6.891022   8.199514
    49  H    1.094770   6.533267   6.508460   7.776060   8.938954
    50  H    1.093866   5.342360   5.465763   6.543491   7.740098
                   16         17         18         19         20
    16  F    0.000000
    17  F    2.168218   0.000000
    18  C    2.389612   2.329110   0.000000
    19  F    2.907738   3.543740   1.370185   0.000000
    20  O    2.836467   2.941367   1.436851   2.173883   0.000000
    21  C    3.176386   2.715639   2.406126   3.482536   1.401749
    22  F    3.851664   2.553546   2.721239   3.991843   2.254954
    23  F    4.304138   4.037054   3.543359   4.390736   2.228048
    24  F    2.548679   2.401980   2.919367   3.976590   2.250068
    25  C    3.688953   2.767777   1.534253   2.323053   2.497214
    26  F    4.079062   2.430459   2.425982   3.542172   3.117810
    27  F    4.178320   3.415801   2.388933   2.656391   3.652205
    28  F    4.756520   3.971880   2.387303   2.793211   2.791283
    29  C    3.052900   2.636253   3.776633   4.336885   4.951959
    30  O    3.182414   2.414869   4.226455   5.041795   5.164111
    31  H    8.875735   7.511383   8.736793   9.357608   9.953596
    32  H    9.488958   8.125793   9.692332  10.427109  10.819119
    33  H    8.284855   6.695907   8.270038   9.112762   9.329021
    34  H    7.484739   6.411897   8.150835   8.881492   9.236755
    35  H    8.130087   7.254610   8.621090   9.130705   9.863417
    36  H    6.643677   5.618061   6.582975   7.043220   7.901246
    37  H    5.836415   4.479296   5.953655   6.715549   7.104060
    38  H    6.175740   5.874991   6.934960   7.221516   8.213103
    39  H    5.328186   4.818898   6.368674   6.933658   7.476803
    40  H    5.774356   5.752849   5.999744   5.915681   7.398341
    41  H    5.158778   4.686434   4.775321   4.847878   6.205024
    42  H    5.165469   6.119669   5.088509   4.205184   6.264258
    43  H    6.125493   6.613706   5.972391   5.351097   7.311811
    44  H    6.113533   6.915643   6.890291   6.466336   8.136134
    45  H    5.054673   6.334638   6.055227   5.491630   7.128240
    46  H    7.425618   8.715303   8.277290   7.531069   9.347578
    47  H    6.913412   8.236110   7.358547   6.411100   8.389247
    48  H    8.423527   9.179344   8.811608   8.159772  10.091342
    49  H    9.047175  10.068979   9.354143   8.481205  10.525271
    50  H    8.065162   8.836872   8.049080   7.218787   9.295974
                   21         22         23         24         25
    21  C    0.000000
    22  F    1.338432   0.000000
    23  F    1.346636   2.177433   0.000000
    24  F    1.339942   2.200230   2.181649   0.000000
    25  C    3.138003   2.770053   4.205276   3.906980   0.000000
    26  F    3.162258   2.284746   4.251527   3.824129   1.347240
    27  F    4.415814   4.057513   5.532452   5.013009   1.358971
    28  F    3.502539   3.133425   4.210474   4.586283   1.355883
    29  C    5.201829   5.090447   6.539951   4.793913   4.016960
    30  O    5.085693   4.911840   6.384617   4.467134   4.518494
    31  H    9.971171   9.158349  11.229126   9.867582   7.951180
    32  H   10.665257   9.871402  11.905174  10.378452   9.059648
    33  H    9.112324   8.233612  10.315800   8.923104   7.547231
    34  H    9.081815   8.514611  10.355092   8.579027   7.865183
    35  H    9.938423   9.406785  11.260100   9.552124   8.251115
    36  H    8.135483   7.549735   9.455543   8.015982   5.999960
    37  H    7.065329   6.406359   8.359332   6.829536   5.456960
    38  H    8.507452   8.275259   9.848710   8.057732   6.903655
    39  H    7.513982   7.266029   8.824754   6.901552   6.460476
    40  H    8.043223   7.907322   9.357295   7.872662   5.898215
    41  H    6.832098   6.525538   8.129432   6.888918   4.349339
    42  H    7.390296   7.728037   8.467075   7.432749   5.474274
    43  H    8.307826   8.394939   9.492665   8.348429   5.994198
    44  H    8.929784   9.152489  10.158652   8.583474   7.273685
    45  H    7.990422   8.445271   9.120526   7.597583   6.765807
    46  H   10.307123  10.773637  11.394854   9.963984   8.890912
    47  H    9.501593  10.003121  10.514602   9.355019   7.944007
    48  H   11.044452  11.229002  12.235544  10.867659   9.002959
    49  H   11.612874  11.941003  12.702538  11.501121   9.663516
    50  H   10.389573  10.595869  11.506187  10.405249   8.174546
                   26         27         28         29         30
    26  F    0.000000
    27  F    2.160694   0.000000
    28  F    2.172501   2.175278   0.000000
    29  C    3.983486   3.687335   5.363170   0.000000
    30  O    4.180403   4.476440   5.866020   1.228069   0.000000
    31  H    7.323668   7.165693   8.919257   5.932674   6.024360
    32  H    8.311016   8.431560  10.118406   6.592482   6.393879
    33  H    6.690043   7.043542   8.560985   5.555331   5.306588
    34  H    7.227482   7.361827   9.097820   4.678315   4.325700
    35  H    7.814230   7.477727   9.433534   5.117912   5.176501
    36  H    5.670758   5.103529   7.092175   3.657015   4.101507
    37  H    4.831737   4.930688   6.638866   3.010710   2.958062
    38  H    6.812342   6.113376   8.160410   3.316312   3.737277
    39  H    6.148768   5.992739   7.792517   2.613525   2.447052
    40  H    6.204088   4.836988   6.988088   3.317926   4.341701
    41  H    4.606114   3.209566   5.382950   2.798978   3.877998
    42  H    6.466193   4.602830   6.187871   4.695387   5.867569
    43  H    6.762767   4.855836   6.783884   4.706421   5.910426
    44  H    7.848503   6.375092   8.326477   4.582210   5.538575
    45  H    7.496497   6.105432   7.773575   4.455782   5.373882
    46  H    9.697183   8.074909   9.778685   6.708372   7.643196
    47  H    8.920618   7.134070   8.655806   6.564453   7.626539
    48  H    9.699241   7.906762   9.851695   6.897138   7.937612
    49  H   10.539810   8.626048  10.364870   8.033695   9.119370
    50  H    9.038087   7.054584   8.834384   6.878634   8.041561
                   31         32         33         34         35
    31  H    0.000000
    32  H    1.771986   0.000000
    33  H    1.774709   1.772001   0.000000
    34  H    3.065086   2.473011   2.502448   0.000000
    35  H    2.502652   2.473441   3.065251   1.765080   0.000000
    36  H    2.557292   3.751698   3.108091   3.066990   2.510197
    37  H    3.110473   3.753929   2.559609   2.511525   3.067974
    38  H    4.407049   4.862682   4.750933   3.113028   2.560458
    39  H    4.724547   4.830180   4.383475   2.527522   3.078188
    40  H    5.359531   6.408885   5.999677   5.099904   4.332711
    41  H    5.074806   6.357310   5.498826   5.259871   4.816902
    42  H    8.706296   9.867855   9.159095   8.383946   7.889015
    43  H    7.458971   8.700073   8.183585   7.495984   6.701468
    44  H    7.656005   8.454053   8.239341   6.815698   6.101255
    45  H    8.789508   9.560047   9.107689   7.681586   7.303089
    46  H   10.102649  10.895287  10.731557   9.232585   8.497077
    47  H   10.318782  11.322949  10.921219   9.740299   9.062975
    48  H    8.780715   9.753618   9.768793   8.586523   7.449347
    49  H   10.429404  11.466524  11.383474  10.243254   9.177020
    50  H    9.164770  10.362608  10.115073   9.261043   8.218082
                   36         37         38         39         40
    36  H    0.000000
    37  H    1.759143   0.000000
    38  H    2.522868   3.079122   0.000000
    39  H    3.067104   2.514459   1.762836   0.000000
    40  H    2.961077   3.995582   2.311344   3.559179   0.000000
    41  H    2.611709   3.354968   3.299568   3.932683   1.792853
    42  H    6.202315   6.816225   5.608539   6.312525   3.599536
    43  H    5.094450   6.096669   4.663983   5.767381   2.413941
    44  H    5.362603   6.158547   3.715244   4.817858   2.521105
    45  H    6.336265   6.765028   4.763473   5.352283   3.609082
    46  H    7.830901   8.618574   6.150012   7.152812   4.918759
    47  H    7.910338   8.673170   6.683272   7.601305   4.972335
    48  H    6.784529   8.010962   5.549108   7.015228   4.061396
    49  H    8.336515   9.491929   7.162194   8.502779   5.500699
    50  H    7.015783   8.207177   6.261132   7.596122   4.263832
                   41         42         43         44         45
    41  H    0.000000
    42  H    3.766069   0.000000
    43  H    2.932937   1.764547   0.000000
    44  H    4.009269   3.067554   2.520887   0.000000
    45  H    4.575668   2.520257   3.077881   1.754573   0.000000
    46  H    6.224590   3.731505   3.865065   2.492609   2.406748
    47  H    5.841862   2.540822   3.195617   3.069193   2.501168
    48  H    5.480760   4.061805   3.090332   2.564724   3.749829
    49  H    6.686786   4.290915   3.885458   3.757702   4.282463
    50  H    5.179677   3.080096   2.330075   3.219209   3.871434
                   46         47         48         49         50
    46  H    0.000000
    47  H    1.760265   0.000000
    48  H    2.522442   3.068649   0.000000
    49  H    2.433347   2.499374   1.771460   0.000000
    50  H    3.061668   2.488925   1.775744   1.766091   0.000000
 Symmetry turned off by external request.
 Stoichiometry    C15H20F9N3O3
 Framework group  C1[X(C15H20F9N3O3)]
 Deg. of freedom   144
 Full point group                 C1      NOp   1
 Rotational constants (GHZ):      0.1914376      0.1064306      0.0816914
 Leave Link  202 at Sun Mar  3 18:02:07 2024, MaxMem=  5368709120 cpu:         0.1
 (Enter /home/k0335/k033513/app/g09/l301.exe)
 Standard basis: 6-31G(d,p) (6D, 7F)
 Ernie: Thresh=  0.10000D-02 Tol=  0.10000D-05 Strict=F.
   550 basis functions,   980 primitive gaussians,   550 cartesian basis functions
   118 alpha electrons      118 beta electrons
       nuclear repulsion energy      3667.5715707020 Hartrees.
 IExCor=20419 DFT=T Ex+Corr=CAM-B3LYP ExCW=0 ScaHFX=  1.000000
 ScaDFX=  1.000000  1.000000  1.000000  0.810000 ScalE2=  1.000000  1.000000
 IRadAn=      0 IRanWt=     -1 IRanGd=            0 ICorTp=0 IEmpDi=  4
  HFx wShort=  0.000000 wLong=  0.330000 cFull=  0.190000 cShort=  0.000000 cLong=  0.460000
  DFx wShort=  0.000000 wLong=  0.330000 cFull=  0.190000 cShort=  0.000000 cLong=  0.460000
 NAtoms=   50 NActive=   50 NUniq=   50 SFac= 1.00D+00 NAtFMM=   60 NAOKFM=F Big=F
 Integral buffers will be    131072 words long.
 Raffenetti 2 integral format.
 Two-electron integral symmetry is turned off.
 Using the following non-standard input for PCM:
 eps=4.9
 --- end of non-standard input.
 ------------------------------------------------------------------------------
 Polarizable Continuum Model (PCM)
 =================================
 Model                : PCM (using non-symmetric T matrix).
 Atomic radii         : UFF (Universal Force Field).
 Polarization charges : Total charges.
 Charge compensation  : None.
 Solution method      : On-the-fly selection.
 Cavity type          : Scaled VdW (van der Waals Surface) (Alpha=1.100).
 Cavity algorithm     : GePol (No added spheres)
                        Default sphere list used, NSphG=   50.
                        Lebedev-Laikov grids with approx.  5.0 points / Ang**2.
                        Smoothing algorithm: Karplus/York (Gamma=1.0000).
                        Polarization charges: spherical gaussians, with
                                              point-specific exponents (IZeta= 3).
                        Self-potential: point-specific (ISelfS= 7).
                        Self-field    : sphere-specific E.n sum rule (ISelfD= 2).
 Solvent              : Generic,
                        Eps                           =   4.900000
                        Eps(infinity)                 =   0.000000
                        RSolv                         =   0.000000 Ang.
                        Molar volume                  =   0.000000 cm**3/mol
                        Thermal expansion coefficient =   0.000000 K**-1
                        Absolute temperature          = 298.150000 K
                        Numeral density               =   0.000000 Ang**-3
                        Hydrogen bond acidity         =   0.000000
                        Hydrogen bond basicity        =   0.000000
                        Surface tension at interface  =   0.000000 (cal/mol)*Ang**-2
                        Carbon aromaticity            =   0.000000
                        Electronegative halogenicity  =   0.000000
 ------------------------------------------------------------------------------
 GePol: Number of generator spheres                  =      50
 GePol: Total number of spheres                      =      50
 GePol: Number of exposed spheres                    =      49 ( 98.00%)
 GePol: Number of points                             =    3563
 GePol: Average weight of points                     =       0.13
 GePol: Minimum weight of points                     =   0.63D-09
 GePol: Maximum weight of points                     =    0.20577
 GePol: Number of points with low weight             =     197
 GePol: Fraction of low-weight points (<1% of avg)   =       5.53%
 GePol: Cavity surface area                          =    460.363 Ang**2
 GePol: Cavity volume                                =    511.152 Ang**3
 Leave Link  301 at Sun Mar  3 18:02:07 2024, MaxMem=  5368709120 cpu:         0.8
 (Enter /home/k0335/k033513/app/g09/l302.exe)
 NPDir=0 NMtPBC=     1 NCelOv=     1 NCel=       1 NClECP=     1 NCelD=      1
         NCelK=      1 NCelE2=     1 NClLst=     1 CellRange=     0.0.
 One-electron integrals computed using PRISM.
 NBasis=   550 RedAO= T EigKep=  1.27D-03  NBF=   550
 NBsUse=   550 1.00D-06 EigRej= -1.00D+00 NBFU=   550
 Precomputing XC quadrature grid using
 IXCGrd= 4 IRadAn=           0 IRanWt=          -1 IRanGd=           0 AccXCQ= 0.00D+00.
 Generated NRdTot=       0 NPtTot=           0 NUsed=           0 NTot=          32
 NSgBfM=   531   531   531   531   531 MxSgAt=    50 MxSgA2=    50.
 Leave Link  302 at Sun Mar  3 18:02:08 2024, MaxMem=  5368709120 cpu:        10.8
 (Enter /home/k0335/k033513/app/g09/l303.exe)
 DipDrv:  MaxL=1.
 Leave Link  303 at Sun Mar  3 18:02:08 2024, MaxMem=  5368709120 cpu:         0.8
 (Enter /home/k0335/k033513/app/g09/l401.exe)
 ExpMin= 1.61D-01 ExpMax= 7.00D+03 ExpMxC= 1.05D+03 IAcc=1 IRadAn=         1 AccDes= 0.00D+00
 Harris functional with IExCor=20419 and IRadAn=       1 diagonalized for initial guess.
 HarFok:  IExCor=20419 AccDes= 0.00D+00 IRadAn=         1 IDoV= 1 UseB2=F ITyADJ=14
 ICtDFT=  3500011 ScaDFX=  1.000000  1.000000  1.000000  1.000000
 FoFCou: FMM=F IPFlag=           0 FMFlag=      100000 FMFlg1=           0
         NFxFlg=           0 DoJE=T BraDBF=F KetDBF=T FulRan=T
         wScrn=  0.000000 ICntrl=     500 IOpCl=  0 I1Cent=   200000004 NGrid=           0
         NMat0=    1 NMatS0=      1 NMatT0=    0 NMatD0=    1 NMtDS0=    0 NMtDT0=    0
 Symmetry not used in FoFCou.
 Harris En= -1810.18537961326    
 JPrj=0 DoOrth=F DoCkMO=F.
 Leave Link  401 at Sun Mar  3 18:02:08 2024, MaxMem=  5368709120 cpu:        12.5
 (Enter /home/k0335/k033513/app/g09/l502.exe)
 Closed shell SCF:
 Using DIIS extrapolation, IDIIS=  1040.
 Two-electron integral symmetry not used.
 IVT=      942650 IEndB=      942650 NGot=  5368709120 MDV=  5368086161
 LenX=  5368086161 LenY=  5367783111
 Requested convergence on RMS density matrix=1.00D-08 within 128 cycles.
 Requested convergence on MAX density matrix=1.00D-06.
 Requested convergence on             energy=1.00D-06.
 No special actions if energy rises.
 Fock matrices will be formed incrementally for  20 cycles.

 Cycle   1  Pass 1  IDiag  1:
 FoFJK:  IHMeth= 1 ICntrl=       0 DoSepK=T KAlg= 0 I1Cent=   0 FoldK=F
 IRaf=         1 NMat=   1 IRICut=       1 DoRegI=T DoRafI=F ISym2E= 0.
 FoFCou: FMM=F IPFlag=           0 FMFlag=      100000 FMFlg1=           0
         NFxFlg=           0 DoJE=T BraDBF=F KetDBF=F FulRan=T
         wScrn=  0.000000 ICntrl=     500 IOpCl=  0 I1Cent=           0 NGrid=           0
         NMat0=    1 NMatS0=      1 NMatT0=    0 NMatD0=    1 NMtDS0=    0 NMtDT0=    0
 Symmetry not used in FoFCou.
 Inv3:  Mode=1 IEnd=    38084907.
 Iteration    1 A*A^-1 deviation from unit magnitude is 7.88D-15 for    583.
 Iteration    1 A*A^-1 deviation from orthogonality  is 1.34D-14 for   3559    820.
 Iteration    1 A^-1*A deviation from unit magnitude is 1.13D-14 for    281.
 Iteration    1 A^-1*A deviation from orthogonality  is 1.37D-13 for   3559   3542.
 E= -1870.93276296942    
 DIIS: error= 5.97D-02 at cycle   1 NSaved=   1.
 NSaved= 1 IEnMin= 1 EnMin= -1870.93276296942     IErMin= 1 ErrMin= 5.97D-02
 ErrMax= 5.97D-02  0.00D+00 EMaxC= 1.00D-01 BMatC= 1.53D+00 BMatP= 1.53D+00
 IDIUse=3 WtCom= 4.03D-01 WtEn= 5.97D-01
 Coeff-Com:  0.100D+01
 Coeff-En:   0.100D+01
 Coeff:      0.100D+01
 Gap=     0.535 Goal=   None    Shift=    0.000
 GapD=    0.535 DampG=2.000 DampE=0.500 DampFc=1.0000 IDamp=-1.
 RMSDP=2.66D-03 MaxDP=1.03D-01              OVMax= 1.13D-01

 Cycle   2  Pass 1  IDiag  1:
 RMSU=  2.66D-03    CP:  1.00D+00
 E= -1871.18069968629     Delta-E=       -0.247936716877 Rises=F Damp=F
 DIIS: error= 1.80D-02 at cycle   2 NSaved=   2.
 NSaved= 2 IEnMin= 2 EnMin= -1871.18069968629     IErMin= 2 ErrMin= 1.80D-02
 ErrMax= 1.80D-02  0.00D+00 EMaxC= 1.00D-01 BMatC= 5.03D-01 BMatP= 1.53D+00
 IDIUse=3 WtCom= 8.20D-01 WtEn= 1.80D-01
 Coeff-Com:  0.337D+00 0.663D+00
 Coeff-En:   0.325D+00 0.675D+00
 Coeff:      0.335D+00 0.665D+00
 Gap=     0.442 Goal=   None    Shift=    0.000
 RMSDP=1.41D-03 MaxDP=9.89D-02 DE=-2.48D-01 OVMax= 1.06D-01

 Cycle   3  Pass 1  IDiag  1:
 RMSU=  8.70D-04    CP:  1.00D+00  5.83D-01
 E= -1871.43479651032     Delta-E=       -0.254096824031 Rises=F Damp=F
 DIIS: error= 7.39D-03 at cycle   3 NSaved=   3.
 NSaved= 3 IEnMin= 3 EnMin= -1871.43479651032     IErMin= 3 ErrMin= 7.39D-03
 ErrMax= 7.39D-03  0.00D+00 EMaxC= 1.00D-01 BMatC= 1.25D-01 BMatP= 5.03D-01
 IDIUse=3 WtCom= 9.26D-01 WtEn= 7.39D-02
 Coeff-Com:  0.843D-01 0.346D+00 0.569D+00
 Coeff-En:   0.000D+00 0.177D+00 0.823D+00
 Coeff:      0.781D-01 0.334D+00 0.588D+00
 Gap=     0.400 Goal=   None    Shift=    0.000
 RMSDP=6.54D-04 MaxDP=5.90D-02 DE=-2.54D-01 OVMax= 7.10D-02

 Cycle   4  Pass 1  IDiag  1:
 RMSU=  3.22D-04    CP:  1.00D+00  7.00D-01  4.53D-01
 E= -1871.51400616827     Delta-E=       -0.079209657947 Rises=F Damp=F
 DIIS: error= 2.79D-03 at cycle   4 NSaved=   4.
 NSaved= 4 IEnMin= 4 EnMin= -1871.51400616827     IErMin= 4 ErrMin= 2.79D-03
 ErrMax= 2.79D-03  0.00D+00 EMaxC= 1.00D-01 BMatC= 1.48D-02 BMatP= 1.25D-01
 IDIUse=3 WtCom= 9.72D-01 WtEn= 2.79D-02
 Coeff-Com:  0.684D-02 0.107D+00 0.319D+00 0.567D+00
 Coeff-En:   0.000D+00 0.000D+00 0.634D-01 0.937D+00
 Coeff:      0.665D-02 0.104D+00 0.312D+00 0.577D+00
 Gap=     0.371 Goal=   None    Shift=    0.000
 RMSDP=2.05D-04 MaxDP=1.89D-02 DE=-7.92D-02 OVMax= 2.16D-02

 Cycle   5  Pass 1  IDiag  1:
 RMSU=  8.24D-05    CP:  9.99D-01  6.94D-01  6.11D-01  6.08D-01
 E= -1871.52425891900     Delta-E=       -0.010252750724 Rises=F Damp=F
 DIIS: error= 4.94D-04 at cycle   5 NSaved=   5.
 NSaved= 5 IEnMin= 5 EnMin= -1871.52425891900     IErMin= 5 ErrMin= 4.94D-04
 ErrMax= 4.94D-04  0.00D+00 EMaxC= 1.00D-01 BMatC= 5.54D-04 BMatP= 1.48D-02
 IDIUse=3 WtCom= 9.95D-01 WtEn= 4.94D-03
 Coeff-Com: -0.259D-03 0.354D-01 0.127D+00 0.289D+00 0.549D+00
 Coeff-En:   0.000D+00 0.000D+00 0.000D+00 0.000D+00 0.100D+01
 Coeff:     -0.257D-03 0.353D-01 0.126D+00 0.288D+00 0.551D+00
 Gap=     0.368 Goal=   None    Shift=    0.000
 RMSDP=3.83D-05 MaxDP=2.75D-03 DE=-1.03D-02 OVMax= 3.50D-03

 Cycle   6  Pass 1  IDiag  1:
 RMSU=  2.27D-05    CP:  9.99D-01  6.98D-01  6.04D-01  6.46D-01  6.82D-01
 E= -1871.52466197793     Delta-E=       -0.000403058933 Rises=F Damp=F
 DIIS: error= 1.16D-04 at cycle   6 NSaved=   6.
 NSaved= 6 IEnMin= 6 EnMin= -1871.52466197793     IErMin= 6 ErrMin= 1.16D-04
 ErrMax= 1.16D-04  0.00D+00 EMaxC= 1.00D-01 BMatC= 2.23D-05 BMatP= 5.54D-04
 IDIUse=3 WtCom= 9.99D-01 WtEn= 1.16D-03
 Coeff-Com: -0.684D-03 0.148D-02 0.113D-01 0.403D-01 0.192D+00 0.755D+00
 Coeff-En:   0.000D+00 0.000D+00 0.000D+00 0.000D+00 0.000D+00 0.100D+01
 Coeff:     -0.683D-03 0.148D-02 0.113D-01 0.403D-01 0.192D+00 0.755D+00
 Gap=     0.368 Goal=   None    Shift=    0.000
 RMSDP=1.06D-05 MaxDP=7.50D-04 DE=-4.03D-04 OVMax= 5.66D-04

 Cycle   7  Pass 1  IDiag  1:
 RMSU=  7.22D-06    CP:  9.99D-01  6.97D-01  6.08D-01  6.58D-01  7.43D-01
                    CP:  9.13D-01
 E= -1871.52467804585     Delta-E=       -0.000016067925 Rises=F Damp=F
 DIIS: error= 3.93D-05 at cycle   7 NSaved=   7.
 NSaved= 7 IEnMin= 7 EnMin= -1871.52467804585     IErMin= 7 ErrMin= 3.93D-05
 ErrMax= 3.93D-05  0.00D+00 EMaxC= 1.00D-01 BMatC= 3.68D-06 BMatP= 2.23D-05
 IDIUse=1 WtCom= 1.00D+00 WtEn= 0.00D+00
 Coeff-Com: -0.183D-03-0.344D-02-0.930D-02-0.144D-01 0.289D-01 0.341D+00
 Coeff-Com:  0.657D+00
 Coeff:     -0.183D-03-0.344D-02-0.930D-02-0.144D-01 0.289D-01 0.341D+00
 Coeff:      0.657D+00
 Gap=     0.368 Goal=   None    Shift=    0.000
 RMSDP=3.55D-06 MaxDP=2.17D-04 DE=-1.61D-05 OVMax= 3.01D-04

 Cycle   8  Pass 1  IDiag  1:
 RMSU=  2.01D-06    CP:  9.99D-01  6.98D-01  6.08D-01  6.57D-01  7.60D-01
                    CP:  9.96D-01  7.91D-01
 E= -1871.52468125975     Delta-E=       -0.000003213891 Rises=F Damp=F
 DIIS: error= 6.10D-06 at cycle   8 NSaved=   8.
 NSaved= 8 IEnMin= 8 EnMin= -1871.52468125975     IErMin= 8 ErrMin= 6.10D-06
 ErrMax= 6.10D-06  0.00D+00 EMaxC= 1.00D-01 BMatC= 1.15D-07 BMatP= 3.68D-06
 IDIUse=1 WtCom= 1.00D+00 WtEn= 0.00D+00
 Coeff-Com: -0.203D-04-0.112D-02-0.327D-02-0.683D-02-0.281D-02 0.478D-01
 Coeff-Com:  0.175D+00 0.792D+00
 Coeff:     -0.203D-04-0.112D-02-0.327D-02-0.683D-02-0.281D-02 0.478D-01
 Coeff:      0.175D+00 0.792D+00
 Gap=     0.368 Goal=   None    Shift=    0.000
 RMSDP=9.95D-07 MaxDP=1.03D-04 DE=-3.21D-06 OVMax= 1.19D-04

 Cycle   9  Pass 1  IDiag  1:
 RMSU=  6.68D-07    CP:  9.99D-01  6.98D-01  6.08D-01  6.57D-01  7.64D-01
                    CP:  1.01D+00  8.53D-01  1.05D+00
 E= -1871.52468137981     Delta-E=       -0.000000120061 Rises=F Damp=F
 DIIS: error= 3.58D-06 at cycle   9 NSaved=   9.
 NSaved= 9 IEnMin= 9 EnMin= -1871.52468137981     IErMin= 9 ErrMin= 3.58D-06
 ErrMax= 3.58D-06  0.00D+00 EMaxC= 1.00D-01 BMatC= 3.10D-08 BMatP= 1.15D-07
 IDIUse=1 WtCom= 1.00D+00 WtEn= 0.00D+00
 Coeff-Com:  0.139D-04-0.230D-04-0.116D-03-0.112D-02-0.540D-02-0.296D-01
 Coeff-Com: -0.163D-01 0.365D+00 0.688D+00
 Coeff:      0.139D-04-0.230D-04-0.116D-03-0.112D-02-0.540D-02-0.296D-01
 Coeff:     -0.163D-01 0.365D+00 0.688D+00
 Gap=     0.368 Goal=   None    Shift=    0.000
 RMSDP=4.24D-07 MaxDP=3.41D-05 DE=-1.20D-07 OVMax= 5.20D-05

 Cycle  10  Pass 1  IDiag  1:
 RMSU=  2.57D-07    CP:  9.99D-01  6.98D-01  6.09D-01  6.57D-01  7.66D-01
                    CP:  1.02D+00  8.68D-01  1.16D+00  9.05D-01
 E= -1871.52468140837     Delta-E=       -0.000000028563 Rises=F Damp=F
 DIIS: error= 9.23D-07 at cycle  10 NSaved=  10.
 NSaved=10 IEnMin=10 EnMin= -1871.52468140837     IErMin=10 ErrMin= 9.23D-07
 ErrMax= 9.23D-07  0.00D+00 EMaxC= 1.00D-01 BMatC= 2.01D-09 BMatP= 3.10D-08
 IDIUse=1 WtCom= 1.00D+00 WtEn= 0.00D+00
 Coeff-Com:  0.718D-05 0.116D-03 0.337D-03 0.355D-03-0.123D-02-0.151D-01
 Coeff-Com: -0.242D-01 0.373D-01 0.231D+00 0.772D+00
 Coeff:      0.718D-05 0.116D-03 0.337D-03 0.355D-03-0.123D-02-0.151D-01
 Coeff:     -0.242D-01 0.373D-01 0.231D+00 0.772D+00
 Gap=     0.368 Goal=   None    Shift=    0.000
 RMSDP=1.42D-07 MaxDP=1.33D-05 DE=-2.86D-08 OVMax= 1.99D-05

 Cycle  11  Pass 1  IDiag  1:
 RMSU=  8.46D-08    CP:  9.99D-01  6.98D-01  6.09D-01  6.57D-01  7.66D-01
                    CP:  1.02D+00  8.75D-01  1.19D+00  9.98D-01  9.77D-01
 E= -1871.52468141057     Delta-E=       -0.000000002196 Rises=F Damp=F
 DIIS: error= 4.86D-07 at cycle  11 NSaved=  11.
 NSaved=11 IEnMin=11 EnMin= -1871.52468141057     IErMin=11 ErrMin= 4.86D-07
 ErrMax= 4.86D-07  0.00D+00 EMaxC= 1.00D-01 BMatC= 3.10D-10 BMatP= 2.01D-09
 IDIUse=1 WtCom= 1.00D+00 WtEn= 0.00D+00
 Coeff-Com:  0.203D-05 0.514D-04 0.157D-03 0.234D-03 0.253D-04-0.386D-02
 Coeff-Com: -0.883D-02-0.157D-01 0.348D-01 0.324D+00 0.669D+00
 Coeff:      0.203D-05 0.514D-04 0.157D-03 0.234D-03 0.253D-04-0.386D-02
 Coeff:     -0.883D-02-0.157D-01 0.348D-01 0.324D+00 0.669D+00
 Gap=     0.368 Goal=   None    Shift=    0.000
 RMSDP=4.36D-08 MaxDP=3.37D-06 DE=-2.20D-09 OVMax= 4.50D-06

 Cycle  12  Pass 1  IDiag  1:
 RMSU=  2.63D-08    CP:  9.99D-01  6.98D-01  6.09D-01  6.57D-01  7.66D-01
                    CP:  1.02D+00  8.76D-01  1.20D+00  1.02D+00  1.06D+00
                    CP:  9.28D-01
 E= -1871.52468141083     Delta-E=       -0.000000000263 Rises=F Damp=F
 DIIS: error= 1.34D-07 at cycle  12 NSaved=  12.
 NSaved=12 IEnMin=12 EnMin= -1871.52468141083     IErMin=12 ErrMin= 1.34D-07
 ErrMax= 1.34D-07  0.00D+00 EMaxC= 1.00D-01 BMatC= 3.75D-11 BMatP= 3.10D-10
 IDIUse=1 WtCom= 1.00D+00 WtEn= 0.00D+00
 Coeff-Com: -0.324D-06 0.401D-05 0.178D-04 0.428D-04 0.263D-03 0.798D-03
 Coeff-Com:  0.251D-03-0.113D-01-0.220D-01 0.507D-02 0.241D+00 0.786D+00
 Coeff:     -0.324D-06 0.401D-05 0.178D-04 0.428D-04 0.263D-03 0.798D-03
 Coeff:      0.251D-03-0.113D-01-0.220D-01 0.507D-02 0.241D+00 0.786D+00
 Gap=     0.368 Goal=   None    Shift=    0.000
 RMSDP=1.81D-08 MaxDP=1.19D-06 DE=-2.63D-10 OVMax= 2.52D-06

 Cycle  13  Pass 1  IDiag  1:
 RMSU=  9.40D-09    CP:  9.99D-01  6.98D-01  6.09D-01  6.57D-01  7.66D-01
                    CP:  1.02D+00  8.76D-01  1.20D+00  1.03D+00  1.09D+00
                    CP:  1.03D+00  9.78D-01
 E= -1871.52468141091     Delta-E=       -0.000000000081 Rises=F Damp=F
 DIIS: error= 8.01D-08 at cycle  13 NSaved=  13.
 NSaved=13 IEnMin=13 EnMin= -1871.52468141091     IErMin=13 ErrMin= 8.01D-08
 ErrMax= 8.01D-08  0.00D+00 EMaxC= 1.00D-01 BMatC= 5.86D-12 BMatP= 3.75D-11
 IDIUse=1 WtCom= 1.00D+00 WtEn= 0.00D+00
 Coeff-Com: -0.339D-06-0.308D-05-0.592D-05-0.391D-05 0.126D-03 0.718D-03
 Coeff-Com:  0.952D-03-0.366D-02-0.139D-01-0.308D-01 0.393D-01 0.357D+00
 Coeff-Com:  0.650D+00
 Coeff:     -0.339D-06-0.308D-05-0.592D-05-0.391D-05 0.126D-03 0.718D-03
 Coeff:      0.952D-03-0.366D-02-0.139D-01-0.308D-01 0.393D-01 0.357D+00
 Coeff:      0.650D+00
 Gap=     0.368 Goal=   None    Shift=    0.000
 RMSDP=5.93D-09 MaxDP=4.91D-07 DE=-8.09D-11 OVMax= 7.28D-07

 Error on total polarization charges =  0.00711
 SCF Done:  E(RCAM-B3LYP) =  -1871.52468141     A.U. after   13 cycles
            NFock= 13  Conv=0.59D-08     -V/T= 2.0078
 KE= 1.857049658424D+03 PE=-1.173992846308D+04 EE= 4.343782552547D+03
 Leave Link  502 at Sun Mar  3 18:02:54 2024, MaxMem=  5368709120 cpu:      1018.4
 (Enter /home/k0335/k033513/app/g09/l601.exe)
 Copying SCF densities to generalized density rwf, IOpCl= 0 IROHF=0.

 **********************************************************************

            Population analysis using the SCF density.

 **********************************************************************

 Alpha  occ. eigenvalues --  -24.83400 -24.83018 -24.82957 -24.82816 -24.82573
 Alpha  occ. eigenvalues --  -24.82439 -24.81881 -24.81681 -24.80795 -19.32549
 Alpha  occ. eigenvalues --  -19.20504 -19.20492 -14.49627 -14.45306 -14.45174
 Alpha  occ. eigenvalues --  -10.59054 -10.54625 -10.51617 -10.48269 -10.42087
 Alpha  occ. eigenvalues --  -10.41916 -10.34667 -10.30216 -10.30098 -10.25809
 Alpha  occ. eigenvalues --  -10.25790 -10.25510 -10.25470 -10.24652 -10.24513
 Alpha  occ. eigenvalues --   -1.42847  -1.41311  -1.37497  -1.34552  -1.33520
 Alpha  occ. eigenvalues --   -1.32631  -1.31981  -1.31843  -1.30365  -1.19851
 Alpha  occ. eigenvalues --   -1.18339  -1.13901  -1.07511  -1.05635  -1.00872
 Alpha  occ. eigenvalues --   -0.92237  -0.88902  -0.88078  -0.84118  -0.82476
 Alpha  occ. eigenvalues --   -0.81521  -0.81304  -0.78998  -0.76110  -0.75161
 Alpha  occ. eigenvalues --   -0.73678  -0.72788  -0.71507  -0.70339  -0.69838
 Alpha  occ. eigenvalues --   -0.68827  -0.68363  -0.67821  -0.66760  -0.66288
 Alpha  occ. eigenvalues --   -0.65516  -0.65102  -0.64857  -0.62782  -0.60786
 Alpha  occ. eigenvalues --   -0.58403  -0.58227  -0.57260  -0.56384  -0.56305
 Alpha  occ. eigenvalues --   -0.55697  -0.55230  -0.54994  -0.54701  -0.54346
 Alpha  occ. eigenvalues --   -0.53896  -0.53737  -0.53228  -0.52748  -0.52321
 Alpha  occ. eigenvalues --   -0.51930  -0.51788  -0.51252  -0.50877  -0.50546
 Alpha  occ. eigenvalues --   -0.50318  -0.49948  -0.49658  -0.49434  -0.49071
 Alpha  occ. eigenvalues --   -0.48601  -0.48476  -0.48117  -0.47951  -0.47608
 Alpha  occ. eigenvalues --   -0.47297  -0.46700  -0.45981  -0.45072  -0.43171
 Alpha  occ. eigenvalues --   -0.42499  -0.42008  -0.41179  -0.40270  -0.39964
 Alpha  occ. eigenvalues --   -0.39474  -0.39241  -0.39097  -0.37383  -0.35147
 Alpha  occ. eigenvalues --   -0.34232  -0.31521  -0.31194
 Alpha virt. eigenvalues --    0.05620   0.06109   0.06935   0.10662   0.12180
 Alpha virt. eigenvalues --    0.13624   0.14007   0.15668   0.16460   0.16931
 Alpha virt. eigenvalues --    0.17348   0.17511   0.18432   0.19100   0.19238
 Alpha virt. eigenvalues --    0.20216   0.20614   0.20776   0.21257   0.21840
 Alpha virt. eigenvalues --    0.22401   0.22582   0.22765   0.23325   0.23527
 Alpha virt. eigenvalues --    0.23656   0.23892   0.24133   0.24528   0.24799
 Alpha virt. eigenvalues --    0.25228   0.25616   0.26170   0.26893   0.27576
 Alpha virt. eigenvalues --    0.27866   0.28349   0.29174   0.29689   0.29799
 Alpha virt. eigenvalues --    0.30630   0.31193   0.32219   0.32572   0.32937
 Alpha virt. eigenvalues --    0.34784   0.35262   0.36846   0.41099   0.42560
 Alpha virt. eigenvalues --    0.44620   0.48010   0.49226   0.49597   0.50482
 Alpha virt. eigenvalues --    0.52166   0.52371   0.54224   0.54495   0.55140
 Alpha virt. eigenvalues --    0.55279   0.55628   0.56086   0.56800   0.57261
 Alpha virt. eigenvalues --    0.57908   0.58401   0.60077   0.60324   0.60653
 Alpha virt. eigenvalues --    0.61149   0.62060   0.63232   0.64027   0.64222
 Alpha virt. eigenvalues --    0.66071   0.66937   0.67803   0.68215   0.68834
 Alpha virt. eigenvalues --    0.69893   0.70764   0.71618   0.72841   0.73350
 Alpha virt. eigenvalues --    0.74657   0.74772   0.76560   0.77685   0.78503
 Alpha virt. eigenvalues --    0.79850   0.81594   0.81653   0.82879   0.83798
 Alpha virt. eigenvalues --    0.84622   0.85031   0.86587   0.87528   0.88224
 Alpha virt. eigenvalues --    0.88647   0.88874   0.89904   0.90646   0.91594
 Alpha virt. eigenvalues --    0.92038   0.92998   0.93417   0.93791   0.94162
 Alpha virt. eigenvalues --    0.94545   0.95288   0.95793   0.96400   0.96797
 Alpha virt. eigenvalues --    0.97883   0.98188   0.98772   0.98972   0.99851
 Alpha virt. eigenvalues --    1.00806   1.00854   1.02136   1.02325   1.02682
 Alpha virt. eigenvalues --    1.03683   1.04330   1.05241   1.05399   1.06075
 Alpha virt. eigenvalues --    1.07612   1.08440   1.08623   1.10311   1.12532
 Alpha virt. eigenvalues --    1.12856   1.14155   1.15199   1.15345   1.17177
 Alpha virt. eigenvalues --    1.17640   1.18468   1.19844   1.20035   1.21700
 Alpha virt. eigenvalues --    1.22193   1.23090   1.23517   1.24584   1.26094
 Alpha virt. eigenvalues --    1.27663   1.28947   1.30644   1.31186   1.31533
 Alpha virt. eigenvalues --    1.33207   1.33734   1.35381   1.36593   1.37227
 Alpha virt. eigenvalues --    1.37856   1.38105   1.38825   1.39559   1.40314
 Alpha virt. eigenvalues --    1.40611   1.41445   1.42237   1.42683   1.43640
 Alpha virt. eigenvalues --    1.43770   1.44563   1.44684   1.45142   1.46233
 Alpha virt. eigenvalues --    1.46875   1.48513   1.50717   1.52227   1.53415
 Alpha virt. eigenvalues --    1.54035   1.54755   1.55975   1.57729   1.58623
 Alpha virt. eigenvalues --    1.59611   1.60289   1.61897   1.62785   1.63117
 Alpha virt. eigenvalues --    1.64587   1.65438   1.66260   1.67181   1.68041
 Alpha virt. eigenvalues --    1.69148   1.69605   1.70356   1.71794   1.72250
 Alpha virt. eigenvalues --    1.73483   1.74359   1.75098   1.75723   1.76170
 Alpha virt. eigenvalues --    1.76790   1.77236   1.77513   1.79247   1.80781
 Alpha virt. eigenvalues --    1.81086   1.82554   1.83063   1.83816   1.84759
 Alpha virt. eigenvalues --    1.85561   1.86538   1.87116   1.87969   1.88537
 Alpha virt. eigenvalues --    1.88903   1.89530   1.89865   1.90119   1.90807
 Alpha virt. eigenvalues --    1.91241   1.91806   1.92125   1.93345   1.93595
 Alpha virt. eigenvalues --    1.93710   1.94449   1.95403   1.96110   1.96442
 Alpha virt. eigenvalues --    1.96776   1.97571   1.98210   1.98860   1.99225
 Alpha virt. eigenvalues --    1.99594   2.00746   2.01343   2.01567   2.02098
 Alpha virt. eigenvalues --    2.02893   2.03133   2.03352   2.03600   2.04712
 Alpha virt. eigenvalues --    2.05635   2.05826   2.06009   2.07340   2.08884
 Alpha virt. eigenvalues --    2.09209   2.09837   2.10050   2.10959   2.12242
 Alpha virt. eigenvalues --    2.12491   2.12704   2.12921   2.13653   2.13953
 Alpha virt. eigenvalues --    2.15024   2.15370   2.15676   2.16746   2.17090
 Alpha virt. eigenvalues --    2.17990   2.18395   2.18837   2.19286   2.20165
 Alpha virt. eigenvalues --    2.20448   2.21274   2.22252   2.22704   2.23761
 Alpha virt. eigenvalues --    2.24051   2.25852   2.26919   2.27755   2.28480
 Alpha virt. eigenvalues --    2.28903   2.29009   2.30975   2.32177   2.32868
 Alpha virt. eigenvalues --    2.33105   2.34533   2.34563   2.35088   2.37211
 Alpha virt. eigenvalues --    2.38120   2.38763   2.39102   2.40034   2.41236
 Alpha virt. eigenvalues --    2.41982   2.42722   2.43778   2.44095   2.44902
 Alpha virt. eigenvalues --    2.45881   2.46130   2.47480   2.48354   2.49385
 Alpha virt. eigenvalues --    2.50077   2.52314   2.53551   2.55626   2.56605
 Alpha virt. eigenvalues --    2.57838   2.58717   2.60069   2.60800   2.61264
 Alpha virt. eigenvalues --    2.63440   2.64343   2.65223   2.65727   2.65995
 Alpha virt. eigenvalues --    2.68548   2.69249   2.71022   2.71373   2.73907
 Alpha virt. eigenvalues --    2.74728   2.75514   2.75927   2.76898   2.77483
 Alpha virt. eigenvalues --    2.78278   2.79273   2.79947   2.80808   2.82107
 Alpha virt. eigenvalues --    2.82918   2.83685   2.84522   2.85312   2.86010
 Alpha virt. eigenvalues --    2.87482   2.88425   2.89529   2.89988   2.90580
 Alpha virt. eigenvalues --    2.91425   2.92327   2.93440   2.93971   2.96097
 Alpha virt. eigenvalues --    2.96440   2.97140   2.98052   2.98191   2.99043
 Alpha virt. eigenvalues --    2.99077   2.99644   2.99820   3.00896   3.01723
 Alpha virt. eigenvalues --    3.03808   3.05667   3.06642   3.07447   3.09474
 Alpha virt. eigenvalues --    3.11086   3.13930   3.15691   3.16343   3.17152
 Alpha virt. eigenvalues --    3.21645   3.22867   3.26360   3.27044   3.27915
 Alpha virt. eigenvalues --    3.30534   3.33197   3.33487   3.33922   3.35743
 Alpha virt. eigenvalues --    3.37192   3.38446   3.39138   3.41105   3.42436
 Alpha virt. eigenvalues --    3.43071   3.45547   3.47704   3.52106   3.53345
 Alpha virt. eigenvalues --    3.54788   3.55465   3.56045   3.61397   3.62495
 Alpha virt. eigenvalues --    3.65261   3.65311   4.07965   4.15016   4.21387
 Alpha virt. eigenvalues --    4.26105   4.30081   4.34333   4.35238   4.38810
 Alpha virt. eigenvalues --    4.39830   4.41650   4.51114   4.51448   4.52111
 Alpha virt. eigenvalues --    4.56432   4.63314   4.65751   4.67361   4.68507
 Alpha virt. eigenvalues --    4.69169   4.78763   4.81011   4.81667   4.86715
 Alpha virt. eigenvalues --    5.01950   5.11030   5.37334   5.54612   5.88281
 Alpha virt. eigenvalues --    6.33777   6.48744
          Condensed to atoms (all electrons):
               1          2          3          4          5          6
     1  C    4.910388   0.369662  -0.045122   0.003738  -0.000123  -0.000001
     2  C    0.369662   4.861054   0.372866  -0.037914   0.003833  -0.000012
     3  C   -0.045122   0.372866   4.945624   0.368587  -0.056704  -0.002085
     4  C    0.003738  -0.037914   0.368587   4.814407   0.268051  -0.037446
     5  N   -0.000123   0.003833  -0.056704   0.268051   7.142114   0.255614
     6  C   -0.000001  -0.000012  -0.002085  -0.037446   0.255614   4.686250
     7  N    0.000000   0.000000   0.000040   0.002684  -0.051069   0.261340
     8  C    0.000000   0.000000   0.000002  -0.000138   0.002721  -0.028993
     9  C    0.000000   0.000000   0.000001  -0.000001   0.000694  -0.000884
    10  C    0.000000   0.000000   0.000000   0.000000   0.000007  -0.000086
    11  C    0.000000   0.000000   0.000000   0.000000   0.000000  -0.000011
    12  C    0.000000   0.000000   0.000049   0.000733  -0.003379  -0.040232
    13  O    0.000000   0.000000   0.000000   0.000000  -0.000071   0.002718
    14  N    0.000000   0.000000  -0.000292   0.003504  -0.108200   0.012204
    15  C    0.000000   0.000000   0.000005  -0.000103   0.002907   0.000406
    16  F    0.000000   0.000000   0.000000   0.000001  -0.000007   0.000022
    17  F    0.000000   0.000000  -0.000001   0.000007   0.000048   0.000004
    18  C    0.000000   0.000000   0.000000   0.000000  -0.000065  -0.000038
    19  F    0.000000   0.000000   0.000000   0.000000   0.000000   0.000003
    20  O    0.000000   0.000000   0.000000   0.000000   0.000000   0.000000
    21  C    0.000000   0.000000   0.000000   0.000000   0.000000   0.000000
    22  F    0.000000   0.000000   0.000000   0.000000   0.000000   0.000000
    23  F    0.000000   0.000000   0.000000   0.000000   0.000000   0.000000
    24  F    0.000000   0.000000   0.000000   0.000000   0.000000   0.000000
    25  C    0.000000   0.000000   0.000000   0.000000  -0.000021   0.000037
    26  F    0.000000   0.000000   0.000000   0.000000   0.000000   0.000000
    27  F    0.000000   0.000000   0.000000   0.000000  -0.000042   0.000009
    28  F    0.000000   0.000000   0.000000   0.000000   0.000000   0.000000
    29  C   -0.000004  -0.000011  -0.003709  -0.023848   0.330219  -0.035748
    30  O    0.000001  -0.000049  -0.002257   0.000681  -0.096883   0.002446
    31  H    0.390656  -0.035425  -0.005709   0.000070   0.000001  -0.000001
    32  H    0.383800  -0.029096   0.004388  -0.000145   0.000001   0.000000
    33  H    0.391791  -0.035131  -0.005419   0.000070   0.000001   0.000000
    34  H   -0.037551   0.394502  -0.040089  -0.003949   0.000048   0.000008
    35  H   -0.038264   0.392693  -0.040907  -0.003980   0.000060  -0.000011
    36  H   -0.003345  -0.036098   0.387356  -0.038510  -0.003089   0.003298
    37  H   -0.003349  -0.034357   0.388839  -0.033652  -0.005442  -0.000417
    38  H   -0.000067  -0.001167  -0.046984   0.390067  -0.039930  -0.005062
    39  H   -0.000022  -0.002372  -0.039728   0.386517  -0.032349   0.004572
    40  H   -0.000001   0.000008  -0.001630  -0.003562  -0.033523   0.396007
    41  H    0.000003  -0.000061   0.002503   0.002975  -0.061302   0.398313
    42  H    0.000000   0.000000   0.000000   0.000001  -0.000208   0.003171
    43  H    0.000000   0.000000   0.000001   0.000007   0.000204  -0.004690
    44  H    0.000000   0.000000   0.000001  -0.000002  -0.000362   0.001641
    45  H    0.000000   0.000000   0.000000   0.000000   0.000121  -0.000235
    46  H    0.000000   0.000000   0.000000   0.000000   0.000000   0.000003
    47  H    0.000000   0.000000   0.000000   0.000000   0.000000  -0.000001
    48  H    0.000000   0.000000   0.000000   0.000000   0.000000  -0.000012
    49  H    0.000000   0.000000   0.000000   0.000000   0.000000   0.000000
    50  H    0.000000   0.000000   0.000000   0.000000   0.000000  -0.000001
               7          8          9         10         11         12
     1  C    0.000000   0.000000   0.000000   0.000000   0.000000   0.000000
     2  C    0.000000   0.000000   0.000000   0.000000   0.000000   0.000000
     3  C    0.000040   0.000002   0.000001   0.000000   0.000000   0.000049
     4  C    0.002684  -0.000138  -0.000001   0.000000   0.000000   0.000733
     5  N   -0.051069   0.002721   0.000694   0.000007   0.000000  -0.003379
     6  C    0.261340  -0.028993  -0.000884  -0.000086  -0.000011  -0.040232
     7  N    7.142277   0.270901  -0.057077   0.003957   0.000066   0.311246
     8  C    0.270901   4.810531   0.369976  -0.043030  -0.004375  -0.022939
     9  C   -0.057077   0.369976   4.937302   0.368078  -0.050811  -0.003140
    10  C    0.003957  -0.043030   0.368078   4.873969   0.370504  -0.000019
    11  C    0.000066  -0.004375  -0.050811   0.370504   4.920324   0.000005
    12  C    0.311246  -0.022939  -0.003140  -0.000019   0.000005   4.211871
    13  O   -0.097879   0.000289  -0.001459  -0.000061   0.000000   0.584838
    14  N   -0.101863   0.003597  -0.000239   0.000000   0.000000   0.174890
    15  C    0.003899  -0.000061   0.000004   0.000000   0.000000  -0.017075
    16  F    0.000019   0.000001   0.000000   0.000000   0.000000   0.006109
    17  F   -0.000021   0.000000   0.000000   0.000000   0.000000   0.001404
    18  C   -0.000329  -0.000003   0.000000   0.000000   0.000000  -0.006845
    19  F   -0.000083   0.000015   0.000000   0.000000   0.000000   0.011451
    20  O    0.000000   0.000000   0.000000   0.000000   0.000000   0.000152
    21  C    0.000000   0.000000   0.000000   0.000000   0.000000   0.000028
    22  F    0.000000   0.000000   0.000000   0.000000   0.000000   0.000000
    23  F    0.000000   0.000000   0.000000   0.000000   0.000000   0.000000
    24  F    0.000000   0.000000   0.000000   0.000000   0.000000   0.000004
    25  C    0.000052   0.000001   0.000000   0.000000   0.000000   0.000074
    26  F    0.000000   0.000000   0.000000   0.000000   0.000000   0.000065
    27  F   -0.000691  -0.000005   0.000000   0.000000   0.000000   0.007595
    28  F    0.000000   0.000000   0.000000   0.000000   0.000000   0.000007
    29  C   -0.005450   0.000092  -0.000029   0.000001   0.000000  -0.009274
    30  O    0.000087   0.000001   0.000000   0.000000   0.000000  -0.000886
    31  H    0.000000   0.000000   0.000000   0.000000   0.000000   0.000000
    32  H    0.000000   0.000000   0.000000   0.000000   0.000000   0.000000
    33  H    0.000000   0.000000   0.000000   0.000000   0.000000   0.000000
    34  H    0.000000   0.000000   0.000000   0.000000   0.000000   0.000000
    35  H    0.000000   0.000000   0.000000   0.000000   0.000000   0.000000
    36  H    0.000049   0.000003   0.000000   0.000000   0.000000  -0.000008
    37  H   -0.000016   0.000000   0.000000   0.000000   0.000000   0.000004
    38  H    0.000267  -0.000015  -0.000015   0.000000   0.000000  -0.000063
    39  H   -0.000160   0.000005  -0.000002   0.000000   0.000000  -0.000100
    40  H   -0.032107  -0.000729   0.000665  -0.000246   0.000033   0.001754
    41  H   -0.059466   0.000380   0.000013   0.000011  -0.000001   0.001965
    42  H   -0.033754   0.388707  -0.041338  -0.001273  -0.000734  -0.003394
    43  H   -0.040061   0.392854  -0.044361  -0.001583   0.003127   0.004272
    44  H   -0.001686  -0.040918   0.384897  -0.034146  -0.007013  -0.000003
    45  H   -0.005754  -0.034970   0.388029  -0.030775   0.004940   0.003447
    46  H   -0.000121   0.004632  -0.031616   0.389989  -0.039342  -0.000006
    47  H    0.000065  -0.007510  -0.038790   0.393206  -0.040467  -0.000008
    48  H   -0.000013  -0.000859  -0.004669  -0.037488   0.389879   0.000000
    49  H    0.000000   0.000088   0.004563  -0.029233   0.386764   0.000000
    50  H   -0.000023   0.002208  -0.005308  -0.036001   0.391670  -0.000002
              13         14         15         16         17         18
     1  C    0.000000   0.000000   0.000000   0.000000   0.000000   0.000000
     2  C    0.000000   0.000000   0.000000   0.000000   0.000000   0.000000
     3  C    0.000000  -0.000292   0.000005   0.000000  -0.000001   0.000000
     4  C    0.000000   0.003504  -0.000103   0.000001   0.000007   0.000000
     5  N   -0.000071  -0.108200   0.002907  -0.000007   0.000048  -0.000065
     6  C    0.002718   0.012204   0.000406   0.000022   0.000004  -0.000038
     7  N   -0.097879  -0.101863   0.003899   0.000019  -0.000021  -0.000329
     8  C    0.000289   0.003597  -0.000061   0.000001   0.000000  -0.000003
     9  C   -0.001459  -0.000239   0.000004   0.000000   0.000000   0.000000
    10  C   -0.000061   0.000000   0.000000   0.000000   0.000000   0.000000
    11  C    0.000000   0.000000   0.000000   0.000000   0.000000   0.000000
    12  C    0.584838   0.174890  -0.017075   0.006109   0.001404  -0.006845
    13  O    8.122193  -0.092872   0.017852  -0.003140   0.000012   0.000649
    14  N   -0.092872   7.608861   0.164886  -0.066607  -0.028886  -0.035833
    15  C    0.017852   0.164886   4.476995   0.259368   0.217576   0.186628
    16  F   -0.003140  -0.066607   0.259368   9.125984  -0.037071  -0.019277
    17  F    0.000012  -0.028886   0.217576  -0.037071   9.146461  -0.026933
    18  C    0.000649  -0.035833   0.186628  -0.019277  -0.026933   4.980863
    19  F   -0.015075  -0.000178  -0.027956  -0.000041   0.000316   0.250516
    20  O   -0.000051   0.001537  -0.025429  -0.000700  -0.002592   0.164412
    21  C    0.000007   0.000313  -0.003563   0.000337   0.014513  -0.003436
    22  F    0.000000  -0.000017  -0.005081   0.000012  -0.001076   0.003656
    23  F    0.000000   0.000000  -0.000088   0.000000  -0.000002   0.001467
    24  F    0.000000   0.000036   0.017598  -0.001363  -0.007670  -0.008822
    25  C   -0.000329  -0.001216  -0.053444   0.001688   0.007166   0.182454
    26  F    0.000000  -0.001817   0.011145  -0.000001  -0.003216  -0.041300
    27  F   -0.000145  -0.001933  -0.004998  -0.000001  -0.000162  -0.028204
    28  F    0.000000  -0.000008   0.001929  -0.000001  -0.000001  -0.024609
    29  C   -0.000576   0.186926   0.000286   0.004291   0.005259   0.001665
    30  O   -0.000019  -0.088564   0.016326  -0.001163  -0.015993   0.000306
    31  H    0.000000   0.000000   0.000000   0.000000   0.000000   0.000000
    32  H    0.000000   0.000000   0.000000   0.000000   0.000000   0.000000
    33  H    0.000000   0.000000   0.000000   0.000000   0.000000   0.000000
    34  H    0.000000   0.000000   0.000000   0.000000   0.000000   0.000000
    35  H    0.000000   0.000000   0.000000   0.000000   0.000000   0.000000
    36  H    0.000000   0.000006   0.000000   0.000000   0.000000   0.000000
    37  H    0.000000  -0.000137  -0.000002   0.000000  -0.000001   0.000000
    38  H    0.000000  -0.000088   0.000002   0.000000   0.000000   0.000000
    39  H    0.000000   0.000563   0.000010   0.000000   0.000002   0.000000
    40  H   -0.000076  -0.000212   0.000013   0.000000   0.000000   0.000000
    41  H    0.000052   0.001025  -0.000102   0.000001  -0.000002  -0.000015
    42  H    0.011699   0.000543  -0.000004   0.000000   0.000000   0.000004
    43  H    0.000466  -0.000107   0.000000   0.000000   0.000000   0.000000
    44  H    0.000010  -0.000001   0.000000   0.000000   0.000000   0.000000
    45  H    0.002210  -0.000065  -0.000001   0.000000   0.000000   0.000000
    46  H    0.000000   0.000000   0.000000   0.000000   0.000000   0.000000
    47  H   -0.000004   0.000000   0.000000   0.000000   0.000000   0.000000
    48  H    0.000000   0.000000   0.000000   0.000000   0.000000   0.000000
    49  H    0.000000   0.000000   0.000000   0.000000   0.000000   0.000000
    50  H    0.000000   0.000000   0.000000   0.000000   0.000000   0.000000
              19         20         21         22         23         24
     1  C    0.000000   0.000000   0.000000   0.000000   0.000000   0.000000
     2  C    0.000000   0.000000   0.000000   0.000000   0.000000   0.000000
     3  C    0.000000   0.000000   0.000000   0.000000   0.000000   0.000000
     4  C    0.000000   0.000000   0.000000   0.000000   0.000000   0.000000
     5  N    0.000000   0.000000   0.000000   0.000000   0.000000   0.000000
     6  C    0.000003   0.000000   0.000000   0.000000   0.000000   0.000000
     7  N   -0.000083   0.000000   0.000000   0.000000   0.000000   0.000000
     8  C    0.000015   0.000000   0.000000   0.000000   0.000000   0.000000
     9  C    0.000000   0.000000   0.000000   0.000000   0.000000   0.000000
    10  C    0.000000   0.000000   0.000000   0.000000   0.000000   0.000000
    11  C    0.000000   0.000000   0.000000   0.000000   0.000000   0.000000
    12  C    0.011451   0.000152   0.000028   0.000000   0.000000   0.000004
    13  O   -0.015075  -0.000051   0.000007   0.000000   0.000000   0.000000
    14  N   -0.000178   0.001537   0.000313  -0.000017   0.000000   0.000036
    15  C   -0.027956  -0.025429  -0.003563  -0.005081  -0.000088   0.017598
    16  F   -0.000041  -0.000700   0.000337   0.000012   0.000000  -0.001363
    17  F    0.000316  -0.002592   0.014513  -0.001076  -0.000002  -0.007670
    18  C    0.250516   0.164412  -0.003436   0.003656   0.001467  -0.008822
    19  F    9.096609  -0.045054   0.000415  -0.000002  -0.000002  -0.000004
    20  O   -0.045054   8.337430   0.237586  -0.047749  -0.038726  -0.046138
    21  C    0.000415   0.237586   3.838062   0.296115   0.334392   0.302438
    22  F   -0.000002  -0.047749   0.296115   9.062748  -0.037444  -0.033472
    23  F   -0.000002  -0.038726   0.334392  -0.037444   9.021652  -0.037801
    24  F   -0.000004  -0.046138   0.302438  -0.033472  -0.037801   9.053897
    25  C   -0.013886  -0.029704  -0.003975   0.012436  -0.000136  -0.000137
    26  F    0.000311   0.000403   0.002087  -0.008360  -0.000001  -0.000009
    27  F   -0.000830   0.000631   0.000086   0.000001   0.000000   0.000000
    28  F   -0.000764  -0.000766   0.001108  -0.000567  -0.000001   0.000000
    29  C    0.000041  -0.000017  -0.000003  -0.000002   0.000000   0.000008
    30  O    0.000000   0.000000   0.000013   0.000000   0.000000  -0.000002
    31  H    0.000000   0.000000   0.000000   0.000000   0.000000   0.000000
    32  H    0.000000   0.000000   0.000000   0.000000   0.000000   0.000000
    33  H    0.000000   0.000000   0.000000   0.000000   0.000000   0.000000
    34  H    0.000000   0.000000   0.000000   0.000000   0.000000   0.000000
    35  H    0.000000   0.000000   0.000000   0.000000   0.000000   0.000000
    36  H    0.000000   0.000000   0.000000   0.000000   0.000000   0.000000
    37  H    0.000000   0.000000   0.000000   0.000000   0.000000   0.000000
    38  H    0.000000   0.000000   0.000000   0.000000   0.000000   0.000000
    39  H    0.000000   0.000000   0.000000   0.000000   0.000000   0.000000
    40  H    0.000000   0.000000   0.000000   0.000000   0.000000   0.000000
    41  H   -0.000001   0.000000   0.000000   0.000000   0.000000   0.000000
    42  H   -0.000010   0.000000   0.000000   0.000000   0.000000   0.000000
    43  H    0.000000   0.000000   0.000000   0.000000   0.000000   0.000000
    44  H    0.000000   0.000000   0.000000   0.000000   0.000000   0.000000
    45  H    0.000000   0.000000   0.000000   0.000000   0.000000   0.000000
    46  H    0.000000   0.000000   0.000000   0.000000   0.000000   0.000000
    47  H    0.000000   0.000000   0.000000   0.000000   0.000000   0.000000
    48  H    0.000000   0.000000   0.000000   0.000000   0.000000   0.000000
    49  H    0.000000   0.000000   0.000000   0.000000   0.000000   0.000000
    50  H    0.000000   0.000000   0.000000   0.000000   0.000000   0.000000
              25         26         27         28         29         30
     1  C    0.000000   0.000000   0.000000   0.000000  -0.000004   0.000001
     2  C    0.000000   0.000000   0.000000   0.000000  -0.000011  -0.000049
     3  C    0.000000   0.000000   0.000000   0.000000  -0.003709  -0.002257
     4  C    0.000000   0.000000   0.000000   0.000000  -0.023848   0.000681
     5  N   -0.000021   0.000000  -0.000042   0.000000   0.330219  -0.096883
     6  C    0.000037   0.000000   0.000009   0.000000  -0.035748   0.002446
     7  N    0.000052   0.000000  -0.000691   0.000000  -0.005450   0.000087
     8  C    0.000001   0.000000  -0.000005   0.000000   0.000092   0.000001
     9  C    0.000000   0.000000   0.000000   0.000000  -0.000029   0.000000
    10  C    0.000000   0.000000   0.000000   0.000000   0.000001   0.000000
    11  C    0.000000   0.000000   0.000000   0.000000   0.000000   0.000000
    12  C    0.000074   0.000065   0.007595   0.000007  -0.009274  -0.000886
    13  O   -0.000329   0.000000  -0.000145   0.000000  -0.000576  -0.000019
    14  N   -0.001216  -0.001817  -0.001933  -0.000008   0.186926  -0.088564
    15  C   -0.053444   0.011145  -0.004998   0.001929   0.000286   0.016326
    16  F    0.001688  -0.000001  -0.000001  -0.000001   0.004291  -0.001163
    17  F    0.007166  -0.003216  -0.000162  -0.000001   0.005259  -0.015993
    18  C    0.182454  -0.041300  -0.028204  -0.024609   0.001665   0.000306
    19  F   -0.013886   0.000311  -0.000830  -0.000764   0.000041   0.000000
    20  O   -0.029704   0.000403   0.000631  -0.000766  -0.000017   0.000000
    21  C   -0.003975   0.002087   0.000086   0.001108  -0.000003   0.000013
    22  F    0.012436  -0.008360   0.000001  -0.000567  -0.000002   0.000000
    23  F   -0.000136  -0.000001   0.000000  -0.000001   0.000000   0.000000
    24  F   -0.000137  -0.000009   0.000000   0.000000   0.000008  -0.000002
    25  C    4.261576   0.273719   0.280208   0.291411  -0.000166  -0.000067
    26  F    0.273719   9.083844  -0.040266  -0.039633   0.000242  -0.000008
    27  F    0.280208  -0.040266   9.078492  -0.039799   0.000682   0.000001
    28  F    0.291411  -0.039633  -0.039799   9.064332   0.000001   0.000000
    29  C   -0.000166   0.000242   0.000682   0.000001   4.153327   0.595272
    30  O   -0.000067  -0.000008   0.000001   0.000000   0.595272   8.108677
    31  H    0.000000   0.000000   0.000000   0.000000   0.000000   0.000000
    32  H    0.000000   0.000000   0.000000   0.000000   0.000000   0.000000
    33  H    0.000000   0.000000   0.000000   0.000000  -0.000002  -0.000001
    34  H    0.000000   0.000000   0.000000   0.000000  -0.000015   0.000003
    35  H    0.000000   0.000000   0.000000   0.000000   0.000004  -0.000001
    36  H    0.000000   0.000000   0.000000   0.000000  -0.000202   0.000046
    37  H    0.000001   0.000000   0.000001   0.000000   0.004510   0.003242
    38  H    0.000000   0.000000   0.000000   0.000000   0.004467   0.000462
    39  H    0.000000   0.000000   0.000000   0.000000  -0.004469   0.011767
    40  H    0.000000   0.000000   0.000002   0.000000   0.002262  -0.000089
[...]
    47  H    0.000000   0.000000   0.000000   0.000000   0.000000   0.000000
    48  H    0.000000   0.000000   0.000000   0.000000   0.000000   0.000000
    49  H    0.000000   0.000000   0.000000   0.000000   0.000000   0.000000
    50  H    0.000000   0.000000   0.000000   0.000000   0.000000   0.000000
              31         32         33         34         35         36
     1  C    0.390656   0.383800   0.391791  -0.037551  -0.038264  -0.003345
     2  C   -0.035425  -0.029096  -0.035131   0.394502   0.392693  -0.036098
     3  C   -0.005709   0.004388  -0.005419  -0.040089  -0.040907   0.387356
     4  C    0.000070  -0.000145   0.000070  -0.003949  -0.003980  -0.038510
     5  N    0.000001   0.000001   0.000001   0.000048   0.000060  -0.003089
     6  C   -0.000001   0.000000   0.000000   0.000008  -0.000011   0.003298
     7  N    0.000000   0.000000   0.000000   0.000000   0.000000   0.000049
     8  C    0.000000   0.000000   0.000000   0.000000   0.000000   0.000003
     9  C    0.000000   0.000000   0.000000   0.000000   0.000000   0.000000
    10  C    0.000000   0.000000   0.000000   0.000000   0.000000   0.000000
    11  C    0.000000   0.000000   0.000000   0.000000   0.000000   0.000000
    12  C    0.000000   0.000000   0.000000   0.000000   0.000000  -0.000008
    13  O    0.000000   0.000000   0.000000   0.000000   0.000000   0.000000
    14  N    0.000000   0.000000   0.000000   0.000000   0.000000   0.000006
    15  C    0.000000   0.000000   0.000000   0.000000   0.000000   0.000000
    16  F    0.000000   0.000000   0.000000   0.000000   0.000000   0.000000
    17  F    0.000000   0.000000   0.000000   0.000000   0.000000   0.000000
    18  C    0.000000   0.000000   0.000000   0.000000   0.000000   0.000000
    19  F    0.000000   0.000000   0.000000   0.000000   0.000000   0.000000
    20  O    0.000000   0.000000   0.000000   0.000000   0.000000   0.000000
    21  C    0.000000   0.000000   0.000000   0.000000   0.000000   0.000000
    22  F    0.000000   0.000000   0.000000   0.000000   0.000000   0.000000
    23  F    0.000000   0.000000   0.000000   0.000000   0.000000   0.000000
    24  F    0.000000   0.000000   0.000000   0.000000   0.000000   0.000000
    25  C    0.000000   0.000000   0.000000   0.000000   0.000000   0.000000
    26  F    0.000000   0.000000   0.000000   0.000000   0.000000   0.000000
    27  F    0.000000   0.000000   0.000000   0.000000   0.000000   0.000000
    28  F    0.000000   0.000000   0.000000   0.000000   0.000000   0.000000
    29  C    0.000000   0.000000  -0.000002  -0.000015   0.000004  -0.000202
    30  O    0.000000   0.000000  -0.000001   0.000003  -0.000001   0.000046
    31  H    0.602871  -0.030062  -0.031672   0.005221  -0.004944   0.004624
    32  H   -0.030062   0.602433  -0.029705  -0.003198  -0.003244  -0.000005
    33  H   -0.031672  -0.029705   0.596239  -0.004910   0.005273  -0.000465
    34  H    0.005221  -0.003198  -0.004910   0.616395  -0.037182   0.005520
    35  H   -0.004944  -0.003244   0.005273  -0.037182   0.628310  -0.005580
    36  H    0.004624  -0.000005  -0.000465   0.005520  -0.005580   0.623692
    37  H   -0.000423  -0.000012   0.004444  -0.005376   0.005356  -0.037956
    38  H    0.000002   0.000004   0.000004  -0.000408   0.004242  -0.005461
    39  H    0.000006   0.000003   0.000000   0.004530  -0.000465   0.004959
    40  H    0.000000   0.000000   0.000000   0.000001   0.000003   0.000295
    41  H    0.000000   0.000000   0.000000  -0.000001   0.000003  -0.000053
    42  H    0.000000   0.000000   0.000000   0.000000   0.000000   0.000000
    43  H    0.000000   0.000000   0.000000   0.000000   0.000000   0.000000
    44  H    0.000000   0.000000   0.000000   0.000000   0.000000   0.000000
    45  H    0.000000   0.000000   0.000000   0.000000   0.000000   0.000000
    46  H    0.000000   0.000000   0.000000   0.000000   0.000000   0.000000
    47  H    0.000000   0.000000   0.000000   0.000000   0.000000   0.000000
    48  H    0.000000   0.000000   0.000000   0.000000   0.000000   0.000000
    49  H    0.000000   0.000000   0.000000   0.000000   0.000000   0.000000
    50  H    0.000000   0.000000   0.000000   0.000000   0.000000   0.000000
              37         38         39         40         41         42
     1  C   -0.003349  -0.000067  -0.000022  -0.000001   0.000003   0.000000
     2  C   -0.034357  -0.001167  -0.002372   0.000008  -0.000061   0.000000
     3  C    0.388839  -0.046984  -0.039728  -0.001630   0.002503   0.000000
     4  C   -0.033652   0.390067   0.386517  -0.003562   0.002975   0.000001
     5  N   -0.005442  -0.039930  -0.032349  -0.033523  -0.061302  -0.000208
     6  C   -0.000417  -0.005062   0.004572   0.396007   0.398313   0.003171
     7  N   -0.000016   0.000267  -0.000160  -0.032107  -0.059466  -0.033754
     8  C    0.000000  -0.000015   0.000005  -0.000729   0.000380   0.388707
     9  C    0.000000  -0.000015  -0.000002   0.000665   0.000013  -0.041338
    10  C    0.000000   0.000000   0.000000  -0.000246   0.000011  -0.001273
    11  C    0.000000   0.000000   0.000000   0.000033  -0.000001  -0.000734
    12  C    0.000004  -0.000063  -0.000100   0.001754   0.001965  -0.003394
    13  O    0.000000   0.000000   0.000000  -0.000076   0.000052   0.011699
    14  N   -0.000137  -0.000088   0.000563  -0.000212   0.001025   0.000543
    15  C   -0.000002   0.000002   0.000010   0.000013  -0.000102  -0.000004
    16  F    0.000000   0.000000   0.000000   0.000000   0.000001   0.000000
    17  F   -0.000001   0.000000   0.000002   0.000000  -0.000002   0.000000
    18  C    0.000000   0.000000   0.000000   0.000000  -0.000015   0.000004
    19  F    0.000000   0.000000   0.000000   0.000000  -0.000001  -0.000010
    20  O    0.000000   0.000000   0.000000   0.000000   0.000000   0.000000
    21  C    0.000000   0.000000   0.000000   0.000000   0.000000   0.000000
    22  F    0.000000   0.000000   0.000000   0.000000   0.000000   0.000000
    23  F    0.000000   0.000000   0.000000   0.000000   0.000000   0.000000
    24  F    0.000000   0.000000   0.000000   0.000000   0.000000   0.000000
    25  C    0.000001   0.000000   0.000000   0.000000   0.000048  -0.000001
    26  F    0.000000   0.000000   0.000000   0.000000   0.000000   0.000000
    27  F    0.000001   0.000000   0.000000   0.000002   0.001013  -0.000002
    28  F    0.000000   0.000000   0.000000   0.000000   0.000000   0.000000
    29  C    0.004510   0.004467  -0.004469   0.002262  -0.000005   0.000008
    30  O    0.003242   0.000462   0.011767  -0.000089   0.000133   0.000000
    31  H   -0.000423   0.000002   0.000006   0.000000   0.000000   0.000000
    32  H   -0.000012   0.000004   0.000003   0.000000   0.000000   0.000000
    33  H    0.004444   0.000004   0.000000   0.000000   0.000000   0.000000
    34  H   -0.005376  -0.000408   0.004530   0.000001  -0.000001   0.000000
    35  H    0.005356   0.004242  -0.000465   0.000003   0.000003   0.000000
    36  H   -0.037956  -0.005461   0.004959   0.000295  -0.000053   0.000000
    37  H    0.598221   0.005063  -0.005414   0.000014   0.000361   0.000000
    38  H    0.005063   0.598672  -0.028697   0.004858  -0.000383   0.000001
    39  H   -0.005414  -0.028697   0.557138   0.000293  -0.000348   0.000000
    40  H    0.000014   0.004858   0.000293   0.556776  -0.040312   0.000079
    41  H    0.000361  -0.000383  -0.000348  -0.040312   0.610827  -0.000123
    42  H    0.000000   0.000001   0.000000   0.000079  -0.000123   0.556338
    43  H    0.000000  -0.000003   0.000000  -0.001136   0.001863  -0.029403
    44  H    0.000000   0.000122  -0.000003   0.001877   0.000045   0.005118
    45  H    0.000000  -0.000001   0.000000  -0.000046  -0.000008  -0.005020
    46  H    0.000000   0.000000   0.000000   0.000007   0.000000  -0.000035
    47  H    0.000000   0.000000   0.000000   0.000002   0.000000   0.005052
    48  H    0.000000   0.000000   0.000000   0.000037   0.000000   0.000085
    49  H    0.000000   0.000000   0.000000  -0.000001   0.000000  -0.000015
    50  H    0.000000   0.000000   0.000000   0.000009   0.000000   0.000403
              43         44         45         46         47         48
     1  C    0.000000   0.000000   0.000000   0.000000   0.000000   0.000000
     2  C    0.000000   0.000000   0.000000   0.000000   0.000000   0.000000
     3  C    0.000001   0.000001   0.000000   0.000000   0.000000   0.000000
     4  C    0.000007  -0.000002   0.000000   0.000000   0.000000   0.000000
     5  N    0.000204  -0.000362   0.000121   0.000000   0.000000   0.000000
     6  C   -0.004690   0.001641  -0.000235   0.000003  -0.000001  -0.000012
     7  N   -0.040061  -0.001686  -0.005754  -0.000121   0.000065  -0.000013
     8  C    0.392854  -0.040918  -0.034970   0.004632  -0.007510  -0.000859
     9  C   -0.044361   0.384897   0.388029  -0.031616  -0.038790  -0.004669
    10  C   -0.001583  -0.034146  -0.030775   0.389989   0.393206  -0.037488
    11  C    0.003127  -0.007013   0.004940  -0.039342  -0.040467   0.389879
    12  C    0.004272  -0.000003   0.003447  -0.000006  -0.000008   0.000000
    13  O    0.000466   0.000010   0.002210   0.000000  -0.000004   0.000000
    14  N   -0.000107  -0.000001  -0.000065   0.000000   0.000000   0.000000
    15  C    0.000000   0.000000  -0.000001   0.000000   0.000000   0.000000
    16  F    0.000000   0.000000   0.000000   0.000000   0.000000   0.000000
    17  F    0.000000   0.000000   0.000000   0.000000   0.000000   0.000000
    18  C    0.000000   0.000000   0.000000   0.000000   0.000000   0.000000
    19  F    0.000000   0.000000   0.000000   0.000000   0.000000   0.000000
    20  O    0.000000   0.000000   0.000000   0.000000   0.000000   0.000000
    21  C    0.000000   0.000000   0.000000   0.000000   0.000000   0.000000
    22  F    0.000000   0.000000   0.000000   0.000000   0.000000   0.000000
    23  F    0.000000   0.000000   0.000000   0.000000   0.000000   0.000000
    24  F    0.000000   0.000000   0.000000   0.000000   0.000000   0.000000
    25  C    0.000000   0.000000   0.000000   0.000000   0.000000   0.000000
    26  F    0.000000   0.000000   0.000000   0.000000   0.000000   0.000000
    27  F    0.000001   0.000000   0.000000   0.000000   0.000000   0.000000
    28  F    0.000000   0.000000   0.000000   0.000000   0.000000   0.000000
    29  C    0.000014   0.000014   0.000015   0.000000   0.000000   0.000000
    30  O    0.000000   0.000000   0.000000   0.000000   0.000000   0.000000
    31  H    0.000000   0.000000   0.000000   0.000000   0.000000   0.000000
    32  H    0.000000   0.000000   0.000000   0.000000   0.000000   0.000000
    33  H    0.000000   0.000000   0.000000   0.000000   0.000000   0.000000
    34  H    0.000000   0.000000   0.000000   0.000000   0.000000   0.000000
    35  H    0.000000   0.000000   0.000000   0.000000   0.000000   0.000000
    36  H    0.000000   0.000000   0.000000   0.000000   0.000000   0.000000
    37  H    0.000000   0.000000   0.000000   0.000000   0.000000   0.000000
    38  H   -0.000003   0.000122  -0.000001   0.000000   0.000000   0.000000
    39  H    0.000000  -0.000003   0.000000   0.000000   0.000000   0.000000
    40  H   -0.001136   0.001877  -0.000046   0.000007   0.000002   0.000037
    41  H    0.001863   0.000045  -0.000008   0.000000   0.000000   0.000000
    42  H   -0.029403   0.005118  -0.005020  -0.000035   0.005052   0.000085
    43  H    0.593172  -0.005683   0.005060  -0.000095  -0.000144   0.000369
    44  H   -0.005683   0.627027  -0.035685  -0.003518   0.005577   0.005331
    45  H    0.005060  -0.035685   0.601671  -0.004620  -0.003096   0.000039
    46  H   -0.000095  -0.003518  -0.004620   0.619545  -0.034474  -0.004154
    47  H   -0.000144   0.005577  -0.003096  -0.034474   0.618069   0.005341
    48  H    0.000369   0.005331   0.000039  -0.004154   0.005341   0.603618
    49  H   -0.000111   0.000012  -0.000169  -0.004620  -0.002560  -0.029566
    50  H    0.000726  -0.000129  -0.000061   0.005244  -0.005344  -0.032567
              49         50
     1  C    0.000000   0.000000
     2  C    0.000000   0.000000
     3  C    0.000000   0.000000
     4  C    0.000000   0.000000
     5  N    0.000000   0.000000
     6  C    0.000000  -0.000001
     7  N    0.000000  -0.000023
     8  C    0.000088   0.002208
     9  C    0.004563  -0.005308
    10  C   -0.029233  -0.036001
    11  C    0.386764   0.391670
    12  C    0.000000  -0.000002
    13  O    0.000000   0.000000
    14  N    0.000000   0.000000
    15  C    0.000000   0.000000
    16  F    0.000000   0.000000
    17  F    0.000000   0.000000
    18  C    0.000000   0.000000
    19  F    0.000000   0.000000
    20  O    0.000000   0.000000
    21  C    0.000000   0.000000
    22  F    0.000000   0.000000
    23  F    0.000000   0.000000
    24  F    0.000000   0.000000
    25  C    0.000000   0.000000
    26  F    0.000000   0.000000
    27  F    0.000000   0.000000
    28  F    0.000000   0.000000
    29  C    0.000000   0.000000
    30  O    0.000000   0.000000
    31  H    0.000000   0.000000
    32  H    0.000000   0.000000
    33  H    0.000000   0.000000
    34  H    0.000000   0.000000
    35  H    0.000000   0.000000
    36  H    0.000000   0.000000
    37  H    0.000000   0.000000
    38  H    0.000000   0.000000
    39  H    0.000000   0.000000
    40  H   -0.000001   0.000009
    41  H    0.000000   0.000000
    42  H   -0.000015   0.000403
    43  H   -0.000111   0.000726
    44  H    0.000012  -0.000129
    45  H   -0.000169  -0.000061
    46  H   -0.004620   0.005244
    47  H   -0.002560  -0.005344
    48  H   -0.029566  -0.032567
    49  H    0.595139  -0.029166
    50  H   -0.029166   0.601082
 Mulliken charges:
               1
     1  C   -0.322190
     2  C   -0.182926
     3  C   -0.179628
     4  C   -0.058851
     5  N   -0.513877
     6  C    0.127902
     7  N   -0.509324
     8  C   -0.062457
     9  C   -0.174482
    10  C   -0.185783
    11  C   -0.324557
    12  C    0.785413
    13  O   -0.531239
    14  N   -0.629757
    15  C    0.760075
    16  F   -0.268463
    17  F   -0.269141
    18  C    0.423087
    19  F   -0.255790
    20  O   -0.505226
    21  C    0.983477
    22  F   -0.241198
    23  F   -0.243310
    24  F   -0.238564
    25  C    0.792213
    26  F   -0.237204
    27  F   -0.251643
    28  F   -0.252639
    29  C    0.793923
    30  O   -0.533481
    31  H    0.104787
    32  H    0.104838
    33  H    0.109483
    34  H    0.106450
    35  H    0.098634
    36  H    0.100924
    37  H    0.116499
    38  H    0.120110
    39  H    0.143763
    40  H    0.148674
    41  H    0.140649
    42  H    0.144102
    43  H    0.125241
    44  H    0.097479
    45  H    0.114973
    46  H    0.103183
    47  H    0.105086
    48  H    0.104631
    49  H    0.108875
    50  H    0.107261
 Sum of Mulliken charges =   0.00000
 Mulliken charges with hydrogens summed into heavy atoms:
               1
     1  C   -0.003083
     2  C    0.022158
     3  C    0.037795
     4  C    0.205022
     5  N   -0.513877
     6  C    0.417225
     7  N   -0.509324
     8  C    0.206886
     9  C    0.037970
    10  C    0.022487
    11  C   -0.003791
    12  C    0.785413
    13  O   -0.531239
    14  N   -0.629757
    15  C    0.760075
    16  F   -0.268463
    17  F   -0.269141
    18  C    0.423087
    19  F   -0.255790
    20  O   -0.505226
    21  C    0.983477
    22  F   -0.241198
    23  F   -0.243310
    24  F   -0.238564
    25  C    0.792213
    26  F   -0.237204
    27  F   -0.251643
    28  F   -0.252639
    29  C    0.793923
    30  O   -0.533481
 Electronic spatial extent (au):  <R**2>=          15407.0871
 Charge=              0.0000 electrons
 Dipole moment (field-independent basis, Debye):
    X=              4.2797    Y=              6.5633    Z=             -1.8118  Tot=              8.0421
 Quadrupole moment (field-independent basis, Debye-Ang):
   XX=           -176.0136   YY=           -169.3898   ZZ=           -173.6445
   XY=             -2.8727   XZ=              0.3901   YZ=              3.9211
 Traceless Quadrupole moment (field-independent basis, Debye-Ang):
   XX=             -2.9976   YY=              3.6262   ZZ=             -0.6285
   XY=             -2.8727   XZ=              0.3901   YZ=              3.9211
 Octapole moment (field-independent basis, Debye-Ang**2):
  XXX=            368.6535  YYY=            567.8302  ZZZ=             69.6378  XYY=             93.0069
  XXY=            201.6167  XXZ=             31.0825  XZZ=            103.2395  YZZ=            192.1479
  YYZ=             17.7403  XYZ=              7.0501
 Hexadecapole moment (field-independent basis, Debye-Ang**3):
 XXXX=          -6524.4626 YYYY=          -9827.0176 ZZZZ=          -1520.8236 XXXY=          -1013.0139
 XXXZ=           -396.6802 YYYX=          -1025.1457 YYYZ=           -564.6643 ZZZX=           -448.3486
 ZZZY=           -590.3595 XXYY=          -2716.8449 XXZZ=          -1320.3514 YYZZ=          -1929.3664
 XXYZ=           -207.4280 YYXZ=           -168.8553 ZZXY=           -320.7205
 N-N= 3.667571570702D+03 E-N=-1.173992845609D+04  KE= 1.857049658424D+03
 No NMR shielding tensors so no spin-rotation constants.
 Leave Link  601 at Sun Mar  3 18:02:54 2024, MaxMem=  5368709120 cpu:         3.6
 (Enter /home/k0335/k033513/app/g09/l9999.exe)
 1\1\GINC-C24U18N3\SP\RCAM-B3LYP\6-31G(d,p)\C15H20F9N3O3\K033513\03-Mar
 -2024\0\\#p CAM-B3LYP/6-31G(d,p) SCRF=(PCM,Solvent=Generic,Read) NoSym
 m out=wfn\\Title A892693590_0\\0,1\C,0,5.860426,-0.363476,-0.045062\C,
 0,4.771059,0.115901,0.900893\C,0,3.379442,-0.108836,0.311716\C,0,2.287
 471,0.37739,1.266378\N,0,0.948057,0.154558,0.732583\C,0,0.462978,1.019
 243,-0.298396\N,0,-0.964616,1.046427,-0.231729\C,0,-1.670131,2.305079,
 -0.442368\C,0,-1.782481,3.103886,0.857046\C,0,-2.608932,4.382255,0.711
 347\C,0,-1.974018,5.410914,-0.211477\C,0,-1.640259,-0.128688,0.017337\
 O,0,-2.862559,-0.157716,0.117164\N,0,-0.840077,-1.238187,0.177833\C,0,
 -1.499816,-2.528785,0.245186\F,0,-2.288173,-2.571849,1.357071\F,0,-0.5
 68767,-3.514017,0.431257\C,0,-2.330032,-2.981633,-0.996771\F,0,-3.2688
 61,-2.040267,-1.328187\O,0,-3.144985,-4.154001,-0.835693\C,0,-2.503041
 ,-5.276514,-0.294609\F,0,-1.354842,-5.521438,-0.937299\F,0,-3.311885,-
 6.341972,-0.449526\F,0,-2.278398,-5.097335,1.01416\C,0,-1.356166,-3.04
 6063,-2.180564\F,0,-0.259848,-3.798174,-1.962684\F,0,-0.900971,-1.8086
 03,-2.509644\F,0,-1.961716,-3.540772,-3.28826\C,0,0.333285,-1.079289,0
 .887583\O,0,0.818874,-1.936067,1.621264\H,0,5.817038,0.173808,-0.99783
 9\H,0,6.84746,-0.193345,0.396207\H,0,5.759475,-1.434222,-0.249162\H,0,
 4.862562,-0.417511,1.85419\H,0,4.919259,1.181813,1.109573\H,0,3.295876
 ,0.418652,-0.646361\H,0,3.236573,-1.174941,0.096289\H,0,2.399044,1.447
 574,1.475401\H,0,2.376863,-0.148068,2.224418\H,0,0.860671,2.02812,-0.1
 49002\H,0,0.771351,0.638563,-1.278372\H,0,-2.673525,2.092486,-0.828691
 \H,0,-1.1357,2.865994,-1.216514\H,0,-0.781736,3.35185,1.231654\H,0,-2.
 249755,2.47552,1.625978\H,0,-2.730576,4.832466,1.703775\H,0,-3.614245,
 4.137899,0.349065\H,0,-0.95564,5.651528,0.109581\H,0,-2.55961,6.335853
 ,-0.201947\H,0,-1.936403,5.05399,-1.244789\\Version=ES64L-G09RevD.01\H
 F=-1871.5246814\RMSD=5.931e-09\Dipole=1.6837568,2.5822033,-0.7128171\Q
 uadrupole=-2.2286742,2.6959623,-0.4672881,-2.1357863,0.2900156,2.91520
 96\PG=C01 [X(C15H20F9N3O3)]\\@

 Writing a WFN file to "A892693590/A892693590_0.wfn"


 ... UNTIL SCIENCE IS MIXED WITH EMOTION AND APPEALS TO THE HEART AND
 IMAGINATION , IT IS LIKE DEAD INORGANIC MATTER; AND WHEN IT IS SO MIXED
 AND SO TRANSFORMED IT IS LITERATURE.

                                  -- JOHN BURROUGHS
 Job cpu time:       0 days  0 hours 17 minutes 33.2 seconds.
 File lengths (MBytes):  RWF=    372 Int=      0 D2E=      0 Chk=     13 Scr=      1
 Normal termination of Gaussian 09 at Sun Mar  3 18:02:54 2024.
