 Entering Gaussian System, Link 0=g09
 Initial command:
 /home/k0335/k033513/app/g09/l1.exe "/home/k0335/k033513/app/g09/scratch/Gau-655570.inp" -scrdir="/home/k0335/k033513/app/g09/scratch/"
 Default is to use a total of  36 processors:
                               36 via shared-memory
                                1 via Linda
 Entering Link 1 = /home/k0335/k033513/app/g09/l1.exe PID=    655571.
  
 Copyright (c) 1988,1990,1992,1993,1995,1998,2003,2009,2013,
            Gaussian, Inc.  All Rights Reserved.
  
 This is part of the Gaussian(R) 09 program.  It is based on
 the Gaussian(R) 03 system (copyright 2003, Gaussian, Inc.),
 the Gaussian(R) 98 system (copyright 1998, Gaussian, Inc.),
 the Gaussian(R) 94 system (copyright 1995, Gaussian, Inc.),
 the Gaussian 92(TM) system (copyright 1992, Gaussian, Inc.),
 the Gaussian 90(TM) system (copyright 1990, Gaussian, Inc.),
 the Gaussian 88(TM) system (copyright 1988, Gaussian, Inc.),
 the Gaussian 86(TM) system (copyright 1986, Carnegie Mellon
 University), and the Gaussian 82(TM) system (copyright 1983,
 Carnegie Mellon University). Gaussian is a federally registered
 trademark of Gaussian, Inc.
  
 This software contains proprietary and confidential information,
 including trade secrets, belonging to Gaussian, Inc.
  
 This software is provided under written license and may be
 used, copied, transmitted, or stored only in accord with that
 written license.
  
 The following legend is applicable only to US Government
 contracts under FAR:
  
                    RESTRICTED RIGHTS LEGEND
  
 Use, reproduction and disclosure by the US Government is
 subject to restrictions as set forth in subparagraphs (a)
 and (c) of the Commercial Computer Software - Restricted
 Rights clause in FAR 52.227-19.
  
 Gaussian, Inc.
 340 Quinnipiac St., Bldg. 40, Wallingford CT 06492
  
  
 ---------------------------------------------------------------
 Warning -- This program may not be used in any manner that
 competes with the business of Gaussian, Inc. or will provide
 assistance to any competitor of Gaussian, Inc.  The licensee
 of this program is prohibited from giving any competitor of
 Gaussian, Inc. access to this program.  By using this program,
 the user acknowledges that Gaussian, Inc. is engaged in the
 business of creating and licensing software in the field of
 computational chemistry and represents and warrants to the
 licensee that it is not a competitor of Gaussian, Inc. and that
 it will not use this program in any manner prohibited above.
 ---------------------------------------------------------------
  

 Cite this work as:
 Gaussian 09, Revision D.01,
 M. J. Frisch, G. W. Trucks, H. B. Schlegel, G. E. Scuseria, 
 M. A. Robb, J. R. Cheeseman, G. Scalmani, V. Barone, B. Mennucci, 
 G. A. Petersson, H. Nakatsuji, M. Caricato, X. Li, H. P. Hratchian, 
 A. F. Izmaylov, J. Bloino, G. Zheng, J. L. Sonnenberg, M. Hada, 
 M. Ehara, K. Toyota, R. Fukuda, J. Hasegawa, M. Ishida, T. Nakajima, 
 Y. Honda, O. Kitao, H. Nakai, T. Vreven, J. A. Montgomery, Jr., 
 J. E. Peralta, F. Ogliaro, M. Bearpark, J. J. Heyd, E. Brothers, 
 K. N. Kudin, V. N. Staroverov, T. Keith, R. Kobayashi, J. Normand, 
 K. Raghavachari, A. Rendell, J. C. Burant, S. S. Iyengar, J. Tomasi, 
 M. Cossi, N. Rega, J. M. Millam, M. Klene, J. E. Knox, J. B. Cross, 
 V. Bakken, C. Adamo, J. Jaramillo, R. Gomperts, R. E. Stratmann, 
 O. Yazyev, A. J. Austin, R. Cammi, C. Pomelli, J. W. Ochterski, 
 R. L. Martin, K. Morokuma, V. G. Zakrzewski, G. A. Voth, 
 P. Salvador, J. J. Dannenberg, S. Dapprich, A. D. Daniels, 
 O. Farkas, J. B. Foresman, J. V. Ortiz, J. Cioslowski, 
 and D. J. Fox, Gaussian, Inc., Wallingford CT, 2013.
 
 ******************************************
 Gaussian 09:  ES64L-G09RevD.01 24-Apr-2013
                 3-Mar-2024 
 ******************************************
 %nprocshared=24
 Will use up to   24 processors via shared memory.
 %mem=40GB
 %rwf=A892693590/A892693590_p1.rwf
 %nosave
 %chk=A892693590/A892693590_p1.chk
 ----------------------------------------------------------------------
 #p CAM-B3LYP/6-31G(d,p) SCRF=(PCM,Solvent=Generic,Read) NoSymm out=wfn
 ----------------------------------------------------------------------
 1/38=1,40=2/1;
 2/12=2,15=1,17=6,18=5,40=1/2;
 3/5=1,6=6,7=101,11=2,16=1,25=1,30=1,70=2203,72=-2,74=-40/1,2,3;
 4//1;
 5/5=2,38=5/2;
 6/7=2,8=2,9=2,10=2,28=1/1;
 99/5=1,6=100,9=1/99;
 Leave Link    1 at Sun Mar  3 18:02:38 2024, MaxMem=  5368709120 cpu:         1.0
 (Enter /home/k0335/k033513/app/g09/l101.exe)
 -------------------
 Title A892693590_p1
 -------------------
 Symbolic Z-matrix:
 Charge =  1 Multiplicity = 2
 C                     5.86043  -0.36348  -0.04506 
 C                     4.77106   0.1159    0.90089 
 C                     3.37944  -0.10884   0.31172 
 C                     2.28747   0.37739   1.26638 
 N                     0.94806   0.15456   0.73258 
 C                     0.46298   1.01924  -0.2984 
 N                    -0.96462   1.04643  -0.23173 
 C                    -1.67013   2.30508  -0.44237 
 C                    -1.78248   3.10389   0.85705 
 C                    -2.60893   4.38225   0.71135 
 C                    -1.97402   5.41091  -0.21148 
 C                    -1.64026  -0.12869   0.01734 
 O                    -2.86256  -0.15772   0.11716 
 N                    -0.84008  -1.23819   0.17783 
 C                    -1.49982  -2.52879   0.24519 
 F                    -2.28817  -2.57185   1.35707 
 F                    -0.56877  -3.51402   0.43126 
 C                    -2.33003  -2.98163  -0.99677 
 F                    -3.26886  -2.04027  -1.32819 
 O                    -3.14499  -4.154    -0.83569 
 C                    -2.50304  -5.27651  -0.29461 
 F                    -1.35484  -5.52144  -0.9373 
 F                    -3.31189  -6.34197  -0.44953 
 F                    -2.2784   -5.09734   1.01416 
 C                    -1.35617  -3.04606  -2.18056 
 F                    -0.25985  -3.79817  -1.96268 
 F                    -0.90097  -1.8086   -2.50964 
 F                    -1.96172  -3.54077  -3.28826 
 C                     0.33329  -1.07929   0.88758 
 O                     0.81887  -1.93607   1.62126 
 H                     5.81704   0.17381  -0.99784 
 H                     6.84746  -0.19335   0.39621 
 H                     5.75948  -1.43422  -0.24916 
 H                     4.86256  -0.41751   1.85419 
 H                     4.91926   1.18181   1.10957 
 H                     3.29588   0.41865  -0.64636 
 H                     3.23657  -1.17494   0.09629 
 H                     2.39904   1.44757   1.4754 
 H                     2.37686  -0.14807   2.22442 
 H                     0.86067   2.02812  -0.149 
 H                     0.77135   0.63856  -1.27837 
 H                    -2.67353   2.09249  -0.82869 
 H                    -1.1357    2.86599  -1.21651 
 H                    -0.78174   3.35185   1.23165 
 H                    -2.24975   2.47552   1.62598 
 H                    -2.73058   4.83247   1.70378 
 H                    -3.61425   4.1379    0.34907 
 H                    -0.95564   5.65153   0.10958 
 H                    -2.55961   6.33585  -0.20195 
 H                    -1.9364    5.05399  -1.24479 
 
 NAtoms=     50 NQM=       50 NQMF=       0 NMMI=      0 NMMIF=      0
                NMic=       0 NMicF=      0.
                    Isotopes and Nuclear Properties:
 (Nuclear quadrupole moments (NQMom) in fm**2, nuclear magnetic moments (NMagM)
  in nuclear magnetons)

  Atom         1           2           3           4           5           6           7           8           9          10
 IAtWgt=          12          12          12          12          14          12          14          12          12          12
 AtmWgt=  12.0000000  12.0000000  12.0000000  12.0000000  14.0030740  12.0000000  14.0030740  12.0000000  12.0000000  12.0000000
 NucSpn=           0           0           0           0           2           0           2           0           0           0
 AtZEff=   0.0000000   0.0000000   0.0000000   0.0000000   0.0000000   0.0000000   0.0000000   0.0000000   0.0000000   0.0000000
 NQMom=    0.0000000   0.0000000   0.0000000   0.0000000   2.0440000   0.0000000   2.0440000   0.0000000   0.0000000   0.0000000
 NMagM=    0.0000000   0.0000000   0.0000000   0.0000000   0.4037610   0.0000000   0.4037610   0.0000000   0.0000000   0.0000000
 AtZNuc=   6.0000000   6.0000000   6.0000000   6.0000000   7.0000000   6.0000000   7.0000000   6.0000000   6.0000000   6.0000000

  Atom        11          12          13          14          15          16          17          18          19          20
 IAtWgt=          12          12          16          14          12          19          19          12          19          16
 AtmWgt=  12.0000000  12.0000000  15.9949146  14.0030740  12.0000000  18.9984033  18.9984033  12.0000000  18.9984033  15.9949146
 NucSpn=           0           0           0           2           0           1           1           0           1           0
 AtZEff=   0.0000000   0.0000000   0.0000000   0.0000000   0.0000000   0.0000000   0.0000000   0.0000000   0.0000000   0.0000000
 NQMom=    0.0000000   0.0000000   0.0000000   2.0440000   0.0000000   0.0000000   0.0000000   0.0000000   0.0000000   0.0000000
 NMagM=    0.0000000   0.0000000   0.0000000   0.4037610   0.0000000   2.6288670   2.6288670   0.0000000   2.6288670   0.0000000
 AtZNuc=   6.0000000   6.0000000   8.0000000   7.0000000   6.0000000   9.0000000   9.0000000   6.0000000   9.0000000   8.0000000

  Atom        21          22          23          24          25          26          27          28          29          30
 IAtWgt=          12          19          19          19          12          19          19          19          12          16
 AtmWgt=  12.0000000  18.9984033  18.9984033  18.9984033  12.0000000  18.9984033  18.9984033  18.9984033  12.0000000  15.9949146
 NucSpn=           0           1           1           1           0           1           1           1           0           0
 AtZEff=   0.0000000   0.0000000   0.0000000   0.0000000   0.0000000   0.0000000   0.0000000   0.0000000   0.0000000   0.0000000
 NQMom=    0.0000000   0.0000000   0.0000000   0.0000000   0.0000000   0.0000000   0.0000000   0.0000000   0.0000000   0.0000000
 NMagM=    0.0000000   2.6288670   2.6288670   2.6288670   0.0000000   2.6288670   2.6288670   2.6288670   0.0000000   0.0000000
 AtZNuc=   6.0000000   9.0000000   9.0000000   9.0000000   6.0000000   9.0000000   9.0000000   9.0000000   6.0000000   8.0000000

  Atom        31          32          33          34          35          36          37          38          39          40
 IAtWgt=           1           1           1           1           1           1           1           1           1           1
 AtmWgt=   1.0078250   1.0078250   1.0078250   1.0078250   1.0078250   1.0078250   1.0078250   1.0078250   1.0078250   1.0078250
 NucSpn=           1           1           1           1           1           1           1           1           1           1
 AtZEff=   0.0000000   0.0000000   0.0000000   0.0000000   0.0000000   0.0000000   0.0000000   0.0000000   0.0000000   0.0000000
 NQMom=    0.0000000   0.0000000   0.0000000   0.0000000   0.0000000   0.0000000   0.0000000   0.0000000   0.0000000   0.0000000
 NMagM=    2.7928460   2.7928460   2.7928460   2.7928460   2.7928460   2.7928460   2.7928460   2.7928460   2.7928460   2.7928460
 AtZNuc=   1.0000000   1.0000000   1.0000000   1.0000000   1.0000000   1.0000000   1.0000000   1.0000000   1.0000000   1.0000000

  Atom        41          42          43          44          45          46          47          48          49          50
 IAtWgt=           1           1           1           1           1           1           1           1           1           1
 AtmWgt=   1.0078250   1.0078250   1.0078250   1.0078250   1.0078250   1.0078250   1.0078250   1.0078250   1.0078250   1.0078250
 NucSpn=           1           1           1           1           1           1           1           1           1           1
 AtZEff=   0.0000000   0.0000000   0.0000000   0.0000000   0.0000000   0.0000000   0.0000000   0.0000000   0.0000000   0.0000000
 NQMom=    0.0000000   0.0000000   0.0000000   0.0000000   0.0000000   0.0000000   0.0000000   0.0000000   0.0000000   0.0000000
 NMagM=    2.7928460   2.7928460   2.7928460   2.7928460   2.7928460   2.7928460   2.7928460   2.7928460   2.7928460   2.7928460
 AtZNuc=   1.0000000   1.0000000   1.0000000   1.0000000   1.0000000   1.0000000   1.0000000   1.0000000   1.0000000   1.0000000
 Leave Link  101 at Sun Mar  3 18:02:38 2024, MaxMem=  5368709120 cpu:         1.1
 (Enter /home/k0335/k033513/app/g09/l202.exe)
                          Input orientation:                          
 ---------------------------------------------------------------------
 Center     Atomic      Atomic             Coordinates (Angstroms)
 Number     Number       Type             X           Y           Z
 ---------------------------------------------------------------------
      1          6           0        5.860426   -0.363476   -0.045062
      2          6           0        4.771059    0.115901    0.900893
      3          6           0        3.379442   -0.108836    0.311716
      4          6           0        2.287471    0.377390    1.266378
      5          7           0        0.948057    0.154558    0.732583
      6          6           0        0.462978    1.019243   -0.298396
      7          7           0       -0.964616    1.046427   -0.231729
      8          6           0       -1.670131    2.305079   -0.442368
      9          6           0       -1.782481    3.103886    0.857046
     10          6           0       -2.608932    4.382255    0.711347
     11          6           0       -1.974018    5.410914   -0.211477
     12          6           0       -1.640259   -0.128688    0.017337
     13          8           0       -2.862559   -0.157716    0.117164
     14          7           0       -0.840077   -1.238187    0.177833
     15          6           0       -1.499816   -2.528785    0.245186
     16          9           0       -2.288173   -2.571849    1.357071
     17          9           0       -0.568767   -3.514017    0.431257
     18          6           0       -2.330032   -2.981633   -0.996771
     19          9           0       -3.268861   -2.040267   -1.328187
     20          8           0       -3.144985   -4.154001   -0.835693
     21          6           0       -2.503041   -5.276514   -0.294609
     22          9           0       -1.354842   -5.521438   -0.937299
     23          9           0       -3.311885   -6.341972   -0.449526
     24          9           0       -2.278398   -5.097335    1.014160
     25          6           0       -1.356166   -3.046063   -2.180564
     26          9           0       -0.259848   -3.798174   -1.962684
     27          9           0       -0.900971   -1.808603   -2.509644
     28          9           0       -1.961716   -3.540772   -3.288260
     29          6           0        0.333285   -1.079289    0.887583
     30          8           0        0.818874   -1.936067    1.621264
     31          1           0        5.817038    0.173808   -0.997839
     32          1           0        6.847460   -0.193345    0.396207
     33          1           0        5.759475   -1.434222   -0.249162
     34          1           0        4.862562   -0.417511    1.854190
     35          1           0        4.919259    1.181813    1.109573
     36          1           0        3.295876    0.418652   -0.646361
     37          1           0        3.236573   -1.174941    0.096289
     38          1           0        2.399044    1.447574    1.475401
     39          1           0        2.376863   -0.148068    2.224418
     40          1           0        0.860671    2.028120   -0.149002
     41          1           0        0.771351    0.638563   -1.278372
     42          1           0       -2.673525    2.092486   -0.828691
     43          1           0       -1.135700    2.865994   -1.216514
     44          1           0       -0.781736    3.351850    1.231654
     45          1           0       -2.249755    2.475520    1.625978
     46          1           0       -2.730576    4.832466    1.703775
     47          1           0       -3.614245    4.137899    0.349065
     48          1           0       -0.955640    5.651528    0.109581
     49          1           0       -2.559610    6.335853   -0.201947
     50          1           0       -1.936403    5.053990   -1.244789
 ---------------------------------------------------------------------
                    Distance matrix (angstroms):
                    1          2          3          4          5
     1  C    0.000000
     2  C    1.520314   0.000000
     3  C    2.519407   1.527820   0.000000
     4  C    3.877469   2.523919   1.529770   0.000000
     5  N    5.000446   3.826900   2.481560   1.458979   0.000000
     6  C    5.577503   4.562223   3.185995   2.487824   1.430349
     7  N    6.971648   5.920024   4.527781   3.642527   2.320269
     8  C    7.999270   6.934391   5.647461   4.722119   3.586106
     9  C    8.440997   7.202698   6.104459   4.915877   4.021177
    10  C    9.737769   8.526545   7.496014   6.349942   5.525038
    11  C    9.733950   8.646999   7.707198   6.758750   6.087614
    12  C    7.504618   6.476534   5.028365   4.152503   2.700219
    13  O    8.726919   7.678621   6.245223   5.303757   3.872602
    14  N    6.761031   5.817320   4.370091   3.684641   2.333433
    15  C    7.677628   6.837265   5.446810   4.881826   3.664692
    16  F    8.558186   7.567355   6.267460   5.444516   4.277437
    17  F    7.175466   6.473840   5.215161   4.898834   3.981205
    18  C    8.651248   7.976299   6.524047   6.142167   4.855124
    19  F    9.370268   8.617318   7.114748   6.591635   5.181354
    20  O    9.802582   9.160325   7.761962   7.379958   6.146232
    21  C    9.702979   9.133449   7.853415   7.573131   6.516268
    22  F    8.914076   8.525562   7.298612   7.274531   6.348920
    23  F   10.956153  10.433683   9.176346   8.913301   7.858078
    24  F    9.474800   8.768438   7.575599   7.133259   6.170225
    25  C    7.989734   7.552237   6.104486   6.072687   4.903044
    26  F    7.275450   6.987852   5.659376   5.860973   4.934328
    27  F    7.340235   6.892561   5.401038   5.403986   4.217220
    28  F    9.044305   8.732154   7.298355   7.358825   6.187845
    29  C    5.650797   4.595921   3.248457   2.466626   1.387209
    30  O    5.537773   4.511017   3.407374   2.763115   2.275336
    31  H    1.094687   2.168550   2.781492   4.198329   5.167369
    32  H    1.094486   2.159116   3.470076   4.677225   5.919218
    33  H    1.094689   2.168519   2.781329   4.199239   5.161181
    34  H    2.146115   1.096210   2.161979   2.758348   4.112009
    35  H    2.146368   1.096211   2.161802   2.756446   4.119201
    36  H    2.747763   2.159124   1.096877   2.162673   2.735596
    37  H    2.750102   2.160627   1.096996   2.163246   2.722084
    38  H    4.192001   2.780264   2.176638   1.096099   2.080633
    39  H    4.163190   2.748376   2.159892   1.096329   2.087736
    40  H    5.543292   4.477722   3.335124   2.600763   2.072453
    41  H    5.331399   4.584761   3.144698   2.973648   2.075916
    42  H    8.914827   7.894313   6.541006   5.651756   4.394200
    43  H    7.794072   6.851002   5.618862   4.906730   3.936103
    44  H    7.716992   6.435394   5.489812   4.274184   3.669323
    45  H    8.753703   7.442135   6.331985   5.011774   4.051052
    46  H   10.191249   8.897479   7.980389   6.724568   6.029791
    47  H   10.497005   9.316346   8.182164   7.057843   6.068665
    48  H    9.091916   8.004025   7.212183   6.298609   5.850545
    49  H   10.761163   9.676919   8.778964   7.820067   7.168367
    50  H    9.569683   8.601088   7.572033   6.783632   6.019514
                    6          7          8          9         10
     6  C    0.000000
     7  N    1.429408   0.000000
     8  C    2.494846   1.458192   0.000000
     9  C    3.274579   2.467280   1.529442   0.000000
    10  C    4.665411   3.836785   2.554812   1.529208   0.000000
    11  C    5.023274   4.479738   3.129196   2.549668   1.520809
    12  C    2.416824   1.378195   2.476983   3.342884   4.665682
    13  O    3.552058   2.274615   2.792905   3.514547   4.585708
    14  N    2.649667   2.324373   3.691663   4.494781   5.916321
    15  C    4.091032   3.646372   4.885487   5.672852   7.014978
    16  F    4.817193   4.167494   5.234920   5.720115   6.991381
    17  F    4.706096   4.625354   5.986493   6.741739   8.160382
    18  C    4.929061   4.321449   5.356506   6.385138   7.564542
    19  F    4.934338   4.004928   4.714090   5.783328   6.770819
    20  O    6.329971   5.671264   6.636988   7.576193   8.691856
    21  C    6.959442   6.507710   7.628638   8.489795   9.711590
    22  F    6.818590   6.617171   7.848486   8.820361  10.117999
    23  F    8.274051   7.755356   8.801528   9.657662  10.809755
    24  F    6.830115   6.405004   7.568831   8.217703   9.490183
    25  C    4.835137   4.549697   5.635124   6.872459   8.069230
    26  F    5.147799   5.192597   6.445926   7.609712   8.921214
    27  F    3.840142   3.652964   4.667721   6.020316   7.184611
    28  F    5.967593   5.601695   6.508310   7.833720   8.898882
    29  C    2.413960   2.730581   4.151673   4.687894   6.206139
    30  O    3.541979   3.938234   5.333014   5.722954   7.245619
    31  H    5.465340   6.880350   7.804394   8.353361   9.572320
    32  H    6.535630   7.934726   8.915979   9.249864  10.509937
    33  H    5.837362   7.167100   8.319780   8.871258  10.236416
    34  H    5.104334   6.360045   7.440615   7.586246   8.953606
    35  H    4.676243   6.036340   6.862238   6.976493   8.189937
    36  H    2.916693   4.326409   5.316149   5.938049   7.240185
    37  H    3.558518   4.763618   6.039572   6.639128   8.088922
    38  H    2.660484   3.793339   4.579447   4.539921   5.854567
    39  H    3.374931   4.315664   5.432112   5.453903   6.904445
    40  H    1.094674   2.074184   2.562758   3.025832   4.280222
    41  H    1.095611   2.067703   3.071972   4.142449   5.422225
    42  H    3.357188   2.090687   1.096011   2.158379   2.760241
    43  H    2.609445   2.076029   1.095237   2.185079   2.861138
    44  H    3.054738   2.736770   2.165023   1.096954   2.161273
    45  H    3.630823   2.673007   2.154778   1.097472   2.145040
    46  H    5.361730   4.604224   3.481115   2.145652   1.096540
    47  H    5.173874   4.112792   2.786606   2.163929   1.096181
    48  H    4.861788   4.617741   3.466102   2.780800   2.169459
    49  H    6.116509   5.524755   4.134745   3.488697   2.157101
    50  H    4.788723   4.246319   2.875985   2.871290   2.174854
                   11         12         13         14         15
    11  C    0.000000
    12  C    5.554362   0.000000
    13  O    5.648641   1.226713   0.000000
    14  N    6.756325   1.377330   2.293803   0.000000
    15  C    7.966946   2.414975   2.737778   1.451012   0.000000
    16  F    8.141470   2.860719   2.774045   2.294829   1.363690
    17  F    9.057717   3.574895   4.077363   2.305913   1.368268
    18  C    8.436722   3.105398   3.082036   2.576677   1.561021
    19  F    7.644852   2.849020   2.407928   2.968235   2.417369
    20  O    9.656522   4.381210   4.118009   3.852507   2.552686
    21  C   10.700836   5.228940   5.147903   4.392805   2.974534
    22  F   10.973902   5.484026   5.670504   4.455866   3.221065
    23  F   11.831183   6.451139   6.226400   5.705439   4.278623
    24  F   10.583862   5.107674   5.054274   4.202527   2.791946
    25  C    8.705142   3.663680   3.986392   3.016090   2.484447
    26  F    9.529554   4.392169   4.934856   3.387036   2.832589
    27  F    7.652086   3.123187   3.670610   2.748020   2.909702
    28  F    9.465697   4.761578   4.884004   4.309730   3.704418
    29  C    6.975265   2.357084   3.414127   1.380497   2.423628
    30  O    8.070769   3.447686   4.356351   2.307086   2.760657
    31  H    9.420520   7.532155   8.757200   6.906020   7.898447
    32  H   10.468786   8.496417   9.714093   7.761289   8.669147
    33  H   10.327837   7.518744   8.723711   6.616256   7.357972
    34  H    9.218261   6.763441   7.922263   6.000314   6.893927
    35  H    8.194372   6.777733   7.958386   6.316209   7.464598
    36  H    7.272110   5.010539   6.232294   4.531062   5.699202
    37  H    8.403479   4.988424   6.183413   4.077956   4.928331
    38  H    6.138183   4.574551   5.666236   4.403283   5.703154
    39  H    7.467666   4.583541   5.647314   3.965548   4.961231
    40  H    4.413917   3.306681   4.325640   3.697043   5.147103
    41  H    5.608088   2.843132   3.973271   2.870440   4.184677
    42  H    3.447061   2.591721   2.448221   3.932938   4.887428
    43  H    2.861729   3.277970   3.728748   4.344640   5.601142
    44  H    2.782788   3.784940   4.229535   4.709818   6.005883
    45  H    3.474019   3.121075   3.096123   4.227994   5.245194
    46  H    2.138965   5.352188   5.238003   6.538755   7.604622
    47  H    2.150609   4.712794   4.367049   6.052076   6.994732
    48  H    1.094563   5.821349   6.114222   6.891022   8.199514
    49  H    1.094770   6.533267   6.508460   7.776060   8.938954
    50  H    1.093866   5.342360   5.465763   6.543491   7.740098
                   16         17         18         19         20
    16  F    0.000000
    17  F    2.168218   0.000000
    18  C    2.389612   2.329110   0.000000
    19  F    2.907738   3.543740   1.370185   0.000000
    20  O    2.836467   2.941367   1.436851   2.173883   0.000000
    21  C    3.176386   2.715639   2.406126   3.482536   1.401749
    22  F    3.851664   2.553546   2.721239   3.991843   2.254954
    23  F    4.304138   4.037054   3.543359   4.390736   2.228048
    24  F    2.548679   2.401980   2.919367   3.976590   2.250068
    25  C    3.688953   2.767777   1.534253   2.323053   2.497214
    26  F    4.079062   2.430459   2.425982   3.542172   3.117810
    27  F    4.178320   3.415801   2.388933   2.656391   3.652205
    28  F    4.756520   3.971880   2.387303   2.793211   2.791283
    29  C    3.052900   2.636253   3.776633   4.336885   4.951959
    30  O    3.182414   2.414869   4.226455   5.041795   5.164111
    31  H    8.875735   7.511383   8.736793   9.357608   9.953596
    32  H    9.488958   8.125793   9.692332  10.427109  10.819119
    33  H    8.284855   6.695907   8.270038   9.112762   9.329021
    34  H    7.484739   6.411897   8.150835   8.881492   9.236755
    35  H    8.130087   7.254610   8.621090   9.130705   9.863417
    36  H    6.643677   5.618061   6.582975   7.043220   7.901246
    37  H    5.836415   4.479296   5.953655   6.715549   7.104060
    38  H    6.175740   5.874991   6.934960   7.221516   8.213103
    39  H    5.328186   4.818898   6.368674   6.933658   7.476803
    40  H    5.774356   5.752849   5.999744   5.915681   7.398341
    41  H    5.158778   4.686434   4.775321   4.847878   6.205024
    42  H    5.165469   6.119669   5.088509   4.205184   6.264258
    43  H    6.125493   6.613706   5.972391   5.351097   7.311811
    44  H    6.113533   6.915643   6.890291   6.466336   8.136134
    45  H    5.054673   6.334638   6.055227   5.491630   7.128240
    46  H    7.425618   8.715303   8.277290   7.531069   9.347578
    47  H    6.913412   8.236110   7.358547   6.411100   8.389247
    48  H    8.423527   9.179344   8.811608   8.159772  10.091342
    49  H    9.047175  10.068979   9.354143   8.481205  10.525271
    50  H    8.065162   8.836872   8.049080   7.218787   9.295974
                   21         22         23         24         25
    21  C    0.000000
    22  F    1.338432   0.000000
    23  F    1.346636   2.177433   0.000000
    24  F    1.339942   2.200230   2.181649   0.000000
    25  C    3.138003   2.770053   4.205276   3.906980   0.000000
    26  F    3.162258   2.284746   4.251527   3.824129   1.347240
    27  F    4.415814   4.057513   5.532452   5.013009   1.358971
    28  F    3.502539   3.133425   4.210474   4.586283   1.355883
    29  C    5.201829   5.090447   6.539951   4.793913   4.016960
    30  O    5.085693   4.911840   6.384617   4.467134   4.518494
    31  H    9.971171   9.158349  11.229126   9.867582   7.951180
    32  H   10.665257   9.871402  11.905174  10.378452   9.059648
    33  H    9.112324   8.233612  10.315800   8.923104   7.547231
    34  H    9.081815   8.514611  10.355092   8.579027   7.865183
    35  H    9.938423   9.406785  11.260100   9.552124   8.251115
    36  H    8.135483   7.549735   9.455543   8.015982   5.999960
    37  H    7.065329   6.406359   8.359332   6.829536   5.456960
    38  H    8.507452   8.275259   9.848710   8.057732   6.903655
    39  H    7.513982   7.266029   8.824754   6.901552   6.460476
    40  H    8.043223   7.907322   9.357295   7.872662   5.898215
    41  H    6.832098   6.525538   8.129432   6.888918   4.349339
    42  H    7.390296   7.728037   8.467075   7.432749   5.474274
    43  H    8.307826   8.394939   9.492665   8.348429   5.994198
    44  H    8.929784   9.152489  10.158652   8.583474   7.273685
    45  H    7.990422   8.445271   9.120526   7.597583   6.765807
    46  H   10.307123  10.773637  11.394854   9.963984   8.890912
    47  H    9.501593  10.003121  10.514602   9.355019   7.944007
    48  H   11.044452  11.229002  12.235544  10.867659   9.002959
    49  H   11.612874  11.941003  12.702538  11.501121   9.663516
    50  H   10.389573  10.595869  11.506187  10.405249   8.174546
                   26         27         28         29         30
    26  F    0.000000
    27  F    2.160694   0.000000
    28  F    2.172501   2.175278   0.000000
    29  C    3.983486   3.687335   5.363170   0.000000
    30  O    4.180403   4.476440   5.866020   1.228069   0.000000
    31  H    7.323668   7.165693   8.919257   5.932674   6.024360
    32  H    8.311016   8.431560  10.118406   6.592482   6.393879
    33  H    6.690043   7.043542   8.560985   5.555331   5.306588
    34  H    7.227482   7.361827   9.097820   4.678315   4.325700
    35  H    7.814230   7.477727   9.433534   5.117912   5.176501
    36  H    5.670758   5.103529   7.092175   3.657015   4.101507
    37  H    4.831737   4.930688   6.638866   3.010710   2.958062
    38  H    6.812342   6.113376   8.160410   3.316312   3.737277
    39  H    6.148768   5.992739   7.792517   2.613525   2.447052
    40  H    6.204088   4.836988   6.988088   3.317926   4.341701
    41  H    4.606114   3.209566   5.382950   2.798978   3.877998
    42  H    6.466193   4.602830   6.187871   4.695387   5.867569
    43  H    6.762767   4.855836   6.783884   4.706421   5.910426
    44  H    7.848503   6.375092   8.326477   4.582210   5.538575
    45  H    7.496497   6.105432   7.773575   4.455782   5.373882
    46  H    9.697183   8.074909   9.778685   6.708372   7.643196
    47  H    8.920618   7.134070   8.655806   6.564453   7.626539
    48  H    9.699241   7.906762   9.851695   6.897138   7.937612
    49  H   10.539810   8.626048  10.364870   8.033695   9.119370
    50  H    9.038087   7.054584   8.834384   6.878634   8.041561
                   31         32         33         34         35
    31  H    0.000000
    32  H    1.771986   0.000000
    33  H    1.774709   1.772001   0.000000
    34  H    3.065086   2.473011   2.502448   0.000000
    35  H    2.502652   2.473441   3.065251   1.765080   0.000000
    36  H    2.557292   3.751698   3.108091   3.066990   2.510197
    37  H    3.110473   3.753929   2.559609   2.511525   3.067974
    38  H    4.407049   4.862682   4.750933   3.113028   2.560458
    39  H    4.724547   4.830180   4.383475   2.527522   3.078188
    40  H    5.359531   6.408885   5.999677   5.099904   4.332711
    41  H    5.074806   6.357310   5.498826   5.259871   4.816902
    42  H    8.706296   9.867855   9.159095   8.383946   7.889015
    43  H    7.458971   8.700073   8.183585   7.495984   6.701468
    44  H    7.656005   8.454053   8.239341   6.815698   6.101255
    45  H    8.789508   9.560047   9.107689   7.681586   7.303089
    46  H   10.102649  10.895287  10.731557   9.232585   8.497077
    47  H   10.318782  11.322949  10.921219   9.740299   9.062975
    48  H    8.780715   9.753618   9.768793   8.586523   7.449347
    49  H   10.429404  11.466524  11.383474  10.243254   9.177020
    50  H    9.164770  10.362608  10.115073   9.261043   8.218082
                   36         37         38         39         40
    36  H    0.000000
    37  H    1.759143   0.000000
    38  H    2.522868   3.079122   0.000000
    39  H    3.067104   2.514459   1.762836   0.000000
    40  H    2.961077   3.995582   2.311344   3.559179   0.000000
    41  H    2.611709   3.354968   3.299568   3.932683   1.792853
    42  H    6.202315   6.816225   5.608539   6.312525   3.599536
    43  H    5.094450   6.096669   4.663983   5.767381   2.413941
    44  H    5.362603   6.158547   3.715244   4.817858   2.521105
    45  H    6.336265   6.765028   4.763473   5.352283   3.609082
    46  H    7.830901   8.618574   6.150012   7.152812   4.918759
    47  H    7.910338   8.673170   6.683272   7.601305   4.972335
    48  H    6.784529   8.010962   5.549108   7.015228   4.061396
    49  H    8.336515   9.491929   7.162194   8.502779   5.500699
    50  H    7.015783   8.207177   6.261132   7.596122   4.263832
                   41         42         43         44         45
    41  H    0.000000
    42  H    3.766069   0.000000
    43  H    2.932937   1.764547   0.000000
    44  H    4.009269   3.067554   2.520887   0.000000
    45  H    4.575668   2.520257   3.077881   1.754573   0.000000
    46  H    6.224590   3.731505   3.865065   2.492609   2.406748
    47  H    5.841862   2.540822   3.195617   3.069193   2.501168
    48  H    5.480760   4.061805   3.090332   2.564724   3.749829
    49  H    6.686786   4.290915   3.885458   3.757702   4.282463
    50  H    5.179677   3.080096   2.330075   3.219209   3.871434
                   46         47         48         49         50
    46  H    0.000000
    47  H    1.760265   0.000000
    48  H    2.522442   3.068649   0.000000
    49  H    2.433347   2.499374   1.771460   0.000000
    50  H    3.061668   2.488925   1.775744   1.766091   0.000000
 Symmetry turned off by external request.
 Stoichiometry    C15H20F9N3O3(1+,2)
 Framework group  C1[X(C15H20F9N3O3)]
 Deg. of freedom   144
 Full point group                 C1      NOp   1
 Rotational constants (GHZ):      0.1914376      0.1064306      0.0816914
 Leave Link  202 at Sun Mar  3 18:02:39 2024, MaxMem=  5368709120 cpu:         0.1
 (Enter /home/k0335/k033513/app/g09/l301.exe)
 Standard basis: 6-31G(d,p) (6D, 7F)
 Ernie: Thresh=  0.10000D-02 Tol=  0.10000D-05 Strict=F.
   550 basis functions,   980 primitive gaussians,   550 cartesian basis functions
   118 alpha electrons      117 beta electrons
       nuclear repulsion energy      3667.5715707020 Hartrees.
 IExCor=20419 DFT=T Ex+Corr=CAM-B3LYP ExCW=0 ScaHFX=  1.000000
 ScaDFX=  1.000000  1.000000  1.000000  0.810000 ScalE2=  1.000000  1.000000
 IRadAn=      0 IRanWt=     -1 IRanGd=            0 ICorTp=0 IEmpDi=  4
  HFx wShort=  0.000000 wLong=  0.330000 cFull=  0.190000 cShort=  0.000000 cLong=  0.460000
  DFx wShort=  0.000000 wLong=  0.330000 cFull=  0.190000 cShort=  0.000000 cLong=  0.460000
 NAtoms=   50 NActive=   50 NUniq=   50 SFac= 1.00D+00 NAtFMM=   60 NAOKFM=F Big=F
 Integral buffers will be    131072 words long.
 Raffenetti 2 integral format.
 Two-electron integral symmetry is turned off.
 Using the following non-standard input for PCM:
 eps=4.9
 --- end of non-standard input.
 ------------------------------------------------------------------------------
 Polarizable Continuum Model (PCM)
 =================================
 Model                : PCM (using non-symmetric T matrix).
 Atomic radii         : UFF (Universal Force Field).
 Polarization charges : Total charges.
 Charge compensation  : None.
 Solution method      : On-the-fly selection.
 Cavity type          : Scaled VdW (van der Waals Surface) (Alpha=1.100).
 Cavity algorithm     : GePol (No added spheres)
                        Default sphere list used, NSphG=   50.
                        Lebedev-Laikov grids with approx.  5.0 points / Ang**2.
                        Smoothing algorithm: Karplus/York (Gamma=1.0000).
                        Polarization charges: spherical gaussians, with
                                              point-specific exponents (IZeta= 3).
                        Self-potential: point-specific (ISelfS= 7).
                        Self-field    : sphere-specific E.n sum rule (ISelfD= 2).
 Solvent              : Generic,
                        Eps                           =   4.900000
                        Eps(infinity)                 =   0.000000
                        RSolv                         =   0.000000 Ang.
                        Molar volume                  =   0.000000 cm**3/mol
                        Thermal expansion coefficient =   0.000000 K**-1
                        Absolute temperature          = 298.150000 K
                        Numeral density               =   0.000000 Ang**-3
                        Hydrogen bond acidity         =   0.000000
                        Hydrogen bond basicity        =   0.000000
                        Surface tension at interface  =   0.000000 (cal/mol)*Ang**-2
                        Carbon aromaticity            =   0.000000
                        Electronegative halogenicity  =   0.000000
 ------------------------------------------------------------------------------
 GePol: Number of generator spheres                  =      50
 GePol: Total number of spheres                      =      50
 GePol: Number of exposed spheres                    =      49 ( 98.00%)
 GePol: Number of points                             =    3563
 GePol: Average weight of points                     =       0.13
 GePol: Minimum weight of points                     =   0.63D-09
 GePol: Maximum weight of points                     =    0.20577
 GePol: Number of points with low weight             =     197
 GePol: Fraction of low-weight points (<1% of avg)   =       5.53%
 GePol: Cavity surface area                          =    460.363 Ang**2
 GePol: Cavity volume                                =    511.152 Ang**3
 Leave Link  301 at Sun Mar  3 18:02:39 2024, MaxMem=  5368709120 cpu:         0.9
 (Enter /home/k0335/k033513/app/g09/l302.exe)
 NPDir=0 NMtPBC=     1 NCelOv=     1 NCel=       1 NClECP=     1 NCelD=      1
         NCelK=      1 NCelE2=     1 NClLst=     1 CellRange=     0.0.
 One-electron integrals computed using PRISM.
 NBasis=   550 RedAO= T EigKep=  1.27D-03  NBF=   550
 NBsUse=   550 1.00D-06 EigRej= -1.00D+00 NBFU=   550
 Precomputing XC quadrature grid using
 IXCGrd= 4 IRadAn=           0 IRanWt=          -1 IRanGd=           0 AccXCQ= 0.00D+00.
 Generated NRdTot=       0 NPtTot=           0 NUsed=           0 NTot=          32
 NSgBfM=   531   531   531   531   531 MxSgAt=    50 MxSgA2=    50.
 Leave Link  302 at Sun Mar  3 18:02:39 2024, MaxMem=  5368709120 cpu:        11.6
 (Enter /home/k0335/k033513/app/g09/l303.exe)
 DipDrv:  MaxL=1.
 Leave Link  303 at Sun Mar  3 18:02:39 2024, MaxMem=  5368709120 cpu:         1.0
 (Enter /home/k0335/k033513/app/g09/l401.exe)
 ExpMin= 1.61D-01 ExpMax= 7.00D+03 ExpMxC= 1.05D+03 IAcc=1 IRadAn=         1 AccDes= 0.00D+00
 Harris functional with IExCor=20419 and IRadAn=       1 diagonalized for initial guess.
 HarFok:  IExCor=20419 AccDes= 0.00D+00 IRadAn=         1 IDoV= 1 UseB2=F ITyADJ=14
 ICtDFT=  3500011 ScaDFX=  1.000000  1.000000  1.000000  1.000000
 FoFCou: FMM=F IPFlag=           0 FMFlag=      100000 FMFlg1=           0
         NFxFlg=           0 DoJE=T BraDBF=F KetDBF=T FulRan=T
         wScrn=  0.000000 ICntrl=     500 IOpCl=  0 I1Cent=   200000004 NGrid=           0
         NMat0=    1 NMatS0=      1 NMatT0=    0 NMatD0=    1 NMtDS0=    0 NMtDT0=    0
 Symmetry not used in FoFCou.
 Harris En= -1810.09054981511    
 JPrj=0 DoOrth=F DoCkMO=F.
 Initial guess <Sx>= 0.0000 <Sy>= 0.0000 <Sz>= 0.5000 <S**2>= 0.7500 S= 0.5000
 Leave Link  401 at Sun Mar  3 18:02:40 2024, MaxMem=  5368709120 cpu:        14.3
 (Enter /home/k0335/k033513/app/g09/l502.exe)
 UHF open shell SCF:
 Using DIIS extrapolation, IDIIS=  1040.
 Two-electron integral symmetry not used.
 IVT=      942650 IEndB=      942650 NGot=  5368709120 MDV=  5368086161
 LenX=  5368086161 LenY=  5367783111
 Requested convergence on RMS density matrix=1.00D-08 within 128 cycles.
 Requested convergence on MAX density matrix=1.00D-06.
 Requested convergence on             energy=1.00D-06.
 No special actions if energy rises.
 Fock matrices will be formed incrementally for  20 cycles.

 Cycle   1  Pass 1  IDiag  1:
 FoFJK:  IHMeth= 1 ICntrl=       0 DoSepK=T KAlg= 0 I1Cent=   0 FoldK=F
 IRaf=         1 NMat=   1 IRICut=       1 DoRegI=T DoRafI=F ISym2E= 0.
 FoFCou: FMM=F IPFlag=           0 FMFlag=      100000 FMFlg1=           0
         NFxFlg=           0 DoJE=T BraDBF=F KetDBF=F FulRan=T
         wScrn=  0.000000 ICntrl=     500 IOpCl=  0 I1Cent=           0 NGrid=           0
         NMat0=    1 NMatS0=      1 NMatT0=    0 NMatD0=    1 NMtDS0=    0 NMtDT0=    0
 Symmetry not used in FoFCou.
 Inv3:  Mode=1 IEnd=    38084907.
 Iteration    1 A*A^-1 deviation from unit magnitude is 7.77D-15 for   1178.
 Iteration    1 A*A^-1 deviation from orthogonality  is 1.32D-14 for   3559    820.
 Iteration    1 A^-1*A deviation from unit magnitude is 1.13D-14 for    281.
 Iteration    1 A^-1*A deviation from orthogonality  is 1.50D-13 for   3559   3542.
 E= -1870.43087790687    
 DIIS: error= 5.98D-02 at cycle   1 NSaved=   1.
 NSaved= 1 IEnMin= 1 EnMin= -1870.43087790687     IErMin= 1 ErrMin= 5.98D-02
 ErrMax= 5.98D-02  0.00D+00 EMaxC= 1.00D-01 BMatC= 6.81D+00 BMatP= 6.81D+00
 IDIUse=3 WtCom= 4.02D-01 WtEn= 5.98D-01
 Coeff-Com:  0.100D+01
 Coeff-En:   0.100D+01
 Coeff:      0.100D+01
 Gap=     0.622 Goal=   None    Shift=    0.000
 Gap=    -0.015 Goal=   None    Shift=    0.000
 GapD=   -0.015 DampG=0.250 DampE=0.500 DampFc=0.2500 IDamp=-1.
 Damping current iteration by 2.50D-01
 RMSDP=3.24D-03 MaxDP=1.51D-01              OVMax= 5.83D-01

 Cycle   2  Pass 1  IDiag  1:
 RMSU=  8.09D-04    CP:  1.00D+00
 E= -1870.68825703915     Delta-E=       -0.257379132284 Rises=F Damp=T
 DIIS: error= 4.68D-02 at cycle   2 NSaved=   2.
 NSaved= 2 IEnMin= 2 EnMin= -1870.68825703915     IErMin= 2 ErrMin= 4.68D-02
 ErrMax= 4.68D-02  0.00D+00 EMaxC= 1.00D-01 BMatC= 2.83D+00 BMatP= 6.81D+00
 IDIUse=3 WtCom= 5.32D-01 WtEn= 4.68D-01
 Coeff-Com: -0.145D+01 0.245D+01
 Coeff-En:   0.000D+00 0.100D+01
 Coeff:     -0.774D+00 0.177D+01
 Gap=     0.399 Goal=   None    Shift=    0.000
 Gap=     0.024 Goal=   None    Shift=    0.000
 RMSDP=1.81D-03 MaxDP=6.87D-02 DE=-2.57D-01 OVMax= 4.58D-01

 Cycle   3  Pass 1  IDiag  1:
 RMSU=  1.22D-03    CP:  9.98D-01  2.65D+00
 E= -1871.17673130436     Delta-E=       -0.488474265208 Rises=F Damp=F
 DIIS: error= 5.16D-03 at cycle   3 NSaved=   3.
 NSaved= 3 IEnMin= 3 EnMin= -1871.17673130436     IErMin= 3 ErrMin= 5.16D-03
 ErrMax= 5.16D-03  0.00D+00 EMaxC= 1.00D-01 BMatC= 2.69D-01 BMatP= 2.83D+00
 IDIUse=3 WtCom= 9.48D-01 WtEn= 5.16D-02
 Coeff-Com: -0.380D+00 0.697D+00 0.683D+00
 Coeff-En:   0.000D+00 0.000D+00 0.100D+01
 Coeff:     -0.360D+00 0.661D+00 0.699D+00
 Gap=     0.448 Goal=   None    Shift=    0.000
 Gap=     0.073 Goal=   None    Shift=    0.000
 RMSDP=6.81D-04 MaxDP=4.22D-02 DE=-4.88D-01 OVMax= 8.09D-02

 Cycle   4  Pass 1  IDiag  1:
 RMSU=  6.65D-04    CP:  9.98D-01  2.68D+00  8.81D-01
 E= -1871.21822041683     Delta-E=       -0.041489112469 Rises=F Damp=F
 DIIS: error= 3.32D-03 at cycle   4 NSaved=   4.
 NSaved= 4 IEnMin= 4 EnMin= -1871.21822041683     IErMin= 4 ErrMin= 3.32D-03
 ErrMax= 3.32D-03  0.00D+00 EMaxC= 1.00D-01 BMatC= 9.46D-02 BMatP= 2.69D-01
 IDIUse=3 WtCom= 9.67D-01 WtEn= 3.32D-02
 Coeff-Com:  0.822D-02 0.991D-02 0.367D+00 0.614D+00
 Coeff-En:   0.000D+00 0.000D+00 0.182D+00 0.818D+00
 Coeff:      0.795D-02 0.958D-02 0.361D+00 0.621D+00
 Gap=     0.389 Goal=   None    Shift=    0.000
 Gap=     0.106 Goal=   None    Shift=    0.000
 RMSDP=3.11D-04 MaxDP=2.50D-02 DE=-4.15D-02 OVMax= 6.00D-02

 Cycle   5  Pass 1  IDiag  1:
 RMSU=  2.45D-04    CP:  9.96D-01  2.67D+00  9.74D-01  7.70D-01
 E= -1871.23863224406     Delta-E=       -0.020411827232 Rises=F Damp=F
 DIIS: error= 1.08D-03 at cycle   5 NSaved=   5.
 NSaved= 5 IEnMin= 5 EnMin= -1871.23863224406     IErMin= 5 ErrMin= 1.08D-03
 ErrMax= 1.08D-03  0.00D+00 EMaxC= 1.00D-01 BMatC= 9.04D-03 BMatP= 9.46D-02
 IDIUse=3 WtCom= 9.89D-01 WtEn= 1.08D-02
 Coeff-Com:  0.166D-02-0.151D-02 0.108D+00 0.292D+00 0.600D+00
 Coeff-En:   0.000D+00 0.000D+00 0.000D+00 0.000D+00 0.100D+01
 Coeff:      0.164D-02-0.150D-02 0.107D+00 0.289D+00 0.605D+00
 Gap=     0.371 Goal=   None    Shift=    0.000
 Gap=     0.107 Goal=   None    Shift=    0.000
 RMSDP=1.11D-04 MaxDP=8.92D-03 DE=-2.04D-02 OVMax= 3.01D-02

 Cycle   6  Pass 1  IDiag  1:
 RMSU=  9.91D-05    CP:  9.96D-01  2.68D+00  9.73D-01  8.36D-01  1.07D+00
 E= -1871.24171397967     Delta-E=       -0.003081735604 Rises=F Damp=F
 DIIS: error= 4.98D-04 at cycle   6 NSaved=   6.
 NSaved= 6 IEnMin= 6 EnMin= -1871.24171397967     IErMin= 6 ErrMin= 4.98D-04
 ErrMax= 4.98D-04  0.00D+00 EMaxC= 1.00D-01 BMatC= 1.24D-03 BMatP= 9.04D-03
 IDIUse=3 WtCom= 9.95D-01 WtEn= 4.98D-03
 Coeff-Com: -0.172D-01 0.205D-01-0.616D-01-0.631D-01 0.169D+00 0.952D+00
 Coeff-En:   0.000D+00 0.000D+00 0.000D+00 0.000D+00 0.000D+00 0.100D+01
 Coeff:     -0.171D-01 0.204D-01-0.613D-01-0.628D-01 0.169D+00 0.952D+00
 Gap=     0.372 Goal=   None    Shift=    0.000
 Gap=     0.112 Goal=   None    Shift=    0.000
 RMSDP=1.01D-04 MaxDP=6.03D-03 DE=-3.08D-03 OVMax= 3.94D-02

 Cycle   7  Pass 1  IDiag  1:
 RMSU=  4.18D-05    CP:  9.96D-01  2.69D+00  9.75D-01  8.81D-01  1.39D+00
                    CP:  1.38D+00
 E= -1871.24305657462     Delta-E=       -0.001342594954 Rises=F Damp=F
 DIIS: error= 3.34D-04 at cycle   7 NSaved=   7.
 NSaved= 7 IEnMin= 7 EnMin= -1871.24305657462     IErMin= 7 ErrMin= 3.34D-04
 ErrMax= 3.34D-04  0.00D+00 EMaxC= 1.00D-01 BMatC= 3.28D-04 BMatP= 1.24D-03
 IDIUse=3 WtCom= 9.97D-01 WtEn= 3.34D-03
 Coeff-Com: -0.159D-01 0.214D-01-0.547D-01-0.925D-01-0.294D-01 0.393D+00
 Coeff-Com:  0.779D+00
 Coeff-En:   0.000D+00 0.000D+00 0.000D+00 0.000D+00 0.000D+00 0.000D+00
 Coeff-En:   0.100D+01
 Coeff:     -0.159D-01 0.213D-01-0.545D-01-0.922D-01-0.293D-01 0.391D+00
 Coeff:      0.779D+00
 Gap=     0.372 Goal=   None    Shift=    0.000
 Gap=     0.115 Goal=   None    Shift=    0.000
 RMSDP=5.66D-05 MaxDP=4.45D-03 DE=-1.34D-03 OVMax= 2.52D-02

 Cycle   8  Pass 1  IDiag  1:
 RMSU=  2.47D-05    CP:  9.96D-01  2.70D+00  9.69D-01  8.91D-01  1.55D+00
                    CP:  1.66D+00  1.36D+00
 E= -1871.24349090239     Delta-E=       -0.000434327767 Rises=F Damp=F
 DIIS: error= 2.47D-04 at cycle   8 NSaved=   8.
 NSaved= 8 IEnMin= 8 EnMin= -1871.24349090239     IErMin= 8 ErrMin= 2.47D-04
 ErrMax= 2.47D-04  0.00D+00 EMaxC= 1.00D-01 BMatC= 1.11D-04 BMatP= 3.28D-04
 IDIUse=3 WtCom= 9.98D-01 WtEn= 2.47D-03
 Coeff-Com: -0.706D-03 0.146D-02 0.140D-02-0.718D-02-0.313D-01-0.184D+00
 Coeff-Com:  0.289D+00 0.932D+00
 Coeff-En:   0.000D+00 0.000D+00 0.000D+00 0.000D+00 0.000D+00 0.000D+00
 Coeff-En:   0.000D+00 0.100D+01
 Coeff:     -0.704D-03 0.146D-02 0.140D-02-0.716D-02-0.312D-01-0.184D+00
 Coeff:      0.288D+00 0.932D+00
 Gap=     0.371 Goal=   None    Shift=    0.000
 Gap=     0.115 Goal=   None    Shift=    0.000
 RMSDP=4.14D-05 MaxDP=3.55D-03 DE=-4.34D-04 OVMax= 1.85D-02

 Cycle   9  Pass 1  IDiag  1:
 RMSU=  1.33D-05    CP:  9.96D-01  2.70D+00  9.65D-01  8.97D-01  1.64D+00
                    CP:  1.84D+00  1.93D+00  1.48D+00
 E= -1871.24368070811     Delta-E=       -0.000189805721 Rises=F Damp=F
 DIIS: error= 1.59D-04 at cycle   9 NSaved=   9.
 NSaved= 9 IEnMin= 9 EnMin= -1871.24368070811     IErMin= 9 ErrMin= 1.59D-04
 ErrMax= 1.59D-04  0.00D+00 EMaxC= 1.00D-01 BMatC= 3.68D-05 BMatP= 1.11D-04
 IDIUse=3 WtCom= 9.98D-01 WtEn= 1.59D-03
 Coeff-Com:  0.569D-02-0.748D-02 0.182D-01 0.245D-01 0.533D-02-0.207D+00
 Coeff-Com: -0.765D-01 0.373D+00 0.864D+00
 Coeff-En:   0.000D+00 0.000D+00 0.000D+00 0.000D+00 0.000D+00 0.000D+00
 Coeff-En:   0.000D+00 0.000D+00 0.100D+01
 Coeff:      0.568D-02-0.746D-02 0.182D-01 0.245D-01 0.532D-02-0.207D+00
 Coeff:     -0.764D-01 0.373D+00 0.864D+00
 Gap=     0.371 Goal=   None    Shift=    0.000
 Gap=     0.116 Goal=   None    Shift=    0.000
 RMSDP=2.76D-05 MaxDP=2.59D-03 DE=-1.90D-04 OVMax= 1.15D-02

 Cycle  10  Pass 1  IDiag  1:
 RMSU=  8.61D-06    CP:  9.96D-01  2.70D+00  9.62D-01  8.97D-01  1.68D+00
                    CP:  1.93D+00  2.29D+00  2.03D+00  1.56D+00
 E= -1871.24376314646     Delta-E=       -0.000082438351 Rises=F Damp=F
 DIIS: error= 1.16D-04 at cycle  10 NSaved=  10.
 NSaved=10 IEnMin=10 EnMin= -1871.24376314646     IErMin=10 ErrMin= 1.16D-04
 ErrMax= 1.16D-04  0.00D+00 EMaxC= 1.00D-01 BMatC= 2.03D-05 BMatP= 3.68D-05
 IDIUse=3 WtCom= 9.99D-01 WtEn= 1.16D-03
 Coeff-Com:  0.364D-02-0.498D-02 0.706D-02 0.103D-01 0.204D-01-0.124D-01
 Coeff-Com: -0.107D+00-0.217D+00 0.392D+00 0.908D+00
 Coeff-En:   0.000D+00 0.000D+00 0.000D+00 0.000D+00 0.000D+00 0.000D+00
 Coeff-En:   0.000D+00 0.000D+00 0.000D+00 0.100D+01
 Coeff:      0.364D-02-0.497D-02 0.705D-02 0.103D-01 0.203D-01-0.124D-01
 Coeff:     -0.107D+00-0.217D+00 0.391D+00 0.908D+00
 Gap=     0.370 Goal=   None    Shift=    0.000
 Gap=     0.115 Goal=   None    Shift=    0.000
 RMSDP=2.03D-05 MaxDP=1.81D-03 DE=-8.24D-05 OVMax= 7.69D-03

 Cycle  11  Pass 1  IDiag  1:
 RMSU=  4.23D-06    CP:  9.96D-01  2.70D+00  9.60D-01  8.95D-01  1.71D+00
                    CP:  1.97D+00  2.54D+00  2.42D+00  2.31D+00  1.64D+00
 E= -1871.24380807187     Delta-E=       -0.000044925416 Rises=F Damp=F
 DIIS: error= 8.86D-05 at cycle  11 NSaved=  11.
 NSaved=11 IEnMin=11 EnMin= -1871.24380807187     IErMin=11 ErrMin= 8.86D-05
 ErrMax= 8.86D-05  0.00D+00 EMaxC= 1.00D-01 BMatC= 8.13D-06 BMatP= 2.03D-05
 IDIUse=1 WtCom= 1.00D+00 WtEn= 0.00D+00
 Coeff-Com:  0.881D-04-0.232D-03-0.413D-02-0.713D-02 0.101D-01 0.856D-01
 Coeff-Com: -0.733D-02-0.330D+00-0.125D+00 0.224D+00 0.115D+01
 Coeff:      0.881D-04-0.232D-03-0.413D-02-0.713D-02 0.101D-01 0.856D-01
 Coeff:     -0.733D-02-0.330D+00-0.125D+00 0.224D+00 0.115D+01
 Gap=     0.370 Goal=   None    Shift=    0.000
 Gap=     0.115 Goal=   None    Shift=    0.000
 RMSDP=2.30D-05 MaxDP=2.17D-03 DE=-4.49D-05 OVMax= 8.03D-03

 Cycle  12  Pass 1  IDiag  1:
 RMSU=  4.88D-06    CP:  9.96D-01  2.70D+00  9.57D-01  8.93D-01  1.73D+00
                    CP:  2.02D+00  2.78D+00  2.86D+00  3.00D+00  2.78D+00
                    CP:  1.88D+00
 E= -1871.24384172069     Delta-E=       -0.000033648817 Rises=F Damp=F
 DIIS: error= 6.39D-05 at cycle  12 NSaved=  12.
 NSaved=12 IEnMin=12 EnMin= -1871.24384172069     IErMin=12 ErrMin= 6.39D-05
 ErrMax= 6.39D-05  0.00D+00 EMaxC= 1.00D-01 BMatC= 9.48D-06 BMatP= 8.13D-06
 IDIUse=1 WtCom= 1.00D+00 WtEn= 0.00D+00
 Coeff-Com: -0.568D-03 0.732D-03-0.348D-02-0.666D-02-0.140D-02 0.312D-01
 Coeff-Com:  0.487D-01-0.986D-01-0.857D-01-0.511D+00 0.902D+00 0.725D+00
 Coeff:     -0.568D-03 0.732D-03-0.348D-02-0.666D-02-0.140D-02 0.312D-01
 Coeff:      0.487D-01-0.986D-01-0.857D-01-0.511D+00 0.902D+00 0.725D+00
 Gap=     0.369 Goal=   None    Shift=    0.000
 Gap=     0.115 Goal=   None    Shift=    0.000
 RMSDP=1.35D-05 MaxDP=1.28D-03 DE=-3.36D-05 OVMax= 4.97D-03

 Cycle  13  Pass 1  IDiag  1:
 RMSU=  7.15D-06    CP:  9.96D-01  2.70D+00  9.55D-01  8.92D-01  1.75D+00
                    CP:  2.04D+00  2.90D+00  3.00D+00  3.00D+00  3.00D+00
                    CP:  2.90D+00  1.96D+00
 E= -1871.24385677938     Delta-E=       -0.000015058692 Rises=F Damp=F
 DIIS: error= 7.41D-05 at cycle  13 NSaved=  13.
 NSaved=13 IEnMin=13 EnMin= -1871.24385677938     IErMin=12 ErrMin= 6.39D-05
 ErrMax= 7.41D-05  0.00D+00 EMaxC= 1.00D-01 BMatC= 6.47D-06 BMatP= 8.13D-06
 IDIUse=1 WtCom= 1.00D+00 WtEn= 0.00D+00
 Coeff-Com:  0.425D-04-0.433D-04-0.108D-04-0.108D-02-0.272D-02-0.161D-01
 Coeff-Com:  0.400D-01 0.119D-01 0.118D+00-0.591D+00 0.453D+00-0.219D+00
 Coeff-Com:  0.121D+01
 Coeff:      0.425D-04-0.433D-04-0.108D-04-0.108D-02-0.272D-02-0.161D-01
 Coeff:      0.400D-01 0.119D-01 0.118D+00-0.591D+00 0.453D+00-0.219D+00
 Coeff:      0.121D+01
 Gap=     0.369 Goal=   None    Shift=    0.000
 Gap=     0.115 Goal=   None    Shift=    0.000
 RMSDP=1.31D-05 MaxDP=1.78D-03 DE=-1.51D-05 OVMax= 6.88D-03

 Cycle  14  Pass 1  IDiag  1:
 RMSU=  6.25D-06    CP:  9.96D-01  2.70D+00  9.54D-01  8.91D-01  1.75D+00
                    CP:  2.05D+00  2.98D+00  3.00D+00  3.00D+00  3.00D+00
                    CP:  3.00D+00  3.00D+00  2.13D+00
 E= -1871.24386933601     Delta-E=       -0.000012556627 Rises=F Damp=F
 DIIS: error= 7.08D-05 at cycle  14 NSaved=  14.
 NSaved=14 IEnMin=14 EnMin= -1871.24386933601     IErMin=12 ErrMin= 6.39D-05
 ErrMax= 7.08D-05  0.00D+00 EMaxC= 1.00D-01 BMatC= 9.18D-06 BMatP= 6.47D-06
 IDIUse=1 WtCom= 1.00D+00 WtEn= 0.00D+00
 Coeff-Com:  0.143D-03-0.182D-03 0.186D-03-0.686D-03-0.207D-02-0.155D-01
 Coeff-Com:  0.346D-01 0.263D-04 0.133D+00-0.533D+00 0.442D+00-0.375D+00
 Coeff-Com:  0.118D+01 0.137D+00
 Coeff:      0.143D-03-0.182D-03 0.186D-03-0.686D-03-0.207D-02-0.155D-01
 Coeff:      0.346D-01 0.263D-04 0.133D+00-0.533D+00 0.442D+00-0.375D+00
 Coeff:      0.118D+01 0.137D+00
 Gap=     0.368 Goal=   None    Shift=    0.000
 Gap=     0.115 Goal=   None    Shift=    0.000
 RMSDP=1.78D-06 MaxDP=2.49D-04 DE=-1.26D-05 OVMax= 1.06D-03

 Cycle  15  Pass 1  IDiag  1:
 RMSU=  8.54D-07    CP:  9.96D-01  2.70D+00  9.54D-01  8.91D-01  1.75D+00
                    CP:  2.05D+00  2.99D+00  3.00D+00  3.00D+00  3.00D+00
                    CP:  3.00D+00  3.00D+00  2.26D+00  1.19D+00
 E= -1871.24387117635     Delta-E=       -0.000001840338 Rises=F Damp=F
 DIIS: error= 7.21D-05 at cycle  15 NSaved=  15.
 NSaved=15 IEnMin=15 EnMin= -1871.24387117635     IErMin=12 ErrMin= 6.39D-05
 ErrMax= 7.21D-05  0.00D+00 EMaxC= 1.00D-01 BMatC= 9.16D-06 BMatP= 6.47D-06
 IDIUse=1 WtCom= 1.00D+00 WtEn= 0.00D+00
 Coeff-Com:  0.140D-03-0.173D-03 0.371D-03-0.572D-03-0.287D-02-0.213D-01
 Coeff-Com:  0.382D-01 0.239D-01 0.137D+00-0.591D+00 0.400D+00-0.314D+00
 Coeff-Com:  0.131D+01 0.177D+01-0.175D+01
 Coeff:      0.140D-03-0.173D-03 0.371D-03-0.572D-03-0.287D-02-0.213D-01
 Coeff:      0.382D-01 0.239D-01 0.137D+00-0.591D+00 0.400D+00-0.314D+00
 Coeff:      0.131D+01 0.177D+01-0.175D+01
 Gap=     0.369 Goal=   None    Shift=    0.000
 Gap=     0.115 Goal=   None    Shift=    0.000
 RMSDP=3.53D-06 MaxDP=5.11D-04 DE=-1.84D-06 OVMax= 2.20D-03

 Cycle  16  Pass 1  IDiag  1:
 RMSU=  4.54D-07    CP:  9.96D-01  2.70D+00  9.54D-01  8.91D-01  1.75D+00
                    CP:  2.05D+00  2.98D+00  3.00D+00  3.00D+00  3.00D+00
                    CP:  3.00D+00  3.00D+00  2.05D+00  7.94D-01 -1.23D+00
 E= -1871.24386764744     Delta-E=        0.000003528912 Rises=F Damp=F
 DIIS: error= 7.08D-05 at cycle  16 NSaved=  16.
 NSaved=16 IEnMin=15 EnMin= -1871.24387117635     IErMin=12 ErrMin= 6.39D-05
 ErrMax= 7.08D-05  0.00D+00 EMaxC= 1.00D-01 BMatC= 8.69D-06 BMatP= 6.47D-06
 IDIUse=1 WtCom= 1.00D+00 WtEn= 0.00D+00
 Large coefficients: NSaved= 16 BigCof=   22.98 CofMax=   10.00 Det=-8.35D-10
 Inversion failed.  Reducing to 15 matrices.
 Large coefficients: NSaved= 15 BigCof=   20.63 CofMax=   10.00 Det=-8.99D-10
 Inversion failed.  Reducing to 14 matrices.
 Large coefficients: NSaved= 14 BigCof=   19.88 CofMax=   10.00 Det=-9.26D-10
 Inversion failed.  Reducing to 13 matrices.
 Large coefficients: NSaved= 13 BigCof=   19.15 CofMax=   10.00 Det=-9.88D-10
 Inversion failed.  Reducing to 12 matrices.
 Large coefficients: NSaved= 12 BigCof=   16.46 CofMax=   10.00 Det=-1.07D-09
 Inversion failed.  Reducing to 11 matrices.
 Large coefficients: NSaved= 11 BigCof=   16.14 CofMax=   10.00 Det=-1.07D-09
 Inversion failed.  Reducing to 10 matrices.
 Large coefficients: NSaved= 10 BigCof=   13.99 CofMax=   10.00 Det=-1.15D-09
 Inversion failed.  Reducing to  9 matrices.
 Large coefficients: NSaved=  9 BigCof=   14.10 CofMax=   10.00 Det=-1.15D-09
 Inversion failed.  Reducing to  8 matrices.
 Large coefficients: NSaved=  8 BigCof=   17.59 CofMax=   10.00 Det=-1.42D-09
 Inversion failed.  Reducing to  7 matrices.
 Large coefficients: NSaved=  7 BigCof=   16.52 CofMax=   10.00 Det=-1.42D-09
 Inversion failed.  Reducing to  6 matrices.
 Large coefficients: NSaved=  6 BigCof=   23.01 CofMax=   10.00 Det=-1.57D-09
 Inversion failed.  Reducing to  5 matrices.
 Large coefficients: NSaved=  5 BigCof=   30.52 CofMax=   10.00 Det=-2.96D-09
 Inversion failed.  Reducing to  4 matrices.
 Large coefficients: NSaved=  4 BigCof=   25.58 CofMax=   10.00 Det=-3.18D-09
 Inversion failed.  Reducing to  3 matrices.
 Large coefficients: NSaved=  3 BigCof=   27.69 CofMax=   10.00 Det=-3.23D-09
 Inversion failed.  Reducing to  2 matrices.
 Large coefficients: NSaved=  2 BigCof=   13.11 CofMax=   10.00 Det=-1.83D-08
 Coeff-Com: -0.121D+02 0.131D+02
 Coeff:     -0.121D+02 0.131D+02
 Gap=     0.371 Goal=   None    Shift=    0.000
 Gap=     0.115 Goal=   None    Shift=    0.000
 RMSDP=3.80D-05 MaxDP=5.76D-03 DE= 3.53D-06 OVMax= 2.42D-02

 Cycle  17  Pass 1  IDiag  1:
 RMSU=  1.60D-05    CP:  9.96D-01  2.70D+00  9.56D-01  8.90D-01  1.76D+00
                    CP:  2.06D+00  2.96D+00  2.98D+00  3.00D+00  2.34D+00
                    CP:  1.35D+00 -1.65D+00  3.71D-01 -1.46D+00 -3.00D+00
                    CP:  3.00D+00
 E= -1871.24383436640     Delta-E=        0.000033281040 Rises=F Damp=F
 DIIS: error= 8.29D-05 at cycle  17 NSaved=   3.
 NSaved= 3 IEnMin= 1 EnMin= -1871.24387117635     IErMin= 2 ErrMin= 7.08D-05
 ErrMax= 8.29D-05  0.00D+00 EMaxC= 1.00D-01 BMatC= 5.97D-06 BMatP= 8.69D-06
 IDIUse=1 WtCom= 1.00D+00 WtEn= 0.00D+00
 Large coefficients: NSaved=  3 BigCof=   10.46 CofMax=   10.00 Det=-1.79D-08
 Inversion failed.  Reducing to  2 matrices.
 Coeff-Com:  0.423D+00 0.577D+00
 Coeff:      0.423D+00 0.577D+00
 Gap=     0.370 Goal=   None    Shift=    0.000
 Gap=     0.115 Goal=   None    Shift=    0.000
 RMSDP=2.28D-05 MaxDP=3.51D-03 DE= 3.33D-05 OVMax= 1.45D-02

 Cycle  18  Pass 1  IDiag  1:
 RMSU=  2.00D-06    CP:  9.96D-01  2.70D+00  9.55D-01  8.91D-01  1.76D+00
                    CP:  2.06D+00  2.98D+00  3.00D+00  3.00D+00  3.00D+00
                    CP:  2.83D+00  1.24D+00  1.23D+00 -4.76D-01 -2.99D+00
                    CP:  3.00D+00  3.33D-01
 E= -1871.24385362782     Delta-E=       -0.000019261426 Rises=F Damp=F
 DIIS: error= 7.66D-05 at cycle  18 NSaved=   3.
 NSaved= 3 IEnMin= 1 EnMin= -1871.24386764744     IErMin= 1 ErrMin= 7.08D-05
 ErrMax= 7.66D-05  0.00D+00 EMaxC= 1.00D-01 BMatC= 5.90D-06 BMatP= 5.97D-06
 IDIUse=1 WtCom= 1.00D+00 WtEn= 0.00D+00
 Coeff-Com: -0.212D+00 0.521D+00 0.691D+00
 Coeff:     -0.212D+00 0.521D+00 0.691D+00
 Gap=     0.370 Goal=   None    Shift=    0.000
 Gap=     0.115 Goal=   None    Shift=    0.000
 RMSDP=8.55D-06 MaxDP=1.08D-03 DE=-1.93D-05 OVMax= 5.03D-03

 Cycle  19  Pass 1  IDiag  1:
 RMSU=  1.17D-06    CP:  9.96D-01  2.70D+00  9.55D-01  8.91D-01  1.76D+00
                    CP:  2.06D+00  2.97D+00  3.00D+00  3.00D+00  3.00D+00
                    CP:  2.17D+00  2.40D-01  7.53D-01 -8.69D-01 -3.00D+00
                    CP:  3.00D+00  6.25D-01  8.25D-01
 E= -1871.24384608371     Delta-E=        0.000007544108 Rises=F Damp=F
 DIIS: error= 5.68D-05 at cycle  19 NSaved=   4.
 NSaved= 4 IEnMin= 1 EnMin= -1871.24386764744     IErMin= 4 ErrMin= 5.68D-05
 ErrMax= 5.68D-05  0.00D+00 EMaxC= 1.00D-01 BMatC= 7.14D-06 BMatP= 5.90D-06
 IDIUse=1 WtCom= 1.00D+00 WtEn= 0.00D+00
 Coeff-Com: -0.320D+01 0.272D+00 0.894D+00 0.304D+01
 Coeff:     -0.320D+01 0.272D+00 0.894D+00 0.304D+01
 Gap=     0.375 Goal=   None    Shift=    0.000
 Gap=     0.115 Goal=   None    Shift=    0.000
 RMSDP=6.92D-05 MaxDP=1.00D-02 DE= 7.54D-06 OVMax= 4.31D-02

 Cycle  20  Pass 1  IDiag  1:
 RMSU=  3.03D-05    CP:  9.96D-01  2.70D+00  9.58D-01  8.89D-01  1.76D+00
                    CP:  2.08D+00  2.94D+00  2.69D+00  3.00D+00  2.16D-01
                    CP: -2.83D+00 -3.00D+00 -6.82D-01 -3.00D+00 -3.00D+00
                    CP:  3.00D+00  2.47D+00 -3.00D+00  3.00D+00
 E= -1871.24380510041     Delta-E=        0.000040983302 Rises=F Damp=F
 DIIS: error= 2.72D-05 at cycle  20 NSaved=   5.
 NSaved= 5 IEnMin= 1 EnMin= -1871.24386764744     IErMin= 5 ErrMin= 2.72D-05
 ErrMax= 2.72D-05  0.00D+00 EMaxC= 1.00D-01 BMatC= 1.35D-06 BMatP= 5.90D-06
 IDIUse=1 WtCom= 1.00D+00 WtEn= 0.00D+00
 Coeff-Com: -0.286D+01 0.863D-01 0.549D+00 0.262D+01 0.613D+00
 Coeff:     -0.286D+01 0.863D-01 0.549D+00 0.262D+01 0.613D+00
 Gap=     0.376 Goal=   None    Shift=    0.000
 Gap=     0.115 Goal=   None    Shift=    0.000
 RMSDP=3.64D-05 MaxDP=5.35D-03 DE= 4.10D-05 OVMax= 2.26D-02

 Cycle  21  Pass 1  IDiag  1:
 Restarting incremental Fock formation.
 E= -1871.24379695009     Delta-E=        0.000008150318 Rises=F Damp=F
 DIIS: error= 9.26D-06 at cycle  21 NSaved=   6.
 NSaved= 6 IEnMin= 1 EnMin= -1871.24386764744     IErMin= 6 ErrMin= 9.26D-06
 ErrMax= 9.26D-06  0.00D+00 EMaxC= 1.00D-01 BMatC= 1.34D-07 BMatP= 1.35D-06
 IDIUse=1 WtCom= 1.00D+00 WtEn= 0.00D+00
 Coeff-Com: -0.135D+01 0.233D-01 0.214D+00 0.130D+01 0.187D+00 0.628D+00
 Coeff:     -0.135D+01 0.233D-01 0.214D+00 0.130D+01 0.187D+00 0.628D+00
 Gap=     0.377 Goal=   None    Shift=    0.000
 Gap=     0.115 Goal=   None    Shift=    0.000
 RMSDP=3.47D-06 MaxDP=5.06D-04 DE= 8.15D-06 OVMax= 2.09D-03

 Cycle  22  Pass 1  IDiag  1:
 RMSU=  3.47D-06    CP:  1.00D+00
 E= -1871.24379672756     Delta-E=        0.000000222531 Rises=F Damp=F
 DIIS: error= 4.95D-06 at cycle  22 NSaved=   7.
 NSaved= 7 IEnMin= 1 EnMin= -1871.24386764744     IErMin= 7 ErrMin= 4.95D-06
 ErrMax= 4.95D-06  0.00D+00 EMaxC= 1.00D-01 BMatC= 6.16D-08 BMatP= 1.34D-07
 IDIUse=1 WtCom= 1.00D+00 WtEn= 0.00D+00
 Coeff-Com: -0.140D+00 0.740D-02 0.154D-01 0.156D+00-0.159D+00-0.238D+00
 Coeff-Com:  0.136D+01
 Coeff:     -0.140D+00 0.740D-02 0.154D-01 0.156D+00-0.159D+00-0.238D+00
 Coeff:      0.136D+01
 Gap=     0.377 Goal=   None    Shift=    0.000
 Gap=     0.115 Goal=   None    Shift=    0.000
 RMSDP=6.11D-06 MaxDP=9.22D-04 DE= 2.23D-07 OVMax= 3.75D-03

 Cycle  23  Pass 1  IDiag  1:
 RMSU=  4.39D-07    CP:  1.00D+00  2.75D+00
 E= -1871.24379649948     Delta-E=        0.000000228089 Rises=F Damp=F
 DIIS: error= 2.00D-06 at cycle  23 NSaved=   8.
 NSaved= 8 IEnMin= 1 EnMin= -1871.24386764744     IErMin= 8 ErrMin= 2.00D-06
 ErrMax= 2.00D-06  0.00D+00 EMaxC= 1.00D-01 BMatC= 2.45D-08 BMatP= 6.16D-08
 IDIUse=1 WtCom= 1.00D+00 WtEn= 0.00D+00
 Coeff-Com: -0.612D-01 0.180D-01 0.341D-01 0.270D-01-0.610D-01-0.491D+00
 Coeff-Com:  0.618D+00 0.917D+00
 Coeff:     -0.612D-01 0.180D-01 0.341D-01 0.270D-01-0.610D-01-0.491D+00
 Coeff:      0.618D+00 0.917D+00
 Gap=     0.377 Goal=   None    Shift=    0.000
 Gap=     0.115 Goal=   None    Shift=    0.000
 RMSDP=3.11D-06 MaxDP=4.69D-04 DE= 2.28D-07 OVMax= 1.93D-03

 Cycle  24  Pass 1  IDiag  1:
 RMSU=  2.26D-06    CP:  1.00D+00  3.00D+00  1.43D+00
 E= -1871.24379648604     Delta-E=        0.000000013436 Rises=F Damp=F
 DIIS: error= 1.35D-06 at cycle  24 NSaved=   9.
 NSaved= 9 IEnMin= 1 EnMin= -1871.24386764744     IErMin= 9 ErrMin= 1.35D-06
 ErrMax= 1.35D-06  0.00D+00 EMaxC= 1.00D-01 BMatC= 8.83D-09 BMatP= 2.45D-08
 IDIUse=1 WtCom= 1.00D+00 WtEn= 0.00D+00
 Coeff-Com:  0.580D-01 0.101D-01 0.645D-02-0.638D-01-0.405D-01-0.233D+00
 Coeff-Com:  0.883D-01 0.517D+00 0.657D+00
 Coeff:      0.580D-01 0.101D-01 0.645D-02-0.638D-01-0.405D-01-0.233D+00
 Coeff:      0.883D-01 0.517D+00 0.657D+00
 Gap=     0.377 Goal=   None    Shift=    0.000
 Gap=     0.115 Goal=   None    Shift=    0.000
 RMSDP=2.31D-07 MaxDP=1.71D-05 DE= 1.34D-08 OVMax= 6.99D-05

 Cycle  25  Pass 1  IDiag  1:
 RMSU=  2.28D-07    CP:  1.00D+00  3.00D+00  1.35D+00  1.00D+00
 E= -1871.24379649336     Delta-E=       -0.000000007320 Rises=F Damp=F
 DIIS: error= 1.11D-06 at cycle  25 NSaved=  10.
 NSaved=10 IEnMin= 1 EnMin= -1871.24386764744     IErMin=10 ErrMin= 1.11D-06
 ErrMax= 1.11D-06  0.00D+00 EMaxC= 1.00D-01 BMatC= 1.92D-09 BMatP= 8.83D-09
 IDIUse=1 WtCom= 1.00D+00 WtEn= 0.00D+00
 Coeff-Com: -0.755D-01-0.620D-03 0.108D-01 0.776D-01 0.240D-01 0.102D+00
 Coeff-Com: -0.231D+00-0.961D-01 0.243D+00 0.946D+00
 Coeff:     -0.755D-01-0.620D-03 0.108D-01 0.776D-01 0.240D-01 0.102D+00
 Coeff:     -0.231D+00-0.961D-01 0.243D+00 0.946D+00
 Gap=     0.377 Goal=   None    Shift=    0.000
 Gap=     0.115 Goal=   None    Shift=    0.000
 RMSDP=2.57D-07 MaxDP=3.16D-05 DE=-7.32D-09 OVMax= 1.35D-04

 Cycle  26  Pass 1  IDiag  1:
 RMSU=  9.48D-08    CP:  1.00D+00  3.00D+00  1.45D+00  1.10D+00  1.39D+00
 E= -1871.24379649705     Delta-E=       -0.000000003686 Rises=F Damp=F
 DIIS: error= 6.77D-07 at cycle  26 NSaved=  11.
 NSaved=11 IEnMin= 1 EnMin= -1871.24386764744     IErMin=11 ErrMin= 6.77D-07
 ErrMax= 6.77D-07  0.00D+00 EMaxC= 1.00D-01 BMatC= 1.36D-09 BMatP= 1.92D-09
 IDIUse=1 WtCom= 1.00D+00 WtEn= 0.00D+00
 Coeff-Com: -0.486D-01-0.372D-02 0.122D-02 0.608D-01 0.508D-02 0.901D-01
 Coeff-Com: -0.808D-01-0.160D+00-0.233D+00 0.337D+00 0.103D+01
 Coeff:     -0.486D-01-0.372D-02 0.122D-02 0.608D-01 0.508D-02 0.901D-01
 Coeff:     -0.808D-01-0.160D+00-0.233D+00 0.337D+00 0.103D+01
 Gap=     0.377 Goal=   None    Shift=    0.000
 Gap=     0.115 Goal=   None    Shift=    0.000
 RMSDP=2.48D-07 MaxDP=3.09D-05 DE=-3.69D-09 OVMax= 1.27D-04

 Cycle  27  Pass 1  IDiag  1:
 RMSU=  3.32D-08    CP:  1.00D+00  3.00D+00  1.43D+00  1.02D+00  1.99D+00
                    CP:  1.82D+00
 E= -1871.24379649875     Delta-E=       -0.000000001710 Rises=F Damp=F
 DIIS: error= 3.37D-07 at cycle  27 NSaved=  12.
 NSaved=12 IEnMin= 1 EnMin= -1871.24386764744     IErMin=12 ErrMin= 3.37D-07
 ErrMax= 3.37D-07  0.00D+00 EMaxC= 1.00D-01 BMatC= 4.27D-10 BMatP= 1.36D-09
 IDIUse=1 WtCom= 1.00D+00 WtEn= 0.00D+00
 Coeff-Com: -0.296D-02-0.187D-02-0.316D-02 0.117D-01-0.123D-01-0.481D-02
 Coeff-Com:  0.646D-01-0.222D-01-0.263D+00-0.239D+00 0.437D+00 0.104D+01
 Coeff:     -0.296D-02-0.187D-02-0.316D-02 0.117D-01-0.123D-01-0.481D-02
 Coeff:      0.646D-01-0.222D-01-0.263D+00-0.239D+00 0.437D+00 0.104D+01
 Gap=     0.377 Goal=   None    Shift=    0.000
 Gap=     0.115 Goal=   None    Shift=    0.000
 RMSDP=1.83D-07 MaxDP=2.15D-05 DE=-1.71D-09 OVMax= 8.59D-05

 Cycle  28  Pass 1  IDiag  1:
 RMSU=  2.19D-08    CP:  1.00D+00  3.00D+00  1.40D+00  9.62D-01  2.47D+00
                    CP:  2.57D+00  1.61D+00
 E= -1871.24379649958     Delta-E=       -0.000000000822 Rises=F Damp=F
 DIIS: error= 1.68D-07 at cycle  28 NSaved=  13.
 NSaved=13 IEnMin= 1 EnMin= -1871.24386764744     IErMin=13 ErrMin= 1.68D-07
 ErrMax= 1.68D-07  0.00D+00 EMaxC= 1.00D-01 BMatC= 8.61D-11 BMatP= 4.27D-10
 IDIUse=1 WtCom= 1.00D+00 WtEn= 0.00D+00
 Coeff-Com:  0.156D-01 0.846D-03-0.142D-02-0.178D-01-0.532D-02-0.268D-01
 Coeff-Com:  0.317D-01 0.614D-01 0.519D-01-0.170D+00-0.391D+00 0.243D+00
 Coeff-Com:  0.121D+01
 Coeff:      0.156D-01 0.846D-03-0.142D-02-0.178D-01-0.532D-02-0.268D-01
 Coeff:      0.317D-01 0.614D-01 0.519D-01-0.170D+00-0.391D+00 0.243D+00
 Coeff:      0.121D+01
 Gap=     0.377 Goal=   None    Shift=    0.000
 Gap=     0.115 Goal=   None    Shift=    0.000
 RMSDP=7.57D-08 MaxDP=7.93D-06 DE=-8.22D-10 OVMax= 3.01D-05

 Cycle  29  Pass 1  IDiag  1:
 RMSU=  1.45D-08    CP:  1.00D+00  3.00D+00  1.41D+00  9.64D-01  2.70D+00
                    CP:  3.00D+00  2.25D+00  1.78D+00
 E= -1871.24379649979     Delta-E=       -0.000000000209 Rises=F Damp=F
 DIIS: error= 5.49D-08 at cycle  29 NSaved=  14.
 NSaved=14 IEnMin= 1 EnMin= -1871.24386764744     IErMin=14 ErrMin= 5.49D-08
 ErrMax= 5.49D-08  0.00D+00 EMaxC= 1.00D-01 BMatC= 1.35D-11 BMatP= 8.61D-11
 IDIUse=1 WtCom= 1.00D+00 WtEn= 0.00D+00
 Coeff-Com:  0.799D-02 0.434D-03-0.669D-03-0.956D-02 0.137D-03-0.110D-02
 Coeff-Com: -0.600D-02 0.207D-01 0.645D-01-0.844D-02-0.198D+00-0.106D+00
 Coeff-Com:  0.366D+00 0.869D+00
 Coeff:      0.799D-02 0.434D-03-0.669D-03-0.956D-02 0.137D-03-0.110D-02
 Coeff:     -0.600D-02 0.207D-01 0.645D-01-0.844D-02-0.198D+00-0.106D+00
 Coeff:      0.366D+00 0.869D+00
 Gap=     0.377 Goal=   None    Shift=    0.000
 Gap=     0.115 Goal=   None    Shift=    0.000
 RMSDP=3.89D-08 MaxDP=5.85D-06 DE=-2.09D-10 OVMax= 2.20D-05

 Cycle  30  Pass 1  IDiag  1:
 RMSU=  1.08D-08    CP:  1.00D+00  3.00D+00  1.41D+00  9.49D-01  2.75D+00
                    CP:  3.00D+00  2.43D+00  2.04D+00  1.31D+00
 E= -1871.24379649978     Delta-E=        0.000000000007 Rises=F Damp=F
 DIIS: error= 2.09D-08 at cycle  30 NSaved=  15.
 NSaved=15 IEnMin= 1 EnMin= -1871.24386764744     IErMin=15 ErrMin= 2.09D-08
 ErrMax= 2.09D-08  0.00D+00 EMaxC= 1.00D-01 BMatC= 3.38D-12 BMatP= 1.35D-11
 IDIUse=1 WtCom= 1.00D+00 WtEn= 0.00D+00
 Coeff-Com:  0.133D-02-0.132D-04-0.273D-03-0.158D-02 0.977D-03 0.559D-02
 Coeff-Com: -0.839D-02-0.165D-02 0.190D-01 0.211D-01-0.154D-01-0.778D-01
 Coeff-Com: -0.449D-01 0.344D+00 0.758D+00
 Coeff:      0.133D-02-0.132D-04-0.273D-03-0.158D-02 0.977D-03 0.559D-02
 Coeff:     -0.839D-02-0.165D-02 0.190D-01 0.211D-01-0.154D-01-0.778D-01
 Coeff:     -0.449D-01 0.344D+00 0.758D+00
 Gap=     0.377 Goal=   None    Shift=    0.000
 Gap=     0.115 Goal=   None    Shift=    0.000
 RMSDP=5.82D-09 MaxDP=8.33D-07 DE= 7.28D-12 OVMax= 2.72D-06

 Error on total polarization charges =  0.00632
 SCF Done:  E(UCAM-B3LYP) =  -1871.24379650     A.U. after   30 cycles
            NFock= 30  Conv=0.58D-08     -V/T= 2.0078
 <Sx>= 0.0000 <Sy>= 0.0000 <Sz>= 0.5000 <S**2>= 0.7597 S= 0.5049
 <L.S>= 0.000000000000E+00
 KE= 1.856677704754D+03 PE=-1.170767365383D+04 EE= 4.312180581874D+03
 Annihilation of the first spin contaminant:
 S**2 before annihilation     0.7597,   after     0.7501
 Leave Link  502 at Sun Mar  3 18:04:41 2024, MaxMem=  5368709120 cpu:      2818.5
 (Enter /home/k0335/k033513/app/g09/l601.exe)
 Copying SCF densities to generalized density rwf, IOpCl= 1 IROHF=0.

 **********************************************************************

            Population analysis using the SCF density.

 **********************************************************************

 Alpha  occ. eigenvalues --  -24.86146 -24.85960 -24.85458 -24.85249 -24.85230
 Alpha  occ. eigenvalues --  -24.85089 -24.84959 -24.84849 -24.84754 -19.35197
 Alpha  occ. eigenvalues --  -19.29676 -19.29032 -14.59106 -14.57255 -14.57016
 Alpha  occ. eigenvalues --  -10.61182 -10.57466 -10.56327 -10.51676 -10.50612
 Alpha  occ. eigenvalues --  -10.49814 -10.44522 -10.37074 -10.36328 -10.31303
 Alpha  occ. eigenvalues --  -10.30605 -10.28944 -10.28690 -10.27068 -10.27024
 Alpha  occ. eigenvalues --   -1.45056  -1.43980  -1.41679  -1.37852  -1.35735
 Alpha  occ. eigenvalues --   -1.34905  -1.34707  -1.34424  -1.34211  -1.27122
 Alpha  occ. eigenvalues --   -1.22569  -1.22402  -1.17510  -1.13595  -1.11349
 Alpha  occ. eigenvalues --   -0.96357  -0.94439  -0.93193  -0.91289  -0.88495
 Alpha  occ. eigenvalues --   -0.87233  -0.84371  -0.84048  -0.81917  -0.79537
 Alpha  occ. eigenvalues --   -0.77783  -0.77005  -0.75484  -0.75132  -0.74370
 Alpha  occ. eigenvalues --   -0.72520  -0.72192  -0.71684  -0.71512  -0.70909
 Alpha  occ. eigenvalues --   -0.69795  -0.69626  -0.68743  -0.68236  -0.66384
 Alpha  occ. eigenvalues --   -0.66218  -0.63982  -0.62139  -0.61428  -0.60111
 Alpha  occ. eigenvalues --   -0.60059  -0.59823  -0.59539  -0.59085  -0.58959
 Alpha  occ. eigenvalues --   -0.58858  -0.57918  -0.57879  -0.57727  -0.57151
 Alpha  occ. eigenvalues --   -0.56917  -0.56035  -0.55391  -0.54784  -0.54491
 Alpha  occ. eigenvalues --   -0.54161  -0.53652  -0.53616  -0.53398  -0.52957
 Alpha  occ. eigenvalues --   -0.52228  -0.52020  -0.51922  -0.51662  -0.51165
 Alpha  occ. eigenvalues --   -0.50981  -0.50444  -0.49993  -0.49859  -0.47541
 Alpha  occ. eigenvalues --   -0.46672  -0.46471  -0.45773  -0.45139  -0.44034
 Alpha  occ. eigenvalues --   -0.43605  -0.42908  -0.42840  -0.42542  -0.42364
 Alpha  occ. eigenvalues --   -0.42011  -0.41770  -0.40381
 Alpha virt. eigenvalues --   -0.02672  -0.00900   0.02568   0.06350   0.06628
 Alpha virt. eigenvalues --    0.08465   0.09362   0.10822   0.11351   0.11794
 Alpha virt. eigenvalues --    0.12758   0.13485   0.14303   0.14670   0.15244
 Alpha virt. eigenvalues --    0.15701   0.16266   0.17023   0.17575   0.17754
 Alpha virt. eigenvalues --    0.18004   0.18741   0.19547   0.19632   0.20009
 Alpha virt. eigenvalues --    0.20540   0.20693   0.20878   0.21314   0.21520
 Alpha virt. eigenvalues --    0.21601   0.21940   0.22004   0.22610   0.22815
 Alpha virt. eigenvalues --    0.23459   0.23977   0.24648   0.24811   0.24989
 Alpha virt. eigenvalues --    0.26012   0.26379   0.27569   0.28180   0.29261
 Alpha virt. eigenvalues --    0.29848   0.30008   0.32052   0.34017   0.35402
 Alpha virt. eigenvalues --    0.38364   0.41649   0.43343   0.44257   0.46849
 Alpha virt. eigenvalues --    0.47553   0.47856   0.49372   0.49510   0.50035
 Alpha virt. eigenvalues --    0.50889   0.51419   0.52172   0.52651   0.53217
 Alpha virt. eigenvalues --    0.53906   0.54394   0.54787   0.55331   0.56496
 Alpha virt. eigenvalues --    0.56850   0.57637   0.58397   0.59499   0.59762
 Alpha virt. eigenvalues --    0.61549   0.62315   0.62657   0.63322   0.64098
 Alpha virt. eigenvalues --    0.64488   0.65302   0.66158   0.67093   0.68951
 Alpha virt. eigenvalues --    0.69938   0.70824   0.72308   0.72867   0.73488
 Alpha virt. eigenvalues --    0.74219   0.75684   0.76339   0.77226   0.78760
 Alpha virt. eigenvalues --    0.79167   0.79793   0.81461   0.81515   0.82658
 Alpha virt. eigenvalues --    0.82974   0.83892   0.85233   0.85987   0.86716
 Alpha virt. eigenvalues --    0.87209   0.87941   0.89241   0.89714   0.90119
 Alpha virt. eigenvalues --    0.90264   0.90734   0.91776   0.92318   0.93233
 Alpha virt. eigenvalues --    0.93318   0.93806   0.94481   0.95214   0.95519
 Alpha virt. eigenvalues --    0.96775   0.97076   0.97896   0.98583   0.98998
 Alpha virt. eigenvalues --    0.99541   0.99722   1.00881   1.01587   1.02063
 Alpha virt. eigenvalues --    1.02652   1.03672   1.05036   1.05804   1.07408
 Alpha virt. eigenvalues --    1.08630   1.09713   1.10350   1.11350   1.12374
 Alpha virt. eigenvalues --    1.13176   1.14411   1.15777   1.16540   1.17048
 Alpha virt. eigenvalues --    1.18136   1.18711   1.19379   1.21049   1.21262
 Alpha virt. eigenvalues --    1.24342   1.24573   1.25135   1.26542   1.26792
 Alpha virt. eigenvalues --    1.28560   1.29765   1.29975   1.30899   1.32220
 Alpha virt. eigenvalues --    1.33095   1.33669   1.34000   1.35681   1.36490
 Alpha virt. eigenvalues --    1.37690   1.38279   1.38599   1.39257   1.39260
 Alpha virt. eigenvalues --    1.40027   1.40469   1.40810   1.41200   1.41640
 Alpha virt. eigenvalues --    1.43201   1.44449   1.45055   1.48651   1.49634
 Alpha virt. eigenvalues --    1.49991   1.51179   1.52177   1.53376   1.53597
 Alpha virt. eigenvalues --    1.54121   1.55974   1.56955   1.57974   1.58463
 Alpha virt. eigenvalues --    1.59462   1.60703   1.61234   1.62709   1.62896
 Alpha virt. eigenvalues --    1.64404   1.65005   1.65800   1.66374   1.67223
 Alpha virt. eigenvalues --    1.68318   1.69403   1.70506   1.71126   1.71707
 Alpha virt. eigenvalues --    1.72453   1.73257   1.73625   1.74137   1.75425
 Alpha virt. eigenvalues --    1.76117   1.78053   1.78132   1.79189   1.80245
 Alpha virt. eigenvalues --    1.81351   1.82008   1.82177   1.83111   1.83579
 Alpha virt. eigenvalues --    1.83964   1.84468   1.84929   1.85461   1.86163
 Alpha virt. eigenvalues --    1.86696   1.87471   1.87993   1.88576   1.88914
 Alpha virt. eigenvalues --    1.89231   1.89425   1.90000   1.90431   1.91170
 Alpha virt. eigenvalues --    1.92011   1.92374   1.93069   1.93382   1.93821
 Alpha virt. eigenvalues --    1.94218   1.95261   1.95896   1.96430   1.97174
 Alpha virt. eigenvalues --    1.97963   1.98217   1.98593   1.99476   2.00682
 Alpha virt. eigenvalues --    2.01272   2.02156   2.02251   2.02594   2.03331
 Alpha virt. eigenvalues --    2.04719   2.05526   2.06233   2.06439   2.07610
 Alpha virt. eigenvalues --    2.09080   2.09542   2.09636   2.09854   2.10636
 Alpha virt. eigenvalues --    2.10783   2.11073   2.11830   2.12647   2.12927
 Alpha virt. eigenvalues --    2.13242   2.13630   2.14870   2.15256   2.16153
 Alpha virt. eigenvalues --    2.16641   2.16729   2.16915   2.18953   2.19556
 Alpha virt. eigenvalues --    2.20228   2.20754   2.21397   2.22343   2.22965
 Alpha virt. eigenvalues --    2.24497   2.25323   2.26182   2.27879   2.28180
 Alpha virt. eigenvalues --    2.28456   2.30096   2.30795   2.31619   2.32213
 Alpha virt. eigenvalues --    2.32544   2.33508   2.34766   2.35335   2.35779
 Alpha virt. eigenvalues --    2.37377   2.38093   2.38965   2.39224   2.40165
 Alpha virt. eigenvalues --    2.42018   2.42999   2.43322   2.44031   2.44204
 Alpha virt. eigenvalues --    2.45549   2.47024   2.47446   2.51466   2.52529
 Alpha virt. eigenvalues --    2.53258   2.53799   2.54474   2.55587   2.56133
 Alpha virt. eigenvalues --    2.57031   2.58544   2.59297   2.60272   2.61375
 Alpha virt. eigenvalues --    2.61965   2.63588   2.65206   2.65556   2.67989
 Alpha virt. eigenvalues --    2.69024   2.69891   2.70549   2.71934   2.72952
 Alpha virt. eigenvalues --    2.73638   2.75145   2.75904   2.76074   2.77133
 Alpha virt. eigenvalues --    2.77369   2.79312   2.80744   2.81517   2.82503
 Alpha virt. eigenvalues --    2.82956   2.84087   2.85030   2.85543   2.86181
 Alpha virt. eigenvalues --    2.87231   2.87501   2.88316   2.89401   2.90944
 Alpha virt. eigenvalues --    2.91782   2.92567   2.93035   2.94023   2.94384
 Alpha virt. eigenvalues --    2.95357   2.95765   2.96776   2.97021   2.97521
 Alpha virt. eigenvalues --    2.98563   2.99825   3.01622   3.03530   3.04518
 Alpha virt. eigenvalues --    3.07736   3.08915   3.09769   3.12689   3.14034
 Alpha virt. eigenvalues --    3.15184   3.17366   3.21314   3.23893   3.24324
 Alpha virt. eigenvalues --    3.25032   3.27267   3.28032   3.29430   3.30005
 Alpha virt. eigenvalues --    3.32193   3.33588   3.35360   3.36887   3.37711
 Alpha virt. eigenvalues --    3.38155   3.40060   3.43243   3.46104   3.48248
 Alpha virt. eigenvalues --    3.48893   3.52160   3.53203   3.57482   3.57945
 Alpha virt. eigenvalues --    3.61555   3.61781   4.04216   4.06204   4.12103
 Alpha virt. eigenvalues --    4.19192   4.24465   4.28422   4.32308   4.33481
 Alpha virt. eigenvalues --    4.33944   4.36730   4.46523   4.47133   4.47820
 Alpha virt. eigenvalues --    4.51299   4.56681   4.59747   4.61471   4.63462
 Alpha virt. eigenvalues --    4.65294   4.74122   4.76372   4.76779   4.83098
 Alpha virt. eigenvalues --    4.97655   5.08723   5.34594   5.51606   5.84653
 Alpha virt. eigenvalues --    6.31174   6.45215
  Beta  occ. eigenvalues --  -24.86144 -24.85958 -24.85459 -24.85249 -24.85225
  Beta  occ. eigenvalues --  -24.85081 -24.84959 -24.84849 -24.84754 -19.35197
  Beta  occ. eigenvalues --  -19.29452 -19.28821 -14.58223 -14.57200 -14.56395
  Beta  occ. eigenvalues --  -10.61181 -10.57466 -10.56331 -10.51675 -10.50729
  Beta  occ. eigenvalues --  -10.49912 -10.44552 -10.37077 -10.36324 -10.31214
  Beta  occ. eigenvalues --  -10.30542 -10.28940 -10.28675 -10.27068 -10.27015
  Beta  occ. eigenvalues --   -1.45055  -1.43979  -1.41668  -1.37844  -1.35734
  Beta  occ. eigenvalues --   -1.34901  -1.34700  -1.34421  -1.34208  -1.26608
  Beta  occ. eigenvalues --   -1.22466  -1.22011  -1.16459  -1.13245  -1.09948
[...]
    29   Atom       -0.003541      0.034674     -0.031133
    30   Atom       -0.035796     -0.113776      0.149573
    31   Atom        0.001406     -0.001247     -0.000160
    32   Atom        0.001424     -0.000898     -0.000526
    33   Atom        0.001206     -0.000096     -0.001110
    34   Atom        0.002390     -0.001896     -0.000493
    35   Atom        0.002481     -0.000774     -0.001707
    36   Atom        0.003857     -0.004836      0.000979
    37   Atom        0.001863      0.003070     -0.004933
    38   Atom        0.001566      0.002425     -0.003990
    39   Atom        0.000203     -0.002073      0.001870
    40   Atom       -0.002162      0.010464     -0.008302
    41   Atom       -0.008327     -0.008864      0.017191
    42   Atom        0.005280     -0.001891     -0.003390
    43   Atom       -0.002925      0.005505     -0.002580
    44   Atom        0.000051      0.002439     -0.002490
    45   Atom       -0.001480     -0.000375      0.001854
    46   Atom       -0.001288      0.000139      0.001148
    47   Atom        0.001624      0.000098     -0.001722
    48   Atom       -0.000751      0.001814     -0.001063
    49   Atom       -0.000436      0.001117     -0.000682
    50   Atom       -0.001028      0.001407     -0.000379
 --------------------------------------------------------
                        XY            XZ            YZ
 --------------------------------------------------------
     1   Atom       -0.001938     -0.002679      0.000403
     2   Atom        0.000024      0.000431     -0.000059
     3   Atom       -0.018574     -0.049308      0.013104
     4   Atom       -0.004998     -0.013851      0.016378
     5   Atom       -0.223140     -0.468861      0.458581
     6   Atom       -0.012680     -0.012702      0.032891
     7   Atom       -0.046334     -0.162941      0.238163
     8   Atom       -0.012617     -0.009941      0.017466
     9   Atom       -0.010935     -0.009220      0.039188
    10   Atom       -0.009224     -0.003004      0.006472
    11   Atom       -0.001370     -0.000530      0.000587
    12   Atom        0.009198     -0.009120     -0.018597
    13   Atom        0.012139      0.012975      0.235409
    14   Atom       -0.000125     -0.041469      0.008671
    15   Atom        0.001498      0.001049      0.000059
    16   Atom        0.014309     -0.004693     -0.007700
    17   Atom        0.004887     -0.002587     -0.001503
    18   Atom        0.001353      0.001203      0.001141
    19   Atom        0.003550      0.001367      0.006029
    20   Atom        0.000595      0.000844      0.000652
    21   Atom        0.000498      0.000110      0.000135
    22   Atom        0.000347      0.000117      0.000325
    23   Atom        0.000345      0.000053      0.000108
    24   Atom        0.000638     -0.000102     -0.000200
    25   Atom        0.000715      0.000529      0.001372
    26   Atom        0.000341      0.000118      0.001110
    27   Atom        0.001658      0.002513      0.003533
    28   Atom        0.000469      0.000421      0.001015
    29   Atom        0.025667      0.035995     -0.036896
    30   Atom       -0.087292     -0.207168      0.121185
    31   Atom        0.000046     -0.000996     -0.000347
    32   Atom        0.000077      0.000435      0.000196
    33   Atom       -0.001028     -0.000443      0.000434
    34   Atom       -0.000771      0.001510     -0.000547
    35   Atom        0.001320      0.000644      0.000606
    36   Atom       -0.001200     -0.002331     -0.003849
    37   Atom       -0.003368     -0.002450      0.002369
    38   Atom        0.006062      0.004340      0.001419
    39   Atom       -0.001419      0.007489     -0.004720
    40   Atom        0.006936      0.000456     -0.004655
    41   Atom       -0.004037     -0.009062      0.008376
    42   Atom       -0.003814      0.002812     -0.001572
    43   Atom       -0.000278     -0.000285     -0.006415
    44   Atom       -0.000691      0.001522      0.004287
    45   Atom       -0.002068     -0.004546      0.001390
    46   Atom       -0.001223     -0.000274      0.001175
    47   Atom       -0.001979      0.000441      0.000334
    48   Atom       -0.000092     -0.000057     -0.000036
    49   Atom       -0.000736      0.000062     -0.000285
    50   Atom       -0.000872      0.000244     -0.000865
 --------------------------------------------------------


 ---------------------------------------------------------------------------------
              Anisotropic Spin Dipole Couplings in Principal Axis System
 ---------------------------------------------------------------------------------

       Atom             a.u.   MegaHertz   Gauss  10(-4) cm-1        Axes

              Baa    -0.0041    -0.552    -0.197    -0.184  0.2760  0.7190  0.6378
     1 C(13)  Bbb    -0.0040    -0.536    -0.191    -0.179  0.0594 -0.6751  0.7353
              Bcc     0.0081     1.087     0.388     0.363  0.9593 -0.1650 -0.2291
 
              Baa    -0.0058    -0.777    -0.277    -0.259 -0.0065  0.9787  0.2052
     2 C(13)  Bbb    -0.0055    -0.737    -0.263    -0.246 -0.0248 -0.2053  0.9784
              Bcc     0.0113     1.515     0.540     0.505  0.9997  0.0013  0.0257
 
              Baa    -0.0382    -5.121    -1.827    -1.708  0.1559  0.9780 -0.1386
     3 C(13)  Bbb    -0.0358    -4.799    -1.712    -1.601  0.5783  0.0233  0.8155
              Bcc     0.0739     9.920     3.540     3.309  0.8008 -0.2073 -0.5620
 
              Baa    -0.0281    -3.767    -1.344    -1.257  0.0319  0.9577 -0.2860
     4 C(13)  Bbb    -0.0079    -1.055    -0.376    -0.352  0.9325  0.0745  0.3535
              Bcc     0.0359     4.822     1.721     1.608 -0.3598  0.2779  0.8907
 
              Baa    -0.4779   -18.433    -6.577    -6.149  0.4394  0.8760 -0.1987
     5 N(14)  Bbb    -0.4692   -18.096    -6.457    -6.036  0.8047 -0.2855  0.5206
              Bcc     0.9472    36.530    13.035    12.185 -0.3993  0.3886  0.8304
 
              Baa    -0.0389    -5.224    -1.864    -1.742  0.5968  0.7750 -0.2079
     6 C(13)  Bbb    -0.0247    -3.315    -1.183    -1.106  0.7818 -0.5033  0.3682
              Bcc     0.0636     8.539     3.047     2.848 -0.1807  0.3823  0.9062
 
              Baa    -0.3390   -13.075    -4.665    -4.361  0.3702  0.9129 -0.1718
     7 N(14)  Bbb    -0.3285   -12.669    -4.521    -4.226  0.9128 -0.3232  0.2496
              Bcc     0.6675    25.744     9.186     8.587 -0.1724  0.2492  0.9530
 
              Baa    -0.0215    -2.883    -1.029    -0.962  0.8154  0.5765 -0.0535
     8 C(13)  Bbb    -0.0098    -1.316    -0.470    -0.439  0.4787 -0.6194  0.6222
              Bcc     0.0313     4.199     1.498     1.401 -0.3256  0.5329  0.7810
 
              Baa    -0.0277    -3.715    -1.325    -1.239  0.5617  0.6318 -0.5341
     9 C(13)  Bbb    -0.0263    -3.531    -1.260    -1.178  0.8075 -0.2784  0.5200
              Bcc     0.0540     7.246     2.586     2.417 -0.1799  0.7234  0.6666
 
              Baa    -0.0088    -1.184    -0.423    -0.395 -0.1271 -0.3675  0.9213
    10 C(13)  Bbb    -0.0084    -1.124    -0.401    -0.375  0.8999  0.3479  0.2629
              Bcc     0.0172     2.308     0.824     0.770 -0.4172  0.8625  0.2865
 
              Baa    -0.0019    -0.257    -0.092    -0.086  0.9051  0.2469  0.3460
    11 C(13)  Bbb    -0.0010    -0.130    -0.046    -0.043 -0.2746 -0.2816  0.9194
              Bcc     0.0029     0.387     0.138     0.129 -0.3245  0.9272  0.1871
 
              Baa    -0.0622    -8.352    -2.980    -2.786  0.0722  0.2055  0.9760
    12 C(13)  Bbb     0.0194     2.607     0.930     0.870 -0.5644  0.8152 -0.1299
              Bcc     0.0428     5.745     2.050     1.916  0.8223  0.5415 -0.1749
 
              Baa    -0.1813    13.120     4.682     4.377 -0.0977  0.8328 -0.5449
    13 O(17)  Bbb    -0.1506    10.896     3.888     3.635  0.9946  0.0617 -0.0840
              Bcc     0.3319   -24.016    -8.570    -8.011  0.0363  0.5502  0.8343
 
              Baa    -0.0351    -1.355    -0.483    -0.452  0.7405 -0.4198  0.5248
    14 N(14)  Bbb    -0.0230    -0.887    -0.317    -0.296  0.3972  0.9033  0.1620
              Bcc     0.0581     2.242     0.800     0.748 -0.5421  0.0885  0.8357
 
              Baa    -0.0028    -0.377    -0.134    -0.126 -0.4099  0.1069  0.9058
    15 C(13)  Bbb    -0.0004    -0.050    -0.018    -0.017  0.8001 -0.4347  0.4133
              Bcc     0.0032     0.427     0.152     0.142  0.4380  0.8942  0.0927
 
              Baa    -0.0133    -6.703    -2.392    -2.236 -0.0914  0.4040  0.9102
    16 F(19)  Bbb    -0.0087    -4.392    -1.567    -1.465  0.7774 -0.5423  0.3187
              Bcc     0.0221    11.095     3.959     3.701  0.6223  0.7367 -0.2645
 
              Baa    -0.0048    -2.416    -0.862    -0.806  0.4379 -0.1180  0.8913
    17 F(19)  Bbb    -0.0027    -1.351    -0.482    -0.451 -0.5749  0.7254  0.3785
              Bcc     0.0075     3.767     1.344     1.257  0.6912  0.6781 -0.2498
 
              Baa    -0.0018    -0.239    -0.085    -0.080 -0.5459 -0.0763  0.8344
    18 C(13)  Bbb    -0.0009    -0.118    -0.042    -0.039 -0.6440  0.6753 -0.3595
              Bcc     0.0027     0.357     0.127     0.119  0.5360  0.7336  0.4178
 
              Baa    -0.0061    -3.045    -1.087    -1.016  0.1975 -0.4361  0.8779
    19 F(19)  Bbb    -0.0052    -2.609    -0.931    -0.870  0.9512 -0.1315 -0.2793
              Bcc     0.0113     5.655     2.018     1.886  0.2372  0.8902  0.3889
 
              Baa    -0.0010     0.069     0.025     0.023  0.8324 -0.1322 -0.5381
    20 O(17)  Bbb    -0.0005     0.033     0.012     0.011 -0.2190  0.8136 -0.5386
              Bcc     0.0014    -0.102    -0.037    -0.034  0.5091  0.5662  0.6483
 
              Baa    -0.0006    -0.077    -0.027    -0.026 -0.3667  0.0430  0.9293
    21 C(13)  Bbb    -0.0004    -0.056    -0.020    -0.019  0.8478 -0.3959  0.3528
              Bcc     0.0010     0.133     0.047     0.044  0.3831  0.9173  0.1087
 
              Baa    -0.0005    -0.273    -0.097    -0.091 -0.4604 -0.0922  0.8829
    22 F(19)  Bbb    -0.0005    -0.234    -0.084    -0.078  0.8511 -0.3288  0.4094
              Bcc     0.0010     0.507     0.181     0.169  0.2525  0.9399  0.2299
 
              Baa    -0.0003    -0.148    -0.053    -0.049  0.1439 -0.2332  0.9617
    23 F(19)  Bbb    -0.0003    -0.137    -0.049    -0.046  0.8707 -0.4321 -0.2350
              Bcc     0.0006     0.285     0.102     0.095  0.4703  0.8712  0.1409
 
              Baa    -0.0006    -0.294    -0.105    -0.098  0.9035 -0.4244  0.0603
    24 F(19)  Bbb    -0.0005    -0.250    -0.089    -0.083  0.0070  0.1551  0.9879
              Bcc     0.0011     0.544     0.194     0.182  0.4286  0.8921 -0.1431
 
              Baa    -0.0011    -0.154    -0.055    -0.051 -0.2374 -0.4779  0.8457
    25 C(13)  Bbb    -0.0010    -0.130    -0.046    -0.043  0.9238 -0.3804  0.0444
              Bcc     0.0021     0.284     0.101     0.095  0.3005  0.7918  0.5317
 
              Baa    -0.0010    -0.481    -0.172    -0.161  0.3963 -0.4864  0.7787
    26 F(19)  Bbb    -0.0008    -0.400    -0.143    -0.133  0.9074  0.0785 -0.4128
              Bcc     0.0018     0.881     0.314     0.294  0.1397  0.8702  0.4725
 
              Baa    -0.0033    -1.656    -0.591    -0.553  0.9309 -0.2992 -0.2097
    27 F(19)  Bbb    -0.0028    -1.415    -0.505    -0.472  0.1329  0.8119 -0.5684
              Bcc     0.0061     3.072     1.096     1.025  0.3403  0.5013  0.7955
 
              Baa    -0.0008    -0.413    -0.147    -0.138 -0.6093 -0.3199  0.7255
    28 F(19)  Bbb    -0.0007    -0.356    -0.127    -0.119  0.7392 -0.5602  0.3738
              Bcc     0.0015     0.769     0.274     0.256  0.2868  0.7641  0.5779
 
              Baa    -0.0744    -9.984    -3.563    -3.330 -0.5247  0.3810  0.7613
    29 C(13)  Bbb     0.0212     2.846     1.016     0.949  0.8219 -0.0061  0.5695
              Bcc     0.0532     7.138     2.547     2.381  0.2216  0.9246 -0.3099
 
              Baa    -0.1745    12.626     4.505     4.212  0.7988  0.5094  0.3202
    30 O(17)  Bbb    -0.1591    11.512     4.108     3.840 -0.3029  0.8003 -0.5175
              Bcc     0.3336   -24.139    -8.613    -8.052 -0.5198  0.3164  0.7935
 
              Baa    -0.0014    -0.733    -0.262    -0.245  0.1125  0.9273  0.3571
    31 H(1)   Bbb    -0.0005    -0.282    -0.100    -0.094  0.4325 -0.3693  0.8226
              Bcc     0.0019     1.015     0.362     0.339  0.8946  0.0619 -0.4426
 
              Baa    -0.0010    -0.527    -0.188    -0.176  0.0487  0.9021 -0.4288
    32 H(1)   Bbb    -0.0005    -0.286    -0.102    -0.095 -0.2119  0.4289  0.8781
              Bcc     0.0015     0.812     0.290     0.271  0.9761  0.0482  0.2121
 
              Baa    -0.0013    -0.679    -0.242    -0.227  0.0383 -0.3163  0.9479
    33 H(1)   Bbb    -0.0006    -0.330    -0.118    -0.110  0.5207  0.8159  0.2513
              Bcc     0.0019     1.009     0.360     0.337  0.8529 -0.4839 -0.1959
 
              Baa    -0.0021    -1.122    -0.400    -0.374  0.0811  0.9645  0.2515
    34 H(1)   Bbb    -0.0011    -0.587    -0.209    -0.196 -0.4255 -0.1947  0.8838
              Bcc     0.0032     1.709     0.610     0.570  0.9013 -0.1786  0.3946
 
              Baa    -0.0020    -1.070    -0.382    -0.357  0.0016 -0.4428  0.8966
    35 H(1)   Bbb    -0.0011    -0.577    -0.206    -0.192 -0.3812  0.8286  0.4100
              Bcc     0.0031     1.647     0.588     0.549  0.9245  0.3425  0.1675
 
              Baa    -0.0072    -3.824    -1.364    -1.275  0.1922  0.8649  0.4637
    36 H(1)   Bbb     0.0019     1.022     0.365     0.341  0.5296 -0.4892  0.6930
              Bcc     0.0053     2.802     1.000     0.935  0.8262  0.1124 -0.5520
 
              Baa    -0.0059    -3.164    -1.129    -1.055  0.2295 -0.1666  0.9590
    37 H(1)   Bbb    -0.0009    -0.498    -0.178    -0.166  0.7450  0.6641 -0.0629
              Bcc     0.0069     3.662     1.307     1.222 -0.6264  0.7288  0.2765
 
              Baa    -0.0068    -3.646    -1.301    -1.216 -0.5877  0.2678  0.7634
    38 H(1)   Bbb    -0.0025    -1.320    -0.471    -0.440 -0.4288  0.6971 -0.5746
              Bcc     0.0093     4.966     1.772     1.656  0.6861  0.6651  0.2949
 
              Baa    -0.0075    -4.020    -1.434    -1.341 -0.5815  0.4403  0.6841
    39 H(1)   Bbb    -0.0027    -1.437    -0.513    -0.479  0.5577  0.8280 -0.0588
              Bcc     0.0102     5.457     1.947     1.820  0.5923 -0.3473  0.7270
 
              Baa    -0.0101    -5.384    -1.921    -1.796 -0.3240  0.3116  0.8933
    40 H(1)   Bbb    -0.0042    -2.232    -0.796    -0.744  0.8672 -0.2797  0.4121
              Bcc     0.0143     7.616     2.717     2.540  0.3782  0.9081 -0.1796
 
              Baa    -0.0126    -6.745    -2.407    -2.250  0.6908  0.7230  0.0068
    41 H(1)   Bbb    -0.0101    -5.402    -1.927    -1.802  0.6570 -0.6316  0.4116
              Bcc     0.0228    12.147     4.334     4.052 -0.3019  0.2799  0.9113
 
              Baa    -0.0044    -2.356    -0.841    -0.786 -0.1010  0.4112  0.9059
    42 H(1)   Bbb    -0.0034    -1.829    -0.653    -0.610  0.4652  0.8245 -0.3223
              Bcc     0.0078     4.185     1.493     1.396  0.8794 -0.3888  0.2745
 
              Baa    -0.0062    -3.290    -1.174    -1.097  0.1176  0.4805  0.8691
    43 H(1)   Bbb    -0.0029    -1.537    -0.548    -0.513  0.9930 -0.0492 -0.1072
              Bcc     0.0090     4.826     1.722     1.610 -0.0088  0.8756 -0.4829
 
              Baa    -0.0055    -2.920    -1.042    -0.974 -0.2885 -0.4755  0.8310
    44 H(1)   Bbb     0.0005     0.292     0.104     0.097  0.9568 -0.1755  0.2318
              Bcc     0.0049     2.628     0.938     0.877  0.0357  0.8620  0.5057
 
              Baa    -0.0049    -2.593    -0.925    -0.865  0.8281  0.2223  0.5146
    45 H(1)   Bbb    -0.0010    -0.555    -0.198    -0.185  0.0138  0.9096 -0.4152
              Bcc     0.0059     3.148     1.123     1.050 -0.5604  0.3509  0.7502
 
              Baa    -0.0020    -1.085    -0.387    -0.362  0.8338  0.5374 -0.1266
    46 H(1)   Bbb    -0.0001    -0.076    -0.027    -0.025  0.4812 -0.5951  0.6437
              Bcc     0.0022     1.162     0.415     0.388 -0.2706  0.5976  0.7548
 
              Baa    -0.0021    -1.104    -0.394    -0.368 -0.3319 -0.4325  0.8383
    47 H(1)   Bbb    -0.0009    -0.491    -0.175    -0.164  0.4545  0.7054  0.5439
              Bcc     0.0030     1.595     0.569     0.532  0.8266 -0.5615  0.0375
 
              Baa    -0.0011    -0.573    -0.204    -0.191  0.1787  0.0179  0.9837
    48 H(1)   Bbb    -0.0007    -0.397    -0.142    -0.132  0.9833  0.0328 -0.1792
              Bcc     0.0018     0.970     0.346     0.323 -0.0355  0.9993 -0.0117
 
              Baa    -0.0008    -0.412    -0.147    -0.137  0.6528  0.3551  0.6692
    49 H(1)   Bbb    -0.0007    -0.361    -0.129    -0.120 -0.6643 -0.1563  0.7310
              Bcc     0.0014     0.773     0.276     0.258 -0.3641  0.9217 -0.1338
 
              Baa    -0.0013    -0.699    -0.249    -0.233  0.9464  0.3193  0.0486
    50 H(1)   Bbb    -0.0007    -0.381    -0.136    -0.127 -0.1552  0.3176  0.9354
              Bcc     0.0020     1.079     0.385     0.360 -0.2833  0.8928 -0.3502
 

 ---------------------------------------------------------------------------------

 No NMR shielding tensors so no spin-rotation constants.
 Leave Link  601 at Sun Mar  3 18:04:41 2024, MaxMem=  5368709120 cpu:         7.0
 (Enter /home/k0335/k033513/app/g09/l9999.exe)
 1\1\GINC-C18U04N2\SP\UCAM-B3LYP\6-31G(d,p)\C15H20F9N3O3(1+,2)\K033513\
 03-Mar-2024\0\\#p CAM-B3LYP/6-31G(d,p) SCRF=(PCM,Solvent=Generic,Read)
  NoSymm out=wfn\\Title A892693590_p1\\1,2\C,0,5.860426,-0.363476,-0.04
 5062\C,0,4.771059,0.115901,0.900893\C,0,3.379442,-0.108836,0.311716\C,
 0,2.287471,0.37739,1.266378\N,0,0.948057,0.154558,0.732583\C,0,0.46297
 8,1.019243,-0.298396\N,0,-0.964616,1.046427,-0.231729\C,0,-1.670131,2.
 305079,-0.442368\C,0,-1.782481,3.103886,0.857046\C,0,-2.608932,4.38225
 5,0.711347\C,0,-1.974018,5.410914,-0.211477\C,0,-1.640259,-0.128688,0.
 017337\O,0,-2.862559,-0.157716,0.117164\N,0,-0.840077,-1.238187,0.1778
 33\C,0,-1.499816,-2.528785,0.245186\F,0,-2.288173,-2.571849,1.357071\F
 ,0,-0.568767,-3.514017,0.431257\C,0,-2.330032,-2.981633,-0.996771\F,0,
 -3.268861,-2.040267,-1.328187\O,0,-3.144985,-4.154001,-0.835693\C,0,-2
 .503041,-5.276514,-0.294609\F,0,-1.354842,-5.521438,-0.937299\F,0,-3.3
 11885,-6.341972,-0.449526\F,0,-2.278398,-5.097335,1.01416\C,0,-1.35616
 6,-3.046063,-2.180564\F,0,-0.259848,-3.798174,-1.962684\F,0,-0.900971,
 -1.808603,-2.509644\F,0,-1.961716,-3.540772,-3.28826\C,0,0.333285,-1.0
 79289,0.887583\O,0,0.818874,-1.936067,1.621264\H,0,5.817038,0.173808,-
 0.997839\H,0,6.84746,-0.193345,0.396207\H,0,5.759475,-1.434222,-0.2491
 62\H,0,4.862562,-0.417511,1.85419\H,0,4.919259,1.181813,1.109573\H,0,3
 .295876,0.418652,-0.646361\H,0,3.236573,-1.174941,0.096289\H,0,2.39904
 4,1.447574,1.475401\H,0,2.376863,-0.148068,2.224418\H,0,0.860671,2.028
 12,-0.149002\H,0,0.771351,0.638563,-1.278372\H,0,-2.673525,2.092486,-0
 .828691\H,0,-1.1357,2.865994,-1.216514\H,0,-0.781736,3.35185,1.231654\
 H,0,-2.249755,2.47552,1.625978\H,0,-2.730576,4.832466,1.703775\H,0,-3.
 614245,4.137899,0.349065\H,0,-0.95564,5.651528,0.109581\H,0,-2.55961,6
 .335853,-0.201947\H,0,-1.936403,5.05399,-1.244789\\Version=ES64L-G09Re
 vD.01\HF=-1871.2437965\S2=0.759746\S2-1=0.\S2A=0.750072\RMSD=5.819e-09
 \Dipole=3.2598867,5.6296786,0.2139589\Quadrupole=2.8659627,4.7745219,-
 7.6404846,-3.7665725,2.4094078,2.4621423\PG=C01 [X(C15H20F9N3O3)]\\@

 Writing a WFN file to "A892693590/A892693590_p1.wfn"


 MY GROUP MEETINGS AREN'T VERY STRUCTURED.
     -- PROF. M. S. GORDON, OCT. 5, 1984
 Job cpu time:       0 days  0 hours 47 minutes 41.7 seconds.
 File lengths (MBytes):  RWF=    494 Int=      0 D2E=      0 Chk=     16 Scr=      1
 Normal termination of Gaussian 09 at Sun Mar  3 18:04:42 2024.
