 Entering Gaussian System, Link 0=g09
 Initial command:
 /home/k0335/k033513/app/g09/l1.exe "/home/k0335/k033513/app/g09/scratch/Gau-466701.inp" -scrdir="/home/k0335/k033513/app/g09/scratch/"
 Default is to use a total of  36 processors:
                               36 via shared-memory
                                1 via Linda
 Entering Link 1 = /home/k0335/k033513/app/g09/l1.exe PID=    466702.
  
 Copyright (c) 1988,1990,1992,1993,1995,1998,2003,2009,2013,
            Gaussian, Inc.  All Rights Reserved.
  
 This is part of the Gaussian(R) 09 program.  It is based on
 the Gaussian(R) 03 system (copyright 2003, Gaussian, Inc.),
 the Gaussian(R) 98 system (copyright 1998, Gaussian, Inc.),
 the Gaussian(R) 94 system (copyright 1995, Gaussian, Inc.),
 the Gaussian 92(TM) system (copyright 1992, Gaussian, Inc.),
 the Gaussian 90(TM) system (copyright 1990, Gaussian, Inc.),
 the Gaussian 88(TM) system (copyright 1988, Gaussian, Inc.),
 the Gaussian 86(TM) system (copyright 1986, Carnegie Mellon
 University), and the Gaussian 82(TM) system (copyright 1983,
 Carnegie Mellon University). Gaussian is a federally registered
 trademark of Gaussian, Inc.
  
 This software contains proprietary and confidential information,
 including trade secrets, belonging to Gaussian, Inc.
  
 This software is provided under written license and may be
 used, copied, transmitted, or stored only in accord with that
 written license.
  
 The following legend is applicable only to US Government
 contracts under FAR:
  
                    RESTRICTED RIGHTS LEGEND
  
 Use, reproduction and disclosure by the US Government is
 subject to restrictions as set forth in subparagraphs (a)
 and (c) of the Commercial Computer Software - Restricted
 Rights clause in FAR 52.227-19.
  
 Gaussian, Inc.
 340 Quinnipiac St., Bldg. 40, Wallingford CT 06492
  
  
 ---------------------------------------------------------------
 Warning -- This program may not be used in any manner that
 competes with the business of Gaussian, Inc. or will provide
 assistance to any competitor of Gaussian, Inc.  The licensee
 of this program is prohibited from giving any competitor of
 Gaussian, Inc. access to this program.  By using this program,
 the user acknowledges that Gaussian, Inc. is engaged in the
 business of creating and licensing software in the field of
 computational chemistry and represents and warrants to the
 licensee that it is not a competitor of Gaussian, Inc. and that
 it will not use this program in any manner prohibited above.
 ---------------------------------------------------------------
  

 Cite this work as:
 Gaussian 09, Revision D.01,
 M. J. Frisch, G. W. Trucks, H. B. Schlegel, G. E. Scuseria, 
 M. A. Robb, J. R. Cheeseman, G. Scalmani, V. Barone, B. Mennucci, 
 G. A. Petersson, H. Nakatsuji, M. Caricato, X. Li, H. P. Hratchian, 
 A. F. Izmaylov, J. Bloino, G. Zheng, J. L. Sonnenberg, M. Hada, 
 M. Ehara, K. Toyota, R. Fukuda, J. Hasegawa, M. Ishida, T. Nakajima, 
 Y. Honda, O. Kitao, H. Nakai, T. Vreven, J. A. Montgomery, Jr., 
 J. E. Peralta, F. Ogliaro, M. Bearpark, J. J. Heyd, E. Brothers, 
 K. N. Kudin, V. N. Staroverov, T. Keith, R. Kobayashi, J. Normand, 
 K. Raghavachari, A. Rendell, J. C. Burant, S. S. Iyengar, J. Tomasi, 
 M. Cossi, N. Rega, J. M. Millam, M. Klene, J. E. Knox, J. B. Cross, 
 V. Bakken, C. Adamo, J. Jaramillo, R. Gomperts, R. E. Stratmann, 
 O. Yazyev, A. J. Austin, R. Cammi, C. Pomelli, J. W. Ochterski, 
 R. L. Martin, K. Morokuma, V. G. Zakrzewski, G. A. Voth, 
 P. Salvador, J. J. Dannenberg, S. Dapprich, A. D. Daniels, 
 O. Farkas, J. B. Foresman, J. V. Ortiz, J. Cioslowski, 
 and D. J. Fox, Gaussian, Inc., Wallingford CT, 2013.
 
 ******************************************
 Gaussian 09:  ES64L-G09RevD.01 24-Apr-2013
                 2-Feb-2025 
 ******************************************
 %nprocshared=24
 Will use up to   24 processors via shared memory.
 %mem=40GB
 %rwf=wang5/FFKM0/FFKM0_neu.rwf
 %nosave
 %chk=wang5/FFKM0/FFKM0_neu.chk
 ----------------------------------------------------------------------
 #p CAM-B3LYP/6-31G(d,p) SCRF=(PCM,Solvent=Generic,Read) NoSymm out=wfn
 ----------------------------------------------------------------------
 1/38=1,40=2/1;
 2/12=2,15=1,17=6,18=5,40=1/2;
 3/5=1,6=6,7=101,11=2,16=1,25=1,30=1,70=2203,72=-2,74=-40/1,2,3;
 4//1;
 5/5=2,38=5/2;
 6/7=2,8=2,9=2,10=2,28=1/1;
 99/5=1,6=100,9=1/99;
 Leave Link    1 at Sun Feb  2 04:54:33 2025, MaxMem=  5368709120 cpu:         6.2
 (Enter /home/k0335/k033513/app/g09/l101.exe)
 ---------------
 Title FFKM0_neu
 ---------------
 Symbolic Z-matrix:
 Charge =  0 Multiplicity = 1
 F                     2.35495   0.00912   2.0127 
 C                     2.49515  -0.67627   0.8653 
 F                     3.46167  -0.1225    0.11121 
 F                     2.86627  -1.93739   1.16655 
 O                     1.29701  -0.73709   0.14089 
 C                     0.69453   0.53038   0.11216 
 F                     1.64006   1.48694  -0.06211 
 F                     0.14059   0.75559   1.32835 
 C                    -0.37592   0.65938  -0.97031 
 F                     0.23948   0.69293  -2.19659 
 F                    -0.99824   1.86983  -0.85294 
 C                    -1.40175  -0.45034  -0.98376 
 F                    -0.81598  -1.63835  -1.3164 
 F                    -2.30028  -0.20219  -1.98907 
 C                    -2.13986  -0.58689   0.33176 
 F                    -3.15411  -1.48113   0.23953 
 F                    -2.6741    0.58273   0.74439 
 F                    -1.32945  -1.03412   1.31834 
 
 NAtoms=     18 NQM=       18 NQMF=       0 NMMI=      0 NMMIF=      0
                NMic=       0 NMicF=      0.
                    Isotopes and Nuclear Properties:
 (Nuclear quadrupole moments (NQMom) in fm**2, nuclear magnetic moments (NMagM)
  in nuclear magnetons)

  Atom         1           2           3           4           5           6           7           8           9          10
 IAtWgt=          19          12          19          19          16          12          19          19          12          19
 AtmWgt=  18.9984033  12.0000000  18.9984033  18.9984033  15.9949146  12.0000000  18.9984033  18.9984033  12.0000000  18.9984033
 NucSpn=           1           0           1           1           0           0           1           1           0           1
 AtZEff=   0.0000000   0.0000000   0.0000000   0.0000000   0.0000000   0.0000000   0.0000000   0.0000000   0.0000000   0.0000000
 NQMom=    0.0000000   0.0000000   0.0000000   0.0000000   0.0000000   0.0000000   0.0000000   0.0000000   0.0000000   0.0000000
 NMagM=    2.6288670   0.0000000   2.6288670   2.6288670   0.0000000   0.0000000   2.6288670   2.6288670   0.0000000   2.6288670
 AtZNuc=   9.0000000   6.0000000   9.0000000   9.0000000   8.0000000   6.0000000   9.0000000   9.0000000   6.0000000   9.0000000

  Atom        11          12          13          14          15          16          17          18
 IAtWgt=          19          12          19          19          12          19          19          19
 AtmWgt=  18.9984033  12.0000000  18.9984033  18.9984033  12.0000000  18.9984033  18.9984033  18.9984033
 NucSpn=           1           0           1           1           0           1           1           1
 AtZEff=   0.0000000   0.0000000   0.0000000   0.0000000   0.0000000   0.0000000   0.0000000   0.0000000
 NQMom=    0.0000000   0.0000000   0.0000000   0.0000000   0.0000000   0.0000000   0.0000000   0.0000000
 NMagM=    2.6288670   0.0000000   2.6288670   2.6288670   0.0000000   2.6288670   2.6288670   2.6288670
 AtZNuc=   9.0000000   6.0000000   9.0000000   9.0000000   6.0000000   9.0000000   9.0000000   9.0000000
 Leave Link  101 at Sun Feb  2 04:54:34 2025, MaxMem=  5368709120 cpu:         0.6
 (Enter /home/k0335/k033513/app/g09/l202.exe)
                          Input orientation:                          
 ---------------------------------------------------------------------
 Center     Atomic      Atomic             Coordinates (Angstroms)
 Number     Number       Type             X           Y           Z
 ---------------------------------------------------------------------
      1          9           0        2.354945    0.009116    2.012700
      2          6           0        2.495150   -0.676267    0.865303
      3          9           0        3.461671   -0.122495    0.111209
      4          9           0        2.866270   -1.937385    1.166550
      5          8           0        1.297012   -0.737094    0.140886
      6          6           0        0.694526    0.530377    0.112163
      7          9           0        1.640060    1.486935   -0.062110
      8          9           0        0.140585    0.755590    1.328352
      9          6           0       -0.375922    0.659380   -0.970311
     10          9           0        0.239478    0.692933   -2.196594
     11          9           0       -0.998235    1.869830   -0.852941
     12          6           0       -1.401753   -0.450337   -0.983755
     13          9           0       -0.815983   -1.638349   -1.316401
     14          9           0       -2.300282   -0.202185   -1.989068
     15          6           0       -2.139865   -0.586886    0.331757
     16          9           0       -3.154109   -1.481133    0.239531
     17          9           0       -2.674097    0.582728    0.744389
     18          9           0       -1.329451   -1.034117    1.318340
 ---------------------------------------------------------------------
                    Distance matrix (angstroms):
                    1          2          3          4          5
     1  F    0.000000
     2  C    1.343848   0.000000
     3  F    2.204049   1.345171   0.000000
     4  F    2.183183   1.348665   2.182217   0.000000
     5  O    2.275904   1.401433   2.250414   2.226040   0.000000
     6  C    2.576964   2.294658   2.843121   3.452253   1.403673
     7  F    2.645722   2.504140   2.436918   3.839162   2.259468
     8  F    2.434943   2.794388   3.644459   3.835056   2.230584
     9  C    4.096197   3.660121   4.063020   4.671314   2.446141
    10  F    4.760353   4.042026   4.046406   5.012918   2.937204
    11  F    4.787272   4.651743   4.978926   5.788577   3.612742
    12  C    4.827279   4.319249   4.995930   5.005112   2.937751
    13  F    4.883834   4.080323   4.757542   4.451231   2.720422
    14  F    6.142470   5.600746   6.133320   6.297786   4.214660
    15  C    4.835711   4.666479   5.625078   5.251868   3.445449
    16  F    5.976173   5.740516   6.755065   6.108395   4.513956
    17  F    5.218133   5.321729   6.208535   6.101218   4.227984
    18  F    3.891689   3.867929   5.024248   4.294532   2.893601
                    6          7          8          9         10
     6  C    0.000000
     7  F    1.356248   0.000000
     8  F    1.355244   2.171791   0.000000
     9  C    1.527825   2.360902   2.357941   0.000000
    10  F    2.358782   2.673591   3.526890   1.372448   0.000000
    11  F    2.364530   2.780759   2.701200   1.366103   2.173114
    12  C    2.560707   3.722241   3.029671   1.511285   2.339163
    13  F    3.004298   4.168068   3.693330   2.364950   2.706218
    14  F    3.731045   4.700275   4.228527   2.341649   2.700867
    15  C    3.054549   4.329399   2.827701   2.521915   3.700239
    16  F    4.344466   5.646634   4.128374   3.709964   4.709321
    17  F    3.427838   4.481069   2.879814   2.868393   4.141310
    18  F    2.828248   4.132716   2.316065   3.002511   4.218886
                   11         12         13         14         15
    11  F    0.000000
    12  C    2.358625   0.000000
    13  F    3.543350   1.365706   0.000000
    14  F    2.698028   1.370981   2.172140   0.000000
    15  C    2.956735   1.514604   2.361072   2.357956   0.000000
    16  F    4.131615   2.372703   2.812912   2.707652   1.355313
    17  F    2.648888   2.381715   3.554241   2.868382   1.350432
    18  F    3.641026   2.376061   2.751473   3.545923   1.352824
                   16         17         18
    16  F    0.000000
    17  F    2.178260   0.000000
    18  F    2.166340   2.179835   0.000000
 Symmetry turned off by external request.
 Stoichiometry    C5F12O
 Framework group  C1[X(C5F12O)]
 Deg. of freedom    48
 Full point group                 C1      NOp   1
 Rotational constants (GHZ):      0.7117992      0.3230268      0.2951936
 Leave Link  202 at Sun Feb  2 04:54:35 2025, MaxMem=  5368709120 cpu:         0.1
 (Enter /home/k0335/k033513/app/g09/l301.exe)
 Standard basis: 6-31G(d,p) (6D, 7F)
 Ernie: Thresh=  0.10000D-02 Tol=  0.10000D-05 Strict=F.
   270 basis functions,   504 primitive gaussians,   270 cartesian basis functions
    73 alpha electrons       73 beta electrons
       nuclear repulsion energy      1805.3913107122 Hartrees.
 IExCor=20419 DFT=T Ex+Corr=CAM-B3LYP ExCW=0 ScaHFX=  1.000000
 ScaDFX=  1.000000  1.000000  1.000000  0.810000 ScalE2=  1.000000  1.000000
 IRadAn=      0 IRanWt=     -1 IRanGd=            0 ICorTp=0 IEmpDi=  4
  HFx wShort=  0.000000 wLong=  0.330000 cFull=  0.190000 cShort=  0.000000 cLong=  0.460000
  DFx wShort=  0.000000 wLong=  0.330000 cFull=  0.190000 cShort=  0.000000 cLong=  0.460000
 NAtoms=   18 NActive=   18 NUniq=   18 SFac= 1.00D+00 NAtFMM=   60 NAOKFM=F Big=F
 Integral buffers will be    131072 words long.
 Raffenetti 2 integral format.
 Two-electron integral symmetry is turned off.
 Using the following non-standard input for PCM:
 eps=4.9
 --- end of non-standard input.
 ------------------------------------------------------------------------------
 Polarizable Continuum Model (PCM)
 =================================
 Model                : PCM (using non-symmetric T matrix).
 Atomic radii         : UFF (Universal Force Field).
 Polarization charges : Total charges.
 Charge compensation  : None.
 Solution method      : On-the-fly selection.
 Cavity type          : Scaled VdW (van der Waals Surface) (Alpha=1.100).
 Cavity algorithm     : GePol (No added spheres)
                        Default sphere list used, NSphG=   18.
                        Lebedev-Laikov grids with approx.  5.0 points / Ang**2.
                        Smoothing algorithm: Karplus/York (Gamma=1.0000).
                        Polarization charges: spherical gaussians, with
                                              point-specific exponents (IZeta= 3).
                        Self-potential: point-specific (ISelfS= 7).
                        Self-field    : sphere-specific E.n sum rule (ISelfD= 2).
 Solvent              : Generic,
                        Eps                           =   4.900000
                        Eps(infinity)                 =   0.000000
                        RSolv                         =   0.000000 Ang.
                        Molar volume                  =   0.000000 cm**3/mol
                        Thermal expansion coefficient =   0.000000 K**-1
                        Absolute temperature          = 298.150000 K
                        Numeral density               =   0.000000 Ang**-3
                        Hydrogen bond acidity         =   0.000000
                        Hydrogen bond basicity        =   0.000000
                        Surface tension at interface  =   0.000000 (cal/mol)*Ang**-2
                        Carbon aromaticity            =   0.000000
                        Electronegative halogenicity  =   0.000000
 ------------------------------------------------------------------------------
 Spheres list:
 ISph  on   Nord     Re0    Alpha      Xe            Ye            Ze
    1   F      1    1.6820  1.100      2.354945      0.009116      2.012700
    2   C      2    1.9255  1.100      2.495150     -0.676267      0.865303
    3   F      3    1.6820  1.100      3.461671     -0.122495      0.111209
    4   F      4    1.6820  1.100      2.866270     -1.937385      1.166550
    5   O      5    1.7500  1.100      1.297012     -0.737094      0.140886
    6   C      6    1.9255  1.100      0.694526      0.530377      0.112163
    7   F      7    1.6820  1.100      1.640060      1.486935     -0.062110
    8   F      8    1.6820  1.100      0.140585      0.755590      1.328352
    9   C      9    1.9255  1.100     -0.375922      0.659380     -0.970311
   10   F     10    1.6820  1.100      0.239478      0.692933     -2.196594
   11   F     11    1.6820  1.100     -0.998235      1.869830     -0.852941
   12   C     12    1.9255  1.100     -1.401753     -0.450337     -0.983755
   13   F     13    1.6820  1.100     -0.815983     -1.638349     -1.316401
   14   F     14    1.6820  1.100     -2.300282     -0.202185     -1.989068
   15   C     15    1.9255  1.100     -2.139865     -0.586886      0.331757
   16   F     16    1.6820  1.100     -3.154109     -1.481133      0.239531
   17   F     17    1.6820  1.100     -2.674097      0.582728      0.744389
   18   F     18    1.6820  1.100     -1.329451     -1.034117      1.318340
 ------------------------------------------------------------------------------
 GePol: Number of generator spheres                  =      18
 GePol: Total number of spheres                      =      18
 GePol: Number of exposed spheres                    =      18 (100.00%)
 GePol: Number of points                             =    1844
 GePol: Average weight of points                     =       0.13
 GePol: Minimum weight of points                     =   0.23D-08
 GePol: Maximum weight of points                     =    0.20299
 GePol: Number of points with low weight             =      63
 GePol: Fraction of low-weight points (<1% of avg)   =       3.42%
 GePol: Cavity surface area                          =    231.939 Ang**2
 GePol: Cavity volume                                =    241.227 Ang**3
 Leave Link  301 at Sun Feb  2 04:54:35 2025, MaxMem=  5368709120 cpu:         0.6
 (Enter /home/k0335/k033513/app/g09/l302.exe)
 NPDir=0 NMtPBC=     1 NCelOv=     1 NCel=       1 NClECP=     1 NCelD=      1
         NCelK=      1 NCelE2=     1 NClLst=     1 CellRange=     0.0.
 One-electron integrals computed using PRISM.
 NBasis=   270 RedAO= T EigKep=  1.36D-03  NBF=   270
 NBsUse=   270 1.00D-06 EigRej= -1.00D+00 NBFU=   270
 Precomputing XC quadrature grid using
 IXCGrd= 4 IRadAn=           0 IRanWt=          -1 IRanGd=           0 AccXCQ= 0.00D+00.
 Generated NRdTot=       0 NPtTot=           0 NUsed=           0 NTot=          32
 NSgBfM=   268   268   268   268   268 MxSgAt=    18 MxSgA2=    18.
 Leave Link  302 at Sun Feb  2 04:54:36 2025, MaxMem=  5368709120 cpu:         3.5
 (Enter /home/k0335/k033513/app/g09/l303.exe)
 DipDrv:  MaxL=1.
 Leave Link  303 at Sun Feb  2 04:54:36 2025, MaxMem=  5368709120 cpu:         0.3
 (Enter /home/k0335/k033513/app/g09/l401.exe)
 ExpMin= 1.69D-01 ExpMax= 7.00D+03 ExpMxC= 1.05D+03 IAcc=1 IRadAn=         1 AccDes= 0.00D+00
 Harris functional with IExCor=20419 and IRadAn=       1 diagonalized for initial guess.
 HarFok:  IExCor=20419 AccDes= 0.00D+00 IRadAn=         1 IDoV= 1 UseB2=F ITyADJ=14
 ICtDFT=  3500011 ScaDFX=  1.000000  1.000000  1.000000  1.000000
 FoFCou: FMM=F IPFlag=           0 FMFlag=      100000 FMFlg1=           0
         NFxFlg=           0 DoJE=T BraDBF=F KetDBF=T FulRan=T
         wScrn=  0.000000 ICntrl=     500 IOpCl=  0 I1Cent=   200000004 NGrid=           0
         NMat0=    1 NMatS0=      1 NMatT0=    0 NMatD0=    1 NMtDS0=    0 NMtDT0=    0
 Symmetry not used in FoFCou.
 Harris En= -1421.60790303707    
 JPrj=0 DoOrth=F DoCkMO=F.
 Leave Link  401 at Sun Feb  2 04:54:37 2025, MaxMem=  5368709120 cpu:         3.8
 (Enter /home/k0335/k033513/app/g09/l502.exe)
 Closed shell SCF:
 Using DIIS extrapolation, IDIIS=  1040.
 Two-electron integral symmetry not used.
 Keep R1 ints in memory in canonical form, NReq=1348695316.
 IVT=      245386 IEndB=      245386 NGot=  5368709120 MDV=  4029964925
 LenX=  4029964925 LenY=  4029891584
 Requested convergence on RMS density matrix=1.00D-08 within 128 cycles.
 Requested convergence on MAX density matrix=1.00D-06.
 Requested convergence on             energy=1.00D-06.
 No special actions if energy rises.
 FoFCou: FMM=F IPFlag=           0 FMFlag=           0 FMFlg1=           0
         NFxFlg=           0 DoJE=F BraDBF=F KetDBF=F FulRan=T
         wScrn=  0.000000 ICntrl=     600 IOpCl=  0 I1Cent=           0 NGrid=           0
         NMat0=    1 NMatS0=  36585 NMatT0=    0 NMatD0=    1 NMtDS0=    0 NMtDT0=    0
 Symmetry not used in FoFCou.

 Cycle   1  Pass 1  IDiag  1:
 Inv3:  Mode=1 IEnd=    10201008.
 Iteration    1 A*A^-1 deviation from unit magnitude is 6.77D-15 for    450.
 Iteration    1 A*A^-1 deviation from orthogonality  is 2.94D-15 for   1474   1069.
 Iteration    1 A^-1*A deviation from unit magnitude is 6.22D-15 for    448.
 Iteration    1 A^-1*A deviation from orthogonality  is 1.12D-14 for   1787   1781.
 E= -1462.98980701096    
 DIIS: error= 5.18D-02 at cycle   1 NSaved=   1.
 NSaved= 1 IEnMin= 1 EnMin= -1462.98980701096     IErMin= 1 ErrMin= 5.18D-02
 ErrMax= 5.18D-02  0.00D+00 EMaxC= 1.00D-01 BMatC= 1.21D+00 BMatP= 1.21D+00
 IDIUse=3 WtCom= 4.82D-01 WtEn= 5.18D-01
 Coeff-Com:  0.100D+01
 Coeff-En:   0.100D+01
 Coeff:      0.100D+01
 Gap=     0.504 Goal=   None    Shift=    0.000
 GapD=    0.504 DampG=2.000 DampE=0.500 DampFc=1.0000 IDamp=-1.
 RMSDP=4.30D-03 MaxDP=1.09D-01              OVMax= 8.07D-02

 Cycle   2  Pass 1  IDiag  1:
 E= -1463.22623085088     Delta-E=       -0.236423839925 Rises=F Damp=F
 DIIS: error= 2.56D-02 at cycle   2 NSaved=   2.
 NSaved= 2 IEnMin= 2 EnMin= -1463.22623085088     IErMin= 2 ErrMin= 2.56D-02
 ErrMax= 2.56D-02  0.00D+00 EMaxC= 1.00D-01 BMatC= 4.17D-01 BMatP= 1.21D+00
 IDIUse=3 WtCom= 7.44D-01 WtEn= 2.56D-01
 Coeff-Com:  0.353D+00 0.647D+00
 Coeff-En:   0.270D+00 0.730D+00
 Coeff:      0.332D+00 0.668D+00
 Gap=     0.518 Goal=   None    Shift=    0.000
 RMSDP=1.84D-03 MaxDP=5.48D-02 DE=-2.36D-01 OVMax= 5.21D-02

 Cycle   3  Pass 1  IDiag  1:
 E= -1463.41183478843     Delta-E=       -0.185603937549 Rises=F Damp=F
 DIIS: error= 8.48D-03 at cycle   3 NSaved=   3.
 NSaved= 3 IEnMin= 3 EnMin= -1463.41183478843     IErMin= 3 ErrMin= 8.48D-03
 ErrMax= 8.48D-03  0.00D+00 EMaxC= 1.00D-01 BMatC= 7.15D-02 BMatP= 4.17D-01
 IDIUse=3 WtCom= 9.15D-01 WtEn= 8.48D-02
 Coeff-Com:  0.925D-01 0.330D+00 0.578D+00
 Coeff-En:   0.000D+00 0.844D-01 0.916D+00
 Coeff:      0.846D-01 0.309D+00 0.606D+00
 Gap=     0.506 Goal=   None    Shift=    0.000
 RMSDP=8.28D-04 MaxDP=2.15D-02 DE=-1.86D-01 OVMax= 2.97D-02

 Cycle   4  Pass 1  IDiag  1:
 E= -1463.45261466265     Delta-E=       -0.040779874217 Rises=F Damp=F
 DIIS: error= 2.56D-03 at cycle   4 NSaved=   4.
 NSaved= 4 IEnMin= 4 EnMin= -1463.45261466265     IErMin= 4 ErrMin= 2.56D-03
 ErrMax= 2.56D-03  0.00D+00 EMaxC= 1.00D-01 BMatC= 5.07D-03 BMatP= 7.15D-02
 IDIUse=3 WtCom= 9.74D-01 WtEn= 2.56D-02
 Coeff-Com:  0.568D-03 0.583D-01 0.272D+00 0.669D+00
 Coeff-En:   0.000D+00 0.000D+00 0.000D+00 0.100D+01
 Coeff:      0.554D-03 0.568D-01 0.265D+00 0.678D+00
 Gap=     0.499 Goal=   None    Shift=    0.000
 RMSDP=1.99D-04 MaxDP=5.79D-03 DE=-4.08D-02 OVMax= 7.83D-03

 Cycle   5  Pass 1  IDiag  1:
 E= -1463.45621448714     Delta-E=       -0.003599824491 Rises=F Damp=F
 DIIS: error= 1.91D-04 at cycle   5 NSaved=   5.
 NSaved= 5 IEnMin= 5 EnMin= -1463.45621448714     IErMin= 5 ErrMin= 1.91D-04
 ErrMax= 1.91D-04  0.00D+00 EMaxC= 1.00D-01 BMatC= 3.74D-05 BMatP= 5.07D-03
 IDIUse=3 WtCom= 9.98D-01 WtEn= 1.91D-03
 Coeff-Com: -0.668D-03 0.176D-01 0.909D-01 0.252D+00 0.640D+00
 Coeff-En:   0.000D+00 0.000D+00 0.000D+00 0.000D+00 0.100D+01
 Coeff:     -0.666D-03 0.176D-01 0.908D-01 0.252D+00 0.641D+00
 Gap=     0.498 Goal=   None    Shift=    0.000
 RMSDP=2.01D-05 MaxDP=7.51D-04 DE=-3.60D-03 OVMax= 6.04D-04

 Cycle   6  Pass 1  IDiag  1:
 E= -1463.45623644367     Delta-E=       -0.000021956533 Rises=F Damp=F
 DIIS: error= 8.10D-05 at cycle   6 NSaved=   6.
 NSaved= 6 IEnMin= 6 EnMin= -1463.45623644367     IErMin= 6 ErrMin= 8.10D-05
 ErrMax= 8.10D-05  0.00D+00 EMaxC= 1.00D-01 BMatC= 5.08D-06 BMatP= 3.74D-05
 IDIUse=1 WtCom= 1.00D+00 WtEn= 0.00D+00
 Coeff-Com: -0.301D-03-0.329D-02-0.115D-01-0.188D-01 0.267D+00 0.767D+00
 Coeff:     -0.301D-03-0.329D-02-0.115D-01-0.188D-01 0.267D+00 0.767D+00
 Gap=     0.498 Goal=   None    Shift=    0.000
 RMSDP=6.93D-06 MaxDP=2.13D-04 DE=-2.20D-05 OVMax= 2.54D-04

 Cycle   7  Pass 1  IDiag  1:
 E= -1463.45624009791     Delta-E=       -0.000003654243 Rises=F Damp=F
 DIIS: error= 1.08D-05 at cycle   7 NSaved=   7.
 NSaved= 7 IEnMin= 7 EnMin= -1463.45624009791     IErMin= 7 ErrMin= 1.08D-05
 ErrMax= 1.08D-05  0.00D+00 EMaxC= 1.00D-01 BMatC= 1.50D-07 BMatP= 5.08D-06
 IDIUse=1 WtCom= 1.00D+00 WtEn= 0.00D+00
 Coeff-Com: -0.598D-04-0.193D-02-0.804D-02-0.182D-01 0.549D-01 0.241D+00
 Coeff-Com:  0.732D+00
 Coeff:     -0.598D-04-0.193D-02-0.804D-02-0.182D-01 0.549D-01 0.241D+00
 Coeff:      0.732D+00
 Gap=     0.498 Goal=   None    Shift=    0.000
 RMSDP=1.63D-06 MaxDP=5.17D-05 DE=-3.65D-06 OVMax= 5.98D-05

 Cycle   8  Pass 1  IDiag  1:
 E= -1463.45624022640     Delta-E=       -0.000000128489 Rises=F Damp=F
 DIIS: error= 3.09D-06 at cycle   8 NSaved=   8.
 NSaved= 8 IEnMin= 8 EnMin= -1463.45624022640     IErMin= 8 ErrMin= 3.09D-06
 ErrMax= 3.09D-06  0.00D+00 EMaxC= 1.00D-01 BMatC= 1.25D-08 BMatP= 1.50D-07
 IDIUse=1 WtCom= 1.00D+00 WtEn= 0.00D+00
 Coeff-Com:  0.917D-05-0.374D-03-0.176D-02-0.476D-02-0.712D-02 0.685D-02
 Coeff-Com:  0.226D+00 0.781D+00
 Coeff:      0.917D-05-0.374D-03-0.176D-02-0.476D-02-0.712D-02 0.685D-02
 Coeff:      0.226D+00 0.781D+00
 Gap=     0.498 Goal=   None    Shift=    0.000
 RMSDP=4.86D-07 MaxDP=1.66D-05 DE=-1.28D-07 OVMax= 2.31D-05

 Cycle   9  Pass 1  IDiag  1:
 E= -1463.45624023771     Delta-E=       -0.000000011303 Rises=F Damp=F
 DIIS: error= 1.14D-06 at cycle   9 NSaved=   9.
 NSaved= 9 IEnMin= 9 EnMin= -1463.45624023771     IErMin= 9 ErrMin= 1.14D-06
 ErrMax= 1.14D-06  0.00D+00 EMaxC= 1.00D-01 BMatC= 1.51D-09 BMatP= 1.25D-08
 IDIUse=1 WtCom= 1.00D+00 WtEn= 0.00D+00
 Coeff-Com:  0.848D-05 0.208D-04 0.863D-08-0.290D-03-0.723D-02-0.177D-01
 Coeff-Com:  0.260D-01 0.304D+00 0.695D+00
 Coeff:      0.848D-05 0.208D-04 0.863D-08-0.290D-03-0.723D-02-0.177D-01
 Coeff:      0.260D-01 0.304D+00 0.695D+00
 Gap=     0.498 Goal=   None    Shift=    0.000
 RMSDP=1.45D-07 MaxDP=5.75D-06 DE=-1.13D-08 OVMax= 5.11D-06

 Cycle  10  Pass 1  IDiag  1:
 E= -1463.45624023885     Delta-E=       -0.000000001140 Rises=F Damp=F
 DIIS: error= 3.67D-07 at cycle  10 NSaved=  10.
 NSaved=10 IEnMin=10 EnMin= -1463.45624023885     IErMin=10 ErrMin= 3.67D-07
 ErrMax= 3.67D-07  0.00D+00 EMaxC= 1.00D-01 BMatC= 1.73D-10 BMatP= 1.51D-09
 IDIUse=1 WtCom= 1.00D+00 WtEn= 0.00D+00
 Coeff-Com:  0.241D-05 0.487D-04 0.186D-03 0.397D-03-0.222D-02-0.815D-02
 Coeff-Com: -0.133D-01 0.441D-01 0.294D+00 0.685D+00
 Coeff:      0.241D-05 0.487D-04 0.186D-03 0.397D-03-0.222D-02-0.815D-02
 Coeff:     -0.133D-01 0.441D-01 0.294D+00 0.685D+00
 Gap=     0.498 Goal=   None    Shift=    0.000
 RMSDP=4.35D-08 MaxDP=1.36D-06 DE=-1.14D-09 OVMax= 1.73D-06

 Cycle  11  Pass 1  IDiag  1:
 E= -1463.45624023893     Delta-E=       -0.000000000086 Rises=F Damp=F
 DIIS: error= 6.37D-08 at cycle  11 NSaved=  11.
 NSaved=11 IEnMin=11 EnMin= -1463.45624023893     IErMin=11 ErrMin= 6.37D-08
 ErrMax= 6.37D-08  0.00D+00 EMaxC= 1.00D-01 BMatC= 3.53D-12 BMatP= 1.73D-10
 IDIUse=1 WtCom= 1.00D+00 WtEn= 0.00D+00
 Coeff-Com:  0.170D-07 0.930D-05 0.388D-04 0.107D-03-0.150D-04-0.638D-03
 Coeff-Com: -0.379D-02-0.623D-02 0.190D-01 0.127D+00 0.865D+00
 Coeff:      0.170D-07 0.930D-05 0.388D-04 0.107D-03-0.150D-04-0.638D-03
 Coeff:     -0.379D-02-0.623D-02 0.190D-01 0.127D+00 0.865D+00
 Gap=     0.498 Goal=   None    Shift=    0.000
 RMSDP=8.79D-09 MaxDP=1.99D-07 DE=-8.59D-11 OVMax= 3.84D-07

 Error on total polarization charges =  0.00061
 SCF Done:  E(RCAM-B3LYP) =  -1463.45624024     A.U. after   11 cycles
            NFock= 11  Conv=0.88D-08     -V/T= 2.0069
 KE= 1.453376612806D+03 PE=-7.082243024242D+03 EE= 2.360018860485D+03
 Leave Link  502 at Sun Feb  2 04:54:50 2025, MaxMem=  5368709120 cpu:       151.9
 (Enter /home/k0335/k033513/app/g09/l601.exe)
 Copying SCF densities to generalized density rwf, IOpCl= 0 IROHF=0.

 **********************************************************************

            Population analysis using the SCF density.

 **********************************************************************

 Alpha  occ. eigenvalues --  -24.83869 -24.83803 -24.83717 -24.83698 -24.83608
 Alpha  occ. eigenvalues --  -24.83411 -24.83302 -24.83214 -24.83160 -24.83083
 Alpha  occ. eigenvalues --  -24.83074 -24.83066 -19.33289 -10.59730 -10.55391
 Alpha  occ. eigenvalues --  -10.54424 -10.50060 -10.49919  -1.43396  -1.42344
 Alpha  occ. eigenvalues --   -1.40349  -1.38905  -1.37161  -1.33791  -1.33349
 Alpha  occ. eigenvalues --   -1.33100  -1.32705  -1.32392  -1.31877  -1.31648
 Alpha  occ. eigenvalues --   -1.21548  -0.95415  -0.88374  -0.82390  -0.79331
 Alpha  occ. eigenvalues --   -0.75703  -0.73278  -0.72638  -0.71075  -0.70504
 Alpha  occ. eigenvalues --   -0.70103  -0.69597  -0.68310  -0.67501  -0.66651
 Alpha  occ. eigenvalues --   -0.65618  -0.64054  -0.61633  -0.58140  -0.57938
 Alpha  occ. eigenvalues --   -0.57402  -0.56570  -0.56313  -0.55835  -0.55077
 Alpha  occ. eigenvalues --   -0.54607  -0.54157  -0.53707  -0.53043  -0.52782
 Alpha  occ. eigenvalues --   -0.52697  -0.52139  -0.51535  -0.51323  -0.51132
 Alpha  occ. eigenvalues --   -0.50612  -0.50296  -0.50008  -0.49566  -0.48993
 Alpha  occ. eigenvalues --   -0.47683  -0.45952  -0.44473
 Alpha virt. eigenvalues --    0.05350   0.06367   0.13099   0.14060   0.19056
 Alpha virt. eigenvalues --    0.20999   0.21535   0.22366   0.23831   0.24157
 Alpha virt. eigenvalues --    0.24823   0.26814   0.28009   0.28808   0.31911
 Alpha virt. eigenvalues --    0.33782   0.34341   0.48125   0.50405   0.51047
 Alpha virt. eigenvalues --    0.51844   0.52479   0.53693   0.54589   0.55918
 Alpha virt. eigenvalues --    0.57708   0.60228   0.62925   0.63851   0.66511
 Alpha virt. eigenvalues --    0.72513   0.72977   0.73401   0.85887   0.88437
 Alpha virt. eigenvalues --    0.92480   0.94169   1.01018   1.02039   1.03263
 Alpha virt. eigenvalues --    1.05461   1.08213   1.09540   1.11535   1.12263
 Alpha virt. eigenvalues --    1.13745   1.14540   1.15444   1.16264   1.17204
 Alpha virt. eigenvalues --    1.18575   1.21689   1.23926   1.25209   1.28409
 Alpha virt. eigenvalues --    1.29802   1.30202   1.30865   1.31904   1.33663
 Alpha virt. eigenvalues --    1.34965   1.36161   1.36305   1.37126   1.37801
 Alpha virt. eigenvalues --    1.38750   1.39246   1.39753   1.40068   1.40634
 Alpha virt. eigenvalues --    1.41038   1.42395   1.42985   1.43617   1.44694
 Alpha virt. eigenvalues --    1.45183   1.46625   1.48283   1.49688   1.51220
 Alpha virt. eigenvalues --    1.53522   1.54548   1.56190   1.61166   1.62075
 Alpha virt. eigenvalues --    1.63897   1.65459   1.68701   1.71045   1.71654
 Alpha virt. eigenvalues --    1.72410   1.73885   1.74372   1.76822   1.77616
 Alpha virt. eigenvalues --    1.79763   1.81552   1.83015   1.83753   1.84222
 Alpha virt. eigenvalues --    1.84930   1.85289   1.87458   1.87705   1.88269
 Alpha virt. eigenvalues --    1.89136   1.91546   1.92308   1.92740   1.93709
 Alpha virt. eigenvalues --    1.95304   1.95968   1.98154   1.99082   1.99479
 Alpha virt. eigenvalues --    2.00680   2.02232   2.02449   2.03467   2.03847
 Alpha virt. eigenvalues --    2.05861   2.06218   2.07395   2.08408   2.08982
 Alpha virt. eigenvalues --    2.09218   2.09594   2.09804   2.11275   2.14303
 Alpha virt. eigenvalues --    2.17232   2.18653   2.19210   2.20158   2.22318
 Alpha virt. eigenvalues --    2.25562   2.28798   2.30622   2.36087   2.36619
 Alpha virt. eigenvalues --    2.39082   2.40459   2.41646   2.42508   2.44088
 Alpha virt. eigenvalues --    2.48101   2.50625   2.52361   2.54421   2.56692
 Alpha virt. eigenvalues --    2.60563   2.61922   2.65348   2.71358   2.72721
 Alpha virt. eigenvalues --    2.76859   2.77865   2.83318   2.84917   2.86505
 Alpha virt. eigenvalues --    2.89675   2.89950   2.91000   2.93355   2.96297
 Alpha virt. eigenvalues --    2.98429   3.03069   3.05676   3.06633   3.08359
 Alpha virt. eigenvalues --    3.09435   3.13137   3.14654   3.16972   3.20182
 Alpha virt. eigenvalues --    3.22203   3.24746   3.27744   3.31175   4.06107
 Alpha virt. eigenvalues --    4.20194   4.32289   4.38269   4.40759   4.48735
 Alpha virt. eigenvalues --    4.59335   4.63590   4.82987   4.90040   5.04417
 Alpha virt. eigenvalues --    5.14324   5.44757   5.56433   5.83911   5.95718
 Alpha virt. eigenvalues --    6.28517   6.65857
          Condensed to atoms (all electrons):
               1          2          3          4          5          6
     1  F    9.050369   0.298124  -0.034642  -0.037272  -0.043865   0.014330
     2  C    0.298124   3.811657   0.314865   0.338647   0.229297   0.004140
     3  F   -0.034642   0.314865   9.052947  -0.038767  -0.045977  -0.002327
     4  F   -0.037272   0.338647  -0.038767   9.020515  -0.039381  -0.000600
     5  O   -0.043865   0.229297  -0.045977  -0.039381   8.371127   0.163998
     6  C    0.014330   0.004140  -0.002327  -0.000600   0.163998   4.454684
     7  F   -0.002971   0.012548  -0.002551  -0.000013  -0.046361   0.262149
     8  F   -0.002774  -0.001958  -0.000020  -0.000018  -0.048534   0.247573
     9  C    0.000326  -0.000916  -0.000501  -0.000040  -0.032076   0.176449
    10  F    0.000000  -0.000121   0.000003   0.000000   0.000463  -0.025771
    11  F    0.000000   0.000009   0.000000   0.000000   0.000603  -0.018679
    12  C   -0.000011  -0.000078   0.000012  -0.000002   0.002602  -0.052113
    13  F    0.000000   0.000234   0.000000   0.000000   0.002247  -0.000445
    14  F    0.000000   0.000000   0.000000   0.000000   0.000002   0.002110
    15  C    0.000008   0.000021   0.000000   0.000000  -0.000963  -0.001252
    16  F    0.000000   0.000000   0.000000   0.000000   0.000002  -0.000042
    17  F    0.000000   0.000000   0.000000   0.000000   0.000012  -0.003150
    18  F   -0.000007   0.000173   0.000000  -0.000001  -0.001027   0.015685
               7          8          9         10         11         12
     1  F   -0.002971  -0.002774   0.000326   0.000000   0.000000  -0.000011
     2  C    0.012548  -0.001958  -0.000916  -0.000121   0.000009  -0.000078
     3  F   -0.002551  -0.000020  -0.000501   0.000003   0.000000   0.000012
     4  F   -0.000013  -0.000018  -0.000040   0.000000   0.000000  -0.000002
     5  O   -0.046361  -0.048534  -0.032076   0.000463   0.000603   0.002602
     6  C    0.262149   0.247573   0.176449  -0.025771  -0.018679  -0.052113
     7  F    9.085937  -0.038307  -0.010567  -0.000574  -0.001062   0.001738
     8  F   -0.038307   9.124054  -0.025456   0.000323  -0.000232  -0.006431
     9  C   -0.010567  -0.025456   4.813543   0.249866   0.249643   0.148528
    10  F   -0.000574   0.000323   0.249866   9.098391  -0.039317  -0.015339
    11  F   -0.001062  -0.000232   0.249643  -0.039317   9.093295  -0.026663
    12  C    0.001738  -0.006431   0.148528  -0.015339  -0.026663   4.868967
    13  F   -0.000001   0.000005  -0.023540  -0.000722   0.000308   0.241467
    14  F   -0.000001   0.000000  -0.013227  -0.001114  -0.000682   0.240729
    15  C    0.000015   0.016008  -0.052596   0.001784   0.002143   0.185248
    16  F    0.000000   0.000000   0.002050  -0.000001  -0.000002  -0.018152
    17  F    0.000000  -0.000378   0.008966   0.000001   0.000199  -0.035596
    18  F   -0.000001  -0.010610  -0.006761   0.000001  -0.000013  -0.026587
              13         14         15         16         17         18
     1  F    0.000000   0.000000   0.000008   0.000000   0.000000  -0.000007
     2  C    0.000234   0.000000   0.000021   0.000000   0.000000   0.000173
     3  F    0.000000   0.000000   0.000000   0.000000   0.000000   0.000000
     4  F    0.000000   0.000000   0.000000   0.000000   0.000000  -0.000001
     5  O    0.002247   0.000002  -0.000963   0.000002   0.000012  -0.001027
     6  C   -0.000445   0.002110  -0.001252  -0.000042  -0.003150   0.015685
     7  F   -0.000001  -0.000001   0.000015   0.000000   0.000000  -0.000001
     8  F    0.000005   0.000000   0.016008   0.000000  -0.000378  -0.010610
     9  C   -0.023540  -0.013227  -0.052596   0.002050   0.008966  -0.006761
    10  F   -0.000722  -0.001114   0.001784  -0.000001   0.000001   0.000001
    11  F    0.000308  -0.000682   0.002143  -0.000002   0.000199  -0.000013
    12  C    0.241467   0.240729   0.185248  -0.018152  -0.035596  -0.026587
    13  F    9.095621  -0.039514  -0.018095  -0.000725   0.000301  -0.000207
    14  F   -0.039514   9.097422  -0.019204  -0.000460  -0.000229   0.000311
    15  C   -0.018095  -0.019204   4.283487   0.290402   0.279826   0.263260
    16  F   -0.000725  -0.000460   0.290402   9.055081  -0.038914  -0.040125
    17  F    0.000301  -0.000229   0.279826  -0.038914   9.066843  -0.037339
    18  F   -0.000207   0.000311   0.263260  -0.040125  -0.037339   9.084487
 Mulliken charges:
               1
     1  F   -0.241614
     2  C    0.993357
     3  F   -0.243041
     4  F   -0.243069
     5  O   -0.512170
     6  C    0.763264
     7  F   -0.259980
     8  F   -0.253246
     9  C    0.516310
    10  F   -0.267872
    11  F   -0.259550
    12  C    0.491679
    13  F   -0.256934
    14  F   -0.266144
    15  C    0.769909
    16  F   -0.249116
    17  F   -0.240542
    18  F   -0.241240
 Sum of Mulliken charges =   0.00000
 Mulliken charges with hydrogens summed into heavy atoms:
               1
     1  F   -0.241614
     2  C    0.993357
     3  F   -0.243041
     4  F   -0.243069
     5  O   -0.512170
     6  C    0.763264
     7  F   -0.259980
     8  F   -0.253246
     9  C    0.516310
    10  F   -0.267872
    11  F   -0.259550
    12  C    0.491679
    13  F   -0.256934
    14  F   -0.266144
    15  C    0.769909
    16  F   -0.249116
    17  F   -0.240542
    18  F   -0.241240
 Electronic spatial extent (au):  <R**2>=           3611.3094
 Charge=              0.0000 electrons
 Dipole moment (field-independent basis, Debye):
    X=              0.0748    Y=              0.0653    Z=              0.0848  Tot=              0.1306
 Quadrupole moment (field-independent basis, Debye-Ang):
   XX=            -92.9829   YY=            -93.2910   ZZ=            -93.3063
   XY=             -0.1644   XZ=              0.1071   YZ=             -0.0097
 Traceless Quadrupole moment (field-independent basis, Debye-Ang):
   XX=              0.2105   YY=             -0.0976   ZZ=             -0.1129
   XY=             -0.1644   XZ=              0.1071   YZ=             -0.0097
 Octapole moment (field-independent basis, Debye-Ang**2):
  XXX=              3.5641  YYY=             36.3459  ZZZ=              5.0654  XYY=              0.5484
  XXY=             12.5732  XXZ=              2.0469  XZZ=              1.9011  YZZ=             11.0785
  YYZ=              0.9492  XYZ=              0.3845
 Hexadecapole moment (field-independent basis, Debye-Ang**3):
 XXXX=          -2128.0719 YYYY=           -608.2539 ZZZZ=           -742.8123 XXXY=            -13.0999
 XXXZ=           -197.9620 YYYX=             -5.3062 YYYZ=             64.2926 ZZZX=           -205.8550
 ZZZY=             62.3017 XXYY=           -459.8821 XXZZ=           -474.5181 YYZZ=           -225.3276
 XXYZ=             21.4443 YYXZ=            -68.9358 ZZXY=             -3.4792
 N-N= 1.805391310712D+03 E-N=-7.082243022093D+03  KE= 1.453376612806D+03
 No NMR shielding tensors so no spin-rotation constants.
 Leave Link  601 at Sun Feb  2 04:54:50 2025, MaxMem=  5368709120 cpu:         3.6
 (Enter /home/k0335/k033513/app/g09/l9999.exe)
 1\1\GINC-C18U06N3\SP\RCAM-B3LYP\6-31G(d,p)\C5F12O1\K033513\02-Feb-2025
 \0\\#p CAM-B3LYP/6-31G(d,p) SCRF=(PCM,Solvent=Generic,Read) NoSymm out
 =wfn\\Title FFKM0_neu\\0,1\F,0,2.354945,0.009116,2.0127\C,0,2.49515,-0
 .676267,0.865303\F,0,3.461671,-0.122495,0.111209\F,0,2.86627,-1.937385
 ,1.16655\O,0,1.297012,-0.737094,0.140886\C,0,0.694526,0.530377,0.11216
 3\F,0,1.64006,1.486935,-0.06211\F,0,0.140585,0.75559,1.328352\C,0,-0.3
 75922,0.65938,-0.970311\F,0,0.239478,0.692933,-2.196594\F,0,-0.998235,
 1.86983,-0.852941\C,0,-1.401753,-0.450337,-0.983755\F,0,-0.815983,-1.6
 38349,-1.316401\F,0,-2.300282,-0.202185,-1.989068\C,0,-2.139865,-0.586
 886,0.331757\F,0,-3.154109,-1.481133,0.239531\F,0,-2.674097,0.582728,0
 .744389\F,0,-1.329451,-1.034117,1.31834\\Version=ES64L-G09RevD.01\HF=-
 1463.4562402\RMSD=8.792e-09\Dipole=0.0294106,0.0256968,0.0333602\Quadr
 upole=0.1565117,-0.0725505,-0.0839612,-0.1222384,0.0795988,-0.0072078\
 PG=C01 [X(C5F12O1)]\\@

 Writing a WFN file to "wang5/FFKM0/FFKM0_neu.wfn"


 Not by the face shall a man be known, but by the mask.
                               -- Karen Blixen
 Job cpu time:       0 days  0 hours  2 minutes 53.7 seconds.
 File lengths (MBytes):  RWF=     86 Int=      0 D2E=      0 Chk=      4 Scr=      1
 Normal termination of Gaussian 09 at Sun Feb  2 04:54:51 2025.
