 Entering Gaussian System, Link 0=g09
 Initial command:
 /home/k0335/k033513/app/g09/l1.exe "/home/k0335/k033513/app/g09/scratch/Gau-1531315.inp" -scrdir="/home/k0335/k033513/app/g09/scratch/"
 Default is to use a total of  36 processors:
                               36 via shared-memory
                                1 via Linda
 Entering Link 1 = /home/k0335/k033513/app/g09/l1.exe PID=   1531316.
  
 Copyright (c) 1988,1990,1992,1993,1995,1998,2003,2009,2013,
            Gaussian, Inc.  All Rights Reserved.
  
 This is part of the Gaussian(R) 09 program.  It is based on
 the Gaussian(R) 03 system (copyright 2003, Gaussian, Inc.),
 the Gaussian(R) 98 system (copyright 1998, Gaussian, Inc.),
 the Gaussian(R) 94 system (copyright 1995, Gaussian, Inc.),
 the Gaussian 92(TM) system (copyright 1992, Gaussian, Inc.),
 the Gaussian 90(TM) system (copyright 1990, Gaussian, Inc.),
 the Gaussian 88(TM) system (copyright 1988, Gaussian, Inc.),
 the Gaussian 86(TM) system (copyright 1986, Carnegie Mellon
 University), and the Gaussian 82(TM) system (copyright 1983,
 Carnegie Mellon University). Gaussian is a federally registered
 trademark of Gaussian, Inc.
  
 This software contains proprietary and confidential information,
 including trade secrets, belonging to Gaussian, Inc.
  
 This software is provided under written license and may be
 used, copied, transmitted, or stored only in accord with that
 written license.
  
 The following legend is applicable only to US Government
 contracts under FAR:
  
                    RESTRICTED RIGHTS LEGEND
  
 Use, reproduction and disclosure by the US Government is
 subject to restrictions as set forth in subparagraphs (a)
 and (c) of the Commercial Computer Software - Restricted
 Rights clause in FAR 52.227-19.
  
 Gaussian, Inc.
 340 Quinnipiac St., Bldg. 40, Wallingford CT 06492
  
  
 ---------------------------------------------------------------
 Warning -- This program may not be used in any manner that
 competes with the business of Gaussian, Inc. or will provide
 assistance to any competitor of Gaussian, Inc.  The licensee
 of this program is prohibited from giving any competitor of
 Gaussian, Inc. access to this program.  By using this program,
 the user acknowledges that Gaussian, Inc. is engaged in the
 business of creating and licensing software in the field of
 computational chemistry and represents and warrants to the
 licensee that it is not a competitor of Gaussian, Inc. and that
 it will not use this program in any manner prohibited above.
 ---------------------------------------------------------------
  

 Cite this work as:
 Gaussian 09, Revision D.01,
 M. J. Frisch, G. W. Trucks, H. B. Schlegel, G. E. Scuseria, 
 M. A. Robb, J. R. Cheeseman, G. Scalmani, V. Barone, B. Mennucci, 
 G. A. Petersson, H. Nakatsuji, M. Caricato, X. Li, H. P. Hratchian, 
 A. F. Izmaylov, J. Bloino, G. Zheng, J. L. Sonnenberg, M. Hada, 
 M. Ehara, K. Toyota, R. Fukuda, J. Hasegawa, M. Ishida, T. Nakajima, 
 Y. Honda, O. Kitao, H. Nakai, T. Vreven, J. A. Montgomery, Jr., 
 J. E. Peralta, F. Ogliaro, M. Bearpark, J. J. Heyd, E. Brothers, 
 K. N. Kudin, V. N. Staroverov, T. Keith, R. Kobayashi, J. Normand, 
 K. Raghavachari, A. Rendell, J. C. Burant, S. S. Iyengar, J. Tomasi, 
 M. Cossi, N. Rega, J. M. Millam, M. Klene, J. E. Knox, J. B. Cross, 
 V. Bakken, C. Adamo, J. Jaramillo, R. Gomperts, R. E. Stratmann, 
 O. Yazyev, A. J. Austin, R. Cammi, C. Pomelli, J. W. Ochterski, 
 R. L. Martin, K. Morokuma, V. G. Zakrzewski, G. A. Voth, 
 P. Salvador, J. J. Dannenberg, S. Dapprich, A. D. Daniels, 
 O. Farkas, J. B. Foresman, J. V. Ortiz, J. Cioslowski, 
 and D. J. Fox, Gaussian, Inc., Wallingford CT, 2013.
 
 ******************************************
 Gaussian 09:  ES64L-G09RevD.01 24-Apr-2013
                 5-Feb-2025 
 ******************************************
 %nprocshared=24
 Will use up to   24 processors via shared memory.
 %mem=40GB
 %rwf=cytopopt/OA1/OA1_neu.rwf
 %nosave
 %chk=cytopopt/OA1/OA1_neu.chk
 ----------------------------------------------------------------------
 #p CAM-B3LYP/6-31G(d,p) opt SCRF=(PCM,Solvent=Generic,Read) NoSymm out
 =wfn
 ----------------------------------------------------------------------
 1/14=-1,18=20,19=15,26=3,38=1,40=2/1,3;
 2/9=110,12=2,15=1,17=6,18=5,40=1/2;
 3/5=1,6=6,7=101,11=2,16=1,25=1,30=1,70=2203,71=1,72=-2,74=-40/1,2,3;
 4//1;
 5/5=2,38=5/2;
 6/7=2,8=2,9=2,10=2,28=1/1;
 7/30=1/1,2,3,16;
 1/14=-1,18=20,19=15,26=3/3(2);
 2/9=110,15=1/2;
 99/6=100/99;
 2/9=110,15=1/2;
 3/5=1,6=6,7=101,11=2,16=1,25=1,30=1,70=2205,71=1,72=-2,74=-40/1,2,3;
 4/5=5,16=3,69=1/1;
 5/5=2,38=5/2;
 7/30=1/1,2,3,16;
 1/14=-1,18=20,19=15,26=3/3(-5);
 2/9=110,15=1/2;
 6/7=2,8=2,9=2,10=2,19=2,28=1/1;
 99/6=100,9=1/99;
 Leave Link    1 at Wed Feb  5 13:11:15 2025, MaxMem=  5368709120 cpu:         3.3
 (Enter /home/k0335/k033513/app/g09/l101.exe)
 -------------
 Title OA1_neu
 -------------
 Symbolic Z-matrix:
 Charge =  0 Multiplicity = 1
 F                    -6.84147   2.07096   1.87652 
 C                    -6.17281   1.56737   0.82129 
 F                    -6.79601   1.99977  -0.29833 
 C                    -6.05229   0.05794   0.85295 
 F                    -5.7944   -0.38892   2.10055 
 F                    -7.15164  -0.58796   0.42181 
 C                    -4.86921  -0.11744  -0.0429 
 F                    -5.27544   0.18395  -1.32508 
 C                    -4.29012  -1.49817  -0.03605 
 F                    -3.92242  -1.82776   1.22874 
 C                    -5.27921  -2.50652  -0.61497 
 O                    -6.02056  -3.13567   0.32388 
 O                    -5.46601  -2.75364  -1.79642 
 F                    -3.13824  -1.47139  -0.76745 
 C                    -3.96726   1.02712   0.42251 
 F                    -3.27628   1.49568  -0.65984 
 C                    -2.96327   0.82873   1.58288 
 F                    -2.60585   2.07929   2.03833 
 C                    -1.67248   0.10203   1.15637 
 N                    -0.77551   0.88474   0.44276 
 C                     0.52985   0.36982   0.07528 
 C                     1.17636   1.23478  -1.002 
 C                     2.50515   0.67503  -1.51483 
 C                     3.60587   0.65642  -0.45187 
 C                     4.93976   0.19218  -1.04355 
 C                     6.0389    0.16691   0.02103 
 C                     7.41752  -0.18929  -0.53922 
 C                     7.50614  -1.60892  -1.07758 
 O                    -1.44562  -1.07743   1.41498 
 F                    -3.58408   0.24309   2.64111 
 O                    -4.8612    2.11879   0.78797 
 H                    -6.60152  -3.75134  -0.17434 
 H                    -0.87592   1.89276   0.52874 
 H                     1.13408   0.35329   0.98808 
 H                     0.41698  -0.66253  -0.27428 
 H                     1.32439   2.25333  -0.62187 
 H                     0.48697   1.32214  -1.85164 
 H                     2.35058  -0.33792  -1.90605 
 H                     2.83319   1.29301  -2.35989 
 H                     3.32551  -0.01458   0.36778 
 H                     3.7224    1.66035  -0.02623 
 H                     5.23358   0.86421  -1.85883 
 H                     4.81142  -0.80689  -1.47496 
 H                     6.10568   1.15611   0.4908 
 H                     5.77017  -0.5416    0.81406 
 H                     7.69372   0.51849  -1.32941 
 H                     8.15762  -0.07428   0.26173 
 H                     7.20395  -2.33702  -0.31825 
 H                     8.53603  -1.83478  -1.37236 
 H                     6.87302  -1.74421  -1.95925 
 
 NAtoms=     50 NQM=       50 NQMF=       0 NMMI=      0 NMMIF=      0
                NMic=       0 NMicF=      0.
                    Isotopes and Nuclear Properties:
 (Nuclear quadrupole moments (NQMom) in fm**2, nuclear magnetic moments (NMagM)
  in nuclear magnetons)

  Atom         1           2           3           4           5           6           7           8           9          10
 IAtWgt=          19          12          19          12          19          19          12          19          12          19
 AtmWgt=  18.9984033  12.0000000  18.9984033  12.0000000  18.9984033  18.9984033  12.0000000  18.9984033  12.0000000  18.9984033
 NucSpn=           1           0           1           0           1           1           0           1           0           1
 AtZEff=   0.0000000   0.0000000   0.0000000   0.0000000   0.0000000   0.0000000   0.0000000   0.0000000   0.0000000   0.0000000
 NQMom=    0.0000000   0.0000000   0.0000000   0.0000000   0.0000000   0.0000000   0.0000000   0.0000000   0.0000000   0.0000000
 NMagM=    2.6288670   0.0000000   2.6288670   0.0000000   2.6288670   2.6288670   0.0000000   2.6288670   0.0000000   2.6288670
 AtZNuc=   9.0000000   6.0000000   9.0000000   6.0000000   9.0000000   9.0000000   6.0000000   9.0000000   6.0000000   9.0000000

  Atom        11          12          13          14          15          16          17          18          19          20
 IAtWgt=          12          16          16          19          12          19          12          19          12          14
 AtmWgt=  12.0000000  15.9949146  15.9949146  18.9984033  12.0000000  18.9984033  12.0000000  18.9984033  12.0000000  14.0030740
 NucSpn=           0           0           0           1           0           1           0           1           0           2
 AtZEff=   0.0000000   0.0000000   0.0000000   0.0000000   0.0000000   0.0000000   0.0000000   0.0000000   0.0000000   0.0000000
 NQMom=    0.0000000   0.0000000   0.0000000   0.0000000   0.0000000   0.0000000   0.0000000   0.0000000   0.0000000   2.0440000
 NMagM=    0.0000000   0.0000000   0.0000000   2.6288670   0.0000000   2.6288670   0.0000000   2.6288670   0.0000000   0.4037610
 AtZNuc=   6.0000000   8.0000000   8.0000000   9.0000000   6.0000000   9.0000000   6.0000000   9.0000000   6.0000000   7.0000000

  Atom        21          22          23          24          25          26          27          28          29          30
 IAtWgt=          12          12          12          12          12          12          12          12          16          19
 AtmWgt=  12.0000000  12.0000000  12.0000000  12.0000000  12.0000000  12.0000000  12.0000000  12.0000000  15.9949146  18.9984033
 NucSpn=           0           0           0           0           0           0           0           0           0           1
 AtZEff=   0.0000000   0.0000000   0.0000000   0.0000000   0.0000000   0.0000000   0.0000000   0.0000000   0.0000000   0.0000000
 NQMom=    0.0000000   0.0000000   0.0000000   0.0000000   0.0000000   0.0000000   0.0000000   0.0000000   0.0000000   0.0000000
 NMagM=    0.0000000   0.0000000   0.0000000   0.0000000   0.0000000   0.0000000   0.0000000   0.0000000   0.0000000   2.6288670
 AtZNuc=   6.0000000   6.0000000   6.0000000   6.0000000   6.0000000   6.0000000   6.0000000   6.0000000   8.0000000   9.0000000

  Atom        31          32          33          34          35          36          37          38          39          40
 IAtWgt=          16           1           1           1           1           1           1           1           1           1
 AtmWgt=  15.9949146   1.0078250   1.0078250   1.0078250   1.0078250   1.0078250   1.0078250   1.0078250   1.0078250   1.0078250
 NucSpn=           0           1           1           1           1           1           1           1           1           1
 AtZEff=   0.0000000   0.0000000   0.0000000   0.0000000   0.0000000   0.0000000   0.0000000   0.0000000   0.0000000   0.0000000
 NQMom=    0.0000000   0.0000000   0.0000000   0.0000000   0.0000000   0.0000000   0.0000000   0.0000000   0.0000000   0.0000000
 NMagM=    0.0000000   2.7928460   2.7928460   2.7928460   2.7928460   2.7928460   2.7928460   2.7928460   2.7928460   2.7928460
 AtZNuc=   8.0000000   1.0000000   1.0000000   1.0000000   1.0000000   1.0000000   1.0000000   1.0000000   1.0000000   1.0000000

  Atom        41          42          43          44          45          46          47          48          49          50
 IAtWgt=           1           1           1           1           1           1           1           1           1           1
 AtmWgt=   1.0078250   1.0078250   1.0078250   1.0078250   1.0078250   1.0078250   1.0078250   1.0078250   1.0078250   1.0078250
 NucSpn=           1           1           1           1           1           1           1           1           1           1
 AtZEff=   0.0000000   0.0000000   0.0000000   0.0000000   0.0000000   0.0000000   0.0000000   0.0000000   0.0000000   0.0000000
 NQMom=    0.0000000   0.0000000   0.0000000   0.0000000   0.0000000   0.0000000   0.0000000   0.0000000   0.0000000   0.0000000
 NMagM=    2.7928460   2.7928460   2.7928460   2.7928460   2.7928460   2.7928460   2.7928460   2.7928460   2.7928460   2.7928460
 AtZNuc=   1.0000000   1.0000000   1.0000000   1.0000000   1.0000000   1.0000000   1.0000000   1.0000000   1.0000000   1.0000000
 Leave Link  101 at Wed Feb  5 13:11:15 2025, MaxMem=  5368709120 cpu:         3.0
 (Enter /home/k0335/k033513/app/g09/l103.exe)

 GradGradGradGradGradGradGradGradGradGradGradGradGradGradGradGradGradGrad
 Berny optimization.
 Initialization pass.
                           ----------------------------
                           !    Initial Parameters    !
                           ! (Angstroms and Degrees)  !
 --------------------------                            --------------------------
 ! Name  Definition              Value          Derivative Info.                !
 --------------------------------------------------------------------------------
 ! R1    R(1,2)                  1.3469         estimate D2E/DX2                !
 ! R2    R(2,3)                  1.3524         estimate D2E/DX2                !
 ! R3    R(2,4)                  1.5146         estimate D2E/DX2                !
 ! R4    R(2,31)                 1.4232         estimate D2E/DX2                !
 ! R5    R(4,5)                  1.3501         estimate D2E/DX2                !
 ! R6    R(4,6)                  1.346          estimate D2E/DX2                !
 ! R7    R(4,7)                  1.4943         estimate D2E/DX2                !
 ! R8    R(7,8)                  1.3783         estimate D2E/DX2                !
 ! R9    R(7,9)                  1.4973         estimate D2E/DX2                !
 ! R10   R(7,15)                 1.5298         estimate D2E/DX2                !
 ! R11   R(9,10)                 1.3578         estimate D2E/DX2                !
 ! R12   R(9,11)                 1.5265         estimate D2E/DX2                !
 ! R13   R(9,14)                 1.3647         estimate D2E/DX2                !
 ! R14   R(11,12)                1.3516         estimate D2E/DX2                !
 ! R15   R(11,13)                1.2214         estimate D2E/DX2                !
 ! R16   R(12,32)                0.9822         estimate D2E/DX2                !
 ! R17   R(15,16)                1.3669         estimate D2E/DX2                !
 ! R18   R(15,17)                1.5472         estimate D2E/DX2                !
 ! R19   R(15,31)                1.4575         estimate D2E/DX2                !
 ! R20   R(17,18)                1.3781         estimate D2E/DX2                !
 ! R21   R(17,19)                1.5415         estimate D2E/DX2                !
 ! R22   R(17,30)                1.3595         estimate D2E/DX2                !
 ! R23   R(19,20)                1.388          estimate D2E/DX2                !
 ! R24   R(19,29)                1.2286         estimate D2E/DX2                !
 ! R25   R(20,21)                1.4506         estimate D2E/DX2                !
 ! R26   R(20,33)                1.0166         estimate D2E/DX2                !
 ! R27   R(21,22)                1.5253         estimate D2E/DX2                !
 ! R28   R(21,34)                1.0948         estimate D2E/DX2                !
 ! R29   R(21,35)                1.0957         estimate D2E/DX2                !
 ! R30   R(22,23)                1.5304         estimate D2E/DX2                !
 ! R31   R(22,36)                1.0972         estimate D2E/DX2                !
 ! R32   R(22,37)                1.0976         estimate D2E/DX2                !
 ! R33   R(23,24)                1.5303         estimate D2E/DX2                !
 ! R34   R(23,38)                1.0968         estimate D2E/DX2                !
 ! R35   R(23,39)                1.0971         estimate D2E/DX2                !
 ! R36   R(24,25)                1.5313         estimate D2E/DX2                !
 ! R37   R(24,40)                1.0957         estimate D2E/DX2                !
 ! R38   R(24,41)                1.0966         estimate D2E/DX2                !
 ! R39   R(25,26)                1.5304         estimate D2E/DX2                !
 ! R40   R(25,42)                1.0967         estimate D2E/DX2                !
 ! R41   R(25,43)                1.0958         estimate D2E/DX2                !
 ! R42   R(26,27)                1.5301         estimate D2E/DX2                !
 ! R43   R(26,44)                1.0971         estimate D2E/DX2                !
 ! R44   R(26,45)                1.0969         estimate D2E/DX2                !
 ! R45   R(27,28)                1.5209         estimate D2E/DX2                !
 ! R46   R(27,46)                1.0962         estimate D2E/DX2                !
 ! R47   R(27,47)                1.0966         estimate D2E/DX2                !
 ! R48   R(28,48)                1.0945         estimate D2E/DX2                !
 ! R49   R(28,49)                1.0948         estimate D2E/DX2                !
 ! R50   R(28,50)                1.0938         estimate D2E/DX2                !
 ! A1    A(1,2,3)              107.4754         estimate D2E/DX2                !
 ! A2    A(1,2,4)              113.3117         estimate D2E/DX2                !
 ! A3    A(1,2,31)             109.3286         estimate D2E/DX2                !
 ! A4    A(3,2,4)              111.878          estimate D2E/DX2                !
 ! A5    A(3,2,31)             106.3452         estimate D2E/DX2                !
 ! A6    A(4,2,31)             108.2579         estimate D2E/DX2                !
 ! A7    A(2,4,5)              111.3701         estimate D2E/DX2                !
 ! A8    A(2,4,6)              113.9891         estimate D2E/DX2                !
 ! A9    A(2,4,7)               99.6387         estimate D2E/DX2                !
 ! A10   A(5,4,6)              107.0486         estimate D2E/DX2                !
 ! A11   A(5,4,7)              111.3412         estimate D2E/DX2                !
 ! A12   A(6,4,7)              113.4719         estimate D2E/DX2                !
 ! A13   A(4,7,8)              107.378          estimate D2E/DX2                !
 ! A14   A(4,7,9)              114.3115         estimate D2E/DX2                !
 ! A15   A(4,7,15)             101.338          estimate D2E/DX2                !
 ! A16   A(8,7,9)              108.6559         estimate D2E/DX2                !
 ! A17   A(8,7,15)             107.0485         estimate D2E/DX2                !
 ! A18   A(9,7,15)             117.4217         estimate D2E/DX2                !
 ! A19   A(7,9,10)             109.4421         estimate D2E/DX2                !
 ! A20   A(7,9,11)             110.9044         estimate D2E/DX2                !
 ! A21   A(7,9,14)             107.8122         estimate D2E/DX2                !
 ! A22   A(10,9,11)            111.6166         estimate D2E/DX2                !
 ! A23   A(10,9,14)            105.9872         estimate D2E/DX2                !
 ! A24   A(11,9,14)            110.8918         estimate D2E/DX2                !
 ! A25   A(9,11,12)            113.5438         estimate D2E/DX2                !
 ! A26   A(9,11,13)            126.8401         estimate D2E/DX2                !
 ! A27   A(12,11,13)           119.5929         estimate D2E/DX2                !
 ! A28   A(11,12,32)           105.2986         estimate D2E/DX2                !
 ! A29   A(7,15,16)            108.2773         estimate D2E/DX2                !
 ! A30   A(7,15,17)            120.9865         estimate D2E/DX2                !
 ! A31   A(7,15,31)            105.9652         estimate D2E/DX2                !
 ! A32   A(16,15,17)           108.0453         estimate D2E/DX2                !
 ! A33   A(16,15,31)           104.5866         estimate D2E/DX2                !
 ! A34   A(17,15,31)           107.8171         estimate D2E/DX2                !
 ! A35   A(15,17,18)           107.4463         estimate D2E/DX2                !
 ! A36   A(15,17,19)           113.3485         estimate D2E/DX2                !
 ! A37   A(15,17,30)           110.0413         estimate D2E/DX2                !
 ! A38   A(18,17,19)           107.5823         estimate D2E/DX2                !
 ! A39   A(18,17,30)           104.6014         estimate D2E/DX2                !
 ! A40   A(19,17,30)           113.2454         estimate D2E/DX2                !
 ! A41   A(17,19,20)           114.68           estimate D2E/DX2                !
 ! A42   A(17,19,29)           123.2957         estimate D2E/DX2                !
 ! A43   A(20,19,29)           122.0235         estimate D2E/DX2                !
 ! A44   A(19,20,21)           120.7717         estimate D2E/DX2                !
 ! A45   A(19,20,33)           116.8613         estimate D2E/DX2                !
 ! A46   A(21,20,33)           117.5338         estimate D2E/DX2                !
 ! A47   A(20,21,22)           111.0413         estimate D2E/DX2                !
 ! A48   A(20,21,34)           106.9061         estimate D2E/DX2                !
 ! A49   A(20,21,35)           108.8184         estimate D2E/DX2                !
 ! A50   A(22,21,34)           111.3139         estimate D2E/DX2                !
 ! A51   A(22,21,35)           110.6465         estimate D2E/DX2                !
 ! A52   A(34,21,35)           107.9754         estimate D2E/DX2                !
 ! A53   A(21,22,23)           113.4085         estimate D2E/DX2                !
 ! A54   A(21,22,36)           109.8108         estimate D2E/DX2                !
 ! A55   A(21,22,37)           109.0026         estimate D2E/DX2                !
 ! A56   A(23,22,36)           109.7855         estimate D2E/DX2                !
 ! A57   A(23,22,37)           108.3647         estimate D2E/DX2                !
 ! A58   A(36,22,37)           106.2019         estimate D2E/DX2                !
 ! A59   A(22,23,24)           113.3424         estimate D2E/DX2                !
 ! A60   A(22,23,38)           109.5701         estimate D2E/DX2                !
 ! A61   A(22,23,39)           108.1627         estimate D2E/DX2                !
 ! A62   A(24,23,38)           109.7482         estimate D2E/DX2                !
 ! A63   A(24,23,39)           109.0754         estimate D2E/DX2                !
 ! A64   A(38,23,39)           106.7148         estimate D2E/DX2                !
 ! A65   A(23,24,25)           111.2141         estimate D2E/DX2                !
 ! A66   A(23,24,40)           110.0597         estimate D2E/DX2                !
 ! A67   A(23,24,41)           109.5661         estimate D2E/DX2                !
 ! A68   A(25,24,40)           109.042          estimate D2E/DX2                !
 ! A69   A(25,24,41)           109.5693         estimate D2E/DX2                !
 ! A70   A(40,24,41)           107.3044         estimate D2E/DX2                !
 ! A71   A(24,25,26)           111.2133         estimate D2E/DX2                !
 ! A72   A(24,25,42)           109.5637         estimate D2E/DX2                !
 ! A73   A(24,25,43)           109.057          estimate D2E/DX2                !
 ! A74   A(26,25,42)           109.5632         estimate D2E/DX2                !
 ! A75   A(26,25,43)           110.0559         estimate D2E/DX2                !
 ! A76   A(42,25,43)           107.3025         estimate D2E/DX2                !
 ! A77   A(25,26,27)           113.3427         estimate D2E/DX2                !
 ! A78   A(25,26,44)           109.0677         estimate D2E/DX2                !
 ! A79   A(25,26,45)           109.7336         estimate D2E/DX2                !
 ! A80   A(27,26,44)           108.1691         estimate D2E/DX2                !
 ! A81   A(27,26,45)           109.5781         estimate D2E/DX2                !
 ! A82   A(44,26,45)           106.7232         estimate D2E/DX2                !
 ! A83   A(26,27,28)           113.5408         estimate D2E/DX2                !
 ! A84   A(26,27,46)           109.9161         estimate D2E/DX2                !
 ! A85   A(26,27,47)           108.4356         estimate D2E/DX2                !
 ! A86   A(28,27,46)           109.4411         estimate D2E/DX2                !
 ! A87   A(28,27,47)           108.4886         estimate D2E/DX2                !
 ! A88   A(46,27,47)           106.7825         estimate D2E/DX2                !
 ! A89   A(27,28,48)           111.0551         estimate D2E/DX2                !
 ! A90   A(27,28,49)           110.042          estimate D2E/DX2                !
 ! A91   A(27,28,50)           111.5336         estimate D2E/DX2                !
 ! A92   A(48,28,49)           108.0156         estimate D2E/DX2                !
 ! A93   A(48,28,50)           108.4872         estimate D2E/DX2                !
 ! A94   A(49,28,50)           107.5742         estimate D2E/DX2                !
 ! A95   A(2,31,15)            106.3142         estimate D2E/DX2                !
 ! D1    D(1,2,4,5)            -40.5746         estimate D2E/DX2                !
 ! D2    D(1,2,4,6)             80.6719         estimate D2E/DX2                !
 ! D3    D(1,2,4,7)           -158.145          estimate D2E/DX2                !
 ! D4    D(3,2,4,5)           -162.2697         estimate D2E/DX2                !
 ! D5    D(3,2,4,6)            -41.0233         estimate D2E/DX2                !
 ! D6    D(3,2,4,7)             80.1598         estimate D2E/DX2                !
 ! D7    D(31,2,4,5)            80.87           estimate D2E/DX2                !
 ! D8    D(31,2,4,6)          -157.8836         estimate D2E/DX2                !
 ! D9    D(31,2,4,7)           -36.7005         estimate D2E/DX2                !
 ! D10   D(1,2,31,15)          139.4324         estimate D2E/DX2                !
 ! D11   D(3,2,31,15)         -104.8138         estimate D2E/DX2                !
 ! D12   D(4,2,31,15)           15.5618         estimate D2E/DX2                !
 ! D13   D(2,4,7,8)            -70.7096         estimate D2E/DX2                !
 ! D14   D(2,4,7,9)            168.6811         estimate D2E/DX2                !
 ! D15   D(2,4,7,15)            41.3808         estimate D2E/DX2                !
 ! D16   D(5,4,7,8)            171.6983         estimate D2E/DX2                !
 ! D17   D(5,4,7,9)             51.089          estimate D2E/DX2                !
 ! D18   D(5,4,7,15)           -76.2113         estimate D2E/DX2                !
 ! D19   D(6,4,7,8)             50.8464         estimate D2E/DX2                !
 ! D20   D(6,4,7,9)            -69.7629         estimate D2E/DX2                !
 ! D21   D(6,4,7,15)           162.9368         estimate D2E/DX2                !
 ! D22   D(4,7,9,10)           -58.2197         estimate D2E/DX2                !
 ! D23   D(4,7,9,11)            65.3546         estimate D2E/DX2                !
 ! D24   D(4,7,9,14)          -173.0666         estimate D2E/DX2                !
 ! D25   D(8,7,9,10)          -178.1164         estimate D2E/DX2                !
 ! D26   D(8,7,9,11)           -54.5421         estimate D2E/DX2                !
 ! D27   D(8,7,9,14)            67.0367         estimate D2E/DX2                !
 ! D28   D(15,7,9,10)           60.2974         estimate D2E/DX2                !
 ! D29   D(15,7,9,11)         -176.1283         estimate D2E/DX2                !
 ! D30   D(15,7,9,14)          -54.5495         estimate D2E/DX2                !
 ! D31   D(4,7,15,16)         -146.1299         estimate D2E/DX2                !
 ! D32   D(4,7,15,17)           88.4984         estimate D2E/DX2                !
 ! D33   D(4,7,15,31)          -34.3925         estimate D2E/DX2                !
 ! D34   D(8,7,15,16)          -33.7895         estimate D2E/DX2                !
 ! D35   D(8,7,15,17)         -159.1612         estimate D2E/DX2                !
 ! D36   D(8,7,15,31)           77.9479         estimate D2E/DX2                !
 ! D37   D(9,7,15,16)           88.6252         estimate D2E/DX2                !
 ! D38   D(9,7,15,17)          -36.7466         estimate D2E/DX2                !
 ! D39   D(9,7,15,31)         -159.6375         estimate D2E/DX2                !
 ! D40   D(7,9,11,12)          -95.2099         estimate D2E/DX2                !
 ! D41   D(7,9,11,13)           83.0134         estimate D2E/DX2                !
 ! D42   D(10,9,11,12)          27.1079         estimate D2E/DX2                !
 ! D43   D(10,9,11,13)        -154.6689         estimate D2E/DX2                !
 ! D44   D(14,9,11,12)         145.0357         estimate D2E/DX2                !
 ! D45   D(14,9,11,13)         -36.7411         estimate D2E/DX2                !
 ! D46   D(9,11,12,32)        -179.6178         estimate D2E/DX2                !
 ! D47   D(13,11,12,32)          2.0174         estimate D2E/DX2                !
 ! D48   D(7,15,17,18)        -162.0601         estimate D2E/DX2                !
 ! D49   D(7,15,17,19)          79.219          estimate D2E/DX2                !
 ! D50   D(7,15,17,30)         -48.7365         estimate D2E/DX2                !
 ! D51   D(16,15,17,18)         72.4612         estimate D2E/DX2                !
 ! D52   D(16,15,17,19)        -46.2597         estimate D2E/DX2                !
 ! D53   D(16,15,17,30)       -174.2152         estimate D2E/DX2                !
 ! D54   D(31,15,17,18)        -40.0536         estimate D2E/DX2                !
 ! D55   D(31,15,17,19)       -158.7746         estimate D2E/DX2                !
 ! D56   D(31,15,17,30)         73.2699         estimate D2E/DX2                !
 ! D57   D(7,15,31,2)           11.741          estimate D2E/DX2                !
 ! D58   D(16,15,31,2)         126.0408         estimate D2E/DX2                !
 ! D59   D(17,15,31,2)        -119.1342         estimate D2E/DX2                !
 ! D60   D(15,17,19,20)         75.843          estimate D2E/DX2                !
 ! D61   D(15,17,19,29)       -103.8125         estimate D2E/DX2                !
 ! D62   D(18,17,19,20)        -42.7995         estimate D2E/DX2                !
 ! D63   D(18,17,19,29)        137.545          estimate D2E/DX2                !
 ! D64   D(30,17,19,20)       -157.882          estimate D2E/DX2                !
 ! D65   D(30,17,19,29)         22.4625         estimate D2E/DX2                !
 ! D66   D(17,19,20,21)        174.6816         estimate D2E/DX2                !
 ! D67   D(17,19,20,33)         19.9024         estimate D2E/DX2                !
 ! D68   D(29,19,20,21)         -5.658          estimate D2E/DX2                !
 ! D69   D(29,19,20,33)       -160.4372         estimate D2E/DX2                !
 ! D70   D(19,20,21,22)        164.5978         estimate D2E/DX2                !
 ! D71   D(19,20,21,34)        -73.804          estimate D2E/DX2                !
 ! D72   D(19,20,21,35)         42.5772         estimate D2E/DX2                !
 ! D73   D(33,20,21,22)        -40.7863         estimate D2E/DX2                !
 ! D74   D(33,20,21,34)         80.8119         estimate D2E/DX2                !
 ! D75   D(33,20,21,35)       -162.8069         estimate D2E/DX2                !
 ! D76   D(20,21,22,23)       -175.1652         estimate D2E/DX2                !
 ! D77   D(20,21,22,36)         61.604          estimate D2E/DX2                !
 ! D78   D(20,21,22,37)        -54.3549         estimate D2E/DX2                !
 ! D79   D(34,21,22,23)         65.8519         estimate D2E/DX2                !
 ! D80   D(34,21,22,36)        -57.3789         estimate D2E/DX2                !
 ! D81   D(34,21,22,37)       -173.3378         estimate D2E/DX2                !
 ! D82   D(35,21,22,23)        -54.2153         estimate D2E/DX2                !
 ! D83   D(35,21,22,36)       -177.4462         estimate D2E/DX2                !
 ! D84   D(35,21,22,37)         66.595          estimate D2E/DX2                !
 ! D85   D(21,22,23,24)        -65.4552         estimate D2E/DX2                !
 ! D86   D(21,22,23,38)         57.4999         estimate D2E/DX2                !
 ! D87   D(21,22,23,39)        173.4681         estimate D2E/DX2                !
 ! D88   D(36,22,23,24)         57.7895         estimate D2E/DX2                !
 ! D89   D(36,22,23,38)       -179.2554         estimate D2E/DX2                !
 ! D90   D(36,22,23,39)        -63.2872         estimate D2E/DX2                !
 ! D91   D(37,22,23,24)        173.3753         estimate D2E/DX2                !
 ! D92   D(37,22,23,38)        -63.6696         estimate D2E/DX2                !
 ! D93   D(37,22,23,39)         52.2986         estimate D2E/DX2                !
 ! D94   D(22,23,24,25)       -175.5432         estimate D2E/DX2                !
 ! D95   D(22,23,24,40)         63.505          estimate D2E/DX2                !
 ! D96   D(22,23,24,41)        -54.2599         estimate D2E/DX2                !
 ! D97   D(38,23,24,25)         61.6            estimate D2E/DX2                !
 ! D98   D(38,23,24,40)        -59.3518         estimate D2E/DX2                !
 ! D99   D(38,23,24,41)       -177.1167         estimate D2E/DX2                !
 ! D100  D(39,23,24,25)        -54.982          estimate D2E/DX2                !
 ! D101  D(39,23,24,40)       -175.9337         estimate D2E/DX2                !
 ! D102  D(39,23,24,41)         66.3013         estimate D2E/DX2                !
 ! D103  D(23,24,25,26)       -179.7177         estimate D2E/DX2                !
 ! D104  D(23,24,25,42)         59.0087         estimate D2E/DX2                !
 ! D105  D(23,24,25,43)        -58.1656         estimate D2E/DX2                !
 ! D106  D(40,24,25,26)        -58.1703         estimate D2E/DX2                !
 ! D107  D(40,24,25,42)       -179.4439         estimate D2E/DX2                !
 ! D108  D(40,24,25,43)         63.3817         estimate D2E/DX2                !
 ! D109  D(41,24,25,26)         59.0009         estimate D2E/DX2                !
 ! D110  D(41,24,25,42)        -62.2727         estimate D2E/DX2                !
 ! D111  D(41,24,25,43)       -179.4471         estimate D2E/DX2                !
 ! D112  D(24,25,26,27)       -175.6745         estimate D2E/DX2                !
 ! D113  D(24,25,26,44)        -55.1104         estimate D2E/DX2                !
 ! D114  D(24,25,26,45)         61.469          estimate D2E/DX2                !
 ! D115  D(42,25,26,27)        -54.4006         estimate D2E/DX2                !
 ! D116  D(42,25,26,44)         66.1635         estimate D2E/DX2                !
 ! D117  D(42,25,26,45)       -177.2572         estimate D2E/DX2                !
 ! D118  D(43,25,26,27)         63.358          estimate D2E/DX2                !
 ! D119  D(43,25,26,44)       -176.078          estimate D2E/DX2                !
 ! D120  D(43,25,26,45)        -59.4986         estimate D2E/DX2                !
 ! D121  D(25,26,27,28)        -65.637          estimate D2E/DX2                !
 ! D122  D(25,26,27,46)         57.3187         estimate D2E/DX2                !
 ! D123  D(25,26,27,47)        173.7098         estimate D2E/DX2                !
 ! D124  D(44,26,27,28)        173.2914         estimate D2E/DX2                !
 ! D125  D(44,26,27,46)        -63.7529         estimate D2E/DX2                !
 ! D126  D(44,26,27,47)         52.6382         estimate D2E/DX2                !
 ! D127  D(45,26,27,28)         57.3054         estimate D2E/DX2                !
 ! D128  D(45,26,27,46)       -179.7389         estimate D2E/DX2                !
 ! D129  D(45,26,27,47)        -63.3478         estimate D2E/DX2                !
 ! D130  D(26,27,28,48)        -54.9458         estimate D2E/DX2                !
 ! D131  D(26,27,28,49)       -174.497          estimate D2E/DX2                !
 ! D132  D(26,27,28,50)         66.1973         estimate D2E/DX2                !
 ! D133  D(46,27,28,48)       -178.1622         estimate D2E/DX2                !
 ! D134  D(46,27,28,49)         62.2865         estimate D2E/DX2                !
 ! D135  D(46,27,28,50)        -57.0191         estimate D2E/DX2                !
 ! D136  D(47,27,28,48)         65.6776         estimate D2E/DX2                !
 ! D137  D(47,27,28,49)        -53.8737         estimate D2E/DX2                !
 ! D138  D(47,27,28,50)       -173.1793         estimate D2E/DX2                !
 --------------------------------------------------------------------------------
 Trust Radius=3.00D-01 FncErr=1.00D-07 GrdErr=1.00D-06
 Number of steps in this run=    293 maximum allowed number of steps=    300.
 GradGradGradGradGradGradGradGradGradGradGradGradGradGradGradGradGradGrad

 Leave Link  103 at Wed Feb  5 13:11:15 2025, MaxMem=  5368709120 cpu:         0.1
 (Enter /home/k0335/k033513/app/g09/l202.exe)
                          Input orientation:                          
 ---------------------------------------------------------------------
 Center     Atomic      Atomic             Coordinates (Angstroms)
 Number     Number       Type             X           Y           Z
 ---------------------------------------------------------------------
      1          9           0       -6.841474    2.070955    1.876523
      2          6           0       -6.172812    1.567368    0.821287
      3          9           0       -6.796009    1.999771   -0.298334
      4          6           0       -6.052291    0.057943    0.852951
      5          9           0       -5.794403   -0.388922    2.100550
      6          9           0       -7.151640   -0.587964    0.421814
      7          6           0       -4.869208   -0.117438   -0.042901
      8          9           0       -5.275441    0.183950   -1.325079
      9          6           0       -4.290116   -1.498171   -0.036053
     10          9           0       -3.922419   -1.827763    1.228735
     11          6           0       -5.279212   -2.506522   -0.614965
     12          8           0       -6.020558   -3.135674    0.323878
     13          8           0       -5.466014   -2.753635   -1.796416
     14          9           0       -3.138239   -1.471393   -0.767454
     15          6           0       -3.967260    1.027124    0.422508
     16          9           0       -3.276275    1.495675   -0.659835
     17          6           0       -2.963265    0.828733    1.582877
     18          9           0       -2.605846    2.079290    2.038331
     19          6           0       -1.672478    0.102028    1.156374
     20          7           0       -0.775511    0.884744    0.442755
     21          6           0        0.529846    0.369817    0.075277
     22          6           0        1.176363    1.234779   -1.001998
     23          6           0        2.505151    0.675033   -1.514830
     24          6           0        3.605867    0.656417   -0.451872
     25          6           0        4.939758    0.192176   -1.043552
     26          6           0        6.038896    0.166905    0.021034
     27          6           0        7.417516   -0.189290   -0.539217
     28          6           0        7.506143   -1.608916   -1.077579
     29          8           0       -1.445618   -1.077433    1.414979
     30          9           0       -3.584079    0.243087    2.641114
     31          8           0       -4.861204    2.118794    0.787974
     32          1           0       -6.601516   -3.751338   -0.174344
     33          1           0       -0.875918    1.892759    0.528742
     34          1           0        1.134081    0.353289    0.988078
     35          1           0        0.416982   -0.662528   -0.274284
     36          1           0        1.324386    2.253334   -0.621874
     37          1           0        0.486972    1.322140   -1.851637
     38          1           0        2.350583   -0.337923   -1.906052
     39          1           0        2.833194    1.293014   -2.359887
     40          1           0        3.325506   -0.014579    0.367779
     41          1           0        3.722397    1.660348   -0.026232
     42          1           0        5.233576    0.864211   -1.858833
     43          1           0        4.811415   -0.806891   -1.474959
     44          1           0        6.105676    1.156105    0.490798
     45          1           0        5.770168   -0.541602    0.814057
     46          1           0        7.693717    0.518489   -1.329409
     47          1           0        8.157621   -0.074284    0.261729
     48          1           0        7.203950   -2.337017   -0.318249
     49          1           0        8.536026   -1.834783   -1.372362
     50          1           0        6.873015   -1.744212   -1.959253
 ---------------------------------------------------------------------
                    Distance matrix (angstroms):
                    1          2          3          4          5
     1  F    0.000000
     2  C    1.346934   0.000000
     3  F    2.176497   1.352368   0.000000
     4  C    2.392222   1.514560   2.376819   0.000000
     5  F    2.682823   2.367864   3.530398   1.350073   0.000000
     6  F    3.046675   2.400654   2.709513   1.345973   2.167917
     7  C    3.516118   2.298864   2.874088   1.494321   2.350334
     8  F    4.032803   2.706660   2.581383   2.315856   3.511757
     9  C    4.786025   3.698257   4.310904   2.513380   2.838729
    10  F    4.913300   4.093556   5.023890   2.869400   2.516873
    11  C    5.440723   4.411113   4.765250   3.054326   3.481907
    12  O    5.494870   4.731723   5.230800   3.237301   3.279079
    13  O    6.217639   5.101274   5.158295   3.907408   4.570126
    14  F    5.766523   4.578952   5.064418   3.668280   4.056156
    15  C    3.385978   2.305504   3.076926   2.339219   2.856477
    16  F    4.413015   3.254042   3.573979   3.473019   4.184782
    17  C    4.082873   3.380354   4.427213   3.266342   3.125062
    18  F    4.238726   3.803486   4.798311   4.167608   4.032721
    19  C    5.577975   4.744735   5.654040   4.390532   4.257084
    20  N    6.344974   5.453450   6.167568   5.356890   5.436891
    21  C    7.776549   6.849546   7.514286   6.635252   6.683827
    22  C    8.559835   7.579272   8.039843   7.555079   7.800884
    23  C   10.040382   9.031099   9.473456   8.900393   9.115129
    24  C   10.796725   9.903198  10.489385   9.764259   9.796564
    25  C   12.282267  11.351563  11.897520  11.155263  11.200235
    26  C   13.151889  12.317772  12.969047  12.120262  12.027481
    27  C   14.637736  13.770760  14.383126  13.543816  13.474533
    28  C   15.103718  14.170684  14.770965  13.796249  13.729290
    29  O    6.264234   5.449202   6.405569   4.777697   4.456006
    30  F    3.812653   3.430310   4.694975   3.053502   2.361605
    31  O    2.260243   1.423199   2.222094   2.381180   2.980328
    32  H    6.177599   5.428048   5.755732   3.983416   4.139132
    33  H    6.118507   5.314936   5.978544   5.501500   5.645188
    34  H    8.206655   7.408947   8.200737   7.193708   7.056370
    35  H    8.048794   7.042592   7.688670   6.606151   6.655524
    36  H    8.541459   7.665588   8.130793   7.836467   8.066614
    37  H    8.256272   7.180347   7.477549   7.188529   7.615982
    38  H   10.227633   9.149687   9.576519   8.853084   9.077238
    39  H   10.590163   9.555275   9.872743   9.528881   9.856969
    40  H   10.487766   9.639827  10.341488   9.390619   9.290606
    41  H   10.741715   9.931873  10.527398   9.944103   9.964547
    42  H   12.697084  11.738107  12.183414  11.635061  11.784031
    43  H   12.462113  11.470096  11.999754  11.143932  11.200104
    44  H   13.053194  12.289818  12.953300  12.212832  12.107448
    45  H   12.923150  12.127761  12.868753  11.837715  11.636910
    46  H   14.965291  14.071470  14.601694  13.925787  13.946949
    47  H   15.237535  14.435007  15.107165  14.222821  14.076194
    48  H   14.883587  13.981435  14.656295  13.521667  13.364237
    49  H   16.194985  15.255709  15.840727  14.877951  14.815965
    50  H   14.742994  13.743783  14.269488  13.349898  13.370949
                    6          7          8          9         10
     6  F    0.000000
     7  C    2.376310   0.000000
     8  F    2.677239   1.378347   0.000000
     9  C    3.037505   1.497270   2.337089   0.000000
    10  F    3.551914   2.332098   3.521310   1.357763   0.000000
    11  C    2.874328   2.490599   2.782610   1.526506   2.387641
    12  O    2.789223   3.251136   3.780762   2.409439   2.632790
    13  O    3.528741   3.221883   2.981255   2.461261   3.520151
    14  F    4.278106   2.313963   2.760206   1.364729   2.174099
    15  C    3.570544   1.529751   2.340158   2.586818   2.966883
    16  F    4.531001   2.349506   2.481902   3.221815   3.876782
    17  C    4.571387   2.677875   3.770691   3.129848   2.846465
    18  F    5.512859   3.778882   4.693781   4.465206   4.201651
    19  C    5.571076   3.421331   4.375576   3.291587   2.965057
    20  N    6.544030   4.242474   4.885255   4.273171   4.228296
    21  C    7.748720   5.422284   5.974688   5.170475   5.097302
    22  C    8.643221   6.268755   6.544799   6.187444   6.352394
    23  C    9.929721   7.561465   7.798383   7.285963   7.423260
    24  C   10.864427   8.520153   8.936630   8.195224   8.103745
    25  C   12.204828   9.864734  10.219081   9.437314   9.369185
    26  C   13.218195  10.911997  11.394145  10.462515  10.230593
    27  C   14.606260  12.296954  12.722737  11.791310  11.593290
    28  C   14.769601  12.507773  12.909087  11.842667  11.661004
    29  O    5.812456   3.842912   4.875095   3.220820   2.594653
    30  F    4.282923   2.997578   4.312179   3.270732   2.529369
    31  O    3.564647   2.385613   2.894859   3.753345   4.080551
    32  H    3.265727   4.027828   4.309195   3.230860   3.584178
    33  H    6.749082   4.507109   5.070748   4.845013   4.859366
    34  H    8.358217   6.109336   6.816256   5.822256   5.512086
    35  H    7.600931   5.319254   5.850160   4.786630   4.737852
    36  H    9.000293   6.657055   6.952306   6.777876   6.899933
    37  H    8.195454   5.833745   5.897300   5.837043   6.233242
    38  H    9.786405   7.459580   7.665907   6.995853   7.169175
    39  H   10.534365   8.166076   8.249292   7.995778   8.261705
    40  H   10.492963   8.205643   8.768208   7.769287   7.520725
    41  H   11.113070   8.773624   9.210203   8.612590   8.496180
    42  H   12.676898  10.311522  10.544529   9.980185  10.030556
    43  H   12.114469   9.810229  10.136513   9.240465   9.199565
    44  H   13.371723  11.061412  11.565998  10.742218  10.488599
    45  H   12.927843  10.682257  11.274210  10.141352   9.786338
    46  H   14.989184  12.644627  12.973473  12.220963  12.123680
    47  H   15.318713  13.030462  13.528925  12.532449  12.244883
    48  H   14.480671  12.278579  12.771225  11.528090  11.244936
    49  H   15.839081  13.580024  13.958300  12.899959  12.727082
    50  H   14.272258  12.008272  12.316857  11.330257  11.256627
                   11         12         13         14         15
    11  C    0.000000
    12  O    1.351611   0.000000
    13  O    1.221387   2.224662   0.000000
    14  F    2.382963   3.502656   2.849815   0.000000
    15  C    3.909504   4.642698   4.632928   2.888922   0.000000
    16  F    4.475640   5.472492   4.913594   2.972226   1.366919
    17  C    4.617147   5.162232   5.524195   3.293213   1.547198
    18  F    5.934352   6.464941   6.800221   4.556668   2.360378
    19  C    4.790689   5.484666   5.591484   2.885346   2.580772
    20  N    5.736094   6.609721   6.344486   3.549432   3.194987
    21  C    6.518812   7.433577   7.014950   4.189880   4.558134
    22  C    7.471384   8.523760   7.788435   5.098448   5.341273
    23  C    8.457444   9.517880   8.681850   6.083878   6.765305
    24  C    9.432678  10.375442   9.784441   7.078851   7.632445
    25  C   10.577996  11.535726  10.840881   8.252135   9.065398
    26  C   11.646943  12.507165  12.008149   9.355509  10.051085
    27  C   12.906673  13.784337  13.196278  10.635781  11.489896
    28  C   12.825171  13.684543  13.042391  10.649787  11.867516
    29  O    4.567210   5.133900   5.411681   2.789836   3.431157
    30  F    4.586488   4.766764   5.675711   3.841426   2.384063
    31  O    4.851445   5.400826   5.548462   4.275208   1.457547
    32  H    1.868743   0.982232   2.217181   4.188582   5.489010
    33  H    6.328565   7.196835   6.932843   4.256259   3.212009
    34  H    7.202680   7.987671   7.808178   4.966294   5.176640
    35  H    5.996916   6.922151   6.426450   3.679277   4.749950
    36  H    8.140257   9.158824   8.518146   5.814620   5.531351
    37  H    7.031137   8.182476   7.214779   4.703343   5.009885
    38  H    8.036386   9.103626   8.182107   5.719119   6.870275
    39  H    9.126465  10.256939   9.250390   6.770214   7.352455
    40  H    9.012033   9.853531   9.459228   6.722430   7.366992
    41  H    9.936719  10.865062  10.346192   7.577964   7.728723
    42  H   11.109805  12.141616  11.294863   8.759763   9.480846
    43  H   10.268841  11.224557  10.465118   8.008691   9.166740
    44  H   12.010546  12.864400  12.426642   9.692105  10.073993
    45  H   11.313347  12.082661  11.745614   9.095351   9.870751
    46  H   13.340090  14.288723  13.568471  11.027543  11.802809
    47  H   13.683306  14.505059  14.036321  11.428368  12.175865
    48  H   12.487838  13.264154  12.762701  10.388068  11.690257
    49  H   13.852281  14.712705  14.038562  11.695573  12.951611
    50  H   12.250096  13.167881  12.381320  10.085634  11.439609
                   16         17         18         19         20
    16  F    0.000000
    17  C    2.360624   0.000000
    18  F    2.840806   1.378071   0.000000
    19  C    2.795180   1.541472   2.357666   0.000000
    20  N    2.800493   2.467647   2.706091   1.387965   0.000000
    21  C    4.036645   3.832139   4.075346   2.467937   1.450568
    22  C    4.473380   4.897241   4.925637   3.749345   2.453497
    23  C    5.901640   6.286731   6.381158   4.991618   3.826076
    24  C    6.936244   6.879200   6.841861   5.545695   4.477607
    25  C    8.327638   8.352311   8.366322   6.969180   5.945844
    26  C    9.434067   9.160583   9.080653   7.794774   6.865077
    27  C   10.826395  10.644260  10.595187   9.251372   8.321269
    28  C   11.228247  11.073783  11.205538   9.600258   8.781546
    29  O    3.778497   2.442317   3.420467   1.228605   2.290066
    30  F    3.544007   1.359506   2.166086   2.424576   3.623887
    31  O    2.235269   2.428642   2.579068   3.790915   4.281932
    32  H    6.230897   6.107516   7.406587   6.396456   7.471038
    33  H    2.707786   2.569118   2.303542   2.057947   1.016646
    34  H    4.844781   4.167503   4.250784   2.822805   2.055812
    35  H    4.294955   4.135091   4.690761   2.645217   2.080922
    36  H    4.662786   5.027362   4.749074   4.095299   2.723241
    37  H    3.951270   4.893207   5.026992   3.898721   2.655073
    38  H    6.047865   6.463025   6.779916   5.075138   4.096861
    39  H    6.344829   7.025659   7.038871   5.838118   4.587400
    40  H    6.849845   6.460362   6.508146   5.061158   4.199136
    41  H    7.029223   6.926680   6.669677   5.738606   4.588321
    42  H    8.617071   8.890153   8.838600   7.574033   6.434816
    43  H    8.448489   8.513006   8.699943   7.056268   6.144347
    44  H    9.458344   9.140323   8.895940   7.877420   6.886703
    45  H    9.389408   8.873655   8.861463   7.478263   6.709563
    46  H   11.033764  11.052101  10.948003   9.699390   8.660400
    47  H   11.577911  11.235434  11.119641   9.872301   8.986287
    48  H   11.164288  10.817047  11.013144   9.322791   8.638904
    49  H   12.293498  12.168050  12.292034  10.693891   9.868901
    50  H   10.732821  10.766575  10.974910   9.281228   8.436883
                   21         22         23         24         25
    21  C    0.000000
    22  C    1.525341   0.000000
    23  C    2.554100   1.530356   0.000000
    24  C    3.133996   2.557270   1.530295   0.000000
    25  C    4.553093   3.905367   2.526374   1.531297   0.000000
    26  C    5.513052   5.082438   3.886441   2.526439   1.530388
    27  C    6.937593   6.418265   5.082342   3.905319   2.557177
    28  C    7.342560   6.939627   5.515209   4.553613   3.135510
    29  O    2.791378   4.250045   5.221446   5.657638   6.959117
    30  F    4.850150   6.075979   7.384929   7.837903   9.286288
    31  O    5.712292   6.359064   7.851786   8.681420  10.155058
    32  H    8.240301   9.275871  10.213768  11.121870  12.227339
    33  H    2.121593   2.643475   4.134086   4.751478   6.259886
    34  H    1.094796   2.176974   2.871916   2.876642   4.317019
    35  H    1.095750   2.169332   2.772810   3.455451   4.666669
    36  H    2.159849   1.097205   2.163934   2.790018   4.182953
    37  H    2.149827   1.097624   2.145981   3.482820   4.664453
    38  H    2.782381   2.160902   1.096825   2.163120   2.780061
    39  H    3.476741   2.142975   1.097103   2.154716   2.717019
    40  H    2.837082   2.838309   2.166279   1.095749   2.154162
    41  H    3.445019   2.759623   2.160661   1.096643   2.161582
    42  H    5.109822   4.163228   2.756525   2.161517   1.096651
    43  H    4.703159   4.195916   2.741631   2.154373   1.095773
    44  H    5.646307   5.150996   4.149428   2.717970   2.154705
    45  H    5.370052   5.249441   4.190973   2.778853   2.163035
    46  H    7.301801   6.564768   5.194238   4.183254   2.787918
    47  H    7.642967   7.214473   5.972274   4.664935   3.482729
    48  H    7.212869   7.039676   5.708149   4.682382   3.471231
    49  H    8.429403   7.982733   6.533829   5.599986   4.141234
    50  H    6.988864   6.499428   5.012833   4.325445   2.885410
                   26         27         28         29         30
    26  C    0.000000
    27  C    1.530147   0.000000
    28  C    2.552118   1.520864   0.000000
    29  O    7.714234   9.119365   9.307489   0.000000
    30  F    9.973579  11.460216  11.842788   2.796461   0.000000
    31  O   11.100011  12.564062  13.050953   4.719664   2.929753
    32  H   13.235211  14.469090  14.297967   6.021545   5.743445
    33  H    7.144998   8.617222   9.225017   3.151510   3.810206
    34  H    5.002712   6.489112   6.979997   2.980613   5.000571
    35  H    5.690438   7.021511   7.197023   2.548536   5.032710
    36  H    5.195490   6.565019   7.303339   4.787035   6.227456
    37  H    5.972045   7.213827   7.645850   4.490394   6.158135
    38  H    4.191917   5.250156   5.374159   5.097770   7.498967
    39  H    4.148907   5.150541   5.648182   6.178743   8.203277
    40  H    2.741469   4.194963   4.701989   4.998991   7.278517
    41  H    2.756587   4.163919   5.109809   6.023364   7.906197
    42  H    2.160712   2.760588   3.448373   7.687617   9.918990
    43  H    2.166329   2.837042   2.839492   6.897492   9.408976
    44  H    1.097112   2.142882   3.473680   7.928735   9.967387
    45  H    1.096851   2.160840   2.780478   7.260564   9.563253
    46  H    2.164657   1.096194   2.150454   9.675023  11.959498
    47  H    2.145950   1.096584   2.138519   9.724119  11.984562
    48  H    2.782461   2.169601   1.094547   8.910985  11.480259
    49  H    3.490554   2.157045   1.094793  10.391153  12.935319
    50  H    2.875702   2.175032   1.093849   9.001649  11.595842
                   31         32         33         34         35
    31  O    0.000000
    32  H    6.197838   0.000000
    33  H    4.000100   8.070479   0.000000
    34  H    6.253039   8.833949   2.573141   0.000000
    35  H    6.059983   7.668771   2.974211   1.771912   0.000000
    36  H    6.345652   9.953707   2.509038   2.497665   3.073508
    37  H    6.017075   8.876945   2.801657   3.069431   2.536109
    38  H    8.081034   9.736031   4.616760   3.214598   2.550852
    39  H    8.354322  10.919516   4.739344   3.870263   3.743256
    40  H    8.470541  10.620877   4.616905   2.307042   3.048212
    41  H    8.634310  11.657249   4.637511   3.071906   4.047598
    42  H   10.511144  12.814453   6.639604   5.017151   5.295404
    43  H   10.355678  11.858177   6.606715   4.575517   4.557796
    44  H   11.013062  13.638113   7.020453   5.060490   6.021131
    45  H   10.959218  12.819435   7.083642   4.724872   5.464038
    46  H   12.832394  14.963933   8.875809   6.958941   7.447077
    47  H   13.212734  15.216537   9.249075   7.073932   7.781442
    48  H   12.909141  13.878469   9.159294   6.766650   6.990621
    49  H   14.134482  15.305346  10.300168   8.071439   8.276402
    50  H   12.655511  13.739630   8.914238   6.783925   6.759403
                   36         37         38         39         40
    36  H    0.000000
    37  H    1.755193   0.000000
    38  H    3.068682   2.496361   0.000000
    39  H    2.493874   2.400817   1.760351   0.000000
    40  H    3.182346   3.843163   2.495062   3.064691   0.000000
    41  H    2.541039   3.730210   3.067358   2.524195   1.765828
    42  H    4.329145   4.768648   3.123941   2.489329   3.061177
    43  H    4.717213   4.834818   2.541941   3.017624   2.496271
    44  H    5.030177   6.089697   4.698695   4.342152   3.019103
    45  H    5.444129   6.204161   4.374247   4.697398   2.540333
    46  H    6.639177   7.270196   5.441970   5.028564   4.716553
    47  H    7.272665   8.078067   6.204069   6.090312   4.833647
    48  H    7.465439   7.801186   5.483855   6.037294   4.572382
    49  H    8.323682   8.659280   6.386323   6.578800   5.787119
    50  H    6.968231   7.084888   4.736335   5.070050   4.581651
                   41         42         43         44         45
    41  H    0.000000
    42  H    2.505179   0.000000
    43  H    3.061379   1.765832   0.000000
    44  H    2.490301   2.523198   3.064746   0.000000
    45  H    3.122184   3.067341   2.495832   1.760475   0.000000
    46  H    4.332839   2.540100   3.175765   2.498316   3.068922
    47  H    4.771067   3.731969   3.840559   2.403499   2.494671
    48  H    5.308994   4.062466   3.066511   3.750022   2.561516
    49  H    6.099101   4.292715   3.865206   4.280581   3.755358
    50  H    5.025335   3.082485   2.315881   3.873422   3.217731
                   46         47         48         49         50
    46  H    0.000000
    47  H    1.760201   0.000000
    48  H    3.068588   2.523058   0.000000
    49  H    2.499844   2.431625   1.771389   0.000000
    50  H    2.487985   3.061312   1.775903   1.765857   0.000000
 Symmetry turned off by external request.
 Stoichiometry    C16H19F10NO4
 Framework group  C1[X(C16H19F10NO4)]
 Deg. of freedom   144
 Full point group                 C1      NOp   1
 Rotational constants (GHZ):      0.3090427      0.0554979      0.0520685
 Leave Link  202 at Wed Feb  5 13:11:16 2025, MaxMem=  5368709120 cpu:         0.1
 (Enter /home/k0335/k033513/app/g09/l301.exe)
 Standard basis: 6-31G(d,p) (6D, 7F)
 Ernie: Thresh=  0.10000D-02 Tol=  0.10000D-05 Strict=F.
   560 basis functions,  1001 primitive gaussians,   560 cartesian basis functions
   122 alpha electrons      122 beta electrons
       nuclear repulsion energy      3744.4468134891 Hartrees.
 IExCor=20419 DFT=T Ex+Corr=CAM-B3LYP ExCW=0 ScaHFX=  1.000000
 ScaDFX=  1.000000  1.000000  1.000000  0.810000 ScalE2=  1.000000  1.000000
 IRadAn=      0 IRanWt=     -1 IRanGd=            0 ICorTp=0 IEmpDi=  4
  HFx wShort=  0.000000 wLong=  0.330000 cFull=  0.190000 cShort=  0.000000 cLong=  0.460000
  DFx wShort=  0.000000 wLong=  0.330000 cFull=  0.190000 cShort=  0.000000 cLong=  0.460000
 NAtoms=   50 NActive=   50 NUniq=   50 SFac= 1.00D+00 NAtFMM=   60 NAOKFM=F Big=F
 Integral buffers will be    131072 words long.
 Raffenetti 2 integral format.
 Two-electron integral symmetry is turned off.
 Using the following non-standard input for PCM:
 eps=2.05
 --- end of non-standard input.
 ------------------------------------------------------------------------------
 Polarizable Continuum Model (PCM)
 =================================
 Model                : PCM (using non-symmetric T matrix).
 Atomic radii         : UFF (Universal Force Field).
 Polarization charges : Total charges.
 Charge compensation  : None.
 Solution method      : On-the-fly selection.
 Cavity type          : Scaled VdW (van der Waals Surface) (Alpha=1.100).
 Cavity algorithm     : GePol (No added spheres)
                        Default sphere list used, NSphG=   50.
                        Lebedev-Laikov grids with approx.  5.0 points / Ang**2.
                        Smoothing algorithm: Karplus/York (Gamma=1.0000).
                        Polarization charges: spherical gaussians, with
                                              point-specific exponents (IZeta= 3).
                        Self-potential: point-specific (ISelfS= 7).
                        Self-field    : sphere-specific E.n sum rule (ISelfD= 2).
 1st derivatives      : Analytical E(r).r(x)/FMM algorithm (CHGder, D1EAlg=3).
                        Cavity 1st derivative terms included.
 Solvent              : Generic,
                        Eps                           =   2.050000
                        Eps(infinity)                 =   0.000000
                        RSolv                         =   0.000000 Ang.
                        Molar volume                  =   0.000000 cm**3/mol
                        Thermal expansion coefficient =   0.000000 K**-1
                        Absolute temperature          = 298.150000 K
                        Numeral density               =   0.000000 Ang**-3
                        Hydrogen bond acidity         =   0.000000
                        Hydrogen bond basicity        =   0.000000
                        Surface tension at interface  =   0.000000 (cal/mol)*Ang**-2
                        Carbon aromaticity            =   0.000000
                        Electronegative halogenicity  =   0.000000
 ------------------------------------------------------------------------------
 GePol: Number of generator spheres                  =      50
 GePol: Total number of spheres                      =      50
 GePol: Number of exposed spheres                    =      49 ( 98.00%)
 GePol: Number of points                             =    3672
 GePol: Average weight of points                     =       0.13
 GePol: Minimum weight of points                     =   0.35D-11
 GePol: Maximum weight of points                     =    0.20577
 GePol: Number of points with low weight             =     218
 GePol: Fraction of low-weight points (<1% of avg)   =       5.94%
 GePol: Cavity surface area                          =    468.476 Ang**2
 GePol: Cavity volume                                =    521.132 Ang**3
 Leave Link  301 at Wed Feb  5 13:11:16 2025, MaxMem=  5368709120 cpu:         0.7
 (Enter /home/k0335/k033513/app/g09/l302.exe)
 NPDir=0 NMtPBC=     1 NCelOv=     1 NCel=       1 NClECP=     1 NCelD=      1
         NCelK=      1 NCelE2=     1 NClLst=     1 CellRange=     0.0.
 One-electron integrals computed using PRISM.
 NBasis=   560 RedAO= T EigKep=  8.80D-04  NBF=   560
 NBsUse=   560 1.00D-06 EigRej= -1.00D+00 NBFU=   560
 Precomputing XC quadrature grid using
 IXCGrd= 4 IRadAn=           0 IRanWt=          -1 IRanGd=           0 AccXCQ= 0.00D+00.
 Generated NRdTot=       0 NPtTot=           0 NUsed=           0 NTot=          32
 NSgBfM=   523   529   529   529   529 MxSgAt=    50 MxSgA2=    50.
 Leave Link  302 at Wed Feb  5 13:11:16 2025, MaxMem=  5368709120 cpu:        10.9
 (Enter /home/k0335/k033513/app/g09/l303.exe)
 DipDrv:  MaxL=1.
 Leave Link  303 at Wed Feb  5 13:11:16 2025, MaxMem=  5368709120 cpu:         0.7
 (Enter /home/k0335/k033513/app/g09/l401.exe)
 ExpMin= 1.61D-01 ExpMax= 7.00D+03 ExpMxC= 1.05D+03 IAcc=1 IRadAn=         1 AccDes= 0.00D+00
 Harris functional with IExCor=20419 and IRadAn=       1 diagonalized for initial guess.
 HarFok:  IExCor=20419 AccDes= 0.00D+00 IRadAn=         1 IDoV= 1 UseB2=F ITyADJ=14
 ICtDFT=  3500011 ScaDFX=  1.000000  1.000000  1.000000  1.000000
 FoFCou: FMM=F IPFlag=           0 FMFlag=      100000 FMFlg1=           0
         NFxFlg=           0 DoJE=T BraDBF=F KetDBF=T FulRan=T
         wScrn=  0.000000 ICntrl=     500 IOpCl=  0 I1Cent=   200000004 NGrid=           0
         NMat0=    1 NMatS0=      1 NMatT0=    0 NMatD0=    1 NMtDS0=    0 NMtDT0=    0
 Symmetry not used in FoFCou.
 Harris En= -1910.61120166695    
 JPrj=0 DoOrth=F DoCkMO=F.
 Leave Link  401 at Wed Feb  5 13:11:17 2025, MaxMem=  5368709120 cpu:        11.9
 (Enter /home/k0335/k033513/app/g09/l502.exe)
 Closed shell SCF:
 Using DIIS extrapolation, IDIIS=  1040.
 Two-electron integral symmetry not used.
 IVT=      976250 IEndB=      976250 NGot=  5368709120 MDV=  5368063671
 LenX=  5368063671 LenY=  5367749511
 Requested convergence on RMS density matrix=1.00D-08 within 128 cycles.
 Requested convergence on MAX density matrix=1.00D-06.
 Requested convergence on             energy=1.00D-06.
 No special actions if energy rises.
 Fock matrices will be formed incrementally for  20 cycles.

 Cycle   1  Pass 1  IDiag  1:
 FoFJK:  IHMeth= 1 ICntrl=       0 DoSepK=T KAlg= 0 I1Cent=   0 FoldK=F
 IRaf=         1 NMat=   1 IRICut=       1 DoRegI=T DoRafI=F ISym2E= 0.
 FoFCou: FMM=F IPFlag=           0 FMFlag=      100000 FMFlg1=           0
         NFxFlg=           0 DoJE=T BraDBF=F KetDBF=F FulRan=T
         wScrn=  0.000000 ICntrl=     500 IOpCl=  0 I1Cent=           0 NGrid=           0
         NMat0=    1 NMatS0=      1 NMatT0=    0 NMatD0=    1 NMtDS0=    0 NMtDT0=    0
 Symmetry not used in FoFCou.
 Inv3:  Mode=1 IEnd=    40450752.
 Iteration    1 A*A^-1 deviation from unit magnitude is 6.66D-15 for    900.
 Iteration    1 A*A^-1 deviation from orthogonality  is 4.54D-15 for   3649   1566.
 Iteration    1 A^-1*A deviation from unit magnitude is 1.04D-14 for    138.
 Iteration    1 A^-1*A deviation from orthogonality  is 2.05D-15 for   3005   1986.
 E= -1973.92490582432    
 DIIS: error= 5.03D-02 at cycle   1 NSaved=   1.
 NSaved= 1 IEnMin= 1 EnMin= -1973.92490582432     IErMin= 1 ErrMin= 5.03D-02
 ErrMax= 5.03D-02  0.00D+00 EMaxC= 1.00D-01 BMatC= 1.61D+00 BMatP= 1.61D+00
 IDIUse=3 WtCom= 4.97D-01 WtEn= 5.03D-01
 Coeff-Com:  0.100D+01
 Coeff-En:   0.100D+01
 Coeff:      0.100D+01
 Gap=     0.493 Goal=   None    Shift=    0.000
 GapD=    0.493 DampG=2.000 DampE=0.500 DampFc=1.0000 IDamp=-1.
 RMSDP=2.72D-03 MaxDP=1.20D-01              OVMax= 1.23D-01

 Cycle   2  Pass 1  IDiag  1:
 RMSU=  2.71D-03    CP:  9.91D-01
 E= -1974.16707699153     Delta-E=       -0.242171167215 Rises=F Damp=F
 DIIS: error= 1.80D-02 at cycle   2 NSaved=   2.
 NSaved= 2 IEnMin= 2 EnMin= -1974.16707699153     IErMin= 2 ErrMin= 1.80D-02
 ErrMax= 1.80D-02  0.00D+00 EMaxC= 1.00D-01 BMatC= 5.92D-01 BMatP= 1.61D+00
 IDIUse=3 WtCom= 8.20D-01 WtEn= 1.80D-01
 Coeff-Com:  0.354D+00 0.646D+00
 Coeff-En:   0.337D+00 0.663D+00
 Coeff:      0.351D+00 0.649D+00
 Gap=     0.390 Goal=   None    Shift=    0.000
 RMSDP=1.27D-03 MaxDP=7.26D-02 DE=-2.42D-01 OVMax= 8.39D-02

 Cycle   3  Pass 1  IDiag  1:
 RMSU=  7.70D-04    CP:  9.99D-01  6.30D-01
 E= -1974.45774628867     Delta-E=       -0.290669297133 Rises=F Damp=F
 DIIS: error= 7.75D-03 at cycle   3 NSaved=   3.
 NSaved= 3 IEnMin= 3 EnMin= -1974.45774628867     IErMin= 3 ErrMin= 7.75D-03
 ErrMax= 7.75D-03  0.00D+00 EMaxC= 1.00D-01 BMatC= 1.08D-01 BMatP= 5.92D-01
 IDIUse=3 WtCom= 9.23D-01 WtEn= 7.75D-02
 Coeff-Com:  0.696D-01 0.315D+00 0.615D+00
 Coeff-En:   0.000D+00 0.109D+00 0.891D+00
 Coeff:      0.642D-01 0.299D+00 0.637D+00
 Gap=     0.334 Goal=   None    Shift=    0.000
 RMSDP=5.62D-04 MaxDP=3.73D-02 DE=-2.91D-01 OVMax= 6.39D-02

 Cycle   4  Pass 1  IDiag  1:
 RMSU=  3.09D-04    CP:  9.94D-01  7.18D-01  4.83D-01
 E= -1974.51980913279     Delta-E=       -0.062062844122 Rises=F Damp=F
 DIIS: error= 3.68D-03 at cycle   4 NSaved=   4.
 NSaved= 4 IEnMin= 4 EnMin= -1974.51980913279     IErMin= 4 ErrMin= 3.68D-03
 ErrMax= 3.68D-03  0.00D+00 EMaxC= 1.00D-01 BMatC= 1.12D-02 BMatP= 1.08D-01
 IDIUse=3 WtCom= 9.63D-01 WtEn= 3.68D-02
 Coeff-Com:  0.646D-02 0.970D-01 0.329D+00 0.568D+00
 Coeff-En:   0.000D+00 0.000D+00 0.474D-01 0.953D+00
 Coeff:      0.622D-02 0.935D-01 0.318D+00 0.582D+00
 Gap=     0.327 Goal=   None    Shift=    0.000
 RMSDP=1.74D-04 MaxDP=1.41D-02 DE=-6.21D-02 OVMax= 2.25D-02

 Cycle   5  Pass 1  IDiag  1:
 RMSU=  7.52D-05    CP:  9.94D-01  7.19D-01  6.20D-01  6.25D-01
 E= -1974.52765649871     Delta-E=       -0.007847365921 Rises=F Damp=F
 DIIS: error= 7.98D-04 at cycle   5 NSaved=   5.
 NSaved= 5 IEnMin= 5 EnMin= -1974.52765649871     IErMin= 5 ErrMin= 7.98D-04
 ErrMax= 7.98D-04  0.00D+00 EMaxC= 1.00D-01 BMatC= 5.78D-04 BMatP= 1.12D-02
 IDIUse=3 WtCom= 9.92D-01 WtEn= 7.98D-03
 Coeff-Com:  0.599D-03 0.386D-01 0.151D+00 0.320D+00 0.490D+00
 Coeff-En:   0.000D+00 0.000D+00 0.000D+00 0.000D+00 0.100D+01
 Coeff:      0.594D-03 0.383D-01 0.150D+00 0.317D+00 0.494D+00
 Gap=     0.322 Goal=   None    Shift=    0.000
 RMSDP=3.69D-05 MaxDP=3.12D-03 DE=-7.85D-03 OVMax= 6.16D-03

 Cycle   6  Pass 1  IDiag  1:
 RMSU=  2.19D-05    CP:  9.95D-01  7.20D-01  6.18D-01  6.45D-01  6.19D-01
 E= -1974.52807366454     Delta-E=       -0.000417165827 Rises=F Damp=F
 DIIS: error= 1.72D-04 at cycle   6 NSaved=   6.
 NSaved= 6 IEnMin= 6 EnMin= -1974.52807366454     IErMin= 6 ErrMin= 1.72D-04
 ErrMax= 1.72D-04  0.00D+00 EMaxC= 1.00D-01 BMatC= 2.80D-05 BMatP= 5.78D-04
 IDIUse=3 WtCom= 9.98D-01 WtEn= 1.72D-03
 Coeff-Com: -0.544D-03 0.435D-02 0.234D-01 0.599D-01 0.208D+00 0.705D+00
 Coeff-En:   0.000D+00 0.000D+00 0.000D+00 0.000D+00 0.000D+00 0.100D+01
 Coeff:     -0.543D-03 0.434D-02 0.233D-01 0.598D-01 0.208D+00 0.706D+00
 Gap=     0.322 Goal=   None    Shift=    0.000
 RMSDP=1.15D-05 MaxDP=6.56D-04 DE=-4.17D-04 OVMax= 1.04D-03

 Cycle   7  Pass 1  IDiag  1:
 RMSU=  7.91D-06    CP:  9.95D-01  7.20D-01  6.22D-01  6.59D-01  6.99D-01
                    CP:  8.75D-01
 E= -1974.52809436187     Delta-E=       -0.000020697330 Rises=F Damp=F
 DIIS: error= 3.79D-05 at cycle   7 NSaved=   7.
 NSaved= 7 IEnMin= 7 EnMin= -1974.52809436187     IErMin= 7 ErrMin= 3.79D-05
 ErrMax= 3.79D-05  0.00D+00 EMaxC= 1.00D-01 BMatC= 3.72D-06 BMatP= 2.80D-05
 IDIUse=1 WtCom= 1.00D+00 WtEn= 0.00D+00
 Coeff-Com: -0.230D-03-0.366D-02-0.112D-01-0.193D-01 0.307D-01 0.315D+00
 Coeff-Com:  0.688D+00
 Coeff:     -0.230D-03-0.366D-02-0.112D-01-0.193D-01 0.307D-01 0.315D+00
 Coeff:      0.688D+00
 Gap=     0.322 Goal=   None    Shift=    0.000
 RMSDP=3.65D-06 MaxDP=1.90D-04 DE=-2.07D-05 OVMax= 4.48D-04

 Cycle   8  Pass 1  IDiag  1:
 RMSU=  2.31D-06    CP:  9.95D-01  7.20D-01  6.22D-01  6.59D-01  7.18D-01
                    CP:  9.71D-01  8.56D-01
 E= -1974.52809762644     Delta-E=       -0.000003264573 Rises=F Damp=F
 DIIS: error= 1.28D-05 at cycle   8 NSaved=   8.
 NSaved= 8 IEnMin= 8 EnMin= -1974.52809762644     IErMin= 8 ErrMin= 1.28D-05
 ErrMax= 1.28D-05  0.00D+00 EMaxC= 1.00D-01 BMatC= 2.55D-07 BMatP= 3.72D-06
 IDIUse=1 WtCom= 1.00D+00 WtEn= 0.00D+00
 Coeff-Com: -0.503D-04-0.175D-02-0.591D-02-0.121D-01 0.549D-03 0.727D-01
 Coeff-Com:  0.272D+00 0.674D+00
 Coeff:     -0.503D-04-0.175D-02-0.591D-02-0.121D-01 0.549D-03 0.727D-01
 Coeff:      0.272D+00 0.674D+00
 Gap=     0.322 Goal=   None    Shift=    0.000
 RMSDP=1.11D-06 MaxDP=5.52D-05 DE=-3.26D-06 OVMax= 1.25D-04

 Cycle   9  Pass 1  IDiag  1:
 RMSU=  7.97D-07    CP:  9.95D-01  7.20D-01  6.22D-01  6.59D-01  7.24D-01
                    CP:  9.86D-01  9.14D-01  1.02D+00
 E= -1974.52809785148     Delta-E=       -0.000000225043 Rises=F Damp=F
 DIIS: error= 4.28D-06 at cycle   9 NSaved=   9.
 NSaved= 9 IEnMin= 9 EnMin= -1974.52809785148     IErMin= 9 ErrMin= 4.28D-06
 ErrMax= 4.28D-06  0.00D+00 EMaxC= 1.00D-01 BMatC= 3.42D-08 BMatP= 2.55D-07
 IDIUse=1 WtCom= 1.00D+00 WtEn= 0.00D+00
 Coeff-Com:  0.121D-04-0.112D-03-0.512D-03-0.187D-02-0.393D-02-0.279D-01
 Coeff-Com: -0.664D-02 0.239D+00 0.802D+00
 Coeff:      0.121D-04-0.112D-03-0.512D-03-0.187D-02-0.393D-02-0.279D-01
 Coeff:     -0.664D-02 0.239D+00 0.802D+00
 Gap=     0.322 Goal=   None    Shift=    0.000
 RMSDP=5.77D-07 MaxDP=4.79D-05 DE=-2.25D-07 OVMax= 7.09D-05

 Cycle  10  Pass 1  IDiag  1:
 RMSU=  3.06D-07    CP:  9.95D-01  7.20D-01  6.22D-01  6.59D-01  7.27D-01
                    CP:  9.93D-01  9.42D-01  1.14D+00  9.91D-01
 E= -1974.52809789286     Delta-E=       -0.000000041377 Rises=F Damp=F
 DIIS: error= 1.96D-06 at cycle  10 NSaved=  10.
 NSaved=10 IEnMin=10 EnMin= -1974.52809789286     IErMin=10 ErrMin= 1.96D-06
 ErrMax= 1.96D-06  0.00D+00 EMaxC= 1.00D-01 BMatC= 3.27D-09 BMatP= 3.42D-08
 IDIUse=1 WtCom= 1.00D+00 WtEn= 0.00D+00
 Coeff-Com:  0.104D-04 0.168D-03 0.525D-03 0.748D-03-0.739D-03-0.179D-01
 Coeff-Com: -0.317D-01-0.676D-02 0.255D+00 0.801D+00
 Coeff:      0.104D-04 0.168D-03 0.525D-03 0.748D-03-0.739D-03-0.179D-01
 Coeff:     -0.317D-01-0.676D-02 0.255D+00 0.801D+00
 Gap=     0.322 Goal=   None    Shift=    0.000
 RMSDP=1.94D-07 MaxDP=1.06D-05 DE=-4.14D-08 OVMax= 2.98D-05

 Cycle  11  Pass 1  IDiag  1:
 RMSU=  1.00D-07    CP:  9.95D-01  7.20D-01  6.22D-01  6.59D-01  7.28D-01
                    CP:  9.94D-01  9.53D-01  1.18D+00  1.11D+00  9.82D-01
 E= -1974.52809789641     Delta-E=       -0.000000003551 Rises=F Damp=F
 DIIS: error= 1.22D-06 at cycle  11 NSaved=  11.
 NSaved=11 IEnMin=11 EnMin= -1974.52809789641     IErMin=11 ErrMin= 1.22D-06
 ErrMax= 1.22D-06  0.00D+00 EMaxC= 1.00D-01 BMatC= 8.51D-10 BMatP= 3.27D-09
 IDIUse=1 WtCom= 1.00D+00 WtEn= 0.00D+00
 Coeff-Com:  0.466D-05 0.105D-03 0.342D-03 0.591D-03 0.120D-03-0.711D-02
 Coeff-Com: -0.161D-01-0.273D-01 0.586D-01 0.428D+00 0.562D+00
 Coeff:      0.466D-05 0.105D-03 0.342D-03 0.591D-03 0.120D-03-0.711D-02
 Coeff:     -0.161D-01-0.273D-01 0.586D-01 0.428D+00 0.562D+00
 Gap=     0.322 Goal=   None    Shift=    0.000
 RMSDP=5.98D-08 MaxDP=5.03D-06 DE=-3.55D-09 OVMax= 1.03D-05

 Cycle  12  Pass 1  IDiag  1:
 RMSU=  3.82D-08    CP:  9.95D-01  7.20D-01  6.22D-01  6.59D-01  7.28D-01
                    CP:  9.94D-01  9.54D-01  1.19D+00  1.13D+00  1.07D+00
                    CP:  8.20D-01
 E= -1974.52809789723     Delta-E=       -0.000000000818 Rises=F Damp=F
 DIIS: error= 3.80D-07 at cycle  12 NSaved=  12.
 NSaved=12 IEnMin=12 EnMin= -1974.52809789723     IErMin=12 ErrMin= 3.80D-07
 ErrMax= 3.80D-07  0.00D+00 EMaxC= 1.00D-01 BMatC= 7.59D-11 BMatP= 8.51D-10
 IDIUse=1 WtCom= 1.00D+00 WtEn= 0.00D+00
 Coeff-Com:  0.698D-07 0.155D-04 0.543D-04 0.118D-03 0.274D-03 0.131D-03
 Coeff-Com: -0.950D-03-0.101D-01-0.195D-01 0.376D-01 0.229D+00 0.763D+00
 Coeff:      0.698D-07 0.155D-04 0.543D-04 0.118D-03 0.274D-03 0.131D-03
 Coeff:     -0.950D-03-0.101D-01-0.195D-01 0.376D-01 0.229D+00 0.763D+00
 Gap=     0.322 Goal=   None    Shift=    0.000
 RMSDP=2.15D-08 MaxDP=2.00D-06 DE=-8.18D-10 OVMax= 3.92D-06

 Cycle  13  Pass 1  IDiag  1:
 RMSU=  1.23D-08    CP:  9.95D-01  7.20D-01  6.22D-01  6.59D-01  7.28D-01
                    CP:  9.94D-01  9.55D-01  1.19D+00  1.13D+00  1.10D+00
                    CP:  9.28D-01  8.97D-01
 E= -1974.52809789730     Delta-E=       -0.000000000075 Rises=F Damp=F
 DIIS: error= 1.05D-07 at cycle  13 NSaved=  13.
 NSaved=13 IEnMin=13 EnMin= -1974.52809789730     IErMin=13 ErrMin= 1.05D-07
 ErrMax= 1.05D-07  0.00D+00 EMaxC= 1.00D-01 BMatC= 1.45D-11 BMatP= 7.59D-11
 IDIUse=1 WtCom= 1.00D+00 WtEn= 0.00D+00
 Coeff-Com: -0.488D-06-0.291D-05-0.720D-05-0.112D-05 0.145D-03 0.809D-03
 Coeff-Com:  0.124D-02-0.238D-02-0.167D-01-0.278D-01 0.552D-01 0.397D+00
 Coeff-Com:  0.593D+00
 Coeff:     -0.488D-06-0.291D-05-0.720D-05-0.112D-05 0.145D-03 0.809D-03
 Coeff:      0.124D-02-0.238D-02-0.167D-01-0.278D-01 0.552D-01 0.397D+00
 Coeff:      0.593D+00
 Gap=     0.322 Goal=   None    Shift=    0.000
 RMSDP=7.59D-09 MaxDP=5.86D-07 DE=-7.55D-11 OVMax= 1.01D-06

 Error on total polarization charges =  0.00430
 SCF Done:  E(RCAM-B3LYP) =  -1974.52809790     A.U. after   13 cycles
            NFock= 13  Conv=0.76D-08     -V/T= 2.0076
 KE= 1.959589559572D+03 PE=-1.214041636995D+04 EE= 4.461851898990D+03
 Leave Link  502 at Wed Feb  5 13:12:02 2025, MaxMem=  5368709120 cpu:       988.1
 (Enter /home/k0335/k033513/app/g09/l601.exe)
 Copying SCF densities to generalized density rwf, IOpCl= 0 IROHF=0.

 **********************************************************************

            Population analysis using the SCF density.

 **********************************************************************

 Alpha  occ. eigenvalues --  -24.83704 -24.83314 -24.82936 -24.82630 -24.82305
 Alpha  occ. eigenvalues --  -24.82232 -24.82095 -24.81980 -24.81522 -24.81430
 Alpha  occ. eigenvalues --  -19.31335 -19.30170 -19.25474 -19.21554 -14.44862
 Alpha  occ. eigenvalues --  -10.52351 -10.48997 -10.48944 -10.47582 -10.47182
 Alpha  occ. eigenvalues --  -10.44406 -10.42754 -10.39534 -10.29845 -10.26336
 Alpha  occ. eigenvalues --  -10.25611 -10.25077 -10.24760 -10.24684 -10.24600
 Alpha  occ. eigenvalues --  -10.24066  -1.40533  -1.38233  -1.37850  -1.36925
 Alpha  occ. eigenvalues --   -1.35662  -1.33719  -1.32841  -1.31597  -1.31236
 Alpha  occ. eigenvalues --   -1.30156  -1.22127  -1.19393  -1.13632  -1.12312
 Alpha  occ. eigenvalues --   -1.01591  -0.97563  -0.90460  -0.89698  -0.88583
 Alpha  occ. eigenvalues --   -0.87222  -0.83933  -0.82010  -0.78676  -0.77466
 Alpha  occ. eigenvalues --   -0.76111  -0.73954  -0.73164  -0.71021  -0.70315
 Alpha  occ. eigenvalues --   -0.69926  -0.69005  -0.68437  -0.67863  -0.66521
 Alpha  occ. eigenvalues --   -0.66145  -0.65880  -0.65473  -0.64530  -0.63996
 Alpha  occ. eigenvalues --   -0.63776  -0.63309  -0.62689  -0.61854  -0.58478
 Alpha  occ. eigenvalues --   -0.57607  -0.56720  -0.56268  -0.55857  -0.55522
 Alpha  occ. eigenvalues --   -0.55406  -0.54473  -0.54221  -0.53798  -0.53531
 Alpha  occ. eigenvalues --   -0.53442  -0.53073  -0.52647  -0.52560  -0.52288
 Alpha  occ. eigenvalues --   -0.52083  -0.51757  -0.51355  -0.50795  -0.50578
 Alpha  occ. eigenvalues --   -0.50143  -0.49848  -0.49589  -0.49366  -0.48702
 Alpha  occ. eigenvalues --   -0.48554  -0.48193  -0.47300  -0.46236  -0.45714
 Alpha  occ. eigenvalues --   -0.45539  -0.44876  -0.44554  -0.42942  -0.42648
 Alpha  occ. eigenvalues --   -0.42248  -0.41584  -0.41125  -0.40747  -0.39638
 Alpha  occ. eigenvalues --   -0.38901  -0.38242  -0.37737  -0.37663  -0.35841
 Alpha  occ. eigenvalues --   -0.34366  -0.32348
 Alpha virt. eigenvalues --   -0.00161   0.02222   0.04387   0.09135   0.10481
 Alpha virt. eigenvalues --    0.12185   0.12760   0.13518   0.13727   0.14546
 Alpha virt. eigenvalues --    0.14919   0.16064   0.16696   0.17613   0.18052
 Alpha virt. eigenvalues --    0.18928   0.19552   0.20335   0.21373   0.21879
 Alpha virt. eigenvalues --    0.22212   0.22387   0.23429   0.23622   0.23920
 Alpha virt. eigenvalues --    0.24042   0.24421   0.24696   0.25539   0.25987
 Alpha virt. eigenvalues --    0.26034   0.27151   0.27980   0.28328   0.28463
 Alpha virt. eigenvalues --    0.29230   0.29762   0.30136   0.30967   0.31338
 Alpha virt. eigenvalues --    0.31674   0.32006   0.32605   0.33384   0.34375
 Alpha virt. eigenvalues --    0.35074   0.36755   0.37096   0.38594   0.40544
 Alpha virt. eigenvalues --    0.41475   0.45303   0.47829   0.49530   0.51422
 Alpha virt. eigenvalues --    0.51851   0.54244   0.54651   0.55903   0.56118
 Alpha virt. eigenvalues --    0.56497   0.57250   0.58053   0.58503   0.59199
 Alpha virt. eigenvalues --    0.59629   0.60028   0.60451   0.62058   0.62192
[...]
     3  F   -0.048222   0.000000   0.000000   0.000000   0.000000   0.000000
     4  C   -0.047509  -0.000279  -0.000003   0.000000   0.000000   0.000000
     5  F   -0.001110   0.000018   0.000000   0.000000   0.000000   0.000000
     6  F    0.000932   0.000230   0.000000   0.000000   0.000000   0.000000
     7  C   -0.015518  -0.000304   0.000551   0.000000  -0.000001  -0.000008
     8  F   -0.002916  -0.000004  -0.000001   0.000000   0.000000   0.000000
     9  C    0.002305   0.008033   0.000018   0.000000   0.000000   0.000022
    10  F    0.000012  -0.000143   0.000001   0.000000   0.000000   0.000000
    11  C   -0.000056  -0.009391   0.000001   0.000000   0.000000  -0.000001
    12  O    0.000000   0.285007   0.000000   0.000000   0.000000   0.000000
    13  O    0.000000   0.004278   0.000000   0.000000   0.000000   0.000000
    14  F    0.000025  -0.000048   0.000016  -0.000002  -0.000005   0.000056
    15  C    0.162549   0.000006  -0.002001   0.000006  -0.000007   0.000025
    16  F   -0.042722   0.000000   0.015820  -0.000007  -0.000003   0.000014
    17  C   -0.034100   0.000000  -0.000030  -0.000127   0.000453  -0.000012
    18  F   -0.000511   0.000000   0.004447   0.000002  -0.000016   0.000000
    19  C    0.002575   0.000000  -0.030792   0.005099  -0.004446  -0.000046
    20  N   -0.000036   0.000000   0.342440  -0.035388  -0.039547  -0.000139
    21  C    0.000001   0.000000  -0.022443   0.388698   0.394319  -0.042000
    22  C    0.000000   0.000000   0.000520  -0.042946  -0.041557   0.384700
    23  C    0.000000   0.000000  -0.000070  -0.002590  -0.000937  -0.034840
    24  C    0.000000   0.000000  -0.000004   0.003095  -0.000618  -0.007232
    25  C    0.000000   0.000000   0.000000  -0.000093  -0.000018   0.000038
    26  C    0.000000   0.000000   0.000000   0.000004   0.000000  -0.000001
    27  C    0.000000   0.000000   0.000000   0.000000   0.000000   0.000000
    28  C    0.000000   0.000000   0.000000   0.000000   0.000000   0.000000
    29  O   -0.000018   0.000000   0.002835   0.000457   0.010840   0.000014
    30  F   -0.001115   0.000000   0.000137   0.000000  -0.000001   0.000000
    31  O    8.367336   0.000000   0.000029   0.000000   0.000000   0.000000
    32  H    0.000000   0.351857   0.000000   0.000000   0.000000   0.000000
    33  H    0.000029   0.000000   0.404272  -0.004480   0.003776   0.001574
    34  H    0.000000   0.000000  -0.004480   0.599036  -0.030422  -0.005406
    35  H    0.000000   0.000000   0.003776  -0.030422   0.560612   0.005338
    36  H    0.000000   0.000000   0.001574  -0.005406   0.005338   0.630808
    37  H    0.000000   0.000000  -0.000153   0.005260  -0.005655  -0.035983
    38  H    0.000000   0.000000   0.000004  -0.000132   0.004952   0.005736
    39  H    0.000000   0.000000   0.000003  -0.000077  -0.000059  -0.003417
    40  H    0.000000   0.000000   0.000009   0.001070   0.000379  -0.000143
    41  H    0.000000   0.000000   0.000001   0.000468   0.000070   0.005432
    42  H    0.000000   0.000000   0.000000  -0.000001   0.000001   0.000005
    43  H    0.000000   0.000000   0.000000   0.000011   0.000000   0.000007
    44  H    0.000000   0.000000   0.000000   0.000001   0.000000  -0.000002
    45  H    0.000000   0.000000   0.000000  -0.000004   0.000000   0.000000
    46  H    0.000000   0.000000   0.000000   0.000000   0.000000   0.000000
    47  H    0.000000   0.000000   0.000000   0.000000   0.000000   0.000000
    48  H    0.000000   0.000000   0.000000   0.000000   0.000000   0.000000
    49  H    0.000000   0.000000   0.000000   0.000000   0.000000   0.000000
    50  H    0.000000   0.000000   0.000000   0.000000   0.000000   0.000000
              37         38         39         40         41         42
     1  F    0.000000   0.000000   0.000000   0.000000   0.000000   0.000000
     2  C    0.000000   0.000000   0.000000   0.000000   0.000000   0.000000
     3  F    0.000000   0.000000   0.000000   0.000000   0.000000   0.000000
     4  C   -0.000001   0.000000   0.000000   0.000000   0.000000   0.000000
     5  F    0.000000   0.000000   0.000000   0.000000   0.000000   0.000000
     6  F    0.000000   0.000000   0.000000   0.000000   0.000000   0.000000
     7  C    0.000050   0.000000   0.000000   0.000000   0.000000   0.000000
     8  F    0.000000   0.000000   0.000000   0.000000   0.000000   0.000000
     9  C    0.000187   0.000000   0.000000   0.000000   0.000000   0.000000
    10  F   -0.000010   0.000000   0.000000   0.000000   0.000000   0.000000
    11  C   -0.000003   0.000000   0.000000   0.000000   0.000000   0.000000
    12  O    0.000000   0.000000   0.000000   0.000000   0.000000   0.000000
    13  O    0.000004   0.000000   0.000000   0.000000   0.000000   0.000000
    14  F    0.006145   0.000000   0.000000   0.000000   0.000000   0.000000
    15  C   -0.000015   0.000000   0.000000   0.000000   0.000000   0.000000
    16  F    0.000004   0.000000   0.000000   0.000000   0.000000   0.000000
    17  C    0.000045   0.000000   0.000000   0.000000   0.000000   0.000000
    18  F    0.000000   0.000000   0.000000   0.000000   0.000000   0.000000
    19  C    0.004064  -0.000015  -0.000007  -0.000004   0.000000   0.000000
    20  N   -0.006669   0.000055  -0.000115  -0.000026  -0.000017   0.000000
    21  C   -0.035836  -0.007656   0.004580   0.001640  -0.000868   0.000003
    22  C    0.382429  -0.038244  -0.031484  -0.004061  -0.003152   0.000005
    23  C   -0.025957   0.386862   0.386563  -0.038781  -0.041910  -0.004188
    24  C    0.003997  -0.039972  -0.040823   0.386554   0.386450  -0.039745
    25  C   -0.000112  -0.003781  -0.004703  -0.038720  -0.038812   0.387191
    26  C    0.000001   0.000019   0.000090  -0.003393  -0.004108  -0.041301
    27  C    0.000000   0.000002   0.000001   0.000094   0.000001  -0.003160
    28  C    0.000000  -0.000002   0.000000  -0.000016   0.000001  -0.000741
    29  O    0.002641  -0.000004   0.000000   0.000000   0.000000   0.000000
    30  F    0.000000   0.000000   0.000000   0.000000   0.000000   0.000000
    31  O    0.000000   0.000000   0.000000   0.000000   0.000000   0.000000
    32  H    0.000000   0.000000   0.000000   0.000000   0.000000   0.000000
    33  H   -0.000153   0.000004   0.000003   0.000009   0.000001   0.000000
    34  H    0.005260  -0.000132  -0.000077   0.001070   0.000468  -0.000001
    35  H   -0.005655   0.004952  -0.000059   0.000379   0.000070   0.000001
    36  H   -0.035983   0.005736  -0.003417  -0.000143   0.005432   0.000005
    37  H    0.597951  -0.002951  -0.004563  -0.000074   0.000054  -0.000005
    38  H   -0.002951   0.628738  -0.036095  -0.006127   0.005882  -0.000428
    39  H   -0.004563  -0.036095   0.625469   0.005723  -0.004913   0.005187
    40  H   -0.000074  -0.006127   0.005723   0.640409  -0.040530   0.005924
    41  H    0.000054   0.005882  -0.004913  -0.040530   0.641144  -0.005962
    42  H   -0.000005  -0.000428   0.005187   0.005924  -0.005962   0.639611
    43  H    0.000004   0.004474  -0.000559  -0.005763   0.005868  -0.039664
    44  H    0.000000   0.000004   0.000003  -0.000560   0.005167  -0.005124
    45  H    0.000000   0.000005   0.000005   0.004782  -0.000439   0.006003
    46  H    0.000000   0.000000  -0.000002   0.000007   0.000004   0.005454
    47  H    0.000000   0.000000   0.000000   0.000004  -0.000005   0.000039
    48  H    0.000000   0.000000   0.000000   0.000001   0.000000   0.000083
    49  H    0.000000   0.000000   0.000000   0.000000   0.000000  -0.000027
    50  H    0.000000  -0.000004   0.000001   0.000010  -0.000001   0.000481
              43         44         45         46         47         48
     1  F    0.000000   0.000000   0.000000   0.000000   0.000000   0.000000
     2  C    0.000000   0.000000   0.000000   0.000000   0.000000   0.000000
     3  F    0.000000   0.000000   0.000000   0.000000   0.000000   0.000000
     4  C    0.000000   0.000000   0.000000   0.000000   0.000000   0.000000
     5  F    0.000000   0.000000   0.000000   0.000000   0.000000   0.000000
     6  F    0.000000   0.000000   0.000000   0.000000   0.000000   0.000000
     7  C    0.000000   0.000000   0.000000   0.000000   0.000000   0.000000
     8  F    0.000000   0.000000   0.000000   0.000000   0.000000   0.000000
     9  C    0.000000   0.000000   0.000000   0.000000   0.000000   0.000000
    10  F    0.000000   0.000000   0.000000   0.000000   0.000000   0.000000
    11  C    0.000000   0.000000   0.000000   0.000000   0.000000   0.000000
    12  O    0.000000   0.000000   0.000000   0.000000   0.000000   0.000000
    13  O    0.000000   0.000000   0.000000   0.000000   0.000000   0.000000
    14  F    0.000000   0.000000   0.000000   0.000000   0.000000   0.000000
    15  C    0.000000   0.000000   0.000000   0.000000   0.000000   0.000000
    16  F    0.000000   0.000000   0.000000   0.000000   0.000000   0.000000
    17  C    0.000000   0.000000   0.000000   0.000000   0.000000   0.000000
    18  F    0.000000   0.000000   0.000000   0.000000   0.000000   0.000000
    19  C    0.000000   0.000000   0.000000   0.000000   0.000000   0.000000
    20  N    0.000000   0.000000   0.000000   0.000000   0.000000   0.000000
    21  C   -0.000020   0.000000  -0.000002   0.000000   0.000000   0.000000
    22  C    0.000110   0.000002   0.000002   0.000000   0.000000   0.000000
    23  C   -0.003230   0.000094   0.000031  -0.000001   0.000001   0.000000
    24  C   -0.039683  -0.004788  -0.004303   0.000035  -0.000134  -0.000028
    25  C    0.388477  -0.041723  -0.040920  -0.007641   0.004611  -0.000713
    26  C   -0.038021   0.384905   0.384338  -0.039078  -0.032933  -0.004465
    27  C   -0.004186  -0.033802  -0.038361   0.389032   0.386497  -0.036785
    28  C    0.002441   0.005007  -0.006922  -0.040423  -0.039387   0.389124
    29  O    0.000000   0.000000   0.000000   0.000000   0.000000   0.000000
    30  F    0.000000   0.000000   0.000000   0.000000   0.000000   0.000000
    31  O    0.000000   0.000000   0.000000   0.000000   0.000000   0.000000
    32  H    0.000000   0.000000   0.000000   0.000000   0.000000   0.000000
    33  H    0.000000   0.000000   0.000000   0.000000   0.000000   0.000000
    34  H    0.000011   0.000001  -0.000004   0.000000   0.000000   0.000000
    35  H    0.000000   0.000000   0.000000   0.000000   0.000000   0.000000
    36  H    0.000007  -0.000002   0.000000   0.000000   0.000000   0.000000
    37  H    0.000004   0.000000   0.000000   0.000000   0.000000   0.000000
    38  H    0.004474   0.000004   0.000005   0.000000   0.000000   0.000000
    39  H   -0.000559   0.000003   0.000005  -0.000002   0.000000   0.000000
    40  H   -0.005763  -0.000560   0.004782   0.000007   0.000004   0.000001
    41  H    0.005868   0.005167  -0.000439   0.000004  -0.000005   0.000000
    42  H   -0.039664  -0.005124   0.006003   0.005454   0.000039   0.000083
    43  H    0.633494   0.005877  -0.006065  -0.000199  -0.000035   0.000400
    44  H    0.005877   0.642665  -0.037811  -0.003330  -0.004506   0.000025
    45  H   -0.006065  -0.037811   0.644100   0.006004  -0.003345   0.005263
    46  H   -0.000199  -0.003330   0.006004   0.637358  -0.037122   0.005400
    47  H   -0.000035  -0.004506  -0.003345  -0.037122   0.637393  -0.004345
    48  H    0.000400   0.000025   0.005263   0.005400  -0.004345   0.608139
    49  H   -0.000090  -0.000165  -0.000005  -0.002767  -0.004030  -0.030838
    50  H    0.001226  -0.000030  -0.000128  -0.004998   0.005238  -0.033040
              49         50
     1  F    0.000000   0.000000
     2  C    0.000000   0.000000
     3  F    0.000000   0.000000
     4  C    0.000000   0.000000
     5  F    0.000000   0.000000
     6  F    0.000000   0.000000
     7  C    0.000000   0.000000
     8  F    0.000000   0.000000
     9  C    0.000000   0.000000
    10  F    0.000000   0.000000
    11  C    0.000000   0.000000
    12  O    0.000000   0.000000
    13  O    0.000000   0.000000
    14  F    0.000000   0.000000
    15  C    0.000000   0.000000
    16  F    0.000000   0.000000
    17  C    0.000000   0.000000
    18  F    0.000000   0.000000
    19  C    0.000000   0.000000
    20  N    0.000000   0.000000
    21  C    0.000000   0.000000
    22  C    0.000000   0.000000
    23  C    0.000000   0.000005
    24  C   -0.000001  -0.000078
    25  C    0.000117   0.002472
    26  C    0.004309  -0.005123
    27  C   -0.028400  -0.034746
    28  C    0.385420   0.391513
    29  O    0.000000   0.000000
    30  F    0.000000   0.000000
    31  O    0.000000   0.000000
    32  H    0.000000   0.000000
    33  H    0.000000   0.000000
    34  H    0.000000   0.000000
    35  H    0.000000   0.000000
    36  H    0.000000   0.000000
    37  H    0.000000   0.000000
    38  H    0.000000  -0.000004
    39  H    0.000000   0.000001
    40  H    0.000000   0.000010
    41  H    0.000000  -0.000001
    42  H   -0.000027   0.000481
    43  H   -0.000090   0.001226
    44  H   -0.000165  -0.000030
    45  H   -0.000005  -0.000128
    46  H   -0.002767  -0.004998
    47  H   -0.004030   0.005238
    48  H   -0.030838  -0.033040
    49  H    0.604901  -0.030634
    50  H   -0.030634   0.601358
 Mulliken charges:
               1
     1  F   -0.240378
     2  C    0.750744
     3  F   -0.244526
     4  C    0.539298
     5  F   -0.248809
     6  F   -0.258665
     7  C    0.147719
     8  F   -0.298410
     9  C    0.592920
    10  F   -0.251287
    11  C    0.529035
    12  O   -0.465562
    13  O   -0.421305
    14  F   -0.267224
    15  C    0.513803
    16  F   -0.273897
    17  C    0.531702
    18  F   -0.278736
    19  C    0.553526
    20  N   -0.535606
    21  C   -0.054914
    22  C   -0.181268
    23  C   -0.187164
    24  C   -0.179302
    25  C   -0.174477
    26  C   -0.174819
    27  C   -0.178482
    28  C   -0.319213
    29  O   -0.515636
    30  F   -0.264078
    31  O   -0.496645
    32  H    0.360740
    33  H    0.283528
    34  H    0.118465
    35  H    0.142552
    36  H    0.095461
    37  H    0.115149
    38  H    0.098676
    39  H    0.099190
    40  H    0.091590
    41  H    0.090173
    42  H    0.090359
    43  H    0.095127
    44  H    0.088088
    45  H    0.087769
    46  H    0.092266
    47  H    0.092059
    48  H    0.101779
    49  H    0.102208
    50  H    0.106477
 Sum of Mulliken charges =   0.00000
 Mulliken charges with hydrogens summed into heavy atoms:
               1
     1  F   -0.240378
     2  C    0.750744
     3  F   -0.244526
     4  C    0.539298
     5  F   -0.248809
     6  F   -0.258665
     7  C    0.147719
     8  F   -0.298410
     9  C    0.592920
    10  F   -0.251287
    11  C    0.529035
    12  O   -0.104822
    13  O   -0.421305
    14  F   -0.267224
    15  C    0.513803
    16  F   -0.273897
    17  C    0.531702
    18  F   -0.278736
    19  C    0.553526
    20  N   -0.252078
    21  C    0.206102
    22  C    0.029342
    23  C    0.010702
    24  C    0.002461
    25  C    0.011009
    26  C    0.001037
    27  C    0.005844
    28  C   -0.008748
    29  O   -0.515636
    30  F   -0.264078
    31  O   -0.496645
 Electronic spatial extent (au):  <R**2>=          22706.8178
 Charge=              0.0000 electrons
 Dipole moment (field-independent basis, Debye):
    X=              0.8233    Y=              0.4367    Z=             -2.2942  Tot=              2.4763
 Quadrupole moment (field-independent basis, Debye-Ang):
   XX=           -162.2621   YY=           -172.5018   ZZ=           -183.4977
   XY=             12.0191   XZ=             13.9181   YZ=              8.5059
 Traceless Quadrupole moment (field-independent basis, Debye-Ang):
   XX=             10.4918   YY=              0.2520   ZZ=            -10.7438
   XY=             12.0191   XZ=             13.9181   YZ=              8.5059
 Octapole moment (field-independent basis, Debye-Ang**2):
  XXX=            783.3801  YYY=            -69.2514  ZZZ=            -86.9402  XYY=            271.2436
  XXY=           -108.1717  XXZ=           -114.5087  XZZ=            307.6849  YZZ=            -18.7034
  YYZ=            -53.1990  XYZ=            -36.7815
 Hexadecapole moment (field-independent basis, Debye-Ang**3):
 XXXX=         -21896.2606 YYYY=          -1627.7920 ZZZZ=          -2355.8961 XXXY=           1136.9472
 XXXZ=           1702.1921 YYYX=            663.8463 YYYZ=           -321.6142 ZZZX=           1210.1263
 ZZZY=           -383.3922 XXYY=          -3896.2869 XXZZ=          -4079.1836 YYZZ=           -645.6593
 XXYZ=            109.2357 YYXZ=            529.1521 ZZXY=            243.9845
 N-N= 3.772301543021D+03 E-N=-1.219642151782D+04  KE= 1.959955215654D+03
 No NMR shielding tensors so no spin-rotation constants.
 Leave Link  601 at Wed Feb  5 13:42:04 2025, MaxMem=  5368709120 cpu:         3.5
 (Enter /home/k0335/k033513/app/g09/l9999.exe)
 1\1\GINC-C18U06N1\FOpt\RCAM-B3LYP\6-31G(d,p)\C16H19F10N1O4\K033513\05-
 Feb-2025\0\\#p CAM-B3LYP/6-31G(d,p) opt SCRF=(PCM,Solvent=Generic,Read
 ) NoSymm out=wfn\\Title OA1_neu\\0,1\F,-6.938118107,1.5927340521,2.098
 7851572\C,-6.1269367082,1.6426303965,1.0444498635\F,-6.624301908,2.532
 8291664,0.1756944765\C,-5.9667279963,0.2644852094,0.3685077705\F,-6.13
 13133599,-0.7028667455,1.2818696496\F,-6.8459481703,0.1012040342,-0.62
 60677252\C,-4.5196582375,0.3277472221,-0.1429091501\F,-4.5734232066,1.
 0597258858,-1.3030747372\C,-3.8256335163,-0.9882204097,-0.5045877929\F
 ,-3.8603380038,-1.8379533323,0.5352446607\C,-4.4343347834,-1.659192310
 8,-1.7523465322\O,-5.5579677371,-2.2890024557,-1.4267583849\O,-3.93499
 2016,-1.5986042301,-2.8386249202\F,-2.5383447976,-0.6861262273,-0.7917
 013686\C,-3.8297299437,1.2517713035,0.9091191014\F,-2.9775748075,2.085
 5023374,0.2585149139\C,-3.0569551174,0.6415169938,2.1035558526\F,-2.81
 78798888,1.6903519581,2.9370835181\C,-1.6969757898,-0.0572445105,1.838
 0311258\N,-0.7295297678,0.7712738195,1.4108229844\C,0.6085427133,0.283
 7428879,1.1046002442\C,0.7429345135,-0.1998284925,-0.3391431946\C,2.12
 60837512,-0.7656794767,-0.6648597336\C,3.2619310504,0.2565200023,-0.61
 95712145\C,4.6009818428,-0.3181896918,-1.0772480101\C,5.7393521271,0.6
 994727588,-1.023019125\C,7.0755532583,0.187431079,-1.5658886194\C,7.68
 43391798,-0.9551222898,-0.7559437167\O,-1.5663417991,-1.2402205465,2.0
 803737929\F,-3.8869398448,-0.2156791844,2.7199534017\O,-4.8681769017,2
 .0213284132,1.455231404\H,-5.9336471187,-2.6847329258,-2.2311752571\H,
 -0.9675932737,1.7267652233,1.1932136665\H,1.3100768683,1.0921569793,1.
 3213615209\H,0.8193912075,-0.535932911,1.7951854667\H,0.5115381462,0.6
 288890921,-1.0197651633\H,-0.0172587485,-0.9672570402,-0.5102795401\H,
 2.350878136,-1.5924327121,0.0214312733\H,2.0901323178,-1.2078528937,-1
 .6672385562\H,3.3760318904,0.6524210533,0.397347632\H,3.0008835777,1.1
 149684091,-1.2531682887\H,4.5002777551,-0.6940463019,-2.1043477642\H,4
 .8458263859,-1.1892095638,-0.4575887213\H,5.4432038191,1.5889988839,-1
 .5929942846\H,5.8757227917,1.034817644,0.0139337877\H,6.9412915845,-0.
 1333172827,-2.6065559083\H,7.7856160125,1.0216218755,-1.5951585982\H,7
 .8219148874,-0.6639581161,0.2906684986\H,8.66248439,-1.241503859,-1.15
 19453836\H,7.0516523428,-1.8467331702,-0.7703340718\\Version=ES64L-G09
 RevD.01\HF=-1974.5598319\RMSD=8.954e-09\RMSF=3.444e-06\Dipole=0.323926
 2,0.1718226,-0.9026087\Quadrupole=7.800392,0.1873916,-7.9877835,8.9358
 963,10.3477511,6.3239656\PG=C01 [X(C16H19F10N1O4)]\\@

 Writing a WFN file to "cytopopt/OA1/OA1_neu.wfn"


 THE ONLY EXISTING THINGS ARE ATOMS AND EMPTY SPACE;
 ALL ELSE IS MERE OPINION. -- DEMOCRITUS OF ABDERA D. 370 B.C.
 EXPERIMENTS ARE THE ONLY MEANS OF KNOWLEDGE AT OUR DISPOSAL
 THE REST IS POETRY, IMAGINATION. -- MAX PLANCK
 Job cpu time:       0 days 11 hours 27 minutes 50.6 seconds.
 File lengths (MBytes):  RWF=    623 Int=      0 D2E=      0 Chk=     27 Scr=      1
 Normal termination of Gaussian 09 at Wed Feb  5 13:42:04 2025.
