 Entering Gaussian System, Link 0=g09
 Initial command:
 /home/k0335/k033513/app/g09/l1.exe "/home/k0335/k033513/app/g09/scratch/Gau-342812.inp" -scrdir="/home/k0335/k033513/app/g09/scratch/"
 Default is to use a total of  36 processors:
                               36 via shared-memory
                                1 via Linda
 Entering Link 1 = /home/k0335/k033513/app/g09/l1.exe PID=    342813.
  
 Copyright (c) 1988,1990,1992,1993,1995,1998,2003,2009,2013,
            Gaussian, Inc.  All Rights Reserved.
  
 This is part of the Gaussian(R) 09 program.  It is based on
 the Gaussian(R) 03 system (copyright 2003, Gaussian, Inc.),
 the Gaussian(R) 98 system (copyright 1998, Gaussian, Inc.),
 the Gaussian(R) 94 system (copyright 1995, Gaussian, Inc.),
 the Gaussian 92(TM) system (copyright 1992, Gaussian, Inc.),
 the Gaussian 90(TM) system (copyright 1990, Gaussian, Inc.),
 the Gaussian 88(TM) system (copyright 1988, Gaussian, Inc.),
 the Gaussian 86(TM) system (copyright 1986, Carnegie Mellon
 University), and the Gaussian 82(TM) system (copyright 1983,
 Carnegie Mellon University). Gaussian is a federally registered
 trademark of Gaussian, Inc.
  
 This software contains proprietary and confidential information,
 including trade secrets, belonging to Gaussian, Inc.
  
 This software is provided under written license and may be
 used, copied, transmitted, or stored only in accord with that
 written license.
  
 The following legend is applicable only to US Government
 contracts under FAR:
  
                    RESTRICTED RIGHTS LEGEND
  
 Use, reproduction and disclosure by the US Government is
 subject to restrictions as set forth in subparagraphs (a)
 and (c) of the Commercial Computer Software - Restricted
 Rights clause in FAR 52.227-19.
  
 Gaussian, Inc.
 340 Quinnipiac St., Bldg. 40, Wallingford CT 06492
  
  
 ---------------------------------------------------------------
 Warning -- This program may not be used in any manner that
 competes with the business of Gaussian, Inc. or will provide
 assistance to any competitor of Gaussian, Inc.  The licensee
 of this program is prohibited from giving any competitor of
 Gaussian, Inc. access to this program.  By using this program,
 the user acknowledges that Gaussian, Inc. is engaged in the
 business of creating and licensing software in the field of
 computational chemistry and represents and warrants to the
 licensee that it is not a competitor of Gaussian, Inc. and that
 it will not use this program in any manner prohibited above.
 ---------------------------------------------------------------
  

 Cite this work as:
 Gaussian 09, Revision D.01,
 M. J. Frisch, G. W. Trucks, H. B. Schlegel, G. E. Scuseria, 
 M. A. Robb, J. R. Cheeseman, G. Scalmani, V. Barone, B. Mennucci, 
 G. A. Petersson, H. Nakatsuji, M. Caricato, X. Li, H. P. Hratchian, 
 A. F. Izmaylov, J. Bloino, G. Zheng, J. L. Sonnenberg, M. Hada, 
 M. Ehara, K. Toyota, R. Fukuda, J. Hasegawa, M. Ishida, T. Nakajima, 
 Y. Honda, O. Kitao, H. Nakai, T. Vreven, J. A. Montgomery, Jr., 
 J. E. Peralta, F. Ogliaro, M. Bearpark, J. J. Heyd, E. Brothers, 
 K. N. Kudin, V. N. Staroverov, T. Keith, R. Kobayashi, J. Normand, 
 K. Raghavachari, A. Rendell, J. C. Burant, S. S. Iyengar, J. Tomasi, 
 M. Cossi, N. Rega, J. M. Millam, M. Klene, J. E. Knox, J. B. Cross, 
 V. Bakken, C. Adamo, J. Jaramillo, R. Gomperts, R. E. Stratmann, 
 O. Yazyev, A. J. Austin, R. Cammi, C. Pomelli, J. W. Ochterski, 
 R. L. Martin, K. Morokuma, V. G. Zakrzewski, G. A. Voth, 
 P. Salvador, J. J. Dannenberg, S. Dapprich, A. D. Daniels, 
 O. Farkas, J. B. Foresman, J. V. Ortiz, J. Cioslowski, 
 and D. J. Fox, Gaussian, Inc., Wallingford CT, 2013.
 
 ******************************************
 Gaussian 09:  ES64L-G09RevD.01 24-Apr-2013
                 3-Mar-2024 
 ******************************************
 %nprocshared=24
 Will use up to   24 processors via shared memory.
 %mem=40GB
 %rwf=A124553251/A124553251_0.rwf
 %nosave
 %chk=A124553251/A124553251_0.chk
 ----------------------------------------------------------------------
 #p CAM-B3LYP/6-31G(d,p) SCRF=(PCM,Solvent=Generic,Read) NoSymm out=wfn
 ----------------------------------------------------------------------
 1/38=1,40=2/1;
 2/12=2,15=1,17=6,18=5,40=1/2;
 3/5=1,6=6,7=101,11=2,16=1,25=1,30=1,70=2203,72=-2,74=-40/1,2,3;
 4//1;
 5/5=2,38=5/2;
 6/7=2,8=2,9=2,10=2,28=1/1;
 99/5=1,6=100,9=1/99;
 Leave Link    1 at Sun Mar  3 18:19:02 2024, MaxMem=  5368709120 cpu:         1.0
 (Enter /home/k0335/k033513/app/g09/l101.exe)
 ------------------
 Title A124553251_0
 ------------------
 Symbolic Z-matrix:
 Charge =  0 Multiplicity = 1
 O                    -2.13338  -0.2624   -3.47206 
 C                    -1.16623  -0.11229  -2.73391 
 O                     0.01827   0.24675  -3.27697 
 C                     1.02925   0.68712  -2.50118 
 O                     2.14011   0.84648  -2.99036 
 N                     0.73947   0.94695  -1.19368 
 C                     1.76533   1.60547  -0.39911 
 F                     2.19052   2.68742  -1.13272 
 F                     1.19177   2.19941   0.69074 
 C                     3.02586   0.81765   0.06306 
 F                     3.65817   0.28973  -1.02399 
 O                     3.93848   1.77403   0.62933 
 C                     5.06538   1.18937   1.22524 
 F                     5.5438    0.17747   0.48599 
 F                     6.02034   2.12833   1.3528 
 F                     4.73016   0.7486    2.44931 
 C                     2.5776   -0.32065   0.98035 
 F                     1.97113   0.1266    2.09649 
 F                     3.61501  -1.09467   1.37366 
 F                     1.72213  -1.15359   0.33766 
 C                    -0.31506   0.3401   -0.58241 
 O                    -0.42994   0.36765   0.63589 
 N                    -1.20149  -0.31021  -1.3765 
 C                    -2.43477  -0.91378  -0.87584 
 F                    -2.65507  -2.00632  -1.67102 
 F                    -3.46883  -0.06714  -1.13001 
 C                    -2.53909  -1.41378   0.59567 
 F                    -1.41837  -2.1802    0.84823 
 O                    -2.56115  -0.4789    1.68019 
 C                    -3.4116    0.62187   1.51115 
 F                    -3.4855    1.29883   2.6701 
 F                    -4.64032   0.2168    1.16783 
 F                    -2.92003   1.4377    0.56223 
 C                    -3.7474   -2.36671   0.64698 
 F                    -4.02811  -2.72288   1.92618 
 F                    -3.51377  -3.51851  -0.02617 
 F                    -4.87267  -1.83229   0.1305 
 
 NAtoms=     37 NQM=       37 NQMF=       0 NMMI=      0 NMMIF=      0
                NMic=       0 NMicF=      0.
                    Isotopes and Nuclear Properties:
 (Nuclear quadrupole moments (NQMom) in fm**2, nuclear magnetic moments (NMagM)
  in nuclear magnetons)

  Atom         1           2           3           4           5           6           7           8           9          10
 IAtWgt=          16          12          16          12          16          14          12          19          19          12
 AtmWgt=  15.9949146  12.0000000  15.9949146  12.0000000  15.9949146  14.0030740  12.0000000  18.9984033  18.9984033  12.0000000
 NucSpn=           0           0           0           0           0           2           0           1           1           0
 AtZEff=   0.0000000   0.0000000   0.0000000   0.0000000   0.0000000   0.0000000   0.0000000   0.0000000   0.0000000   0.0000000
 NQMom=    0.0000000   0.0000000   0.0000000   0.0000000   0.0000000   2.0440000   0.0000000   0.0000000   0.0000000   0.0000000
 NMagM=    0.0000000   0.0000000   0.0000000   0.0000000   0.0000000   0.4037610   0.0000000   2.6288670   2.6288670   0.0000000
 AtZNuc=   8.0000000   6.0000000   8.0000000   6.0000000   8.0000000   7.0000000   6.0000000   9.0000000   9.0000000   6.0000000

  Atom        11          12          13          14          15          16          17          18          19          20
 IAtWgt=          19          16          12          19          19          19          12          19          19          19
 AtmWgt=  18.9984033  15.9949146  12.0000000  18.9984033  18.9984033  18.9984033  12.0000000  18.9984033  18.9984033  18.9984033
 NucSpn=           1           0           0           1           1           1           0           1           1           1
 AtZEff=   0.0000000   0.0000000   0.0000000   0.0000000   0.0000000   0.0000000   0.0000000   0.0000000   0.0000000   0.0000000
 NQMom=    0.0000000   0.0000000   0.0000000   0.0000000   0.0000000   0.0000000   0.0000000   0.0000000   0.0000000   0.0000000
 NMagM=    2.6288670   0.0000000   0.0000000   2.6288670   2.6288670   2.6288670   0.0000000   2.6288670   2.6288670   2.6288670
 AtZNuc=   9.0000000   8.0000000   6.0000000   9.0000000   9.0000000   9.0000000   6.0000000   9.0000000   9.0000000   9.0000000

  Atom        21          22          23          24          25          26          27          28          29          30
 IAtWgt=          12          16          14          12          19          19          12          19          16          12
 AtmWgt=  12.0000000  15.9949146  14.0030740  12.0000000  18.9984033  18.9984033  12.0000000  18.9984033  15.9949146  12.0000000
 NucSpn=           0           0           2           0           1           1           0           1           0           0
 AtZEff=   0.0000000   0.0000000   0.0000000   0.0000000   0.0000000   0.0000000   0.0000000   0.0000000   0.0000000   0.0000000
 NQMom=    0.0000000   0.0000000   2.0440000   0.0000000   0.0000000   0.0000000   0.0000000   0.0000000   0.0000000   0.0000000
 NMagM=    0.0000000   0.0000000   0.4037610   0.0000000   2.6288670   2.6288670   0.0000000   2.6288670   0.0000000   0.0000000
 AtZNuc=   6.0000000   8.0000000   7.0000000   6.0000000   9.0000000   9.0000000   6.0000000   9.0000000   8.0000000   6.0000000

  Atom        31          32          33          34          35          36          37
 IAtWgt=          19          19          19          12          19          19          19
 AtmWgt=  18.9984033  18.9984033  18.9984033  12.0000000  18.9984033  18.9984033  18.9984033
 NucSpn=           1           1           1           0           1           1           1
 AtZEff=   0.0000000   0.0000000   0.0000000   0.0000000   0.0000000   0.0000000   0.0000000
 NQMom=    0.0000000   0.0000000   0.0000000   0.0000000   0.0000000   0.0000000   0.0000000
 NMagM=    2.6288670   2.6288670   2.6288670   0.0000000   2.6288670   2.6288670   2.6288670
 AtZNuc=   9.0000000   9.0000000   9.0000000   6.0000000   9.0000000   9.0000000   9.0000000
 Leave Link  101 at Sun Mar  3 18:19:02 2024, MaxMem=  5368709120 cpu:         1.1
 (Enter /home/k0335/k033513/app/g09/l202.exe)
                          Input orientation:                          
 ---------------------------------------------------------------------
 Center     Atomic      Atomic             Coordinates (Angstroms)
 Number     Number       Type             X           Y           Z
 ---------------------------------------------------------------------
      1          8           0       -2.133382   -0.262402   -3.472056
      2          6           0       -1.166232   -0.112291   -2.733911
      3          8           0        0.018266    0.246749   -3.276966
      4          6           0        1.029252    0.687124   -2.501176
      5          8           0        2.140109    0.846482   -2.990361
      6          7           0        0.739469    0.946946   -1.193677
      7          6           0        1.765326    1.605469   -0.399109
      8          9           0        2.190522    2.687419   -1.132719
      9          9           0        1.191771    2.199408    0.690743
     10          6           0        3.025856    0.817649    0.063057
     11          9           0        3.658166    0.289725   -1.023991
     12          8           0        3.938480    1.774030    0.629332
     13          6           0        5.065380    1.189373    1.225238
     14          9           0        5.543798    0.177467    0.485991
     15          9           0        6.020344    2.128331    1.352796
     16          9           0        4.730162    0.748595    2.449308
     17          6           0        2.577604   -0.320645    0.980345
     18          9           0        1.971132    0.126598    2.096493
     19          9           0        3.615005   -1.094669    1.373658
     20          9           0        1.722129   -1.153588    0.337663
     21          6           0       -0.315064    0.340097   -0.582412
     22          8           0       -0.429939    0.367650    0.635894
     23          7           0       -1.201490   -0.310208   -1.376496
     24          6           0       -2.434772   -0.913777   -0.875838
     25          9           0       -2.655071   -2.006325   -1.671019
     26          9           0       -3.468830   -0.067141   -1.130015
     27          6           0       -2.539092   -1.413777    0.595668
     28          9           0       -1.418369   -2.180201    0.848233
     29          8           0       -2.561149   -0.478899    1.680185
     30          6           0       -3.411597    0.621869    1.511148
     31          9           0       -3.485500    1.298828    2.670099
     32          9           0       -4.640320    0.216804    1.167831
     33          9           0       -2.920028    1.437698    0.562230
     34          6           0       -3.747397   -2.366707    0.646982
     35          9           0       -4.028105   -2.722877    1.926176
     36          9           0       -3.513768   -3.518514   -0.026170
     37          9           0       -4.872666   -1.832291    0.130504
 ---------------------------------------------------------------------
                    Distance matrix (angstroms):
                    1          2          3          4          5
     1  O    0.000000
     2  C    1.225875   0.000000
     3  O    2.219659   1.351612   0.000000
     4  C    3.441869   2.348059   1.348285   0.000000
     5  O    4.441214   3.452087   2.223520   1.224214   0.000000
     6  N    3.860933   2.669457   2.313115   1.364198   2.280342
     7  C    5.303948   4.122624   3.630482   2.409118   2.726006
     8  F    5.733244   4.655104   3.908115   2.687453   2.615803
     9  F    5.869075   4.757351   4.575227   3.535783   4.034883
    10  C    6.346753   5.124590   4.530704   3.252500   3.179425
    11  F    6.311885   5.134224   4.280960   3.041577   2.545798
    12  O    7.604995   6.397476   5.741065   4.409654   4.146886
    13  C    8.717476   7.496811   6.828744   5.516226   5.142573
    14  F    8.648625   7.448237   6.685518   5.437283   4.910978
    15  F    9.771287   8.565538   7.810249   6.468476   5.963420
    16  F    9.121014   7.897743   7.432633   6.181246   6.025608
    17  C    6.482334   5.277823   4.999684   3.941317   4.161742
    18  F    6.928715   5.764800   5.718582   4.726509   5.140318
    19  F    7.564229   6.379453   6.030277   4.987509   4.998805
    20  F    5.493008   4.342982   4.234340   3.453593   3.905218
    21  C    3.466890   2.357560   2.716697   2.368389   3.475992
    22  O    4.491541   3.482536   3.940302   3.474552   4.470364
    23  N    2.293922   1.372221   2.325896   2.689942   3.887001
    24  C    2.693599   2.388307   3.623483   4.147779   5.338469
    25  F    2.560695   2.633201   3.847355   4.638757   5.733491
    26  F    2.703092   2.806506   4.107038   4.762535   5.979615
    27  C    4.246957   3.829453   4.928968   5.170813   6.313739
    28  F    4.780596   4.143861   4.997126   5.042910   6.046353
    29  O    5.174499   4.643753   5.635006   5.633327   6.758140
    30  C    5.219970   4.858105   5.901755   5.985327   7.150907
    31  F    6.480103   6.047610   6.982179   6.891970   7.993304
    32  F    5.295557   5.234614   6.438908   6.769554   7.978801
    33  F    4.447990   4.042624   4.979092   5.054170   6.210912
    34  C    4.898940   4.814067   6.033882   6.484841   7.630044
    35  F    6.227746   6.059859   7.229418   7.537003   8.657917
    36  F    4.937799   4.944203   6.100831   6.667239   7.733430
    37  F    4.790268   4.990083   6.313040   6.935836   8.129861
                    6          7          8          9         10
     6  N    0.000000
     7  C    1.455120   0.000000
     8  F    2.266830   1.374624   0.000000
     9  F    2.307439   1.367299   2.135573   0.000000
    10  C    2.612214   1.556661   2.371435   2.380570   0.000000
    11  F    2.996586   2.388410   2.813314   3.559537   1.363889
    12  O    3.773738   2.410125   2.644704   2.780131   1.438129
    13  C    4.962200   3.701621   4.008605   4.038651   2.376658
    14  F    5.147325   4.135147   4.490495   4.803156   2.632250
    15  F    5.980622   4.631170   4.599772   4.874267   3.514011
    16  F    5.407061   4.199758   4.799972   4.209230   2.933193
    17  C    3.116392   2.504517   3.696393   2.890514   1.529072
    18  F    3.607656   2.908169   4.127196   2.622990   2.392667
    19  F    4.362122   3.722198   4.755551   4.146008   2.392014
    20  F    2.779004   2.856063   4.139414   3.412994   2.379262
    21  C    1.361598   2.441882   3.477171   2.710814   3.436049
    22  O    2.247316   2.724448   3.921242   2.447098   3.531736
    23  N    2.319737   3.664301   4.533314   4.037245   4.605956
    24  C    3.693118   4.920843   5.867533   5.029703   5.804982
    25  F    4.524662   5.848309   6.767627   6.169627   6.576837
    26  F    4.329227   5.543306   6.294114   5.493051   6.662373
    27  C    4.418567   5.351023   6.494334   5.194563   6.019268
    28  F    4.313318   5.101282   6.375107   5.100844   5.418002
    29  O    4.602847   5.233205   6.365248   4.715584   5.959091
    30  C    4.965189   5.605094   6.529952   4.934845   6.601219
    31  F    5.736109   6.089765   6.971860   5.158077   7.030360
    32  F    5.920469   6.739139   7.619506   6.178318   7.768642
    33  F    4.088516   4.785902   5.527420   4.183731   5.998931
    34  C    5.873695   6.874780   7.998150   6.726567   7.507200
    35  F    6.777230   7.596405   8.792011   7.280267   8.109556
    36  F    6.276419   7.366350   8.501587   7.439805   7.847098
    37  F    6.401068   7.494106   8.480102   7.303825   8.331469
                   11         12         13         14         15
    11  F    0.000000
    12  O    2.239467   0.000000
    13  C    2.801544   1.402438   0.000000
    14  F    2.418317   2.268613   1.341389   0.000000
    15  F    3.822234   2.232283   1.345314   2.187308   0.000000
    16  F    3.663815   2.233963   1.343504   2.200637   2.184166
    17  C    2.357441   2.522470   2.920472   3.048083   4.241304
    18  F    3.551072   2.955850   3.385697   3.919215   4.577787
    19  F    2.768958   2.981290   2.709698   2.475182   4.021669
    20  F    2.772272   3.683508   4.177868   4.049551   5.502376
    21  C    3.998010   4.649422   5.739168   5.957701   6.861502
    22  O    4.412923   4.589230   5.587583   5.978643   6.724589
    23  N    4.909219   5.898024   6.949203   7.014670   8.096320
    24  C    6.212428   7.078713   8.067840   8.167189   9.257981
    25  F    6.748885   7.940882   8.843424   8.754604  10.074803
    26  F    7.136713   7.832845   8.941968   9.159627  10.051312
    27  C    6.628063   7.219570   8.062304   8.238762   9.294284
    28  F    5.947854   6.661808   7.316773   7.359456   8.611184
    29  O    6.825191   6.958819   7.820106   8.218703   8.974790
    30  C    7.517899   7.491909   8.500761   9.024829   9.552801
    31  F    8.105341   7.714015   8.672782   9.357136   9.632468
    32  F    8.583372   8.735602   9.754476  10.206993  10.832262
    33  F    6.863423   6.867078   8.016732   8.557473   9.001790
    34  C    8.043081   8.730333   9.520773   9.634575  10.775542
    35  F    8.766870   9.239613   9.924136  10.104823  11.172928
    36  F    8.181379   9.163880   9.865698   9.796024  11.166365
    37  F    8.866279   9.533660  10.444791  10.614529  11.654964
                   16         17         18         19         20
    16  F    0.000000
    17  C    2.816848   0.000000
    18  F    2.850194   1.346707   0.000000
    19  F    2.407949   1.352778   2.171705   0.000000
    20  F    4.138310   1.355976   2.189603   2.158642   0.000000
    21  C    5.900212   3.353553   3.528287   4.618464   2.688455
    22  O    5.482721   3.104466   2.820744   4.363971   2.652264
    23  N    7.137390   4.453803   4.724191   5.601549   3.492446
    24  C    8.071949   5.377837   5.415637   6.456993   4.337040
    25  F    8.894287   6.103453   6.336029   7.029582   4.890996
    26  F    8.983343   6.409153   6.327802   7.583199   5.502772
    27  C    7.807297   5.246284   4.996734   6.211281   4.276946
    28  F    6.996122   4.409445   4.285813   5.175839   3.343253
    29  O    7.433808   5.188603   4.591461   6.214339   4.539167
    30  C    8.196612   6.086100   5.437067   7.234538   5.557379
    31  F    8.237027   6.499169   5.610524   7.604391   6.210797
    32  F    9.472640   7.240334   6.676964   8.361382   6.561091
    33  F    7.909572   5.787102   5.291162   7.055349   5.321167
    34  C    9.209913   6.656060   6.404625   7.506737   5.610976
    35  F    9.435678   7.092299   6.643746   7.834122   6.168568
    36  F    9.607216   6.953003   6.919297   7.658587   5.756724
    37  F   10.210393   7.649433   7.385115   8.609883   6.632863
                   21         22         23         24         25
    21  C    0.000000
    22  O    1.224020   0.000000
    23  N    1.356177   2.259313   0.000000
    24  C    2.480214   2.818997   1.461485   0.000000
    25  F    3.488036   3.988586   2.253099   1.369126   0.000000
    26  F    3.226756   3.541516   2.293614   1.360395   2.171480
    27  C    3.067613   2.761092   2.626114   1.557630   2.345727
    28  F    3.100956   2.741099   2.914332   2.368401   2.811814
    29  O    3.291656   2.519771   3.349691   2.595832   3.684077
    30  C    3.748454   3.117849   3.753908   3.001683   4.195941
    31  F    4.642161   3.787022   4.917380   4.309677   5.518963
    32  F    4.667589   4.246530   4.310092   3.212357   4.116137
    33  F    3.049716   2.711268   3.125253   2.798740   4.113259
    34  C    4.540827   4.299111   3.847765   2.480518   2.587698
    35  F    5.427845   4.915586   4.971757   3.696327   3.916437
    36  F    5.042816   5.005058   4.178904   2.944626   2.393659
    37  F    5.098946   4.983270   4.250332   2.792798   2.862429
                   26         27         28         29         30
    26  F    0.000000
    27  C    2.378197   0.000000
    28  F    3.547235   1.381020   0.000000
    29  O    2.981720   1.432013   2.211904   0.000000
    30  C    2.730156   2.396502   3.502001   1.401259   0.000000
    31  F    4.038195   3.543611   4.438003   2.234875   1.344211
    32  F    2.594824   2.720537   4.028492   2.251546   1.338546
    33  F    2.330111   2.877002   3.927591   2.247657   1.344493
    34  C    2.919473   1.539711   2.345135   2.457338   3.129078
    35  F    4.087301   2.387709   2.875270   2.692194   3.426318
    36  F    3.623875   2.401373   2.635595   3.613639   4.417755
    37  F    2.583683   2.416009   3.545186   3.094558   3.172350
                   31         32         33         34         35
    31  F    0.000000
    32  F    2.182016   0.000000
    33  F    2.186814   2.194707   0.000000
    34  C    4.194966   2.782647   3.894255   0.000000
    35  F    4.125767   3.097034   4.516477   1.357200   0.000000
    36  F    5.520639   4.080117   5.026209   1.354391   2.170077
    37  F    4.263529   2.308424   3.833016   1.348547   2.175055
                   36         37
    36  F    0.000000
    37  F    2.171290   0.000000
 Symmetry turned off by external request.
 Stoichiometry    C11F18N2O6
 Framework group  C1[X(C11F18N2O6)]
 Deg. of freedom   105
 Full point group                 C1      NOp   1
 Rotational constants (GHZ):      0.2096225      0.0673507      0.0622250
 Leave Link  202 at Sun Mar  3 18:19:02 2024, MaxMem=  5368709120 cpu:         0.1
 (Enter /home/k0335/k033513/app/g09/l301.exe)
 Standard basis: 6-31G(d,p) (6D, 7F)
 Ernie: Thresh=  0.10000D-02 Tol=  0.10000D-05 Strict=F.
   555 basis functions,  1036 primitive gaussians,   555 cartesian basis functions
   145 alpha electrons      145 beta electrons
       nuclear repulsion energy      5483.7858397514 Hartrees.
 IExCor=20419 DFT=T Ex+Corr=CAM-B3LYP ExCW=0 ScaHFX=  1.000000
 ScaDFX=  1.000000  1.000000  1.000000  0.810000 ScalE2=  1.000000  1.000000
 IRadAn=      0 IRanWt=     -1 IRanGd=            0 ICorTp=0 IEmpDi=  4
  HFx wShort=  0.000000 wLong=  0.330000 cFull=  0.190000 cShort=  0.000000 cLong=  0.460000
  DFx wShort=  0.000000 wLong=  0.330000 cFull=  0.190000 cShort=  0.000000 cLong=  0.460000
 NAtoms=   37 NActive=   37 NUniq=   37 SFac= 1.00D+00 NAtFMM=   60 NAOKFM=F Big=F
 Integral buffers will be    131072 words long.
 Raffenetti 2 integral format.
 Two-electron integral symmetry is turned off.
 Using the following non-standard input for PCM:
 eps=4.9
 --- end of non-standard input.
 ------------------------------------------------------------------------------
 Polarizable Continuum Model (PCM)
 =================================
 Model                : PCM (using non-symmetric T matrix).
 Atomic radii         : UFF (Universal Force Field).
 Polarization charges : Total charges.
 Charge compensation  : None.
 Solution method      : On-the-fly selection.
 Cavity type          : Scaled VdW (van der Waals Surface) (Alpha=1.100).
 Cavity algorithm     : GePol (No added spheres)
                        Default sphere list used, NSphG=   37.
                        Lebedev-Laikov grids with approx.  5.0 points / Ang**2.
                        Smoothing algorithm: Karplus/York (Gamma=1.0000).
                        Polarization charges: spherical gaussians, with
                                              point-specific exponents (IZeta= 3).
                        Self-potential: point-specific (ISelfS= 7).
                        Self-field    : sphere-specific E.n sum rule (ISelfD= 2).
 Solvent              : Generic,
                        Eps                           =   4.900000
                        Eps(infinity)                 =   0.000000
                        RSolv                         =   0.000000 Ang.
                        Molar volume                  =   0.000000 cm**3/mol
                        Thermal expansion coefficient =   0.000000 K**-1
                        Absolute temperature          = 298.150000 K
                        Numeral density               =   0.000000 Ang**-3
                        Hydrogen bond acidity         =   0.000000
                        Hydrogen bond basicity        =   0.000000
                        Surface tension at interface  =   0.000000 (cal/mol)*Ang**-2
                        Carbon aromaticity            =   0.000000
                        Electronegative halogenicity  =   0.000000
 ------------------------------------------------------------------------------
 GePol: Number of generator spheres                  =      37
 GePol: Total number of spheres                      =      37
 GePol: Number of exposed spheres                    =      37 (100.00%)
 GePol: Number of points                             =    3172
 GePol: Average weight of points                     =       0.13
 GePol: Minimum weight of points                     =   0.79D-10
 GePol: Maximum weight of points                     =    0.20577
 GePol: Number of points with low weight             =     109
 GePol: Fraction of low-weight points (<1% of avg)   =       3.44%
 GePol: Cavity surface area                          =    396.690 Ang**2
 GePol: Cavity volume                                =    466.617 Ang**3
 Leave Link  301 at Sun Mar  3 18:19:02 2024, MaxMem=  5368709120 cpu:         1.0
 (Enter /home/k0335/k033513/app/g09/l302.exe)
 NPDir=0 NMtPBC=     1 NCelOv=     1 NCel=       1 NClECP=     1 NCelD=      1
         NCelK=      1 NCelE2=     1 NClLst=     1 CellRange=     0.0.
 One-electron integrals computed using PRISM.
 NBasis=   555 RedAO= T EigKep=  1.11D-03  NBF=   555
 NBsUse=   555 1.00D-06 EigRej= -1.00D+00 NBFU=   555
 Precomputing XC quadrature grid using
 IXCGrd= 4 IRadAn=           0 IRanWt=          -1 IRanGd=           0 AccXCQ= 0.00D+00.
 Generated NRdTot=       0 NPtTot=           0 NUsed=           0 NTot=          32
 NSgBfM=   542   542   542   542   542 MxSgAt=    37 MxSgA2=    37.
 Leave Link  302 at Sun Mar  3 18:19:03 2024, MaxMem=  5368709120 cpu:        11.8
 (Enter /home/k0335/k033513/app/g09/l303.exe)
 DipDrv:  MaxL=1.
 Leave Link  303 at Sun Mar  3 18:19:03 2024, MaxMem=  5368709120 cpu:         0.9
 (Enter /home/k0335/k033513/app/g09/l401.exe)
 ExpMin= 1.69D-01 ExpMax= 7.00D+03 ExpMxC= 1.05D+03 IAcc=1 IRadAn=         1 AccDes= 0.00D+00
 Harris functional with IExCor=20419 and IRadAn=       1 diagonalized for initial guess.
 HarFok:  IExCor=20419 AccDes= 0.00D+00 IRadAn=         1 IDoV= 1 UseB2=F ITyADJ=14
 ICtDFT=  3500011 ScaDFX=  1.000000  1.000000  1.000000  1.000000
 FoFCou: FMM=F IPFlag=           0 FMFlag=      100000 FMFlg1=           0
         NFxFlg=           0 DoJE=T BraDBF=F KetDBF=T FulRan=T
         wScrn=  0.000000 ICntrl=     500 IOpCl=  0 I1Cent=   200000004 NGrid=           0
         NMat0=    1 NMatS0=      1 NMatT0=    0 NMatD0=    1 NMtDS0=    0 NMtDT0=    0
 Symmetry not used in FoFCou.
 Harris En= -2694.69779449010    
 JPrj=0 DoOrth=F DoCkMO=F.
 Leave Link  401 at Sun Mar  3 18:19:04 2024, MaxMem=  5368709120 cpu:        12.4
 (Enter /home/k0335/k033513/app/g09/l502.exe)
 Closed shell SCF:
 Using DIIS extrapolation, IDIIS=  1040.
 Two-electron integral symmetry not used.
 IVT=      959349 IEndB=      959349 NGot=  5368709120 MDV=  5368074992
 LenX=  5368074992 LenY=  5367766412
 Requested convergence on RMS density matrix=1.00D-08 within 128 cycles.
 Requested convergence on MAX density matrix=1.00D-06.
 Requested convergence on             energy=1.00D-06.
 No special actions if energy rises.
 Fock matrices will be formed incrementally for  20 cycles.

 Cycle   1  Pass 1  IDiag  1:
 FoFJK:  IHMeth= 1 ICntrl=       0 DoSepK=T KAlg= 0 I1Cent=   0 FoldK=F
 IRaf=         1 NMat=   1 IRICut=       1 DoRegI=T DoRafI=F ISym2E= 0.
 FoFCou: FMM=F IPFlag=           0 FMFlag=      100000 FMFlg1=           0
         NFxFlg=           0 DoJE=T BraDBF=F KetDBF=F FulRan=T
         wScrn=  0.000000 ICntrl=     500 IOpCl=  0 I1Cent=           0 NGrid=           0
         NMat0=    1 NMatS0=      1 NMatT0=    0 NMatD0=    1 NMtDS0=    0 NMtDT0=    0
 Symmetry not used in FoFCou.
 Inv3:  Mode=1 IEnd=    30184752.
 Iteration    1 A*A^-1 deviation from unit magnitude is 7.77D-15 for   3149.
 Iteration    1 A*A^-1 deviation from orthogonality  is 3.97D-15 for   3122   1227.
 Iteration    1 A^-1*A deviation from unit magnitude is 7.11D-15 for   3149.
 Iteration    1 A^-1*A deviation from orthogonality  is 4.11D-11 for   3129   3022.
 E= -2775.43706510049    
 DIIS: error= 3.95D-02 at cycle   1 NSaved=   1.
 NSaved= 1 IEnMin= 1 EnMin= -2775.43706510049     IErMin= 1 ErrMin= 3.95D-02
 ErrMax= 3.95D-02  0.00D+00 EMaxC= 1.00D-01 BMatC= 2.31D+00 BMatP= 2.31D+00
 IDIUse=3 WtCom= 6.05D-01 WtEn= 3.95D-01
 Coeff-Com:  0.100D+01
 Coeff-En:   0.100D+01
 Coeff:      0.100D+01
 Gap=     0.398 Goal=   None    Shift=    0.000
 GapD=    0.398 DampG=1.000 DampE=0.500 DampFc=0.5000 IDamp=-1.
 Damping current iteration by 5.00D-01
 RMSDP=3.28D-03 MaxDP=1.23D-01              OVMax= 2.35D-01

 Cycle   2  Pass 1  IDiag  1:
 RMSU=  1.64D-03    CP:  1.00D+00
 E= -2775.89535135246     Delta-E=       -0.458286251969 Rises=F Damp=T
 DIIS: error= 1.84D-02 at cycle   2 NSaved=   2.
 NSaved= 2 IEnMin= 2 EnMin= -2775.89535135246     IErMin= 2 ErrMin= 1.84D-02
 ErrMax= 1.84D-02  0.00D+00 EMaxC= 1.00D-01 BMatC= 3.03D-01 BMatP= 2.31D+00
 IDIUse=3 WtCom= 8.16D-01 WtEn= 1.84D-01
 Coeff-Com: -0.257D+00 0.126D+01
 Coeff-En:   0.000D+00 0.100D+01
 Coeff:     -0.210D+00 0.121D+01
 Gap=     0.418 Goal=   None    Shift=    0.000
 RMSDP=1.15D-03 MaxDP=7.03D-02 DE=-4.58D-01 OVMax= 1.67D-01

 Cycle   3  Pass 1  IDiag  1:
 RMSU=  1.11D-03    CP:  1.00D+00  1.18D+00
 E= -2776.20255102388     Delta-E=       -0.307199671422 Rises=F Damp=F
 DIIS: error= 1.21D-02 at cycle   3 NSaved=   3.
 NSaved= 3 IEnMin= 3 EnMin= -2776.20255102388     IErMin= 3 ErrMin= 1.21D-02
 ErrMax= 1.21D-02  0.00D+00 EMaxC= 1.00D-01 BMatC= 2.24D-01 BMatP= 3.03D-01
 IDIUse=3 WtCom= 8.79D-01 WtEn= 1.21D-01
 Coeff-Com: -0.219D+00 0.693D+00 0.527D+00
 Coeff-En:   0.000D+00 0.000D+00 0.100D+01
 Coeff:     -0.193D+00 0.609D+00 0.584D+00
 Gap=     0.406 Goal=   None    Shift=    0.000
 RMSDP=8.50D-04 MaxDP=7.44D-02 DE=-3.07D-01 OVMax= 1.18D-01

 Cycle   4  Pass 1  IDiag  1:
 RMSU=  3.49D-04    CP:  1.00D+00  1.40D+00  3.74D-01
 E= -2776.33674523750     Delta-E=       -0.134194213626 Rises=F Damp=F
 DIIS: error= 4.91D-03 at cycle   4 NSaved=   4.
 NSaved= 4 IEnMin= 4 EnMin= -2776.33674523750     IErMin= 4 ErrMin= 4.91D-03
 ErrMax= 4.91D-03  0.00D+00 EMaxC= 1.00D-01 BMatC= 3.42D-02 BMatP= 2.24D-01
 IDIUse=3 WtCom= 9.51D-01 WtEn= 4.91D-02
 Coeff-Com: -0.615D-01 0.145D+00 0.318D+00 0.598D+00
 Coeff-En:   0.000D+00 0.000D+00 0.139D+00 0.861D+00
 Coeff:     -0.584D-01 0.138D+00 0.309D+00 0.611D+00
 Gap=     0.367 Goal=   None    Shift=    0.000
 RMSDP=2.91D-04 MaxDP=2.46D-02 DE=-1.34D-01 OVMax= 3.43D-02

 Cycle   5  Pass 1  IDiag  1:
 RMSU=  1.14D-04    CP:  1.00D+00  1.35D+00  5.86D-01  6.87D-01
 E= -2776.35968193814     Delta-E=       -0.022936700634 Rises=F Damp=F
 DIIS: error= 8.79D-04 at cycle   5 NSaved=   5.
 NSaved= 5 IEnMin= 5 EnMin= -2776.35968193814     IErMin= 5 ErrMin= 8.79D-04
 ErrMax= 8.79D-04  0.00D+00 EMaxC= 1.00D-01 BMatC= 1.75D-03 BMatP= 3.42D-02
 IDIUse=3 WtCom= 9.91D-01 WtEn= 8.79D-03
 Coeff-Com: -0.186D-01 0.354D-01 0.137D+00 0.345D+00 0.501D+00
 Coeff-En:   0.000D+00 0.000D+00 0.000D+00 0.000D+00 0.100D+01
 Coeff:     -0.185D-01 0.351D-01 0.136D+00 0.341D+00 0.506D+00
 Gap=     0.365 Goal=   None    Shift=    0.000
 RMSDP=5.83D-05 MaxDP=3.63D-03 DE=-2.29D-02 OVMax= 4.96D-03

 Cycle   6  Pass 1  IDiag  1:
 RMSU=  2.62D-05    CP:  1.00D+00  1.36D+00  5.72D-01  7.19D-01  5.96D-01
 E= -2776.36091770957     Delta-E=       -0.001235771428 Rises=F Damp=F
 DIIS: error= 7.91D-05 at cycle   6 NSaved=   6.
 NSaved= 6 IEnMin= 6 EnMin= -2776.36091770957     IErMin= 6 ErrMin= 7.91D-05
 ErrMax= 7.91D-05  0.00D+00 EMaxC= 1.00D-01 BMatC= 1.85D-05 BMatP= 1.75D-03
 IDIUse=1 WtCom= 1.00D+00 WtEn= 0.00D+00
 Coeff-Com:  0.990D-03-0.339D-02 0.122D-02 0.173D-01 0.977D-01 0.886D+00
 Coeff:      0.990D-03-0.339D-02 0.122D-02 0.173D-01 0.977D-01 0.886D+00
 Gap=     0.365 Goal=   None    Shift=    0.000
 RMSDP=1.13D-05 MaxDP=6.06D-04 DE=-1.24D-03 OVMax= 7.54D-04

 Cycle   7  Pass 1  IDiag  1:
 RMSU=  8.42D-06    CP:  1.00D+00  1.36D+00  5.74D-01  7.31D-01  6.45D-01
                    CP:  1.04D+00
 E= -2776.36093434747     Delta-E=       -0.000016637907 Rises=F Damp=F
 DIIS: error= 4.08D-05 at cycle   7 NSaved=   7.
 NSaved= 7 IEnMin= 7 EnMin= -2776.36093434747     IErMin= 7 ErrMin= 4.08D-05
 ErrMax= 4.08D-05  0.00D+00 EMaxC= 1.00D-01 BMatC= 4.25D-06 BMatP= 1.85D-05
 IDIUse=1 WtCom= 1.00D+00 WtEn= 0.00D+00
 Coeff-Com:  0.195D-02-0.426D-02-0.986D-02-0.199D-01 0.515D-02 0.378D+00
 Coeff-Com:  0.648D+00
 Coeff:      0.195D-02-0.426D-02-0.986D-02-0.199D-01 0.515D-02 0.378D+00
 Coeff:      0.648D+00
 Gap=     0.365 Goal=   None    Shift=    0.000
 RMSDP=3.79D-06 MaxDP=2.16D-04 DE=-1.66D-05 OVMax= 3.13D-04

 Cycle   8  Pass 1  IDiag  1:
 RMSU=  2.43D-06    CP:  1.00D+00  1.36D+00  5.75D-01  7.32D-01  6.54D-01
                    CP:  1.12D+00  8.10D-01
 E= -2776.36093769650     Delta-E=       -0.000003349023 Rises=F Damp=F
 DIIS: error= 1.16D-05 at cycle   8 NSaved=   8.
 NSaved= 8 IEnMin= 8 EnMin= -2776.36093769650     IErMin= 8 ErrMin= 1.16D-05
 ErrMax= 1.16D-05  0.00D+00 EMaxC= 1.00D-01 BMatC= 3.59D-07 BMatP= 4.25D-06
 IDIUse=1 WtCom= 1.00D+00 WtEn= 0.00D+00
 Coeff-Com:  0.704D-03-0.142D-02-0.382D-02-0.970D-02-0.641D-02 0.575D-01
 Coeff-Com:  0.243D+00 0.720D+00
 Coeff:      0.704D-03-0.142D-02-0.382D-02-0.970D-02-0.641D-02 0.575D-01
 Coeff:      0.243D+00 0.720D+00
 Gap=     0.366 Goal=   None    Shift=    0.000
 RMSDP=1.31D-06 MaxDP=1.02D-04 DE=-3.35D-06 OVMax= 1.07D-04

 Cycle   9  Pass 1  IDiag  1:
 RMSU=  9.00D-07    CP:  1.00D+00  1.36D+00  5.76D-01  7.32D-01  6.58D-01
                    CP:  1.14D+00  8.65D-01  9.98D-01
 E= -2776.36093801155     Delta-E=       -0.000000315054 Rises=F Damp=F
 DIIS: error= 3.69D-06 at cycle   9 NSaved=   9.
 NSaved= 9 IEnMin= 9 EnMin= -2776.36093801155     IErMin= 9 ErrMin= 3.69D-06
 ErrMax= 3.69D-06  0.00D+00 EMaxC= 1.00D-01 BMatC= 3.79D-08 BMatP= 3.59D-07
 IDIUse=1 WtCom= 1.00D+00 WtEn= 0.00D+00
 Coeff-Com: -0.156D-05 0.414D-04 0.964D-05-0.912D-03-0.293D-02-0.360D-01
 Coeff-Com: -0.537D-02 0.248D+00 0.798D+00
 Coeff:     -0.156D-05 0.414D-04 0.964D-05-0.912D-03-0.293D-02-0.360D-01
 Coeff:     -0.537D-02 0.248D+00 0.798D+00
 Gap=     0.366 Goal=   None    Shift=    0.000
 RMSDP=5.61D-07 MaxDP=3.27D-05 DE=-3.15D-07 OVMax= 5.13D-05

 Cycle  10  Pass 1  IDiag  1:
 RMSU=  3.00D-07    CP:  1.00D+00  1.36D+00  5.76D-01  7.32D-01  6.59D-01
                    CP:  1.15D+00  8.93D-01  1.09D+00  9.88D-01
 E= -2776.36093805137     Delta-E=       -0.000000039818 Rises=F Damp=F
 DIIS: error= 9.44D-07 at cycle  10 NSaved=  10.
 NSaved=10 IEnMin=10 EnMin= -2776.36093805137     IErMin=10 ErrMin= 9.44D-07
 ErrMax= 9.44D-07  0.00D+00 EMaxC= 1.00D-01 BMatC= 2.97D-09 BMatP= 3.79D-08
 IDIUse=1 WtCom= 1.00D+00 WtEn= 0.00D+00
 Coeff-Com: -0.574D-04 0.127D-03 0.343D-03 0.516D-03-0.214D-03-0.165D-01
 Coeff-Com: -0.210D-01 0.222D-01 0.270D+00 0.745D+00
 Coeff:     -0.574D-04 0.127D-03 0.343D-03 0.516D-03-0.214D-03-0.165D-01
 Coeff:     -0.210D-01 0.222D-01 0.270D+00 0.745D+00
 Gap=     0.366 Goal=   None    Shift=    0.000
 RMSDP=1.39D-07 MaxDP=1.20D-05 DE=-3.98D-08 OVMax= 1.48D-05

 Cycle  11  Pass 1  IDiag  1:
 RMSU=  9.39D-08    CP:  1.00D+00  1.36D+00  5.76D-01  7.32D-01  6.59D-01
                    CP:  1.15D+00  8.98D-01  1.11D+00  1.05D+00  9.74D-01
 E= -2776.36093805444     Delta-E=       -0.000000003074 Rises=F Damp=F
 DIIS: error= 6.47D-07 at cycle  11 NSaved=  11.
 NSaved=11 IEnMin=11 EnMin= -2776.36093805444     IErMin=11 ErrMin= 6.47D-07
 ErrMax= 6.47D-07  0.00D+00 EMaxC= 1.00D-01 BMatC= 4.59D-10 BMatP= 2.97D-09
 IDIUse=1 WtCom= 1.00D+00 WtEn= 0.00D+00
 Coeff-Com: -0.234D-04 0.486D-04 0.151D-03 0.298D-03 0.239D-03-0.383D-02
 Coeff-Com: -0.822D-02-0.120D-01 0.452D-01 0.311D+00 0.667D+00
 Coeff:     -0.234D-04 0.486D-04 0.151D-03 0.298D-03 0.239D-03-0.383D-02
 Coeff:     -0.822D-02-0.120D-01 0.452D-01 0.311D+00 0.667D+00
 Gap=     0.366 Goal=   None    Shift=    0.000
 RMSDP=4.62D-08 MaxDP=4.50D-06 DE=-3.07D-09 OVMax= 5.69D-06

 Cycle  12  Pass 1  IDiag  1:
 RMSU=  3.18D-08    CP:  1.00D+00  1.36D+00  5.76D-01  7.32D-01  6.59D-01
                    CP:  1.15D+00  8.98D-01  1.12D+00  1.07D+00  1.04D+00
                    CP:  9.17D-01
 E= -2776.36093805470     Delta-E=       -0.000000000255 Rises=F Damp=F
 DIIS: error= 2.61D-07 at cycle  12 NSaved=  12.
 NSaved=12 IEnMin=12 EnMin= -2776.36093805470     IErMin=12 ErrMin= 2.61D-07
 ErrMax= 2.61D-07  0.00D+00 EMaxC= 1.00D-01 BMatC= 8.38D-11 BMatP= 4.59D-10
 IDIUse=1 WtCom= 1.00D+00 WtEn= 0.00D+00
 Coeff-Com: -0.318D-05 0.554D-05 0.288D-04 0.750D-04 0.184D-03 0.503D-03
 Coeff-Com: -0.992D-03-0.931D-02-0.175D-01 0.384D-01 0.318D+00 0.671D+00
 Coeff:     -0.318D-05 0.554D-05 0.288D-04 0.750D-04 0.184D-03 0.503D-03
 Coeff:     -0.992D-03-0.931D-02-0.175D-01 0.384D-01 0.318D+00 0.671D+00
 Gap=     0.366 Goal=   None    Shift=    0.000
 RMSDP=2.00D-08 MaxDP=1.73D-06 DE=-2.55D-10 OVMax= 2.25D-06

 Cycle  13  Pass 1  IDiag  1:
 RMSU=  1.20D-08    CP:  1.00D+00  1.36D+00  5.76D-01  7.32D-01  6.59D-01
                    CP:  1.15D+00  8.99D-01  1.12D+00  1.07D+00  1.07D+00
                    CP:  1.01D+00  8.33D-01
 E= -2776.36093805464     Delta-E=        0.000000000058 Rises=F Damp=F
 DIIS: error= 1.09D-07 at cycle  13 NSaved=  13.
 NSaved=13 IEnMin=12 EnMin= -2776.36093805470     IErMin=13 ErrMin= 1.09D-07
 ErrMax= 1.09D-07  0.00D+00 EMaxC= 1.00D-01 BMatC= 9.00D-12 BMatP= 8.38D-11
 IDIUse=1 WtCom= 1.00D+00 WtEn= 0.00D+00
 Coeff-Com:  0.179D-05-0.414D-05-0.610D-05-0.725D-05 0.549D-04 0.682D-03
 Coeff-Com:  0.638D-03-0.232D-02-0.130D-01-0.256D-01 0.363D-01 0.268D+00
 Coeff-Com:  0.735D+00
 Coeff:      0.179D-05-0.414D-05-0.610D-05-0.725D-05 0.549D-04 0.682D-03
 Coeff:      0.638D-03-0.232D-02-0.130D-01-0.256D-01 0.363D-01 0.268D+00
 Coeff:      0.735D+00
 Gap=     0.366 Goal=   None    Shift=    0.000
 RMSDP=7.54D-09 MaxDP=6.25D-07 DE= 5.82D-11 OVMax= 1.15D-06

 Error on total polarization charges =  0.00118
 SCF Done:  E(RCAM-B3LYP) =  -2776.36093805     A.U. after   13 cycles
            NFock= 13  Conv=0.75D-08     -V/T= 2.0073
 KE= 2.756320508176D+03 PE=-1.753242551737D+04 EE= 6.515958231391D+03
 Leave Link  502 at Sun Mar  3 18:19:47 2024, MaxMem=  5368709120 cpu:       976.7
 (Enter /home/k0335/k033513/app/g09/l601.exe)
 Copying SCF densities to generalized density rwf, IOpCl= 0 IROHF=0.

 **********************************************************************

            Population analysis using the SCF density.

 **********************************************************************

 Alpha  occ. eigenvalues --  -24.84819 -24.84219 -24.84113 -24.84012 -24.83954
 Alpha  occ. eigenvalues --  -24.83921 -24.83864 -24.83830 -24.83728 -24.83707
 Alpha  occ. eigenvalues --  -24.83617 -24.83575 -24.83482 -24.83417 -24.83269
 Alpha  occ. eigenvalues --  -24.83118 -24.82921 -24.82825 -19.36456 -19.33343
 Alpha  occ. eigenvalues --  -19.32944 -19.26753 -19.26520 -19.25705 -14.55299
 Alpha  occ. eigenvalues --  -14.55279 -10.59917 -10.59830 -10.56270 -10.55382
 Alpha  occ. eigenvalues --  -10.55035 -10.54669 -10.50138 -10.50020 -10.49928
 Alpha  occ. eigenvalues --  -10.49864 -10.48453  -1.43659  -1.43608  -1.42519
 Alpha  occ. eigenvalues --   -1.41896  -1.40202  -1.39592  -1.36259  -1.35687
 Alpha  occ. eigenvalues --   -1.34242  -1.33996  -1.33945  -1.33730  -1.33503
 Alpha  occ. eigenvalues --   -1.33120  -1.32918  -1.32430  -1.32059  -1.32020
 Alpha  occ. eigenvalues --   -1.31396  -1.22366  -1.20833  -1.20704  -1.20352
 Alpha  occ. eigenvalues --   -1.15581  -1.12038  -1.10893  -0.94596  -0.93686
 Alpha  occ. eigenvalues --   -0.87897  -0.86579  -0.83400  -0.82829  -0.82184
 Alpha  occ. eigenvalues --   -0.80841  -0.79020  -0.77399  -0.76230  -0.74680
 Alpha  occ. eigenvalues --   -0.73766  -0.72693  -0.71717  -0.71287  -0.71008
 Alpha  occ. eigenvalues --   -0.70891  -0.70084  -0.70012  -0.69450  -0.69085
 Alpha  occ. eigenvalues --   -0.68564  -0.68495  -0.67710  -0.67308  -0.66799
 Alpha  occ. eigenvalues --   -0.65388  -0.65039  -0.64199  -0.60803  -0.59767
 Alpha  occ. eigenvalues --   -0.59389  -0.58726  -0.58159  -0.57966  -0.57838
 Alpha  occ. eigenvalues --   -0.57481  -0.57455  -0.56820  -0.56798  -0.56402
 Alpha  occ. eigenvalues --   -0.56268  -0.55980  -0.55919  -0.55751  -0.55385
 Alpha  occ. eigenvalues --   -0.55221  -0.54857  -0.54624  -0.54352  -0.54194
 Alpha  occ. eigenvalues --   -0.53597  -0.53497  -0.53380  -0.53209  -0.52762
 Alpha  occ. eigenvalues --   -0.52381  -0.52110  -0.51889  -0.51362  -0.51330
 Alpha  occ. eigenvalues --   -0.51009  -0.50874  -0.50733  -0.50551  -0.50183
 Alpha  occ. eigenvalues --   -0.49673  -0.49612  -0.49315  -0.49193  -0.48640
 Alpha  occ. eigenvalues --   -0.48447  -0.46604  -0.45045  -0.43946  -0.43703
 Alpha  occ. eigenvalues --   -0.42838  -0.41397  -0.41317  -0.40018  -0.38110
 Alpha virt. eigenvalues --   -0.01555  -0.01100   0.03830   0.05515   0.06531
 Alpha virt. eigenvalues --    0.06761   0.08309   0.12973   0.13936   0.15607
 Alpha virt. eigenvalues --    0.16914   0.17997   0.18498   0.18928   0.19632
 Alpha virt. eigenvalues --    0.21039   0.21273   0.22078   0.22218   0.22476
 Alpha virt. eigenvalues --    0.22887   0.23017   0.23523   0.23924   0.24417
 Alpha virt. eigenvalues --    0.24944   0.25671   0.26521   0.27898   0.28325
 Alpha virt. eigenvalues --    0.29255   0.30228   0.32494   0.33952   0.35512
 Alpha virt. eigenvalues --    0.36868   0.36969   0.37948   0.38636   0.44803
 Alpha virt. eigenvalues --    0.46653   0.47478   0.48895   0.49504   0.50186
 Alpha virt. eigenvalues --    0.50680   0.51262   0.51444   0.52437   0.52896
 Alpha virt. eigenvalues --    0.53371   0.53751   0.54389   0.54614   0.56028
 Alpha virt. eigenvalues --    0.56183   0.57069   0.57177   0.58008   0.59348
 Alpha virt. eigenvalues --    0.60251   0.60956   0.61830   0.62526   0.63995
 Alpha virt. eigenvalues --    0.64507   0.65261   0.66014   0.70190   0.71158
 Alpha virt. eigenvalues --    0.71903   0.73281   0.76411   0.77305   0.79177
 Alpha virt. eigenvalues --    0.80616   0.81493   0.83388   0.83536   0.85460
 Alpha virt. eigenvalues --    0.85559   0.86518   0.88250   0.91397   0.92309
 Alpha virt. eigenvalues --    0.94544   0.95557   0.96375   0.97103   0.97935
 Alpha virt. eigenvalues --    0.98549   0.99944   1.01891   1.02137   1.03435
 Alpha virt. eigenvalues --    1.05083   1.05810   1.06476   1.06941   1.07716
 Alpha virt. eigenvalues --    1.08231   1.08564   1.09524   1.10230   1.11250
 Alpha virt. eigenvalues --    1.11521   1.12539   1.13237   1.13826   1.14286
 Alpha virt. eigenvalues --    1.15300   1.15922   1.16508   1.17177   1.18017
 Alpha virt. eigenvalues --    1.18270   1.19055   1.19260   1.19829   1.20748
 Alpha virt. eigenvalues --    1.21593   1.22265   1.24539   1.24572   1.24850
 Alpha virt. eigenvalues --    1.25908   1.26248   1.27532   1.28255   1.28736
 Alpha virt. eigenvalues --    1.30122   1.31615   1.32056   1.32707   1.33006
 Alpha virt. eigenvalues --    1.33909   1.34378   1.35096   1.35794   1.36241
 Alpha virt. eigenvalues --    1.36564   1.36996   1.37723   1.38063   1.38400
 Alpha virt. eigenvalues --    1.38826   1.39552   1.39897   1.40091   1.40584
 Alpha virt. eigenvalues --    1.40798   1.41147   1.41638   1.42449   1.42720
 Alpha virt. eigenvalues --    1.43048   1.43578   1.44345   1.45215   1.45766
 Alpha virt. eigenvalues --    1.46200   1.47109   1.48041   1.49153   1.49391
 Alpha virt. eigenvalues --    1.50412   1.51175   1.51935   1.52727   1.53427
 Alpha virt. eigenvalues --    1.55224   1.55513   1.55856   1.56755   1.57127
 Alpha virt. eigenvalues --    1.57683   1.58428   1.60536   1.60775   1.62022
 Alpha virt. eigenvalues --    1.63300   1.63934   1.64759   1.65527   1.66105
 Alpha virt. eigenvalues --    1.66470   1.66899   1.69129   1.69454   1.70325
 Alpha virt. eigenvalues --    1.70685   1.71988   1.72735   1.73230   1.73780
 Alpha virt. eigenvalues --    1.74686   1.75617   1.76923   1.77122   1.77727
 Alpha virt. eigenvalues --    1.78723   1.79866   1.80456   1.80598   1.81443
 Alpha virt. eigenvalues --    1.81880   1.82809   1.83362   1.83637   1.83658
 Alpha virt. eigenvalues --    1.84446   1.84814   1.85233   1.85430   1.85774
 Alpha virt. eigenvalues --    1.86398   1.87103   1.87824   1.88102   1.88217
 Alpha virt. eigenvalues --    1.88788   1.89155   1.89618   1.89943   1.90420
 Alpha virt. eigenvalues --    1.90880   1.91228   1.92386   1.92673   1.92910
 Alpha virt. eigenvalues --    1.93543   1.93887   1.94403   1.95407   1.95902
 Alpha virt. eigenvalues --    1.96521   1.96679   1.97542   1.98314   1.98856
 Alpha virt. eigenvalues --    1.99137   1.99751   2.00228   2.00790   2.01277
 Alpha virt. eigenvalues --    2.01609   2.01868   2.02473   2.03029   2.03313
 Alpha virt. eigenvalues --    2.03458   2.03763   2.04138   2.04536   2.05235
 Alpha virt. eigenvalues --    2.06049   2.06681   2.07056   2.07384   2.07597
 Alpha virt. eigenvalues --    2.08693   2.08936   2.09482   2.10138   2.10325
 Alpha virt. eigenvalues --    2.11975   2.12289   2.13331   2.13490   2.14341
 Alpha virt. eigenvalues --    2.15823   2.16836   2.17893   2.19037   2.19218
 Alpha virt. eigenvalues --    2.20126   2.20439   2.20876   2.21850   2.22716
 Alpha virt. eigenvalues --    2.25347   2.25406   2.26629   2.26972   2.28733
 Alpha virt. eigenvalues --    2.29915   2.30666   2.32135   2.33082   2.33882
 Alpha virt. eigenvalues --    2.34394   2.36725   2.36952   2.39057   2.41860
 Alpha virt. eigenvalues --    2.42412   2.43085   2.43661   2.44503   2.45660
 Alpha virt. eigenvalues --    2.45791   2.46928   2.46964   2.48134   2.49151
 Alpha virt. eigenvalues --    2.50827   2.51002   2.52848   2.54829   2.55369
 Alpha virt. eigenvalues --    2.57673   2.59553   2.60246   2.60529   2.61454
 Alpha virt. eigenvalues --    2.63290   2.64245   2.64542   2.64773   2.66626
 Alpha virt. eigenvalues --    2.68285   2.69485   2.70924   2.73555   2.74119
 Alpha virt. eigenvalues --    2.77118   2.79101   2.79171   2.82521   2.83689
 Alpha virt. eigenvalues --    2.84324   2.84751   2.85923   2.86745   2.88213
 Alpha virt. eigenvalues --    2.89141   2.89730   2.90397   2.91613   2.92409
 Alpha virt. eigenvalues --    2.93433   2.94336   2.95396   2.96096   2.98396
 Alpha virt. eigenvalues --    2.99840   3.00472   3.01903   3.04726   3.05079
 Alpha virt. eigenvalues --    3.05977   3.06698   3.07317   3.08196   3.09534
 Alpha virt. eigenvalues --    3.11932   3.13461   3.14787   3.15184   3.16740
 Alpha virt. eigenvalues --    3.18125   3.19294   3.20862   3.21430   3.25193
 Alpha virt. eigenvalues --    3.25579   3.28892   3.29541   3.30435   3.34739
 Alpha virt. eigenvalues --    3.35228   3.42108   3.52538   3.99914   4.08961
 Alpha virt. eigenvalues --    4.13923   4.17135   4.19639   4.26985   4.28845
 Alpha virt. eigenvalues --    4.33510   4.34783   4.38106   4.39286   4.42826
 Alpha virt. eigenvalues --    4.44592   4.50027   4.57342   4.58572   4.61517
 Alpha virt. eigenvalues --    4.64067   4.64827   4.74567   4.77154   4.82102
 Alpha virt. eigenvalues --    4.89713   4.97030   4.98073   5.10503   5.23863
 Alpha virt. eigenvalues --    5.34748   5.49018   5.56168   5.61056   5.66316
 Alpha virt. eigenvalues --    5.70333   6.28583   6.34335   6.39336   6.64672
          Condensed to atoms (all electrons):
               1          2          3          4          5          6
     1  O    7.990812   0.598846  -0.071592   0.000309  -0.000026  -0.000143
     2  C    0.598846   4.155857   0.262088  -0.013606   0.000049   0.004099
     3  O   -0.071592   0.262088   8.214404   0.257463  -0.070858  -0.083213
     4  C    0.000309  -0.013606   0.257463   4.165286   0.594104   0.206571
     5  O   -0.000026   0.000049  -0.070858   0.594104   8.008001  -0.088592
     6  N   -0.000143   0.004099  -0.083213   0.206571  -0.088592   7.600994
     7  C   -0.000001   0.000403   0.001034  -0.011984   0.014681   0.149259
     8  F    0.000000   0.000001  -0.000017   0.008002  -0.006752  -0.047274
     9  F    0.000000  -0.000010  -0.000005   0.000846   0.000011  -0.039382
    10  C    0.000000   0.000038  -0.000119  -0.002511  -0.001386  -0.067930
    11  F    0.000000   0.000005   0.000004   0.007803  -0.006098  -0.000224
    12  O    0.000000   0.000000   0.000000   0.000162  -0.000034   0.001617
    13  C    0.000000   0.000000   0.000000  -0.000002  -0.000003  -0.000006
    14  F    0.000000   0.000000   0.000000   0.000001   0.000000   0.000000
    15  F    0.000000   0.000000   0.000000   0.000000   0.000000   0.000000
    16  F    0.000000   0.000000   0.000000   0.000000   0.000000   0.000000
    17  C    0.000000  -0.000005   0.000007  -0.000193  -0.000132  -0.001324
    18  F    0.000000   0.000000   0.000000   0.000022   0.000000  -0.000478
    19  F    0.000000   0.000000   0.000000   0.000002   0.000000  -0.000017
    20  F    0.000000   0.000078  -0.000009   0.001687  -0.000032  -0.003541
    21  C   -0.000453  -0.020394  -0.001247  -0.017593  -0.000148   0.177277
    22  O   -0.000028   0.000014   0.000020  -0.000145  -0.000029  -0.089757
    23  N   -0.086500   0.191752  -0.080931   0.002889  -0.000074  -0.098905
    24  C    0.018035  -0.002805   0.001383   0.000752  -0.000001   0.001199
    25  F   -0.008001   0.007101  -0.000049   0.000001   0.000000  -0.000029
    26  F   -0.004120   0.004219  -0.000004   0.000026   0.000000  -0.000050
    27  C    0.000270   0.002986  -0.000032  -0.000036   0.000000   0.000171
    28  F    0.000000  -0.000031   0.000000   0.000001   0.000000   0.000028
    29  O    0.000000  -0.000066   0.000000   0.000001   0.000000  -0.000012
    30  C    0.000006   0.000006   0.000000   0.000000   0.000000  -0.000014
    31  F    0.000000   0.000000   0.000000   0.000000   0.000000   0.000000
    32  F    0.000000   0.000000   0.000000   0.000000   0.000000   0.000000
    33  F   -0.000001  -0.000125   0.000000   0.000003   0.000000  -0.000065
    34  C   -0.000009  -0.000071   0.000000   0.000000   0.000000   0.000002
    35  F    0.000000   0.000000   0.000000   0.000000   0.000000   0.000000
    36  F    0.000000   0.000003   0.000000   0.000000   0.000000   0.000000
    37  F    0.000000   0.000006   0.000000   0.000000   0.000000   0.000000
               7          8          9         10         11         12
     1  O   -0.000001   0.000000   0.000000   0.000000   0.000000   0.000000
     2  C    0.000403   0.000001  -0.000010   0.000038   0.000005   0.000000
     3  O    0.001034  -0.000017  -0.000005  -0.000119   0.000004   0.000000
     4  C   -0.011984   0.008002   0.000846  -0.002511   0.007803   0.000162
     5  O    0.014681  -0.006752   0.000011  -0.001386  -0.006098  -0.000034
     6  N    0.149259  -0.047274  -0.039382  -0.067930  -0.000224   0.001617
     7  C    4.384037   0.274816   0.281753   0.225728  -0.022652  -0.020724
     8  F    0.274816   9.099550  -0.042988  -0.023698  -0.000268  -0.000353
     9  F    0.281753  -0.042988   9.081907  -0.037820   0.000287   0.000139
    10  C    0.225728  -0.023698  -0.037820   4.991610   0.227152   0.164408
    11  F   -0.022652  -0.000268   0.000287   0.227152   9.115506  -0.049850
    12  O   -0.020724  -0.000353   0.000139   0.164408  -0.049850   8.344223
    13  C    0.000895   0.000018  -0.000075  -0.001528  -0.000772   0.234836
    14  F    0.000207   0.000000   0.000000   0.013274  -0.002461  -0.045020
    15  F   -0.000043   0.000000   0.000000   0.000689  -0.000022  -0.038915
    16  F   -0.000174   0.000000   0.000001  -0.009468  -0.000016  -0.048310
    17  C   -0.038065   0.001496   0.005549   0.172037  -0.017056  -0.030528
    18  F    0.002819   0.000000   0.000166  -0.034322   0.000320   0.000531
    19  F    0.001486  -0.000001  -0.000001  -0.025941  -0.000186  -0.001408
    20  F   -0.004120   0.000003  -0.000168  -0.021439  -0.000378   0.000608
    21  C   -0.006629   0.000564   0.006431  -0.000799  -0.000255   0.000044
    22  O    0.011272   0.000017  -0.013663  -0.004379   0.000006   0.000003
    23  N    0.001201  -0.000027   0.000087  -0.000125   0.000001   0.000000
    24  C    0.000002   0.000000   0.000002  -0.000001   0.000000   0.000000
    25  F    0.000000   0.000000   0.000000   0.000000   0.000000   0.000000
    26  F    0.000000   0.000000   0.000000   0.000000   0.000000   0.000000
    27  C    0.000000   0.000000   0.000004   0.000001   0.000000   0.000000
    28  F    0.000001   0.000000   0.000000   0.000001   0.000000   0.000000
    29  O    0.000003   0.000000   0.000000   0.000000   0.000000   0.000000
    30  C    0.000001   0.000000  -0.000002   0.000000   0.000000   0.000000
    31  F    0.000000   0.000000   0.000000   0.000000   0.000000   0.000000
    32  F    0.000000   0.000000   0.000000   0.000000   0.000000   0.000000
    33  F    0.000010   0.000000  -0.000001   0.000000   0.000000   0.000000
    34  C    0.000000   0.000000   0.000000   0.000000   0.000000   0.000000
    35  F    0.000000   0.000000   0.000000   0.000000   0.000000   0.000000
    36  F    0.000000   0.000000   0.000000   0.000000   0.000000   0.000000
    37  F    0.000000   0.000000   0.000000   0.000000   0.000000   0.000000
              13         14         15         16         17         18
     1  O    0.000000   0.000000   0.000000   0.000000   0.000000   0.000000
     2  C    0.000000   0.000000   0.000000   0.000000  -0.000005   0.000000
     3  O    0.000000   0.000000   0.000000   0.000000   0.000007   0.000000
     4  C   -0.000002   0.000001   0.000000   0.000000  -0.000193   0.000022
     5  O   -0.000003   0.000000   0.000000   0.000000  -0.000132   0.000000
     6  N   -0.000006   0.000000   0.000000   0.000000  -0.001324  -0.000478
     7  C    0.000895   0.000207  -0.000043  -0.000174  -0.038065   0.002819
     8  F    0.000018   0.000000   0.000000   0.000000   0.001496   0.000000
     9  F   -0.000075   0.000000   0.000000   0.000001   0.005549   0.000166
    10  C   -0.001528   0.013274   0.000689  -0.009468   0.172037  -0.034322
    11  F   -0.000772  -0.002461  -0.000022  -0.000016  -0.017056   0.000320
    12  O    0.234836  -0.045020  -0.038915  -0.048310  -0.030528   0.000531
    13  C    3.824267   0.295473   0.339473   0.301533  -0.004102  -0.000373
    14  F    0.295473   9.057323  -0.036175  -0.033955  -0.004748   0.000011
    15  F    0.339473  -0.036175   9.009445  -0.037547  -0.000010   0.000000
    16  F    0.301533  -0.033955  -0.037547   9.062288   0.018306  -0.000463
    17  C   -0.004102  -0.004748  -0.000010   0.018306   4.256174   0.275614
    18  F   -0.000373   0.000011   0.000000  -0.000463   0.275614   9.062107
    19  F    0.011820  -0.001911  -0.000005  -0.007502   0.277940  -0.038427
    20  F    0.000052   0.000000   0.000000   0.000001   0.262708  -0.035080
    21  C    0.000000   0.000000   0.000000   0.000000   0.001588  -0.000386
    22  O    0.000000   0.000000   0.000000   0.000000   0.005640   0.000110
    23  N    0.000000   0.000000   0.000000   0.000000  -0.000099  -0.000005
    24  C    0.000000   0.000000   0.000000   0.000000   0.000002   0.000000
    25  F    0.000000   0.000000   0.000000   0.000000   0.000000   0.000000
    26  F    0.000000   0.000000   0.000000   0.000000   0.000000   0.000000
    27  C    0.000000   0.000000   0.000000   0.000000  -0.000001  -0.000001
    28  F    0.000000   0.000000   0.000000   0.000000   0.000011   0.000000
    29  O    0.000000   0.000000   0.000000   0.000000   0.000002   0.000000
    30  C    0.000000   0.000000   0.000000   0.000000   0.000000   0.000000
    31  F    0.000000   0.000000   0.000000   0.000000   0.000000   0.000000
    32  F    0.000000   0.000000   0.000000   0.000000   0.000000   0.000000
    33  F    0.000000   0.000000   0.000000   0.000000   0.000000   0.000000
    34  C    0.000000   0.000000   0.000000   0.000000   0.000000   0.000000
    35  F    0.000000   0.000000   0.000000   0.000000   0.000000   0.000000
    36  F    0.000000   0.000000   0.000000   0.000000   0.000000   0.000000
    37  F    0.000000   0.000000   0.000000   0.000000   0.000000   0.000000
              19         20         21         22         23         24
     1  O    0.000000   0.000000  -0.000453  -0.000028  -0.086500   0.018035
     2  C    0.000000   0.000078  -0.020394   0.000014   0.191752  -0.002805
     3  O    0.000000  -0.000009  -0.001247   0.000020  -0.080931   0.001383
     4  C    0.000002   0.001687  -0.017593  -0.000145   0.002889   0.000752
     5  O    0.000000  -0.000032  -0.000148  -0.000029  -0.000074  -0.000001
     6  N   -0.000017  -0.003541   0.177277  -0.089757  -0.098905   0.001199
     7  C    0.001486  -0.004120  -0.006629   0.011272   0.001201   0.000002
     8  F   -0.000001   0.000003   0.000564   0.000017  -0.000027   0.000000
     9  F   -0.000001  -0.000168   0.006431  -0.013663   0.000087   0.000002
    10  C   -0.025941  -0.021439  -0.000799  -0.004379  -0.000125  -0.000001
    11  F   -0.000186  -0.000378  -0.000255   0.000006   0.000001   0.000000
    12  O   -0.001408   0.000608   0.000044   0.000003   0.000000   0.000000
    13  C    0.011820   0.000052   0.000000   0.000000   0.000000   0.000000
    14  F   -0.001911   0.000000   0.000000   0.000000   0.000000   0.000000
    15  F   -0.000005   0.000000   0.000000   0.000000   0.000000   0.000000
    16  F   -0.007502   0.000001   0.000000   0.000000   0.000000   0.000000
    17  C    0.277940   0.262708   0.001588   0.005640  -0.000099   0.000002
    18  F   -0.038427  -0.035080  -0.000386   0.000110  -0.000005   0.000000
    19  F    9.073338  -0.039326   0.000011  -0.000003   0.000000   0.000000
    20  F   -0.039326   9.081466   0.018908  -0.006610  -0.001732   0.000009
    21  C    0.000011   0.018908   4.237465   0.530238   0.197998  -0.014536
    22  O   -0.000003  -0.006610   0.530238   8.150284  -0.087764   0.005201
    23  N    0.000000  -0.001732   0.197998  -0.087764   7.567325   0.159998
    24  C    0.000000   0.000009  -0.014536   0.005201   0.159998   4.425705
    25  F    0.000000   0.000000   0.001660   0.000042  -0.041785   0.248488
    26  F    0.000000   0.000000   0.001515  -0.000072  -0.055569   0.253062
    27  C    0.000000  -0.000041  -0.006035   0.012192  -0.033143   0.170773
    28  F    0.000000   0.000083   0.006347  -0.003816  -0.002583  -0.017919
    29  O    0.000000   0.000000   0.002322  -0.019641  -0.000322  -0.034107
    30  C    0.000000   0.000000   0.000221   0.003055  -0.000230  -0.005995
    31  F    0.000000   0.000000   0.000002  -0.000095   0.000001  -0.000050
    32  F    0.000000   0.000000  -0.000002  -0.000006   0.000028  -0.004111
    33  F    0.000000   0.000000   0.009834  -0.003557  -0.004027   0.019407
    34  C    0.000000   0.000000   0.000509   0.000384   0.001949  -0.035687
    35  F    0.000000   0.000000  -0.000001  -0.000001  -0.000008   0.001634
    36  F    0.000000   0.000000  -0.000003   0.000000  -0.000057  -0.003109
    37  F    0.000000   0.000000  -0.000002   0.000000   0.000048   0.017066
              25         26         27         28         29         30
     1  O   -0.008001  -0.004120   0.000270   0.000000   0.000000   0.000006
     2  C    0.007101   0.004219   0.002986  -0.000031  -0.000066   0.000006
     3  O   -0.000049  -0.000004  -0.000032   0.000000   0.000000   0.000000
     4  C    0.000001   0.000026  -0.000036   0.000001   0.000001   0.000000
     5  O    0.000000   0.000000   0.000000   0.000000   0.000000   0.000000
     6  N   -0.000029  -0.000050   0.000171   0.000028  -0.000012  -0.000014
     7  C    0.000000   0.000000   0.000000   0.000001   0.000003   0.000001
     8  F    0.000000   0.000000   0.000000   0.000000   0.000000   0.000000
     9  F    0.000000   0.000000   0.000004   0.000000   0.000000  -0.000002
    10  C    0.000000   0.000000   0.000001   0.000001   0.000000   0.000000
    11  F    0.000000   0.000000   0.000000   0.000000   0.000000   0.000000
    12  O    0.000000   0.000000   0.000000   0.000000   0.000000   0.000000
    13  C    0.000000   0.000000   0.000000   0.000000   0.000000   0.000000
    14  F    0.000000   0.000000   0.000000   0.000000   0.000000   0.000000
    15  F    0.000000   0.000000   0.000000   0.000000   0.000000   0.000000
    16  F    0.000000   0.000000   0.000000   0.000000   0.000000   0.000000
    17  C    0.000000   0.000000  -0.000001   0.000011   0.000002   0.000000
    18  F    0.000000   0.000000  -0.000001   0.000000   0.000000   0.000000
    19  F    0.000000   0.000000   0.000000   0.000000   0.000000   0.000000
    20  F    0.000000   0.000000  -0.000041   0.000083   0.000000   0.000000
    21  C    0.001660   0.001515  -0.006035   0.006347   0.002322   0.000221
    22  O    0.000042  -0.000072   0.012192  -0.003816  -0.019641   0.003055
    23  N   -0.041785  -0.055569  -0.033143  -0.002583  -0.000322  -0.000230
    24  C    0.248488   0.253062   0.170773  -0.017919  -0.034107  -0.005995
    25  F    9.113581  -0.036436  -0.022514  -0.000668   0.000563   0.000088
    26  F   -0.036436   9.113918  -0.025651   0.000310  -0.001058   0.013655
    27  C   -0.022514  -0.025651   4.986834   0.220969   0.153655  -0.007491
    28  F   -0.000668   0.000310   0.220969   9.122314  -0.037881   0.000192
    29  O    0.000563  -0.001058   0.153655  -0.037881   8.336957   0.241484
    30  C    0.000088   0.013655  -0.007491   0.000192   0.241484   3.838749
    31  F    0.000000  -0.000003   0.001169  -0.000002  -0.037750   0.338360
    32  F   -0.000001  -0.000612   0.003985  -0.000001  -0.048047   0.296381
    33  F    0.000001  -0.010363  -0.009080  -0.000002  -0.045209   0.288814
    34  C    0.010080  -0.002139   0.236471  -0.008631  -0.026300  -0.002681
    35  F    0.000003  -0.000001  -0.027856  -0.000727  -0.002226   0.001385
    36  F   -0.003057  -0.000013  -0.031810  -0.000797   0.000641   0.000097
    37  F   -0.001940  -0.000422  -0.049186   0.000302   0.000354   0.002140
              31         32         33         34         35         36
     1  O    0.000000   0.000000  -0.000001  -0.000009   0.000000   0.000000
     2  C    0.000000   0.000000  -0.000125  -0.000071   0.000000   0.000003
     3  O    0.000000   0.000000   0.000000   0.000000   0.000000   0.000000
     4  C    0.000000   0.000000   0.000003   0.000000   0.000000   0.000000
     5  O    0.000000   0.000000   0.000000   0.000000   0.000000   0.000000
     6  N    0.000000   0.000000  -0.000065   0.000002   0.000000   0.000000
     7  C    0.000000   0.000000   0.000010   0.000000   0.000000   0.000000
     8  F    0.000000   0.000000   0.000000   0.000000   0.000000   0.000000
     9  F    0.000000   0.000000  -0.000001   0.000000   0.000000   0.000000
    10  C    0.000000   0.000000   0.000000   0.000000   0.000000   0.000000
    11  F    0.000000   0.000000   0.000000   0.000000   0.000000   0.000000
    12  O    0.000000   0.000000   0.000000   0.000000   0.000000   0.000000
    13  C    0.000000   0.000000   0.000000   0.000000   0.000000   0.000000
    14  F    0.000000   0.000000   0.000000   0.000000   0.000000   0.000000
    15  F    0.000000   0.000000   0.000000   0.000000   0.000000   0.000000
    16  F    0.000000   0.000000   0.000000   0.000000   0.000000   0.000000
    17  C    0.000000   0.000000   0.000000   0.000000   0.000000   0.000000
    18  F    0.000000   0.000000   0.000000   0.000000   0.000000   0.000000
    19  F    0.000000   0.000000   0.000000   0.000000   0.000000   0.000000
    20  F    0.000000   0.000000   0.000000   0.000000   0.000000   0.000000
    21  C    0.000002  -0.000002   0.009834   0.000509  -0.000001  -0.000003
    22  O   -0.000095  -0.000006  -0.003557   0.000384  -0.000001   0.000000
    23  N    0.000001   0.000028  -0.004027   0.001949  -0.000008  -0.000057
    24  C   -0.000050  -0.004111   0.019407  -0.035687   0.001634  -0.003109
    25  F    0.000000  -0.000001   0.000001   0.010080   0.000003  -0.003057
    26  F   -0.000003  -0.000612  -0.010363  -0.002139  -0.000001  -0.000013
    27  C    0.001169   0.003985  -0.009080   0.236471  -0.027856  -0.031810
    28  F   -0.000002  -0.000001  -0.000002  -0.008631  -0.000727  -0.000797
    29  O   -0.037750  -0.048047  -0.045209  -0.026300  -0.002226   0.000641
    30  C    0.338360   0.296381   0.288814  -0.002681   0.001385   0.000097
    31  F    9.007422  -0.036762  -0.036692  -0.000160  -0.000001   0.000000
    32  F   -0.036762   9.059858  -0.033781   0.011070  -0.000594   0.000000
    33  F   -0.036692  -0.033781   9.073384  -0.000228   0.000000   0.000000
    34  C   -0.000160   0.011070  -0.000228   4.139419   0.303260   0.291402
    35  F   -0.000001  -0.000594   0.000000   0.303260   9.055506  -0.040193
    36  F    0.000000   0.000000   0.000000   0.291402  -0.040193   9.072283
    37  F   -0.000001  -0.007114  -0.000008   0.273262  -0.038733  -0.038490
              37
     1  O    0.000000
     2  C    0.000006
     3  O    0.000000
     4  C    0.000000
     5  O    0.000000
     6  N    0.000000
     7  C    0.000000
     8  F    0.000000
     9  F    0.000000
    10  C    0.000000
    11  F    0.000000
    12  O    0.000000
    13  C    0.000000
    14  F    0.000000
    15  F    0.000000
    16  F    0.000000
    17  C    0.000000
    18  F    0.000000
    19  F    0.000000
    20  F    0.000000
    21  C   -0.000002
    22  O    0.000000
    23  N    0.000048
    24  C    0.017066
    25  F   -0.001940
    26  F   -0.000422
    27  C   -0.049186
    28  F    0.000302
    29  O    0.000354
    30  C    0.002140
    31  F   -0.000001
    32  F   -0.007114
    33  F   -0.000008
    34  C    0.273262
    35  F   -0.038733
    36  F   -0.038490
    37  F    9.081104
 Mulliken charges:
               1
     1  O   -0.437404
     2  C    0.809562
     3  O   -0.428327
     4  C    0.800138
     5  O   -0.442680
     6  N   -0.620260
     7  C    0.754786
     8  F   -0.263090
     9  F   -0.243069
    10  C    0.436531
    11  F   -0.250846
    12  O   -0.511430
    13  C    0.998493
    14  F   -0.242017
    15  F   -0.236891
    16  F   -0.244693
    17  C    0.819190
    18  F   -0.232165
    19  F   -0.249870
    20  F   -0.253127
    21  C    0.875547
    22  O   -0.488912
    23  N   -0.629388
    24  C    0.795602
    25  F   -0.267126
    26  F   -0.250192
    27  C    0.423394
    28  F   -0.277501
    29  O   -0.483360
    30  C    0.991780
    31  F   -0.235437
    32  F   -0.240293
    33  F   -0.248314
    34  C    0.808100
    35  F   -0.251448
    36  F   -0.246897
    37  F   -0.238386
 Sum of Mulliken charges =   0.00000
 Mulliken charges with hydrogens summed into heavy atoms:
               1
     1  O   -0.437404
     2  C    0.809562
     3  O   -0.428327
     4  C    0.800138
     5  O   -0.442680
     6  N   -0.620260
     7  C    0.754786
     8  F   -0.263090
     9  F   -0.243069
    10  C    0.436531
    11  F   -0.250846
    12  O   -0.511430
    13  C    0.998493
    14  F   -0.242017
    15  F   -0.236891
    16  F   -0.244693
    17  C    0.819190
    18  F   -0.232165
    19  F   -0.249870
    20  F   -0.253127
    21  C    0.875547
    22  O   -0.488912
    23  N   -0.629388
    24  C    0.795602
    25  F   -0.267126
    26  F   -0.250192
    27  C    0.423394
    28  F   -0.277501
    29  O   -0.483360
    30  C    0.991780
    31  F   -0.235437
    32  F   -0.240293
    33  F   -0.248314
    34  C    0.808100
    35  F   -0.251448
    36  F   -0.246897
    37  F   -0.238386
 Electronic spatial extent (au):  <R**2>=          15960.8664
 Charge=              0.0000 electrons
 Dipole moment (field-independent basis, Debye):
    X=              0.1631    Y=              0.1701    Z=              1.0936  Tot=              1.1188
 Quadrupole moment (field-independent basis, Debye-Ang):
   XX=           -201.2621   YY=           -193.5252   ZZ=           -209.0848
   XY=             -5.8589   XZ=              0.3629   YZ=              0.3279
 Traceless Quadrupole moment (field-independent basis, Debye-Ang):
   XX=              0.0286   YY=              7.7655   ZZ=             -7.7941
   XY=             -5.8589   XZ=              0.3629   YZ=              0.3279
 Octapole moment (field-independent basis, Debye-Ang**2):
  XXX=             13.6274  YYY=             -0.8031  ZZZ=             85.4982  XYY=             -2.4405
  XXY=              3.4247  XXZ=             48.2597  XZZ=              7.5895  YZZ=             -1.7669
  YYZ=              2.1729  XYZ=              9.6335
 Hexadecapole moment (field-independent basis, Debye-Ang**3):
 XXXX=         -11185.2908 YYYY=          -2398.7737 ZZZZ=          -3296.0136 XXXY=          -1412.0432
 XXXZ=           -158.5524 YYYX=          -1395.5485 YYYZ=             39.9763 ZZZX=           -190.3826
 ZZZY=             50.4473 XXYY=          -2292.6657 XXZZ=          -2489.5175 YYZZ=           -887.5340
 XXYZ=             29.3437 YYXZ=            -44.2955 ZZXY=           -485.2194
 N-N= 5.483785839751D+03 E-N=-1.753242550956D+04  KE= 2.756320508176D+03
 No NMR shielding tensors so no spin-rotation constants.
 Leave Link  601 at Sun Mar  3 18:19:47 2024, MaxMem=  5368709120 cpu:         5.0
 (Enter /home/k0335/k033513/app/g09/l9999.exe)
 1\1\GINC-C18U04N4\SP\RCAM-B3LYP\6-31G(d,p)\C11F18N2O6\K033513\03-Mar-2
 024\0\\#p CAM-B3LYP/6-31G(d,p) SCRF=(PCM,Solvent=Generic,Read) NoSymm 
 out=wfn\\Title A124553251_0\\0,1\O,0,-2.133382,-0.262402,-3.472056\C,0
 ,-1.166232,-0.112291,-2.733911\O,0,0.018266,0.246749,-3.276966\C,0,1.0
 29252,0.687124,-2.501176\O,0,2.140109,0.846482,-2.990361\N,0,0.739469,
 0.946946,-1.193677\C,0,1.765326,1.605469,-0.399109\F,0,2.190522,2.6874
 19,-1.132719\F,0,1.191771,2.199408,0.690743\C,0,3.025856,0.817649,0.06
 3057\F,0,3.658166,0.289725,-1.023991\O,0,3.93848,1.77403,0.629332\C,0,
 5.06538,1.189373,1.225238\F,0,5.543798,0.177467,0.485991\F,0,6.020344,
 2.128331,1.352796\F,0,4.730162,0.748595,2.449308\C,0,2.577604,-0.32064
 5,0.980345\F,0,1.971132,0.126598,2.096493\F,0,3.615005,-1.094669,1.373
 658\F,0,1.722129,-1.153588,0.337663\C,0,-0.315064,0.340097,-0.582412\O
 ,0,-0.429939,0.36765,0.635894\N,0,-1.20149,-0.310208,-1.376496\C,0,-2.
 434772,-0.913777,-0.875838\F,0,-2.655071,-2.006325,-1.671019\F,0,-3.46
 883,-0.067141,-1.130015\C,0,-2.539092,-1.413777,0.595668\F,0,-1.418369
 ,-2.180201,0.848233\O,0,-2.561149,-0.478899,1.680185\C,0,-3.411597,0.6
 21869,1.511148\F,0,-3.4855,1.298828,2.670099\F,0,-4.64032,0.216804,1.1
 67831\F,0,-2.920028,1.437698,0.56223\C,0,-3.747397,-2.366707,0.646982\
 F,0,-4.028105,-2.722877,1.926176\F,0,-3.513768,-3.518514,-0.02617\F,0,
 -4.872666,-1.832291,0.130504\\Version=ES64L-G09RevD.01\HF=-2776.360938
 1\RMSD=7.536e-09\Dipole=0.064164,0.0669381,0.4302748\Quadrupole=0.0213
 ,5.7734335,-5.7947334,-4.3559389,0.2698019,0.2437857\PG=C01 [X(C11F18N
 2O6)]\\@

 Writing a WFN file to "A124553251/A124553251_0.wfn"


 AND THIS OUR LIFE, EXEMPT FROM PUBLIC HAUNT,
 FINDS TONGUES IN TREES, BOOKS IN THE RUNNING BROOKS,
 SERMONS IN STONES, AND GOOD IN EVERYTHING.
 I WOULD NOT CHANGE IT. -- W. SHAKESPEARE
 AS YOU LIKE IT, ACT II, SCENE 1.
 Job cpu time:       0 days  0 hours 16 minutes 55.2 seconds.
 File lengths (MBytes):  RWF=    330 Int=      0 D2E=      0 Chk=     13 Scr=      1
 Normal termination of Gaussian 09 at Sun Mar  3 18:19:48 2024.
