 Entering Gaussian System, Link 0=g09
 Initial command:
 /home/k0335/k033513/app/g09/l1.exe "/home/k0335/k033513/app/g09/scratch/Gau-677430.inp" -scrdir="/home/k0335/k033513/app/g09/scratch/"
 Default is to use a total of  36 processors:
                               36 via shared-memory
                                1 via Linda
 Entering Link 1 = /home/k0335/k033513/app/g09/l1.exe PID=    677431.
  
 Copyright (c) 1988,1990,1992,1993,1995,1998,2003,2009,2013,
            Gaussian, Inc.  All Rights Reserved.
  
 This is part of the Gaussian(R) 09 program.  It is based on
 the Gaussian(R) 03 system (copyright 2003, Gaussian, Inc.),
 the Gaussian(R) 98 system (copyright 1998, Gaussian, Inc.),
 the Gaussian(R) 94 system (copyright 1995, Gaussian, Inc.),
 the Gaussian 92(TM) system (copyright 1992, Gaussian, Inc.),
 the Gaussian 90(TM) system (copyright 1990, Gaussian, Inc.),
 the Gaussian 88(TM) system (copyright 1988, Gaussian, Inc.),
 the Gaussian 86(TM) system (copyright 1986, Carnegie Mellon
 University), and the Gaussian 82(TM) system (copyright 1983,
 Carnegie Mellon University). Gaussian is a federally registered
 trademark of Gaussian, Inc.
  
 This software contains proprietary and confidential information,
 including trade secrets, belonging to Gaussian, Inc.
  
 This software is provided under written license and may be
 used, copied, transmitted, or stored only in accord with that
 written license.
  
 The following legend is applicable only to US Government
 contracts under FAR:
  
                    RESTRICTED RIGHTS LEGEND
  
 Use, reproduction and disclosure by the US Government is
 subject to restrictions as set forth in subparagraphs (a)
 and (c) of the Commercial Computer Software - Restricted
 Rights clause in FAR 52.227-19.
  
 Gaussian, Inc.
 340 Quinnipiac St., Bldg. 40, Wallingford CT 06492
  
  
 ---------------------------------------------------------------
 Warning -- This program may not be used in any manner that
 competes with the business of Gaussian, Inc. or will provide
 assistance to any competitor of Gaussian, Inc.  The licensee
 of this program is prohibited from giving any competitor of
 Gaussian, Inc. access to this program.  By using this program,
 the user acknowledges that Gaussian, Inc. is engaged in the
 business of creating and licensing software in the field of
 computational chemistry and represents and warrants to the
 licensee that it is not a competitor of Gaussian, Inc. and that
 it will not use this program in any manner prohibited above.
 ---------------------------------------------------------------
  

 Cite this work as:
 Gaussian 09, Revision D.01,
 M. J. Frisch, G. W. Trucks, H. B. Schlegel, G. E. Scuseria, 
 M. A. Robb, J. R. Cheeseman, G. Scalmani, V. Barone, B. Mennucci, 
 G. A. Petersson, H. Nakatsuji, M. Caricato, X. Li, H. P. Hratchian, 
 A. F. Izmaylov, J. Bloino, G. Zheng, J. L. Sonnenberg, M. Hada, 
 M. Ehara, K. Toyota, R. Fukuda, J. Hasegawa, M. Ishida, T. Nakajima, 
 Y. Honda, O. Kitao, H. Nakai, T. Vreven, J. A. Montgomery, Jr., 
 J. E. Peralta, F. Ogliaro, M. Bearpark, J. J. Heyd, E. Brothers, 
 K. N. Kudin, V. N. Staroverov, T. Keith, R. Kobayashi, J. Normand, 
 K. Raghavachari, A. Rendell, J. C. Burant, S. S. Iyengar, J. Tomasi, 
 M. Cossi, N. Rega, J. M. Millam, M. Klene, J. E. Knox, J. B. Cross, 
 V. Bakken, C. Adamo, J. Jaramillo, R. Gomperts, R. E. Stratmann, 
 O. Yazyev, A. J. Austin, R. Cammi, C. Pomelli, J. W. Ochterski, 
 R. L. Martin, K. Morokuma, V. G. Zakrzewski, G. A. Voth, 
 P. Salvador, J. J. Dannenberg, S. Dapprich, A. D. Daniels, 
 O. Farkas, J. B. Foresman, J. V. Ortiz, J. Cioslowski, 
 and D. J. Fox, Gaussian, Inc., Wallingford CT, 2013.
 
 ******************************************
 Gaussian 09:  ES64L-G09RevD.01 24-Apr-2013
                 3-Mar-2024 
 ******************************************
 %nprocshared=24
 Will use up to   24 processors via shared memory.
 %mem=40GB
 %rwf=A1671897790/A1671897790_p1.rwf
 %nosave
 %chk=A1671897790/A1671897790_p1.chk
 ----------------------------------------------------------------------
 #p CAM-B3LYP/6-31G(d,p) SCRF=(PCM,Solvent=Generic,Read) NoSymm out=wfn
 ----------------------------------------------------------------------
 1/38=1,40=2/1;
 2/12=2,15=1,17=6,18=5,40=1/2;
 3/5=1,6=6,7=101,11=2,16=1,25=1,30=1,70=2203,72=-2,74=-40/1,2,3;
 4//1;
 5/5=2,38=5/2;
 6/7=2,8=2,9=2,10=2,28=1/1;
 99/5=1,6=100,9=1/99;
 Leave Link    1 at Sun Mar  3 17:29:58 2024, MaxMem=  5368709120 cpu:         0.8
 (Enter /home/k0335/k033513/app/g09/l101.exe)
 --------------------
 Title A1671897790_p1
 --------------------
 Symbolic Z-matrix:
 Charge =  1 Multiplicity = 2
 O                     2.54923  -1.31837   1.684 
 C                     1.41522  -1.23455   1.21938 
 N                     0.29234  -1.69232   1.86665 
 O                     0.49108  -2.4032    3.07026 
 C                    -0.96986  -1.19367   1.66358 
 O                    -1.89015  -1.51025   2.41681 
 N                    -1.09107  -0.30104   0.62275 
 C                    -2.41592   0.25046   0.36346 
 F                    -2.31203   1.44422  -0.2748 
 F                    -2.95606   0.60102   1.5748 
 C                    -3.42545  -0.68682  -0.35766 
 F                    -3.19676  -1.97225   0.09306 
 O                    -4.79632  -0.47348   0.01086 
 C                    -5.37826   0.67327  -0.55285 
 F                    -4.59638   1.74199  -0.36072 
 F                    -6.56601   0.88963   0.03817 
 F                    -5.57472   0.48131  -1.86537 
 C                    -3.12731  -0.70118  -1.85611 
 F                    -1.90524  -1.22786  -2.10296 
 F                    -3.17552   0.52225  -2.41559 
 F                    -4.01871  -1.48113  -2.51534 
 C                    -0.06945  -0.0586   -0.26987 
 O                    -0.24852   0.63781  -1.26417 
 N                     1.15453  -0.6295    0.00759 
 C                     2.29635  -0.2375   -0.81163 
 F                     3.23022  -1.22423  -0.77529 
 F                     1.90402  -0.23848  -2.11712 
 C                     2.91485   1.13464  -0.43685 
 F                     1.91022   2.07625  -0.50702 
 O                     3.32584   1.23863   0.93174 
 C                     4.64189   0.8051    1.18946 
 F                     4.89199  -0.36795   0.59792 
 F                     5.50665   1.72646   0.73441 
 F                     4.80587   0.68328   2.51785 
 C                     3.93778   1.49203  -1.52326 
 F                     4.4921    2.70521  -1.27843 
 F                     3.38193   1.56987  -2.75272 
 F                     4.95021   0.60405  -1.60247 
 H                    -0.37861  -2.32511   3.51532 
 
 NAtoms=     39 NQM=       39 NQMF=       0 NMMI=      0 NMMIF=      0
                NMic=       0 NMicF=      0.
                    Isotopes and Nuclear Properties:
 (Nuclear quadrupole moments (NQMom) in fm**2, nuclear magnetic moments (NMagM)
  in nuclear magnetons)

  Atom         1           2           3           4           5           6           7           8           9          10
 IAtWgt=          16          12          14          16          12          16          14          12          19          19
 AtmWgt=  15.9949146  12.0000000  14.0030740  15.9949146  12.0000000  15.9949146  14.0030740  12.0000000  18.9984033  18.9984033
 NucSpn=           0           0           2           0           0           0           2           0           1           1
 AtZEff=   0.0000000   0.0000000   0.0000000   0.0000000   0.0000000   0.0000000   0.0000000   0.0000000   0.0000000   0.0000000
 NQMom=    0.0000000   0.0000000   2.0440000   0.0000000   0.0000000   0.0000000   2.0440000   0.0000000   0.0000000   0.0000000
 NMagM=    0.0000000   0.0000000   0.4037610   0.0000000   0.0000000   0.0000000   0.4037610   0.0000000   2.6288670   2.6288670
 AtZNuc=   8.0000000   6.0000000   7.0000000   8.0000000   6.0000000   8.0000000   7.0000000   6.0000000   9.0000000   9.0000000

  Atom        11          12          13          14          15          16          17          18          19          20
 IAtWgt=          12          19          16          12          19          19          19          12          19          19
 AtmWgt=  12.0000000  18.9984033  15.9949146  12.0000000  18.9984033  18.9984033  18.9984033  12.0000000  18.9984033  18.9984033
 NucSpn=           0           1           0           0           1           1           1           0           1           1
 AtZEff=   0.0000000   0.0000000   0.0000000   0.0000000   0.0000000   0.0000000   0.0000000   0.0000000   0.0000000   0.0000000
 NQMom=    0.0000000   0.0000000   0.0000000   0.0000000   0.0000000   0.0000000   0.0000000   0.0000000   0.0000000   0.0000000
 NMagM=    0.0000000   2.6288670   0.0000000   0.0000000   2.6288670   2.6288670   2.6288670   0.0000000   2.6288670   2.6288670
 AtZNuc=   6.0000000   9.0000000   8.0000000   6.0000000   9.0000000   9.0000000   9.0000000   6.0000000   9.0000000   9.0000000

  Atom        21          22          23          24          25          26          27          28          29          30
 IAtWgt=          19          12          16          14          12          19          19          12          19          16
 AtmWgt=  18.9984033  12.0000000  15.9949146  14.0030740  12.0000000  18.9984033  18.9984033  12.0000000  18.9984033  15.9949146
 NucSpn=           1           0           0           2           0           1           1           0           1           0
 AtZEff=   0.0000000   0.0000000   0.0000000   0.0000000   0.0000000   0.0000000   0.0000000   0.0000000   0.0000000   0.0000000
 NQMom=    0.0000000   0.0000000   0.0000000   2.0440000   0.0000000   0.0000000   0.0000000   0.0000000   0.0000000   0.0000000
 NMagM=    2.6288670   0.0000000   0.0000000   0.4037610   0.0000000   2.6288670   2.6288670   0.0000000   2.6288670   0.0000000
 AtZNuc=   9.0000000   6.0000000   8.0000000   7.0000000   6.0000000   9.0000000   9.0000000   6.0000000   9.0000000   8.0000000

  Atom        31          32          33          34          35          36          37          38          39
 IAtWgt=          12          19          19          19          12          19          19          19           1
 AtmWgt=  12.0000000  18.9984033  18.9984033  18.9984033  12.0000000  18.9984033  18.9984033  18.9984033   1.0078250
 NucSpn=           0           1           1           1           0           1           1           1           1
 AtZEff=   0.0000000   0.0000000   0.0000000   0.0000000   0.0000000   0.0000000   0.0000000   0.0000000   0.0000000
 NQMom=    0.0000000   0.0000000   0.0000000   0.0000000   0.0000000   0.0000000   0.0000000   0.0000000   0.0000000
 NMagM=    0.0000000   2.6288670   2.6288670   2.6288670   0.0000000   2.6288670   2.6288670   2.6288670   2.7928460
 AtZNuc=   6.0000000   9.0000000   9.0000000   9.0000000   6.0000000   9.0000000   9.0000000   9.0000000   1.0000000
 Leave Link  101 at Sun Mar  3 17:29:58 2024, MaxMem=  5368709120 cpu:         0.8
 (Enter /home/k0335/k033513/app/g09/l202.exe)
                          Input orientation:                          
 ---------------------------------------------------------------------
 Center     Atomic      Atomic             Coordinates (Angstroms)
 Number     Number       Type             X           Y           Z
 ---------------------------------------------------------------------
      1          8           0        2.549228   -1.318370    1.683995
      2          6           0        1.415224   -1.234548    1.219379
      3          7           0        0.292339   -1.692322    1.866649
      4          8           0        0.491082   -2.403201    3.070263
      5          6           0       -0.969863   -1.193665    1.663579
      6          8           0       -1.890147   -1.510246    2.416805
      7          7           0       -1.091068   -0.301036    0.622747
      8          6           0       -2.415923    0.250457    0.363460
      9          9           0       -2.312026    1.444217   -0.274799
     10          9           0       -2.956059    0.601024    1.574800
     11          6           0       -3.425449   -0.686823   -0.357656
     12          9           0       -3.196755   -1.972251    0.093055
     13          8           0       -4.796316   -0.473477    0.010858
     14          6           0       -5.378260    0.673267   -0.552854
     15          9           0       -4.596383    1.741985   -0.360723
     16          9           0       -6.566009    0.889627    0.038170
     17          9           0       -5.574715    0.481311   -1.865371
     18          6           0       -3.127311   -0.701180   -1.856110
     19          9           0       -1.905244   -1.227855   -2.102957
     20          9           0       -3.175522    0.522254   -2.415586
     21          9           0       -4.018712   -1.481128   -2.515341
     22          6           0       -0.069448   -0.058604   -0.269865
     23          8           0       -0.248515    0.637810   -1.264169
     24          7           0        1.154532   -0.629498    0.007590
     25          6           0        2.296353   -0.237495   -0.811627
     26          9           0        3.230217   -1.224226   -0.775290
     27          9           0        1.904015   -0.238480   -2.117124
     28          6           0        2.914850    1.134640   -0.436846
     29          9           0        1.910222    2.076251   -0.507020
     30          8           0        3.325840    1.238629    0.931737
     31          6           0        4.641891    0.805095    1.189464
     32          9           0        4.891988   -0.367952    0.597919
     33          9           0        5.506653    1.726464    0.734407
     34          9           0        4.805868    0.683283    2.517853
     35          6           0        3.937783    1.492027   -1.523263
     36          9           0        4.492102    2.705205   -1.278426
     37          9           0        3.381934    1.569871   -2.752721
     38          9           0        4.950214    0.604052   -1.602468
     39          1           0       -0.378612   -2.325112    3.515322
 ---------------------------------------------------------------------
                    Distance matrix (angstroms):
                    1          2          3          4          5
     1  O    0.000000
     2  C    1.228356   0.000000
     3  N    2.294940   1.374549   0.000000
     4  O    2.708240   2.376039   1.411926   0.000000
     5  C    3.521359   2.426443   1.372243   2.361376   0.000000
     6  O    4.503541   3.526374   2.258112   2.625762   1.230648
     7  N    3.925936   2.740240   2.323098   3.593415   1.376520
     8  C    5.371941   4.197085   3.656317   4.776962   2.422166
     9  F    5.924572   4.827084   4.605040   5.818031   3.537956
    10  F    5.831310   4.754342   3.987067   4.810879   2.678388
    11  C    6.345389   5.120465   4.447528   5.480492   3.220587
    12  F    5.997914   4.804494   3.924000   4.759162   2.834041
    13  O    7.580913   6.373616   5.551932   6.406276   4.229882
    14  C    8.474384   7.275438   6.603461   7.552537   5.275602
    15  F    8.037811   6.891726   6.376147   7.405169   5.086009
    16  F    9.522160   8.343108   7.552929   8.356963   6.188611
    17  F    9.046287   7.830651   7.285257   8.335154   6.038518
    18  C    6.718360   5.511600   5.151243   6.344982   4.157563
    19  F    5.847351   4.697177   4.561017   5.821170   3.881095
    20  F    7.277858   6.113450   5.938682   7.217812   4.944583
    21  F    7.797355   6.598227   6.150740   7.237916   5.180877
    22  C    3.501720   2.409345   2.713783   4.119197   2.416054
    23  O    4.510618   3.527288   3.940058   5.346219   3.527939
    24  N    2.286931   1.379304   2.308478   3.600855   2.752024
    25  C    2.731367   2.428063   3.647706   4.797745   4.208215
    26  F    2.553565   2.696852   3.978704   4.866325   4.856922
    27  F    4.003869   3.516151   4.536695   5.795807   4.844096
    28  C    3.263266   3.256534   4.491700   5.539926   4.992373
    29  F    4.090517   3.766546   4.738564   5.905625   4.868135
    30  O    2.776196   3.138438   4.320493   5.086460   4.990462
    31  C    3.022069   3.817384   5.061055   5.573130   5.975919
    32  F    2.751614   3.636632   4.951808   5.442674   6.014876
    33  F    4.349608   5.073715   6.337124   6.904079   7.164899
    34  F    3.129594   4.106163   5.141936   5.333753   6.132845
    35  C    4.484743   4.617315   5.909386   6.939238   6.438470
    36  F    5.360956   5.588189   6.846002   7.811214   7.327322
    37  F    5.359084   5.245026   6.444073   7.619020   6.788150
    38  F    4.501253   4.882563   6.245311   7.124735   6.996153
    39  H    3.597157   3.111034   1.889106   0.980073   2.249156
                    6          7          8          9         10
     6  O    0.000000
     7  N    2.306374   0.000000
     8  C    2.755493   1.458292   0.000000
     9  F    4.018901   2.311328   1.357657   0.000000
    10  F    2.510498   2.279980   1.371856   2.132316   0.000000
    11  C    3.276097   2.561124   1.554878   2.405807   2.369233
    12  F    2.705640   2.739973   2.371339   3.548283   2.979135
    13  O    3.912709   3.759389   2.512903   3.151325   2.643296
    14  C    5.074794   4.550969   3.129511   3.173873   3.224777
    15  F    5.061164   4.174731   2.739252   2.305284   2.781853
    16  F    5.768967   5.633328   4.211599   4.301382   3.933988
    17  F    5.989939   5.187089   3.872848   3.755296   4.325097
    18  C    4.521390   3.232821   2.517574   2.787106   3.673718
    19  F    4.528600   2.991879   2.920516   3.263066   4.239682
    20  F    5.397708   3.775476   2.893780   2.485681   3.997193
    21  F    5.371936   4.450990   3.722206   4.060843   4.711034
    22  C    3.555335   1.378128   2.450013   2.699565   3.488613
    23  O    4.567129   2.269753   2.738042   2.426360   3.923250
    24  N    3.981219   2.351388   3.694471   4.049329   4.568073
    25  C    5.437780   3.679142   4.881032   4.934926   5.829750
    26  F    6.040646   4.634684   5.945615   6.171510   6.864727
    27  F    6.047278   4.059720   5.005419   4.899044   6.160795
    28  C    6.182778   4.385349   5.462546   5.238543   6.228887
    29  F    5.987864   3.991943   4.775645   4.275602   5.494630
    30  O    6.080153   4.687763   5.853825   5.769188   6.346836
    31  C    7.038089   5.866133   7.127597   7.135090   7.610452
    32  F    7.114108   5.983482   7.337776   7.479533   7.967751
    33  F    8.247388   6.903126   8.067429   7.888593   8.578483
    34  F    7.046871   6.271696   7.548709   7.683901   7.819439
    35  C    7.648696   5.754110   6.743204   6.373465   7.610318
    36  F    8.494578   6.619949   7.512815   6.992390   8.248853
    37  F    8.000372   5.907777   6.713165   6.211044   7.735390
    38  F    8.210685   6.501373   7.632161   7.430257   8.520809
    39  H    2.038500   3.601592   4.551750   5.684272   4.355586
                   11         12         13         14         15
    11  C    0.000000
    12  F    1.381219   0.000000
    13  O    1.435477   2.193553   0.000000
    14  C    2.387764   3.489259   1.404084   0.000000
    15  F    2.696332   3.995050   2.255287   1.338060   0.000000
    16  F    3.536240   4.420999   2.233968   1.344198   2.182901
    17  F    2.873515   3.938285   2.244496   1.340948   2.193262
    18  C    1.527893   2.328022   2.514557   2.941828   3.219225
    19  F    2.376934   2.654166   3.660000   4.251932   4.370075
    20  F    2.399876   3.537836   3.083194   2.888707   2.780117
    21  F    2.374550   2.778587   2.828729   3.215765   3.919763
    22  C    3.415422   3.684264   4.753336   5.366489   4.872732
    23  O    3.559400   4.164924   4.852128   5.178949   4.575956
    24  N    4.594879   4.554557   5.952894   6.684958   6.231582
    25  C    5.757343   5.831129   7.144097   7.732796   7.185504
    26  F    6.690374   6.528364   8.099808   8.817927   8.380092
    27  F    5.630269   5.823118   7.034058   7.503982   7.018715
    28  C    6.597226   6.876429   7.889776   8.306744   7.536132
    29  F    6.010514   6.544591   7.193536   7.422428   6.516828
    30  O    7.137913   7.318291   8.351571   8.847881   8.042726
    31  C    8.348735   8.388095   9.597063  10.171356   9.414167
    32  F    8.378219   8.261745   9.706648  10.386838   9.767293
    33  F    9.316598   9.478456  10.560039  11.011249  10.162228
    34  F    8.826116   8.773453   9.991249  10.637002   9.889862
    35  C    7.766802   8.094155   9.083018   9.402166   8.616610
    36  F    8.662637   9.103740   9.901565  10.103429   9.185343
    37  F    7.561049   7.995262   8.871100   9.076580   8.330956
    38  F    8.565492   8.711213   9.937743  10.381900   9.694036
    39  H    5.192992   4.447286   5.935144   7.108925   7.025283
                   16         17         18         19         20
    16  F    0.000000
    17  F    2.184686   0.000000
    18  C    4.235990   2.718116   0.000000
    19  F    5.548954   4.054962   1.353428   0.000000
    20  F    4.201343   2.461816   1.346153   2.185000   0.000000
    21  F    4.316204   2.587426   1.355544   2.168169   2.175881
    22  C    6.572620   5.757179   3.504226   2.845614   3.819582
    23  O    6.455248   5.362308   3.229668   2.632304   3.147457
    24  N    7.868636   7.072810   4.670406   3.764926   5.093887
    25  C    8.974075   7.973755   5.542750   4.505748   5.752505
    26  F   10.054657   9.034598   6.469924   5.304307   6.839171
    27  F    8.812447   7.517505   5.059295   3.935672   5.144851
    28  C    9.495913   8.633669   6.472423   5.620553   6.432967
    29  F    8.576235   7.772595   5.908545   5.293573   5.649984
    30  O    9.938256   9.360407   7.292332   6.531244   7.347481
    31  C   11.267193  10.668453   8.479675   7.605123   8.613265
    32  F   11.540386  10.786145   8.393000   7.364545   8.657852
    33  F   12.121642  11.450151   9.335393   8.468462   9.314115
    34  F   11.640919  11.269869   9.164258   8.369191   9.384420
    35  C   10.636287   9.572158   7.405167   6.471072   7.234349
    36  F   11.283243  10.326229   8.366160   7.554790   8.053004
    37  F   10.354389   9.066086   6.952112   6.016952   6.649165
    38  F   11.636006  10.528927   8.186231   7.113626   8.166727
    39  H    7.791599   7.989202   6.248582   5.924495   7.148837
                   21         22         23         24         25
    21  F    0.000000
    22  C    4.760507   0.000000
    23  O    4.502190   1.227069   0.000000
    24  N    5.818325   1.378778   2.278592   0.000000
    25  C    6.658026   2.433623   2.728975   1.458951   0.000000
    26  F    7.459273   3.535805   3.975897   2.296752   1.359066
    27  F    6.064771   2.709110   2.475642   2.286707   1.363177
    28  C    7.696536   3.218346   3.307292   2.531487   1.551049
    29  F    7.200039   2.921120   2.702320   2.856041   2.365439
    30  O    8.556978   3.828138   4.237806   3.009738   2.505614
    31  C    9.693216   5.007228   5.473972   3.951779   3.254675
    32  F    9.504321   5.046245   5.559110   3.792818   2.956545
    33  F   10.563242   5.940365   6.188815   5.001977   4.068585
    34  F   10.387056   5.664845   6.312887   4.621371   4.269770
    35  C    8.551589   4.475865   4.280410   3.819799   2.488366
    36  F    9.565004   5.428036   5.171825   4.890139   3.701175
    37  F    8.008402   4.552861   4.032950   4.173471   2.865816
    38  F    9.253267   5.235642   5.209834   4.303619   2.894237
    39  H    7.094472   4.422701   5.624888   4.186863   5.498734
                   26         27         28         29         30
    26  F    0.000000
    27  F    2.128621   0.000000
    28  C    2.403799   2.393863   0.000000
    29  F    3.564759   2.819655   1.378707   0.000000
    30  O    2.998123   3.674097   1.432741   2.185316   0.000000
    31  C    3.157725   4.417979   2.395027   3.457732   1.409385
    32  F    2.319567   4.039332   2.690278   4.010729   2.268338
    33  F    4.020935   4.997123   2.905087   3.820708   2.243405
    34  F    4.118987   5.545576   3.536936   4.413047   2.239343
    35  C    2.904848   2.735606   1.534412   2.342023   2.542776
    36  F    4.157635   4.008353   2.379633   2.767084   2.897556
    37  F    3.426402   2.420405   2.402264   2.732312   3.699743
    38  F    2.642955   3.202196   2.404767   3.550905   3.076276
    39  H    5.713576   6.425641   6.199710   6.386704   5.753097
                   31         32         33         34         35
    31  C    0.000000
    32  F    1.337353   0.000000
    33  F    1.343060   2.187012   0.000000
    34  F    1.344003   2.190584   2.181744   0.000000
    35  C    2.885573   2.978161   2.759237   4.211681   0.000000
    36  F    3.118226   3.622827   2.457386   4.312581   1.356103
    37  F    4.208705   4.154782   4.086443   5.531056   1.351516
    38  F    2.816090   2.406218   2.651494   4.123610   1.348996
    39  H    6.357143   6.334109   7.667144   6.076530   7.654355
                   36         37         38         39
    36  F    0.000000
    37  F    2.166795   0.000000
    38  F    2.174791   2.171495   0.000000
    39  H    8.485751   8.282570   7.947840   0.000000
 Symmetry turned off by external request.
 Stoichiometry    C11HF18N3O6(1+,2)
 Framework group  C1[X(C11HF18N3O6)]
 Deg. of freedom   111
 Full point group                 C1      NOp   1
 Rotational constants (GHZ):      0.2177260      0.0588065      0.0533939
 Leave Link  202 at Sun Mar  3 17:29:58 2024, MaxMem=  5368709120 cpu:         0.1
 (Enter /home/k0335/k033513/app/g09/l301.exe)
 Standard basis: 6-31G(d,p) (6D, 7F)
 Ernie: Thresh=  0.10000D-02 Tol=  0.10000D-05 Strict=F.
   575 basis functions,  1071 primitive gaussians,   575 cartesian basis functions
   149 alpha electrons      148 beta electrons
       nuclear repulsion energy      5667.8497724447 Hartrees.
 IExCor=20419 DFT=T Ex+Corr=CAM-B3LYP ExCW=0 ScaHFX=  1.000000
 ScaDFX=  1.000000  1.000000  1.000000  0.810000 ScalE2=  1.000000  1.000000
 IRadAn=      0 IRanWt=     -1 IRanGd=            0 ICorTp=0 IEmpDi=  4
  HFx wShort=  0.000000 wLong=  0.330000 cFull=  0.190000 cShort=  0.000000 cLong=  0.460000
  DFx wShort=  0.000000 wLong=  0.330000 cFull=  0.190000 cShort=  0.000000 cLong=  0.460000
 NAtoms=   39 NActive=   39 NUniq=   39 SFac= 1.00D+00 NAtFMM=   60 NAOKFM=F Big=F
 Integral buffers will be    131072 words long.
 Raffenetti 2 integral format.
 Two-electron integral symmetry is turned off.
 Using the following non-standard input for PCM:
 eps=4.9
 --- end of non-standard input.
 ------------------------------------------------------------------------------
 Polarizable Continuum Model (PCM)
 =================================
 Model                : PCM (using non-symmetric T matrix).
 Atomic radii         : UFF (Universal Force Field).
 Polarization charges : Total charges.
 Charge compensation  : None.
 Solution method      : On-the-fly selection.
 Cavity type          : Scaled VdW (van der Waals Surface) (Alpha=1.100).
 Cavity algorithm     : GePol (No added spheres)
                        Default sphere list used, NSphG=   39.
                        Lebedev-Laikov grids with approx.  5.0 points / Ang**2.
                        Smoothing algorithm: Karplus/York (Gamma=1.0000).
                        Polarization charges: spherical gaussians, with
                                              point-specific exponents (IZeta= 3).
                        Self-potential: point-specific (ISelfS= 7).
                        Self-field    : sphere-specific E.n sum rule (ISelfD= 2).
 Solvent              : Generic,
                        Eps                           =   4.900000
                        Eps(infinity)                 =   0.000000
                        RSolv                         =   0.000000 Ang.
                        Molar volume                  =   0.000000 cm**3/mol
                        Thermal expansion coefficient =   0.000000 K**-1
                        Absolute temperature          = 298.150000 K
                        Numeral density               =   0.000000 Ang**-3
                        Hydrogen bond acidity         =   0.000000
                        Hydrogen bond basicity        =   0.000000
                        Surface tension at interface  =   0.000000 (cal/mol)*Ang**-2
                        Carbon aromaticity            =   0.000000
                        Electronegative halogenicity  =   0.000000
 ------------------------------------------------------------------------------
 GePol: Number of generator spheres                  =      39
 GePol: Total number of spheres                      =      39
 GePol: Number of exposed spheres                    =      39 (100.00%)
 GePol: Number of points                             =    3288
 GePol: Average weight of points                     =       0.12
 GePol: Minimum weight of points                     =   0.69D-10
 GePol: Maximum weight of points                     =    0.20577
 GePol: Number of points with low weight             =     156
 GePol: Fraction of low-weight points (<1% of avg)   =       4.74%
 GePol: Cavity surface area                          =    407.605 Ang**2
 GePol: Cavity volume                                =    483.588 Ang**3
 Leave Link  301 at Sun Mar  3 17:29:58 2024, MaxMem=  5368709120 cpu:         0.8
 (Enter /home/k0335/k033513/app/g09/l302.exe)
 NPDir=0 NMtPBC=     1 NCelOv=     1 NCel=       1 NClECP=     1 NCelD=      1
         NCelK=      1 NCelE2=     1 NClLst=     1 CellRange=     0.0.
 One-electron integrals computed using PRISM.
 NBasis=   575 RedAO= T EigKep=  1.09D-03  NBF=   575
 NBsUse=   575 1.00D-06 EigRej= -1.00D+00 NBFU=   575
 Precomputing XC quadrature grid using
 IXCGrd= 4 IRadAn=           0 IRanWt=          -1 IRanGd=           0 AccXCQ= 0.00D+00.
 Generated NRdTot=       0 NPtTot=           0 NUsed=           0 NTot=          32
 NSgBfM=   561   561   561   561   561 MxSgAt=    39 MxSgA2=    39.
 Leave Link  302 at Sun Mar  3 17:29:59 2024, MaxMem=  5368709120 cpu:        10.4
 (Enter /home/k0335/k033513/app/g09/l303.exe)
 DipDrv:  MaxL=1.
 Leave Link  303 at Sun Mar  3 17:29:59 2024, MaxMem=  5368709120 cpu:         0.8
 (Enter /home/k0335/k033513/app/g09/l401.exe)
 ExpMin= 1.61D-01 ExpMax= 7.00D+03 ExpMxC= 1.05D+03 IAcc=1 IRadAn=         1 AccDes= 0.00D+00
 Harris functional with IExCor=20419 and IRadAn=       1 diagonalized for initial guess.
 HarFok:  IExCor=20419 AccDes= 0.00D+00 IRadAn=         1 IDoV= 1 UseB2=F ITyADJ=14
 ICtDFT=  3500011 ScaDFX=  1.000000  1.000000  1.000000  1.000000
 FoFCou: FMM=F IPFlag=           0 FMFlag=      100000 FMFlg1=           0
         NFxFlg=           0 DoJE=T BraDBF=F KetDBF=T FulRan=T
         wScrn=  0.000000 ICntrl=     500 IOpCl=  0 I1Cent=   200000004 NGrid=           0
         NMat0=    1 NMatS0=      1 NMatT0=    0 NMatD0=    1 NMtDS0=    0 NMtDT0=    0
 Symmetry not used in FoFCou.
 Harris En= -2747.93347828446    
 JPrj=0 DoOrth=F DoCkMO=F.
 Initial guess <Sx>= 0.0000 <Sy>= 0.0000 <Sz>= 0.5000 <S**2>= 0.7500 S= 0.5000
 Leave Link  401 at Sun Mar  3 17:29:59 2024, MaxMem=  5368709120 cpu:        13.8
 (Enter /home/k0335/k033513/app/g09/l502.exe)
 UHF open shell SCF:
 Using DIIS extrapolation, IDIIS=  1040.
 Two-electron integral symmetry not used.
 IVT=     1027753 IEndB=     1027753 NGot=  5368709120 MDV=  5368029208
 LenX=  5368029208 LenY=  5367698008
 Requested convergence on RMS density matrix=1.00D-08 within 128 cycles.
 Requested convergence on MAX density matrix=1.00D-06.
 Requested convergence on             energy=1.00D-06.
 No special actions if energy rises.
 Fock matrices will be formed incrementally for  20 cycles.

 Cycle   1  Pass 1  IDiag  1:
 FoFJK:  IHMeth= 1 ICntrl=       0 DoSepK=T KAlg= 0 I1Cent=   0 FoldK=F
 IRaf=         1 NMat=   1 IRICut=       1 DoRegI=T DoRafI=F ISym2E= 0.
 FoFCou: FMM=F IPFlag=           0 FMFlag=      100000 FMFlg1=           0
         NFxFlg=           0 DoJE=T BraDBF=F KetDBF=F FulRan=T
         wScrn=  0.000000 ICntrl=     500 IOpCl=  0 I1Cent=           0 NGrid=           0
         NMat0=    1 NMatS0=      1 NMatT0=    0 NMatD0=    1 NMtDS0=    0 NMtDT0=    0
 Symmetry not used in FoFCou.
 Inv3:  Mode=1 IEnd=    32432832.
 Iteration    1 A*A^-1 deviation from unit magnitude is 7.55D-15 for    404.
 Iteration    1 A*A^-1 deviation from orthogonality  is 4.01D-15 for   3287   2998.
 Iteration    1 A^-1*A deviation from unit magnitude is 7.55D-15 for    408.
 Iteration    1 A^-1*A deviation from orthogonality  is 7.41D-13 for   2369   2358.
 E= -2830.23897799972    
 DIIS: error= 3.91D-02 at cycle   1 NSaved=   1.
 NSaved= 1 IEnMin= 1 EnMin= -2830.23897799972     IErMin= 1 ErrMin= 3.91D-02
 ErrMax= 3.91D-02  0.00D+00 EMaxC= 1.00D-01 BMatC= 1.00D+01 BMatP= 1.00D+01
 IDIUse=3 WtCom= 6.09D-01 WtEn= 3.91D-01
 Coeff-Com:  0.100D+01
 Coeff-En:   0.100D+01
 Coeff:      0.100D+01
 Gap=     0.443 Goal=   None    Shift=    0.000
 Gap=     0.082 Goal=   None    Shift=    0.000
 GapD=    0.082 DampG=0.500 DampE=0.500 DampFc=0.2500 IDamp=-1.
 Damping current iteration by 2.50D-01
 RMSDP=3.73D-03 MaxDP=3.17D-01              OVMax= 6.82D-01

 Cycle   2  Pass 1  IDiag  1:
 RMSU=  9.33D-04    CP:  1.00D+00
 E= -2830.57660031738     Delta-E=       -0.337622317653 Rises=F Damp=T
 DIIS: error= 2.84D-02 at cycle   2 NSaved=   2.
 NSaved= 2 IEnMin= 2 EnMin= -2830.57660031738     IErMin= 2 ErrMin= 2.84D-02
 ErrMax= 2.84D-02  0.00D+00 EMaxC= 1.00D-01 BMatC= 4.13D+00 BMatP= 1.00D+01
 IDIUse=3 WtCom= 7.16D-01 WtEn= 2.84D-01
 Coeff-Com: -0.127D+01 0.227D+01
 Coeff-En:   0.000D+00 0.100D+01
 Coeff:     -0.909D+00 0.191D+01
 Gap=     0.676 Goal=   None    Shift=    0.000
 Gap=    -0.043 Goal=   None    Shift=    0.000
 RMSDP=1.85D-03 MaxDP=1.66D-01 DE=-3.38D-01 OVMax= 6.68D-01

 Cycle   3  Pass 1  IDiag  1:
 RMSU=  1.57D-03    CP:  1.00D+00  2.04D+00
 E= -2830.99286997338     Delta-E=       -0.416269656000 Rises=F Damp=F
 DIIS: error= 1.69D-02 at cycle   3 NSaved=   3.
 NSaved= 3 IEnMin= 3 EnMin= -2830.99286997338     IErMin= 3 ErrMin= 1.69D-02
 ErrMax= 1.69D-02  0.00D+00 EMaxC= 1.00D-01 BMatC= 1.69D+00 BMatP= 4.13D+00
 IDIUse=3 WtCom= 8.31D-01 WtEn= 1.69D-01
 Coeff-Com: -0.811D+00 0.132D+01 0.495D+00
 Coeff-En:   0.000D+00 0.000D+00 0.100D+01
 Coeff:     -0.674D+00 0.109D+01 0.580D+00
 Gap=     0.431 Goal=   None    Shift=    0.000
 Gap=     0.071 Goal=   None    Shift=    0.000
 RMSDP=1.67D-03 MaxDP=3.72D-01 DE=-4.16D-01 OVMax= 9.23D-01

 Cycle   4  Pass 1  IDiag  1:
 RMSU=  8.19D-04    CP:  1.00D+00  2.79D+00  1.92D-01
 E= -2831.12424251295     Delta-E=       -0.131372539576 Rises=F Damp=F
 DIIS: error= 1.30D-02 at cycle   4 NSaved=   4.
 NSaved= 4 IEnMin= 4 EnMin= -2831.12424251295     IErMin= 4 ErrMin= 1.30D-02
 ErrMax= 1.30D-02  0.00D+00 EMaxC= 1.00D-01 BMatC= 8.28D-01 BMatP= 1.69D+00
 IDIUse=3 WtCom= 8.70D-01 WtEn= 1.30D-01
 Coeff-Com: -0.283D+00 0.459D+00 0.415D+00 0.409D+00
 Coeff-En:   0.000D+00 0.000D+00 0.399D+00 0.601D+00
 Coeff:     -0.246D+00 0.400D+00 0.413D+00 0.434D+00
 Gap=     0.448 Goal=   None    Shift=    0.000
 Gap=    -0.026 Goal=   None    Shift=    0.000
 RMSDP=1.30D-03 MaxDP=2.96D-01 DE=-1.31D-01 OVMax= 7.89D-01

 Cycle   5  Pass 1  IDiag  1:
 RMSU=  5.70D-04    CP:  1.00D+00  2.25D+00  6.99D-01  1.62D-01
 E= -2831.27070032960     Delta-E=       -0.146457816652 Rises=F Damp=F
 DIIS: error= 5.68D-03 at cycle   5 NSaved=   5.
 NSaved= 5 IEnMin= 5 EnMin= -2831.27070032960     IErMin= 5 ErrMin= 5.68D-03
 ErrMax= 5.68D-03  0.00D+00 EMaxC= 1.00D-01 BMatC= 2.19D-01 BMatP= 8.28D-01
 IDIUse=3 WtCom= 9.43D-01 WtEn= 5.68D-02
 Coeff-Com: -0.102D+00 0.157D+00 0.205D+00 0.362D+00 0.378D+00
 Coeff-En:   0.000D+00 0.000D+00 0.000D+00 0.213D+00 0.787D+00
 Coeff:     -0.966D-01 0.148D+00 0.194D+00 0.353D+00 0.401D+00
 Gap=     0.379 Goal=   None    Shift=    0.000
 Gap=     0.061 Goal=   None    Shift=    0.000
 RMSDP=3.12D-04 MaxDP=3.14D-02 DE=-1.46D-01 OVMax= 1.33D-01

 Cycle   6  Pass 1  IDiag  1:
 RMSU=  2.56D-04    CP:  1.00D+00  2.28D+00  6.65D-01  3.56D-01  9.06D-01
 E= -2831.30791509108     Delta-E=       -0.037214761473 Rises=F Damp=F
 DIIS: error= 2.78D-03 at cycle   6 NSaved=   6.
 NSaved= 6 IEnMin= 6 EnMin= -2831.30791509108     IErMin= 6 ErrMin= 2.78D-03
 ErrMax= 2.78D-03  0.00D+00 EMaxC= 1.00D-01 BMatC= 4.12D-02 BMatP= 2.19D-01
 IDIUse=3 WtCom= 9.72D-01 WtEn= 2.78D-02
 Coeff-Com: -0.393D-01 0.503D-01-0.257D-01 0.136D+00 0.245D-01 0.854D+00
 Coeff-En:   0.000D+00 0.000D+00 0.000D+00 0.000D+00 0.000D+00 0.100D+01
 Coeff:     -0.382D-01 0.489D-01-0.249D-01 0.132D+00 0.238D-01 0.858D+00
 Gap=     0.355 Goal=   None    Shift=    0.000
 Gap=     0.097 Goal=   None    Shift=    0.000
 RMSDP=1.51D-04 MaxDP=1.40D-02 DE=-3.72D-02 OVMax= 2.46D-02

 Cycle   7  Pass 1  IDiag  1:
 RMSU=  1.15D-04    CP:  1.00D+00  2.33D+00  6.29D-01  3.23D-01  9.93D-01
                    CP:  1.14D+00
 E= -2831.31659375132     Delta-E=       -0.008678660242 Rises=F Damp=F
 DIIS: error= 1.24D-03 at cycle   7 NSaved=   7.
 NSaved= 7 IEnMin= 7 EnMin= -2831.31659375132     IErMin= 7 ErrMin= 1.24D-03
 ErrMax= 1.24D-03  0.00D+00 EMaxC= 1.00D-01 BMatC= 1.06D-02 BMatP= 4.12D-02
 IDIUse=3 WtCom= 9.88D-01 WtEn= 1.24D-02
 Coeff-Com: -0.359D-01 0.498D-01-0.321D-01 0.393D-01-0.124D+00 0.443D+00
 Coeff-Com:  0.660D+00
 Coeff-En:   0.000D+00 0.000D+00 0.000D+00 0.000D+00 0.000D+00 0.000D+00
 Coeff-En:   0.100D+01
 Coeff:     -0.354D-01 0.492D-01-0.317D-01 0.388D-01-0.123D+00 0.437D+00
 Coeff:      0.665D+00
 Gap=     0.352 Goal=   None    Shift=    0.000
 Gap=     0.114 Goal=   None    Shift=    0.000
 RMSDP=9.76D-05 MaxDP=9.48D-03 DE=-8.68D-03 OVMax= 4.00D-02

 Cycle   8  Pass 1  IDiag  1:
 RMSU=  6.71D-05    CP:  1.00D+00  2.32D+00  6.25D-01  2.72D-01  1.00D+00
                    CP:  1.26D+00  1.40D+00
 E= -2831.31955374111     Delta-E=       -0.002959989793 Rises=F Damp=F
 DIIS: error= 8.95D-04 at cycle   8 NSaved=   8.
 NSaved= 8 IEnMin= 8 EnMin= -2831.31955374111     IErMin= 8 ErrMin= 8.95D-04
 ErrMax= 8.95D-04  0.00D+00 EMaxC= 1.00D-01 BMatC= 3.71D-03 BMatP= 1.06D-02
 IDIUse=3 WtCom= 9.91D-01 WtEn= 8.95D-03
 Coeff-Com: -0.152D-01 0.226D-01-0.815D-02 0.107D-01-0.105D+00 0.291D-02
 Coeff-Com:  0.275D+00 0.817D+00
 Coeff-En:   0.000D+00 0.000D+00 0.000D+00 0.000D+00 0.000D+00 0.000D+00
 Coeff-En:   0.000D+00 0.100D+01
 Coeff:     -0.151D-01 0.224D-01-0.808D-02 0.106D-01-0.104D+00 0.288D-02
 Coeff:      0.272D+00 0.819D+00
 Gap=     0.349 Goal=   None    Shift=    0.000
 Gap=     0.124 Goal=   None    Shift=    0.000
 RMSDP=9.99D-05 MaxDP=1.07D-02 DE=-2.96D-03 OVMax= 5.14D-02

 Cycle   9  Pass 1  IDiag  1:
 RMSU=  2.71D-05    CP:  1.00D+00  2.32D+00  6.23D-01  2.08D-01  1.00D+00
                    CP:  1.31D+00  1.98D+00  1.65D+00
 E= -2831.32146063958     Delta-E=       -0.001906898467 Rises=F Damp=F
 DIIS: error= 5.53D-04 at cycle   9 NSaved=   9.
 NSaved= 9 IEnMin= 9 EnMin= -2831.32146063958     IErMin= 9 ErrMin= 5.53D-04
 ErrMax= 5.53D-04  0.00D+00 EMaxC= 1.00D-01 BMatC= 1.41D-03 BMatP= 3.71D-03
 IDIUse=3 WtCom= 9.94D-01 WtEn= 5.53D-03
 Coeff-Com: -0.368D-02 0.555D-02-0.115D-02 0.701D-02-0.457D-01-0.677D-01
 Coeff-Com: -0.188D-01 0.218D+00 0.907D+00
 Coeff-En:   0.000D+00 0.000D+00 0.000D+00 0.000D+00 0.000D+00 0.000D+00
 Coeff-En:   0.000D+00 0.000D+00 0.100D+01
 Coeff:     -0.366D-02 0.552D-02-0.114D-02 0.697D-02-0.455D-01-0.673D-01
 Coeff:     -0.187D-01 0.217D+00 0.907D+00
 Gap=     0.344 Goal=   None    Shift=    0.000
 Gap=     0.132 Goal=   None    Shift=    0.000
 RMSDP=8.98D-05 MaxDP=1.03D-02 DE=-1.91D-03 OVMax= 5.08D-02

 Cycle  10  Pass 1  IDiag  1:
 RMSU=  1.69D-05    CP:  1.00D+00  2.31D+00  6.22D-01  1.49D-01  9.85D-01
                    CP:  1.29D+00  2.45D+00  2.32D+00  1.65D+00
 E= -2831.32260484437     Delta-E=       -0.001144204794 Rises=F Damp=F
 DIIS: error= 3.46D-04 at cycle  10 NSaved=  10.
 NSaved=10 IEnMin=10 EnMin= -2831.32260484437     IErMin=10 ErrMin= 3.46D-04
 ErrMax= 3.46D-04  0.00D+00 EMaxC= 1.00D-01 BMatC= 5.22D-04 BMatP= 1.41D-03
 IDIUse=3 WtCom= 9.97D-01 WtEn= 3.46D-03
 Coeff-Com: -0.561D-02 0.721D-02-0.555D-02 0.463D-02 0.205D-01 0.104D+00
 Coeff-Com: -0.926D-01-0.808D+00 0.410D+00 0.136D+01
 Coeff-En:   0.000D+00 0.000D+00 0.000D+00 0.000D+00 0.000D+00 0.000D+00
 Coeff-En:   0.000D+00 0.000D+00 0.000D+00 0.100D+01
 Coeff:     -0.559D-02 0.719D-02-0.553D-02 0.462D-02 0.204D-01 0.104D+00
 Coeff:     -0.923D-01-0.805D+00 0.409D+00 0.136D+01
 Gap=     0.334 Goal=   None    Shift=    0.000
 Gap=     0.140 Goal=   None    Shift=    0.000
 RMSDP=1.24D-04 MaxDP=1.44D-02 DE=-1.14D-03 OVMax= 7.51D-02

 Cycle  11  Pass 1  IDiag  1:
 RMSU=  2.51D-05    CP:  1.00D+00  2.31D+00  6.21D-01  6.96D-02  9.42D-01
                    CP:  1.22D+00  3.00D+00  3.00D+00  3.00D+00  2.05D+00
 E= -2831.32345539036     Delta-E=       -0.000850545981 Rises=F Damp=F
 DIIS: error= 1.55D-04 at cycle  11 NSaved=  11.
 NSaved=11 IEnMin=11 EnMin= -2831.32345539036     IErMin=11 ErrMin= 1.55D-04
 ErrMax= 1.55D-04  0.00D+00 EMaxC= 1.00D-01 BMatC= 6.92D-05 BMatP= 5.22D-04
 IDIUse=3 WtCom= 9.98D-01 WtEn= 1.55D-03
 Coeff-Com: -0.562D-02 0.756D-02-0.491D-02 0.230D-02 0.150D-01 0.956D-01
 Coeff-Com:  0.159D-01-0.398D+00-0.651D-01 0.594D+00 0.743D+00
 Coeff-En:   0.000D+00 0.000D+00 0.000D+00 0.000D+00 0.000D+00 0.000D+00
 Coeff-En:   0.000D+00 0.000D+00 0.000D+00 0.000D+00 0.100D+01
 Coeff:     -0.562D-02 0.754D-02-0.490D-02 0.229D-02 0.150D-01 0.955D-01
 Coeff:      0.159D-01-0.397D+00-0.650D-01 0.593D+00 0.744D+00
 Gap=     0.334 Goal=   None    Shift=    0.000
 Gap=     0.142 Goal=   None    Shift=    0.000
 RMSDP=3.11D-05 MaxDP=2.93D-03 DE=-8.51D-04 OVMax= 1.99D-02

 Cycle  12  Pass 1  IDiag  1:
 RMSU=  1.36D-05    CP:  1.00D+00  2.30D+00  6.24D-01  5.15D-02  9.30D-01
                    CP:  1.18D+00  3.00D+00  3.00D+00  3.00D+00  2.68D+00
                    CP:  1.58D+00
 E= -2831.32357647157     Delta-E=       -0.000121081219 Rises=F Damp=F
 DIIS: error= 1.20D-04 at cycle  12 NSaved=  12.
 NSaved=12 IEnMin=12 EnMin= -2831.32357647157     IErMin=12 ErrMin= 1.20D-04
 ErrMax= 1.20D-04  0.00D+00 EMaxC= 1.00D-01 BMatC= 2.75D-05 BMatP= 6.92D-05
 IDIUse=3 WtCom= 9.99D-01 WtEn= 1.20D-03
 Coeff-Com: -0.322D-04 0.656D-04-0.159D-02 0.379D-03-0.137D-01-0.816D-02
 Coeff-Com:  0.802D-01 0.280D+00-0.191D+00-0.522D+00 0.138D+00 0.124D+01
 Coeff-En:   0.000D+00 0.000D+00 0.000D+00 0.000D+00 0.000D+00 0.000D+00
 Coeff-En:   0.000D+00 0.000D+00 0.000D+00 0.000D+00 0.000D+00 0.100D+01
 Coeff:     -0.322D-04 0.656D-04-0.159D-02 0.379D-03-0.137D-01-0.815D-02
 Coeff:      0.801D-01 0.279D+00-0.191D+00-0.521D+00 0.138D+00 0.124D+01
 Gap=     0.335 Goal=   None    Shift=    0.000
 Gap=     0.140 Goal=   None    Shift=    0.000
 RMSDP=3.17D-05 MaxDP=2.98D-03 DE=-1.21D-04 OVMax= 1.68D-02

 Cycle  13  Pass 1  IDiag  1:
 RMSU=  1.48D-05    CP:  1.00D+00  2.30D+00  6.26D-01  3.86D-02  9.20D-01
                    CP:  1.13D+00  3.00D+00  3.00D+00  3.00D+00  3.00D+00
                    CP:  2.28D+00  1.65D+00
 E= -2831.32366194724     Delta-E=       -0.000085475665 Rises=F Damp=F
 DIIS: error= 1.18D-04 at cycle  13 NSaved=  13.
 NSaved=13 IEnMin=13 EnMin= -2831.32366194724     IErMin=13 ErrMin= 1.18D-04
 ErrMax= 1.18D-04  0.00D+00 EMaxC= 1.00D-01 BMatC= 6.01D-05 BMatP= 2.75D-05
 IDIUse=3 WtCom= 9.99D-01 WtEn= 1.20D-03
 Coeff-Com:  0.103D-02-0.131D-02-0.713D-03-0.252D-03-0.188D-01-0.241D-01
 Coeff-Com:  0.437D-01 0.249D+00-0.106D+00-0.493D+00-0.110D+00 0.640D+00
 Coeff-Com:  0.821D+00
 Coeff-En:   0.000D+00 0.000D+00 0.000D+00 0.000D+00 0.000D+00 0.000D+00
 Coeff-En:   0.000D+00 0.000D+00 0.000D+00 0.000D+00 0.000D+00 0.000D+00
 Coeff-En:   0.100D+01
 Coeff:      0.103D-02-0.131D-02-0.712D-03-0.251D-03-0.188D-01-0.241D-01
 Coeff:      0.437D-01 0.249D+00-0.106D+00-0.493D+00-0.110D+00 0.639D+00
 Coeff:      0.822D+00
 Gap=     0.333 Goal=   None    Shift=    0.000
 Gap=     0.141 Goal=   None    Shift=    0.000
 RMSDP=2.83D-05 MaxDP=2.47D-03 DE=-8.55D-05 OVMax= 1.62D-02

 Cycle  14  Pass 1  IDiag  1:
 RMSU=  8.00D-06    CP:  1.00D+00  2.30D+00  6.26D-01  2.56D-02  9.09D-01
                    CP:  1.11D+00  3.00D+00  3.00D+00  3.00D+00  3.00D+00
                    CP:  3.00D+00  2.51D+00  1.63D+00
 E= -2831.32373032691     Delta-E=       -0.000068379672 Rises=F Damp=F
 DIIS: error= 6.70D-05 at cycle  14 NSaved=  14.
 NSaved=14 IEnMin=14 EnMin= -2831.32373032691     IErMin=14 ErrMin= 6.70D-05
 ErrMax= 6.70D-05  0.00D+00 EMaxC= 1.00D-01 BMatC= 1.50D-05 BMatP= 2.75D-05
 IDIUse=1 WtCom= 1.00D+00 WtEn= 0.00D+00
 Coeff-Com:  0.782D-04-0.694D-04-0.287D-03 0.439D-03-0.705D-02-0.251D-03
 Coeff-Com: -0.118D-01-0.127D-01 0.360D-01 0.151D-01-0.120D+00-0.309D+00
 Coeff-Com:  0.751D-01 0.133D+01
 Coeff:      0.782D-04-0.694D-04-0.287D-03 0.439D-03-0.705D-02-0.251D-03
 Coeff:     -0.118D-01-0.127D-01 0.360D-01 0.151D-01-0.120D+00-0.309D+00
 Coeff:      0.751D-01 0.133D+01
 Gap=     0.332 Goal=   None    Shift=    0.000
 Gap=     0.142 Goal=   None    Shift=    0.000
 RMSDP=2.90D-05 MaxDP=3.10D-03 DE=-6.84D-05 OVMax= 1.39D-02

 Cycle  15  Pass 1  IDiag  1:
 RMSU=  1.87D-05    CP:  1.00D+00  2.30D+00  6.26D-01  1.51D-02  8.99D-01
                    CP:  1.09D+00  3.00D+00  3.00D+00  3.00D+00  3.00D+00
                    CP:  3.00D+00  3.00D+00  2.65D+00  1.78D+00
 E= -2831.32377366493     Delta-E=       -0.000043338016 Rises=F Damp=F
 DIIS: error= 4.73D-05 at cycle  15 NSaved=  15.
 NSaved=15 IEnMin=15 EnMin= -2831.32377366493     IErMin=15 ErrMin= 4.73D-05
 ErrMax= 4.73D-05  0.00D+00 EMaxC= 1.00D-01 BMatC= 3.76D-06 BMatP= 1.50D-05
 IDIUse=1 WtCom= 1.00D+00 WtEn= 0.00D+00
 Coeff-Com: -0.112D-02 0.150D-02 0.170D-03 0.649D-03 0.800D-02 0.171D-01
 Coeff-Com: -0.189D-01-0.119D+00 0.636D-01 0.281D+00 0.144D-01-0.321D+00
 Coeff-Com: -0.621D+00 0.411D+00 0.128D+01
 Coeff:     -0.112D-02 0.150D-02 0.170D-03 0.649D-03 0.800D-02 0.171D-01
 Coeff:     -0.189D-01-0.119D+00 0.636D-01 0.281D+00 0.144D-01-0.321D+00
 Coeff:     -0.621D+00 0.411D+00 0.128D+01
 Gap=     0.332 Goal=   None    Shift=    0.000
 Gap=     0.142 Goal=   None    Shift=    0.000
 RMSDP=1.90D-05 MaxDP=2.65D-03 DE=-4.33D-05 OVMax= 1.03D-02

 Cycle  16  Pass 1  IDiag  1:
 RMSU=  1.16D-05    CP:  1.00D+00  2.30D+00  6.27D-01  1.33D-02  8.95D-01
                    CP:  1.08D+00  3.00D+00  3.00D+00  3.00D+00  3.00D+00
                    CP:  3.00D+00  3.00D+00  3.00D+00  1.85D+00  1.50D+00
 E= -2831.32379277734     Delta-E=       -0.000019112409 Rises=F Damp=F
 DIIS: error= 2.45D-05 at cycle  16 NSaved=  16.
 NSaved=16 IEnMin=16 EnMin= -2831.32379277734     IErMin=16 ErrMin= 2.45D-05
 ErrMax= 2.45D-05  0.00D+00 EMaxC= 1.00D-01 BMatC= 1.98D-06 BMatP= 3.76D-06
 IDIUse=1 WtCom= 1.00D+00 WtEn= 0.00D+00
 Coeff-Com: -0.750D-03 0.987D-03-0.779D-04 0.416D-03 0.600D-02 0.920D-02
 Coeff-Com: -0.232D-02-0.453D-01 0.510D-02 0.121D+00 0.332D-01 0.178D-01
 Coeff-Com: -0.369D+00-0.275D+00 0.594D+00 0.905D+00
 Coeff:     -0.750D-03 0.987D-03-0.779D-04 0.416D-03 0.600D-02 0.920D-02
 Coeff:     -0.232D-02-0.453D-01 0.510D-02 0.121D+00 0.332D-01 0.178D-01
 Coeff:     -0.369D+00-0.275D+00 0.594D+00 0.905D+00
 Gap=     0.332 Goal=   None    Shift=    0.000
 Gap=     0.142 Goal=   None    Shift=    0.000
 RMSDP=1.07D-05 MaxDP=1.43D-03 DE=-1.91D-05 OVMax= 5.72D-03

 Cycle  17  Pass 1  IDiag  1:
 RMSU=  2.00D-06    CP:  1.00D+00  2.30D+00  6.28D-01  1.15D-02  8.92D-01
                    CP:  1.08D+00  3.00D+00  3.00D+00  3.00D+00  3.00D+00
                    CP:  3.00D+00  3.00D+00  3.00D+00  1.98D+00  1.80D+00
                    CP:  1.72D+00
 E= -2831.32379901645     Delta-E=       -0.000006239117 Rises=F Damp=F
 DIIS: error= 1.48D-05 at cycle  17 NSaved=  17.
 NSaved=17 IEnMin=17 EnMin= -2831.32379901645     IErMin=17 ErrMin= 1.48D-05
 ErrMax= 1.48D-05  0.00D+00 EMaxC= 1.00D-01 BMatC= 1.64D-06 BMatP= 1.98D-06
 IDIUse=1 WtCom= 1.00D+00 WtEn= 0.00D+00
 Coeff-Com:  0.154D-04-0.349D-04-0.449D-03 0.131D-03-0.145D-02-0.267D-02
 Coeff-Com:  0.133D-01 0.490D-01-0.511D-01-0.101D+00 0.102D-01 0.254D+00
 Coeff-Com:  0.706D-01-0.429D+00-0.365D+00 0.551D+00 0.100D+01
 Coeff:      0.154D-04-0.349D-04-0.449D-03 0.131D-03-0.145D-02-0.267D-02
 Coeff:      0.133D-01 0.490D-01-0.511D-01-0.101D+00 0.102D-01 0.254D+00
 Coeff:      0.706D-01-0.429D+00-0.365D+00 0.551D+00 0.100D+01
 Gap=     0.332 Goal=   None    Shift=    0.000
 Gap=     0.142 Goal=   None    Shift=    0.000
 RMSDP=1.09D-05 MaxDP=1.56D-03 DE=-6.24D-06 OVMax= 5.16D-03

 Cycle  18  Pass 1  IDiag  1:
 RMSU=  1.53D-06    CP:  1.00D+00  2.30D+00  6.28D-01  8.46D-03  8.88D-01
                    CP:  1.07D+00  3.00D+00  3.00D+00  3.00D+00  3.00D+00
                    CP:  3.00D+00  3.00D+00  3.00D+00  2.20D+00  2.15D+00
                    CP:  2.35D+00  1.71D+00
 E= -2831.32380260367     Delta-E=       -0.000003587214 Rises=F Damp=F
 DIIS: error= 9.31D-06 at cycle  18 NSaved=  18.
 NSaved=18 IEnMin=18 EnMin= -2831.32380260367     IErMin=18 ErrMin= 9.31D-06
 ErrMax= 9.31D-06  0.00D+00 EMaxC= 1.00D-01 BMatC= 4.48D-07 BMatP= 1.64D-06
 IDIUse=1 WtCom= 1.00D+00 WtEn= 0.00D+00
 Coeff-Com:  0.697D-04-0.922D-04-0.331D-03-0.587D-04-0.207D-02-0.217D-02
 Coeff-Com:  0.804D-02 0.322D-01-0.320D-01-0.729D-01 0.590D-02 0.135D+00
 Coeff-Com:  0.870D-01-0.172D+00-0.277D+00 0.796D-01 0.483D+00 0.728D+00
 Coeff:      0.697D-04-0.922D-04-0.331D-03-0.587D-04-0.207D-02-0.217D-02
 Coeff:      0.804D-02 0.322D-01-0.320D-01-0.729D-01 0.590D-02 0.135D+00
 Coeff:      0.870D-01-0.172D+00-0.277D+00 0.796D-01 0.483D+00 0.728D+00
 Gap=     0.331 Goal=   None    Shift=    0.000
 Gap=     0.142 Goal=   None    Shift=    0.000
 RMSDP=3.53D-06 MaxDP=4.41D-04 DE=-3.59D-06 OVMax= 1.65D-03

 Cycle  19  Pass 1  IDiag  1:
 RMSU=  5.79D-07    CP:  1.00D+00  2.30D+00  6.28D-01  7.14D-03  8.87D-01
                    CP:  1.07D+00  3.00D+00  3.00D+00  3.00D+00  3.00D+00
                    CP:  3.00D+00  3.00D+00  3.00D+00  2.30D+00  2.27D+00
                    CP:  2.50D+00  2.05D+00  1.42D+00
 E= -2831.32380317066     Delta-E=       -0.000000566994 Rises=F Damp=F
 DIIS: error= 4.38D-06 at cycle  19 NSaved=  19.
 NSaved=19 IEnMin=19 EnMin= -2831.32380317066     IErMin=19 ErrMin= 4.38D-06
 ErrMax= 4.38D-06  0.00D+00 EMaxC= 1.00D-01 BMatC= 5.66D-08 BMatP= 4.48D-07
 IDIUse=1 WtCom= 1.00D+00 WtEn= 0.00D+00
 Coeff-Com: -0.936D-04 0.131D-03-0.262D-04-0.645D-04 0.879D-04 0.111D-02
 Coeff-Com: -0.583D-03-0.536D-02 0.451D-02 0.173D-01 0.221D-02-0.313D-01
 Coeff-Com: -0.280D-01 0.713D-01 0.102D+00-0.156D+00-0.263D+00 0.137D+00
 Coeff-Com:  0.115D+01
 Coeff:     -0.936D-04 0.131D-03-0.262D-04-0.645D-04 0.879D-04 0.111D-02
 Coeff:     -0.583D-03-0.536D-02 0.451D-02 0.173D-01 0.221D-02-0.313D-01
 Coeff:     -0.280D-01 0.713D-01 0.102D+00-0.156D+00-0.263D+00 0.137D+00
 Coeff:      0.115D+01
 Gap=     0.331 Goal=   None    Shift=    0.000
 Gap=     0.142 Goal=   None    Shift=    0.000
 RMSDP=1.48D-06 MaxDP=2.02D-04 DE=-5.67D-07 OVMax= 6.60D-04

 Cycle  20  Pass 1  IDiag  1:
 RMSU=  7.41D-07    CP:  1.00D+00  2.30D+00  6.28D-01  6.80D-03  8.86D-01
                    CP:  1.07D+00  3.00D+00  3.00D+00  3.00D+00  3.00D+00
                    CP:  3.00D+00  3.00D+00  3.00D+00  2.30D+00  2.29D+00
                    CP:  2.58D+00  2.22D+00  1.69D+00  1.83D+00
 E= -2831.32380332938     Delta-E=       -0.000000158723 Rises=F Damp=F
 DIIS: error= 3.35D-06 at cycle  20 NSaved=  20.
 NSaved=20 IEnMin=20 EnMin= -2831.32380332938     IErMin=20 ErrMin= 3.35D-06
 ErrMax= 3.35D-06  0.00D+00 EMaxC= 1.00D-01 BMatC= 5.14D-08 BMatP= 5.66D-08
 IDIUse=1 WtCom= 1.00D+00 WtEn= 0.00D+00
 Coeff-Com: -0.129D-03 0.175D-03 0.438D-04 0.870D-05 0.848D-03 0.124D-02
 Coeff-Com: -0.215D-02-0.102D-01 0.897D-02 0.314D-01-0.526D-02-0.406D-01
 Coeff-Com: -0.615D-01 0.770D-01 0.157D+00-0.754D-01-0.293D+00-0.217D+00
 Coeff-Com:  0.538D+00 0.891D+00
 Coeff:     -0.129D-03 0.175D-03 0.438D-04 0.870D-05 0.848D-03 0.124D-02
 Coeff:     -0.215D-02-0.102D-01 0.897D-02 0.314D-01-0.526D-02-0.406D-01
 Coeff:     -0.615D-01 0.770D-01 0.157D+00-0.754D-01-0.293D+00-0.217D+00
 Coeff:      0.538D+00 0.891D+00
 Gap=     0.331 Goal=   None    Shift=    0.000
 Gap=     0.142 Goal=   None    Shift=    0.000
 RMSDP=9.68D-07 MaxDP=1.33D-04 DE=-1.59D-07 OVMax= 3.73D-04

 Cycle  21  Pass 1  IDiag  1:
 Restarting incremental Fock formation.
 E= -2831.32380340114     Delta-E=       -0.000000071754 Rises=F Damp=F
 DIIS: error= 2.52D-06 at cycle  21 NSaved=  20.
 NSaved=20 IEnMin=20 EnMin= -2831.32380340114     IErMin=20 ErrMin= 2.52D-06
 ErrMax= 2.52D-06  0.00D+00 EMaxC= 1.00D-01 BMatC= 3.44D-08 BMatP= 5.14D-08
 IDIUse=1 WtCom= 1.00D+00 WtEn= 0.00D+00
 Coeff-Com: -0.765D-05-0.396D-04 0.439D-04 0.121D-03-0.328D-03 0.169D-03
 Coeff-Com:  0.256D-02-0.328D-02-0.230D-02-0.674D-02 0.203D-01-0.175D-01
 Coeff-Com: -0.204D-01 0.499D-03 0.607D-01 0.482D-01-0.120D+00-0.341D+00
 Coeff-Com:  0.662D-01 0.131D+01
 Coeff:     -0.765D-05-0.396D-04 0.439D-04 0.121D-03-0.328D-03 0.169D-03
 Coeff:      0.256D-02-0.328D-02-0.230D-02-0.674D-02 0.203D-01-0.175D-01
 Coeff:     -0.204D-01 0.499D-03 0.607D-01 0.482D-01-0.120D+00-0.341D+00
 Coeff:      0.662D-01 0.131D+01
 Gap=     0.331 Goal=   None    Shift=    0.000
 Gap=     0.142 Goal=   None    Shift=    0.000
 RMSDP=1.20D-06 MaxDP=1.34D-04 DE=-7.18D-08 OVMax= 6.48D-04

 Cycle  22  Pass 1  IDiag  1:
 RMSU=  1.20D-06    CP:  1.00D+00
 E= -2831.32380345194     Delta-E=       -0.000000050799 Rises=F Damp=F
 DIIS: error= 9.90D-07 at cycle  22 NSaved=  20.
 NSaved=20 IEnMin=20 EnMin= -2831.32380345194     IErMin=20 ErrMin= 9.90D-07
 ErrMax= 9.90D-07  0.00D+00 EMaxC= 1.00D-01 BMatC= 3.20D-09 BMatP= 3.44D-08
 IDIUse=1 WtCom= 1.00D+00 WtEn= 0.00D+00
 Coeff-Com: -0.248D-04 0.484D-04-0.734D-04 0.841D-04 0.878D-03 0.240D-02
 Coeff-Com: -0.395D-02-0.630D-02 0.202D-02 0.186D-01 0.699D-02-0.386D-01
 Coeff-Com: -0.314D-01 0.450D-01 0.101D+00 0.447D-02-0.242D+00-0.282D+00
 Coeff-Com:  0.355D+00 0.107D+01
 Coeff:     -0.248D-04 0.484D-04-0.734D-04 0.841D-04 0.878D-03 0.240D-02
 Coeff:     -0.395D-02-0.630D-02 0.202D-02 0.186D-01 0.699D-02-0.386D-01
 Coeff:     -0.314D-01 0.450D-01 0.101D+00 0.447D-02-0.242D+00-0.282D+00
 Coeff:      0.355D+00 0.107D+01
 Gap=     0.331 Goal=   None    Shift=    0.000
 Gap=     0.142 Goal=   None    Shift=    0.000
 RMSDP=4.02D-07 MaxDP=4.74D-05 DE=-5.08D-08 OVMax= 1.11D-04

 Cycle  23  Pass 1  IDiag  1:
 RMSU=  3.26D-07    CP:  1.00D+00  1.20D+00
 E= -2831.32380346182     Delta-E=       -0.000000009879 Rises=F Damp=F
 DIIS: error= 7.25D-07 at cycle  23 NSaved=  20.
 NSaved=20 IEnMin=20 EnMin= -2831.32380346182     IErMin=20 ErrMin= 7.25D-07
 ErrMax= 7.25D-07  0.00D+00 EMaxC= 1.00D-01 BMatC= 2.58D-09 BMatP= 3.20D-09
 IDIUse=1 WtCom= 1.00D+00 WtEn= 0.00D+00
 Coeff-Com:  0.213D-04-0.645D-04 0.742D-04 0.417D-03 0.940D-03-0.117D-02
 Coeff-Com: -0.257D-02 0.280D-02 0.463D-02 0.663D-02-0.136D-01-0.901D-02
 Coeff-Com:  0.267D-03 0.249D-01 0.272D-01 0.205D-01-0.134D+00-0.290D+00
 Coeff-Com:  0.446D+00 0.917D+00
 Coeff:      0.213D-04-0.645D-04 0.742D-04 0.417D-03 0.940D-03-0.117D-02
 Coeff:     -0.257D-02 0.280D-02 0.463D-02 0.663D-02-0.136D-01-0.901D-02
 Coeff:      0.267D-03 0.249D-01 0.272D-01 0.205D-01-0.134D+00-0.290D+00
 Coeff:      0.446D+00 0.917D+00
 Gap=     0.331 Goal=   None    Shift=    0.000
 Gap=     0.142 Goal=   None    Shift=    0.000
 RMSDP=2.13D-07 MaxDP=2.34D-05 DE=-9.88D-09 OVMax= 6.55D-05

 Cycle  24  Pass 1  IDiag  1:
 RMSU=  5.12D-08    CP:  1.00D+00  1.31D+00  1.47D+00
 E= -2831.32380346463     Delta-E=       -0.000000002810 Rises=F Damp=F
 DIIS: error= 5.68D-07 at cycle  24 NSaved=  20.
 NSaved=20 IEnMin=20 EnMin= -2831.32380346463     IErMin=20 ErrMin= 5.68D-07
 ErrMax= 5.68D-07  0.00D+00 EMaxC= 1.00D-01 BMatC= 2.12D-09 BMatP= 2.58D-09
 IDIUse=1 WtCom= 1.00D+00 WtEn= 0.00D+00
 Coeff-Com: -0.527D-04-0.115D-03 0.870D-04 0.752D-03-0.242D-03-0.922D-03
 Coeff-Com:  0.108D-03 0.989D-03 0.652D-03 0.181D-02 0.188D-02-0.988D-02
 Coeff-Com: -0.122D-01 0.141D-01 0.770D-01-0.154D-02-0.236D+00-0.934D-01
 Coeff-Com:  0.369D+00 0.889D+00
 Coeff:     -0.527D-04-0.115D-03 0.870D-04 0.752D-03-0.242D-03-0.922D-03
 Coeff:      0.108D-03 0.989D-03 0.652D-03 0.181D-02 0.188D-02-0.988D-02
 Coeff:     -0.122D-01 0.141D-01 0.770D-01-0.154D-02-0.236D+00-0.934D-01
 Coeff:      0.369D+00 0.889D+00
 Gap=     0.331 Goal=   None    Shift=    0.000
 Gap=     0.142 Goal=   None    Shift=    0.000
 RMSDP=1.45D-07 MaxDP=1.39D-05 DE=-2.81D-09 OVMax= 6.51D-05

 Cycle  25  Pass 1  IDiag  1:
 RMSU=  3.67D-08    CP:  1.00D+00  1.42D+00  1.58D+00  1.81D+00
 E= -2831.32380346582     Delta-E=       -0.000000001190 Rises=F Damp=F
 DIIS: error= 2.69D-07 at cycle  25 NSaved=  20.
 NSaved=20 IEnMin=20 EnMin= -2831.32380346582     IErMin=20 ErrMin= 2.69D-07
 ErrMax= 2.69D-07  0.00D+00 EMaxC= 1.00D-01 BMatC= 3.07D-10 BMatP= 2.12D-09
 IDIUse=1 WtCom= 1.00D+00 WtEn= 0.00D+00
 Coeff-Com: -0.712D-04-0.205D-04 0.334D-03-0.103D-03 0.924D-04-0.843D-03
 Coeff-Com:  0.956D-03-0.236D-02 0.173D-02 0.259D-02 0.424D-03-0.677D-02
 Coeff-Com: -0.394D-02 0.892D-02 0.163D-01 0.345D-01-0.657D-01-0.196D+00
 Coeff-Com: -0.481D-01 0.126D+01
 Coeff:     -0.712D-04-0.205D-04 0.334D-03-0.103D-03 0.924D-04-0.843D-03
 Coeff:      0.956D-03-0.236D-02 0.173D-02 0.259D-02 0.424D-03-0.677D-02
 Coeff:     -0.394D-02 0.892D-02 0.163D-01 0.345D-01-0.657D-01-0.196D+00
 Coeff:     -0.481D-01 0.126D+01
 Gap=     0.331 Goal=   None    Shift=    0.000
 Gap=     0.142 Goal=   None    Shift=    0.000
 RMSDP=6.09D-08 MaxDP=7.94D-06 DE=-1.19D-09 OVMax= 2.21D-05

 Cycle  26  Pass 1  IDiag  1:
 RMSU=  1.92D-08    CP:  1.00D+00  1.44D+00  1.64D+00  2.47D+00  1.71D+00
 E= -2831.32380346631     Delta-E=       -0.000000000493 Rises=F Damp=F
 DIIS: error= 1.81D-07 at cycle  26 NSaved=  20.
 NSaved=20 IEnMin=20 EnMin= -2831.32380346631     IErMin=20 ErrMin= 1.81D-07
 ErrMax= 1.81D-07  0.00D+00 EMaxC= 1.00D-01 BMatC= 6.14D-11 BMatP= 3.07D-10
 IDIUse=1 WtCom= 1.00D+00 WtEn= 0.00D+00
 Coeff-Com:  0.371D-04 0.163D-03-0.135D-03-0.118D-03-0.100D-03 0.780D-03
 Coeff-Com: -0.544D-03-0.132D-02 0.381D-03 0.282D-02 0.163D-02-0.400D-02
 Coeff-Com: -0.126D-01 0.283D-02 0.593D-01 0.351D-01-0.146D+00-0.339D+00
 Coeff-Com:  0.341D+00 0.106D+01
 Coeff:      0.371D-04 0.163D-03-0.135D-03-0.118D-03-0.100D-03 0.780D-03
 Coeff:     -0.544D-03-0.132D-02 0.381D-03 0.282D-02 0.163D-02-0.400D-02
 Coeff:     -0.126D-01 0.283D-02 0.593D-01 0.351D-01-0.146D+00-0.339D+00
 Coeff:      0.341D+00 0.106D+01
 Gap=     0.331 Goal=   None    Shift=    0.000
 Gap=     0.142 Goal=   None    Shift=    0.000
 RMSDP=3.93D-08 MaxDP=6.01D-06 DE=-4.93D-10 OVMax= 1.69D-05

 Cycle  27  Pass 1  IDiag  1:
 RMSU=  9.42D-09    CP:  1.00D+00  1.43D+00  1.69D+00  2.90D+00  2.22D+00
                    CP:  1.80D+00
 E= -2831.32380346645     Delta-E=       -0.000000000142 Rises=F Damp=F
 DIIS: error= 1.30D-07 at cycle  27 NSaved=  20.
 NSaved=20 IEnMin=20 EnMin= -2831.32380346645     IErMin=20 ErrMin= 1.30D-07
 ErrMax= 1.30D-07  0.00D+00 EMaxC= 1.00D-01 BMatC= 4.09D-11 BMatP= 6.14D-11
 IDIUse=1 WtCom= 1.00D+00 WtEn= 0.00D+00
 Coeff-Com:  0.271D-04-0.741D-04-0.168D-03 0.737D-05 0.323D-03 0.271D-03
 Coeff-Com: -0.128D-02-0.947D-03 0.229D-02 0.372D-02-0.200D-02-0.155D-01
 Coeff-Com: -0.151D-02 0.330D-01 0.227D-01-0.254D-01-0.132D+00-0.272D+00
 Coeff-Com:  0.424D+00 0.964D+00
 Coeff:      0.271D-04-0.741D-04-0.168D-03 0.737D-05 0.323D-03 0.271D-03
 Coeff:     -0.128D-02-0.947D-03 0.229D-02 0.372D-02-0.200D-02-0.155D-01
 Coeff:     -0.151D-02 0.330D-01 0.227D-01-0.254D-01-0.132D+00-0.272D+00
 Coeff:      0.424D+00 0.964D+00
 Gap=     0.331 Goal=   None    Shift=    0.000
 Gap=     0.142 Goal=   None    Shift=    0.000
 RMSDP=4.10D-08 MaxDP=4.77D-06 DE=-1.42D-10 OVMax= 2.17D-05

 Cycle  28  Pass 1  IDiag  1:
 RMSU=  1.27D-08    CP:  1.00D+00  1.46D+00  1.67D+00  3.00D+00  2.65D+00
                    CP:  2.46D+00  1.50D+00
 E= -2831.32380346630     Delta-E=        0.000000000155 Rises=F Damp=F
 DIIS: error= 5.54D-08 at cycle  28 NSaved=  20.
 NSaved=20 IEnMin=19 EnMin= -2831.32380346645     IErMin=20 ErrMin= 5.54D-08
 ErrMax= 5.54D-08  0.00D+00 EMaxC= 1.00D-01 BMatC= 1.40D-11 BMatP= 4.09D-11
 IDIUse=1 WtCom= 1.00D+00 WtEn= 0.00D+00
 Coeff-Com: -0.176D-04-0.112D-03 0.618D-04-0.175D-04 0.671D-03-0.402D-03
 Coeff-Com: -0.948D-03 0.966D-04 0.117D-02 0.154D-02-0.255D-02-0.273D-02
 Coeff-Com: -0.995D-02-0.655D-03 0.447D-01 0.700D-01-0.238D+00-0.259D+00
 Coeff-Com:  0.363D+00 0.103D+01
 Coeff:     -0.176D-04-0.112D-03 0.618D-04-0.175D-04 0.671D-03-0.402D-03
 Coeff:     -0.948D-03 0.966D-04 0.117D-02 0.154D-02-0.255D-02-0.273D-02
 Coeff:     -0.995D-02-0.655D-03 0.447D-01 0.700D-01-0.238D+00-0.259D+00
 Coeff:      0.363D+00 0.103D+01
 Gap=     0.331 Goal=   None    Shift=    0.000
 Gap=     0.142 Goal=   None    Shift=    0.000
 RMSDP=1.85D-08 MaxDP=2.45D-06 DE= 1.55D-10 OVMax= 7.22D-06

 Cycle  29  Pass 1  IDiag  1:
 RMSU=  3.80D-09    CP:  1.00D+00  1.46D+00  1.69D+00  3.00D+00  2.86D+00
                    CP:  3.00D+00  2.06D+00  1.69D+00
 E= -2831.32380346644     Delta-E=       -0.000000000142 Rises=F Damp=F
 DIIS: error= 2.98D-08 at cycle  29 NSaved=  20.
 NSaved=20 IEnMin=18 EnMin= -2831.32380346645     IErMin=20 ErrMin= 2.98D-08
 ErrMax= 2.98D-08  0.00D+00 EMaxC= 1.00D-01 BMatC= 4.04D-12 BMatP= 1.40D-11
 IDIUse=1 WtCom= 1.00D+00 WtEn= 0.00D+00
 Coeff-Com: -0.148D-04-0.104D-04-0.935D-04 0.272D-03 0.181D-03-0.335D-03
 Coeff-Com: -0.321D-03-0.379D-03 0.145D-02 0.119D-02-0.676D-03-0.801D-02
 Coeff-Com: -0.441D-02 0.195D-01 0.507D-01-0.482D-01-0.170D+00 0.323D-02
 Coeff-Com:  0.390D+00 0.765D+00
 Coeff:     -0.148D-04-0.104D-04-0.935D-04 0.272D-03 0.181D-03-0.335D-03
 Coeff:     -0.321D-03-0.379D-03 0.145D-02 0.119D-02-0.676D-03-0.801D-02
 Coeff:     -0.441D-02 0.195D-01 0.507D-01-0.482D-01-0.170D+00 0.323D-02
 Coeff:      0.390D+00 0.765D+00
 Gap=     0.331 Goal=   None    Shift=    0.000
 Gap=     0.142 Goal=   None    Shift=    0.000
 RMSDP=4.11D-09 MaxDP=3.91D-07 DE=-1.42D-10 OVMax= 1.38D-06

 Error on total polarization charges =  0.00096
 SCF Done:  E(UCAM-B3LYP) =  -2831.32380347     A.U. after   29 cycles
            NFock= 29  Conv=0.41D-08     -V/T= 2.0074
 <Sx>= 0.0000 <Sy>= 0.0000 <Sz>= 0.5000 <S**2>= 0.7707 S= 0.5103
 <L.S>= 0.000000000000E+00
 KE= 2.810503434003D+03 PE=-1.799098023511D+04 EE= 6.681303225193D+03
 Annihilation of the first spin contaminant:
 S**2 before annihilation     0.7707,   after     0.7503
 Leave Link  502 at Sun Mar  3 17:32:02 2024, MaxMem=  5368709120 cpu:      2872.1
 (Enter /home/k0335/k033513/app/g09/l601.exe)
 Copying SCF densities to generalized density rwf, IOpCl= 1 IROHF=0.

 **********************************************************************

            Population analysis using the SCF density.

 **********************************************************************

 Alpha  occ. eigenvalues --  -24.87661 -24.87457 -24.87301 -24.87110 -24.87049
 Alpha  occ. eigenvalues --  -24.87002 -24.86608 -24.86493 -24.86330 -24.86205
 Alpha  occ. eigenvalues --  -24.86029 -24.85810 -24.85773 -24.85712 -24.85627
 Alpha  occ. eigenvalues --  -24.85481 -24.85410 -24.84877 -19.51009 -19.37362
 Alpha  occ. eigenvalues --  -19.37041 -19.36506 -19.36289 -19.31173 -14.75015
 Alpha  occ. eigenvalues --  -14.61880 -14.60974 -10.62261 -10.62130 -10.58619
 Alpha  occ. eigenvalues --  -10.58499 -10.58281 -10.58014 -10.57689 -10.57135
 Alpha  occ. eigenvalues --  -10.53864 -10.53023 -10.52782  -1.46032  -1.45930
 Alpha  occ. eigenvalues --   -1.44793  -1.44411  -1.43610  -1.43439  -1.41393
 Alpha  occ. eigenvalues --   -1.39390  -1.38845  -1.36742  -1.36501  -1.36331
 Alpha  occ. eigenvalues --   -1.35996  -1.35906  -1.35656  -1.35386  -1.35003
 Alpha  occ. eigenvalues --   -1.34927  -1.34295  -1.30769  -1.29445  -1.26108
 Alpha  occ. eigenvalues --   -1.23784  -1.23651  -1.20367  -1.17074  -1.14819
 Alpha  occ. eigenvalues --   -0.97916  -0.97333  -0.94970  -0.91690  -0.89217
 Alpha  occ. eigenvalues --   -0.86791  -0.85488  -0.85333  -0.84306  -0.82292
 Alpha  occ. eigenvalues --   -0.79665  -0.78852  -0.77503  -0.76985  -0.76174
 Alpha  occ. eigenvalues --   -0.75959  -0.74857  -0.74625  -0.74030  -0.73251
 Alpha  occ. eigenvalues --   -0.72764  -0.72455  -0.72121  -0.71552  -0.71143
 Alpha  occ. eigenvalues --   -0.70899  -0.69931  -0.69895  -0.69295  -0.68167
 Alpha  occ. eigenvalues --   -0.67519  -0.67389  -0.66736  -0.65957  -0.64895
 Alpha  occ. eigenvalues --   -0.63437  -0.62503  -0.62021  -0.61649  -0.60886
 Alpha  occ. eigenvalues --   -0.60536  -0.60470  -0.60160  -0.59885  -0.59590
 Alpha  occ. eigenvalues --   -0.59525  -0.59149  -0.58810  -0.58269  -0.58188
 Alpha  occ. eigenvalues --   -0.58085  -0.57960  -0.57860  -0.57067  -0.56990
 Alpha  occ. eigenvalues --   -0.56637  -0.56177  -0.55935  -0.55391  -0.55249
 Alpha  occ. eigenvalues --   -0.55172  -0.54423  -0.54308  -0.53821  -0.53671
 Alpha  occ. eigenvalues --   -0.53432  -0.53347  -0.52922  -0.52593  -0.52491
 Alpha  occ. eigenvalues --   -0.52333  -0.52069  -0.51906  -0.51748  -0.51451
 Alpha  occ. eigenvalues --   -0.51218  -0.51053  -0.50857  -0.49968  -0.49331
 Alpha  occ. eigenvalues --   -0.47567  -0.46057  -0.45163  -0.43995
 Alpha virt. eigenvalues --   -0.10852  -0.08323  -0.07263  -0.00536   0.00936
 Alpha virt. eigenvalues --    0.01937   0.02979   0.05891   0.06075   0.08508
 Alpha virt. eigenvalues --    0.10791   0.11854   0.12198   0.14814   0.15352
 Alpha virt. eigenvalues --    0.15619   0.15894   0.16680   0.17465   0.17936
 Alpha virt. eigenvalues --    0.18626   0.18882   0.20290   0.20479   0.20723
 Alpha virt. eigenvalues --    0.21224   0.21508   0.22272   0.23009   0.23828
 Alpha virt. eigenvalues --    0.24255   0.25733   0.26730   0.26932   0.28575
 Alpha virt. eigenvalues --    0.29109   0.29456   0.30021   0.30718   0.31080
 Alpha virt. eigenvalues --    0.33934   0.38965   0.40903   0.42407   0.44621
 Alpha virt. eigenvalues --    0.45006   0.45692   0.46440   0.46612   0.47668
 Alpha virt. eigenvalues --    0.48199   0.49194   0.49496   0.50547   0.50980
 Alpha virt. eigenvalues --    0.51053   0.52256   0.52725   0.53011   0.53406
 Alpha virt. eigenvalues --    0.53702   0.55030   0.55294   0.56602   0.57306
 Alpha virt. eigenvalues --    0.57793   0.58617   0.59839   0.62209   0.63416
 Alpha virt. eigenvalues --    0.63861   0.64672   0.65646   0.66676   0.68654
 Alpha virt. eigenvalues --    0.70450   0.72099   0.73336   0.74679   0.76217
 Alpha virt. eigenvalues --    0.76622   0.77342   0.77560   0.79476   0.81116
 Alpha virt. eigenvalues --    0.82546   0.83715   0.84904   0.87530   0.88167
 Alpha virt. eigenvalues --    0.88660   0.90228   0.90940   0.92839   0.93057
 Alpha virt. eigenvalues --    0.93636   0.94900   0.95814   0.96279   0.97913
 Alpha virt. eigenvalues --    0.99162   1.00109   1.00269   1.02646   1.03955
 Alpha virt. eigenvalues --    1.04411   1.05467   1.05916   1.06329   1.06905
 Alpha virt. eigenvalues --    1.07419   1.07679   1.08762   1.09949   1.10556
 Alpha virt. eigenvalues --    1.11429   1.12260   1.12658   1.13326   1.13735
 Alpha virt. eigenvalues --    1.14029   1.14741   1.15514   1.16148   1.16986
 Alpha virt. eigenvalues --    1.17731   1.18482   1.18917   1.19637   1.20331
 Alpha virt. eigenvalues --    1.21202   1.22224   1.23456   1.24617   1.25032
 Alpha virt. eigenvalues --    1.26289   1.26849   1.26953   1.28274   1.28531
 Alpha virt. eigenvalues --    1.29397   1.29640   1.29832   1.30503   1.31268
 Alpha virt. eigenvalues --    1.31643   1.31858   1.32356   1.33011   1.33323
 Alpha virt. eigenvalues --    1.33911   1.34800   1.35354   1.36402   1.36804
 Alpha virt. eigenvalues --    1.37457   1.37779   1.38102   1.38451   1.38702
 Alpha virt. eigenvalues --    1.39245   1.39851   1.40243   1.40273   1.42090
 Alpha virt. eigenvalues --    1.42792   1.43205   1.43745   1.44151   1.44370
 Alpha virt. eigenvalues --    1.45898   1.46699   1.47594   1.48028   1.48141
 Alpha virt. eigenvalues --    1.49068   1.50067   1.50651   1.51259   1.51963
 Alpha virt. eigenvalues --    1.52077   1.53139   1.54084   1.55237   1.55864
 Alpha virt. eigenvalues --    1.56610   1.57267   1.58325   1.59140   1.59836
 Alpha virt. eigenvalues --    1.60594   1.61322   1.62799   1.63392   1.63813
 Alpha virt. eigenvalues --    1.64238   1.65708   1.67188   1.67883   1.68549
 Alpha virt. eigenvalues --    1.69304   1.69992   1.70105   1.70598   1.71343
 Alpha virt. eigenvalues --    1.71708   1.72501   1.73282   1.73693   1.74248
 Alpha virt. eigenvalues --    1.74575   1.75897   1.76187   1.76638   1.77711
 Alpha virt. eigenvalues --    1.78650   1.79183   1.79808   1.80044   1.80634
 Alpha virt. eigenvalues --    1.81217   1.81860   1.81933   1.82238   1.83254
 Alpha virt. eigenvalues --    1.83814   1.84273   1.84558   1.85177   1.85214
 Alpha virt. eigenvalues --    1.85739   1.85814   1.86365   1.86866   1.87704
 Alpha virt. eigenvalues --    1.88091   1.88376   1.88950   1.89945   1.90508
 Alpha virt. eigenvalues --    1.90700   1.91155   1.91907   1.92104   1.92129
 Alpha virt. eigenvalues --    1.92781   1.93463   1.94005   1.94838   1.95557
 Alpha virt. eigenvalues --    1.97053   1.97463   1.97704   1.98335   1.98520
 Alpha virt. eigenvalues --    1.99265   1.99752   2.00077   2.00530   2.01001
 Alpha virt. eigenvalues --    2.01361   2.01612   2.01897   2.02182   2.02688
 Alpha virt. eigenvalues --    2.03314   2.03549   2.04795   2.05296   2.05456
 Alpha virt. eigenvalues --    2.06187   2.06750   2.06884   2.07374   2.08136
 Alpha virt. eigenvalues --    2.09130   2.09999   2.10106   2.11015   2.11243
 Alpha virt. eigenvalues --    2.11425   2.13097   2.13347   2.13980   2.14480
 Alpha virt. eigenvalues --    2.15033   2.16052   2.16257   2.18165   2.18993
 Alpha virt. eigenvalues --    2.19916   2.20074   2.21035   2.22124   2.22797
 Alpha virt. eigenvalues --    2.23706   2.24440   2.25941   2.26510   2.27559
 Alpha virt. eigenvalues --    2.28510   2.30150   2.31807   2.32369   2.33593
 Alpha virt. eigenvalues --    2.34430   2.37316   2.38065   2.38769   2.39580
 Alpha virt. eigenvalues --    2.40730   2.41630   2.42232   2.42780   2.44045
 Alpha virt. eigenvalues --    2.45087   2.45831   2.46652   2.48589   2.49600
 Alpha virt. eigenvalues --    2.50563   2.51434   2.52834   2.54644   2.55321
 Alpha virt. eigenvalues --    2.56074   2.56824   2.58222   2.60095   2.61048
 Alpha virt. eigenvalues --    2.61540   2.63595   2.64358   2.66064   2.67139
 Alpha virt. eigenvalues --    2.67885   2.68701   2.71113   2.72507   2.74393
 Alpha virt. eigenvalues --    2.75172   2.75855   2.77508   2.79460   2.81697
 Alpha virt. eigenvalues --    2.82322   2.82990   2.84157   2.84678   2.85148
 Alpha virt. eigenvalues --    2.86183   2.87061   2.87815   2.89091   2.89524
 Alpha virt. eigenvalues --    2.89738   2.91187   2.92503   2.94235   2.94754
 Alpha virt. eigenvalues --    2.95812   2.97053   2.98192   3.03195   3.03829
 Alpha virt. eigenvalues --    3.04272   3.04572   3.04909   3.05770   3.08466
 Alpha virt. eigenvalues --    3.09684   3.10241   3.10801   3.12835   3.13482
 Alpha virt. eigenvalues --    3.15486   3.15764   3.17986   3.19526   3.22859
 Alpha virt. eigenvalues --    3.25341   3.27413   3.30656   3.32204   3.32456
 Alpha virt. eigenvalues --    3.34042   3.37574   3.43972   3.72289   3.93395
 Alpha virt. eigenvalues --    4.01915   4.06651   4.12777   4.17245   4.22769
 Alpha virt. eigenvalues --    4.24124   4.26997   4.29515   4.35696   4.36275
 Alpha virt. eigenvalues --    4.41315   4.43455   4.44149   4.53686   4.59581
 Alpha virt. eigenvalues --    4.60798   4.66220   4.70262   4.72605   4.77491
 Alpha virt. eigenvalues --    4.93551   4.98849   4.99927   5.04512   5.09521
 Alpha virt. eigenvalues --    5.17564   5.36838   5.43735   5.53274   5.60943
 Alpha virt. eigenvalues --    5.71166   5.75200   6.16844   6.30480   6.61887
 Alpha virt. eigenvalues --    6.64772
  Beta  occ. eigenvalues --  -24.87653 -24.87457 -24.87299 -24.87110 -24.87049
  Beta  occ. eigenvalues --  -24.86997 -24.86608 -24.86493 -24.86330 -24.86205
  Beta  occ. eigenvalues --  -24.86029 -24.85810 -24.85773 -24.85712 -24.85627
  Beta  occ. eigenvalues --  -24.85481 -24.85409 -24.84877 -19.50001 -19.36966
  Beta  occ. eigenvalues --  -19.36503 -19.36490 -19.36287 -19.31132 -14.73874
  Beta  occ. eigenvalues --  -14.61866 -14.60989 -10.62261 -10.62131 -10.58620
  Beta  occ. eigenvalues --  -10.58499 -10.58281 -10.58014 -10.57853 -10.57332
  Beta  occ. eigenvalues --  -10.53882 -10.53022 -10.52782  -1.46031  -1.45928
  Beta  occ. eigenvalues --   -1.44792  -1.44406  -1.43590  -1.43431  -1.39585
  Beta  occ. eigenvalues --   -1.39343  -1.38843  -1.36736  -1.36497  -1.36327
  Beta  occ. eigenvalues --   -1.35990  -1.35901  -1.35655  -1.35386  -1.35003
  Beta  occ. eigenvalues --   -1.34927  -1.34294  -1.30074  -1.28772  -1.25568
  Beta  occ. eigenvalues --   -1.23771  -1.23646  -1.19365  -1.16886  -1.13358
  Beta  occ. eigenvalues --   -0.97826  -0.97231  -0.94617  -0.91655  -0.88846
  Beta  occ. eigenvalues --   -0.86625  -0.85481  -0.85332  -0.84288  -0.81937
  Beta  occ. eigenvalues --   -0.79472  -0.78677  -0.77028  -0.76943  -0.75947
  Beta  occ. eigenvalues --   -0.75264  -0.74689  -0.74048  -0.73234  -0.72979
  Beta  occ. eigenvalues --   -0.72584  -0.72277  -0.71898  -0.71550  -0.71088
  Beta  occ. eigenvalues --   -0.70873  -0.69871  -0.69787  -0.69177  -0.67992
  Beta  occ. eigenvalues --   -0.67360  -0.66718  -0.66202  -0.64525  -0.63804
  Beta  occ. eigenvalues --   -0.62769  -0.62347  -0.61886  -0.61470  -0.60620
  Beta  occ. eigenvalues --   -0.60424  -0.60190  -0.59852  -0.59691  -0.59519
  Beta  occ. eigenvalues --   -0.59103  -0.58792  -0.58539  -0.58254  -0.58159
  Beta  occ. eigenvalues --   -0.57923  -0.57875  -0.57204  -0.57003  -0.56643
  Beta  occ. eigenvalues --   -0.56361  -0.56134  -0.55596  -0.55253  -0.55161
  Beta  occ. eigenvalues --   -0.54825  -0.54330  -0.54240  -0.53809  -0.53620
  Beta  occ. eigenvalues --   -0.53370  -0.53311  -0.52651  -0.52528  -0.52445
  Beta  occ. eigenvalues --   -0.52064  -0.51921  -0.51777  -0.51284  -0.51217
  Beta  occ. eigenvalues --   -0.51003  -0.50472  -0.48983  -0.48766  -0.47383
  Beta  occ. eigenvalues --   -0.45765  -0.44637  -0.43866
  Beta virt. eigenvalues --   -0.29668  -0.09782  -0.06979  -0.05894   0.00080
  Beta virt. eigenvalues --    0.01015   0.01950   0.03169   0.06118   0.06291
  Beta virt. eigenvalues --    0.08555   0.10906   0.12093   0.12303   0.14831
  Beta virt. eigenvalues --    0.15423   0.15674   0.15955   0.16706   0.17476
  Beta virt. eigenvalues --    0.17968   0.18631   0.18892   0.20301   0.20482
  Beta virt. eigenvalues --    0.20726   0.21229   0.21517   0.22272   0.23016
  Beta virt. eigenvalues --    0.23833   0.24319   0.25748   0.26756   0.26967
  Beta virt. eigenvalues --    0.28657   0.29161   0.29504   0.30059   0.30794
  Beta virt. eigenvalues --    0.31083   0.34068   0.38899   0.40979   0.42488
  Beta virt. eigenvalues --    0.44754   0.45008   0.45702   0.46487   0.46665
  Beta virt. eigenvalues --    0.47846   0.48307   0.49234   0.49517   0.50568
  Beta virt. eigenvalues --    0.51002   0.51115   0.52285   0.52788   0.53034
  Beta virt. eigenvalues --    0.53408   0.53724   0.55022   0.55369   0.56657
  Beta virt. eigenvalues --    0.57365   0.57795   0.58734   0.59946   0.62246
  Beta virt. eigenvalues --    0.63465   0.64254   0.64715   0.65866   0.67460
  Beta virt. eigenvalues --    0.68873   0.70635   0.72142   0.73794   0.75004
  Beta virt. eigenvalues --    0.76377   0.76979   0.77528   0.78071   0.79740
  Beta virt. eigenvalues --    0.81730   0.82913   0.83913   0.85578   0.87760
  Beta virt. eigenvalues --    0.88912   0.89082   0.90557   0.91063   0.93012
  Beta virt. eigenvalues --    0.93195   0.93833   0.95129   0.96189   0.96430
  Beta virt. eigenvalues --    0.98114   0.99439   1.00308   1.00478   1.02749
  Beta virt. eigenvalues --    1.04143   1.04558   1.05592   1.05953   1.06405
  Beta virt. eigenvalues --    1.07140   1.07535   1.07833   1.08947   1.10075
  Beta virt. eigenvalues --    1.10643   1.11522   1.12281   1.12726   1.13375
  Beta virt. eigenvalues --    1.13774   1.14116   1.14960   1.15647   1.16298
  Beta virt. eigenvalues --    1.17110   1.17944   1.18500   1.19084   1.19767
  Beta virt. eigenvalues --    1.20414   1.21501   1.22319   1.23782   1.24689
  Beta virt. eigenvalues --    1.25097   1.26423   1.26932   1.27017   1.28339
  Beta virt. eigenvalues --    1.28685   1.29423   1.29832   1.29913   1.30561
  Beta virt. eigenvalues --    1.31329   1.31692   1.31883   1.32403   1.33056
  Beta virt. eigenvalues --    1.33400   1.34101   1.34917   1.35407   1.36473
  Beta virt. eigenvalues --    1.36889   1.37506   1.37819   1.38139   1.38516
  Beta virt. eigenvalues --    1.38747   1.39278   1.39889   1.40306   1.40355
  Beta virt. eigenvalues --    1.42206   1.42967   1.43228   1.43955   1.44293
  Beta virt. eigenvalues --    1.44590   1.45934   1.46865   1.47876   1.48188
  Beta virt. eigenvalues --    1.48558   1.49473   1.50240   1.50724   1.51329
  Beta virt. eigenvalues --    1.52028   1.52102   1.53171   1.54265   1.55489
  Beta virt. eigenvalues --    1.55987   1.56766   1.57314   1.58356   1.59175
  Beta virt. eigenvalues --    1.59881   1.60676   1.61392   1.62890   1.63423
  Beta virt. eigenvalues --    1.63899   1.64330   1.65929   1.67425   1.68033
  Beta virt. eigenvalues --    1.68817   1.69367   1.70094   1.70123   1.70718
  Beta virt. eigenvalues --    1.71473   1.71888   1.72614   1.73410   1.73884
  Beta virt. eigenvalues --    1.74339   1.74815   1.76150   1.76295   1.76948
  Beta virt. eigenvalues --    1.77816   1.78743   1.79337   1.79875   1.80276
  Beta virt. eigenvalues --    1.80719   1.81399   1.81956   1.82130   1.82375
  Beta virt. eigenvalues --    1.83379   1.83865   1.84367   1.84724   1.85264
  Beta virt. eigenvalues --    1.85593   1.85952   1.86135   1.86564   1.86941
  Beta virt. eigenvalues --    1.87781   1.88177   1.88547   1.89058   1.89966
  Beta virt. eigenvalues --    1.90648   1.90847   1.91323   1.91940   1.92142
  Beta virt. eigenvalues --    1.92257   1.92810   1.93507   1.94189   1.94879
  Beta virt. eigenvalues --    1.95681   1.97148   1.97501   1.97745   1.98385
  Beta virt. eigenvalues --    1.98595   1.99272   1.99776   2.00090   2.00535
  Beta virt. eigenvalues --    2.01032   2.01375   2.01641   2.01909   2.02190
  Beta virt. eigenvalues --    2.02723   2.03317   2.03595   2.04800   2.05336
  Beta virt. eigenvalues --    2.05537   2.06247   2.06801   2.06888   2.07512
  Beta virt. eigenvalues --    2.08124   2.09169   2.10081   2.10178   2.11065
  Beta virt. eigenvalues --    2.11316   2.11463   2.13128   2.13494   2.14038
  Beta virt. eigenvalues --    2.14604   2.15867   2.16071   2.16861   2.18220
  Beta virt. eigenvalues --    2.19014   2.19988   2.20474   2.21165   2.22151
  Beta virt. eigenvalues --    2.22878   2.23774   2.24504   2.26029   2.26522
  Beta virt. eigenvalues --    2.27615   2.28762   2.30357   2.31843   2.32400
  Beta virt. eigenvalues --    2.33606   2.34489   2.37412   2.38110   2.38992
  Beta virt. eigenvalues --    2.39605   2.40963   2.41677   2.42337   2.42794
  Beta virt. eigenvalues --    2.44105   2.45212   2.45887   2.46797   2.48625
  Beta virt. eigenvalues --    2.49819   2.50730   2.51512   2.52888   2.54696
  Beta virt. eigenvalues --    2.55337   2.56433   2.56871   2.58437   2.60267
  Beta virt. eigenvalues --    2.61120   2.61721   2.63824   2.64466   2.66134
  Beta virt. eigenvalues --    2.67275   2.68055   2.68867   2.71156   2.72521
  Beta virt. eigenvalues --    2.74655   2.75377   2.76017   2.78080   2.79560
  Beta virt. eigenvalues --    2.81749   2.82363   2.83213   2.84337   2.84711
  Beta virt. eigenvalues --    2.85220   2.86286   2.87147   2.87904   2.89139
[...]
     6  O(17)              0.01644      -9.96337      -3.55518      -3.32342
     7  N(14)             -0.00017      -0.05386      -0.01922      -0.01796
     8  C(13)             -0.00067      -0.75844      -0.27063      -0.25299
     9  F(19)             -0.00011      -0.47189      -0.16838      -0.15741
    10  F(19)              0.00077       3.25761       1.16240       1.08662
    11  C(13)             -0.00019      -0.21828      -0.07789      -0.07281
    12  F(19)              0.00058       2.42510       0.86533       0.80893
    13  O(17)             -0.00001       0.00447       0.00160       0.00149
    14  C(13)             -0.00001      -0.01552      -0.00554      -0.00518
    15  F(19)             -0.00003      -0.12045      -0.04298      -0.04018
    16  F(19)             -0.00001      -0.02259      -0.00806      -0.00754
    17  F(19)             -0.00001      -0.02840      -0.01013      -0.00947
    18  C(13)             -0.00003      -0.03539      -0.01263      -0.01181
    19  F(19)             -0.00005      -0.19873      -0.07091      -0.06629
    20  F(19)             -0.00001      -0.02614      -0.00933      -0.00872
    21  F(19)              0.00001       0.02640       0.00942       0.00881
    22  C(13)             -0.00263      -2.96081      -1.05649      -0.98762
    23  O(17)              0.00159      -0.96249      -0.34344      -0.32105
    24  N(14)             -0.00569      -1.83754      -0.65568      -0.61294
    25  C(13)             -0.00046      -0.51397      -0.18340      -0.17144
    26  F(19)              0.00199       8.38338       2.99140       2.79639
    27  F(19)             -0.00019      -0.81664      -0.29140      -0.27240
    28  C(13)             -0.00042      -0.47651      -0.17003      -0.15895
    29  F(19)              0.00004       0.16753       0.05978       0.05588
    30  O(17)              0.00049      -0.29664      -0.10585      -0.09895
    31  C(13)             -0.00002      -0.02439      -0.00870      -0.00813
    32  F(19)              0.00001       0.05375       0.01918       0.01793
    33  F(19)             -0.00001      -0.02565      -0.00915      -0.00856
    34  F(19)              0.00000      -0.01922      -0.00686      -0.00641
    35  C(13)             -0.00012      -0.13240      -0.04724      -0.04416
    36  F(19)             -0.00003      -0.11716      -0.04181      -0.03908
    37  F(19)              0.00000      -0.01960      -0.00699      -0.00654
    38  F(19)              0.00001       0.03168       0.01130       0.01057
    39  H(1)              -0.00469     -20.96928      -7.48236      -6.99460
 --------------------------------------------------------
       Center         ----  Spin Dipole Couplings  ----
                      3XX-RR        3YY-RR        3ZZ-RR
 --------------------------------------------------------
     1   Atom       -0.294499      0.169582      0.124918
     2   Atom        0.084237     -0.084870      0.000633
     3   Atom       -0.562575      0.664634     -0.102059
     4   Atom       -0.611530      0.840069     -0.228539
     5   Atom        0.063079     -0.048174     -0.014905
     6   Atom       -0.251572      0.245706      0.005866
     7   Atom       -0.004875     -0.000348      0.005223
     8   Atom       -0.000028     -0.000204      0.000232
     9   Atom       -0.000515      0.000269      0.000246
    10   Atom        0.008095      0.001573     -0.009668
    11   Atom        0.000765     -0.000919      0.000154
    12   Atom        0.001870     -0.003981      0.002110
    13   Atom        0.000745     -0.000177     -0.000569
    14   Atom        0.000429     -0.000255     -0.000174
    15   Atom        0.000242      0.000018     -0.000260
    16   Atom        0.000395     -0.000205     -0.000190
    17   Atom        0.000181     -0.000246      0.000065
    18   Atom        0.000064     -0.000742      0.000678
    19   Atom       -0.000266     -0.000496      0.000761
    20   Atom       -0.000006     -0.000368      0.000374
    21   Atom       -0.000051     -0.000665      0.000716
    22   Atom       -0.001862     -0.002609      0.004472
    23   Atom       -0.036942      0.041810     -0.004868
    24   Atom        0.007322     -0.026645      0.019323
    25   Atom       -0.001746     -0.000842      0.002588
    26   Atom       -0.004168     -0.010944      0.015111
    27   Atom       -0.000694     -0.001057      0.001751
    28   Atom       -0.000577      0.000253      0.000325
    29   Atom       -0.000011      0.000525     -0.000515
    30   Atom       -0.001049      0.002980     -0.001930
    31   Atom        0.001073      0.000341     -0.001415
    32   Atom        0.002715     -0.001131     -0.001584
    33   Atom        0.000731     -0.000009     -0.000722
    34   Atom        0.001601     -0.000028     -0.001572
    35   Atom       -0.000213      0.000072      0.000141
    36   Atom       -0.000136      0.000041      0.000094
    37   Atom       -0.000236     -0.000074      0.000310
    38   Atom        0.000109     -0.000187      0.000078
    39   Atom        0.045355     -0.032529     -0.012827
 --------------------------------------------------------
                        XY            XZ            YZ
 --------------------------------------------------------
     1   Atom       -0.245849     -0.232689      0.568915
     2   Atom        0.029051      0.002868     -0.080922
     3   Atom        0.242475      0.156411      0.807231
     4   Atom        0.504819      0.266942      0.968949
     5   Atom       -0.032176     -0.018578     -0.066785
     6   Atom        0.137817      0.098924      0.404226
     7   Atom       -0.000329      0.007999      0.007076
     8   Atom       -0.001635      0.001743     -0.002237
     9   Atom        0.001581     -0.002171     -0.002157
    10   Atom       -0.010583      0.003264     -0.001856
    11   Atom       -0.000103      0.002168     -0.000307
    12   Atom        0.000617      0.005344      0.000784
    13   Atom        0.001540      0.002843      0.001373
    14   Atom       -0.000461      0.000517     -0.000283
    15   Atom       -0.000453      0.000415     -0.000370
    16   Atom       -0.000277      0.000271     -0.000091
    17   Atom       -0.000246      0.000441     -0.000272
    18   Atom       -0.000256      0.000987     -0.000424
    19   Atom        0.000527      0.000519     -0.001067
    20   Atom       -0.000276      0.000683     -0.000412
    21   Atom       -0.000055      0.000654     -0.000070
    22   Atom       -0.004840     -0.002664     -0.013246
    23   Atom        0.002693     -0.000337      0.039482
    24   Atom        0.002265      0.001070     -0.008053
    25   Atom        0.000132     -0.000515     -0.002353
    26   Atom        0.004014     -0.015173     -0.003319
    27   Atom       -0.001601      0.003621     -0.001463
    28   Atom        0.000851     -0.000829     -0.001897
    29   Atom        0.001302      0.000749     -0.000648
    30   Atom        0.004023     -0.002308     -0.003546
    31   Atom        0.002204     -0.000766     -0.000597
    32   Atom        0.002344     -0.001937     -0.000828
    33   Atom        0.000704     -0.000471     -0.000264
    34   Atom        0.002436      0.000273      0.000295
    35   Atom        0.000537     -0.000509     -0.000781
    36   Atom        0.000397     -0.000469     -0.000529
    37   Atom        0.000274     -0.000379     -0.000616
    38   Atom        0.000602     -0.000758     -0.000470
    39   Atom        0.002727     -0.043819      0.008948
 --------------------------------------------------------


 ---------------------------------------------------------------------------------
              Anisotropic Spin Dipole Couplings in Principal Axis System
 ---------------------------------------------------------------------------------

       Atom             a.u.   MegaHertz   Gauss  10(-4) cm-1        Axes

              Baa    -0.4224    30.562    10.905    10.194  0.0973  0.7104 -0.6971
     1 O(17)  Bbb    -0.3971    28.734    10.253     9.585  0.9518  0.1382  0.2737
              Bcc     0.8195   -59.296   -21.158   -19.779 -0.2907  0.6901  0.6627
 
              Baa    -0.1368   -18.357    -6.550    -6.123 -0.1189  0.8545  0.5056
     2 C(13)  Bbb     0.0457     6.132     2.188     2.045  0.2833 -0.4589  0.8421
              Bcc     0.0911    12.225     4.362     4.078  0.9517  0.2433 -0.1875
 
              Baa    -0.6138   -23.674    -8.447    -7.897 -0.4882 -0.3979  0.7768
     3 N(14)  Bbb    -0.6078   -23.440    -8.364    -7.819  0.8580 -0.3816  0.3438
              Bcc     1.2216    47.114    16.811    15.715  0.1596  0.8343  0.5277
 
              Baa    -0.8136    58.873    21.007    19.638  0.4301 -0.5505  0.7155
     4 O(17)  Bbb    -0.7484    54.151    19.323    18.063  0.8663  0.0288 -0.4986
              Bcc     1.5620  -113.024   -40.330   -37.701  0.2539  0.8343  0.4893
 
              Baa    -0.1083   -14.529    -5.184    -4.846  0.2101  0.7749  0.5961
     5 C(13)  Bbb     0.0366     4.905     1.750     1.636 -0.1406 -0.5794  0.8028
              Bcc     0.0717     9.625     3.434     3.210  0.9675 -0.2525 -0.0128
 
              Baa    -0.2968    21.473     7.662     7.163  0.2734 -0.6185  0.7367
     6 O(17)  Bbb    -0.2852    20.636     7.363     6.883  0.9410  0.0132 -0.3382
              Bcc     0.5819   -42.109   -15.025   -14.046  0.1994  0.7857  0.5856
 
              Baa    -0.0109    -0.419    -0.149    -0.140  0.7456  0.3881 -0.5417
     7 N(14)  Bbb    -0.0017    -0.067    -0.024    -0.022 -0.5560  0.8103 -0.1848
              Bcc     0.0126     0.486     0.173     0.162  0.3672  0.4390  0.8200
 
              Baa    -0.0022    -0.300    -0.107    -0.100  0.0427  0.7550  0.6544
     8 C(13)  Bbb    -0.0015    -0.206    -0.073    -0.069  0.8451  0.3221 -0.4267
              Bcc     0.0038     0.505     0.180     0.169  0.5329 -0.5712  0.6243
 
              Baa    -0.0024    -1.190    -0.424    -0.397  0.6863  0.1673  0.7079
     9 F(19)  Bbb    -0.0016    -0.813    -0.290    -0.271 -0.5188  0.7947  0.3152
              Bcc     0.0040     2.002     0.715     0.668 -0.5098 -0.5835  0.6321
 
              Baa    -0.0102    -5.147    -1.837    -1.717 -0.1777 -0.0046  0.9841
    10 F(19)  Bbb    -0.0062    -3.110    -1.110    -1.037  0.5758  0.8105  0.1078
              Bcc     0.0164     8.257     2.946     2.754  0.7981 -0.5857  0.1414
 
              Baa    -0.0018    -0.237    -0.084    -0.079 -0.6340  0.1946  0.7484
    11 C(13)  Bbb    -0.0009    -0.122    -0.043    -0.041  0.1857  0.9778 -0.0969
              Bcc     0.0027     0.358     0.128     0.120  0.7507 -0.0775  0.6561
 
              Baa    -0.0041    -2.050    -0.732    -0.684  0.0437  0.9857 -0.1625
    12 F(19)  Bbb    -0.0033    -1.677    -0.599    -0.560  0.7168 -0.1442 -0.6822
              Bcc     0.0074     3.728     1.330     1.243  0.6959  0.0867  0.7129
 
              Baa    -0.0028     0.205     0.073     0.068 -0.6046 -0.0601  0.7943
    13 O(17)  Bbb    -0.0012     0.086     0.031     0.029 -0.3841  0.8955 -0.2246
              Bcc     0.0040    -0.291    -0.104    -0.097  0.6978  0.4409  0.5645
 
              Baa    -0.0005    -0.067    -0.024    -0.022  0.1030  0.8275  0.5519
    14 C(13)  Bbb    -0.0005    -0.062    -0.022    -0.021 -0.6034 -0.3891  0.6960
              Bcc     0.0010     0.130     0.046     0.043  0.7907 -0.4047  0.4593
 
              Baa    -0.0005    -0.270    -0.096    -0.090 -0.2452  0.3909  0.8872
    15 F(19)  Bbb    -0.0003    -0.166    -0.059    -0.056  0.6724  0.7278 -0.1349
              Bcc     0.0009     0.437     0.156     0.146  0.6984 -0.5635  0.4412
 
              Baa    -0.0003    -0.161    -0.057    -0.054  0.4601  0.7896 -0.4060
    16 F(19)  Bbb    -0.0003    -0.144    -0.051    -0.048 -0.1296  0.5121  0.8491
              Bcc     0.0006     0.304     0.109     0.101  0.8783 -0.3381  0.3380
 
              Baa    -0.0004    -0.203    -0.072    -0.068 -0.0482  0.8436  0.5347
    17 F(19)  Bbb    -0.0003    -0.152    -0.054    -0.051  0.7199  0.4005 -0.5669
              Bcc     0.0007     0.355     0.127     0.119  0.6924 -0.3576  0.6266
 
              Baa    -0.0009    -0.115    -0.041    -0.038 -0.0529  0.9535  0.2968
    18 C(13)  Bbb    -0.0007    -0.088    -0.031    -0.029  0.8160  0.2126 -0.5376
              Bcc     0.0015     0.203     0.072     0.068  0.5757 -0.2137  0.7893
 
              Baa    -0.0015    -0.762    -0.272    -0.254 -0.4995  0.7354  0.4580
    19 F(19)  Bbb     0.0001     0.061     0.022     0.020  0.8567  0.4978  0.1350
              Bcc     0.0014     0.701     0.250     0.234  0.1288 -0.4598  0.8786
 
              Baa    -0.0006    -0.282    -0.100    -0.094 -0.3333  0.7483  0.5735
    20 F(19)  Bbb    -0.0005    -0.253    -0.090    -0.084  0.7532  0.5773 -0.3155
              Bcc     0.0011     0.535     0.191     0.178  0.5671 -0.3268  0.7560
 
              Baa    -0.0007    -0.336    -0.120    -0.112  0.0723  0.9973  0.0161
    21 F(19)  Bbb    -0.0004    -0.214    -0.076    -0.071  0.8649 -0.0547 -0.4990
              Bcc     0.0011     0.550     0.196     0.183  0.4967 -0.0500  0.8665
 
              Baa    -0.0150    -2.019    -0.720    -0.673  0.3833  0.7391  0.5539
    22 C(13)  Bbb     0.0004     0.048     0.017     0.016  0.9221 -0.2712 -0.2762
              Bcc     0.0147     1.971     0.703     0.657  0.0539 -0.6166  0.7854
 
              Baa    -0.0373     2.696     0.962     0.899  0.9864 -0.0990  0.1309
    23 O(17)  Bbb    -0.0271     1.963     0.700     0.655 -0.1627 -0.4856  0.8589
              Bcc     0.0644    -4.659    -1.662    -1.554  0.0214  0.8686  0.4951
 
              Baa    -0.0282    -1.087    -0.388    -0.363 -0.0678  0.9834  0.1682
    24 N(14)  Bbb     0.0075     0.287     0.103     0.096  0.9964  0.0753 -0.0387
              Bcc     0.0207     0.799     0.285     0.267  0.0508 -0.1650  0.9850
 
              Baa    -0.0021    -0.280    -0.100    -0.093  0.3671  0.8139  0.4504
    25 C(13)  Bbb    -0.0017    -0.235    -0.084    -0.078  0.9256 -0.3678 -0.0897
              Bcc     0.0038     0.514     0.184     0.172 -0.0926 -0.4498  0.8883
 
              Baa    -0.0140    -7.038    -2.511    -2.347  0.7253 -0.6159  0.3077
    26 F(19)  Bbb    -0.0101    -5.075    -1.811    -1.693  0.4903  0.7758  0.3971
              Bcc     0.0241    12.113     4.322     4.040 -0.4833 -0.1372  0.8647
 
              Baa    -0.0034    -1.711    -0.611    -0.571  0.8248  0.2446 -0.5097
    27 F(19)  Bbb    -0.0017    -0.844    -0.301    -0.281 -0.0182  0.9126  0.4084
              Bcc     0.0051     2.555     0.912     0.852  0.5651 -0.3276  0.7572
 
              Baa    -0.0016    -0.216    -0.077    -0.072 -0.0397  0.7219  0.6909
    28 C(13)  Bbb    -0.0010    -0.136    -0.049    -0.046  0.9368 -0.2137  0.2771
              Bcc     0.0026     0.352     0.126     0.118 -0.3476 -0.6582  0.6678
 
              Baa    -0.0018    -0.915    -0.326    -0.305  0.6147 -0.5077 -0.6037
    29 F(19)  Bbb     0.0002     0.118     0.042     0.039  0.4786 -0.3683  0.7970
              Bcc     0.0016     0.797     0.284     0.266  0.6270  0.7789 -0.0166
 
              Baa    -0.0039     0.280     0.100     0.094  0.4293  0.2033  0.8800
    30 O(17)  Bbb    -0.0035     0.254     0.091     0.085  0.7640 -0.6014 -0.2338
              Bcc     0.0074    -0.534    -0.191    -0.178  0.4817  0.7727 -0.4135
 
              Baa    -0.0016    -0.219    -0.078    -0.073  0.3686 -0.1333  0.9200
    31 C(13)  Bbb    -0.0015    -0.203    -0.072    -0.068 -0.5528  0.7642  0.3323
              Bcc     0.0031     0.422     0.151     0.141  0.7473  0.6311 -0.2080
 
              Baa    -0.0024    -1.183    -0.422    -0.395  0.4774 -0.3768  0.7938
    32 F(19)  Bbb    -0.0022    -1.100    -0.393    -0.367 -0.1959  0.8350  0.5142
              Bcc     0.0045     2.284     0.815     0.762  0.8566  0.4010 -0.3248
 
              Baa    -0.0009    -0.435    -0.155    -0.145  0.2405  0.0995  0.9655
    33 F(19)  Bbb    -0.0004    -0.218    -0.078    -0.073 -0.5059  0.8618  0.0372
              Bcc     0.0013     0.653     0.233     0.218  0.8284  0.4974 -0.2576
 
              Baa    -0.0018    -0.910    -0.325    -0.304 -0.5238  0.7739 -0.3560
    34 F(19)  Bbb    -0.0016    -0.790    -0.282    -0.264 -0.2690  0.2462  0.9311
              Bcc     0.0034     1.700     0.607     0.567  0.8083  0.5835  0.0792
 
              Baa    -0.0007    -0.092    -0.033    -0.031 -0.2706  0.7773  0.5680
    35 C(13)  Bbb    -0.0006    -0.077    -0.027    -0.026  0.8518 -0.0816  0.5175
              Bcc     0.0013     0.169     0.060     0.056 -0.4486 -0.6238  0.6400
 
              Baa    -0.0005    -0.254    -0.091    -0.085  0.7102  0.1504  0.6877
    36 F(19)  Bbb    -0.0004    -0.221    -0.079    -0.074 -0.5019  0.7932  0.3449
              Bcc     0.0009     0.475     0.170     0.158 -0.4936 -0.5901  0.6388
 
              Baa    -0.0005    -0.265    -0.094    -0.088  0.0331  0.7979  0.6019
    37 F(19)  Bbb    -0.0004    -0.211    -0.075    -0.071  0.9295 -0.2460  0.2750
              Bcc     0.0009     0.476     0.170     0.159 -0.3674 -0.5503  0.7498
 
              Baa    -0.0007    -0.357    -0.128    -0.119  0.7601 -0.4673  0.4515
    38 F(19)  Bbb    -0.0005    -0.272    -0.097    -0.091  0.0712  0.7505  0.6570
              Bcc     0.0013     0.629     0.225     0.210  0.6458  0.4673 -0.6038
 
              Baa    -0.0438   -23.376    -8.341    -7.797  0.3573 -0.6318  0.6878
    39 H(1)   Bbb    -0.0251   -13.383    -4.775    -4.464  0.3120  0.7749  0.5497
              Bcc     0.0689    36.759    13.116    12.261  0.8803 -0.0181 -0.4740
 

 ---------------------------------------------------------------------------------

 No NMR shielding tensors so no spin-rotation constants.
 Leave Link  601 at Sun Mar  3 17:32:03 2024, MaxMem=  5368709120 cpu:         6.0
 (Enter /home/k0335/k033513/app/g09/l9999.exe)
 1\1\GINC-C24U18N4\SP\UCAM-B3LYP\6-31G(d,p)\C11H1F18N3O6(1+,2)\K033513\
 03-Mar-2024\0\\#p CAM-B3LYP/6-31G(d,p) SCRF=(PCM,Solvent=Generic,Read)
  NoSymm out=wfn\\Title A1671897790_p1\\1,2\O,0,2.549228,-1.31837,1.683
 995\C,0,1.415224,-1.234548,1.219379\N,0,0.292339,-1.692322,1.866649\O,
 0,0.491082,-2.403201,3.070263\C,0,-0.969863,-1.193665,1.663579\O,0,-1.
 890147,-1.510246,2.416805\N,0,-1.091068,-0.301036,0.622747\C,0,-2.4159
 23,0.250457,0.36346\F,0,-2.312026,1.444217,-0.274799\F,0,-2.956059,0.6
 01024,1.5748\C,0,-3.425449,-0.686823,-0.357656\F,0,-3.196755,-1.972251
 ,0.093055\O,0,-4.796316,-0.473477,0.010858\C,0,-5.37826,0.673267,-0.55
 2854\F,0,-4.596383,1.741985,-0.360723\F,0,-6.566009,0.889627,0.03817\F
 ,0,-5.574715,0.481311,-1.865371\C,0,-3.127311,-0.70118,-1.85611\F,0,-1
 .905244,-1.227855,-2.102957\F,0,-3.175522,0.522254,-2.415586\F,0,-4.01
 8712,-1.481128,-2.515341\C,0,-0.069448,-0.058604,-0.269865\O,0,-0.2485
 15,0.63781,-1.264169\N,0,1.154532,-0.629498,0.00759\C,0,2.296353,-0.23
 7495,-0.811627\F,0,3.230217,-1.224226,-0.77529\F,0,1.904015,-0.23848,-
 2.117124\C,0,2.91485,1.13464,-0.436846\F,0,1.910222,2.076251,-0.50702\
 O,0,3.32584,1.238629,0.931737\C,0,4.641891,0.805095,1.189464\F,0,4.891
 988,-0.367952,0.597919\F,0,5.506653,1.726464,0.734407\F,0,4.805868,0.6
 83283,2.517853\C,0,3.937783,1.492027,-1.523263\F,0,4.492102,2.705205,-
 1.278426\F,0,3.381934,1.569871,-2.752721\F,0,4.950214,0.604052,-1.6024
 68\H,0,-0.378612,-2.325112,3.515322\\Version=ES64L-G09RevD.01\HF=-2831
 .3238035\S2=0.77069\S2-1=0.\S2A=0.750275\RMSD=4.109e-09\Dipole=-0.1394
 323,-2.9622813,3.8366998\Quadrupole=-5.1455196,-0.6804543,5.8259739,-0
 .3114035,0.1350154,-10.936923\PG=C01 [X(C11H1F18N3O6)]\\@

 Writing a WFN file to "A1671897790/A1671897790_p1.wfn"


 BLACK HOLES SUCK.
 Job cpu time:       0 days  0 hours 48 minutes 32.3 seconds.
 File lengths (MBytes):  RWF=    488 Int=      0 D2E=      0 Chk=     17 Scr=      1
 Normal termination of Gaussian 09 at Sun Mar  3 17:32:03 2024.
