 Entering Gaussian System, Link 0=g09
 Initial command:
 /home/k0335/k033513/app/g09/l1.exe "/home/k0335/k033513/app/g09/scratch/Gau-1676978.inp" -scrdir="/home/k0335/k033513/app/g09/scratch/"
 Default is to use a total of  36 processors:
                               36 via shared-memory
                                1 via Linda
 Entering Link 1 = /home/k0335/k033513/app/g09/l1.exe PID=   1676979.
  
 Copyright (c) 1988,1990,1992,1993,1995,1998,2003,2009,2013,
            Gaussian, Inc.  All Rights Reserved.
  
 This is part of the Gaussian(R) 09 program.  It is based on
 the Gaussian(R) 03 system (copyright 2003, Gaussian, Inc.),
 the Gaussian(R) 98 system (copyright 1998, Gaussian, Inc.),
 the Gaussian(R) 94 system (copyright 1995, Gaussian, Inc.),
 the Gaussian 92(TM) system (copyright 1992, Gaussian, Inc.),
 the Gaussian 90(TM) system (copyright 1990, Gaussian, Inc.),
 the Gaussian 88(TM) system (copyright 1988, Gaussian, Inc.),
 the Gaussian 86(TM) system (copyright 1986, Carnegie Mellon
 University), and the Gaussian 82(TM) system (copyright 1983,
 Carnegie Mellon University). Gaussian is a federally registered
 trademark of Gaussian, Inc.
  
 This software contains proprietary and confidential information,
 including trade secrets, belonging to Gaussian, Inc.
  
 This software is provided under written license and may be
 used, copied, transmitted, or stored only in accord with that
 written license.
  
 The following legend is applicable only to US Government
 contracts under FAR:
  
                    RESTRICTED RIGHTS LEGEND
  
 Use, reproduction and disclosure by the US Government is
 subject to restrictions as set forth in subparagraphs (a)
 and (c) of the Commercial Computer Software - Restricted
 Rights clause in FAR 52.227-19.
  
 Gaussian, Inc.
 340 Quinnipiac St., Bldg. 40, Wallingford CT 06492
  
  
 ---------------------------------------------------------------
 Warning -- This program may not be used in any manner that
 competes with the business of Gaussian, Inc. or will provide
 assistance to any competitor of Gaussian, Inc.  The licensee
 of this program is prohibited from giving any competitor of
 Gaussian, Inc. access to this program.  By using this program,
 the user acknowledges that Gaussian, Inc. is engaged in the
 business of creating and licensing software in the field of
 computational chemistry and represents and warrants to the
 licensee that it is not a competitor of Gaussian, Inc. and that
 it will not use this program in any manner prohibited above.
 ---------------------------------------------------------------
  

 Cite this work as:
 Gaussian 09, Revision D.01,
 M. J. Frisch, G. W. Trucks, H. B. Schlegel, G. E. Scuseria, 
 M. A. Robb, J. R. Cheeseman, G. Scalmani, V. Barone, B. Mennucci, 
 G. A. Petersson, H. Nakatsuji, M. Caricato, X. Li, H. P. Hratchian, 
 A. F. Izmaylov, J. Bloino, G. Zheng, J. L. Sonnenberg, M. Hada, 
 M. Ehara, K. Toyota, R. Fukuda, J. Hasegawa, M. Ishida, T. Nakajima, 
 Y. Honda, O. Kitao, H. Nakai, T. Vreven, J. A. Montgomery, Jr., 
 J. E. Peralta, F. Ogliaro, M. Bearpark, J. J. Heyd, E. Brothers, 
 K. N. Kudin, V. N. Staroverov, T. Keith, R. Kobayashi, J. Normand, 
 K. Raghavachari, A. Rendell, J. C. Burant, S. S. Iyengar, J. Tomasi, 
 M. Cossi, N. Rega, J. M. Millam, M. Klene, J. E. Knox, J. B. Cross, 
 V. Bakken, C. Adamo, J. Jaramillo, R. Gomperts, R. E. Stratmann, 
 O. Yazyev, A. J. Austin, R. Cammi, C. Pomelli, J. W. Ochterski, 
 R. L. Martin, K. Morokuma, V. G. Zakrzewski, G. A. Voth, 
 P. Salvador, J. J. Dannenberg, S. Dapprich, A. D. Daniels, 
 O. Farkas, J. B. Foresman, J. V. Ortiz, J. Cioslowski, 
 and D. J. Fox, Gaussian, Inc., Wallingford CT, 2013.
 
 ******************************************
 Gaussian 09:  ES64L-G09RevD.01 24-Apr-2013
                 3-Feb-2025 
 ******************************************
 %nprocshared=24
 Will use up to   24 processors via shared memory.
 %mem=40GB
 %rwf=cytop/AEP0/AEP0_neu.rwf
 %nosave
 %chk=cytop/AEP0/AEP0_neu.chk
 ----------------------------------------------------------------------
 #p CAM-B3LYP/6-31G(d,p) SCRF=(PCM,Solvent=Generic,Read) NoSymm out=wfn
 ----------------------------------------------------------------------
 1/38=1,40=2/1;
 2/12=2,15=1,17=6,18=5,40=1/2;
 3/5=1,6=6,7=101,11=2,16=1,25=1,30=1,70=2203,72=-2,74=-40/1,2,3;
 4//1;
 5/5=2,38=5/2;
 6/7=2,8=2,9=2,10=2,28=1/1;
 99/5=1,6=100,9=1/99;
 Leave Link    1 at Mon Feb  3 21:38:08 2025, MaxMem=  5368709120 cpu:         0.9
 (Enter /home/k0335/k033513/app/g09/l101.exe)
 --------------
 Title AEP0_neu
 --------------
 Symbolic Z-matrix:
 Charge =  0 Multiplicity = 1
 F                     6.01592  -2.61199   1.12159 
 C                     5.46341  -1.41862   0.83198 
 F                     6.39059  -0.47421   1.09366 
 C                     4.94886  -1.32507  -0.58969 
 F                     5.8769   -1.04028  -1.51519 
 F                     4.4054   -2.51541  -0.96085 
 C                     3.85446  -0.3064   -0.47023 
 F                     2.94446  -0.46905  -1.46342 
 C                     4.33151   1.13712  -0.4947 
 F                     3.23911   1.94963  -0.33818 
 C                     5.05929   1.48225  -1.79349 
 O                     4.24836   1.60319  -2.86519 
 O                     6.26394   1.64044  -1.9245 
 F                     5.11431   1.39582   0.58683 
 C                     3.28334  -0.6662    0.90154 
 F                     2.84797   0.45239   1.54797 
 C                     2.12181  -1.68204   0.90599 
 F                     1.81531  -1.96242   2.21665 
 C                     0.87096  -1.12682   0.20353 
 N                     0.1863   -0.15339   0.91278 
 C                    -1.03724   0.4516    0.4087 
 C                    -2.26775  -0.45681   0.6013 
 N                    -3.53123   0.1623    0.16774 
 C                    -3.88829   1.34286   0.97275 
 C                    -5.39399   1.63853   1.02492 
 C                    -6.08125   1.24392  -0.2729 
 C                    -5.83866  -0.2318   -0.59448 
 C                    -4.6188   -0.81743   0.12647 
 O                     0.50634  -1.50483  -0.90755 
 F                     2.53411  -2.86844   0.38282 
 O                     4.36988  -1.17986   1.71335 
 H                     4.83709   1.83873  -3.61512 
 H                     0.42717   0.00479   1.88718 
 H                    -0.90212   0.68186  -0.65433 
 H                    -1.15236   1.39525   0.95094 
 H                    -2.3352   -0.7717    1.65133 
 H                    -2.09643  -1.37118   0.01874 
 H                    -3.37773   2.21267   0.54239 
 H                    -3.53587   1.24418   2.00762 
 H                    -5.55512   2.70288   1.22998 
 H                    -5.84852   1.0829    1.85519 
 H                    -5.68933   1.86231  -1.09034 
 H                    -7.15688   1.44463  -0.21676 
 H                    -6.72296  -0.81859  -0.3178 
 H                    -5.72205  -0.34057  -1.67996 
 H                    -4.89196  -1.13726   1.14073 
 H                    -4.31305  -1.71992  -0.41718 
 
 NAtoms=     47 NQM=       47 NQMF=       0 NMMI=      0 NMMIF=      0
                NMic=       0 NMicF=      0.
                    Isotopes and Nuclear Properties:
 (Nuclear quadrupole moments (NQMom) in fm**2, nuclear magnetic moments (NMagM)
  in nuclear magnetons)

  Atom         1           2           3           4           5           6           7           8           9          10
 IAtWgt=          19          12          19          12          19          19          12          19          12          19
 AtmWgt=  18.9984033  12.0000000  18.9984033  12.0000000  18.9984033  18.9984033  12.0000000  18.9984033  12.0000000  18.9984033
 NucSpn=           1           0           1           0           1           1           0           1           0           1
 AtZEff=   0.0000000   0.0000000   0.0000000   0.0000000   0.0000000   0.0000000   0.0000000   0.0000000   0.0000000   0.0000000
 NQMom=    0.0000000   0.0000000   0.0000000   0.0000000   0.0000000   0.0000000   0.0000000   0.0000000   0.0000000   0.0000000
 NMagM=    2.6288670   0.0000000   2.6288670   0.0000000   2.6288670   2.6288670   0.0000000   2.6288670   0.0000000   2.6288670
 AtZNuc=   9.0000000   6.0000000   9.0000000   6.0000000   9.0000000   9.0000000   6.0000000   9.0000000   6.0000000   9.0000000

  Atom        11          12          13          14          15          16          17          18          19          20
 IAtWgt=          12          16          16          19          12          19          12          19          12          14
 AtmWgt=  12.0000000  15.9949146  15.9949146  18.9984033  12.0000000  18.9984033  12.0000000  18.9984033  12.0000000  14.0030740
 NucSpn=           0           0           0           1           0           1           0           1           0           2
 AtZEff=   0.0000000   0.0000000   0.0000000   0.0000000   0.0000000   0.0000000   0.0000000   0.0000000   0.0000000   0.0000000
 NQMom=    0.0000000   0.0000000   0.0000000   0.0000000   0.0000000   0.0000000   0.0000000   0.0000000   0.0000000   2.0440000
 NMagM=    0.0000000   0.0000000   0.0000000   2.6288670   0.0000000   2.6288670   0.0000000   2.6288670   0.0000000   0.4037610
 AtZNuc=   6.0000000   8.0000000   8.0000000   9.0000000   6.0000000   9.0000000   6.0000000   9.0000000   6.0000000   7.0000000

  Atom        21          22          23          24          25          26          27          28          29          30
 IAtWgt=          12          12          14          12          12          12          12          12          16          19
 AtmWgt=  12.0000000  12.0000000  14.0030740  12.0000000  12.0000000  12.0000000  12.0000000  12.0000000  15.9949146  18.9984033
 NucSpn=           0           0           2           0           0           0           0           0           0           1
 AtZEff=   0.0000000   0.0000000   0.0000000   0.0000000   0.0000000   0.0000000   0.0000000   0.0000000   0.0000000   0.0000000
 NQMom=    0.0000000   0.0000000   2.0440000   0.0000000   0.0000000   0.0000000   0.0000000   0.0000000   0.0000000   0.0000000
 NMagM=    0.0000000   0.0000000   0.4037610   0.0000000   0.0000000   0.0000000   0.0000000   0.0000000   0.0000000   2.6288670
 AtZNuc=   6.0000000   6.0000000   7.0000000   6.0000000   6.0000000   6.0000000   6.0000000   6.0000000   8.0000000   9.0000000

  Atom        31          32          33          34          35          36          37          38          39          40
 IAtWgt=          16           1           1           1           1           1           1           1           1           1
 AtmWgt=  15.9949146   1.0078250   1.0078250   1.0078250   1.0078250   1.0078250   1.0078250   1.0078250   1.0078250   1.0078250
 NucSpn=           0           1           1           1           1           1           1           1           1           1
 AtZEff=   0.0000000   0.0000000   0.0000000   0.0000000   0.0000000   0.0000000   0.0000000   0.0000000   0.0000000   0.0000000
 NQMom=    0.0000000   0.0000000   0.0000000   0.0000000   0.0000000   0.0000000   0.0000000   0.0000000   0.0000000   0.0000000
 NMagM=    0.0000000   2.7928460   2.7928460   2.7928460   2.7928460   2.7928460   2.7928460   2.7928460   2.7928460   2.7928460
 AtZNuc=   8.0000000   1.0000000   1.0000000   1.0000000   1.0000000   1.0000000   1.0000000   1.0000000   1.0000000   1.0000000

  Atom        41          42          43          44          45          46          47
 IAtWgt=           1           1           1           1           1           1           1
 AtmWgt=   1.0078250   1.0078250   1.0078250   1.0078250   1.0078250   1.0078250   1.0078250
 NucSpn=           1           1           1           1           1           1           1
 AtZEff=   0.0000000   0.0000000   0.0000000   0.0000000   0.0000000   0.0000000   0.0000000
 NQMom=    0.0000000   0.0000000   0.0000000   0.0000000   0.0000000   0.0000000   0.0000000
 NMagM=    2.7928460   2.7928460   2.7928460   2.7928460   2.7928460   2.7928460   2.7928460
 AtZNuc=   1.0000000   1.0000000   1.0000000   1.0000000   1.0000000   1.0000000   1.0000000
 Leave Link  101 at Mon Feb  3 21:38:09 2025, MaxMem=  5368709120 cpu:         0.8
 (Enter /home/k0335/k033513/app/g09/l202.exe)
                          Input orientation:                          
 ---------------------------------------------------------------------
 Center     Atomic      Atomic             Coordinates (Angstroms)
 Number     Number       Type             X           Y           Z
 ---------------------------------------------------------------------
      1          9           0        6.015920   -2.611989    1.121591
      2          6           0        5.463407   -1.418622    0.831982
      3          9           0        6.390591   -0.474208    1.093657
      4          6           0        4.948860   -1.325065   -0.589694
      5          9           0        5.876903   -1.040277   -1.515187
      6          9           0        4.405404   -2.515415   -0.960850
      7          6           0        3.854464   -0.306398   -0.470230
      8          9           0        2.944455   -0.469049   -1.463423
      9          6           0        4.331508    1.137120   -0.494696
     10          9           0        3.239113    1.949628   -0.338181
     11          6           0        5.059291    1.482252   -1.793487
     12          8           0        4.248356    1.603193   -2.865185
     13          8           0        6.263935    1.640441   -1.924498
     14          9           0        5.114310    1.395817    0.586831
     15          6           0        3.283340   -0.666198    0.901540
     16          9           0        2.847967    0.452389    1.547967
     17          6           0        2.121813   -1.682035    0.905991
     18          9           0        1.815305   -1.962416    2.216645
     19          6           0        0.870963   -1.126816    0.203525
     20          7           0        0.186301   -0.153390    0.912776
     21          6           0       -1.037242    0.451600    0.408695
     22          6           0       -2.267752   -0.456812    0.601295
     23          7           0       -3.531232    0.162304    0.167740
     24          6           0       -3.888289    1.342858    0.972749
     25          6           0       -5.393989    1.638532    1.024923
     26          6           0       -6.081252    1.243920   -0.272896
     27          6           0       -5.838655   -0.231796   -0.594478
     28          6           0       -4.618800   -0.817429    0.126466
     29          8           0        0.506339   -1.504826   -0.907551
     30          9           0        2.534110   -2.868443    0.382822
     31          8           0        4.369884   -1.179855    1.713351
     32          1           0        4.837092    1.838733   -3.615119
     33          1           0        0.427169    0.004790    1.887178
     34          1           0       -0.902120    0.681862   -0.654332
     35          1           0       -1.152360    1.395248    0.950941
     36          1           0       -2.335196   -0.771696    1.651331
     37          1           0       -2.096429   -1.371181    0.018738
     38          1           0       -3.377727    2.212671    0.542386
     39          1           0       -3.535873    1.244175    2.007623
     40          1           0       -5.555121    2.702882    1.229983
     41          1           0       -5.848522    1.082897    1.855187
     42          1           0       -5.689329    1.862306   -1.090343
     43          1           0       -7.156884    1.444628   -0.216755
     44          1           0       -6.722962   -0.818591   -0.317801
     45          1           0       -5.722053   -0.340570   -1.679957
     46          1           0       -4.891958   -1.137257    1.140729
     47          1           0       -4.313053   -1.719917   -0.417181
 ---------------------------------------------------------------------
                    Distance matrix (angstroms):
                    1          2          3          4          5
     1  F    0.000000
     2  C    1.346577   0.000000
     3  F    2.170545   1.349097   0.000000
     4  C    2.392339   1.514818   2.374072   0.000000
     5  F    3.072817   2.413157   2.718525   1.341233   0.000000
     6  F    2.634321   2.352992   3.511195   1.360160   2.156068
     7  C    3.538578   2.349786   2.984266   1.499886   2.391814
     8  F    4.550647   3.537752   4.291216   2.348149   2.988015
     9  C    4.416497   3.094041   3.059259   2.540178   2.858445
    10  F    5.536239   4.202603   4.225749   3.702716   4.157260
    11  C    5.116212   3.933379   3.733054   3.056524   2.666288
    12  O    6.065181   4.927145   4.957539   3.774024   3.385645
    13  O    5.236729   4.194865   3.687417   3.507898   2.739266
    14  F    4.142629   2.846583   2.320077   2.968970   3.306748
    15  C    3.361773   2.307308   3.119099   2.330631   3.564698
    16  F    4.428107   3.294517   3.689873   3.484636   4.559103
    17  C    4.009410   3.352777   4.440330   3.218182   4.513830
    18  F    4.389334   3.939753   4.940557   4.254518   5.592270
    19  C    5.433154   4.644421   5.628901   4.159056   5.293477
    20  N    6.330306   5.427263   6.215212   5.129543   6.250162
    21  C    7.722752   6.777561   7.516581   6.323507   7.330240
    22  C    8.575239   7.794172   8.672348   7.365583   8.435362
    23  N    9.987725   9.156641   9.985241   8.642797   9.632832
    24  C   10.665661   9.751913  10.438952   9.362385  10.355102
    25  C   12.176301  11.281244  11.972666  10.879541  11.860067
    26  C   12.773183  11.899119  12.663582  11.329758  12.237578
    27  C   12.212336  11.453382  12.347592  10.842774  11.779459
    28  C   10.830881  10.124726  11.057122   9.607846  10.625651
    29  O    5.974840   5.254135   6.300113   4.457504   5.424757
    30  F    3.568550   3.299168   4.594572   3.026354   4.256629
    31  O    2.260669   1.424645   2.228276   2.379142   3.565676
    32  H    6.605678   5.547913   5.471346   4.378962   3.712091
    33  H    6.218343   5.338842   6.035024   5.324387   6.509059
    34  H    7.865280   6.865937   7.587859   6.185944   7.047126
    35  H    8.214092   7.190298   7.772473   6.855548   7.837353
    36  H    8.567873   7.868167   8.748649   7.641066   8.805540
    37  H    8.280465   7.603600   8.601716   7.071663   8.126281
    38  H   10.576078   9.562207  10.146096   9.117523  10.023146
    39  H   10.338849   9.458312  10.115476   9.237843  10.306758
    40  H   12.733758  11.770861  12.361736  11.396017  12.338491
    41  H   12.448105  11.630317  12.361246  11.329571  12.383573
    42  H   12.724968  11.783180  12.496144  11.116701  11.932443
    43  H   13.848107  12.983443  13.745297  12.424143  13.331927
    44  H   12.944777  12.255188  13.193790  11.685969  12.658573
    45  H   12.279578  11.514623  12.426864  10.771550  11.621210
    46  H   11.007134  10.363787  11.302113   9.993565  11.091964
    47  H   10.480997   9.860545  10.881287   9.271931  10.271452
                    6          7          8          9         10
     6  F    0.000000
     7  C    2.328948   0.000000
     8  F    2.564092   1.356836   0.000000
     9  C    3.682903   1.520498   2.332837   0.000000
    10  F    4.656668   2.342167   2.683839   1.370399   0.000000
    11  C    4.135480   2.530195   2.896386   1.528281   2.376847
    12  O    4.540274   3.088284   2.821220   2.417304   2.743053
    13  O    4.653374   3.422079   3.959986   2.456001   3.429511
    14  F    4.265630   2.366881   3.519877   1.359928   2.163034
    15  C    2.854317   1.528853   2.397240   2.509997   2.895066
    16  F    4.186602   2.379477   3.150687   2.615764   2.439728
    17  C    3.065029   2.605464   2.786072   3.846077   3.998162
    18  F    4.136532   3.757641   4.128925   4.825948   4.884512
    19  C    3.971933   3.166751   2.740573   4.193840   3.919960
    20  N    5.185602   3.923205   3.654227   4.563895   3.912447
    21  C    6.348325   5.027510   4.495145   5.487215   4.592290
    22  C    7.156057   6.217099   5.606274   6.876921   6.082691
    23  N    8.451869   7.428001   6.707743   7.950583   7.020545
    24  C    9.349354   8.046891   7.476920   8.352292   7.272315
    25  C   10.827127   9.568287   8.953402   9.856264   8.745587
    26  C   11.161355  10.057876   9.263639  10.415670   9.347272
    27  C   10.501899   9.694202   8.829178  10.262363   9.339709
    28  C    9.246711   8.509606   7.736404   9.182272   8.343818
    29  O    4.028255   3.582935   2.706702   4.667145   4.441339
    30  F    2.330627   3.005845   3.055175   4.477188   4.922467
    31  O    2.989370   2.407615   3.553728   3.200831   3.909104
    32  H    5.117627   3.931599   3.679365   3.238042   3.647486
    33  H    5.503549   4.171398   4.217556   4.711619   4.079417
    34  H    6.203736   4.861650   4.095774   5.255816   4.342464
    35  H    7.059530   5.475729   5.107705   5.677086   4.610229
    36  H    7.436379   6.559681   6.137426   7.259060   6.514344
    37  H    6.674031   6.065145   5.331149   6.919072   6.294694
    38  H    9.229932   7.725004   7.154361   7.852684   6.680356
    39  H    9.274170   7.947397   7.548374   8.256437   7.204228
    40  H   11.456109  10.024309   9.463529  10.157340   8.964657
    41  H   11.225904  10.074008   9.525658  10.447866   9.388674
    42  H   11.003856   9.806722   8.950789  10.064684   8.960494
    43  H   12.244269  11.152584  10.356321  11.495867  10.408964
    44  H   11.275338  10.590917   9.741334  11.227529  10.339555
    45  H   10.383277   9.652683   8.670165  10.230469   9.346008
    46  H    9.631038   8.932268   8.284774   9.639488   8.822151
    47  H    8.771538   8.289100   7.438462   9.104785   8.396845
                   11         12         13         14         15
    11  C    0.000000
    12  O    1.349362   0.000000
    13  O    1.222029   2.224598   0.000000
    14  F    2.382522   3.565010   2.772770   0.000000
    15  C    3.877243   4.502178   4.710735   2.775500   0.000000
    16  F    4.137135   4.770886   5.013813   2.636314   1.363325
    17  C    5.092020   5.434766   6.017283   4.304657   1.543078
    18  F    6.202446   6.667706   7.065405   4.981712   2.358985
    19  C    5.323287   5.317585   6.424200   4.951423   2.553225
    20  N    5.809063   5.818837   6.943024   5.176056   3.139227
    21  C    6.563502   6.323132   7.756566   6.226144   4.489966
    22  C    7.948617   7.662882   9.141542   7.610997   5.563148
    23  N    8.909869   8.473298  10.124606   8.743145   6.903859
    24  C    9.366466   9.000139  10.561735   9.011022   7.448063
    25  C   10.827692  10.397548  12.025235  10.520227   8.979033
    26  C   11.246364  10.655977  12.461487  11.229551   9.629301
    27  C   11.096883  10.501004  12.318560  11.136070   9.254057
    28  C   10.131150   9.666222  11.343787   9.992188   7.941500
    29  O    5.516964   5.243549   6.639036   5.646265   3.418749
    30  F    5.481004   5.786512   6.290100   4.988283   2.383337
    31  O    4.456457   5.359395   4.977494   2.908144   1.450330
    32  H    1.869437   0.982085   2.221126   4.234313   5.393425
    33  H    6.098093   6.304071   7.160451   5.059165   3.095064
    34  H    6.121823   5.680152   7.340609   6.184468   4.664341
    35  H    6.791470   6.616177   7.957996   6.277239   4.891568
    36  H    8.463184   8.329596   9.620292   7.831118   5.669327
    37  H    7.913948   7.577612   9.096248   7.744273   5.497113
    38  H    8.784821   8.374971   9.968681   8.531349   7.265445
    39  H    9.401168   9.190613  10.566685   8.767400   7.167608
    40  H   11.103921  10.681193  12.278828  10.768418   9.464511
    41  H   11.508809  11.157937  12.700728  11.040395   9.346640
    42  H   10.778297  10.098257  11.984388  10.942995   9.532561
    43  H   12.317566  11.709775  13.530451  12.297574  10.710016
    44  H   12.095165  11.520591  13.314947  12.076546  10.081473
    45  H   10.934942  10.227025  12.151054  11.206254   9.373754
    46  H   10.700412  10.349046  11.898116  10.336763   8.192350
    47  H    9.999447   9.504394  11.199852   9.979530   7.781679
                   16         17         18         19         20
    16  F    0.000000
    17  C    2.344184   0.000000
    18  F    2.710130   1.374909   0.000000
    19  C    2.865302   1.538295   2.375429   0.000000
    20  N    2.802660   2.466376   2.761576   1.385409   0.000000
    21  C    4.048801   3.844389   4.151287   2.484902   1.455049
    22  C    5.281422   4.567526   4.641934   3.233985   2.492280
    23  N    6.533250   5.991954   6.107201   4.587203   3.804575
    24  C    6.819161   6.728727   6.708435   5.416777   4.341041
    25  C    8.343282   8.217517   8.146223   6.897207   5.862013
    26  C    9.147296   8.788701   8.878852   7.360751   6.529970
    27  C    8.973048   8.229438   8.335500   6.815926   6.211124
    28  C    7.706213   6.840400   6.861308   5.499014   4.914085
    29  O    3.917076   2.435178   3.418096   1.228956   2.289627
    30  F    3.533270   1.360610   2.168057   2.414844   3.628301
    31  O    2.237812   2.440868   2.718746   3.811146   4.381429
    32  H    5.704036   6.341055   7.588768   6.253535   6.789716
    33  H    2.485090   2.584555   2.430097   2.076577   1.016119
    34  H    4.354989   4.143282   4.755956   2.674146   2.082819
    35  H    4.153076   4.493540   4.656495   3.318625   2.047376
    36  H    5.326748   4.609683   4.354774   3.535775   2.699206
    37  H    5.487349   4.321737   4.525706   2.983165   2.737366
    38  H    6.547446   6.748769   6.870377   5.414644   4.293918
    39  H    6.449157   6.464187   6.241876   5.319452   4.123889
    40  H    8.705040   8.846908   8.778479   7.550812   6.420501
    41  H    8.724726   8.489527   8.254625   7.263766   6.231824
    42  H    9.046213   8.806909   9.048989   7.324369   6.526756
    43  H   10.207636   9.855496   9.900988   8.440100   7.599465
    44  H    9.833573   8.970688   8.979630   7.618037   7.049449
    45  H    9.192036   8.367371   8.638614   6.901706   6.454917
    46  H    7.911969   7.038812   6.842942   5.838640   5.177709
    47  H    7.736984   6.569606   6.674775   5.254623   4.946411
                   21         22         23         24         25
    21  C    0.000000
    22  C    1.541578   0.000000
    23  N    2.522249   1.472296   0.000000
    24  C    3.039896   2.450088   1.472833   0.000000
    25  C    4.557388   3.787253   2.526633   1.535343   0.000000
    26  C    5.151153   4.266085   2.804756   2.523986   1.520652
    27  C    4.952469   3.772513   2.461807   2.956292   2.513626
    28  C    3.810203   2.425476   1.464372   2.432423   2.727616
    29  O    2.818288   3.327241   4.498617   5.563954   6.959097
    30  F    4.876260   5.377878   6.783809   7.702615   9.142203
    31  O    5.796618   6.768875   8.161981   8.666602  10.185797
    32  H    7.254172   8.574758   9.335378   9.870496  11.235884
    33  H    2.128392   3.021452   4.318590   4.609749   6.107248
    34  H    1.096041   2.176724   2.803208   3.464320   4.889990
    35  H    1.094420   2.190086   2.791521   2.736517   4.249244
    36  H    2.173771   1.098306   2.122239   2.709965   3.944338
    37  H    2.143939   1.097631   2.105335   3.389234   4.576536
    38  H    2.932084   2.891653   2.089959   1.096568   2.151230
    39  H    3.070489   2.545436   2.134394   1.097679   2.138647
    40  H    5.114100   4.602794   3.417459   2.166602   1.095835
    41  H    5.063525   4.094492   3.010781   2.165361   1.097574
    42  H    5.087152   4.466222   3.021616   2.787458   2.147475
    43  H    6.231156   5.309265   3.864912   3.479797   2.164985
    44  H    5.870996   4.563389   3.374173   3.791141   3.099440
    45  H    5.190130   4.141234   2.909736   3.637784   3.367617
    46  H    4.233105   2.764137   2.118287   2.680772   2.823199
    47  H    4.016030   2.610744   2.120409   3.390121   3.811465
                   26         27         28         29         30
    26  C    0.000000
    27  C    1.529708   0.000000
    28  C    2.558792   1.533223   0.000000
    29  O    7.166223   6.479010   5.273401   0.000000
    30  F    9.569010   8.832339   7.445569   2.763398   0.000000
    31  O   10.910825  10.509004   9.134878   4.679927   2.826960
    32  H   11.433919  11.286405  10.510402   6.104567   6.591264
    33  H    6.968566   6.743526   5.407213   3.177376   3.867526
    34  H    5.223486   5.020730   4.083042   2.613328   5.048567
    35  H    5.080812   5.195859   4.194270   3.823049   5.664970
    36  H    4.668864   4.196353   2.746298   3.893543   5.451202
    37  H    4.775209   3.959607   2.584686   2.765913   4.880189
    38  H    2.985333   3.650212   3.300721   5.568489   7.796986
    39  H    3.417561   3.775212   2.993609   5.691636   7.509880
    40  H    2.159636   3.467187   3.806184   7.682132   9.858651
    41  H    2.146818   2.780175   2.848145   7.396843   9.383468
    42  H    1.097372   2.157184   3.131715   7.053885   9.600789
    43  H    1.095637   2.165825   3.417100   8.240235  10.624379
    44  H    2.160500   1.096758   2.150552   7.285706   9.507163
    45  H    2.149291   1.097129   2.169729   6.383179   8.877467
    46  H    3.013762   2.174175   1.098014   5.785514   7.662762
    47  H    3.454226   2.138551   1.097050   4.849048   6.988759
                   31         32         33         34         35
    31  O    0.000000
    32  H    6.141885   0.000000
    33  H    4.120510   7.286017   0.000000
    34  H    6.071733   6.560729   2.946983   0.000000
    35  H    6.140652   7.544476   2.303221   1.774385   0.000000
    36  H    6.717778   9.273163   2.879100   3.079386   2.566183
    37  H    6.687415   8.460625   3.428252   2.468680   3.068126
    38  H    8.538493   9.214550   4.600048   3.147084   2.405692
    39  H    8.274268  10.103231   4.154068   3.786668   2.611615
    40  H   10.668412  11.498689   6.595407   5.411616   4.601312
    41  H   10.466900  12.028212   6.367703   5.561062   4.792615
    42  H   10.876728  10.824998   7.051776   4.949841   4.996906
    43  H   11.978297  12.472356   8.001095   6.316277   6.117210
    44  H   11.283055  12.311317   7.527567   6.020533   6.127185
    45  H   10.680175  10.953984   7.117349   5.032795   5.551287
    46  H    9.279624  11.230718   5.491318   4.738169   4.520420
    47  H    8.956798  10.325500   5.545664   4.178426   4.643920
                   36         37         38         39         40
    36  H    0.000000
    37  H    1.755492   0.000000
    38  H    3.350086   3.841865   0.000000
    39  H    2.373248   3.587165   1.763495   0.000000
    40  H    4.755854   5.479749   2.335410   2.609581   0.000000
    41  H    3.978006   4.844920   3.017394   2.323272   1.761055
    42  H    5.070005   4.959277   2.851677   3.823199   2.471536
    43  H    5.625879   5.795899   3.930421   4.254381   2.498379
    44  H    4.809592   4.671555   4.595549   4.451981   4.019983
    45  H    4.770131   4.134353   4.117489   4.570454   4.214050
    46  H    2.632752   3.021352   3.724638   2.874316   3.898002
    47  H    3.014927   2.285840   4.154618   3.907624   4.880270
                   41         42         43         44         45
    41  H    0.000000
    42  H    3.051060   0.000000
    43  H    2.477015   1.758217   0.000000
    44  H    3.016982   2.975303   2.306655   0.000000
    45  H    3.813069   2.280653   2.717836   1.756642   0.000000
    46  H    2.520823   3.822416   3.693072   2.362506   3.046315
    47  H    3.921363   3.896101   4.259330   2.574864   2.341470
                   46         47
    46  H    0.000000
    47  H    1.761166   0.000000
 Symmetry turned off by external request.
 Stoichiometry    C15H16F10N2O4
 Framework group  C1[X(C15H16F10N2O4)]
 Deg. of freedom   135
 Full point group                 C1      NOp   1
 Rotational constants (GHZ):      0.3105925      0.0679213      0.0630072
 Leave Link  202 at Mon Feb  3 21:38:09 2025, MaxMem=  5368709120 cpu:         0.1
 (Enter /home/k0335/k033513/app/g09/l301.exe)
 Standard basis: 6-31G(d,p) (6D, 7F)
 Ernie: Thresh=  0.10000D-02 Tol=  0.10000D-05 Strict=F.
   545 basis functions,   980 primitive gaussians,   545 cartesian basis functions
   121 alpha electrons      121 beta electrons
       nuclear repulsion energy      3794.4765074680 Hartrees.
 IExCor=20419 DFT=T Ex+Corr=CAM-B3LYP ExCW=0 ScaHFX=  1.000000
 ScaDFX=  1.000000  1.000000  1.000000  0.810000 ScalE2=  1.000000  1.000000
 IRadAn=      0 IRanWt=     -1 IRanGd=            0 ICorTp=0 IEmpDi=  4
  HFx wShort=  0.000000 wLong=  0.330000 cFull=  0.190000 cShort=  0.000000 cLong=  0.460000
  DFx wShort=  0.000000 wLong=  0.330000 cFull=  0.190000 cShort=  0.000000 cLong=  0.460000
 NAtoms=   47 NActive=   47 NUniq=   47 SFac= 1.00D+00 NAtFMM=   60 NAOKFM=F Big=F
 Integral buffers will be    131072 words long.
 Raffenetti 2 integral format.
 Two-electron integral symmetry is turned off.
 Using the following non-standard input for PCM:
 eps=2.05
 --- end of non-standard input.
 ------------------------------------------------------------------------------
 Polarizable Continuum Model (PCM)
 =================================
 Model                : PCM (using non-symmetric T matrix).
 Atomic radii         : UFF (Universal Force Field).
 Polarization charges : Total charges.
 Charge compensation  : None.
 Solution method      : On-the-fly selection.
 Cavity type          : Scaled VdW (van der Waals Surface) (Alpha=1.100).
 Cavity algorithm     : GePol (No added spheres)
                        Default sphere list used, NSphG=   47.
                        Lebedev-Laikov grids with approx.  5.0 points / Ang**2.
                        Smoothing algorithm: Karplus/York (Gamma=1.0000).
                        Polarization charges: spherical gaussians, with
                                              point-specific exponents (IZeta= 3).
                        Self-potential: point-specific (ISelfS= 7).
                        Self-field    : sphere-specific E.n sum rule (ISelfD= 2).
 Solvent              : Generic,
                        Eps                           =   2.050000
                        Eps(infinity)                 =   0.000000
                        RSolv                         =   0.000000 Ang.
                        Molar volume                  =   0.000000 cm**3/mol
                        Thermal expansion coefficient =   0.000000 K**-1
                        Absolute temperature          = 298.150000 K
                        Numeral density               =   0.000000 Ang**-3
                        Hydrogen bond acidity         =   0.000000
                        Hydrogen bond basicity        =   0.000000
                        Surface tension at interface  =   0.000000 (cal/mol)*Ang**-2
                        Carbon aromaticity            =   0.000000
                        Electronegative halogenicity  =   0.000000
 ------------------------------------------------------------------------------
 GePol: Number of generator spheres                  =      47
 GePol: Total number of spheres                      =      47
 GePol: Number of exposed spheres                    =      47 (100.00%)
 GePol: Number of points                             =    3414
 GePol: Average weight of points                     =       0.13
 GePol: Minimum weight of points                     =   0.65D-11
 GePol: Maximum weight of points                     =    0.20577
 GePol: Number of points with low weight             =     203
 GePol: Fraction of low-weight points (<1% of avg)   =       5.95%
 GePol: Cavity surface area                          =    440.134 Ang**2
 GePol: Cavity volume                                =    495.384 Ang**3
 Leave Link  301 at Mon Feb  3 21:38:09 2025, MaxMem=  5368709120 cpu:         0.7
 (Enter /home/k0335/k033513/app/g09/l302.exe)
 NPDir=0 NMtPBC=     1 NCelOv=     1 NCel=       1 NClECP=     1 NCelD=      1
         NCelK=      1 NCelE2=     1 NClLst=     1 CellRange=     0.0.
 One-electron integrals computed using PRISM.
 NBasis=   545 RedAO= T EigKep=  8.78D-04  NBF=   545
 NBsUse=   545 1.00D-06 EigRej= -1.00D+00 NBFU=   545
 Precomputing XC quadrature grid using
 IXCGrd= 4 IRadAn=           0 IRanWt=          -1 IRanGd=           0 AccXCQ= 0.00D+00.
 Generated NRdTot=       0 NPtTot=           0 NUsed=           0 NTot=          32
 NSgBfM=   524   524   524   524   524 MxSgAt=    47 MxSgA2=    47.
 Leave Link  302 at Mon Feb  3 21:38:10 2025, MaxMem=  5368709120 cpu:         9.9
 (Enter /home/k0335/k033513/app/g09/l303.exe)
 DipDrv:  MaxL=1.
 Leave Link  303 at Mon Feb  3 21:38:10 2025, MaxMem=  5368709120 cpu:         0.7
 (Enter /home/k0335/k033513/app/g09/l401.exe)
 ExpMin= 1.61D-01 ExpMax= 7.00D+03 ExpMxC= 1.05D+03 IAcc=1 IRadAn=         1 AccDes= 0.00D+00
 Harris functional with IExCor=20419 and IRadAn=       1 diagonalized for initial guess.
 HarFok:  IExCor=20419 AccDes= 0.00D+00 IRadAn=         1 IDoV= 1 UseB2=F ITyADJ=14
 ICtDFT=  3500011 ScaDFX=  1.000000  1.000000  1.000000  1.000000
 FoFCou: FMM=F IPFlag=           0 FMFlag=      100000 FMFlg1=           0
         NFxFlg=           0 DoJE=T BraDBF=F KetDBF=T FulRan=T
         wScrn=  0.000000 ICntrl=     500 IOpCl=  0 I1Cent=   200000004 NGrid=           0
         NMat0=    1 NMatS0=      1 NMatT0=    0 NMatD0=    1 NMtDS0=    0 NMtDT0=    0
 Symmetry not used in FoFCou.
 Harris En= -1925.44344673939    
 JPrj=0 DoOrth=F DoCkMO=F.
 Leave Link  401 at Mon Feb  3 21:38:11 2025, MaxMem=  5368709120 cpu:        11.3
 (Enter /home/k0335/k033513/app/g09/l502.exe)
 Closed shell SCF:
 Using DIIS extrapolation, IDIIS=  1040.
 Two-electron integral symmetry not used.
 IVT=      926069 IEndB=      926069 NGot=  5368709120 MDV=  5368097262
 LenX=  5368097262 LenY=  5367799692
 Requested convergence on RMS density matrix=1.00D-08 within 128 cycles.
 Requested convergence on MAX density matrix=1.00D-06.
 Requested convergence on             energy=1.00D-06.
 No special actions if energy rises.
 Fock matrices will be formed incrementally for  20 cycles.

 Cycle   1  Pass 1  IDiag  1:
 FoFJK:  IHMeth= 1 ICntrl=       0 DoSepK=T KAlg= 0 I1Cent=   0 FoldK=F
 IRaf=         1 NMat=   1 IRICut=       1 DoRegI=T DoRafI=F ISym2E= 0.
 FoFCou: FMM=F IPFlag=           0 FMFlag=      100000 FMFlg1=           0
         NFxFlg=           0 DoJE=T BraDBF=F KetDBF=F FulRan=T
         wScrn=  0.000000 ICntrl=     500 IOpCl=  0 I1Cent=           0 NGrid=           0
         NMat0=    1 NMatS0=      1 NMatT0=    0 NMatD0=    1 NMtDS0=    0 NMtDT0=    0
 Symmetry not used in FoFCou.
 Inv3:  Mode=1 IEnd=    34966188.
 Iteration    1 A*A^-1 deviation from unit magnitude is 6.88D-15 for   3413.
 Iteration    1 A*A^-1 deviation from orthogonality  is 4.04D-15 for   3382   1923.
 Iteration    1 A^-1*A deviation from unit magnitude is 6.99D-15 for    983.
 Iteration    1 A^-1*A deviation from orthogonality  is 3.17D-15 for   2957    131.
 E= -1988.76300897223    
 DIIS: error= 6.13D-02 at cycle   1 NSaved=   1.
 NSaved= 1 IEnMin= 1 EnMin= -1988.76300897223     IErMin= 1 ErrMin= 6.13D-02
 ErrMax= 6.13D-02  0.00D+00 EMaxC= 1.00D-01 BMatC= 1.60D+00 BMatP= 1.60D+00
 IDIUse=3 WtCom= 3.87D-01 WtEn= 6.13D-01
 Coeff-Com:  0.100D+01
 Coeff-En:   0.100D+01
 Coeff:      0.100D+01
 Gap=     0.447 Goal=   None    Shift=    0.000
 GapD=    0.447 DampG=2.000 DampE=0.500 DampFc=1.0000 IDamp=-1.
 RMSDP=2.74D-03 MaxDP=1.42D-01              OVMax= 1.29D-01

 Cycle   2  Pass 1  IDiag  1:
 RMSU=  2.74D-03    CP:  9.93D-01
 E= -1988.99261710103     Delta-E=       -0.229608128805 Rises=F Damp=F
 DIIS: error= 1.78D-02 at cycle   2 NSaved=   2.
 NSaved= 2 IEnMin= 2 EnMin= -1988.99261710103     IErMin= 2 ErrMin= 1.78D-02
 ErrMax= 1.78D-02  0.00D+00 EMaxC= 1.00D-01 BMatC= 5.86D-01 BMatP= 1.60D+00
 IDIUse=3 WtCom= 8.22D-01 WtEn= 1.78D-01
 Coeff-Com:  0.353D+00 0.647D+00
 Coeff-En:   0.340D+00 0.660D+00
 Coeff:      0.351D+00 0.649D+00
 Gap=     0.267 Goal=   None    Shift=    0.000
 RMSDP=1.29D-03 MaxDP=8.25D-02 DE=-2.30D-01 OVMax= 9.18D-02

 Cycle   3  Pass 1  IDiag  1:
 RMSU=  8.03D-04    CP:  1.00D+00  6.34D-01
 E= -1989.26948602318     Delta-E=       -0.276868922142 Rises=F Damp=F
 DIIS: error= 7.13D-03 at cycle   3 NSaved=   3.
 NSaved= 3 IEnMin= 3 EnMin= -1989.26948602318     IErMin= 3 ErrMin= 7.13D-03
 ErrMax= 7.13D-03  0.00D+00 EMaxC= 1.00D-01 BMatC= 1.13D-01 BMatP= 5.86D-01
 IDIUse=3 WtCom= 9.29D-01 WtEn= 7.13D-02
 Coeff-Com:  0.707D-01 0.321D+00 0.608D+00
 Coeff-En:   0.000D+00 0.131D+00 0.869D+00
 Coeff:      0.657D-01 0.307D+00 0.627D+00
 Gap=     0.278 Goal=   None    Shift=    0.000
 RMSDP=5.88D-04 MaxDP=4.46D-02 DE=-2.77D-01 OVMax= 5.95D-02

 Cycle   4  Pass 1  IDiag  1:
 RMSU=  3.08D-04    CP:  9.95D-01  7.25D-01  4.68D-01
 E= -1989.33578321343     Delta-E=       -0.066297190249 Rises=F Damp=F
 DIIS: error= 2.62D-03 at cycle   4 NSaved=   4.
 NSaved= 4 IEnMin= 4 EnMin= -1989.33578321343     IErMin= 4 ErrMin= 2.62D-03
 ErrMax= 2.62D-03  0.00D+00 EMaxC= 1.00D-01 BMatC= 1.06D-02 BMatP= 1.13D-01
 IDIUse=3 WtCom= 9.74D-01 WtEn= 2.62D-02
 Coeff-Com:  0.629D-02 0.990D-01 0.320D+00 0.575D+00
 Coeff-En:   0.000D+00 0.000D+00 0.304D-01 0.970D+00
 Coeff:      0.613D-02 0.964D-01 0.312D+00 0.585D+00
 Gap=     0.267 Goal=   None    Shift=    0.000
 RMSDP=1.76D-04 MaxDP=1.57D-02 DE=-6.63D-02 OVMax= 2.17D-02

 Cycle   5  Pass 1  IDiag  1:
 RMSU=  8.06D-05    CP:  9.95D-01  7.25D-01  6.06D-01  6.45D-01
 E= -1989.34311670507     Delta-E=       -0.007333491640 Rises=F Damp=F
 DIIS: error= 1.04D-03 at cycle   5 NSaved=   5.
 NSaved= 5 IEnMin= 5 EnMin= -1989.34311670507     IErMin= 5 ErrMin= 1.04D-03
 ErrMax= 1.04D-03  0.00D+00 EMaxC= 1.00D-01 BMatC= 6.42D-04 BMatP= 1.06D-02
 IDIUse=3 WtCom= 9.90D-01 WtEn= 1.04D-02
 Coeff-Com:  0.403D-03 0.397D-01 0.150D+00 0.328D+00 0.482D+00
 Coeff-En:   0.000D+00 0.000D+00 0.000D+00 0.000D+00 0.100D+01
 Coeff:      0.398D-03 0.393D-01 0.148D+00 0.325D+00 0.487D+00
 Gap=     0.265 Goal=   None    Shift=    0.000
 RMSDP=3.92D-05 MaxDP=3.90D-03 DE=-7.33D-03 OVMax= 6.48D-03

 Cycle   6  Pass 1  IDiag  1:
 RMSU=  2.31D-05    CP:  9.96D-01  7.27D-01  6.05D-01  6.61D-01  6.18D-01
 E= -1989.34357807625     Delta-E=       -0.000461371181 Rises=F Damp=F
 DIIS: error= 1.48D-04 at cycle   6 NSaved=   6.
 NSaved= 6 IEnMin= 6 EnMin= -1989.34357807625     IErMin= 6 ErrMin= 1.48D-04
 ErrMax= 1.48D-04  0.00D+00 EMaxC= 1.00D-01 BMatC= 2.42D-05 BMatP= 6.42D-04
 IDIUse=3 WtCom= 9.99D-01 WtEn= 1.48D-03
 Coeff-Com: -0.532D-03 0.351D-02 0.194D-01 0.514D-01 0.184D+00 0.742D+00
 Coeff-En:   0.000D+00 0.000D+00 0.000D+00 0.000D+00 0.000D+00 0.100D+01
 Coeff:     -0.531D-03 0.351D-02 0.193D-01 0.513D-01 0.184D+00 0.742D+00
 Gap=     0.265 Goal=   None    Shift=    0.000
 RMSDP=1.19D-05 MaxDP=8.15D-04 DE=-4.61D-04 OVMax= 1.15D-03

 Cycle   7  Pass 1  IDiag  1:
 RMSU=  8.04D-06    CP:  9.95D-01  7.27D-01  6.08D-01  6.76D-01  7.01D-01
                    CP:  9.19D-01
 E= -1989.34359622521     Delta-E=       -0.000018148960 Rises=F Damp=F
 DIIS: error= 5.21D-05 at cycle   7 NSaved=   7.
 NSaved= 7 IEnMin= 7 EnMin= -1989.34359622521     IErMin= 7 ErrMin= 5.21D-05
 ErrMax= 5.21D-05  0.00D+00 EMaxC= 1.00D-01 BMatC= 4.16D-06 BMatP= 2.42D-05
 IDIUse=1 WtCom= 1.00D+00 WtEn= 0.00D+00
 Coeff-Com: -0.231D-03-0.385D-02-0.111D-01-0.205D-01 0.282D-01 0.351D+00
 Coeff-Com:  0.656D+00
 Coeff:     -0.231D-03-0.385D-02-0.111D-01-0.205D-01 0.282D-01 0.351D+00
 Coeff:      0.656D+00
 Gap=     0.265 Goal=   None    Shift=    0.000
 RMSDP=3.83D-06 MaxDP=3.01D-04 DE=-1.81D-05 OVMax= 4.40D-04

 Cycle   8  Pass 1  IDiag  1:
 RMSU=  2.45D-06    CP:  9.95D-01  7.27D-01  6.09D-01  6.75D-01  7.17D-01
                    CP:  1.02D+00  8.49D-01
 E= -1989.34359975213     Delta-E=       -0.000003526921 Rises=F Damp=F
 DIIS: error= 1.42D-05 at cycle   8 NSaved=   8.
 NSaved= 8 IEnMin= 8 EnMin= -1989.34359975213     IErMin= 8 ErrMin= 1.42D-05
 ErrMax= 1.42D-05  0.00D+00 EMaxC= 1.00D-01 BMatC= 2.38D-07 BMatP= 4.16D-06
 IDIUse=1 WtCom= 1.00D+00 WtEn= 0.00D+00
 Coeff-Com: -0.394D-04-0.168D-02-0.540D-02-0.119D-01-0.189D-02 0.645D-01
 Coeff-Com:  0.237D+00 0.720D+00
 Coeff:     -0.394D-04-0.168D-02-0.540D-02-0.119D-01-0.189D-02 0.645D-01
 Coeff:      0.237D+00 0.720D+00
 Gap=     0.265 Goal=   None    Shift=    0.000
 RMSDP=1.26D-06 MaxDP=8.00D-05 DE=-3.53D-06 OVMax= 1.41D-04

 Cycle   9  Pass 1  IDiag  1:
 RMSU=  8.86D-07    CP:  9.95D-01  7.27D-01  6.09D-01  6.75D-01  7.24D-01
                    CP:  1.03D+00  9.09D-01  1.03D+00
 E= -1989.34359998539     Delta-E=       -0.000000233259 Rises=F Damp=F
 DIIS: error= 4.64D-06 at cycle   9 NSaved=   9.
 NSaved= 9 IEnMin= 9 EnMin= -1989.34359998539     IErMin= 9 ErrMin= 4.64D-06
 ErrMax= 4.64D-06  0.00D+00 EMaxC= 1.00D-01 BMatC= 3.25D-08 BMatP= 2.38D-07
 IDIUse=1 WtCom= 1.00D+00 WtEn= 0.00D+00
 Coeff-Com:  0.125D-04-0.107D-03-0.467D-03-0.186D-02-0.381D-02-0.299D-01
 Coeff-Com: -0.428D-02 0.252D+00 0.789D+00
 Coeff:      0.125D-04-0.107D-03-0.467D-03-0.186D-02-0.381D-02-0.299D-01
 Coeff:     -0.428D-02 0.252D+00 0.789D+00
 Gap=     0.265 Goal=   None    Shift=    0.000
 RMSDP=6.22D-07 MaxDP=4.96D-05 DE=-2.33D-07 OVMax= 6.32D-05

 Cycle  10  Pass 1  IDiag  1:
 RMSU=  3.27D-07    CP:  9.95D-01  7.27D-01  6.09D-01  6.75D-01  7.27D-01
                    CP:  1.04D+00  9.41D-01  1.14D+00  9.65D-01
 E= -1989.34360002686     Delta-E=       -0.000000041470 Rises=F Damp=F
 DIIS: error= 1.93D-06 at cycle  10 NSaved=  10.
 NSaved=10 IEnMin=10 EnMin= -1989.34360002686     IErMin=10 ErrMin= 1.93D-06
 ErrMax= 1.93D-06  0.00D+00 EMaxC= 1.00D-01 BMatC= 3.51D-09 BMatP= 3.25D-08
 IDIUse=1 WtCom= 1.00D+00 WtEn= 0.00D+00
 Coeff-Com:  0.104D-04 0.182D-03 0.543D-03 0.852D-03-0.457D-03-0.184D-01
 Coeff-Com: -0.299D-01-0.190D-01 0.257D+00 0.809D+00
 Coeff:      0.104D-04 0.182D-03 0.543D-03 0.852D-03-0.457D-03-0.184D-01
 Coeff:     -0.299D-01-0.190D-01 0.257D+00 0.809D+00
 Gap=     0.265 Goal=   None    Shift=    0.000
 RMSDP=2.07D-07 MaxDP=1.50D-05 DE=-4.15D-08 OVMax= 3.09D-05

 Cycle  11  Pass 1  IDiag  1:
 RMSU=  9.70D-08    CP:  9.95D-01  7.27D-01  6.09D-01  6.75D-01  7.28D-01
                    CP:  1.04D+00  9.52D-01  1.18D+00  1.09D+00  9.76D-01
 E= -1989.34360003101     Delta-E=       -0.000000004155 Rises=F Damp=F
 DIIS: error= 1.32D-06 at cycle  11 NSaved=  11.
 NSaved=11 IEnMin=11 EnMin= -1989.34360003101     IErMin=11 ErrMin= 1.32D-06
 ErrMax= 1.32D-06  0.00D+00 EMaxC= 1.00D-01 BMatC= 6.85D-10 BMatP= 3.51D-09
 IDIUse=1 WtCom= 1.00D+00 WtEn= 0.00D+00
 Coeff-Com:  0.454D-05 0.105D-03 0.325D-03 0.589D-03 0.188D-03-0.730D-02
 Coeff-Com: -0.148D-01-0.295D-01 0.733D-01 0.410D+00 0.567D+00
 Coeff:      0.454D-05 0.105D-03 0.325D-03 0.589D-03 0.188D-03-0.730D-02
 Coeff:     -0.148D-01-0.295D-01 0.733D-01 0.410D+00 0.567D+00
 Gap=     0.265 Goal=   None    Shift=    0.000
 RMSDP=5.75D-08 MaxDP=5.48D-06 DE=-4.16D-09 OVMax= 6.89D-06

 Cycle  12  Pass 1  IDiag  1:
 RMSU=  4.05D-08    CP:  9.95D-01  7.27D-01  6.09D-01  6.75D-01  7.28D-01
                    CP:  1.04D+00  9.53D-01  1.19D+00  1.11D+00  1.04D+00
                    CP:  8.48D-01
 E= -1989.34360003170     Delta-E=       -0.000000000684 Rises=F Damp=F
 DIIS: error= 2.78D-07 at cycle  12 NSaved=  12.
 NSaved=12 IEnMin=12 EnMin= -1989.34360003170     IErMin=12 ErrMin= 2.78D-07
 ErrMax= 2.78D-07  0.00D+00 EMaxC= 1.00D-01 BMatC= 8.85D-11 BMatP= 6.85D-10
 IDIUse=1 WtCom= 1.00D+00 WtEn= 0.00D+00
 Coeff-Com: -0.168D-06 0.117D-04 0.409D-04 0.963D-04 0.275D-03 0.472D-03
 Coeff-Com: -0.344D-03-0.988D-02-0.190D-01 0.199D-01 0.263D+00 0.745D+00
 Coeff:     -0.168D-06 0.117D-04 0.409D-04 0.963D-04 0.275D-03 0.472D-03
 Coeff:     -0.344D-03-0.988D-02-0.190D-01 0.199D-01 0.263D+00 0.745D+00
 Gap=     0.265 Goal=   None    Shift=    0.000
 RMSDP=2.28D-08 MaxDP=1.64D-06 DE=-6.84D-10 OVMax= 4.39D-06

 Cycle  13  Pass 1  IDiag  1:
 RMSU=  1.24D-08    CP:  9.95D-01  7.27D-01  6.09D-01  6.75D-01  7.28D-01
                    CP:  1.04D+00  9.53D-01  1.19D+00  1.12D+00  1.07D+00
                    CP:  9.72D-01  8.67D-01
 E= -1989.34360003162     Delta-E=        0.000000000077 Rises=F Damp=F
 DIIS: error= 1.02D-07 at cycle  13 NSaved=  13.
 NSaved=13 IEnMin=12 EnMin= -1989.34360003170     IErMin=13 ErrMin= 1.02D-07
 ErrMax= 1.02D-07  0.00D+00 EMaxC= 1.00D-01 BMatC= 1.12D-11 BMatP= 8.85D-11
 IDIUse=1 WtCom= 1.00D+00 WtEn= 0.00D+00
 Coeff-Com: -0.523D-06-0.420D-05-0.103D-04-0.960D-05 0.126D-03 0.903D-03
 Coeff-Com:  0.126D-02-0.211D-02-0.167D-01-0.310D-01 0.672D-01 0.358D+00
 Coeff-Com:  0.622D+00
 Coeff:     -0.523D-06-0.420D-05-0.103D-04-0.960D-05 0.126D-03 0.903D-03
 Coeff:      0.126D-02-0.211D-02-0.167D-01-0.310D-01 0.672D-01 0.358D+00
 Coeff:      0.622D+00
 Gap=     0.265 Goal=   None    Shift=    0.000
 RMSDP=7.35D-09 MaxDP=5.89D-07 DE= 7.73D-11 OVMax= 6.62D-07

 Error on total polarization charges =  0.00382
 SCF Done:  E(RCAM-B3LYP) =  -1989.34360003     A.U. after   13 cycles
            NFock= 13  Conv=0.73D-08     -V/T= 2.0076
 KE= 1.974291892554D+03 PE=-1.227632081386D+04 EE= 4.518208813803D+03
 Leave Link  502 at Mon Feb  3 21:38:54 2025, MaxMem=  5368709120 cpu:       953.5
 (Enter /home/k0335/k033513/app/g09/l601.exe)
 Copying SCF densities to generalized density rwf, IOpCl= 0 IROHF=0.

 **********************************************************************

            Population analysis using the SCF density.

 **********************************************************************

 Alpha  occ. eigenvalues --  -24.84077 -24.83227 -24.82741 -24.82704 -24.82645
 Alpha  occ. eigenvalues --  -24.82621 -24.82100 -24.82064 -24.81506 -24.81431
 Alpha  occ. eigenvalues --  -19.31643 -19.30322 -19.25340 -19.21702 -14.45498
 Alpha  occ. eigenvalues --  -14.39437 -10.52611 -10.49436 -10.48983 -10.47426
 Alpha  occ. eigenvalues --  -10.47161 -10.44461 -10.42970 -10.39802 -10.30324
 Alpha  occ. eigenvalues --  -10.28346 -10.27781 -10.27488 -10.25379 -10.24805
 Alpha  occ. eigenvalues --  -10.24690  -1.40623  -1.38413  -1.38195  -1.37056
 Alpha  occ. eigenvalues --   -1.35446  -1.34934  -1.32780  -1.31794  -1.31042
 Alpha  occ. eigenvalues --   -1.30128  -1.22216  -1.19813  -1.13768  -1.12325
 Alpha  occ. eigenvalues --   -1.02033  -1.00044  -0.97754  -0.90499  -0.88292
 Alpha  occ. eigenvalues --   -0.87839  -0.84161  -0.82870  -0.81056  -0.77993
 Alpha  occ. eigenvalues --   -0.76636  -0.73861  -0.73463  -0.70971  -0.70683
 Alpha  occ. eigenvalues --   -0.70448  -0.69897  -0.69411  -0.68234  -0.67171
 Alpha  occ. eigenvalues --   -0.66572  -0.66199  -0.65619  -0.65383  -0.64835
 Alpha  occ. eigenvalues --   -0.63759  -0.63708  -0.61708  -0.59721  -0.58366
 Alpha  occ. eigenvalues --   -0.57894  -0.57065  -0.56830  -0.56465  -0.56336
 Alpha  occ. eigenvalues --   -0.55923  -0.55520  -0.54512  -0.54187  -0.53978
 Alpha  occ. eigenvalues --   -0.53882  -0.53309  -0.52682  -0.52415  -0.52319
 Alpha  occ. eigenvalues --   -0.52073  -0.51822  -0.51619  -0.51153  -0.50912
 Alpha  occ. eigenvalues --   -0.50359  -0.50282  -0.49977  -0.49346  -0.48590
 Alpha  occ. eigenvalues --   -0.48213  -0.47976  -0.46910  -0.46818  -0.46486
 Alpha  occ. eigenvalues --   -0.45430  -0.45146  -0.44398  -0.43540  -0.43291
 Alpha  occ. eigenvalues --   -0.42068  -0.41997  -0.41058  -0.41053  -0.38209
 Alpha  occ. eigenvalues --   -0.37801  -0.37260  -0.36767  -0.34553  -0.32687
 Alpha  occ. eigenvalues --   -0.26824
 Alpha virt. eigenvalues --   -0.00294   0.02406   0.04312   0.09103   0.09549
 Alpha virt. eigenvalues --    0.11199   0.12367   0.12976   0.13696   0.15608
 Alpha virt. eigenvalues --    0.16192   0.16826   0.17251   0.18509   0.18818
 Alpha virt. eigenvalues --    0.19567   0.19898   0.20433   0.20728   0.21496
 Alpha virt. eigenvalues --    0.21776   0.23011   0.23819   0.24050   0.24474
 Alpha virt. eigenvalues --    0.25099   0.25542   0.25752   0.25912   0.27058
 Alpha virt. eigenvalues --    0.27242   0.28259   0.28848   0.29394   0.29864
 Alpha virt. eigenvalues --    0.30430   0.30753   0.31572   0.32199   0.32855
 Alpha virt. eigenvalues --    0.32936   0.34427   0.34727   0.35977   0.37591
 Alpha virt. eigenvalues --    0.38088   0.39518   0.39891   0.42169   0.44973
 Alpha virt. eigenvalues --    0.48842   0.49719   0.51087   0.51173   0.54305
 Alpha virt. eigenvalues --    0.54771   0.55320   0.56135   0.57309   0.57549
 Alpha virt. eigenvalues --    0.58484   0.59040   0.59869   0.61086   0.61449
 Alpha virt. eigenvalues --    0.61599   0.62322   0.63086   0.63827   0.64497
 Alpha virt. eigenvalues --    0.65452   0.66050   0.66549   0.66958   0.67907
 Alpha virt. eigenvalues --    0.68251   0.69818   0.70526   0.71154   0.71924
 Alpha virt. eigenvalues --    0.72298   0.73292   0.73697   0.75429   0.75729
 Alpha virt. eigenvalues --    0.76807   0.77150   0.78252   0.78665   0.79343
 Alpha virt. eigenvalues --    0.79788   0.82633   0.84270   0.85287   0.86277
 Alpha virt. eigenvalues --    0.86649   0.87787   0.88238   0.89306   0.89723
 Alpha virt. eigenvalues --    0.90303   0.90928   0.91572   0.91802   0.92402
 Alpha virt. eigenvalues --    0.93523   0.94268   0.94817   0.95234   0.95509
 Alpha virt. eigenvalues --    0.96910   0.97113   0.97726   0.98336   0.99445
 Alpha virt. eigenvalues --    0.99705   1.00906   1.00942   1.01605   1.02185
 Alpha virt. eigenvalues --    1.03206   1.04250   1.04498   1.05789   1.05913
 Alpha virt. eigenvalues --    1.07186   1.09472   1.10093   1.11155   1.11707
 Alpha virt. eigenvalues --    1.12347   1.14911   1.16076   1.16629   1.17087
 Alpha virt. eigenvalues --    1.18993   1.19990   1.20603   1.21511   1.22432
 Alpha virt. eigenvalues --    1.23691   1.24551   1.26324   1.26713   1.27907
 Alpha virt. eigenvalues --    1.28171   1.28803   1.29780   1.31541   1.31986
 Alpha virt. eigenvalues --    1.32813   1.34230   1.35098   1.35727   1.36086
 Alpha virt. eigenvalues --    1.36732   1.37377   1.38595   1.38654   1.39378
 Alpha virt. eigenvalues --    1.40304   1.40879   1.41353   1.41877   1.42675
 Alpha virt. eigenvalues --    1.43678   1.44325   1.45329   1.45730   1.46924
 Alpha virt. eigenvalues --    1.49254   1.49527   1.50676   1.51093   1.51252
 Alpha virt. eigenvalues --    1.51633   1.52558   1.53173   1.53940   1.56509
 Alpha virt. eigenvalues --    1.58326   1.58385   1.59351   1.59592   1.60049
 Alpha virt. eigenvalues --    1.61242   1.61654   1.63418   1.64193   1.65395
 Alpha virt. eigenvalues --    1.66718   1.67924   1.68714   1.69265   1.70232
 Alpha virt. eigenvalues --    1.71097   1.71714   1.72799   1.72926   1.73461
 Alpha virt. eigenvalues --    1.74132   1.74548   1.76256   1.77193   1.77569
 Alpha virt. eigenvalues --    1.78517   1.78847   1.79841   1.80430   1.80967
 Alpha virt. eigenvalues --    1.82909   1.83534   1.83974   1.84240   1.84963
 Alpha virt. eigenvalues --    1.85827   1.86986   1.87298   1.87742   1.88401
 Alpha virt. eigenvalues --    1.88918   1.89150   1.89580   1.90374   1.91125
 Alpha virt. eigenvalues --    1.91432   1.92424   1.93254   1.93703   1.93979
 Alpha virt. eigenvalues --    1.94781   1.95800   1.96820   1.97228   1.97386
 Alpha virt. eigenvalues --    1.98667   1.99216   2.00134   2.01540   2.01711
 Alpha virt. eigenvalues --    2.02081   2.03339   2.03638   2.03973   2.04115
 Alpha virt. eigenvalues --    2.05056   2.05582   2.06040   2.06548   2.07657
 Alpha virt. eigenvalues --    2.08116   2.08776   2.09110   2.10426   2.10941
 Alpha virt. eigenvalues --    2.11098   2.11482   2.12415   2.12796   2.13781
 Alpha virt. eigenvalues --    2.14582   2.16262   2.16622   2.17404   2.17760
 Alpha virt. eigenvalues --    2.18346   2.19516   2.20248   2.20968   2.21987
 Alpha virt. eigenvalues --    2.23499   2.24118   2.24325   2.25608   2.26406
 Alpha virt. eigenvalues --    2.27153   2.28888   2.30344   2.30508   2.30887
 Alpha virt. eigenvalues --    2.31315   2.31455   2.32688   2.34575   2.34811
 Alpha virt. eigenvalues --    2.35001   2.36481   2.37317   2.37622   2.38477
 Alpha virt. eigenvalues --    2.39014   2.39730   2.39923   2.41837   2.42376
 Alpha virt. eigenvalues --    2.43006   2.43602   2.43937   2.44445   2.44740
 Alpha virt. eigenvalues --    2.45668   2.47693   2.48007   2.49410   2.51570
 Alpha virt. eigenvalues --    2.52771   2.53010   2.53867   2.54712   2.56863
 Alpha virt. eigenvalues --    2.58037   2.59907   2.60467   2.61321   2.61818
 Alpha virt. eigenvalues --    2.63661   2.65351   2.65894   2.66089   2.66685
 Alpha virt. eigenvalues --    2.67825   2.68838   2.69568   2.70867   2.71755
 Alpha virt. eigenvalues --    2.72240   2.74103   2.74597   2.74976   2.76525
 Alpha virt. eigenvalues --    2.77893   2.78804   2.78981   2.79462   2.81734
 Alpha virt. eigenvalues --    2.82683   2.83511   2.83858   2.84440   2.86811
 Alpha virt. eigenvalues --    2.87621   2.88363   2.88798   2.90161   2.90370
 Alpha virt. eigenvalues --    2.92406   2.92759   2.93363   2.94021   2.94432
 Alpha virt. eigenvalues --    2.95244   2.96400   2.96613   2.96702   2.98354
 Alpha virt. eigenvalues --    3.00692   3.01022   3.02424   3.04255   3.04651
 Alpha virt. eigenvalues --    3.06665   3.07877   3.08797   3.09634   3.10587
 Alpha virt. eigenvalues --    3.13060   3.14274   3.15919   3.17609   3.18210
 Alpha virt. eigenvalues --    3.23165   3.24155   3.26625   3.28709   3.29255
 Alpha virt. eigenvalues --    3.30679   3.32890   3.34445   3.34530   3.35605
 Alpha virt. eigenvalues --    3.36577   3.40983   3.42704   3.45911   3.47469
 Alpha virt. eigenvalues --    3.47793   3.50423   3.56024   3.56192   3.57830
 Alpha virt. eigenvalues --    3.59747   3.63299   3.64087   3.97066   4.15292
 Alpha virt. eigenvalues --    4.18298   4.22787   4.27082   4.29411   4.36306
 Alpha virt. eigenvalues --    4.39348   4.41290   4.45993   4.52631   4.53003
 Alpha virt. eigenvalues --    4.53722   4.62659   4.65926   4.71131   4.74470
 Alpha virt. eigenvalues --    4.75992   4.82688   4.83530   4.88170   5.00641
 Alpha virt. eigenvalues --    5.15922   5.22841   5.42082   5.49034   5.58908
 Alpha virt. eigenvalues --    5.77963   6.14720   6.71323   7.26247
          Condensed to atoms (all electrons):
               1          2          3          4          5          6
     1  F    9.044592   0.302479  -0.041907  -0.022027  -0.000122  -0.000294
     2  C    0.302479   4.421762   0.268211   0.191102  -0.022758  -0.022450
     3  F   -0.041907   0.268211   9.092242  -0.027112   0.000002   0.000352
     4  C   -0.022027   0.191102  -0.027112   4.812339   0.274648   0.241647
     5  F   -0.000122  -0.022758   0.000002   0.274648   9.059398  -0.042594
     6  F   -0.000294  -0.022450   0.000352   0.241647  -0.042594   9.106645
     7  C    0.002288  -0.080685  -0.001442   0.117612  -0.034099  -0.027480
     8  F   -0.000001   0.001727  -0.000001  -0.010783  -0.000202  -0.001429
     9  C    0.000015  -0.002307   0.008553  -0.036792  -0.000644   0.002074
    10  F    0.000000  -0.000040   0.000000   0.002104   0.000002  -0.000001
    11  C    0.000000  -0.000534  -0.000700  -0.004841   0.015286  -0.000080
    12  O    0.000000   0.000008   0.000000  -0.000429  -0.000803   0.000001
    13  O    0.000000  -0.000217   0.000051   0.003381  -0.004397  -0.000001
    14  F    0.000000   0.008507  -0.007774   0.003857  -0.000250  -0.000001
    15  C    0.000417  -0.015284  -0.000119  -0.049144   0.002018   0.003688
    16  F   -0.000003   0.000109   0.000002   0.001688  -0.000001   0.000000
    17  C    0.000171   0.003903   0.000000  -0.008712   0.000012   0.004410
    18  F    0.000000   0.000015   0.000000   0.000041   0.000000  -0.000001
    19  C   -0.000001   0.000154   0.000001   0.000448  -0.000001  -0.000451
    20  N    0.000000  -0.000005   0.000000   0.000014   0.000000   0.000000
    21  C    0.000000   0.000000   0.000000   0.000000   0.000000   0.000000
    22  C    0.000000   0.000000   0.000000   0.000000   0.000000   0.000000
    23  N    0.000000   0.000000   0.000000   0.000000   0.000000   0.000000
    24  C    0.000000   0.000000   0.000000   0.000000   0.000000   0.000000
    25  C    0.000000   0.000000   0.000000   0.000000   0.000000   0.000000
    26  C    0.000000   0.000000   0.000000   0.000000   0.000000   0.000000
    27  C    0.000000   0.000000   0.000000   0.000000   0.000000   0.000000
    28  C    0.000000   0.000000   0.000000   0.000000   0.000000   0.000000
    29  O    0.000000   0.000000   0.000000  -0.000098   0.000000   0.000014
    30  F   -0.000078   0.002956   0.000000   0.001377   0.000000  -0.005020
    31  O   -0.041954   0.192552  -0.049945  -0.033901   0.000703  -0.000734
    32  H    0.000000   0.000000   0.000000  -0.000080  -0.000012   0.000000
    33  H    0.000000   0.000000   0.000000  -0.000004   0.000000   0.000000
    34  H    0.000000   0.000000   0.000000   0.000000   0.000000   0.000000
    35  H    0.000000   0.000000   0.000000   0.000000   0.000000   0.000000
    36  H    0.000000   0.000000   0.000000   0.000000   0.000000   0.000000
    37  H    0.000000   0.000000   0.000000   0.000000   0.000000   0.000000
    38  H    0.000000   0.000000   0.000000   0.000000   0.000000   0.000000
    39  H    0.000000   0.000000   0.000000   0.000000   0.000000   0.000000
    40  H    0.000000   0.000000   0.000000   0.000000   0.000000   0.000000
    41  H    0.000000   0.000000   0.000000   0.000000   0.000000   0.000000
    42  H    0.000000   0.000000   0.000000   0.000000   0.000000   0.000000
    43  H    0.000000   0.000000   0.000000   0.000000   0.000000   0.000000
    44  H    0.000000   0.000000   0.000000   0.000000   0.000000   0.000000
    45  H    0.000000   0.000000   0.000000   0.000000   0.000000   0.000000
    46  H    0.000000   0.000000   0.000000   0.000000   0.000000   0.000000
    47  H    0.000000   0.000000   0.000000   0.000000   0.000000   0.000000
               7          8          9         10         11         12
     1  F    0.002288  -0.000001   0.000015   0.000000   0.000000   0.000000
     2  C   -0.080685   0.001727  -0.002307  -0.000040  -0.000534   0.000008
     3  F   -0.001442  -0.000001   0.008553   0.000000  -0.000700   0.000000
     4  C    0.117612  -0.010783  -0.036792   0.002104  -0.004841  -0.000429
     5  F   -0.034099  -0.000202  -0.000644   0.000002   0.015286  -0.000803
     6  F   -0.027480  -0.001429   0.002074  -0.000001  -0.000080   0.000001
     7  C    5.584131   0.211751   0.182898  -0.020309  -0.065611   0.008417
     8  F    0.211751   9.111471  -0.024752  -0.000632   0.000352   0.000424
     9  C    0.182898  -0.024752   4.639097   0.240770   0.251967  -0.079923
    10  F   -0.020309  -0.000632   0.240770   9.126006  -0.027730   0.001588
    11  C   -0.065611   0.000352   0.251967  -0.027730   4.535797   0.257217
    12  O    0.008417   0.000424  -0.079923   0.001588   0.257217   8.095738
    13  O   -0.001791   0.000028  -0.050571   0.000662   0.546508  -0.095265
    14  F   -0.043933   0.000350   0.254372  -0.039504  -0.026310   0.000612
    15  C    0.106441  -0.029475  -0.027627  -0.001818   0.004402  -0.000070
    16  F   -0.028634   0.000281   0.012731  -0.002754   0.000274   0.000000
    17  C   -0.044127   0.007665   0.003323  -0.000344  -0.000057   0.000000
    18  F    0.002169   0.000004  -0.000017   0.000000   0.000000   0.000000
    19  C   -0.001687   0.008439  -0.000532   0.000295  -0.000012   0.000001
    20  N   -0.000356  -0.000696   0.000036  -0.000036  -0.000001   0.000000
    21  C   -0.000007   0.000015  -0.000001   0.000004   0.000000   0.000000
    22  C   -0.000001   0.000000   0.000000   0.000000   0.000000   0.000000
    23  N    0.000000   0.000000   0.000000   0.000000   0.000000   0.000000
    24  C    0.000000   0.000000   0.000000   0.000000   0.000000   0.000000
    25  C    0.000000   0.000000   0.000000   0.000000   0.000000   0.000000
    26  C    0.000000   0.000000   0.000000   0.000000   0.000000   0.000000
    27  C    0.000000   0.000000   0.000000   0.000000   0.000000   0.000000
    28  C    0.000000   0.000000   0.000000   0.000000   0.000000   0.000000
    29  O    0.003063  -0.003623  -0.000025   0.000000   0.000003   0.000000
    30  F    0.006067  -0.000751   0.000013   0.000000   0.000001   0.000000
    31  O   -0.027618   0.000828  -0.003477   0.000020  -0.000028   0.000000
    32  H   -0.000271   0.000122   0.007824  -0.000145  -0.013118   0.283069
    33  H    0.000341  -0.000018  -0.000003   0.000006   0.000000   0.000000
    34  H    0.000023  -0.000011  -0.000001   0.000003   0.000000   0.000000
    35  H    0.000001   0.000000   0.000000   0.000000   0.000000   0.000000
    36  H    0.000000   0.000000   0.000000   0.000000   0.000000   0.000000
    37  H    0.000000   0.000000   0.000000   0.000000   0.000000   0.000000
    38  H    0.000000   0.000000   0.000000   0.000000   0.000000   0.000000
    39  H    0.000000   0.000000   0.000000   0.000000   0.000000   0.000000
    40  H    0.000000   0.000000   0.000000   0.000000   0.000000   0.000000
    41  H    0.000000   0.000000   0.000000   0.000000   0.000000   0.000000
    42  H    0.000000   0.000000   0.000000   0.000000   0.000000   0.000000
    43  H    0.000000   0.000000   0.000000   0.000000   0.000000   0.000000
    44  H    0.000000   0.000000   0.000000   0.000000   0.000000   0.000000
    45  H    0.000000   0.000000   0.000000   0.000000   0.000000   0.000000
    46  H    0.000000   0.000000   0.000000   0.000000   0.000000   0.000000
    47  H    0.000000   0.000000   0.000000   0.000000   0.000000   0.000000
              13         14         15         16         17         18
     1  F    0.000000   0.000000   0.000417  -0.000003   0.000171   0.000000
     2  C   -0.000217   0.008507  -0.015284   0.000109   0.003903   0.000015
     3  F    0.000051  -0.007774  -0.000119   0.000002   0.000000   0.000000
     4  C    0.003381   0.003857  -0.049144   0.001688  -0.008712   0.000041
     5  F   -0.004397  -0.000250   0.002018  -0.000001   0.000012   0.000000
     6  F   -0.000001  -0.000001   0.003688   0.000000   0.004410  -0.000001
     7  C   -0.001791  -0.043933   0.106441  -0.028634  -0.044127   0.002169
     8  F    0.000028   0.000350  -0.029475   0.000281   0.007665   0.000004
     9  C   -0.050571   0.254372  -0.027627   0.012731   0.003323  -0.000017
    10  F    0.000662  -0.039504  -0.001818  -0.002754  -0.000344   0.000000
    11  C    0.546508  -0.026310   0.004402   0.000274  -0.000057   0.000000
    12  O   -0.095265   0.000612  -0.000070   0.000000   0.000000   0.000000
    13  O    8.038098  -0.001370  -0.000100   0.000000   0.000000   0.000000
    14  F   -0.001370   9.105815   0.012224  -0.002567   0.000132   0.000000
    15  C   -0.000100   0.012224   5.041371   0.234911   0.220159  -0.021797
    16  F    0.000000  -0.002567   0.234911   9.129226  -0.029787  -0.000670
    17  C    0.000000   0.000132   0.220159  -0.029787   4.673952   0.248606
    18  F    0.000000   0.000000  -0.021797  -0.000670   0.248606   9.123063
    19  C    0.000000   0.000005  -0.079559   0.000372   0.249177  -0.037971
    20  N    0.000000   0.000000   0.008625  -0.001077  -0.088876   0.000415
    21  C    0.000000   0.000000  -0.000087   0.000042   0.003845   0.000057
    22  C    0.000000   0.000000   0.000015   0.000000  -0.000373   0.000005
    23  N    0.000000   0.000000   0.000000   0.000000   0.000001   0.000000
    24  C    0.000000   0.000000   0.000000   0.000000   0.000000   0.000000
    25  C    0.000000   0.000000   0.000000   0.000000   0.000000   0.000000
    26  C    0.000000   0.000000   0.000000   0.000000   0.000000   0.000000
    27  C    0.000000   0.000000   0.000000   0.000000   0.000000   0.000000
    28  C    0.000000   0.000000   0.000000   0.000000   0.000000   0.000000
    29  O    0.000000   0.000000  -0.000802   0.000021  -0.050469   0.000714
    30  F    0.000000   0.000000  -0.034955   0.000326   0.269856  -0.040437
    31  O    0.000000  -0.001636   0.160224  -0.043514  -0.031883  -0.000171
    32  H    0.008157  -0.000034   0.000013   0.000000   0.000000   0.000000
    33  H    0.000000   0.000000  -0.001758   0.005879   0.002630   0.008063
    34  H    0.000000   0.000000  -0.000082   0.000003   0.000355  -0.000006
    35  H    0.000000   0.000000  -0.000015   0.000010  -0.000088  -0.000006
    36  H    0.000000   0.000000   0.000000   0.000000   0.000009  -0.000004
    37  H    0.000000   0.000000  -0.000001   0.000000   0.000087  -0.000006
    38  H    0.000000   0.000000   0.000000   0.000000   0.000000   0.000000
    39  H    0.000000   0.000000   0.000000   0.000000   0.000000   0.000000
    40  H    0.000000   0.000000   0.000000   0.000000   0.000000   0.000000
    41  H    0.000000   0.000000   0.000000   0.000000   0.000000   0.000000
    42  H    0.000000   0.000000   0.000000   0.000000   0.000000   0.000000
    43  H    0.000000   0.000000   0.000000   0.000000   0.000000   0.000000
    44  H    0.000000   0.000000   0.000000   0.000000   0.000000   0.000000
    45  H    0.000000   0.000000   0.000000   0.000000   0.000000   0.000000
    46  H    0.000000   0.000000   0.000000   0.000000   0.000000   0.000000
    47  H    0.000000   0.000000   0.000000   0.000000   0.000000   0.000000
              19         20         21         22         23         24
     1  F   -0.000001   0.000000   0.000000   0.000000   0.000000   0.000000
     2  C    0.000154  -0.000005   0.000000   0.000000   0.000000   0.000000
     3  F    0.000001   0.000000   0.000000   0.000000   0.000000   0.000000
     4  C    0.000448   0.000014   0.000000   0.000000   0.000000   0.000000
     5  F   -0.000001   0.000000   0.000000   0.000000   0.000000   0.000000
     6  F   -0.000451   0.000000   0.000000   0.000000   0.000000   0.000000
     7  C   -0.001687  -0.000356  -0.000007  -0.000001   0.000000   0.000000
     8  F    0.008439  -0.000696   0.000015   0.000000   0.000000   0.000000
     9  C   -0.000532   0.000036  -0.000001   0.000000   0.000000   0.000000
    10  F    0.000295  -0.000036   0.000004   0.000000   0.000000   0.000000
    11  C   -0.000012  -0.000001   0.000000   0.000000   0.000000   0.000000
    12  O    0.000001   0.000000   0.000000   0.000000   0.000000   0.000000
    13  O    0.000000   0.000000   0.000000   0.000000   0.000000   0.000000
    14  F    0.000005   0.000000   0.000000   0.000000   0.000000   0.000000
    15  C   -0.079559   0.008625  -0.000087   0.000015   0.000000   0.000000
    16  F    0.000372  -0.001077   0.000042   0.000000   0.000000   0.000000
    17  C    0.249177  -0.088876   0.003845  -0.000373   0.000001   0.000000
    18  F   -0.037971   0.000415   0.000057   0.000005   0.000000   0.000000
    19  C    4.635913   0.218083  -0.030320  -0.003890   0.000008   0.000002
    20  N    0.218083   7.046594   0.236607  -0.048910   0.002653  -0.000106
    21  C   -0.030320   0.236607   4.864440   0.362078  -0.042712  -0.003627
    22  C   -0.003890  -0.048910   0.362078   4.838325   0.305300  -0.044246
    23  N    0.000008   0.002653  -0.042712   0.305300   6.934840   0.311666
    24  C    0.000002  -0.000106  -0.003627  -0.044246   0.311666   4.797499
    25  C    0.000000  -0.000001   0.000211   0.004505  -0.040206   0.374156
    26  C    0.000000   0.000000  -0.000014  -0.000004  -0.005681  -0.043142
    27  C    0.000000   0.000001  -0.000188   0.004773  -0.045853  -0.019605
    28  C   -0.000008  -0.000097   0.004255  -0.039095   0.305374  -0.048763
    29  O    0.549258  -0.103657   0.006656  -0.004999   0.000016  -0.000001
    30  F   -0.024504   0.001493  -0.000012   0.000001   0.000000   0.000000
    31  O    0.002386  -0.000002   0.000001   0.000000   0.000000   0.000000
    32  H    0.000000   0.000000   0.000000   0.000000   0.000000   0.000000
    33  H   -0.028538   0.340217  -0.024623   0.000215  -0.000051  -0.000001
    34  H   -0.004758  -0.034681   0.383869  -0.038515   0.006336  -0.000771
    35  H    0.005487  -0.034344   0.387845  -0.042193  -0.002814   0.004947
    36  H    0.000225   0.004636  -0.056695   0.359259  -0.050700  -0.009728
    37  H    0.005082  -0.006733  -0.028453   0.389369  -0.034424   0.004795
    38  H   -0.000003  -0.000041   0.001287  -0.000775  -0.051234   0.395236
    39  H    0.000000   0.000114  -0.002848  -0.010905  -0.052288   0.366664
    40  H    0.000000   0.000000  -0.000005  -0.000057   0.003146  -0.031036
    41  H    0.000000   0.000000   0.000008  -0.000155  -0.000788  -0.038608
    42  H    0.000000   0.000000   0.000005  -0.000087   0.000593  -0.004245
    43  H    0.000000   0.000000   0.000000   0.000000   0.000072   0.004858
    44  H    0.000000   0.000000   0.000002  -0.000172   0.003950   0.000091
    45  H    0.000000   0.000000   0.000002  -0.000048   0.000769   0.000612
    46  H    0.000000   0.000011  -0.000227  -0.007592  -0.056928  -0.003751
    47  H   -0.000004  -0.000006   0.000193  -0.003977  -0.036620   0.005072
              25         26         27         28         29         30
     1  F    0.000000   0.000000   0.000000   0.000000   0.000000  -0.000078
     2  C    0.000000   0.000000   0.000000   0.000000   0.000000   0.002956
     3  F    0.000000   0.000000   0.000000   0.000000   0.000000   0.000000
     4  C    0.000000   0.000000   0.000000   0.000000  -0.000098   0.001377
     5  F    0.000000   0.000000   0.000000   0.000000   0.000000   0.000000
     6  F    0.000000   0.000000   0.000000   0.000000   0.000014  -0.005020
     7  C    0.000000   0.000000   0.000000   0.000000   0.003063   0.006067
     8  F    0.000000   0.000000   0.000000   0.000000  -0.003623  -0.000751
     9  C    0.000000   0.000000   0.000000   0.000000  -0.000025   0.000013
    10  F    0.000000   0.000000   0.000000   0.000000   0.000000   0.000000
    11  C    0.000000   0.000000   0.000000   0.000000   0.000003   0.000001
    12  O    0.000000   0.000000   0.000000   0.000000   0.000000   0.000000
    13  O    0.000000   0.000000   0.000000   0.000000   0.000000   0.000000
    14  F    0.000000   0.000000   0.000000   0.000000   0.000000   0.000000
    15  C    0.000000   0.000000   0.000000   0.000000  -0.000802  -0.034955
    16  F    0.000000   0.000000   0.000000   0.000000   0.000021   0.000326
    17  C    0.000000   0.000000   0.000000   0.000000  -0.050469   0.269856
    18  F    0.000000   0.000000   0.000000   0.000000   0.000714  -0.040437
    19  C    0.000000   0.000000   0.000000  -0.000008   0.549258  -0.024504
    20  N   -0.000001   0.000000   0.000001  -0.000097  -0.103657   0.001493
    21  C    0.000211  -0.000014  -0.000188   0.004255   0.006656  -0.000012
    22  C    0.004505  -0.000004   0.004773  -0.039095  -0.004999   0.000001
    23  N   -0.040206  -0.005681  -0.045853   0.305374   0.000016   0.000000
    24  C    0.374156  -0.043142  -0.019605  -0.048763  -0.000001   0.000000
    25  C    4.922860   0.375281  -0.045093  -0.005867   0.000000   0.000000
    26  C    0.375281   4.892486   0.367391  -0.050874   0.000000   0.000000
    27  C   -0.045093   0.367391   4.936757   0.377625   0.000000   0.000000
    28  C   -0.005867  -0.050874   0.377625   4.794320   0.000000   0.000000
    29  O    0.000000   0.000000   0.000000   0.000000   8.091930  -0.001340
    30  F    0.000000   0.000000   0.000000   0.000000  -0.001340   9.089337
    31  O    0.000000   0.000000   0.000000   0.000000  -0.000015  -0.000672
    32  H    0.000000   0.000000   0.000000   0.000000   0.000000   0.000000
    33  H    0.000000   0.000000   0.000000   0.000001   0.002841   0.000124
    34  H   -0.000024   0.000006   0.000001  -0.000098   0.007405   0.000000
    35  H   -0.000065   0.000001   0.000005   0.000003   0.000408   0.000000
    36  H   -0.000302   0.000091  -0.000259  -0.005689   0.000036   0.000000
    37  H   -0.000157   0.000003   0.000189  -0.004695   0.006552  -0.000001
    38  H   -0.031758  -0.004437   0.000024   0.005273   0.000000   0.000000
    39  H   -0.038740   0.005884  -0.000027  -0.003827   0.000000   0.000000
    40  H    0.386932  -0.030056   0.005313   0.000143   0.000000   0.000000
    41  H    0.390867  -0.042723  -0.004496   0.001165   0.000000   0.000000
    42  H   -0.040883   0.392740  -0.036893  -0.000576   0.000000   0.000000
    43  H   -0.031712   0.388069  -0.034893   0.004294   0.000000   0.000000
    44  H   -0.000840  -0.034800   0.376657  -0.034328   0.000000   0.000000
    45  H    0.003679  -0.035187   0.386044  -0.032262   0.000000   0.000000
    46  H   -0.002005  -0.001468  -0.051087   0.372877   0.000000   0.000000
    47  H    0.000203   0.004564  -0.029578   0.394118  -0.000007   0.000000
              31         32         33         34         35         36
     1  F   -0.041954   0.000000   0.000000   0.000000   0.000000   0.000000
     2  C    0.192552   0.000000   0.000000   0.000000   0.000000   0.000000
     3  F   -0.049945   0.000000   0.000000   0.000000   0.000000   0.000000
     4  C   -0.033901  -0.000080  -0.000004   0.000000   0.000000   0.000000
     5  F    0.000703  -0.000012   0.000000   0.000000   0.000000   0.000000
     6  F   -0.000734   0.000000   0.000000   0.000000   0.000000   0.000000
     7  C   -0.027618  -0.000271   0.000341   0.000023   0.000001   0.000000
     8  F    0.000828   0.000122  -0.000018  -0.000011   0.000000   0.000000
     9  C   -0.003477   0.007824  -0.000003  -0.000001   0.000000   0.000000
    10  F    0.000020  -0.000145   0.000006   0.000003   0.000000   0.000000
    11  C   -0.000028  -0.013118   0.000000   0.000000   0.000000   0.000000
    12  O    0.000000   0.283069   0.000000   0.000000   0.000000   0.000000
    13  O    0.000000   0.008157   0.000000   0.000000   0.000000   0.000000
    14  F   -0.001636  -0.000034   0.000000   0.000000   0.000000   0.000000
    15  C    0.160224   0.000013  -0.001758  -0.000082  -0.000015   0.000000
    16  F   -0.043514   0.000000   0.005879   0.000003   0.000010   0.000000
    17  C   -0.031883   0.000000   0.002630   0.000355  -0.000088   0.000009
    18  F   -0.000171   0.000000   0.008063  -0.000006  -0.000006  -0.000004
    19  C    0.002386   0.000000  -0.028538  -0.004758   0.005487   0.000225
    20  N   -0.000002   0.000000   0.340217  -0.034681  -0.034344   0.004636
    21  C    0.000001   0.000000  -0.024623   0.383869   0.387845  -0.056695
    22  C    0.000000   0.000000   0.000215  -0.038515  -0.042193   0.359259
    23  N    0.000000   0.000000  -0.000051   0.006336  -0.002814  -0.050700
    24  C    0.000000   0.000000  -0.000001  -0.000771   0.004947  -0.009728
    25  C    0.000000   0.000000   0.000000  -0.000024  -0.000065  -0.000302
    26  C    0.000000   0.000000   0.000000   0.000006   0.000001   0.000091
    27  C    0.000000   0.000000   0.000000   0.000001   0.000005  -0.000259
    28  C    0.000000   0.000000   0.000001  -0.000098   0.000003  -0.005689
    29  O   -0.000015   0.000000   0.002841   0.007405   0.000408   0.000036
    30  F   -0.000672   0.000000   0.000124   0.000000   0.000000   0.000000
    31  O    8.374053   0.000000  -0.000020   0.000000   0.000000   0.000000
    32  H    0.000000   0.351656   0.000000   0.000000   0.000000   0.000000
    33  H   -0.000020   0.000000   0.407422   0.003928  -0.005279   0.001825
    34  H    0.000000   0.000000   0.003928   0.556815  -0.029570   0.006153
    35  H    0.000000   0.000000  -0.005279  -0.029570   0.593870  -0.005020
    36  H    0.000000   0.000000   0.001825   0.006153  -0.005020   0.701587
    37  H    0.000000   0.000000  -0.000223  -0.007027   0.004883  -0.043909
    38  H    0.000000   0.000000   0.000001  -0.000099   0.000167  -0.001138
    39  H    0.000000   0.000000   0.000036   0.000399   0.000819   0.016571
    40  H    0.000000   0.000000   0.000000  -0.000001   0.000010  -0.000014
    41  H    0.000000   0.000000   0.000000   0.000000   0.000000  -0.000060
    42  H    0.000000   0.000000   0.000000   0.000001  -0.000001  -0.000001
    43  H    0.000000   0.000000   0.000000   0.000000   0.000000   0.000001
    44  H    0.000000   0.000000   0.000000   0.000000   0.000000   0.000026
    45  H    0.000000   0.000000   0.000000   0.000001   0.000000   0.000017
    46  H    0.000000   0.000000   0.000000   0.000029  -0.000005   0.010709
    47  H    0.000000   0.000000   0.000000  -0.000030  -0.000005  -0.001424
              37         38         39         40         41         42
     1  F    0.000000   0.000000   0.000000   0.000000   0.000000   0.000000
     2  C    0.000000   0.000000   0.000000   0.000000   0.000000   0.000000
     3  F    0.000000   0.000000   0.000000   0.000000   0.000000   0.000000
     4  C    0.000000   0.000000   0.000000   0.000000   0.000000   0.000000
     5  F    0.000000   0.000000   0.000000   0.000000   0.000000   0.000000
     6  F    0.000000   0.000000   0.000000   0.000000   0.000000   0.000000
     7  C    0.000000   0.000000   0.000000   0.000000   0.000000   0.000000
     8  F    0.000000   0.000000   0.000000   0.000000   0.000000   0.000000
     9  C    0.000000   0.000000   0.000000   0.000000   0.000000   0.000000
    10  F    0.000000   0.000000   0.000000   0.000000   0.000000   0.000000
    11  C    0.000000   0.000000   0.000000   0.000000   0.000000   0.000000
    12  O    0.000000   0.000000   0.000000   0.000000   0.000000   0.000000
    13  O    0.000000   0.000000   0.000000   0.000000   0.000000   0.000000
    14  F    0.000000   0.000000   0.000000   0.000000   0.000000   0.000000
    15  C   -0.000001   0.000000   0.000000   0.000000   0.000000   0.000000
    16  F    0.000000   0.000000   0.000000   0.000000   0.000000   0.000000
    17  C    0.000087   0.000000   0.000000   0.000000   0.000000   0.000000
    18  F   -0.000006   0.000000   0.000000   0.000000   0.000000   0.000000
    19  C    0.005082  -0.000003   0.000000   0.000000   0.000000   0.000000
    20  N   -0.006733  -0.000041   0.000114   0.000000   0.000000   0.000000
    21  C   -0.028453   0.001287  -0.002848  -0.000005   0.000008   0.000005
    22  C    0.389369  -0.000775  -0.010905  -0.000057  -0.000155  -0.000087
    23  N   -0.034424  -0.051234  -0.052288   0.003146  -0.000788   0.000593
    24  C    0.004795   0.395236   0.366664  -0.031036  -0.038608  -0.004245
    25  C   -0.000157  -0.031758  -0.038740   0.386932   0.390867  -0.040883
    26  C    0.000003  -0.004437   0.005884  -0.030056  -0.042723   0.392740
    27  C    0.000189   0.000024  -0.000027   0.005313  -0.004496  -0.036893
    28  C   -0.004695   0.005273  -0.003827   0.000143   0.001165  -0.000576
    29  O    0.006552   0.000000   0.000000   0.000000   0.000000   0.000000
    30  F   -0.000001   0.000000   0.000000   0.000000   0.000000   0.000000
    31  O    0.000000   0.000000   0.000000   0.000000   0.000000   0.000000
    32  H    0.000000   0.000000   0.000000   0.000000   0.000000   0.000000
    33  H   -0.000223   0.000001   0.000036   0.000000   0.000000   0.000000
    34  H   -0.007027  -0.000099   0.000399  -0.000001   0.000000   0.000001
    35  H    0.004883   0.000167   0.000819   0.000010   0.000000  -0.000001
    36  H   -0.043909  -0.001138   0.016571  -0.000014  -0.000060  -0.000001
    37  H    0.585871  -0.000166  -0.000033   0.000004  -0.000004  -0.000002
    38  H   -0.000166   0.637882  -0.053838  -0.008005   0.005712   0.002938
    39  H   -0.000033  -0.053838   0.700649   0.001015  -0.010297  -0.000016
    40  H    0.000004  -0.008005   0.001015   0.614508  -0.035514  -0.004949
    41  H   -0.000004   0.005712  -0.010297  -0.035514   0.631863   0.006106
    42  H   -0.000002   0.002938  -0.000016  -0.004949   0.006106   0.626279
    43  H    0.000000  -0.000113  -0.000149  -0.002479  -0.005194  -0.037056
    44  H   -0.000012  -0.000003   0.000079  -0.000164   0.001768   0.005307
    45  H   -0.000028  -0.000003   0.000032  -0.000183  -0.000050  -0.011490
    46  H   -0.001038  -0.000514   0.006822  -0.000086  -0.001033  -0.000129
    47  H    0.005239  -0.000161  -0.000303  -0.000002  -0.000014  -0.000109
              43         44         45         46         47
     1  F    0.000000   0.000000   0.000000   0.000000   0.000000
     2  C    0.000000   0.000000   0.000000   0.000000   0.000000
     3  F    0.000000   0.000000   0.000000   0.000000   0.000000
     4  C    0.000000   0.000000   0.000000   0.000000   0.000000
     5  F    0.000000   0.000000   0.000000   0.000000   0.000000
     6  F    0.000000   0.000000   0.000000   0.000000   0.000000
     7  C    0.000000   0.000000   0.000000   0.000000   0.000000
     8  F    0.000000   0.000000   0.000000   0.000000   0.000000
     9  C    0.000000   0.000000   0.000000   0.000000   0.000000
    10  F    0.000000   0.000000   0.000000   0.000000   0.000000
    11  C    0.000000   0.000000   0.000000   0.000000   0.000000
    12  O    0.000000   0.000000   0.000000   0.000000   0.000000
    13  O    0.000000   0.000000   0.000000   0.000000   0.000000
    14  F    0.000000   0.000000   0.000000   0.000000   0.000000
    15  C    0.000000   0.000000   0.000000   0.000000   0.000000
    16  F    0.000000   0.000000   0.000000   0.000000   0.000000
    17  C    0.000000   0.000000   0.000000   0.000000   0.000000
    18  F    0.000000   0.000000   0.000000   0.000000   0.000000
    19  C    0.000000   0.000000   0.000000   0.000000  -0.000004
    20  N    0.000000   0.000000   0.000000   0.000011  -0.000006
    21  C    0.000000   0.000002   0.000002  -0.000227   0.000193
    22  C    0.000000  -0.000172  -0.000048  -0.007592  -0.003977
    23  N    0.000072   0.003950   0.000769  -0.056928  -0.036620
    24  C    0.004858   0.000091   0.000612  -0.003751   0.005072
    25  C   -0.031712  -0.000840   0.003679  -0.002005   0.000203
    26  C    0.388069  -0.034800  -0.035187  -0.001468   0.004564
    27  C   -0.034893   0.376657   0.386044  -0.051087  -0.029578
    28  C    0.004294  -0.034328  -0.032262   0.372877   0.394118
    29  O    0.000000   0.000000   0.000000   0.000000  -0.000007
    30  F    0.000000   0.000000   0.000000   0.000000   0.000000
    31  O    0.000000   0.000000   0.000000   0.000000   0.000000
    32  H    0.000000   0.000000   0.000000   0.000000   0.000000
    33  H    0.000000   0.000000   0.000000   0.000000   0.000000
    34  H    0.000000   0.000000   0.000001   0.000029  -0.000030
    35  H    0.000000   0.000000   0.000000  -0.000005  -0.000005
    36  H    0.000001   0.000026   0.000017   0.010709  -0.001424
    37  H    0.000000  -0.000012  -0.000028  -0.001038   0.005239
    38  H   -0.000113  -0.000003  -0.000003  -0.000514  -0.000161
    39  H   -0.000149   0.000079   0.000032   0.006822  -0.000303
    40  H   -0.002479  -0.000164  -0.000183  -0.000086  -0.000002
    41  H   -0.005194   0.001768  -0.000050  -0.001033  -0.000014
    42  H   -0.037056   0.005307  -0.011490  -0.000129  -0.000109
    43  H    0.627527  -0.011770   0.002975   0.000144  -0.000121
    44  H   -0.011770   0.638245  -0.034363  -0.003132   0.000694
    45  H    0.002975  -0.034363   0.619185   0.005891  -0.009596
    46  H    0.000144  -0.003132   0.005891   0.703152  -0.046625
    47  H   -0.000121   0.000694  -0.009596  -0.046625   0.612214
 Mulliken charges:
               1
     1  F   -0.243576
     2  C    0.750797
     3  F   -0.240414
     4  C    0.543665
     5  F   -0.246187
     6  F   -0.258294
     7  C    0.152848
     8  F   -0.271082
     9  C    0.623001
    10  F   -0.278147
    11  C    0.527215
    12  O   -0.470586
    13  O   -0.443173
    14  F   -0.262496
    15  C    0.468182
    16  F   -0.276867
    17  C    0.566424
    18  F   -0.282067
    19  C    0.536901
    20  N   -0.539875
    21  C   -0.061603
    22  C   -0.017849
    23  N   -0.454424
    24  C   -0.017968
    25  C   -0.221040
    26  C   -0.178131
    27  C   -0.186808
    28  C   -0.033269
    29  O   -0.503878
    30  F   -0.263779
    31  O   -0.495194
    32  H    0.362821
    33  H    0.286990
    34  H    0.150348
    35  H    0.120949
    36  H    0.073795
    37  H    0.124839
    38  H    0.103767
    39  H    0.074187
    40  H    0.101481
    41  H    0.101444
    42  H    0.102470
    43  H    0.095549
    44  H    0.092764
    45  H    0.104004
    46  H    0.075981
    47  H    0.106282
 Sum of Mulliken charges =   0.00000
 Mulliken charges with hydrogens summed into heavy atoms:
               1
     1  F   -0.243576
     2  C    0.750797
     3  F   -0.240414
     4  C    0.543665
     5  F   -0.246187
     6  F   -0.258294
     7  C    0.152848
     8  F   -0.271082
     9  C    0.623001
    10  F   -0.278147
    11  C    0.527215
    12  O   -0.107765
    13  O   -0.443173
    14  F   -0.262496
    15  C    0.468182
    16  F   -0.276867
    17  C    0.566424
    18  F   -0.282067
    19  C    0.536901
    20  N   -0.252885
    21  C    0.209694
    22  C    0.180785
    23  N   -0.454424
    24  C    0.159985
    25  C   -0.018115
    26  C    0.019889
    27  C    0.009960
    28  C    0.148995
    29  O   -0.503878
    30  F   -0.263779
    31  O   -0.495194
 Electronic spatial extent (au):  <R**2>=          19276.2643
 Charge=              0.0000 electrons
 Dipole moment (field-independent basis, Debye):
    X=             -2.7653    Y=              2.5976    Z=              0.5027  Tot=              3.8272
 Quadrupole moment (field-independent basis, Debye-Ang):
   XX=           -178.9387   YY=           -174.9126   ZZ=           -164.5565
   XY=              2.0532   XZ=            -14.3263   YZ=             -4.1503
 Traceless Quadrupole moment (field-independent basis, Debye-Ang):
   XX=             -6.1361   YY=             -2.1100   ZZ=              8.2461
   XY=              2.0532   XZ=            -14.3263   YZ=             -4.1503
 Octapole moment (field-independent basis, Debye-Ang**2):
  XXX=           -909.6225  YYY=            132.3511  ZZZ=            -76.3353  XYY=           -257.0979
  XXY=             28.6291  XXZ=            -50.7028  XZZ=           -203.9543  YZZ=             67.0334
  YYZ=            -18.4557  XYZ=            -18.7144
 Hexadecapole moment (field-independent basis, Debye-Ang**3):
 XXXX=         -19684.6431 YYYY=          -2121.0242 ZZZZ=          -1328.6851 XXXY=            594.8243
 XXXZ=            267.3738 YYYX=            838.1093 YYYZ=            218.3580 ZZZX=            169.9254
 ZZZY=            145.4679 XXYY=          -3488.3001 XXZZ=          -3203.8490 YYZZ=           -580.5571
 XXYZ=             44.2552 YYXZ=             86.2817 ZZXY=            383.9953
 N-N= 3.794476507468D+03 E-N=-1.227632081307D+04  KE= 1.974291892554D+03
 No NMR shielding tensors so no spin-rotation constants.
 Leave Link  601 at Mon Feb  3 21:38:54 2025, MaxMem=  5368709120 cpu:         2.8
 (Enter /home/k0335/k033513/app/g09/l9999.exe)
 1\1\GINC-C15U06N2\SP\RCAM-B3LYP\6-31G(d,p)\C15H16F10N2O4\K033513\03-Fe
 b-2025\0\\#p CAM-B3LYP/6-31G(d,p) SCRF=(PCM,Solvent=Generic,Read) NoSy
 mm out=wfn\\Title AEP0_neu\\0,1\F,0,6.01592,-2.611989,1.121591\C,0,5.4
 63407,-1.418622,0.831982\F,0,6.390591,-0.474208,1.093657\C,0,4.94886,-
 1.325065,-0.589694\F,0,5.876903,-1.040277,-1.515187\F,0,4.405404,-2.51
 5415,-0.96085\C,0,3.854464,-0.306398,-0.47023\F,0,2.944455,-0.469049,-
 1.463423\C,0,4.331508,1.13712,-0.494696\F,0,3.239113,1.949628,-0.33818
 1\C,0,5.059291,1.482252,-1.793487\O,0,4.248356,1.603193,-2.865185\O,0,
 6.263935,1.640441,-1.924498\F,0,5.11431,1.395817,0.586831\C,0,3.28334,
 -0.666198,0.90154\F,0,2.847967,0.452389,1.547967\C,0,2.121813,-1.68203
 5,0.905991\F,0,1.815305,-1.962416,2.216645\C,0,0.870963,-1.126816,0.20
 3525\N,0,0.186301,-0.15339,0.912776\C,0,-1.037242,0.4516,0.408695\C,0,
 -2.267752,-0.456812,0.601295\N,0,-3.531232,0.162304,0.16774\C,0,-3.888
 289,1.342858,0.972749\C,0,-5.393989,1.638532,1.024923\C,0,-6.081252,1.
 24392,-0.272896\C,0,-5.838655,-0.231796,-0.594478\C,0,-4.6188,-0.81742
 9,0.126466\O,0,0.506339,-1.504826,-0.907551\F,0,2.53411,-2.868443,0.38
 2822\O,0,4.369884,-1.179855,1.713351\H,0,4.837092,1.838733,-3.615119\H
 ,0,0.427169,0.00479,1.887178\H,0,-0.90212,0.681862,-0.654332\H,0,-1.15
 236,1.395248,0.950941\H,0,-2.335196,-0.771696,1.651331\H,0,-2.096429,-
 1.371181,0.018738\H,0,-3.377727,2.212671,0.542386\H,0,-3.535873,1.2441
 75,2.007623\H,0,-5.555121,2.702882,1.229983\H,0,-5.848522,1.082897,1.8
 55187\H,0,-5.689329,1.862306,-1.090343\H,0,-7.156884,1.444628,-0.21675
 5\H,0,-6.722962,-0.818591,-0.317801\H,0,-5.722053,-0.34057,-1.679957\H
 ,0,-4.891958,-1.137257,1.140729\H,0,-4.313053,-1.719917,-0.417181\\Ver
 sion=ES64L-G09RevD.01\HF=-1989.3436\RMSD=7.347e-09\Dipole=-1.0879695,1
 .021963,0.1977779\Quadrupole=-4.5620309,-1.5687491,6.1307801,1.52652,-
 10.6512759,-3.0856604\PG=C01 [X(C15H16F10N2O4)]\\@

 Writing a WFN file to "cytop/AEP0/AEP0_neu.wfn"


 YOU SHOULDN'T LET PEOPLE DRIVE YOU CRAZY
 WHEN YOU KNOW IT'S WITHIN WALKING DISTANCE.
 Job cpu time:       0 days  0 hours 16 minutes 25.1 seconds.
 File lengths (MBytes):  RWF=    351 Int=      0 D2E=      0 Chk=     13 Scr=      1
 Normal termination of Gaussian 09 at Mon Feb  3 21:38:54 2025.
