 Entering Gaussian System, Link 0=g09
 Initial command:
 /home/k0335/k033513/app/g09/l1.exe "/home/k0335/k033513/app/g09/scratch/Gau-658576.inp" -scrdir="/home/k0335/k033513/app/g09/scratch/"
 Default is to use a total of  36 processors:
                               36 via shared-memory
                                1 via Linda
 Entering Link 1 = /home/k0335/k033513/app/g09/l1.exe PID=    658577.
  
 Copyright (c) 1988,1990,1992,1993,1995,1998,2003,2009,2013,
            Gaussian, Inc.  All Rights Reserved.
  
 This is part of the Gaussian(R) 09 program.  It is based on
 the Gaussian(R) 03 system (copyright 2003, Gaussian, Inc.),
 the Gaussian(R) 98 system (copyright 1998, Gaussian, Inc.),
 the Gaussian(R) 94 system (copyright 1995, Gaussian, Inc.),
 the Gaussian 92(TM) system (copyright 1992, Gaussian, Inc.),
 the Gaussian 90(TM) system (copyright 1990, Gaussian, Inc.),
 the Gaussian 88(TM) system (copyright 1988, Gaussian, Inc.),
 the Gaussian 86(TM) system (copyright 1986, Carnegie Mellon
 University), and the Gaussian 82(TM) system (copyright 1983,
 Carnegie Mellon University). Gaussian is a federally registered
 trademark of Gaussian, Inc.
  
 This software contains proprietary and confidential information,
 including trade secrets, belonging to Gaussian, Inc.
  
 This software is provided under written license and may be
 used, copied, transmitted, or stored only in accord with that
 written license.
  
 The following legend is applicable only to US Government
 contracts under FAR:
  
                    RESTRICTED RIGHTS LEGEND
  
 Use, reproduction and disclosure by the US Government is
 subject to restrictions as set forth in subparagraphs (a)
 and (c) of the Commercial Computer Software - Restricted
 Rights clause in FAR 52.227-19.
  
 Gaussian, Inc.
 340 Quinnipiac St., Bldg. 40, Wallingford CT 06492
  
  
 ---------------------------------------------------------------
 Warning -- This program may not be used in any manner that
 competes with the business of Gaussian, Inc. or will provide
 assistance to any competitor of Gaussian, Inc.  The licensee
 of this program is prohibited from giving any competitor of
 Gaussian, Inc. access to this program.  By using this program,
 the user acknowledges that Gaussian, Inc. is engaged in the
 business of creating and licensing software in the field of
 computational chemistry and represents and warrants to the
 licensee that it is not a competitor of Gaussian, Inc. and that
 it will not use this program in any manner prohibited above.
 ---------------------------------------------------------------
  

 Cite this work as:
 Gaussian 09, Revision D.01,
 M. J. Frisch, G. W. Trucks, H. B. Schlegel, G. E. Scuseria, 
 M. A. Robb, J. R. Cheeseman, G. Scalmani, V. Barone, B. Mennucci, 
 G. A. Petersson, H. Nakatsuji, M. Caricato, X. Li, H. P. Hratchian, 
 A. F. Izmaylov, J. Bloino, G. Zheng, J. L. Sonnenberg, M. Hada, 
 M. Ehara, K. Toyota, R. Fukuda, J. Hasegawa, M. Ishida, T. Nakajima, 
 Y. Honda, O. Kitao, H. Nakai, T. Vreven, J. A. Montgomery, Jr., 
 J. E. Peralta, F. Ogliaro, M. Bearpark, J. J. Heyd, E. Brothers, 
 K. N. Kudin, V. N. Staroverov, T. Keith, R. Kobayashi, J. Normand, 
 K. Raghavachari, A. Rendell, J. C. Burant, S. S. Iyengar, J. Tomasi, 
 M. Cossi, N. Rega, J. M. Millam, M. Klene, J. E. Knox, J. B. Cross, 
 V. Bakken, C. Adamo, J. Jaramillo, R. Gomperts, R. E. Stratmann, 
 O. Yazyev, A. J. Austin, R. Cammi, C. Pomelli, J. W. Ochterski, 
 R. L. Martin, K. Morokuma, V. G. Zakrzewski, G. A. Voth, 
 P. Salvador, J. J. Dannenberg, S. Dapprich, A. D. Daniels, 
 O. Farkas, J. B. Foresman, J. V. Ortiz, J. Cioslowski, 
 and D. J. Fox, Gaussian, Inc., Wallingford CT, 2013.
 
 ******************************************
 Gaussian 09:  ES64L-G09RevD.01 24-Apr-2013
                 3-Mar-2024 
 ******************************************
 %nprocshared=24
 Will use up to   24 processors via shared memory.
 %mem=40GB
 %rwf=A201888831/A201888831_0.rwf
 %nosave
 %chk=A201888831/A201888831_0.chk
 ----------------------------------------------------------------------
 #p CAM-B3LYP/6-31G(d,p) SCRF=(PCM,Solvent=Generic,Read) NoSymm out=wfn
 ----------------------------------------------------------------------
 1/38=1,40=2/1;
 2/12=2,15=1,17=6,18=5,40=1/2;
 3/5=1,6=6,7=101,11=2,16=1,25=1,30=1,70=2203,72=-2,74=-40/1,2,3;
 4//1;
 5/5=2,38=5/2;
 6/7=2,8=2,9=2,10=2,28=1/1;
 99/5=1,6=100,9=1/99;
 Leave Link    1 at Sun Mar  3 18:12:03 2024, MaxMem=  5368709120 cpu:         1.8
 (Enter /home/k0335/k033513/app/g09/l101.exe)
 ------------------
 Title A201888831_0
 ------------------
 Symbolic Z-matrix:
 Charge =  0 Multiplicity = 1
 C                     0.63026   5.23082  -0.81271 
 C                     0.01372   4.50528  -0.08043 
 C                    -0.74136   3.61431   0.81637 
 N                    -0.38448   2.2229    0.56254 
 C                    -1.1267    1.51352  -0.35675 
 O                    -2.06635   2.02612  -0.95878 
 N                    -0.78247   0.19459  -0.51446 
 C                    -1.62135  -0.64794  -1.36192 
 F                    -1.79388   0.02345  -2.54852 
 F                    -0.91244  -1.74911  -1.75128 
 C                    -3.02763  -1.08412  -0.85885 
 F                    -3.62593  -1.77703  -1.88143 
 O                    -3.84259   0.07041  -0.63844 
 C                    -5.1081   -0.21573  -0.10786 
 F                    -5.64541  -1.31098  -0.6644 
 F                    -5.91912   0.83375  -0.3334 
 F                    -4.98751  -0.38342   1.22066 
 C                    -2.84865  -2.0172    0.33906 
 F                    -2.04112  -3.06257   0.07802 
 F                    -2.34563  -1.33842   1.39868 
 F                    -4.02776  -2.54367   0.74676 
 C                     0.1577   -0.39718   0.28811 
 O                     0.13353  -1.60113   0.50856 
 N                     1.07954   0.42946   0.86365 
 C                     2.21947  -0.13594   1.58775 
 F                     1.83003  -0.4332    2.85601 
 F                     3.15169   0.85991   1.69808 
 C                     2.95947  -1.35      0.96013 
 F                     2.2443   -2.49311   1.15993 
 O                     3.04067  -1.14819  -0.46054 
 C                     3.85385  -2.10386  -1.09527 
 F                     3.61963  -3.33965  -0.63334 
 F                     3.59066  -2.07005  -2.41453 
 F                     5.142    -1.7745   -0.90734 
 C                     4.28747  -1.47001   1.72315 
 F                     5.13179  -0.45335   1.43599 
 F                     4.94039  -2.61218   1.39561 
 F                     4.11876  -1.49728   3.06268 
 C                     0.68064   1.68516   1.25824 
 O                     1.19697   2.28806   2.19707 
 H                     1.17489   5.87858  -1.46117 
 H                    -1.81699   3.75974   0.66612 
 H                    -0.53194   3.87376   1.85994 
 
 NAtoms=     43 NQM=       43 NQMF=       0 NMMI=      0 NMMIF=      0
                NMic=       0 NMicF=      0.
                    Isotopes and Nuclear Properties:
 (Nuclear quadrupole moments (NQMom) in fm**2, nuclear magnetic moments (NMagM)
  in nuclear magnetons)

  Atom         1           2           3           4           5           6           7           8           9          10
 IAtWgt=          12          12          12          14          12          16          14          12          19          19
 AtmWgt=  12.0000000  12.0000000  12.0000000  14.0030740  12.0000000  15.9949146  14.0030740  12.0000000  18.9984033  18.9984033
 NucSpn=           0           0           0           2           0           0           2           0           1           1
 AtZEff=   0.0000000   0.0000000   0.0000000   0.0000000   0.0000000   0.0000000   0.0000000   0.0000000   0.0000000   0.0000000
 NQMom=    0.0000000   0.0000000   0.0000000   2.0440000   0.0000000   0.0000000   2.0440000   0.0000000   0.0000000   0.0000000
 NMagM=    0.0000000   0.0000000   0.0000000   0.4037610   0.0000000   0.0000000   0.4037610   0.0000000   2.6288670   2.6288670
 AtZNuc=   6.0000000   6.0000000   6.0000000   7.0000000   6.0000000   8.0000000   7.0000000   6.0000000   9.0000000   9.0000000

  Atom        11          12          13          14          15          16          17          18          19          20
 IAtWgt=          12          19          16          12          19          19          19          12          19          19
 AtmWgt=  12.0000000  18.9984033  15.9949146  12.0000000  18.9984033  18.9984033  18.9984033  12.0000000  18.9984033  18.9984033
 NucSpn=           0           1           0           0           1           1           1           0           1           1
 AtZEff=   0.0000000   0.0000000   0.0000000   0.0000000   0.0000000   0.0000000   0.0000000   0.0000000   0.0000000   0.0000000
 NQMom=    0.0000000   0.0000000   0.0000000   0.0000000   0.0000000   0.0000000   0.0000000   0.0000000   0.0000000   0.0000000
 NMagM=    0.0000000   2.6288670   0.0000000   0.0000000   2.6288670   2.6288670   2.6288670   0.0000000   2.6288670   2.6288670
 AtZNuc=   6.0000000   9.0000000   8.0000000   6.0000000   9.0000000   9.0000000   9.0000000   6.0000000   9.0000000   9.0000000

  Atom        21          22          23          24          25          26          27          28          29          30
 IAtWgt=          19          12          16          14          12          19          19          12          19          16
 AtmWgt=  18.9984033  12.0000000  15.9949146  14.0030740  12.0000000  18.9984033  18.9984033  12.0000000  18.9984033  15.9949146
 NucSpn=           1           0           0           2           0           1           1           0           1           0
 AtZEff=   0.0000000   0.0000000   0.0000000   0.0000000   0.0000000   0.0000000   0.0000000   0.0000000   0.0000000   0.0000000
 NQMom=    0.0000000   0.0000000   0.0000000   2.0440000   0.0000000   0.0000000   0.0000000   0.0000000   0.0000000   0.0000000
 NMagM=    2.6288670   0.0000000   0.0000000   0.4037610   0.0000000   2.6288670   2.6288670   0.0000000   2.6288670   0.0000000
 AtZNuc=   9.0000000   6.0000000   8.0000000   7.0000000   6.0000000   9.0000000   9.0000000   6.0000000   9.0000000   8.0000000

  Atom        31          32          33          34          35          36          37          38          39          40
 IAtWgt=          12          19          19          19          12          19          19          19          12          16
 AtmWgt=  12.0000000  18.9984033  18.9984033  18.9984033  12.0000000  18.9984033  18.9984033  18.9984033  12.0000000  15.9949146
 NucSpn=           0           1           1           1           0           1           1           1           0           0
 AtZEff=   0.0000000   0.0000000   0.0000000   0.0000000   0.0000000   0.0000000   0.0000000   0.0000000   0.0000000   0.0000000
 NQMom=    0.0000000   0.0000000   0.0000000   0.0000000   0.0000000   0.0000000   0.0000000   0.0000000   0.0000000   0.0000000
 NMagM=    0.0000000   2.6288670   2.6288670   2.6288670   0.0000000   2.6288670   2.6288670   2.6288670   0.0000000   0.0000000
 AtZNuc=   6.0000000   9.0000000   9.0000000   9.0000000   6.0000000   9.0000000   9.0000000   9.0000000   6.0000000   8.0000000

  Atom        41          42          43
 IAtWgt=           1           1           1
 AtmWgt=   1.0078250   1.0078250   1.0078250
 NucSpn=           1           1           1
 AtZEff=   0.0000000   0.0000000   0.0000000
 NQMom=    0.0000000   0.0000000   0.0000000
 NMagM=    2.7928460   2.7928460   2.7928460
 AtZNuc=   1.0000000   1.0000000   1.0000000
 Leave Link  101 at Sun Mar  3 18:12:03 2024, MaxMem=  5368709120 cpu:         1.0
 (Enter /home/k0335/k033513/app/g09/l202.exe)
                          Input orientation:                          
 ---------------------------------------------------------------------
 Center     Atomic      Atomic             Coordinates (Angstroms)
 Number     Number       Type             X           Y           Z
 ---------------------------------------------------------------------
      1          6           0        0.630261    5.230818   -0.812708
      2          6           0        0.013719    4.505277   -0.080431
      3          6           0       -0.741364    3.614307    0.816365
      4          7           0       -0.384481    2.222897    0.562543
      5          6           0       -1.126704    1.513524   -0.356747
      6          8           0       -2.066345    2.026120   -0.958782
      7          7           0       -0.782473    0.194593   -0.514455
      8          6           0       -1.621351   -0.647938   -1.361919
      9          9           0       -1.793876    0.023453   -2.548522
     10          9           0       -0.912436   -1.749109   -1.751283
     11          6           0       -3.027627   -1.084123   -0.858847
     12          9           0       -3.625927   -1.777025   -1.881428
     13          8           0       -3.842594    0.070410   -0.638438
     14          6           0       -5.108102   -0.215731   -0.107857
     15          9           0       -5.645414   -1.310982   -0.664404
     16          9           0       -5.919123    0.833745   -0.333398
     17          9           0       -4.987509   -0.383419    1.220657
     18          6           0       -2.848647   -2.017196    0.339056
     19          9           0       -2.041119   -3.062567    0.078018
     20          9           0       -2.345626   -1.338416    1.398683
     21          9           0       -4.027764   -2.543666    0.746761
     22          6           0        0.157697   -0.397179    0.288112
     23          8           0        0.133530   -1.601132    0.508559
     24          7           0        1.079544    0.429463    0.863652
     25          6           0        2.219470   -0.135935    1.587746
     26          9           0        1.830025   -0.433198    2.856014
     27          9           0        3.151687    0.859914    1.698080
     28          6           0        2.959470   -1.350004    0.960132
     29          9           0        2.244299   -2.493110    1.159934
     30          8           0        3.040669   -1.148186   -0.460536
     31          6           0        3.853845   -2.103865   -1.095273
     32          9           0        3.619632   -3.339654   -0.633340
     33          9           0        3.590658   -2.070055   -2.414528
     34          9           0        5.141999   -1.774495   -0.907342
     35          6           0        4.287473   -1.470013    1.723152
     36          9           0        5.131789   -0.453353    1.435991
     37          9           0        4.940390   -2.612179    1.395608
     38          9           0        4.118757   -1.497282    3.062677
     39          6           0        0.680644    1.685157    1.258244
     40          8           0        1.196967    2.288057    2.197065
     41          1           0        1.174889    5.878576   -1.461173
     42          1           0       -1.816988    3.759741    0.666117
     43          1           0       -0.531944    3.873761    1.859944
 ---------------------------------------------------------------------
                    Distance matrix (angstroms):
                    1          2          3          4          5
     1  C    0.000000
     2  C    1.201151   0.000000
     3  C    2.673638   1.472488   0.000000
     4  N    3.459567   2.404420   1.458702   0.000000
     5  C    4.136798   3.213643   2.436795   1.378114   0.000000
     6  O    4.190837   3.353265   2.725630   2.276361   1.228058
     7  N    5.239116   4.405031   3.669771   2.330738   1.372205
     8  C    6.319111   5.556194   4.866830   3.670844   2.434536
     9  F    6.000512   5.426382   5.032343   4.062348   2.733003
    10  F    7.209731   6.539637   5.948808   4.627025   3.554633
    11  C    7.297997   6.410703   5.487128   4.465753   3.257819
    12  F    8.268444   7.480503   6.683207   5.699065   4.404371
    13  O    6.831297   5.903437   4.928822   4.246658   3.088363
    14  C    7.942954   6.965753   5.881478   5.358072   4.347850
    15  F    9.066490   8.136073   7.106395   6.455317   5.337717
    16  F    7.903064   6.981601   5.988545   5.776220   4.840447
    17  F    8.198388   7.113681   5.845940   5.330466   4.581748
    18  C    8.121765   7.135248   6.031774   4.909221   3.989388
    19  F    8.758419   7.843451   6.842161   5.560157   4.686767
    20  F    7.543274   6.473255   5.238532   4.150683   3.563828
    21  F    9.196290   8.167339   6.980394   6.002297   5.108294
    22  C    5.754083   4.918397   4.144802   2.689622   2.390882
    23  O    6.976247   6.135918   5.297262   3.859333   3.469586
    24  N    5.105394   4.317353   3.668947   2.334618   2.744466
    25  C    6.090140   5.402685   4.840029   3.660012   4.206976
    26  F    6.854198   6.025796   5.210999   4.149565   4.780565
    27  F    5.636173   5.128218   4.849737   3.956217   4.791049
    28  C    7.202458   6.636606   6.193644   4.909756   5.160502
    29  F    8.133603   7.449256   6.806818   5.432134   5.451339
    30  O    6.828308   6.424060   6.214144   4.913506   4.945955
    31  C    8.016789   7.710851   7.580752   6.279541   6.199741
    32  F    9.078629   8.651662   8.335317   6.957372   6.793934
    33  F    8.039436   7.840758   7.843281   6.564611   6.271364
    34  F    8.333015   8.149759   8.162372   6.977226   7.100061
    35  C    8.044061   7.564521   7.208452   6.067269   6.522330
    36  F    7.591456   7.285752   7.171033   6.193098   6.800827
    37  F    9.217726   8.781171   8.449082   7.240594   7.543328
    38  F    8.512082   7.922195   7.402367   6.353704   6.947825
    39  C    4.106470   3.192165   2.437003   1.381179   2.429848
    40  O    4.247321   3.391626   2.724408   2.275277   3.538545
    41  H    1.066169   2.267314   3.739802   4.459938   5.056755
    42  H    3.215590   2.112971   1.095761   2.103496   2.562857
    43  H    3.214871   2.112254   1.095550   2.104839   3.292139
                    6          7          8          9         10
     6  O    0.000000
     7  N    2.280405   0.000000
     8  C    2.740643   1.460058   0.000000
     9  F    2.571417   2.278081   1.374248   0.000000
    10  F    4.026403   2.307512   1.366288   2.134128   0.000000
    11  C    3.256941   2.606614   1.555941   2.367249   2.390122
    12  F    4.212776   3.720366   2.358612   2.653893   2.716754
    13  O    2.661293   3.065148   2.444048   2.801405   3.624210
    14  C    3.873274   4.364030   3.730537   4.122881   4.759801
    15  F    4.902310   5.092881   4.137540   4.490541   4.875894
    16  F    4.081270   5.179428   4.660910   4.751948   5.809341
    17  F    4.369100   4.585525   4.250963   4.956970   5.225300
    18  C    4.317961   3.144768   2.504883   3.689837   2.861870
    19  F    5.193296   3.541794   2.842544   4.059971   2.519016
    20  F    4.117735   2.907518   2.936368   4.211834   3.484966
    21  F    5.257279   4.429519   3.719024   4.737008   4.071463
    22  C    3.517597   1.370484   2.439363   3.468726   2.670586
    23  O    4.488819   2.260586   2.736215   3.962312   2.494560
    24  N    3.970793   2.328401   3.661802   4.479321   3.943608
    25  C    5.433921   3.679696   4.869761   5.765506   4.853893
    26  F    5.981857   4.310375   5.454271   6.523051   5.520860
    27  F    5.970495   4.562409   5.866780   6.572054   5.934830
    28  C    6.351320   4.308402   5.183506   6.065586   4.743702
    29  F    6.595002   4.380488   4.970679   6.032627   4.358176
    30  O    6.033743   4.052453   4.774638   5.394928   4.201687
    31  C    7.219699   5.207274   5.671736   6.207589   4.824276
    32  F    7.824818   5.646553   5.936671   6.654658   4.931457
    33  F    7.134391   5.278559   5.504129   5.778749   4.562977
    34  F    8.149082   6.255480   6.871585   7.350677   6.113024
    35  C    7.732187   5.786376   6.716224   7.580267   6.260084
    36  F    7.980968   6.261195   7.312391   8.004282   6.954880
    37  F    8.726472   6.654132   7.383674   8.237297   6.700999
    38  F    8.175695   6.299236   7.297073   8.292009   6.967821
    39  C    3.546464   2.739517   4.196161   4.834871   4.836253
    40  O    4.547217   3.956402   5.406417   6.049311   6.028079
    41  H    5.059586   6.085656   7.101000   6.654199   7.913449
    42  H    2.389125   3.895414   4.855805   4.928923   6.083541
    43  H    3.703158   4.385979   5.658001   5.987647   6.693460
                   11         12         13         14         15
    11  C    0.000000
    12  F    1.372497   0.000000
    13  O    1.430279   2.237182   0.000000
    14  C    2.376230   2.789272   1.401750   0.000000
    15  F    2.634783   2.403471   2.271360   1.340904   0.000000
    16  F    3.509282   3.804112   2.233316   1.345371   2.187312
    17  F    2.942186   3.663192   2.230028   1.344474   2.201515
    18  C    1.528931   2.364825   2.510284   2.924063   3.054108
    19  F    2.401074   2.829075   3.684314   4.188724   4.075559
    20  F    2.371968   3.548334   2.894057   3.340862   3.891745
    21  F    2.389250   2.767054   2.964196   2.704955   2.475417
    22  C    3.454518   4.574570   4.132731   5.283782   5.951338
    23  O    3.482817   4.458306   4.463095   5.456557   5.903916
    24  N    4.703913   5.877543   5.158744   6.296592   7.112606
    25  C    5.866592   6.992640   6.461199   7.521619   8.264945
    26  F    6.149852   7.349601   6.681573   7.547810   8.309394
    27  F    6.964271   8.105700   7.416374   8.523059   9.363926
    28  C    6.262963   7.185003   7.130293   8.216623   8.756978
    29  F    5.818413   6.649978   6.845147   7.800740   8.183716
    30  O    6.081692   6.845281   6.992563   8.209526   8.690000
    31  C    6.960634   7.528071   8.010702   9.211761   9.542025
    32  F    7.023128   7.516492   8.204473   9.284846   9.484596
    33  F    6.869782   7.242179   7.936581   9.188453   9.431021
    34  F    8.198887   8.821869   9.175996  10.398725  10.800099
    35  C    7.767002   8.701101   8.605115   9.654152  10.217043
    36  F    8.499425   9.458064   9.225895  10.358344  11.013414
    37  F    8.420619   9.209682   9.406085  10.439136  10.862597
    38  F    8.162099   9.192527   8.918465   9.840203  10.452984
    39  C    5.089426   6.355376   5.163767   6.244132   7.258955
    40  O    6.209460   7.511278   6.193158   7.164881   8.243741
    41  H    8.154944   9.046141   7.719250   8.857089   9.941887
    42  H    5.220554   6.357517   4.406371   5.218701   6.491484
    43  H    6.180685   7.449965   5.627415   6.444952   7.707235
                   16         17         18         19         20
    16  F    0.000000
    17  F    2.182769   0.000000
    18  C    4.243569   2.832168   0.000000
    19  F    5.512660   4.143027   1.346493   0.000000
    20  F    4.526397   2.814828   1.355205   2.193075   0.000000
    21  F    4.018817   2.410883   1.354146   2.159452   2.169612
    22  C    6.231307   5.229051   3.415429   3.461679   2.895845
    23  O    6.578155   5.311775   3.015828   2.655232   2.647179
    24  N    7.111801   6.131669   4.657470   4.748687   3.891458
    25  C    8.418300   7.220564   5.548349   5.384893   4.724596
    26  F    8.475069   7.011108   5.543834   5.442113   4.514343
    27  F    9.295546   8.247443   6.791812   6.706392   5.928132
    28  C    9.234251   8.009784   5.879209   5.358814   5.323204
    29  F    8.940887   7.533494   5.180582   4.456415   4.738959
    30  O    9.177259   8.237895   6.006544   5.457056   5.701321
    31  C   10.233323   9.300162   6.854795   6.086569   6.726007
    32  F   10.416097   9.287600   6.673311   5.711997   6.611987
    33  F   10.158695   9.468065   7.003547   6.238171   7.093331
    34  F   11.378961  10.443678   8.090911   7.363915   7.846811
    35  C   10.663550   9.351924   7.289673   6.730065   6.642334
    36  F   11.265435  10.121830   8.205866   7.752593   7.529705
    37  F   11.523579  10.176500   7.882855   7.119014   7.396520
    38  F   10.850163   9.357233   7.498876   7.021565   6.677002
    39  C    6.842160   6.033936   5.196943   5.598376   4.280190
    40  O    7.691359   6.807195   6.193092   6.603388   5.132123
    41  H    8.777654   9.185856   9.042836   9.625791   8.523953
    42  H    5.136925   5.246474   5.877439   6.851276   5.177578
    43  H    6.563090   6.195509   6.510268   7.318847   5.537959
                   21         22         23         24         25
    21  F    0.000000
    22  C    4.726082   0.000000
    23  O    4.273345   1.224207   0.000000
    24  N    5.910817   1.365425   2.268116   0.000000
    25  C    6.747767   2.451164   2.768139   1.464042   0.000000
    26  F    6.573942   3.064653   3.122933   2.297153   1.359609
    27  F    8.002117   3.540094   4.071975   2.274936   1.368546
    28  C    7.091671   3.034702   2.872790   2.590354   1.554176
    29  F    6.285860   3.083327   2.382280   3.160043   2.395812
    30  O    7.305318   3.071809   3.097703   2.844022   2.427855
    31  C    8.105941   4.299772   4.082372   4.236966   3.707091
    32  F    7.811590   4.635971   4.059470   4.785319   4.142160
    33  F    8.261865   4.678461   4.551490   4.826981   4.651793
    34  F    9.349451   5.307483   5.207647   4.949484   4.177501
    35  C    8.440926   4.501707   4.329858   3.825906   2.464698
    36  F    9.420290   5.105132   5.211537   4.186601   2.933494
    37  F    8.991856   5.385808   4.991490   4.943753   3.684034
    38  F    8.533709   4.959681   4.734590   4.217212   2.763327
    39  C    6.349304   2.356004   3.414829   1.375351   2.406851
    40  O    7.262695   3.454660   4.371240   2.290448   2.700466
    41  H   10.142817   6.593920   7.804505   5.925094   6.823591
    42  H    6.680342   4.617602   5.706865   4.418107   5.684952
    43  H    7.392111   4.602954   5.678340   3.930990   4.870527
                   26         27         28         29         30
    26  F    0.000000
    27  F    2.181683   0.000000
    28  C    2.389675   2.337788   0.000000
    29  F    2.700287   3.515071   1.363115   0.000000
    30  O    3.602273   2.950324   1.437227   2.251433   0.000000
    31  C    4.743379   4.132775   2.364932   2.797876   1.406225
    32  F    4.881165   4.826061   2.633187   2.413298   2.273234
    33  F    5.792904   5.068625   3.507877   3.842972   2.229443
    34  F    5.189518   4.205910   2.903633   3.631350   2.237741
    35  C    2.897829   2.592142   1.536292   2.353402   2.535071
    36  F    3.594234   2.390432   2.397790   3.546042   2.907300
    37  F    4.068798   3.917445   2.388884   2.708990   3.032736
    38  F    2.532445   2.890281   2.405480   2.850561   3.700969
    39  C    2.891604   2.642070   3.807115   4.462353   4.068385
    40  O    2.870576   2.471742   4.227518   5.003209   4.719094
    41  H    7.675011   6.251046   7.829420   8.837362   7.338787
    42  H    5.973030   5.844799   7.000749   7.472353   6.996708
    43  H    5.012080   4.762207   6.347232   6.981016   6.585449
                   31         32         33         34         35
    31  C    0.000000
    32  F    1.339930   0.000000
    33  F    1.345676   2.187545   0.000000
    34  F    1.342812   2.200546   2.183031   0.000000
    35  C    2.921185   3.081335   4.238632   2.782521   0.000000
    36  F    3.280949   3.859985   4.451439   2.690117   1.352379
    37  F    2.764679   2.527895   4.078334   2.458849   1.355776
    38  F    4.210305   4.159808   5.532335   4.109127   1.350384
    39  C    5.474024   6.120822   6.004919   6.046705   4.814608
    40  O    6.098153   6.749195   6.781570   6.457937   4.888651
    41  H    8.427933   9.572766   8.362150   8.637950   8.592431
    42  H    8.345221   9.035864   8.527575   9.029454   8.107533
    43  H    7.981257   8.688234   8.402137   8.470791   7.197320
                   36         37         38         39         40
    36  F    0.000000
    37  F    2.167670   0.000000
    38  F    2.182230   2.167301   0.000000
    39  C    4.941408   6.052388   5.020410   0.000000
    40  O    4.855655   6.218349   4.859520   1.229416   0.000000
    41  H    8.008991   9.717670   9.139741   5.022377   5.125916
    42  H    8.162620   9.316420   8.283288   3.300406   3.686947
    43  H    7.140135   8.498792   7.205809   2.573402   2.370072
                   41         42         43
    41  H    0.000000
    42  H    4.238650   0.000000
    43  H    4.238205   1.757715   0.000000
 Symmetry turned off by external request.
 Stoichiometry    C14H3F18N3O5
 Framework group  C1[X(C14H3F18N3O5)]
 Deg. of freedom   123
 Full point group                 C1      NOp   1
 Rotational constants (GHZ):      0.1505652      0.0623260      0.0541776
 Leave Link  202 at Sun Mar  3 18:12:03 2024, MaxMem=  5368709120 cpu:         0.1
 (Enter /home/k0335/k033513/app/g09/l301.exe)
 Standard basis: 6-31G(d,p) (6D, 7F)
 Ernie: Thresh=  0.10000D-02 Tol=  0.10000D-05 Strict=F.
   615 basis functions,  1141 primitive gaussians,   615 cartesian basis functions
   155 alpha electrons      155 beta electrons
       nuclear repulsion energy      5997.9019834269 Hartrees.
 IExCor=20419 DFT=T Ex+Corr=CAM-B3LYP ExCW=0 ScaHFX=  1.000000
 ScaDFX=  1.000000  1.000000  1.000000  0.810000 ScalE2=  1.000000  1.000000
 IRadAn=      0 IRanWt=     -1 IRanGd=            0 ICorTp=0 IEmpDi=  4
  HFx wShort=  0.000000 wLong=  0.330000 cFull=  0.190000 cShort=  0.000000 cLong=  0.460000
  DFx wShort=  0.000000 wLong=  0.330000 cFull=  0.190000 cShort=  0.000000 cLong=  0.460000
 NAtoms=   43 NActive=   43 NUniq=   43 SFac= 1.00D+00 NAtFMM=   60 NAOKFM=F Big=F
 Integral buffers will be    131072 words long.
 Raffenetti 2 integral format.
 Two-electron integral symmetry is turned off.
 Using the following non-standard input for PCM:
 eps=4.9
 --- end of non-standard input.
 ------------------------------------------------------------------------------
 Polarizable Continuum Model (PCM)
 =================================
 Model                : PCM (using non-symmetric T matrix).
 Atomic radii         : UFF (Universal Force Field).
 Polarization charges : Total charges.
 Charge compensation  : None.
 Solution method      : On-the-fly selection.
 Cavity type          : Scaled VdW (van der Waals Surface) (Alpha=1.100).
 Cavity algorithm     : GePol (No added spheres)
                        Default sphere list used, NSphG=   43.
                        Lebedev-Laikov grids with approx.  5.0 points / Ang**2.
                        Smoothing algorithm: Karplus/York (Gamma=1.0000).
                        Polarization charges: spherical gaussians, with
                                              point-specific exponents (IZeta= 3).
                        Self-potential: point-specific (ISelfS= 7).
                        Self-field    : sphere-specific E.n sum rule (ISelfD= 2).
 Solvent              : Generic,
                        Eps                           =   4.900000
                        Eps(infinity)                 =   0.000000
                        RSolv                         =   0.000000 Ang.
                        Molar volume                  =   0.000000 cm**3/mol
                        Thermal expansion coefficient =   0.000000 K**-1
                        Absolute temperature          = 298.150000 K
                        Numeral density               =   0.000000 Ang**-3
                        Hydrogen bond acidity         =   0.000000
                        Hydrogen bond basicity        =   0.000000
                        Surface tension at interface  =   0.000000 (cal/mol)*Ang**-2
                        Carbon aromaticity            =   0.000000
                        Electronegative halogenicity  =   0.000000
 ------------------------------------------------------------------------------
 GePol: Number of generator spheres                  =      43
 GePol: Total number of spheres                      =      43
 GePol: Number of exposed spheres                    =      42 ( 97.67%)
 GePol: Number of points                             =    3616
 GePol: Average weight of points                     =       0.13
 GePol: Minimum weight of points                     =   0.45D-09
 GePol: Maximum weight of points                     =    0.20577
 GePol: Number of points with low weight             =     130
 GePol: Fraction of low-weight points (<1% of avg)   =       3.60%
 GePol: Cavity surface area                          =    462.684 Ang**2
 GePol: Cavity volume                                =    534.719 Ang**3
 Leave Link  301 at Sun Mar  3 18:12:03 2024, MaxMem=  5368709120 cpu:         0.9
 (Enter /home/k0335/k033513/app/g09/l302.exe)
 NPDir=0 NMtPBC=     1 NCelOv=     1 NCel=       1 NClECP=     1 NCelD=      1
         NCelK=      1 NCelE2=     1 NClLst=     1 CellRange=     0.0.
 One-electron integrals computed using PRISM.
 NBasis=   615 RedAO= T EigKep=  4.60D-04  NBF=   615
 NBsUse=   615 1.00D-06 EigRej= -1.00D+00 NBFU=   615
 Precomputing XC quadrature grid using
 IXCGrd= 4 IRadAn=           0 IRanWt=          -1 IRanGd=           0 AccXCQ= 0.00D+00.
 Generated NRdTot=       0 NPtTot=           0 NUsed=           0 NTot=          32
 NSgBfM=   600   600   600   601   602 MxSgAt=    43 MxSgA2=    43.
 Leave Link  302 at Sun Mar  3 18:12:03 2024, MaxMem=  5368709120 cpu:        12.8
 (Enter /home/k0335/k033513/app/g09/l303.exe)
 DipDrv:  MaxL=1.
 Leave Link  303 at Sun Mar  3 18:12:04 2024, MaxMem=  5368709120 cpu:         1.1
 (Enter /home/k0335/k033513/app/g09/l401.exe)
 ExpMin= 1.61D-01 ExpMax= 7.00D+03 ExpMxC= 1.05D+03 IAcc=1 IRadAn=         1 AccDes= 0.00D+00
 Harris functional with IExCor=20419 and IRadAn=       1 diagonalized for initial guess.
 HarFok:  IExCor=20419 AccDes= 0.00D+00 IRadAn=         1 IDoV= 1 UseB2=F ITyADJ=14
 ICtDFT=  3500011 ScaDFX=  1.000000  1.000000  1.000000  1.000000
 FoFCou: FMM=F IPFlag=           0 FMFlag=      100000 FMFlg1=           0
         NFxFlg=           0 DoJE=T BraDBF=F KetDBF=T FulRan=T
         wScrn=  0.000000 ICntrl=     500 IOpCl=  0 I1Cent=   200000004 NGrid=           0
         NMat0=    1 NMatS0=      1 NMatT0=    0 NMatD0=    1 NMtDS0=    0 NMtDT0=    0
 Symmetry not used in FoFCou.
 Harris En= -2785.79724606721    
 JPrj=0 DoOrth=F DoCkMO=F.
 Leave Link  401 at Sun Mar  3 18:12:04 2024, MaxMem=  5368709120 cpu:        14.7
 (Enter /home/k0335/k033513/app/g09/l502.exe)
 Closed shell SCF:
 Using DIIS extrapolation, IDIIS=  1040.
 Two-electron integral symmetry not used.
 IVT=     1171761 IEndB=     1171761 NGot=  5368709120 MDV=  5367932840
 LenX=  5367932840 LenY=  5367554000
 Requested convergence on RMS density matrix=1.00D-08 within 128 cycles.
 Requested convergence on MAX density matrix=1.00D-06.
 Requested convergence on             energy=1.00D-06.
 No special actions if energy rises.
 Fock matrices will be formed incrementally for  20 cycles.

 Cycle   1  Pass 1  IDiag  1:
 FoFJK:  IHMeth= 1 ICntrl=       0 DoSepK=T KAlg= 0 I1Cent=   0 FoldK=F
 IRaf=         1 NMat=   1 IRICut=       1 DoRegI=T DoRafI=F ISym2E= 0.
 FoFCou: FMM=F IPFlag=           0 FMFlag=      100000 FMFlg1=           0
         NFxFlg=           0 DoJE=T BraDBF=F KetDBF=F FulRan=T
         wScrn=  0.000000 ICntrl=     500 IOpCl=  0 I1Cent=           0 NGrid=           0
         NMat0=    1 NMatS0=      1 NMatT0=    0 NMatD0=    1 NMtDS0=    0 NMtDT0=    0
 Symmetry not used in FoFCou.
 Inv3:  Mode=1 IEnd=    39226368.
 Iteration    1 A*A^-1 deviation from unit magnitude is 9.33D-15 for   3600.
 Iteration    1 A*A^-1 deviation from orthogonality  is 5.78D-15 for   3600     78.
 Iteration    1 A^-1*A deviation from unit magnitude is 9.77D-15 for   3600.
 Iteration    1 A^-1*A deviation from orthogonality  is 9.05D-11 for   3573   3515.
 E= -2870.96598211653    
 DIIS: error= 5.20D-02 at cycle   1 NSaved=   1.
 NSaved= 1 IEnMin= 1 EnMin= -2870.96598211653     IErMin= 1 ErrMin= 5.20D-02
 ErrMax= 5.20D-02  0.00D+00 EMaxC= 1.00D-01 BMatC= 2.37D+00 BMatP= 2.37D+00
 IDIUse=3 WtCom= 4.80D-01 WtEn= 5.20D-01
 Coeff-Com:  0.100D+01
 Coeff-En:   0.100D+01
 Coeff:      0.100D+01
 Gap=     0.599 Goal=   None    Shift=    0.000
 GapD=    0.599 DampG=2.000 DampE=0.500 DampFc=1.0000 IDamp=-1.
 RMSDP=3.00D-03 MaxDP=1.52D-01              OVMax= 2.10D-01

 Cycle   2  Pass 1  IDiag  1:
 RMSU=  3.00D-03    CP:  1.00D+00
 E= -2871.34045030976     Delta-E=       -0.374468193235 Rises=F Damp=F
 DIIS: error= 1.78D-02 at cycle   2 NSaved=   2.
 NSaved= 2 IEnMin= 2 EnMin= -2871.34045030976     IErMin= 2 ErrMin= 1.78D-02
 ErrMax= 1.78D-02  0.00D+00 EMaxC= 1.00D-01 BMatC= 8.78D-01 BMatP= 2.37D+00
 IDIUse=3 WtCom= 8.22D-01 WtEn= 1.78D-01
 Coeff-Com:  0.357D+00 0.643D+00
 Coeff-En:   0.335D+00 0.665D+00
 Coeff:      0.353D+00 0.647D+00
 Gap=     0.341 Goal=   None    Shift=    0.000
 RMSDP=1.62D-03 MaxDP=1.44D-01 DE=-3.74D-01 OVMax= 1.37D-01

 Cycle   3  Pass 1  IDiag  1:
 RMSU=  1.04D-03    CP:  1.00D+00  5.86D-01
 E= -2871.72384550296     Delta-E=       -0.383395193196 Rises=F Damp=F
 DIIS: error= 1.16D-02 at cycle   3 NSaved=   3.
 NSaved= 3 IEnMin= 3 EnMin= -2871.72384550296     IErMin= 3 ErrMin= 1.16D-02
 ErrMax= 1.16D-02  0.00D+00 EMaxC= 1.00D-01 BMatC= 2.48D-01 BMatP= 8.78D-01
 IDIUse=3 WtCom= 8.84D-01 WtEn= 1.16D-01
 Coeff-Com:  0.113D+00 0.365D+00 0.522D+00
 Coeff-En:   0.000D+00 0.228D+00 0.772D+00
 Coeff:      0.100D+00 0.349D+00 0.551D+00
 Gap=     0.365 Goal=   None    Shift=    0.000
 RMSDP=7.87D-04 MaxDP=7.10D-02 DE=-3.83D-01 OVMax= 9.37D-02

 Cycle   4  Pass 1  IDiag  1:
 RMSU=  3.31D-04    CP:  1.00D+00  7.01D-01  3.98D-01
 E= -2871.88396776122     Delta-E=       -0.160122258267 Rises=F Damp=F
 DIIS: error= 3.58D-03 at cycle   4 NSaved=   4.
 NSaved= 4 IEnMin= 4 EnMin= -2871.88396776122     IErMin= 4 ErrMin= 3.58D-03
 ErrMax= 3.58D-03  0.00D+00 EMaxC= 1.00D-01 BMatC= 2.32D-02 BMatP= 2.48D-01
 IDIUse=3 WtCom= 9.64D-01 WtEn= 3.58D-02
 Coeff-Com:  0.737D-02 0.946D-01 0.285D+00 0.613D+00
 Coeff-En:   0.000D+00 0.000D+00 0.479D-01 0.952D+00
 Coeff:      0.711D-02 0.912D-01 0.277D+00 0.625D+00
 Gap=     0.354 Goal=   None    Shift=    0.000
 RMSDP=2.37D-04 MaxDP=2.26D-02 DE=-1.60D-01 OVMax= 2.43D-02

 Cycle   5  Pass 1  IDiag  1:
 RMSU=  1.04D-04    CP:  1.00D+00  6.89D-01  5.75D-01  6.96D-01
 E= -2871.89925876980     Delta-E=       -0.015291008573 Rises=F Damp=F
 DIIS: error= 7.41D-04 at cycle   5 NSaved=   5.
 NSaved= 5 IEnMin= 5 EnMin= -2871.89925876980     IErMin= 5 ErrMin= 7.41D-04
 ErrMax= 7.41D-04  0.00D+00 EMaxC= 1.00D-01 BMatC= 1.70D-03 BMatP= 2.32D-02
 IDIUse=3 WtCom= 9.93D-01 WtEn= 7.41D-03
 Coeff-Com: -0.162D-02 0.296D-01 0.121D+00 0.349D+00 0.501D+00
 Coeff-En:   0.000D+00 0.000D+00 0.000D+00 0.000D+00 0.100D+01
 Coeff:     -0.161D-02 0.294D-01 0.121D+00 0.347D+00 0.505D+00
 Gap=     0.337 Goal=   None    Shift=    0.000
 RMSDP=5.54D-05 MaxDP=4.03D-03 DE=-1.53D-02 OVMax= 4.91D-03

 Cycle   6  Pass 1  IDiag  1:
 RMSU=  2.59D-05    CP:  1.00D+00  6.94D-01  5.61D-01  7.29D-01  5.91D-01
 E= -2871.90045073872     Delta-E=       -0.001191968922 Rises=F Damp=F
 DIIS: error= 9.83D-05 at cycle   6 NSaved=   6.
 NSaved= 6 IEnMin= 6 EnMin= -2871.90045073872     IErMin= 6 ErrMin= 9.83D-05
 ErrMax= 9.83D-05  0.00D+00 EMaxC= 1.00D-01 BMatC= 2.48D-05 BMatP= 1.70D-03
 IDIUse=1 WtCom= 1.00D+00 WtEn= 0.00D+00
 Coeff-Com: -0.661D-03-0.253D-02-0.183D-02 0.118D-01 0.112D+00 0.881D+00
 Coeff:     -0.661D-03-0.253D-02-0.183D-02 0.118D-01 0.112D+00 0.881D+00
 Gap=     0.338 Goal=   None    Shift=    0.000
 RMSDP=1.13D-05 MaxDP=8.08D-04 DE=-1.19D-03 OVMax= 8.36D-04

 Cycle   7  Pass 1  IDiag  1:
 RMSU=  7.67D-06    CP:  1.00D+00  6.94D-01  5.64D-01  7.40D-01  6.54D-01
                    CP:  1.03D+00
 E= -2871.90047228207     Delta-E=       -0.000021543350 Rises=F Damp=F
 DIIS: error= 4.82D-05 at cycle   7 NSaved=   7.
 NSaved= 7 IEnMin= 7 EnMin= -2871.90047228207     IErMin= 7 ErrMin= 4.82D-05
 ErrMax= 4.82D-05  0.00D+00 EMaxC= 1.00D-01 BMatC= 4.32D-06 BMatP= 2.48D-05
 IDIUse=1 WtCom= 1.00D+00 WtEn= 0.00D+00
 Coeff-Com: -0.168D-03-0.287D-02-0.756D-02-0.151D-01 0.234D-01 0.391D+00
 Coeff-Com:  0.612D+00
 Coeff:     -0.168D-03-0.287D-02-0.756D-02-0.151D-01 0.234D-01 0.391D+00
 Coeff:      0.612D+00
 Gap=     0.339 Goal=   None    Shift=    0.000
 RMSDP=3.48D-06 MaxDP=3.04D-04 DE=-2.15D-05 OVMax= 3.96D-04

 Cycle   8  Pass 1  IDiag  1:
 RMSU=  2.46D-06    CP:  1.00D+00  6.94D-01  5.65D-01  7.41D-01  6.62D-01
                    CP:  1.09D+00  8.03D-01
 E= -2871.90047567138     Delta-E=       -0.000003389316 Rises=F Damp=F
 DIIS: error= 1.13D-05 at cycle   8 NSaved=   8.
 NSaved= 8 IEnMin= 8 EnMin= -2871.90047567138     IErMin= 8 ErrMin= 1.13D-05
 ErrMax= 1.13D-05  0.00D+00 EMaxC= 1.00D-01 BMatC= 3.91D-07 BMatP= 4.32D-06
 IDIUse=1 WtCom= 1.00D+00 WtEn= 0.00D+00
 Coeff-Com:  0.916D-05-0.906D-03-0.277D-02-0.793D-02-0.461D-02 0.386D-01
 Coeff-Com:  0.233D+00 0.745D+00
 Coeff:      0.916D-05-0.906D-03-0.277D-02-0.793D-02-0.461D-02 0.386D-01
 Coeff:      0.233D+00 0.745D+00
 Gap=     0.338 Goal=   None    Shift=    0.000
 RMSDP=1.46D-06 MaxDP=1.28D-04 DE=-3.39D-06 OVMax= 1.79D-04

 Cycle   9  Pass 1  IDiag  1:
 RMSU=  9.91D-07    CP:  1.00D+00  6.94D-01  5.65D-01  7.41D-01  6.67D-01
                    CP:  1.11D+00  8.85D-01  9.82D-01
 E= -2871.90047604597     Delta-E=       -0.000000374583 Rises=F Damp=F
 DIIS: error= 8.23D-06 at cycle   9 NSaved=   9.
 NSaved= 9 IEnMin= 9 EnMin= -2871.90047604597     IErMin= 9 ErrMin= 8.23D-06
 ErrMax= 8.23D-06  0.00D+00 EMaxC= 1.00D-01 BMatC= 5.82D-08 BMatP= 3.91D-07
 IDIUse=1 WtCom= 1.00D+00 WtEn= 0.00D+00
 Coeff-Com:  0.231D-04-0.561D-05-0.118D-03-0.146D-02-0.544D-02-0.418D-01
 Coeff-Com:  0.150D-01 0.320D+00 0.714D+00
 Coeff:      0.231D-04-0.561D-05-0.118D-03-0.146D-02-0.544D-02-0.418D-01
 Coeff:      0.150D-01 0.320D+00 0.714D+00
 Gap=     0.338 Goal=   None    Shift=    0.000
 RMSDP=6.00D-07 MaxDP=6.87D-05 DE=-3.75D-07 OVMax= 9.66D-05

 Cycle  10  Pass 1  IDiag  1:
 RMSU=  3.48D-07    CP:  1.00D+00  6.94D-01  5.65D-01  7.41D-01  6.68D-01
                    CP:  1.11D+00  9.14D-01  1.10D+00  9.19D-01
 E= -2871.90047610429     Delta-E=       -0.000000058324 Rises=F Damp=F
 DIIS: error= 2.84D-06 at cycle  10 NSaved=  10.
 NSaved=10 IEnMin=10 EnMin= -2871.90047610429     IErMin=10 ErrMin= 2.84D-06
 ErrMax= 2.84D-06  0.00D+00 EMaxC= 1.00D-01 BMatC= 1.04D-08 BMatP= 5.82D-08
 IDIUse=1 WtCom= 1.00D+00 WtEn= 0.00D+00
 Coeff-Com:  0.967D-05 0.112D-03 0.316D-03 0.267D-03-0.200D-02-0.262D-01
 Coeff-Com: -0.201D-01 0.743D-01 0.365D+00 0.608D+00
 Coeff:      0.967D-05 0.112D-03 0.316D-03 0.267D-03-0.200D-02-0.262D-01
 Coeff:     -0.201D-01 0.743D-01 0.365D+00 0.608D+00
 Gap=     0.338 Goal=   None    Shift=    0.000
 RMSDP=1.96D-07 MaxDP=1.84D-05 DE=-5.83D-08 OVMax= 2.97D-05

 Cycle  11  Pass 1  IDiag  1:
 RMSU=  1.32D-07    CP:  1.00D+00  6.94D-01  5.65D-01  7.41D-01  6.68D-01
                    CP:  1.11D+00  9.23D-01  1.12D+00  1.01D+00  8.53D-01
 E= -2871.90047611328     Delta-E=       -0.000000008984 Rises=F Damp=F
 DIIS: error= 9.38D-07 at cycle  11 NSaved=  11.
 NSaved=11 IEnMin=11 EnMin= -2871.90047611328     IErMin=11 ErrMin= 9.38D-07
 ErrMax= 9.38D-07  0.00D+00 EMaxC= 1.00D-01 BMatC= 9.08D-10 BMatP= 1.04D-08
 IDIUse=1 WtCom= 1.00D+00 WtEn= 0.00D+00
 Coeff-Com:  0.104D-05 0.440D-04 0.148D-03 0.278D-03 0.605D-04-0.471D-02
 Coeff-Com: -0.935D-02-0.114D-01 0.545D-01 0.243D+00 0.728D+00
 Coeff:      0.104D-05 0.440D-04 0.148D-03 0.278D-03 0.605D-04-0.471D-02
 Coeff:     -0.935D-02-0.114D-01 0.545D-01 0.243D+00 0.728D+00
 Gap=     0.338 Goal=   None    Shift=    0.000
 RMSDP=6.55D-08 MaxDP=5.32D-06 DE=-8.98D-09 OVMax= 1.08D-05

 Cycle  12  Pass 1  IDiag  1:
 RMSU=  3.76D-08    CP:  1.00D+00  6.94D-01  5.65D-01  7.41D-01  6.68D-01
                    CP:  1.12D+00  9.24D-01  1.13D+00  1.03D+00  9.42D-01
                    CP:  9.48D-01
 E= -2871.90047611408     Delta-E=       -0.000000000809 Rises=F Damp=F
 DIIS: error= 2.44D-07 at cycle  12 NSaved=  12.
 NSaved=12 IEnMin=12 EnMin= -2871.90047611408     IErMin=12 ErrMin= 2.44D-07
 ErrMax= 2.44D-07  0.00D+00 EMaxC= 1.00D-01 BMatC= 1.03D-10 BMatP= 9.08D-10
 IDIUse=1 WtCom= 1.00D+00 WtEn= 0.00D+00
 Coeff-Com: -0.445D-06 0.564D-05 0.287D-04 0.780D-04 0.286D-03 0.986D-03
 Coeff-Com: -0.146D-02-0.128D-01-0.189D-01 0.146D-01 0.252D+00 0.765D+00
 Coeff:     -0.445D-06 0.564D-05 0.287D-04 0.780D-04 0.286D-03 0.986D-03
 Coeff:     -0.146D-02-0.128D-01-0.189D-01 0.146D-01 0.252D+00 0.765D+00
 Gap=     0.338 Goal=   None    Shift=    0.000
 RMSDP=2.58D-08 MaxDP=2.24D-06 DE=-8.09D-10 OVMax= 3.08D-06

 Cycle  13  Pass 1  IDiag  1:
 RMSU=  1.28D-08    CP:  1.00D+00  6.94D-01  5.65D-01  7.41D-01  6.68D-01
                    CP:  1.12D+00  9.24D-01  1.13D+00  1.04D+00  9.67D-01
                    CP:  1.04D+00  9.47D-01
 E= -2871.90047611417     Delta-E=       -0.000000000082 Rises=F Damp=F
 DIIS: error= 6.58D-08 at cycle  13 NSaved=  13.
 NSaved=13 IEnMin=13 EnMin= -2871.90047611417     IErMin=13 ErrMin= 6.58D-08
 ErrMax= 6.58D-08  0.00D+00 EMaxC= 1.00D-01 BMatC= 1.15D-11 BMatP= 1.03D-10
 IDIUse=1 WtCom= 1.00D+00 WtEn= 0.00D+00
 Coeff-Com: -0.296D-06-0.278D-05-0.395D-05-0.117D-05 0.115D-03 0.893D-03
 Coeff-Com:  0.472D-03-0.379D-02-0.129D-01-0.233D-01 0.141D-01 0.281D+00
 Coeff-Com:  0.743D+00
 Coeff:     -0.296D-06-0.278D-05-0.395D-05-0.117D-05 0.115D-03 0.893D-03
 Coeff:      0.472D-03-0.379D-02-0.129D-01-0.233D-01 0.141D-01 0.281D+00
 Coeff:      0.743D+00
 Gap=     0.338 Goal=   None    Shift=    0.000
 RMSDP=7.93D-09 MaxDP=5.05D-07 DE=-8.19D-11 OVMax= 1.37D-06

 Error on total polarization charges =  0.00231
 SCF Done:  E(RCAM-B3LYP) =  -2871.90047611     A.U. after   13 cycles
            NFock= 13  Conv=0.79D-08     -V/T= 2.0074
 KE= 2.850897572781D+03 PE=-1.878178949609D+04 EE= 7.061089463770D+03
 Leave Link  502 at Sun Mar  3 18:12:58 2024, MaxMem=  5368709120 cpu:      1206.6
 (Enter /home/k0335/k033513/app/g09/l601.exe)
 Copying SCF densities to generalized density rwf, IOpCl= 0 IROHF=0.

 **********************************************************************

            Population analysis using the SCF density.

 **********************************************************************

 Alpha  occ. eigenvalues --  -24.83971 -24.83910 -24.83732 -24.83713 -24.83699
 Alpha  occ. eigenvalues --  -24.83614 -24.83558 -24.83443 -24.83434 -24.83270
 Alpha  occ. eigenvalues --  -24.83260 -24.83191 -24.83061 -24.82991 -24.82953
 Alpha  occ. eigenvalues --  -24.82936 -24.82376 -24.82268 -19.33537 -19.32977
 Alpha  occ. eigenvalues --  -19.25277 -19.24540 -19.24325 -14.53490 -14.53197
 Alpha  occ. eigenvalues --  -14.51390 -10.59855 -10.59593 -10.55668 -10.55634
 Alpha  occ. eigenvalues --  -10.53892 -10.53767 -10.49402 -10.49300 -10.47295
 Alpha  occ. eigenvalues --  -10.46313 -10.46240 -10.34864 -10.27837 -10.27075
 Alpha  occ. eigenvalues --   -1.43466  -1.43300  -1.41984  -1.41932  -1.39241
 Alpha  occ. eigenvalues --   -1.39112  -1.35515  -1.35381  -1.33764  -1.33512
 Alpha  occ. eigenvalues --   -1.33501  -1.33350  -1.33190  -1.32995  -1.32432
 Alpha  occ. eigenvalues --   -1.32423  -1.32004  -1.31430  -1.24058  -1.20875
 Alpha  occ. eigenvalues --   -1.20712  -1.18823  -1.18246  -1.10693  -1.08978
 Alpha  occ. eigenvalues --   -1.07444  -0.94207  -0.93514  -0.89213  -0.85904
 Alpha  occ. eigenvalues --   -0.84414  -0.82471  -0.82438  -0.81884  -0.79219
 Alpha  occ. eigenvalues --   -0.78962  -0.76380  -0.76248  -0.75005  -0.73633
 Alpha  occ. eigenvalues --   -0.73025  -0.72626  -0.71504  -0.70826  -0.70676
 Alpha  occ. eigenvalues --   -0.70245  -0.69662  -0.69404  -0.68894  -0.68621
 Alpha  occ. eigenvalues --   -0.67879  -0.67299  -0.66773  -0.66326  -0.65832
 Alpha  occ. eigenvalues --   -0.65542  -0.64550  -0.63633  -0.61772  -0.60349
 Alpha  occ. eigenvalues --   -0.59939  -0.59609  -0.58171  -0.57834  -0.57630
 Alpha  occ. eigenvalues --   -0.57303  -0.57137  -0.56904  -0.56613  -0.56296
 Alpha  occ. eigenvalues --   -0.55951  -0.55843  -0.55700  -0.55523  -0.55154
 Alpha  occ. eigenvalues --   -0.54946  -0.54750  -0.54581  -0.54045  -0.53960
 Alpha  occ. eigenvalues --   -0.53534  -0.53469  -0.53104  -0.52832  -0.52669
 Alpha  occ. eigenvalues --   -0.52328  -0.52112  -0.52006  -0.51554  -0.51348
 Alpha  occ. eigenvalues --   -0.51032  -0.50946  -0.50753  -0.50590  -0.50431
 Alpha  occ. eigenvalues --   -0.50356  -0.50299  -0.50031  -0.49580  -0.49362
 Alpha  occ. eigenvalues --   -0.49158  -0.48954  -0.48800  -0.46279  -0.46148
 Alpha  occ. eigenvalues --   -0.44682  -0.44641  -0.41558  -0.40401  -0.39513
 Alpha  occ. eigenvalues --   -0.38811  -0.37902  -0.36599  -0.35169  -0.34477
 Alpha virt. eigenvalues --   -0.00627   0.00571   0.05669   0.06162   0.06936
 Alpha virt. eigenvalues --    0.07395   0.08336   0.09620   0.09980   0.14242
 Alpha virt. eigenvalues --    0.14770   0.16240   0.16958   0.17701   0.18190
 Alpha virt. eigenvalues --    0.18517   0.19275   0.19759   0.20590   0.21274
 Alpha virt. eigenvalues --    0.21490   0.22252   0.22461   0.22664   0.22829
 Alpha virt. eigenvalues --    0.23187   0.23973   0.24632   0.24814   0.25766
 Alpha virt. eigenvalues --    0.26207   0.27064   0.27100   0.27356   0.27819
 Alpha virt. eigenvalues --    0.28641   0.28801   0.30360   0.31049   0.32743
 Alpha virt. eigenvalues --    0.33297   0.36994   0.37522   0.38551   0.39391
 Alpha virt. eigenvalues --    0.41655   0.43242   0.46900   0.47834   0.48335
 Alpha virt. eigenvalues --    0.49327   0.50051   0.50488   0.51128   0.51150
 Alpha virt. eigenvalues --    0.51601   0.52058   0.53102   0.53417   0.53732
 Alpha virt. eigenvalues --    0.54019   0.55120   0.55662   0.56237   0.56509
 Alpha virt. eigenvalues --    0.57016   0.57536   0.58688   0.58838   0.60285
 Alpha virt. eigenvalues --    0.60444   0.61348   0.62980   0.63060   0.64354
 Alpha virt. eigenvalues --    0.64700   0.66873   0.67925   0.68330   0.69705
 Alpha virt. eigenvalues --    0.70642   0.71754   0.71923   0.73134   0.76087
 Alpha virt. eigenvalues --    0.77092   0.78230   0.78978   0.79957   0.80523
 Alpha virt. eigenvalues --    0.81467   0.81992   0.84203   0.84669   0.85195
 Alpha virt. eigenvalues --    0.87130   0.87598   0.88611   0.89734   0.91179
 Alpha virt. eigenvalues --    0.92112   0.92147   0.93109   0.93486   0.95131
 Alpha virt. eigenvalues --    0.96443   0.97110   0.98202   0.98566   0.98787
 Alpha virt. eigenvalues --    1.00486   1.02062   1.02683   1.03177   1.05094
 Alpha virt. eigenvalues --    1.05933   1.06841   1.07211   1.08290   1.09300
 Alpha virt. eigenvalues --    1.09653   1.10488   1.10897   1.11736   1.12602
 Alpha virt. eigenvalues --    1.13285   1.13737   1.14166   1.14720   1.15137
 Alpha virt. eigenvalues --    1.16317   1.16996   1.17482   1.17742   1.18028
 Alpha virt. eigenvalues --    1.18977   1.19298   1.20235   1.21246   1.21474
 Alpha virt. eigenvalues --    1.22419   1.24152   1.24577   1.26241   1.26378
 Alpha virt. eigenvalues --    1.26939   1.27436   1.28006   1.28677   1.29254
 Alpha virt. eigenvalues --    1.29593   1.30711   1.31293   1.31768   1.32678
 Alpha virt. eigenvalues --    1.33256   1.33537   1.33924   1.34245   1.34615
 Alpha virt. eigenvalues --    1.34921   1.35498   1.36099   1.36706   1.37623
 Alpha virt. eigenvalues --    1.38348   1.38756   1.38948   1.39887   1.40025
 Alpha virt. eigenvalues --    1.40190   1.41110   1.41299   1.41643   1.42628
 Alpha virt. eigenvalues --    1.43073   1.43556   1.44202   1.44257   1.45152
 Alpha virt. eigenvalues --    1.45902   1.46866   1.47547   1.48185   1.49167
 Alpha virt. eigenvalues --    1.49838   1.50320   1.51105   1.51866   1.52497
 Alpha virt. eigenvalues --    1.53569   1.53689   1.54138   1.54764   1.56085
 Alpha virt. eigenvalues --    1.56270   1.57160   1.57308   1.57689   1.58310
 Alpha virt. eigenvalues --    1.59190   1.59613   1.60531   1.60895   1.61492
 Alpha virt. eigenvalues --    1.62751   1.63442   1.64841   1.66506   1.66827
 Alpha virt. eigenvalues --    1.67349   1.68023   1.68312   1.69758   1.70015
 Alpha virt. eigenvalues --    1.70409   1.70776   1.71517   1.73153   1.73692
 Alpha virt. eigenvalues --    1.73947   1.75334   1.75736   1.77465   1.78270
 Alpha virt. eigenvalues --    1.78719   1.79350   1.79866   1.80206   1.80921
 Alpha virt. eigenvalues --    1.81398   1.81927   1.82744   1.83240   1.83421
 Alpha virt. eigenvalues --    1.83804   1.84161   1.84391   1.85464   1.86114
 Alpha virt. eigenvalues --    1.86451   1.86717   1.87356   1.87889   1.87980
 Alpha virt. eigenvalues --    1.89036   1.89219   1.89750   1.90084   1.90261
 Alpha virt. eigenvalues --    1.90674   1.91218   1.91877   1.92408   1.93124
 Alpha virt. eigenvalues --    1.93280   1.93550   1.93649   1.94087   1.94211
 Alpha virt. eigenvalues --    1.95282   1.95720   1.96297   1.96816   1.97063
 Alpha virt. eigenvalues --    1.97680   1.97809   1.99153   1.99438   1.99725
 Alpha virt. eigenvalues --    1.99855   2.00044   2.00622   2.01249   2.01700
 Alpha virt. eigenvalues --    2.01870   2.02081   2.02685   2.02739   2.03334
 Alpha virt. eigenvalues --    2.03517   2.03760   2.04099   2.04238   2.05124
 Alpha virt. eigenvalues --    2.05296   2.05500   2.05793   2.06412   2.06896
 Alpha virt. eigenvalues --    2.07741   2.08832   2.08854   2.09081   2.10066
 Alpha virt. eigenvalues --    2.10720   2.11157   2.11853   2.12018   2.12550
 Alpha virt. eigenvalues --    2.12984   2.14248   2.14733   2.15909   2.17617
 Alpha virt. eigenvalues --    2.17834   2.18516   2.18974   2.19782   2.20884
 Alpha virt. eigenvalues --    2.20995   2.21600   2.23341   2.25046   2.25110
 Alpha virt. eigenvalues --    2.25573   2.26464   2.27088   2.28170   2.28273
 Alpha virt. eigenvalues --    2.29587   2.30067   2.32085   2.33676   2.34797
 Alpha virt. eigenvalues --    2.36117   2.37698   2.38334   2.39599   2.39779
 Alpha virt. eigenvalues --    2.41162   2.41371   2.41979   2.42594   2.44054
 Alpha virt. eigenvalues --    2.44846   2.45607   2.46049   2.47780   2.48032
 Alpha virt. eigenvalues --    2.48796   2.50133   2.50636   2.51591   2.53499
 Alpha virt. eigenvalues --    2.55094   2.55679   2.57885   2.58447   2.59307
 Alpha virt. eigenvalues --    2.60869   2.61372   2.62361   2.64138   2.65204
 Alpha virt. eigenvalues --    2.65703   2.66029   2.68538   2.69791   2.70992
 Alpha virt. eigenvalues --    2.71192   2.72460   2.73216   2.75528   2.76441
 Alpha virt. eigenvalues --    2.77759   2.79742   2.80227   2.82436   2.83104
 Alpha virt. eigenvalues --    2.83753   2.84626   2.86000   2.86921   2.88405
 Alpha virt. eigenvalues --    2.89495   2.90785   2.92475   2.93150   2.93485
 Alpha virt. eigenvalues --    2.94061   2.94408   2.95930   2.97090   2.98023
 Alpha virt. eigenvalues --    2.99445   2.99887   3.01459   3.03371   3.04868
 Alpha virt. eigenvalues --    3.05327   3.06115   3.06275   3.06512   3.07453
 Alpha virt. eigenvalues --    3.08470   3.09077   3.10455   3.11415   3.14039
 Alpha virt. eigenvalues --    3.14491   3.15310   3.16045   3.17766   3.18630
 Alpha virt. eigenvalues --    3.19817   3.21214   3.23740   3.25552   3.27012
 Alpha virt. eigenvalues --    3.29737   3.30030   3.32007   3.32271   3.34938
 Alpha virt. eigenvalues --    3.35618   3.42633   3.50994   3.52029   3.78546
 Alpha virt. eigenvalues --    4.04232   4.06410   4.10520   4.15975   4.20534
 Alpha virt. eigenvalues --    4.24220   4.31352   4.32898   4.34265   4.37143
 Alpha virt. eigenvalues --    4.40123   4.42808   4.45264   4.46892   4.49311
 Alpha virt. eigenvalues --    4.53252   4.55754   4.62098   4.62588   4.67954
 Alpha virt. eigenvalues --    4.72269   4.75219   4.76827   4.81206   4.88316
 Alpha virt. eigenvalues --    4.95222   5.09587   5.14041   5.19496   5.21534
 Alpha virt. eigenvalues --    5.38351   5.43130   5.47782   5.56964   5.70379
 Alpha virt. eigenvalues --    5.77682   6.23818   6.29835   6.38733   6.42665
          Condensed to atoms (all electrons):
               1          2          3          4          5          6
     1  C    5.318775   0.893005  -0.144705  -0.001921   0.000044  -0.000510
     2  C    0.893005   4.630177   0.325917  -0.070646  -0.000382  -0.001438
     3  C   -0.144705   0.325917   5.012260   0.254083  -0.021894   0.000029
     4  N   -0.001921  -0.070646   0.254083   7.336948   0.243331  -0.087885
     5  C    0.000044  -0.000382  -0.021894   0.243331   4.163748   0.589720
     6  O   -0.000510  -0.001438   0.000029  -0.087885   0.589720   8.067292
     7  N   -0.000017  -0.000431   0.002991  -0.096549   0.206216  -0.088729
     8  C    0.000000   0.000005  -0.000046   0.001664  -0.012106   0.014362
     9  F    0.000000  -0.000001   0.000004   0.000040   0.005077  -0.007305
    10  F    0.000000   0.000000   0.000000  -0.000023   0.000486   0.000012
    11  C    0.000000   0.000000   0.000000  -0.000168  -0.003592  -0.003322
    12  F    0.000000   0.000000   0.000000   0.000000   0.000052  -0.000001
    13  O    0.000000   0.000000   0.000005  -0.000112   0.006519  -0.006628
    14  C    0.000000   0.000000   0.000000   0.000000   0.000231   0.000617
    15  F    0.000000   0.000000   0.000000   0.000000   0.000002   0.000000
    16  F    0.000000   0.000000   0.000000   0.000000  -0.000004  -0.000010
    17  F    0.000000   0.000000   0.000000   0.000000  -0.000009  -0.000003
    18  C    0.000000   0.000000   0.000000   0.000020  -0.000176  -0.000078
    19  F    0.000000   0.000000   0.000000   0.000000   0.000016   0.000000
    20  F    0.000000   0.000000   0.000000  -0.000109   0.001335   0.000000
    21  F    0.000000   0.000000   0.000000   0.000000   0.000002   0.000000
    22  C    0.000005   0.000149   0.000312  -0.000645  -0.013704   0.000066
    23  O    0.000000   0.000000   0.000002   0.000128   0.000116  -0.000030
    24  N   -0.000008  -0.000423   0.002942  -0.095976  -0.001183   0.000046
    25  C    0.000002   0.000009  -0.000071   0.002445   0.000488   0.000001
    26  F    0.000000   0.000000   0.000001   0.000011   0.000013   0.000000
    27  F    0.000000  -0.000002   0.000007  -0.000011   0.000000   0.000000
    28  C    0.000000   0.000000   0.000001  -0.000078  -0.000013   0.000000
    29  F    0.000000   0.000000   0.000000   0.000000   0.000000   0.000000
    30  O    0.000000   0.000000   0.000000  -0.000005   0.000003   0.000000
    31  C    0.000000   0.000000   0.000000   0.000000   0.000000   0.000000
    32  F    0.000000   0.000000   0.000000   0.000000   0.000000   0.000000
    33  F    0.000000   0.000000   0.000000   0.000000   0.000000   0.000000
    34  F    0.000000   0.000000   0.000000   0.000000   0.000000   0.000000
    35  C    0.000000   0.000000   0.000000   0.000000   0.000000   0.000000
    36  F    0.000000   0.000000   0.000000   0.000000   0.000000   0.000000
    37  F    0.000000   0.000000   0.000000   0.000000   0.000000   0.000000
    38  F    0.000000   0.000000   0.000000   0.000000   0.000000   0.000000
    39  C    0.000053   0.000788  -0.020461   0.254248  -0.018076   0.000439
    40  O   -0.000388  -0.001413  -0.001091  -0.087056   0.000635  -0.000025
    41  H    0.350861   0.016847   0.002334  -0.000037  -0.000004  -0.000001
    42  H   -0.000156  -0.033486   0.383783  -0.033823  -0.003893   0.010574
    43  H    0.000007  -0.033173   0.383043  -0.033767   0.004326   0.000483
               7          8          9         10         11         12
     1  C   -0.000017   0.000000   0.000000   0.000000   0.000000   0.000000
     2  C   -0.000431   0.000005  -0.000001   0.000000   0.000000   0.000000
     3  C    0.002991  -0.000046   0.000004   0.000000   0.000000   0.000000
     4  N   -0.096549   0.001664   0.000040  -0.000023  -0.000168   0.000000
     5  C    0.206216  -0.012106   0.005077   0.000486  -0.003592   0.000052
     6  O   -0.088729   0.014362  -0.007305   0.000012  -0.003322  -0.000001
     7  N    7.667655   0.109952  -0.047570  -0.040522  -0.075862   0.001455
     8  C    0.109952   4.403338   0.280865   0.287300   0.238732  -0.008060
     9  F   -0.047570   0.280865   9.096530  -0.043162  -0.024783  -0.000907
    10  F   -0.040522   0.287300  -0.043162   9.078426  -0.030094  -0.000746
    11  C   -0.075862   0.238732  -0.024783  -0.030094   5.003995   0.211490
    12  F    0.001455  -0.008060  -0.000907  -0.000746   0.211490   9.133266
    13  O    0.001953  -0.029237   0.000208   0.000536   0.162864  -0.049877
    14  C   -0.000200   0.001377  -0.000039   0.000004   0.000638  -0.000145
    15  F    0.000000   0.000150   0.000000   0.000000   0.012909  -0.002575
    16  F    0.000000  -0.000029   0.000000   0.000000   0.000558  -0.000023
    17  F    0.000004  -0.000132   0.000000   0.000000  -0.010122  -0.000022
    18  C    0.002703  -0.039243   0.001479   0.000735   0.169799  -0.017111
    19  F   -0.000544   0.001266   0.000001  -0.000212  -0.025750  -0.000204
    20  F   -0.001399  -0.002994   0.000001  -0.000098  -0.028487   0.000342
    21  F   -0.000015   0.001445  -0.000001  -0.000001  -0.025634  -0.000057
    22  C    0.188418  -0.008422   0.000749   0.009717  -0.000776   0.000039
    23  O   -0.091366   0.011214   0.000013  -0.012399  -0.005033   0.000003
    24  N   -0.101495   0.000440  -0.000032  -0.000041  -0.000195   0.000000
    25  C    0.003727  -0.000028   0.000000   0.000017   0.000001   0.000000
    26  F    0.000003   0.000000   0.000000   0.000000   0.000000   0.000000
    27  F   -0.000023   0.000000   0.000000   0.000000   0.000000   0.000000
    28  C   -0.000511  -0.000014   0.000000  -0.000022   0.000000   0.000000
    29  F    0.000001   0.000004   0.000000   0.000000   0.000000   0.000000
    30  O   -0.000306   0.000024   0.000000  -0.000003   0.000000   0.000000
    31  C   -0.000008   0.000002   0.000000   0.000006   0.000000   0.000000
    32  F    0.000000   0.000000   0.000000   0.000000   0.000000   0.000000
    33  F    0.000000   0.000000   0.000000   0.000000   0.000000   0.000000
    34  F    0.000000   0.000000   0.000000   0.000000   0.000000   0.000000
    35  C   -0.000002   0.000000   0.000000   0.000000   0.000000   0.000000
    36  F    0.000000   0.000000   0.000000   0.000000   0.000000   0.000000
    37  F    0.000000   0.000000   0.000000   0.000000   0.000000   0.000000
    38  F    0.000000   0.000000   0.000000   0.000000   0.000000   0.000000
    39  C   -0.002227   0.000367   0.000010   0.000007   0.000021   0.000000
    40  O    0.000098   0.000001   0.000000   0.000000   0.000000   0.000000
    41  H    0.000000   0.000000   0.000000   0.000000   0.000000   0.000000
    42  H    0.000491   0.000007   0.000001   0.000000   0.000000   0.000000
    43  H   -0.000040   0.000001   0.000000   0.000000   0.000000   0.000000
              13         14         15         16         17         18
     1  C    0.000000   0.000000   0.000000   0.000000   0.000000   0.000000
     2  C    0.000000   0.000000   0.000000   0.000000   0.000000   0.000000
     3  C    0.000005   0.000000   0.000000   0.000000   0.000000   0.000000
     4  N   -0.000112   0.000000   0.000000   0.000000   0.000000   0.000020
     5  C    0.006519   0.000231   0.000002  -0.000004  -0.000009  -0.000176
     6  O   -0.006628   0.000617   0.000000  -0.000010  -0.000003  -0.000078
     7  N    0.001953  -0.000200   0.000000   0.000000   0.000004   0.002703
     8  C   -0.029237   0.001377   0.000150  -0.000029  -0.000132  -0.039243
     9  F    0.000208  -0.000039   0.000000   0.000000   0.000000   0.001479
    10  F    0.000536   0.000004   0.000000   0.000000   0.000000   0.000735
    11  C    0.162864   0.000638   0.012909   0.000558  -0.010122   0.169799
    12  F   -0.049877  -0.000145  -0.002575  -0.000023  -0.000022  -0.017111
    13  O    8.345094   0.233059  -0.044939  -0.039125  -0.048138  -0.030212
    14  C    0.233059   3.826155   0.295055   0.339888   0.300070  -0.005186
    15  F   -0.044939   0.295055   9.057981  -0.036295  -0.033686  -0.004764
    16  F   -0.039125   0.339888  -0.036295   9.010321  -0.037876  -0.000029
    17  F   -0.048138   0.300070  -0.033686  -0.037876   9.068266   0.018165
    18  C   -0.030212  -0.005186  -0.004764  -0.000029   0.018165   4.263363
    19  F    0.000578   0.000072  -0.000001   0.000000   0.000000   0.287121
    20  F    0.000213  -0.000242   0.000013   0.000000  -0.000402   0.249697
    21  F   -0.001691   0.012656  -0.001961  -0.000004  -0.007521   0.275014
    22  C   -0.000105   0.000006   0.000000   0.000000   0.000000   0.001708
    23  O    0.000013   0.000000   0.000000   0.000000   0.000000   0.007526
    24  N    0.000000   0.000000   0.000000   0.000000   0.000000  -0.000012
    25  C    0.000000   0.000000   0.000000   0.000000   0.000000  -0.000003
    26  F    0.000000   0.000000   0.000000   0.000000   0.000000   0.000000
    27  F    0.000000   0.000000   0.000000   0.000000   0.000000   0.000000
    28  C    0.000000   0.000000   0.000000   0.000000   0.000000   0.000000
    29  F    0.000000   0.000000   0.000000   0.000000   0.000000   0.000001
    30  O    0.000000   0.000000   0.000000   0.000000   0.000000   0.000000
    31  C    0.000000   0.000000   0.000000   0.000000   0.000000   0.000000
    32  F    0.000000   0.000000   0.000000   0.000000   0.000000   0.000000
    33  F    0.000000   0.000000   0.000000   0.000000   0.000000   0.000000
    34  F    0.000000   0.000000   0.000000   0.000000   0.000000   0.000000
    35  C    0.000000   0.000000   0.000000   0.000000   0.000000   0.000000
    36  F    0.000000   0.000000   0.000000   0.000000   0.000000   0.000000
    37  F    0.000000   0.000000   0.000000   0.000000   0.000000   0.000000
    38  F    0.000000   0.000000   0.000000   0.000000   0.000000   0.000000
    39  C    0.000002   0.000000   0.000000   0.000000   0.000000  -0.000002
    40  O    0.000000   0.000000   0.000000   0.000000   0.000000   0.000000
    41  H    0.000000   0.000000   0.000000   0.000000   0.000000   0.000000
    42  H   -0.000005   0.000002   0.000000   0.000000   0.000000   0.000000
    43  H    0.000000   0.000000   0.000000   0.000000   0.000000   0.000000
              19         20         21         22         23         24
     1  C    0.000000   0.000000   0.000000   0.000005   0.000000  -0.000008
     2  C    0.000000   0.000000   0.000000   0.000149   0.000000  -0.000423
     3  C    0.000000   0.000000   0.000000   0.000312   0.000002   0.002942
     4  N    0.000000  -0.000109   0.000000  -0.000645   0.000128  -0.095976
     5  C    0.000016   0.001335   0.000002  -0.013704   0.000116  -0.001183
     6  O    0.000000   0.000000   0.000000   0.000066  -0.000030   0.000046
     7  N   -0.000544  -0.001399  -0.000015   0.188418  -0.091366  -0.101495
     8  C    0.001266  -0.002994   0.001445  -0.008422   0.011214   0.000440
     9  F    0.000001   0.000001  -0.000001   0.000749   0.000013  -0.000032
    10  F   -0.000212  -0.000098  -0.000001   0.009717  -0.012399  -0.000041
    11  C   -0.025750  -0.028487  -0.025634  -0.000776  -0.005033  -0.000195
    12  F   -0.000204   0.000342  -0.000057   0.000039   0.000003   0.000000
    13  O    0.000578   0.000213  -0.001691  -0.000105   0.000013   0.000000
    14  C    0.000072  -0.000242   0.012656   0.000006   0.000000   0.000000
    15  F   -0.000001   0.000013  -0.001961   0.000000   0.000000   0.000000
    16  F    0.000000   0.000000  -0.000004   0.000000   0.000000   0.000000
    17  F    0.000000  -0.000402  -0.007521   0.000000   0.000000   0.000000
    18  C    0.287121   0.249697   0.275014   0.001708   0.007526  -0.000012
    19  F    9.048555  -0.034645  -0.039776  -0.000577  -0.001397  -0.000007
    20  F   -0.034645   9.100143  -0.038069   0.012132  -0.005470  -0.000219
    21  F   -0.039776  -0.038069   9.079276   0.000011  -0.000004   0.000000
    22  C   -0.000577   0.012132   0.000011   4.250574   0.553442   0.194319
    23  O   -0.001397  -0.005470  -0.000004   0.553442   8.104383  -0.093511
    24  N   -0.000007  -0.000219   0.000000   0.194319  -0.093511   7.614526
    25  C    0.000000   0.000001   0.000000  -0.010682   0.012509   0.154339
    26  F    0.000000   0.000000   0.000000   0.005599  -0.001053  -0.067911
    27  F    0.000000   0.000000   0.000000   0.002109   0.000016  -0.035948
    28  C    0.000000   0.000002   0.000000  -0.008881   0.006184  -0.027418
    29  F    0.000000   0.000000   0.000000   0.004049  -0.013548  -0.001196
    30  O    0.000000   0.000000   0.000000   0.005757  -0.002720  -0.002603
    31  C    0.000000   0.000000   0.000000   0.000089   0.000064  -0.000041
    32  F    0.000000   0.000000   0.000000   0.000000  -0.000007  -0.000002
    33  F    0.000000   0.000000   0.000000  -0.000008   0.000000   0.000000
    34  F    0.000000   0.000000   0.000000   0.000002   0.000000   0.000001
    35  C    0.000000   0.000000   0.000000   0.000202   0.000239   0.002542
    36  F    0.000000   0.000000   0.000000   0.000001   0.000000  -0.000055
    37  F    0.000000   0.000000   0.000000  -0.000001   0.000000  -0.000009
    38  F    0.000000   0.000000   0.000000  -0.000001   0.000000   0.000046
    39  C    0.000000   0.000109   0.000000  -0.013981   0.000132   0.190439
    40  O    0.000000   0.000000   0.000000  -0.000351  -0.000013  -0.088081
    41  H    0.000000   0.000000   0.000000   0.000000   0.000000   0.000000
    42  H    0.000000   0.000000   0.000000  -0.000057   0.000000  -0.000058
    43  H    0.000000   0.000000   0.000000  -0.000063   0.000000   0.000510
              25         26         27         28         29         30
     1  C    0.000002   0.000000   0.000000   0.000000   0.000000   0.000000
     2  C    0.000009   0.000000  -0.000002   0.000000   0.000000   0.000000
     3  C   -0.000071   0.000001   0.000007   0.000001   0.000000   0.000000
     4  N    0.002445   0.000011  -0.000011  -0.000078   0.000000  -0.000005
     5  C    0.000488   0.000013   0.000000  -0.000013   0.000000   0.000003
     6  O    0.000001   0.000000   0.000000   0.000000   0.000000   0.000000
     7  N    0.003727   0.000003  -0.000023  -0.000511   0.000001  -0.000306
     8  C   -0.000028   0.000000   0.000000  -0.000014   0.000004   0.000024
     9  F    0.000000   0.000000   0.000000   0.000000   0.000000   0.000000
    10  F    0.000017   0.000000   0.000000  -0.000022   0.000000  -0.000003
    11  C    0.000001   0.000000   0.000000   0.000000   0.000000   0.000000
    12  F    0.000000   0.000000   0.000000   0.000000   0.000000   0.000000
    13  O    0.000000   0.000000   0.000000   0.000000   0.000000   0.000000
    14  C    0.000000   0.000000   0.000000   0.000000   0.000000   0.000000
    15  F    0.000000   0.000000   0.000000   0.000000   0.000000   0.000000
    16  F    0.000000   0.000000   0.000000   0.000000   0.000000   0.000000
    17  F    0.000000   0.000000   0.000000   0.000000   0.000000   0.000000
    18  C   -0.000003   0.000000   0.000000   0.000000   0.000001   0.000000
    19  F    0.000000   0.000000   0.000000   0.000000   0.000000   0.000000
    20  F    0.000001   0.000000   0.000000   0.000002   0.000000   0.000000
    21  F    0.000000   0.000000   0.000000   0.000000   0.000000   0.000000
    22  C   -0.010682   0.005599   0.002109  -0.008881   0.004049   0.005757
    23  O    0.012509  -0.001053   0.000016   0.006184  -0.013548  -0.002720
    24  N    0.154339  -0.067911  -0.035948  -0.027418  -0.001196  -0.002603
    25  C    4.301557   0.288594   0.255805   0.240434  -0.022796  -0.027032
    26  F    0.288594   9.088103  -0.036402  -0.026157   0.000294   0.000549
    27  F    0.255805  -0.036402   9.116493  -0.035365   0.000324   0.000684
    28  C    0.240434  -0.026157  -0.035365   4.973017   0.207167   0.135054
    29  F   -0.022796   0.000294   0.000324   0.207167   9.137538  -0.045963
    30  O   -0.027032   0.000549   0.000684   0.135054  -0.045963   8.379576
    31  C    0.000881   0.000004  -0.000038  -0.000084  -0.001112   0.234204
    32  F    0.000240   0.000000   0.000000   0.012727  -0.002550  -0.044766
    33  F   -0.000045   0.000000   0.000000   0.000606  -0.000021  -0.039583
    34  F   -0.000149   0.000000   0.000001  -0.008903  -0.000019  -0.048039
    35  C   -0.026544  -0.004405   0.011969   0.221187  -0.012102  -0.025836
    36  F   -0.002218  -0.000015  -0.002913  -0.033951   0.000316   0.000366
    37  F    0.001424  -0.000002   0.000003  -0.031887  -0.000315  -0.001374
    38  F    0.010264  -0.000378  -0.001826  -0.033136  -0.000274   0.000545
    39  C   -0.000848   0.006327   0.003787   0.003757  -0.000052  -0.000075
    40  O    0.017283  -0.002637  -0.011460   0.000282   0.000000   0.000000
    41  H    0.000000   0.000000   0.000000   0.000000   0.000000   0.000000
    42  H    0.000001   0.000000   0.000000   0.000000   0.000000   0.000000
    43  H    0.000009   0.000000   0.000003   0.000000   0.000000   0.000000
              31         32         33         34         35         36
     1  C    0.000000   0.000000   0.000000   0.000000   0.000000   0.000000
     2  C    0.000000   0.000000   0.000000   0.000000   0.000000   0.000000
     3  C    0.000000   0.000000   0.000000   0.000000   0.000000   0.000000
     4  N    0.000000   0.000000   0.000000   0.000000   0.000000   0.000000
     5  C    0.000000   0.000000   0.000000   0.000000   0.000000   0.000000
     6  O    0.000000   0.000000   0.000000   0.000000   0.000000   0.000000
     7  N   -0.000008   0.000000   0.000000   0.000000  -0.000002   0.000000
     8  C    0.000002   0.000000   0.000000   0.000000   0.000000   0.000000
     9  F    0.000000   0.000000   0.000000   0.000000   0.000000   0.000000
    10  F    0.000006   0.000000   0.000000   0.000000   0.000000   0.000000
    11  C    0.000000   0.000000   0.000000   0.000000   0.000000   0.000000
    12  F    0.000000   0.000000   0.000000   0.000000   0.000000   0.000000
    13  O    0.000000   0.000000   0.000000   0.000000   0.000000   0.000000
    14  C    0.000000   0.000000   0.000000   0.000000   0.000000   0.000000
    15  F    0.000000   0.000000   0.000000   0.000000   0.000000   0.000000
    16  F    0.000000   0.000000   0.000000   0.000000   0.000000   0.000000
    17  F    0.000000   0.000000   0.000000   0.000000   0.000000   0.000000
    18  C    0.000000   0.000000   0.000000   0.000000   0.000000   0.000000
    19  F    0.000000   0.000000   0.000000   0.000000   0.000000   0.000000
    20  F    0.000000   0.000000   0.000000   0.000000   0.000000   0.000000
    21  F    0.000000   0.000000   0.000000   0.000000   0.000000   0.000000
    22  C    0.000089   0.000000  -0.000008   0.000002   0.000202   0.000001
    23  O    0.000064  -0.000007   0.000000   0.000000   0.000239   0.000000
    24  N   -0.000041  -0.000002   0.000000   0.000001   0.002542  -0.000055
    25  C    0.000881   0.000240  -0.000045  -0.000149  -0.026544  -0.002218
    26  F    0.000004   0.000000   0.000000   0.000000  -0.004405  -0.000015
    27  F   -0.000038   0.000000   0.000000   0.000001   0.011969  -0.002913
    28  C   -0.000084   0.012727   0.000606  -0.008903   0.221187  -0.033951
    29  F   -0.001112  -0.002550  -0.000021  -0.000019  -0.012102   0.000316
    30  O    0.234204  -0.044766  -0.039583  -0.048039  -0.025836   0.000366
    31  C    3.817817   0.299772   0.339220   0.303771  -0.002456  -0.000293
    32  F    0.299772   9.048098  -0.036331  -0.034264  -0.004700   0.000013
    33  F    0.339220  -0.036331   9.012722  -0.037791  -0.000031   0.000000
    34  F    0.303771  -0.034264  -0.037791   9.057621   0.017424  -0.000537
    35  C   -0.002456  -0.004700  -0.000031   0.017424   4.162651   0.270404
    36  F   -0.000293   0.000013   0.000000  -0.000537   0.270404   9.091403
    37  F    0.011231  -0.001144  -0.000002  -0.005907   0.283582  -0.039034
    38  F    0.000062   0.000001   0.000000   0.000000   0.289397  -0.037113
    39  C    0.000001   0.000000   0.000000   0.000000  -0.000068   0.000002
    40  O    0.000000   0.000000   0.000000   0.000000   0.000001   0.000000
    41  H    0.000000   0.000000   0.000000   0.000000   0.000000   0.000000
    42  H    0.000000   0.000000   0.000000   0.000000   0.000000   0.000000
    43  H    0.000000   0.000000   0.000000   0.000000   0.000000   0.000000
              37         38         39         40         41         42
     1  C    0.000000   0.000000   0.000053  -0.000388   0.350861  -0.000156
     2  C    0.000000   0.000000   0.000788  -0.001413   0.016847  -0.033486
     3  C    0.000000   0.000000  -0.020461  -0.001091   0.002334   0.383783
     4  N    0.000000   0.000000   0.254248  -0.087056  -0.000037  -0.033823
     5  C    0.000000   0.000000  -0.018076   0.000635  -0.000004  -0.003893
     6  O    0.000000   0.000000   0.000439  -0.000025  -0.000001   0.010574
     7  N    0.000000   0.000000  -0.002227   0.000098   0.000000   0.000491
     8  C    0.000000   0.000000   0.000367   0.000001   0.000000   0.000007
     9  F    0.000000   0.000000   0.000010   0.000000   0.000000   0.000001
    10  F    0.000000   0.000000   0.000007   0.000000   0.000000   0.000000
    11  C    0.000000   0.000000   0.000021   0.000000   0.000000   0.000000
    12  F    0.000000   0.000000   0.000000   0.000000   0.000000   0.000000
    13  O    0.000000   0.000000   0.000002   0.000000   0.000000  -0.000005
    14  C    0.000000   0.000000   0.000000   0.000000   0.000000   0.000002
    15  F    0.000000   0.000000   0.000000   0.000000   0.000000   0.000000
    16  F    0.000000   0.000000   0.000000   0.000000   0.000000   0.000000
    17  F    0.000000   0.000000   0.000000   0.000000   0.000000   0.000000
    18  C    0.000000   0.000000  -0.000002   0.000000   0.000000   0.000000
    19  F    0.000000   0.000000   0.000000   0.000000   0.000000   0.000000
    20  F    0.000000   0.000000   0.000109   0.000000   0.000000   0.000000
    21  F    0.000000   0.000000   0.000000   0.000000   0.000000   0.000000
    22  C   -0.000001  -0.000001  -0.013981  -0.000351   0.000000  -0.000057
    23  O    0.000000   0.000000   0.000132  -0.000013   0.000000   0.000000
    24  N   -0.000009   0.000046   0.190439  -0.088081   0.000000  -0.000058
    25  C    0.001424   0.010264  -0.000848   0.017283   0.000000   0.000001
    26  F   -0.000002  -0.000378   0.006327  -0.002637   0.000000   0.000000
    27  F    0.000003  -0.001826   0.003787  -0.011460   0.000000   0.000000
    28  C   -0.031887  -0.033136   0.003757   0.000282   0.000000   0.000000
    29  F   -0.000315  -0.000274  -0.000052   0.000000   0.000000   0.000000
    30  O   -0.001374   0.000545  -0.000075   0.000000   0.000000   0.000000
    31  C    0.011231   0.000062   0.000001   0.000000   0.000000   0.000000
    32  F   -0.001144   0.000001   0.000000   0.000000   0.000000   0.000000
    33  F   -0.000002   0.000000   0.000000   0.000000   0.000000   0.000000
    34  F   -0.005907   0.000000   0.000000   0.000000   0.000000   0.000000
    35  C    0.283582   0.289397  -0.000068   0.000001   0.000000   0.000000
    36  F   -0.039034  -0.037113   0.000002   0.000000   0.000000   0.000000
    37  F    9.080366  -0.038663   0.000000   0.000000   0.000000   0.000000
    38  F   -0.038663   9.052728   0.000005   0.000000   0.000000   0.000000
    39  C    0.000000   0.000005   4.158709   0.595970  -0.000004   0.004068
    40  O    0.000000   0.000000   0.595970   8.051848  -0.000001   0.000484
    41  H    0.000000   0.000000  -0.000004  -0.000001   0.436164  -0.000018
    42  H    0.000000   0.000000   0.004068   0.000484  -0.000018   0.500023
    43  H    0.000000   0.000000  -0.004638   0.011778  -0.000017  -0.023925
              43
     1  C    0.000007
     2  C   -0.033173
     3  C    0.383043
     4  N   -0.033767
     5  C    0.004326
     6  O    0.000483
     7  N   -0.000040
     8  C    0.000001
     9  F    0.000000
    10  F    0.000000
    11  C    0.000000
    12  F    0.000000
    13  O    0.000000
    14  C    0.000000
    15  F    0.000000
    16  F    0.000000
    17  F    0.000000
    18  C    0.000000
    19  F    0.000000
    20  F    0.000000
    21  F    0.000000
    22  C   -0.000063
    23  O    0.000000
    24  N    0.000510
    25  C    0.000009
    26  F    0.000000
    27  F    0.000003
    28  C    0.000000
    29  F    0.000000
    30  O    0.000000
    31  C    0.000000
    32  F    0.000000
    33  F    0.000000
    34  F    0.000000
    35  C    0.000000
    36  F    0.000000
    37  F    0.000000
    38  F    0.000000
    39  C   -0.004638
    40  O    0.011778
    41  H   -0.000017
    42  H   -0.023925
    43  H    0.497081
 Mulliken charges:
               1
     1  C   -0.415047
     2  C    0.274497
     3  C   -0.179448
     4  N   -0.584108
     5  C    0.852676
     6  O   -0.487677
     7  N   -0.637853
     8  C    0.747793
     9  F   -0.261180
    10  F   -0.249922
    11  C    0.432812
    12  F   -0.266917
    13  O   -0.500974
    14  C    0.995982
    15  F   -0.241888
    16  F   -0.237371
    17  F   -0.248594
    18  C    0.819486
    19  F   -0.234497
    20  F   -0.251854
    21  F   -0.253669
    22  C    0.828798
    23  O   -0.469434
    24  N   -0.643726
    25  C    0.800382
    26  F   -0.250538
    27  F   -0.267214
    28  C    0.406001
    29  F   -0.249747
    30  O   -0.518457
    31  C    0.996910
    32  F   -0.237086
    33  F   -0.238736
    34  F   -0.243211
    35  C    0.816548
    36  F   -0.246376
    37  F   -0.258268
    38  F   -0.241658
    39  C    0.841189
    40  O   -0.485865
    41  H    0.193877
    42  H    0.195985
    43  H    0.198379
 Sum of Mulliken charges =   0.00000
 Mulliken charges with hydrogens summed into heavy atoms:
               1
     1  C   -0.221170
     2  C    0.274497
     3  C    0.214917
     4  N   -0.584108
     5  C    0.852676
     6  O   -0.487677
     7  N   -0.637853
     8  C    0.747793
     9  F   -0.261180
    10  F   -0.249922
    11  C    0.432812
    12  F   -0.266917
    13  O   -0.500974
    14  C    0.995982
    15  F   -0.241888
    16  F   -0.237371
    17  F   -0.248594
    18  C    0.819486
    19  F   -0.234497
    20  F   -0.251854
    21  F   -0.253669
    22  C    0.828798
    23  O   -0.469434
    24  N   -0.643726
    25  C    0.800382
    26  F   -0.250538
    27  F   -0.267214
    28  C    0.406001
    29  F   -0.249747
    30  O   -0.518457
    31  C    0.996910
    32  F   -0.237086
    33  F   -0.238736
    34  F   -0.243211
    35  C    0.816548
    36  F   -0.246376
    37  F   -0.258268
    38  F   -0.241658
    39  C    0.841189
    40  O   -0.485865
 Electronic spatial extent (au):  <R**2>=          18804.9942
 Charge=              0.0000 electrons
 Dipole moment (field-independent basis, Debye):
    X=             -0.1366    Y=              1.8173    Z=             -0.3122  Tot=              1.8489
 Quadrupole moment (field-independent basis, Debye-Ang):
   XX=           -215.3786   YY=           -207.4560   ZZ=           -216.1707
   XY=              0.2321   XZ=            -11.5832   YZ=             -0.6827
 Traceless Quadrupole moment (field-independent basis, Debye-Ang):
   XX=             -2.3768   YY=              5.5458   ZZ=             -3.1689
   XY=              0.2321   XZ=            -11.5832   YZ=             -0.6827
 Octapole moment (field-independent basis, Debye-Ang**2):
  XXX=            -22.2116  YYY=            231.8576  ZZZ=           -133.8697  XYY=              6.8743
  XXY=             49.1526  XXZ=            -44.7946  XZZ=             -8.3190  YZZ=             54.1720
  YYZ=            -62.8143  XYZ=            -29.9186
 Hexadecapole moment (field-independent basis, Debye-Ang**3):
 XXXX=         -12401.7436 YYYY=          -4906.9277 ZZZZ=          -2362.0798 XXXY=            553.2008
 XXXZ=           -848.0976 YYYX=            634.5443 YYYZ=           -183.5128 ZZZX=           -836.6374
 ZZZY=            -85.3782 XXYY=          -2931.9475 XXZZ=          -2469.1409 YYZZ=          -1226.2412
 XXYZ=             -7.3797 YYXZ=           -393.1893 ZZXY=            168.7904
 N-N= 5.997901983427D+03 E-N=-1.878178948795D+04  KE= 2.850897572781D+03
 No NMR shielding tensors so no spin-rotation constants.
 Leave Link  601 at Sun Mar  3 18:12:58 2024, MaxMem=  5368709120 cpu:         5.2
 (Enter /home/k0335/k033513/app/g09/l9999.exe)
 1\1\GINC-C18U04N2\SP\RCAM-B3LYP\6-31G(d,p)\C14H3F18N3O5\K033513\03-Mar
 -2024\0\\#p CAM-B3LYP/6-31G(d,p) SCRF=(PCM,Solvent=Generic,Read) NoSym
 m out=wfn\\Title A201888831_0\\0,1\C,0,0.630261,5.230818,-0.812708\C,0
 ,0.013719,4.505277,-0.080431\C,0,-0.741364,3.614307,0.816365\N,0,-0.38
 4481,2.222897,0.562543\C,0,-1.126704,1.513524,-0.356747\O,0,-2.066345,
 2.02612,-0.958782\N,0,-0.782473,0.194593,-0.514455\C,0,-1.621351,-0.64
 7938,-1.361919\F,0,-1.793876,0.023453,-2.548522\F,0,-0.912436,-1.74910
 9,-1.751283\C,0,-3.027627,-1.084123,-0.858847\F,0,-3.625927,-1.777025,
 -1.881428\O,0,-3.842594,0.07041,-0.638438\C,0,-5.108102,-0.215731,-0.1
 07857\F,0,-5.645414,-1.310982,-0.664404\F,0,-5.919123,0.833745,-0.3333
 98\F,0,-4.987509,-0.383419,1.220657\C,0,-2.848647,-2.017196,0.339056\F
 ,0,-2.041119,-3.062567,0.078018\F,0,-2.345626,-1.338416,1.398683\F,0,-
 4.027764,-2.543666,0.746761\C,0,0.157697,-0.397179,0.288112\O,0,0.1335
 3,-1.601132,0.508559\N,0,1.079544,0.429463,0.863652\C,0,2.21947,-0.135
 935,1.587746\F,0,1.830025,-0.433198,2.856014\F,0,3.151687,0.859914,1.6
 9808\C,0,2.95947,-1.350004,0.960132\F,0,2.244299,-2.49311,1.159934\O,0
 ,3.040669,-1.148186,-0.460536\C,0,3.853845,-2.103865,-1.095273\F,0,3.6
 19632,-3.339654,-0.63334\F,0,3.590658,-2.070055,-2.414528\F,0,5.141999
 ,-1.774495,-0.907342\C,0,4.287473,-1.470013,1.723152\F,0,5.131789,-0.4
 53353,1.435991\F,0,4.94039,-2.612179,1.395608\F,0,4.118757,-1.497282,3
 .062677\C,0,0.680644,1.685157,1.258244\O,0,1.196967,2.288057,2.197065\
 H,0,1.174889,5.878576,-1.461173\H,0,-1.816988,3.759741,0.666117\H,0,-0
 .531944,3.873761,1.859944\\Version=ES64L-G09RevD.01\HF=-2871.9004761\R
 MSD=7.927e-09\Dipole=-0.0537397,0.714966,-0.1228169\Quadrupole=-1.7671
 122,4.1231434,-2.3560312,0.1725438,-8.611835,-0.507548\PG=C01 [X(C14H3
 F18N3O5)]\\@

 Writing a WFN file to "A201888831/A201888831_0.wfn"


 ON INDUCTION, OR "WHY DO YOU BELIEVE THE SUN WILL RISE TOMORROW?":

 ... THE FARMER WHO HAS FED THE CHICKEN EVERY DAY THROUGHOUT ITS
 LIFE AT LAST WRINGS ITS NECK INSTEAD, SHOWING THAT MORE REFINED VIEWS
 AS TO THE UNIFORMITY OF NATURE WOULD HAVE BEEN USEFUL TO THE CHICKEN.

                               -- BERTRAND RUSSELL
 Job cpu time:       0 days  0 hours 20 minutes 49.9 seconds.
 File lengths (MBytes):  RWF=    417 Int=      0 D2E=      0 Chk=     15 Scr=      1
 Normal termination of Gaussian 09 at Sun Mar  3 18:12:59 2024.
