 Entering Gaussian System, Link 0=g09
 Initial command:
 /home/k0335/k033513/app/g09/l1.exe "/home/k0335/k033513/app/g09/scratch/Gau-2964807.inp" -scrdir="/home/k0335/k033513/app/g09/scratch/"
 Default is to use a total of  36 processors:
                               36 via shared-memory
                                1 via Linda
 Entering Link 1 = /home/k0335/k033513/app/g09/l1.exe PID=   2964808.
  
 Copyright (c) 1988,1990,1992,1993,1995,1998,2003,2009,2013,
            Gaussian, Inc.  All Rights Reserved.
  
 This is part of the Gaussian(R) 09 program.  It is based on
 the Gaussian(R) 03 system (copyright 2003, Gaussian, Inc.),
 the Gaussian(R) 98 system (copyright 1998, Gaussian, Inc.),
 the Gaussian(R) 94 system (copyright 1995, Gaussian, Inc.),
 the Gaussian 92(TM) system (copyright 1992, Gaussian, Inc.),
 the Gaussian 90(TM) system (copyright 1990, Gaussian, Inc.),
 the Gaussian 88(TM) system (copyright 1988, Gaussian, Inc.),
 the Gaussian 86(TM) system (copyright 1986, Carnegie Mellon
 University), and the Gaussian 82(TM) system (copyright 1983,
 Carnegie Mellon University). Gaussian is a federally registered
 trademark of Gaussian, Inc.
  
 This software contains proprietary and confidential information,
 including trade secrets, belonging to Gaussian, Inc.
  
 This software is provided under written license and may be
 used, copied, transmitted, or stored only in accord with that
 written license.
  
 The following legend is applicable only to US Government
 contracts under FAR:
  
                    RESTRICTED RIGHTS LEGEND
  
 Use, reproduction and disclosure by the US Government is
 subject to restrictions as set forth in subparagraphs (a)
 and (c) of the Commercial Computer Software - Restricted
 Rights clause in FAR 52.227-19.
  
 Gaussian, Inc.
 340 Quinnipiac St., Bldg. 40, Wallingford CT 06492
  
  
 ---------------------------------------------------------------
 Warning -- This program may not be used in any manner that
 competes with the business of Gaussian, Inc. or will provide
 assistance to any competitor of Gaussian, Inc.  The licensee
 of this program is prohibited from giving any competitor of
 Gaussian, Inc. access to this program.  By using this program,
 the user acknowledges that Gaussian, Inc. is engaged in the
 business of creating and licensing software in the field of
 computational chemistry and represents and warrants to the
 licensee that it is not a competitor of Gaussian, Inc. and that
 it will not use this program in any manner prohibited above.
 ---------------------------------------------------------------
  

 Cite this work as:
 Gaussian 09, Revision D.01,
 M. J. Frisch, G. W. Trucks, H. B. Schlegel, G. E. Scuseria, 
 M. A. Robb, J. R. Cheeseman, G. Scalmani, V. Barone, B. Mennucci, 
 G. A. Petersson, H. Nakatsuji, M. Caricato, X. Li, H. P. Hratchian, 
 A. F. Izmaylov, J. Bloino, G. Zheng, J. L. Sonnenberg, M. Hada, 
 M. Ehara, K. Toyota, R. Fukuda, J. Hasegawa, M. Ishida, T. Nakajima, 
 Y. Honda, O. Kitao, H. Nakai, T. Vreven, J. A. Montgomery, Jr., 
 J. E. Peralta, F. Ogliaro, M. Bearpark, J. J. Heyd, E. Brothers, 
 K. N. Kudin, V. N. Staroverov, T. Keith, R. Kobayashi, J. Normand, 
 K. Raghavachari, A. Rendell, J. C. Burant, S. S. Iyengar, J. Tomasi, 
 M. Cossi, N. Rega, J. M. Millam, M. Klene, J. E. Knox, J. B. Cross, 
 V. Bakken, C. Adamo, J. Jaramillo, R. Gomperts, R. E. Stratmann, 
 O. Yazyev, A. J. Austin, R. Cammi, C. Pomelli, J. W. Ochterski, 
 R. L. Martin, K. Morokuma, V. G. Zakrzewski, G. A. Voth, 
 P. Salvador, J. J. Dannenberg, S. Dapprich, A. D. Daniels, 
 O. Farkas, J. B. Foresman, J. V. Ortiz, J. Cioslowski, 
 and D. J. Fox, Gaussian, Inc., Wallingford CT, 2013.
 
 ******************************************
 Gaussian 09:  ES64L-G09RevD.01 24-Apr-2013
                 3-Feb-2025 
 ******************************************
 %nprocshared=24
 Will use up to   24 processors via shared memory.
 %mem=40GB
 %rwf=cytop/AEPYridine2/AEPYridine2_neu.rwf
 %nosave
 %chk=cytop/AEPYridine2/AEPYridine2_neu.chk
 ----------------------------------------------------------------------
 #p CAM-B3LYP/6-31G(d,p) SCRF=(PCM,Solvent=Generic,Read) NoSymm out=wfn
 ----------------------------------------------------------------------
 1/38=1,40=2/1;
 2/12=2,15=1,17=6,18=5,40=1/2;
 3/5=1,6=6,7=101,11=2,16=1,25=1,30=1,70=2203,72=-2,74=-40/1,2,3;
 4//1;
 5/5=2,38=5/2;
 6/7=2,8=2,9=2,10=2,28=1/1;
 99/5=1,6=100,9=1/99;
 Leave Link    1 at Mon Feb  3 21:54:56 2025, MaxMem=  5368709120 cpu:         0.9
 (Enter /home/k0335/k033513/app/g09/l101.exe)
 ---------------------
 Title AEPYridine2_neu
 ---------------------
 Symbolic Z-matrix:
 Charge =  0 Multiplicity = 1
 F                    -3.25593   1.23069   3.02417 
 C                    -2.83221   1.58544   1.793 
 F                    -2.31044   2.82685   1.8941 
 C                    -3.91431   1.48266   0.73988 
 F                    -5.12651   1.90965   1.1293 
 F                    -3.56513   2.26062  -0.32605 
 C                    -3.84328   0.04016   0.32757 
 F                    -4.30594  -0.086    -0.94737 
 C                    -4.66706  -0.86583   1.22785 
 F                    -4.26     -0.74716   2.51997 
 C                    -4.61378  -2.32706   0.76387 
 O                    -4.95282  -3.20844   1.73467 
 O                    -4.32631  -2.73786  -0.35251 
 F                    -5.96311  -0.43144   1.22026 
 C                    -2.34154  -0.22688   0.44926 
 F                    -2.15502  -1.48051   0.94502 
 C                    -1.58994  -0.08583  -0.8907 
 F                    -1.77042   1.17731  -1.38885 
 C                    -0.0854   -0.37617  -0.73563 
 N                     0.71962   0.38111  -1.58502 
 C                     2.16463   0.25022  -1.60199 
 C                     2.82018   0.90168  -0.37947 
 C                     4.31914   0.80988  -0.43519 
 C                     5.08801   1.84707  -0.96077 
 N                     6.43621   1.81827  -1.05357 
 C                     7.05164   0.70418  -0.60016 
 C                     6.38071  -0.38542  -0.06354 
 C                     4.99244  -0.32817   0.01874 
 O                     0.38183  -1.23493   0.01266 
 F                    -2.13441  -0.92229  -1.8233 
 O                    -1.79188   0.67879   1.4328 
 H                    -4.87661  -4.09749   1.32199 
 H                     0.28137   1.09272  -2.16455 
 H                     2.41476  -0.81864  -1.6584 
 H                     2.51694   0.72484  -2.52671 
 H                     2.51655   1.95555  -0.31172 
 H                     2.46348   0.43472   0.54779 
 H                     4.63053   2.76072  -1.33329 
 H                     8.13489   0.7073   -0.68412 
 H                     6.9271   -1.25712   0.28313 
 H                     4.44201  -1.1701    0.43689 
 
 NAtoms=     41 NQM=       41 NQMF=       0 NMMI=      0 NMMIF=      0
                NMic=       0 NMicF=      0.
                    Isotopes and Nuclear Properties:
 (Nuclear quadrupole moments (NQMom) in fm**2, nuclear magnetic moments (NMagM)
  in nuclear magnetons)

  Atom         1           2           3           4           5           6           7           8           9          10
 IAtWgt=          19          12          19          12          19          19          12          19          12          19
 AtmWgt=  18.9984033  12.0000000  18.9984033  12.0000000  18.9984033  18.9984033  12.0000000  18.9984033  12.0000000  18.9984033
 NucSpn=           1           0           1           0           1           1           0           1           0           1
 AtZEff=   0.0000000   0.0000000   0.0000000   0.0000000   0.0000000   0.0000000   0.0000000   0.0000000   0.0000000   0.0000000
 NQMom=    0.0000000   0.0000000   0.0000000   0.0000000   0.0000000   0.0000000   0.0000000   0.0000000   0.0000000   0.0000000
 NMagM=    2.6288670   0.0000000   2.6288670   0.0000000   2.6288670   2.6288670   0.0000000   2.6288670   0.0000000   2.6288670
 AtZNuc=   9.0000000   6.0000000   9.0000000   6.0000000   9.0000000   9.0000000   6.0000000   9.0000000   6.0000000   9.0000000

  Atom        11          12          13          14          15          16          17          18          19          20
 IAtWgt=          12          16          16          19          12          19          12          19          12          14
 AtmWgt=  12.0000000  15.9949146  15.9949146  18.9984033  12.0000000  18.9984033  12.0000000  18.9984033  12.0000000  14.0030740
 NucSpn=           0           0           0           1           0           1           0           1           0           2
 AtZEff=   0.0000000   0.0000000   0.0000000   0.0000000   0.0000000   0.0000000   0.0000000   0.0000000   0.0000000   0.0000000
 NQMom=    0.0000000   0.0000000   0.0000000   0.0000000   0.0000000   0.0000000   0.0000000   0.0000000   0.0000000   2.0440000
 NMagM=    0.0000000   0.0000000   0.0000000   2.6288670   0.0000000   2.6288670   0.0000000   2.6288670   0.0000000   0.4037610
 AtZNuc=   6.0000000   8.0000000   8.0000000   9.0000000   6.0000000   9.0000000   6.0000000   9.0000000   6.0000000   7.0000000

  Atom        21          22          23          24          25          26          27          28          29          30
 IAtWgt=          12          12          12          12          14          12          12          12          16          19
 AtmWgt=  12.0000000  12.0000000  12.0000000  12.0000000  14.0030740  12.0000000  12.0000000  12.0000000  15.9949146  18.9984033
 NucSpn=           0           0           0           0           2           0           0           0           0           1
 AtZEff=   0.0000000   0.0000000   0.0000000   0.0000000   0.0000000   0.0000000   0.0000000   0.0000000   0.0000000   0.0000000
 NQMom=    0.0000000   0.0000000   0.0000000   0.0000000   2.0440000   0.0000000   0.0000000   0.0000000   0.0000000   0.0000000
 NMagM=    0.0000000   0.0000000   0.0000000   0.0000000   0.4037610   0.0000000   0.0000000   0.0000000   0.0000000   2.6288670
 AtZNuc=   6.0000000   6.0000000   6.0000000   6.0000000   7.0000000   6.0000000   6.0000000   6.0000000   8.0000000   9.0000000

  Atom        31          32          33          34          35          36          37          38          39          40
 IAtWgt=          16           1           1           1           1           1           1           1           1           1
 AtmWgt=  15.9949146   1.0078250   1.0078250   1.0078250   1.0078250   1.0078250   1.0078250   1.0078250   1.0078250   1.0078250
 NucSpn=           0           1           1           1           1           1           1           1           1           1
 AtZEff=   0.0000000   0.0000000   0.0000000   0.0000000   0.0000000   0.0000000   0.0000000   0.0000000   0.0000000   0.0000000
 NQMom=    0.0000000   0.0000000   0.0000000   0.0000000   0.0000000   0.0000000   0.0000000   0.0000000   0.0000000   0.0000000
 NMagM=    0.0000000   2.7928460   2.7928460   2.7928460   2.7928460   2.7928460   2.7928460   2.7928460   2.7928460   2.7928460
 AtZNuc=   8.0000000   1.0000000   1.0000000   1.0000000   1.0000000   1.0000000   1.0000000   1.0000000   1.0000000   1.0000000

  Atom        41
 IAtWgt=           1
 AtmWgt=   1.0078250
 NucSpn=           1
 AtZEff=   0.0000000
 NQMom=    0.0000000
 NMagM=    2.7928460
 AtZNuc=   1.0000000
 Leave Link  101 at Mon Feb  3 21:54:57 2025, MaxMem=  5368709120 cpu:         0.8
 (Enter /home/k0335/k033513/app/g09/l202.exe)
                          Input orientation:                          
 ---------------------------------------------------------------------
 Center     Atomic      Atomic             Coordinates (Angstroms)
 Number     Number       Type             X           Y           Z
 ---------------------------------------------------------------------
      1          9           0       -3.255928    1.230686    3.024170
      2          6           0       -2.832206    1.585442    1.793003
      3          9           0       -2.310437    2.826846    1.894098
      4          6           0       -3.914307    1.482663    0.739883
      5          9           0       -5.126507    1.909647    1.129302
      6          9           0       -3.565126    2.260620   -0.326046
      7          6           0       -3.843282    0.040161    0.327572
      8          9           0       -4.305943   -0.086004   -0.947373
      9          6           0       -4.667061   -0.865826    1.227853
     10          9           0       -4.259999   -0.747161    2.519968
     11          6           0       -4.613780   -2.327059    0.763871
     12          8           0       -4.952817   -3.208438    1.734672
     13          8           0       -4.326307   -2.737862   -0.352508
     14          9           0       -5.963112   -0.431435    1.220256
     15          6           0       -2.341545   -0.226878    0.449258
     16          9           0       -2.155017   -1.480511    0.945022
     17          6           0       -1.589943   -0.085828   -0.890698
     18          9           0       -1.770423    1.177310   -1.388851
     19          6           0       -0.085400   -0.376169   -0.735633
     20          7           0        0.719622    0.381114   -1.585017
     21          6           0        2.164633    0.250215   -1.601994
     22          6           0        2.820176    0.901680   -0.379468
     23          6           0        4.319141    0.809878   -0.435194
     24          6           0        5.088010    1.847068   -0.960766
     25          7           0        6.436214    1.818265   -1.053573
     26          6           0        7.051638    0.704184   -0.600161
     27          6           0        6.380710   -0.385419   -0.063544
     28          6           0        4.992435   -0.328165    0.018744
     29          8           0        0.381827   -1.234926    0.012658
     30          9           0       -2.134406   -0.922286   -1.823302
     31          8           0       -1.791884    0.678790    1.432797
     32          1           0       -4.876608   -4.097492    1.321992
     33          1           0        0.281369    1.092725   -2.164553
     34          1           0        2.414762   -0.818636   -1.658402
     35          1           0        2.516935    0.724842   -2.526706
     36          1           0        2.516551    1.955549   -0.311723
     37          1           0        2.463477    0.434715    0.547785
     38          1           0        4.630533    2.760723   -1.333292
     39          1           0        8.134892    0.707304   -0.684118
     40          1           0        6.927102   -1.257118    0.283126
     41          1           0        4.442012   -1.170096    0.436893
 ---------------------------------------------------------------------
                    Distance matrix (angstroms):
                    1          2          3          4          5
     1  F    0.000000
     2  C    1.349505   0.000000
     3  F    2.172267   1.350388   0.000000
     4  C    2.390590   1.513462   2.389862   0.000000
     5  F    2.747832   2.410275   3.058826   1.342904   0.000000
     6  F    3.518567   2.341667   2.612259   1.365045   2.163130
     7  C    3.005657   2.357468   3.545311   1.501951   2.405081
     8  F    4.313856   3.532038   4.532185   2.336863   2.994750
     9  C    3.100551   3.113648   4.430958   2.513992   2.814970
    10  F    2.274699   2.829860   4.118984   2.874077   3.121445
    11  C    4.428348   4.420496   5.757216   3.873476   4.283236
    12  O    4.924232   5.242297   6.590314   4.906581   5.156688
    13  O    5.319496   5.052377   6.330635   4.379029   4.943220
    14  F    3.653163   3.768077   4.940900   2.844667   2.487739
    15  C    3.096895   2.308875   3.378426   2.341063   3.575362
    16  F    3.589631   3.252341   4.413414   3.452185   4.511860
    17  C    4.453640   3.396853   4.093638   3.243706   4.535373
    18  F    4.656643   3.379075   3.713534   3.036608   4.259191
    19  C    5.174007   4.217447   4.703784   4.504768   5.840864
    20  N    6.145842   5.047465   5.221791   5.300176   6.624286
    21  C    7.193414   6.186860   6.236019   6.629995   7.960805
    22  C    6.972233   6.093979   5.932837   6.851551   8.151206
    23  C    8.338222   7.530480   7.310613   8.344046   9.637292
    24  C    9.267197   8.389369   7.990446   9.168790  10.426344
    25  N   10.531422   9.698495   9.284929  10.510109  11.767320
    26  C   10.938871  10.207557   9.918441  11.074913  12.359264
    27  C   10.247466   9.602546   9.470324  10.493932  11.794331
    28  C    8.916170   8.248327   8.173309   9.117521  10.422770
    29  O    5.327449   4.631858   5.223609   5.135262   6.440262
    30  F    5.421355   4.455703   5.282617   3.939765   5.068568
    31  O    2.231699   1.426196   2.257397   2.372977   3.567468
    32  H    5.823529   6.057819   7.406686   5.692364   6.015422
    33  H    6.281270   5.059582   5.118328   5.117763   6.384510
    34  H    7.634326   6.724765   6.945308   7.148766   8.490322
    35  H    8.024590   6.929201   6.874987   7.252984   8.555254
    36  H    6.706349   5.759866   5.378161   6.533409   7.777853
    37  H    6.283124   5.560485   5.506823   6.466160   7.753802
    38  H    9.139188   8.176031   7.654899   8.885144  10.098937
    39  H   11.990668  11.277610  10.965608  12.157802  13.438706
    40  H   10.834971  10.276379  10.227713  11.191567  12.491353
    41  H    8.468532   7.895966   7.980887   8.772514  10.075753
                    6          7          8          9         10
     6  F    0.000000
     7  C    2.331314   0.000000
     8  F    2.538011   1.362152   0.000000
     9  C    3.661083   1.519845   2.338832   0.000000
    10  F    4.198737   2.366459   3.530112   1.359905   0.000000
    11  C    4.830569   2.527401   2.836450   1.534053   2.388538
    12  O    6.006899   3.710040   4.166702   2.413784   2.674803
    13  O    5.056176   2.900557   2.717836   2.473494   3.495484
    14  F    3.922824   2.347971   2.750299   1.366931   2.165532
    15  C    2.878523   1.530141   2.414391   2.534263   2.870366
    16  F    4.195245   2.354554   3.186266   2.601576   2.729323
    17  C    3.118653   2.564682   2.716591   3.816453   4.381690
    18  F    2.350335   2.921637   2.867007   4.405912   5.018012
    19  C    4.385078   3.927520   4.235801   5.008658   5.306962
    20  N    4.845267   4.959268   5.087346   6.203503   6.551376
    21  C    6.204830   6.313667   6.512290   7.478344   7.698131
    22  C    6.528526   6.756019   7.216620   7.859152   7.826512
    23  C    8.017371   8.234041   8.686599   9.291154   9.206465
    24  C    8.686234   9.202864   9.590792  10.359115  10.306833
    25  N   10.037518  10.523177  10.910154  11.648689  11.565491
    26  C   10.733746  10.954492  11.390329  11.963882  11.823483
    27  C   10.295149  10.240317  10.727318  11.133362  10.955824
    28  C    8.947208   8.848781   9.351570   9.749712   9.593707
    29  O    5.283181   4.424541   4.921064   5.206170   5.298214
    30  F    3.797318   2.910811   2.486401   3.965738   4.838678
    31  O    2.956366   2.416113   3.545506   3.270242   3.050716
    32  H    6.697880   4.379133   4.644105   3.239821   3.611104
    33  H    4.420363   4.932679   4.890231   6.311204   6.778934
    34  H    6.856825   6.621536   6.797808   7.647543   7.875044
    35  H    6.647780   7.004859   7.050066   8.260553   8.576861
    36  H    6.089341   6.672697   7.149714   7.869862   7.825902
    37  H    6.359368   6.322925   6.952100   7.280005   7.105735
    38  H    8.272453   9.053478   9.386873  10.303231  10.305068
    39  H   11.808109  12.039321  12.468882  13.039186  12.884679
    40  H   11.082979  10.848322  11.360763  11.639168  11.419928
    41  H    8.744492   8.373934   8.922901   9.148410   8.957850
                   11         12         13         14         15
    11  C    0.000000
    12  O    1.354337   0.000000
    13  O    1.223806   2.229412   0.000000
    14  F    2.371155   2.999511   3.236097   0.000000
    15  C    3.110111   4.166621   3.299568   3.708373   0.000000
    16  F    2.606717   3.381858   2.824715   3.959533   1.360945
    17  C    4.111485   5.286982   3.848457   4.868283   1.542816
    18  F    4.999949   6.254503   4.789063   5.193664   2.382555
    19  C    5.153708   6.149464   4.869258   6.194841   2.552733
    20  N    6.426247   7.488777   6.058753   7.293060   3.725409
    21  C    7.628010   8.587998   7.254111   8.630758   4.974022
    22  C    8.185089   9.043344   8.019926   9.026764   5.348251
    23  C    9.543333  10.335588   9.345430  10.488379   6.798666
    24  C   10.701516  11.560352  10.489086  11.492421   7.841410
    25  N   11.941071  12.757432  11.708187  12.805262   9.137295
    26  C   12.129757  12.840054  11.889771  13.190423   9.497370
    27  C   11.195240  11.817438  10.966207  12.410488   8.738755
    28  C    9.840232  10.495162   9.632415  11.021720   7.347303
    29  O    5.168478   5.942938   4.955672   6.508621   2.936586
    30  F    3.848915   5.082235   3.203745   4.915605   2.385588
    31  O    4.176803   5.019280   4.613472   4.321680   1.445583
    32  H    1.874836   0.983122   2.226067   3.825025   4.708488
    33  H    6.650795   7.816691   6.259999   7.264540   3.931035
    34  H    7.585720   8.456082   7.129572   8.867095   5.235921
    35  H    8.425503   9.456597   7.971663   9.342799   5.776414
    36  H    8.386850   9.308381   8.297860   8.941439   5.379886
    37  H    7.600109   8.347615   7.548307   8.497637   4.851355
    38  H   10.758296  11.699739  10.555632  11.354990   7.791862
    39  H   13.184562  13.873417  12.932928  14.271548  10.578893
    40  H   11.600338  12.126298  11.368195  12.950582   9.327208
    41  H    9.135253   9.700612   8.942285  10.460683   6.848829
                   16         17         18         19         20
    16  F    0.000000
    17  C    2.373672   0.000000
    18  F    3.557933   1.369762   0.000000
    19  C    2.885739   1.540127   2.383127   0.000000
    20  N    4.257968   2.456462   2.621590   1.393912   0.000000
    21  C    5.304911   3.836106   4.048407   2.491102   1.451027
    22  C    5.672888   4.548151   4.708336   3.194076   2.477229
    23  C    7.004684   5.993917   6.174727   4.571318   3.802955
    24  C    8.195502   6.952413   6.904342   5.635392   4.649895
    25  N    9.417301   8.250533   8.238454   6.888256   5.918383
    26  C    9.587647   8.682480   8.869873   7.219614   6.416287
    27  C    8.664587   8.019055   8.404733   6.500951   5.911884
    28  C    7.298764   6.649324   7.069938   5.133790   4.618664
    29  O    2.713889   2.454456   3.523534   1.231139   2.297446
    30  F    2.824121   1.365962   2.174749   2.383211   3.146602
    31  O    2.243295   2.454394   2.865428   2.954169   3.937445
    32  H    3.794437   5.638405   6.694818   6.406071   7.734753
    33  H    4.714549   2.552156   2.195158   2.081822   1.017014
    34  H    5.300828   4.142951   4.644592   2.701498   2.078048
    35  H    6.224437   4.494458   4.458798   3.345492   2.057975
    36  H    5.933756   4.622307   4.488208   3.519483   2.707227
    37  H    5.015613   4.332483   4.714649   2.966727   2.755494
    38  H    8.320004   6.855149   6.594128   5.695376   4.584881
    39  H   10.645321   9.759311   9.941470   8.291548   7.476914
    40  H    9.108946   8.676972   9.185254   7.140667   6.686297
    41  H    6.623847   6.270775   6.887525   4.743690   4.511159
                   21         22         23         24         25
    21  C    0.000000
    22  C    1.532551   0.000000
    23  C    2.513275   1.502807   0.000000
    24  C    3.392233   2.524824   1.393969   0.000000
    25  N    4.583225   3.790815   2.425126   1.351701   0.000000
    26  C    5.009249   4.241813   2.739512   2.300447   1.351113
    27  C    4.532788   3.799189   2.411830   2.731314   2.416498
    28  C    3.310254   2.527806   1.398044   2.387512   2.800272
    29  O    2.826861   3.265638   4.459174   5.709151   6.863995
    30  F    4.461555   5.473517   6.824625   7.783096   9.030982
    31  O    5.004764   4.960351   6.391494   7.377463   8.670758
    32  H    8.776749   9.334194  10.570326  11.825497  12.985355
    33  H    2.138452   3.109432   4.401623   5.012179   6.296253
    34  H    1.099176   2.181632   2.788361   3.839131   4.846766
    35  H    1.097488   2.175743   2.762173   3.212785   4.327406
    36  H    2.167212   1.098825   2.139425   2.654322   3.991609
    37  H    2.178279   1.097765   2.133186   3.340455   4.501244
    38  H    3.529237   2.764636   2.170102   1.087578   2.055956
    39  H    6.057674   5.326988   3.825237   3.264826   2.063065
    40  H    5.339180   4.686820   3.404397   3.816477   3.389058
    41  H    3.370578   2.754824   2.167009   3.387336   3.889554
                   26         27         28         29         30
    26  C    0.000000
    27  C    1.387565   0.000000
    28  C    2.385184   1.391890   0.000000
    29  O    6.972953   6.059213   4.698932   0.000000
    30  F    9.408766   8.711611   7.384983   3.130483   0.000000
    31  O    9.074219   8.376328   7.002891   3.225542   3.644578
    32  H   13.001301  11.934253  10.644449   6.128603   5.243518
    33  H    6.959514   6.618241   5.383294   3.188777   3.164284
    34  H    4.993944   4.296509   3.114126   2.664313   4.553336
    35  H    4.927021   4.714722   3.703544   3.853277   4.984253
    36  H    4.713398   4.524760   3.384459   3.852454   5.674346
    37  H    4.737258   4.048587   2.693975   2.721641   5.348274
    38  H    3.260151   3.817537   3.391195   5.985674   7.718100
    39  H    1.086507   2.157848   3.382491   8.022953  10.460009
    40  H    2.154625   1.085626   2.162357   6.550898   9.309140
    41  H    3.376175   2.150513   1.089340   4.082803   6.958388
                   31         32         33         34         35
    31  O    0.000000
    32  H    5.686886   0.000000
    33  H    4.172607   8.105497   0.000000
    34  H    5.430807   8.532158   2.908755   0.000000
    35  H    5.851983   9.629738   2.294395   1.773898   0.000000
    36  H    4.820381   9.693664   3.028776   3.085451   2.533928
    37  H    4.353265   8.661244   3.542788   2.537819   3.088612
    38  H    7.296104  12.019625   4.731642   4.222221   3.168019
    39  H   10.150026  14.014624   8.001129   5.999801   5.912434
    40  H    9.005010  12.185013   7.461814   4.931836   5.592217
    41  H    6.578120   9.807636   5.403594   2.936584   4.009941
                   36         37         38         39         40
    36  H    0.000000
    37  H    1.747715   0.000000
    38  H    2.482102   3.693900   0.000000
    39  H    5.767369   5.810063   4.113209   0.000000
    40  H    5.488901   4.780825   4.902049   2.500654   0.000000
    41  H    3.746663   2.549964   4.315140   4.291697   2.491363
                   41
    41  H    0.000000
 Symmetry turned off by external request.
 Stoichiometry    C15H10F10N2O4
 Framework group  C1[X(C15H10F10N2O4)]
 Deg. of freedom   117
 Full point group                 C1      NOp   1
 Rotational constants (GHZ):      0.3182018      0.0679996      0.0645224
 Leave Link  202 at Mon Feb  3 21:54:57 2025, MaxMem=  5368709120 cpu:         0.1
 (Enter /home/k0335/k033513/app/g09/l301.exe)
 Standard basis: 6-31G(d,p) (6D, 7F)
 Ernie: Thresh=  0.10000D-02 Tol=  0.10000D-05 Strict=F.
   515 basis functions,   938 primitive gaussians,   515 cartesian basis functions
   118 alpha electrons      118 beta electrons
       nuclear repulsion energy      3639.4254935401 Hartrees.
 IExCor=20419 DFT=T Ex+Corr=CAM-B3LYP ExCW=0 ScaHFX=  1.000000
 ScaDFX=  1.000000  1.000000  1.000000  0.810000 ScalE2=  1.000000  1.000000
 IRadAn=      0 IRanWt=     -1 IRanGd=            0 ICorTp=0 IEmpDi=  4
  HFx wShort=  0.000000 wLong=  0.330000 cFull=  0.190000 cShort=  0.000000 cLong=  0.460000
  DFx wShort=  0.000000 wLong=  0.330000 cFull=  0.190000 cShort=  0.000000 cLong=  0.460000
 NAtoms=   41 NActive=   41 NUniq=   41 SFac= 1.00D+00 NAtFMM=   60 NAOKFM=F Big=F
 Integral buffers will be    131072 words long.
 Raffenetti 2 integral format.
 Two-electron integral symmetry is turned off.
 Using the following non-standard input for PCM:
 eps=2.05
 --- end of non-standard input.
 ------------------------------------------------------------------------------
 Polarizable Continuum Model (PCM)
 =================================
 Model                : PCM (using non-symmetric T matrix).
 Atomic radii         : UFF (Universal Force Field).
 Polarization charges : Total charges.
 Charge compensation  : None.
 Solution method      : On-the-fly selection.
 Cavity type          : Scaled VdW (van der Waals Surface) (Alpha=1.100).
 Cavity algorithm     : GePol (No added spheres)
                        Default sphere list used, NSphG=   41.
                        Lebedev-Laikov grids with approx.  5.0 points / Ang**2.
                        Smoothing algorithm: Karplus/York (Gamma=1.0000).
                        Polarization charges: spherical gaussians, with
                                              point-specific exponents (IZeta= 3).
                        Self-potential: point-specific (ISelfS= 7).
                        Self-field    : sphere-specific E.n sum rule (ISelfD= 2).
 Solvent              : Generic,
                        Eps                           =   2.050000
                        Eps(infinity)                 =   0.000000
                        RSolv                         =   0.000000 Ang.
                        Molar volume                  =   0.000000 cm**3/mol
                        Thermal expansion coefficient =   0.000000 K**-1
                        Absolute temperature          = 298.150000 K
                        Numeral density               =   0.000000 Ang**-3
                        Hydrogen bond acidity         =   0.000000
                        Hydrogen bond basicity        =   0.000000
                        Surface tension at interface  =   0.000000 (cal/mol)*Ang**-2
                        Carbon aromaticity            =   0.000000
                        Electronegative halogenicity  =   0.000000
 ------------------------------------------------------------------------------
 GePol: Number of generator spheres                  =      41
 GePol: Total number of spheres                      =      41
 GePol: Number of exposed spheres                    =      40 ( 97.56%)
 GePol: Number of points                             =    3293
 GePol: Average weight of points                     =       0.13
 GePol: Minimum weight of points                     =   0.20D-09
 GePol: Maximum weight of points                     =    0.20577
 GePol: Number of points with low weight             =     169
 GePol: Fraction of low-weight points (<1% of avg)   =       5.13%
 GePol: Cavity surface area                          =    420.561 Ang**2
 GePol: Cavity volume                                =    470.818 Ang**3
 Leave Link  301 at Mon Feb  3 21:54:57 2025, MaxMem=  5368709120 cpu:         0.7
 (Enter /home/k0335/k033513/app/g09/l302.exe)
 NPDir=0 NMtPBC=     1 NCelOv=     1 NCel=       1 NClECP=     1 NCelD=      1
         NCelK=      1 NCelE2=     1 NClLst=     1 CellRange=     0.0.
 One-electron integrals computed using PRISM.
 NBasis=   515 RedAO= T EigKep=  7.47D-04  NBF=   515
 NBsUse=   515 1.00D-06 EigRej= -1.00D+00 NBFU=   515
 Precomputing XC quadrature grid using
 IXCGrd= 4 IRadAn=           0 IRanWt=          -1 IRanGd=           0 AccXCQ= 0.00D+00.
 Generated NRdTot=       0 NPtTot=           0 NUsed=           0 NTot=          32
 NSgBfM=   494   494   494   494   494 MxSgAt=    41 MxSgA2=    41.
 Leave Link  302 at Mon Feb  3 21:54:57 2025, MaxMem=  5368709120 cpu:         8.8
 (Enter /home/k0335/k033513/app/g09/l303.exe)
 DipDrv:  MaxL=1.
 Leave Link  303 at Mon Feb  3 21:54:57 2025, MaxMem=  5368709120 cpu:         0.7
 (Enter /home/k0335/k033513/app/g09/l401.exe)
 ExpMin= 1.61D-01 ExpMax= 7.00D+03 ExpMxC= 1.05D+03 IAcc=1 IRadAn=         1 AccDes= 0.00D+00
 Harris functional with IExCor=20419 and IRadAn=       1 diagonalized for initial guess.
 HarFok:  IExCor=20419 AccDes= 0.00D+00 IRadAn=         1 IDoV= 1 UseB2=F ITyADJ=14
 ICtDFT=  3500011 ScaDFX=  1.000000  1.000000  1.000000  1.000000
 FoFCou: FMM=F IPFlag=           0 FMFlag=      100000 FMFlg1=           0
         NFxFlg=           0 DoJE=T BraDBF=F KetDBF=T FulRan=T
         wScrn=  0.000000 ICntrl=     500 IOpCl=  0 I1Cent=   200000004 NGrid=           0
         NMat0=    1 NMatS0=      1 NMatT0=    0 NMatD0=    1 NMtDS0=    0 NMtDT0=    0
 Symmetry not used in FoFCou.
 Harris En= -1922.68647693613    
 JPrj=0 DoOrth=F DoCkMO=F.
 Leave Link  401 at Mon Feb  3 21:54:58 2025, MaxMem=  5368709120 cpu:        10.3
 (Enter /home/k0335/k033513/app/g09/l502.exe)
 Closed shell SCF:
 Using DIIS extrapolation, IDIIS=  1040.
 Two-electron integral symmetry not used.
 IVT=      829757 IEndB=      829757 NGot=  5368709120 MDV=  5368161744
 LenX=  5368161744 LenY=  5367896004
 Requested convergence on RMS density matrix=1.00D-08 within 128 cycles.
 Requested convergence on MAX density matrix=1.00D-06.
 Requested convergence on             energy=1.00D-06.
 No special actions if energy rises.
 Fock matrices will be formed incrementally for  20 cycles.

 Cycle   1  Pass 1  IDiag  1:
 FoFJK:  IHMeth= 1 ICntrl=       0 DoSepK=T KAlg= 0 I1Cent=   0 FoldK=F
 IRaf=         1 NMat=   1 IRICut=       1 DoRegI=T DoRafI=F ISym2E= 0.
 FoFCou: FMM=F IPFlag=           0 FMFlag=      100000 FMFlg1=           0
         NFxFlg=           0 DoJE=T BraDBF=F KetDBF=F FulRan=T
         wScrn=  0.000000 ICntrl=     500 IOpCl=  0 I1Cent=           0 NGrid=           0
         NMat0=    1 NMatS0=      1 NMatT0=    0 NMatD0=    1 NMtDS0=    0 NMtDT0=    0
 Symmetry not used in FoFCou.
 Inv3:  Mode=1 IEnd=    32531547.
 Iteration    1 A*A^-1 deviation from unit magnitude is 6.22D-15 for   3266.
 Iteration    1 A*A^-1 deviation from orthogonality  is 5.77D-15 for   3266   1825.
 Iteration    1 A^-1*A deviation from unit magnitude is 5.55D-15 for   3266.
 Iteration    1 A^-1*A deviation from orthogonality  is 1.27D-14 for   2685   2652.
 E= -1985.18516493230    
 DIIS: error= 4.87D-02 at cycle   1 NSaved=   1.
 NSaved= 1 IEnMin= 1 EnMin= -1985.18516493230     IErMin= 1 ErrMin= 4.87D-02
 ErrMax= 4.87D-02  0.00D+00 EMaxC= 1.00D-01 BMatC= 1.58D+00 BMatP= 1.58D+00
 IDIUse=3 WtCom= 5.13D-01 WtEn= 4.87D-01
 Coeff-Com:  0.100D+01
 Coeff-En:   0.100D+01
 Coeff:      0.100D+01
 Gap=     0.511 Goal=   None    Shift=    0.000
 GapD=    0.511 DampG=2.000 DampE=0.500 DampFc=1.0000 IDamp=-1.
 RMSDP=2.89D-03 MaxDP=1.45D-01              OVMax= 1.30D-01

 Cycle   2  Pass 1  IDiag  1:
 RMSU=  2.89D-03    CP:  9.94D-01
 E= -1985.38885536664     Delta-E=       -0.203690434339 Rises=F Damp=F
 DIIS: error= 1.76D-02 at cycle   2 NSaved=   2.
 NSaved= 2 IEnMin= 2 EnMin= -1985.38885536664     IErMin= 2 ErrMin= 1.76D-02
 ErrMax= 1.76D-02  0.00D+00 EMaxC= 1.00D-01 BMatC= 5.92D-01 BMatP= 1.58D+00
 IDIUse=3 WtCom= 8.24D-01 WtEn= 1.76D-01
 Coeff-Com:  0.356D+00 0.644D+00
 Coeff-En:   0.357D+00 0.643D+00
 Coeff:      0.356D+00 0.644D+00
 Gap=     0.314 Goal=   None    Shift=    0.000
 RMSDP=1.41D-03 MaxDP=7.92D-02 DE=-2.04D-01 OVMax= 9.55D-02

 Cycle   3  Pass 1  IDiag  1:
 RMSU=  9.14D-04    CP:  9.99D-01  6.28D-01
 E= -1985.66361166466     Delta-E=       -0.274756298020 Rises=F Damp=F
 DIIS: error= 7.96D-03 at cycle   3 NSaved=   3.
 NSaved= 3 IEnMin= 3 EnMin= -1985.66361166466     IErMin= 3 ErrMin= 7.96D-03
 ErrMax= 7.96D-03  0.00D+00 EMaxC= 1.00D-01 BMatC= 1.19D-01 BMatP= 5.92D-01
 IDIUse=3 WtCom= 9.20D-01 WtEn= 7.96D-02
 Coeff-Com:  0.725D-01 0.325D+00 0.602D+00
 Coeff-En:   0.000D+00 0.155D+00 0.845D+00
 Coeff:      0.667D-01 0.312D+00 0.622D+00
 Gap=     0.340 Goal=   None    Shift=    0.000
 RMSDP=6.49D-04 MaxDP=4.45D-02 DE=-2.75D-01 OVMax= 6.78D-02

 Cycle   4  Pass 1  IDiag  1:
 RMSU=  3.26D-04    CP:  9.95D-01  7.26D-01  4.76D-01
 E= -1985.73686858199     Delta-E=       -0.073256917336 Rises=F Damp=F
 DIIS: error= 2.58D-03 at cycle   4 NSaved=   4.
 NSaved= 4 IEnMin= 4 EnMin= -1985.73686858199     IErMin= 4 ErrMin= 2.58D-03
 ErrMax= 2.58D-03  0.00D+00 EMaxC= 1.00D-01 BMatC= 1.02D-02 BMatP= 1.19D-01
 IDIUse=3 WtCom= 9.74D-01 WtEn= 2.58D-02
 Coeff-Com:  0.562D-02 0.972D-01 0.312D+00 0.586D+00
 Coeff-En:   0.000D+00 0.000D+00 0.205D-01 0.979D+00
 Coeff:      0.547D-02 0.947D-01 0.304D+00 0.596D+00
 Gap=     0.310 Goal=   None    Shift=    0.000
 RMSDP=1.82D-04 MaxDP=1.58D-02 DE=-7.33D-02 OVMax= 2.38D-02

 Cycle   5  Pass 1  IDiag  1:
 RMSU=  8.46D-05    CP:  9.95D-01  7.24D-01  6.09D-01  6.74D-01
 E= -1985.74407735116     Delta-E=       -0.007208769165 Rises=F Damp=F
 DIIS: error= 8.29D-04 at cycle   5 NSaved=   5.
 NSaved= 5 IEnMin= 5 EnMin= -1985.74407735116     IErMin= 5 ErrMin= 8.29D-04
 ErrMax= 8.29D-04  0.00D+00 EMaxC= 1.00D-01 BMatC= 6.58D-04 BMatP= 1.02D-02
 IDIUse=3 WtCom= 9.92D-01 WtEn= 8.29D-03
 Coeff-Com:  0.204D-03 0.398D-01 0.148D+00 0.338D+00 0.474D+00
 Coeff-En:   0.000D+00 0.000D+00 0.000D+00 0.000D+00 0.100D+01
 Coeff:      0.203D-03 0.395D-01 0.147D+00 0.335D+00 0.478D+00
 Gap=     0.310 Goal=   None    Shift=    0.000
 RMSDP=4.09D-05 MaxDP=4.06D-03 DE=-7.21D-03 OVMax= 6.86D-03

 Cycle   6  Pass 1  IDiag  1:
 RMSU=  2.43D-05    CP:  9.96D-01  7.26D-01  6.08D-01  6.86D-01  6.21D-01
 E= -1985.74454840411     Delta-E=       -0.000471052947 Rises=F Damp=F
 DIIS: error= 1.42D-04 at cycle   6 NSaved=   6.
 NSaved= 6 IEnMin= 6 EnMin= -1985.74454840411     IErMin= 6 ErrMin= 1.42D-04
 ErrMax= 1.42D-04  0.00D+00 EMaxC= 1.00D-01 BMatC= 1.89D-05 BMatP= 6.58D-04
 IDIUse=3 WtCom= 9.99D-01 WtEn= 1.42D-03
 Coeff-Com: -0.529D-03 0.114D-02 0.104D-01 0.338D-01 0.156D+00 0.799D+00
 Coeff-En:   0.000D+00 0.000D+00 0.000D+00 0.000D+00 0.000D+00 0.100D+01
 Coeff:     -0.528D-03 0.114D-02 0.104D-01 0.337D-01 0.156D+00 0.799D+00
 Gap=     0.310 Goal=   None    Shift=    0.000
 RMSDP=1.19D-05 MaxDP=7.57D-04 DE=-4.71D-04 OVMax= 1.04D-03

 Cycle   7  Pass 1  IDiag  1:
 RMSU=  8.14D-06    CP:  9.95D-01  7.26D-01  6.10D-01  7.00D-01  7.03D-01
                    CP:  9.42D-01
 E= -1985.74456304422     Delta-E=       -0.000014640113 Rises=F Damp=F
 DIIS: error= 3.79D-05 at cycle   7 NSaved=   7.
 NSaved= 7 IEnMin= 7 EnMin= -1985.74456304422     IErMin= 7 ErrMin= 3.79D-05
 ErrMax= 3.79D-05  0.00D+00 EMaxC= 1.00D-01 BMatC= 3.82D-06 BMatP= 1.89D-05
 IDIUse=1 WtCom= 1.00D+00 WtEn= 0.00D+00
 Coeff-Com: -0.232D-03-0.394D-02-0.112D-01-0.213D-01 0.297D-01 0.391D+00
 Coeff-Com:  0.616D+00
 Coeff:     -0.232D-03-0.394D-02-0.112D-01-0.213D-01 0.297D-01 0.391D+00
 Coeff:      0.616D+00
 Gap=     0.310 Goal=   None    Shift=    0.000
 RMSDP=3.76D-06 MaxDP=2.57D-04 DE=-1.46D-05 OVMax= 3.86D-04

 Cycle   8  Pass 1  IDiag  1:
 RMSU=  2.50D-06    CP:  9.95D-01  7.26D-01  6.11D-01  7.00D-01  7.16D-01
                    CP:  1.02D+00  8.14D-01
 E= -1985.74456611420     Delta-E=       -0.000003069983 Rises=F Damp=F
 DIIS: error= 1.11D-05 at cycle   8 NSaved=   8.
 NSaved= 8 IEnMin= 8 EnMin= -1985.74456611420     IErMin= 8 ErrMin= 1.11D-05
 ErrMax= 1.11D-05  0.00D+00 EMaxC= 1.00D-01 BMatC= 1.84D-07 BMatP= 3.82D-06
 IDIUse=1 WtCom= 1.00D+00 WtEn= 0.00D+00
 Coeff-Com: -0.287D-04-0.145D-02-0.465D-02-0.107D-01-0.126D-02 0.560D-01
 Coeff-Com:  0.200D+00 0.762D+00
 Coeff:     -0.287D-04-0.145D-02-0.465D-02-0.107D-01-0.126D-02 0.560D-01
 Coeff:      0.200D+00 0.762D+00
 Gap=     0.310 Goal=   None    Shift=    0.000
 RMSDP=1.28D-06 MaxDP=7.58D-05 DE=-3.07D-06 OVMax= 1.30D-04

 Cycle   9  Pass 1  IDiag  1:
 RMSU=  8.21D-07    CP:  9.95D-01  7.26D-01  6.11D-01  7.00D-01  7.23D-01
                    CP:  1.04D+00  8.85D-01  1.06D+00
 E= -1985.74456631263     Delta-E=       -0.000000198425 Rises=F Damp=F
 DIIS: error= 3.63D-06 at cycle   9 NSaved=   9.
 NSaved= 9 IEnMin= 9 EnMin= -1985.74456631263     IErMin= 9 ErrMin= 3.63D-06
 ErrMax= 3.63D-06  0.00D+00 EMaxC= 1.00D-01 BMatC= 2.68D-08 BMatP= 1.84D-07
 IDIUse=1 WtCom= 1.00D+00 WtEn= 0.00D+00
 Coeff-Com:  0.150D-04-0.651D-04-0.344D-03-0.158D-02-0.319D-02-0.308D-01
 Coeff-Com: -0.569D-02 0.264D+00 0.778D+00
 Coeff:      0.150D-04-0.651D-04-0.344D-03-0.158D-02-0.319D-02-0.308D-01
 Coeff:     -0.569D-02 0.264D+00 0.778D+00
 Gap=     0.310 Goal=   None    Shift=    0.000
 RMSDP=5.70D-07 MaxDP=4.47D-05 DE=-1.98D-07 OVMax= 6.41D-05

 Cycle  10  Pass 1  IDiag  1:
 RMSU=  3.21D-07    CP:  9.95D-01  7.26D-01  6.11D-01  7.00D-01  7.25D-01
                    CP:  1.04D+00  9.13D-01  1.17D+00  9.94D-01
 E= -1985.74456634480     Delta-E=       -0.000000032172 Rises=F Damp=F
 DIIS: error= 1.66D-06 at cycle  10 NSaved=  10.
 NSaved=10 IEnMin=10 EnMin= -1985.74456634480     IErMin=10 ErrMin= 1.66D-06
 ErrMax= 1.66D-06  0.00D+00 EMaxC= 1.00D-01 BMatC= 4.11D-09 BMatP= 2.68D-08
 IDIUse=1 WtCom= 1.00D+00 WtEn= 0.00D+00
 Coeff-Com:  0.102D-04 0.173D-03 0.500D-03 0.763D-03-0.708D-03-0.213D-01
 Coeff-Com: -0.300D-01 0.428D-02 0.322D+00 0.724D+00
 Coeff:      0.102D-04 0.173D-03 0.500D-03 0.763D-03-0.708D-03-0.213D-01
 Coeff:     -0.300D-01 0.428D-02 0.322D+00 0.724D+00
 Gap=     0.310 Goal=   None    Shift=    0.000
 RMSDP=2.09D-07 MaxDP=1.32D-05 DE=-3.22D-08 OVMax= 2.33D-05

 Cycle  11  Pass 1  IDiag  1:
 RMSU=  1.12D-07    CP:  9.95D-01  7.26D-01  6.11D-01  7.00D-01  7.26D-01
                    CP:  1.05D+00  9.23D-01  1.20D+00  1.12D+00  9.03D-01
 E= -1985.74456634908     Delta-E=       -0.000000004281 Rises=F Damp=F
 DIIS: error= 1.11D-06 at cycle  11 NSaved=  11.
 NSaved=11 IEnMin=11 EnMin= -1985.74456634908     IErMin=11 ErrMin= 1.11D-06
 ErrMax= 1.11D-06  0.00D+00 EMaxC= 1.00D-01 BMatC= 8.64D-10 BMatP= 4.11D-09
 IDIUse=1 WtCom= 1.00D+00 WtEn= 0.00D+00
 Coeff-Com:  0.392D-05 0.101D-03 0.310D-03 0.581D-03 0.169D-03-0.758D-02
 Coeff-Com: -0.147D-01-0.270D-01 0.816D-01 0.390D+00 0.577D+00
 Coeff:      0.392D-05 0.101D-03 0.310D-03 0.581D-03 0.169D-03-0.758D-02
 Coeff:     -0.147D-01-0.270D-01 0.816D-01 0.390D+00 0.577D+00
 Gap=     0.310 Goal=   None    Shift=    0.000
 RMSDP=6.80D-08 MaxDP=5.41D-06 DE=-4.28D-09 OVMax= 9.66D-06

 Cycle  12  Pass 1  IDiag  1:
 RMSU=  4.27D-08    CP:  9.95D-01  7.26D-01  6.11D-01  7.00D-01  7.26D-01
                    CP:  1.05D+00  9.25D-01  1.21D+00  1.14D+00  1.00D+00
                    CP:  8.17D-01
 E= -1985.74456634995     Delta-E=       -0.000000000872 Rises=F Damp=F
 DIIS: error= 2.42D-07 at cycle  12 NSaved=  12.
 NSaved=12 IEnMin=12 EnMin= -1985.74456634995     IErMin=12 ErrMin= 2.42D-07
 ErrMax= 2.42D-07  0.00D+00 EMaxC= 1.00D-01 BMatC= 6.62D-11 BMatP= 8.64D-10
 IDIUse=1 WtCom= 1.00D+00 WtEn= 0.00D+00
 Coeff-Com: -0.269D-07 0.136D-04 0.463D-04 0.109D-03 0.271D-03 0.381D-03
 Coeff-Com: -0.102D-02-0.109D-01-0.190D-01 0.409D-01 0.217D+00 0.772D+00
 Coeff:     -0.269D-07 0.136D-04 0.463D-04 0.109D-03 0.271D-03 0.381D-03
 Coeff:     -0.102D-02-0.109D-01-0.190D-01 0.409D-01 0.217D+00 0.772D+00
 Gap=     0.310 Goal=   None    Shift=    0.000
 RMSDP=2.45D-08 MaxDP=1.38D-06 DE=-8.72D-10 OVMax= 3.21D-06

 Cycle  13  Pass 1  IDiag  1:
 RMSU=  1.56D-08    CP:  9.95D-01  7.26D-01  6.11D-01  7.00D-01  7.26D-01
                    CP:  1.05D+00  9.25D-01  1.21D+00  1.14D+00  1.04D+00
                    CP:  9.06D-01  9.21D-01
 E= -1985.74456634993     Delta-E=        0.000000000020 Rises=F Damp=F
 DIIS: error= 1.15D-07 at cycle  13 NSaved=  13.
 NSaved=13 IEnMin=12 EnMin= -1985.74456634995     IErMin=13 ErrMin= 1.15D-07
 ErrMax= 1.15D-07  0.00D+00 EMaxC= 1.00D-01 BMatC= 1.46D-11 BMatP= 6.62D-11
 IDIUse=1 WtCom= 1.00D+00 WtEn= 0.00D+00
 Coeff-Com: -0.503D-06-0.440D-05-0.105D-04-0.979D-05 0.129D-03 0.101D-02
 Coeff-Com:  0.111D-02-0.260D-02-0.199D-01-0.267D-01 0.352D-01 0.393D+00
 Coeff-Com:  0.619D+00
 Coeff:     -0.503D-06-0.440D-05-0.105D-04-0.979D-05 0.129D-03 0.101D-02
 Coeff:      0.111D-02-0.260D-02-0.199D-01-0.267D-01 0.352D-01 0.393D+00
 Coeff:      0.619D+00
 Gap=     0.310 Goal=   None    Shift=    0.000
 RMSDP=9.65D-09 MaxDP=7.43D-07 DE= 2.00D-11 OVMax= 1.07D-06

 Error on total polarization charges =  0.00315
 SCF Done:  E(RCAM-B3LYP) =  -1985.74456635     A.U. after   13 cycles
            NFock= 13  Conv=0.96D-08     -V/T= 2.0077
 KE= 1.970643540732D+03 PE=-1.195851712425D+04 EE= 4.362703523626D+03
 Leave Link  502 at Mon Feb  3 21:55:36 2025, MaxMem=  5368709120 cpu:       856.0
 (Enter /home/k0335/k033513/app/g09/l601.exe)
 Copying SCF densities to generalized density rwf, IOpCl= 0 IROHF=0.

 **********************************************************************

            Population analysis using the SCF density.

 **********************************************************************

 Alpha  occ. eigenvalues --  -24.83271 -24.82718 -24.82714 -24.82539 -24.82485
 Alpha  occ. eigenvalues --  -24.82437 -24.82385 -24.82294 -24.82197 -24.81464
 Alpha  occ. eigenvalues --  -19.31970 -19.29906 -19.25160 -19.22308 -14.45707
 Alpha  occ. eigenvalues --  -14.40679 -10.52687 -10.49247 -10.48673 -10.47826
 Alpha  occ. eigenvalues --  -10.47239 -10.44326 -10.42507 -10.40324 -10.31247
 Alpha  occ. eigenvalues --  -10.29721 -10.29620 -10.28199 -10.28028 -10.27291
 Alpha  occ. eigenvalues --  -10.27200  -1.40353  -1.38229  -1.37914  -1.37494
 Alpha  occ. eigenvalues --   -1.35299  -1.34311  -1.32416  -1.31896  -1.31068
 Alpha  occ. eigenvalues --   -1.30600  -1.21674  -1.20077  -1.14139  -1.12065
 Alpha  occ. eigenvalues --   -1.02125  -1.01791  -0.97246  -0.90809  -0.90178
 Alpha  occ. eigenvalues --   -0.87975  -0.86482  -0.83797  -0.81399  -0.77874
 Alpha  occ. eigenvalues --   -0.76748  -0.74211  -0.73942  -0.70737  -0.70580
 Alpha  occ. eigenvalues --   -0.70102  -0.69424  -0.68764  -0.68191  -0.67201
 Alpha  occ. eigenvalues --   -0.66975  -0.66148  -0.65884  -0.65407  -0.64477
 Alpha  occ. eigenvalues --   -0.63710  -0.62990  -0.61472  -0.59307  -0.58244
 Alpha  occ. eigenvalues --   -0.57628  -0.56615  -0.56597  -0.56256  -0.55810
 Alpha  occ. eigenvalues --   -0.55684  -0.55555  -0.54705  -0.54278  -0.53842
 Alpha  occ. eigenvalues --   -0.53568  -0.53385  -0.52733  -0.52442  -0.52262
 Alpha  occ. eigenvalues --   -0.52069  -0.51420  -0.51231  -0.50419  -0.50274
 Alpha  occ. eigenvalues --   -0.49804  -0.49511  -0.49024  -0.48950  -0.48887
 Alpha  occ. eigenvalues --   -0.48116  -0.47509  -0.47015  -0.46883  -0.46611
 Alpha  occ. eigenvalues --   -0.45281  -0.45044  -0.43401  -0.42708  -0.42391
 Alpha  occ. eigenvalues --   -0.41475  -0.40829  -0.37361  -0.34742  -0.34314
 Alpha  occ. eigenvalues --   -0.33537  -0.32032  -0.30936
 Alpha virt. eigenvalues --    0.00084   0.01739   0.02237   0.03835   0.04550
 Alpha virt. eigenvalues --    0.09048   0.09554   0.11620   0.12817   0.13916
 Alpha virt. eigenvalues --    0.14657   0.16815   0.17212   0.17817   0.18911
 Alpha virt. eigenvalues --    0.19220   0.19713   0.20930   0.21449   0.21997
 Alpha virt. eigenvalues --    0.22343   0.22685   0.23209   0.23956   0.24850
 Alpha virt. eigenvalues --    0.25965   0.26113   0.27987   0.28467   0.29235
 Alpha virt. eigenvalues --    0.29833   0.30732   0.31116   0.31343   0.32527
 Alpha virt. eigenvalues --    0.33729   0.34377   0.36289   0.37250   0.38184
 Alpha virt. eigenvalues --    0.38247   0.39256   0.41002   0.42092   0.42811
 Alpha virt. eigenvalues --    0.47674   0.47936   0.50681   0.51076   0.51694
 Alpha virt. eigenvalues --    0.52509   0.54685   0.55594   0.56358   0.57216
 Alpha virt. eigenvalues --    0.57558   0.58119   0.59077   0.59647   0.59912
 Alpha virt. eigenvalues --    0.60954   0.61217   0.62126   0.62594   0.63632
 Alpha virt. eigenvalues --    0.64982   0.65327   0.65947   0.66090   0.66919
 Alpha virt. eigenvalues --    0.67439   0.68212   0.69149   0.70006   0.70161
 Alpha virt. eigenvalues --    0.70548   0.71752   0.71971   0.73462   0.73845
 Alpha virt. eigenvalues --    0.74634   0.75468   0.76510   0.77199   0.79490
 Alpha virt. eigenvalues --    0.79867   0.81939   0.82716   0.83060   0.85722
 Alpha virt. eigenvalues --    0.86364   0.86915   0.87388   0.88276   0.88915
 Alpha virt. eigenvalues --    0.89450   0.89953   0.90323   0.91505   0.92367
 Alpha virt. eigenvalues --    0.92909   0.94100   0.94692   0.95319   0.95940
 Alpha virt. eigenvalues --    0.97017   0.97525   0.98987   0.99895   1.00333
 Alpha virt. eigenvalues --    1.00728   1.01089   1.03499   1.04672   1.05856
 Alpha virt. eigenvalues --    1.06096   1.07466   1.08715   1.09777   1.10516
 Alpha virt. eigenvalues --    1.11104   1.11695   1.13437   1.14280   1.14755
 Alpha virt. eigenvalues --    1.16561   1.17298   1.17474   1.19522   1.19883
 Alpha virt. eigenvalues --    1.21244   1.22410   1.23182   1.23328   1.25702
 Alpha virt. eigenvalues --    1.27048   1.27906   1.29120   1.29743   1.30350
 Alpha virt. eigenvalues --    1.30919   1.31345   1.32065   1.32878   1.33917
 Alpha virt. eigenvalues --    1.34386   1.36352   1.37077   1.37230   1.38040
 Alpha virt. eigenvalues --    1.39348   1.39889   1.40304   1.40867   1.41098
 Alpha virt. eigenvalues --    1.41491   1.42009   1.42834   1.43541   1.44005
 Alpha virt. eigenvalues --    1.44370   1.44577   1.45029   1.46976   1.47588
 Alpha virt. eigenvalues --    1.48868   1.50097   1.50834   1.51786   1.52310
 Alpha virt. eigenvalues --    1.52616   1.53621   1.54681   1.54953   1.55761
 Alpha virt. eigenvalues --    1.55942   1.57299   1.57374   1.59060   1.59483
 Alpha virt. eigenvalues --    1.60422   1.63370   1.64267   1.65454   1.65794
 Alpha virt. eigenvalues --    1.68725   1.69068   1.69206   1.70775   1.71539
 Alpha virt. eigenvalues --    1.72448   1.73382   1.74349   1.74825   1.76389
 Alpha virt. eigenvalues --    1.76585   1.77869   1.78795   1.79853   1.80499
 Alpha virt. eigenvalues --    1.80939   1.81706   1.82598   1.83516   1.83706
 Alpha virt. eigenvalues --    1.84289   1.84664   1.86040   1.86728   1.87453
 Alpha virt. eigenvalues --    1.87966   1.88505   1.88699   1.89141   1.90183
 Alpha virt. eigenvalues --    1.91043   1.92070   1.93236   1.93708   1.94130
 Alpha virt. eigenvalues --    1.95402   1.96153   1.96606   1.96968   1.97293
 Alpha virt. eigenvalues --    1.98078   1.99128   2.00018   2.00272   2.02071
 Alpha virt. eigenvalues --    2.02652   2.03512   2.04021   2.04612   2.04720
 Alpha virt. eigenvalues --    2.04914   2.05586   2.06072   2.07251   2.07382
 Alpha virt. eigenvalues --    2.08421   2.08886   2.09170   2.09818   2.10066
 Alpha virt. eigenvalues --    2.10467   2.11407   2.12769   2.13800   2.14680
 Alpha virt. eigenvalues --    2.15491   2.16373   2.17358   2.18363   2.18942
 Alpha virt. eigenvalues --    2.19224   2.20339   2.20925   2.22789   2.23342
 Alpha virt. eigenvalues --    2.24487   2.25395   2.26680   2.27667   2.28185
 Alpha virt. eigenvalues --    2.29227   2.30400   2.30696   2.32733   2.33179
 Alpha virt. eigenvalues --    2.34177   2.35652   2.36887   2.37433   2.38026
 Alpha virt. eigenvalues --    2.38487   2.39393   2.39815   2.40899   2.41489
 Alpha virt. eigenvalues --    2.41982   2.42643   2.43887   2.44889   2.45818
 Alpha virt. eigenvalues --    2.46251   2.48346   2.49524   2.51880   2.53066
 Alpha virt. eigenvalues --    2.53624   2.55112   2.56008   2.56394   2.57778
 Alpha virt. eigenvalues --    2.58314   2.58434   2.60364   2.60791   2.62611
 Alpha virt. eigenvalues --    2.63434   2.63656   2.65843   2.67422   2.68573
 Alpha virt. eigenvalues --    2.68686   2.69588   2.70047   2.71006   2.71660
 Alpha virt. eigenvalues --    2.72657   2.74879   2.75579   2.76162   2.76250
 Alpha virt. eigenvalues --    2.76985   2.78356   2.79599   2.80764   2.81157
 Alpha virt. eigenvalues --    2.82021   2.85087   2.86260   2.86984   2.87765
 Alpha virt. eigenvalues --    2.88409   2.90871   2.91221   2.92407   2.93854
 Alpha virt. eigenvalues --    2.94527   2.95465   2.96994   2.97536   2.98380
 Alpha virt. eigenvalues --    2.99563   3.02722   3.05868   3.06681   3.07536
 Alpha virt. eigenvalues --    3.09526   3.11119   3.11596   3.12584   3.15637
 Alpha virt. eigenvalues --    3.19228   3.19945   3.21661   3.22034   3.25191
 Alpha virt. eigenvalues --    3.26522   3.28407   3.29768   3.30166   3.30686
 Alpha virt. eigenvalues --    3.31886   3.35708   3.36105   3.40445   3.45573
 Alpha virt. eigenvalues --    3.46201   3.48554   3.53198   3.54332   3.62444
 Alpha virt. eigenvalues --    3.86797   4.00854   4.10132   4.15853   4.17578
 Alpha virt. eigenvalues --    4.21995   4.24330   4.26126   4.29038   4.36913
 Alpha virt. eigenvalues --    4.38039   4.39839   4.43310   4.46331   4.51880
 Alpha virt. eigenvalues --    4.54943   4.60147   4.69306   4.72666   4.74662
 Alpha virt. eigenvalues --    4.82599   4.83550   5.06632   5.11494   5.19509
 Alpha virt. eigenvalues --    5.39500   5.47790   5.59215   5.94120   6.03734
 Alpha virt. eigenvalues --    6.63617   6.97327
          Condensed to atoms (all electrons):
               1          2          3          4          5          6
     1  F    9.086393   0.277413  -0.041617  -0.030121   0.000021   0.000338
     2  C    0.277413   4.420678   0.300756   0.194599  -0.022672  -0.021538
     3  F   -0.041617   0.300756   9.050926  -0.022274  -0.000119  -0.000566
     4  C   -0.030121   0.194599  -0.022274   4.740676   0.279319   0.253902
     5  F    0.000021  -0.022672  -0.000119   0.279319   9.063130  -0.041173
     6  F    0.000338  -0.021538  -0.000566   0.253902  -0.041173   9.111667
     7  C   -0.000720  -0.088935   0.002527   0.162865  -0.039313  -0.036360
     8  F   -0.000001   0.001707  -0.000001  -0.006959  -0.000231  -0.001739
     9  C    0.006845  -0.002266   0.000034  -0.026468   0.010442   0.002073
    10  F   -0.010117   0.010020   0.000000   0.002832  -0.000657   0.000000
    11  C    0.000017  -0.000202   0.000000   0.003485   0.000141  -0.000032
    12  O    0.000000   0.000002   0.000000  -0.000044   0.000000   0.000000
    13  O    0.000000   0.000000   0.000000   0.000168   0.000000   0.000000
    14  F   -0.000040  -0.000398   0.000000  -0.002038  -0.001785   0.000000
    15  C    0.000753  -0.004197   0.000566  -0.063683   0.002358   0.004918
    16  F   -0.000007   0.000254  -0.000003   0.001528  -0.000001   0.000000
    17  C   -0.000012   0.002168   0.000097  -0.004623   0.000008   0.002333
    18  F    0.000000   0.001520  -0.000031   0.001851   0.000000  -0.003789
    19  C    0.000000   0.000072  -0.000015   0.000181   0.000000  -0.000067
    20  N    0.000000   0.000002   0.000000   0.000003   0.000000   0.000002
    21  C    0.000000   0.000000   0.000000   0.000000   0.000000   0.000000
    22  C    0.000000   0.000000   0.000000   0.000000   0.000000   0.000000
    23  C    0.000000   0.000000   0.000000   0.000000   0.000000   0.000000
    24  C    0.000000   0.000000   0.000000   0.000000   0.000000   0.000000
    25  N    0.000000   0.000000   0.000000   0.000000   0.000000   0.000000
    26  C    0.000000   0.000000   0.000000   0.000000   0.000000   0.000000
    27  C    0.000000   0.000000   0.000000   0.000000   0.000000   0.000000
    28  C    0.000000   0.000000   0.000000   0.000000   0.000000   0.000000
    29  O    0.000000   0.000049   0.000000  -0.000009   0.000000   0.000000
    30  F    0.000000   0.000063   0.000000   0.000022   0.000000  -0.000014
    31  O   -0.050250   0.181430  -0.041413  -0.031570   0.000733  -0.000950
    32  H    0.000000   0.000000   0.000000   0.000002   0.000000   0.000000
    33  H    0.000000  -0.000001   0.000000  -0.000001   0.000000   0.000005
    34  H    0.000000   0.000000   0.000000   0.000000   0.000000   0.000000
    35  H    0.000000   0.000000   0.000000   0.000000   0.000000   0.000000
    36  H    0.000000   0.000000   0.000000   0.000000   0.000000   0.000000
    37  H    0.000000   0.000001   0.000000   0.000000   0.000000   0.000000
    38  H    0.000000   0.000000   0.000000   0.000000   0.000000   0.000000
    39  H    0.000000   0.000000   0.000000   0.000000   0.000000   0.000000
    40  H    0.000000   0.000000   0.000000   0.000000   0.000000   0.000000
    41  H    0.000000   0.000000   0.000000   0.000000   0.000000   0.000000
               7          8          9         10         11         12
     1  F   -0.000720  -0.000001   0.006845  -0.010117   0.000017   0.000000
     2  C   -0.088935   0.001707  -0.002266   0.010020  -0.000202   0.000002
     3  F    0.002527  -0.000001   0.000034   0.000000   0.000000   0.000000
     4  C    0.162865  -0.006959  -0.026468   0.002832   0.003485  -0.000044
     5  F   -0.039313  -0.000231   0.010442  -0.000657   0.000141   0.000000
     6  F   -0.036360  -0.001739   0.002073   0.000000  -0.000032   0.000000
     7  C    5.599978   0.197890   0.160511  -0.048667  -0.067168   0.002446
     8  F    0.197890   9.130190  -0.014876   0.000322   0.001944   0.000009
     9  C    0.160511  -0.014876   4.692252   0.247082   0.229781  -0.068377
    10  F   -0.048667   0.000322   0.247082   9.109975  -0.027599   0.001906
    11  C   -0.067168   0.001944   0.229781  -0.027599   4.488469   0.286191
    12  O    0.002446   0.000009  -0.068377   0.001906   0.286191   8.068036
    13  O    0.014520  -0.002770  -0.065972   0.000709   0.544088  -0.090908
    14  F   -0.022465  -0.000987   0.252059  -0.038511  -0.020061  -0.000240
    15  C    0.104271  -0.034621  -0.032486   0.015546  -0.005709   0.000166
    16  F   -0.030404   0.000342   0.002989  -0.002020   0.017906  -0.000757
    17  C   -0.030955   0.016704   0.003457   0.000111  -0.000192  -0.000004
    18  F    0.005103  -0.001173   0.000048   0.000000   0.000004   0.000000
    19  C    0.003488   0.000304  -0.000007  -0.000001  -0.000034   0.000000
    20  N   -0.000120  -0.000001   0.000001   0.000000   0.000000   0.000000
    21  C    0.000001   0.000000   0.000000   0.000000   0.000000   0.000000
    22  C    0.000000   0.000000   0.000000   0.000000   0.000000   0.000000
    23  C    0.000000   0.000000   0.000000   0.000000   0.000000   0.000000
    24  C    0.000000   0.000000   0.000000   0.000000   0.000000   0.000000
    25  N    0.000000   0.000000   0.000000   0.000000   0.000000   0.000000
    26  C    0.000000   0.000000   0.000000   0.000000   0.000000   0.000000
    27  C    0.000000   0.000000   0.000000   0.000000   0.000000   0.000000
    28  C    0.000000   0.000000   0.000000   0.000000   0.000000   0.000000
    29  O    0.000069   0.000000   0.000005   0.000000   0.000002   0.000000
    30  F   -0.001033  -0.002413  -0.000204   0.000000   0.000034   0.000000
    31  O   -0.023220   0.000815  -0.002334  -0.001880   0.000156   0.000000
    32  H   -0.000312   0.000005   0.008051  -0.000141  -0.015645   0.283709
    33  H   -0.000020   0.000001   0.000000   0.000000   0.000000   0.000000
    34  H    0.000000   0.000000   0.000000   0.000000   0.000000   0.000000
    35  H    0.000000   0.000000   0.000000   0.000000   0.000000   0.000000
    36  H    0.000000   0.000000   0.000000   0.000000   0.000000   0.000000
    37  H    0.000000   0.000000   0.000000   0.000000   0.000000   0.000000
    38  H    0.000000   0.000000   0.000000   0.000000   0.000000   0.000000
    39  H    0.000000   0.000000   0.000000   0.000000   0.000000   0.000000
    40  H    0.000000   0.000000   0.000000   0.000000   0.000000   0.000000
    41  H    0.000000   0.000000   0.000000   0.000000   0.000000   0.000000
              13         14         15         16         17         18
     1  F    0.000000  -0.000040   0.000753  -0.000007  -0.000012   0.000000
     2  C    0.000000  -0.000398  -0.004197   0.000254   0.002168   0.001520
     3  F    0.000000   0.000000   0.000566  -0.000003   0.000097  -0.000031
     4  C    0.000168  -0.002038  -0.063683   0.001528  -0.004623   0.001851
     5  F    0.000000  -0.001785   0.002358  -0.000001   0.000008   0.000000
     6  F    0.000000   0.000000   0.004918   0.000000   0.002333  -0.003789
     7  C    0.014520  -0.022465   0.104271  -0.030404  -0.030955   0.005103
     8  F   -0.002770  -0.000987  -0.034621   0.000342   0.016704  -0.001173
     9  C   -0.065972   0.252059  -0.032486   0.002989   0.003457   0.000048
    10  F    0.000709  -0.038511   0.015546  -0.002020   0.000111   0.000000
    11  C    0.544088  -0.020061  -0.005709   0.017906  -0.000192   0.000004
    12  O   -0.090908  -0.000240   0.000166  -0.000757  -0.000004   0.000000
    13  O    8.042635   0.000229   0.000990  -0.004425  -0.000068   0.000000
    14  F    0.000229   9.101320   0.002577   0.000012  -0.000019   0.000000
    15  C    0.000990   0.002577   5.080870   0.233179   0.166317  -0.032156
    16  F   -0.004425   0.000012   0.233179   9.116041  -0.022351   0.000285
    17  C   -0.000068  -0.000019   0.166317  -0.022351   4.718364   0.230877
    18  F    0.000000   0.000000  -0.032156   0.000285   0.230877   9.139032
    19  C   -0.000003   0.000000  -0.050597  -0.001358   0.273497  -0.031207
    20  N    0.000000   0.000000   0.002425   0.000018  -0.080173  -0.001775
    21  C    0.000000   0.000000  -0.000088   0.000002   0.004910   0.000182
    22  C    0.000000   0.000000   0.000035   0.000000  -0.000342  -0.000001
    23  C    0.000000   0.000000   0.000000   0.000000   0.000001   0.000000
    24  C    0.000000   0.000000   0.000000   0.000000   0.000000   0.000000
    25  N    0.000000   0.000000   0.000000   0.000000   0.000000   0.000000
    26  C    0.000000   0.000000   0.000000   0.000000   0.000000   0.000000
    27  C    0.000000   0.000000   0.000000   0.000000   0.000000   0.000000
    28  C    0.000000   0.000000   0.000000   0.000000   0.000000   0.000000
    29  O    0.000000   0.000000   0.014218  -0.001440  -0.065722   0.000742
    30  F    0.000551   0.000000  -0.024458  -0.000058   0.245572  -0.037836
    31  O   -0.000001  -0.000007   0.132408  -0.043139  -0.036433   0.000333
    32  H    0.008478  -0.000147  -0.000023  -0.000031  -0.000001   0.000000
    33  H    0.000000   0.000000   0.000642  -0.000004  -0.001700   0.014054
    34  H    0.000000   0.000000  -0.000026   0.000000   0.000107  -0.000009
    35  H    0.000000   0.000000  -0.000001   0.000000  -0.000131  -0.000007
    36  H    0.000000   0.000000  -0.000006   0.000000   0.000013  -0.000005
    37  H    0.000000   0.000000   0.000001   0.000000   0.000085  -0.000001
    38  H    0.000000   0.000000   0.000000   0.000000   0.000000   0.000000
    39  H    0.000000   0.000000   0.000000   0.000000   0.000000   0.000000
    40  H    0.000000   0.000000   0.000000   0.000000   0.000000   0.000000
    41  H    0.000000   0.000000   0.000000   0.000000   0.000000   0.000000
              19         20         21         22         23         24
     1  F    0.000000   0.000000   0.000000   0.000000   0.000000   0.000000
     2  C    0.000072   0.000002   0.000000   0.000000   0.000000   0.000000
     3  F   -0.000015   0.000000   0.000000   0.000000   0.000000   0.000000
     4  C    0.000181   0.000003   0.000000   0.000000   0.000000   0.000000
     5  F    0.000000   0.000000   0.000000   0.000000   0.000000   0.000000
     6  F   -0.000067   0.000002   0.000000   0.000000   0.000000   0.000000
     7  C    0.003488  -0.000120   0.000001   0.000000   0.000000   0.000000
     8  F    0.000304  -0.000001   0.000000   0.000000   0.000000   0.000000
     9  C   -0.000007   0.000001   0.000000   0.000000   0.000000   0.000000
    10  F   -0.000001   0.000000   0.000000   0.000000   0.000000   0.000000
    11  C   -0.000034   0.000000   0.000000   0.000000   0.000000   0.000000
    12  O    0.000000   0.000000   0.000000   0.000000   0.000000   0.000000
    13  O   -0.000003   0.000000   0.000000   0.000000   0.000000   0.000000
    14  F    0.000000   0.000000   0.000000   0.000000   0.000000   0.000000
    15  C   -0.050597   0.002425  -0.000088   0.000035   0.000000   0.000000
    16  F   -0.001358   0.000018   0.000002   0.000000   0.000000   0.000000
    17  C    0.273497  -0.080173   0.004910  -0.000342   0.000001   0.000000
    18  F   -0.031207  -0.001775   0.000182  -0.000001   0.000000   0.000000
    19  C    4.484205   0.263219  -0.027678  -0.003861   0.000119  -0.000004
    20  N    0.263219   7.026577   0.234196  -0.054271   0.003558   0.000048
    21  C   -0.027678   0.234196   4.821766   0.356942  -0.043392  -0.002955
    22  C   -0.003861  -0.054271   0.356942   5.052676   0.335557  -0.044470
    23  C    0.000119   0.003558  -0.043392   0.335557   4.816616   0.499218
    24  C   -0.000004   0.000048  -0.002955  -0.044470   0.499218   4.798433
    25  N    0.000000   0.000000  -0.000029   0.005403  -0.021831   0.452634
    26  C    0.000000   0.000000   0.000013   0.000191  -0.032088  -0.076826
    27  C    0.000000   0.000001   0.000016   0.006637  -0.025472  -0.040449
    28  C   -0.000008   0.000044  -0.003976  -0.061410   0.543751  -0.035537
    29  O    0.562967  -0.101266   0.007638  -0.003916  -0.000030  -0.000002
    30  F   -0.021224  -0.001158  -0.000063   0.000000   0.000000   0.000000
    31  O    0.004597  -0.000055  -0.000002  -0.000001   0.000000   0.000000
    32  H    0.000000   0.000000   0.000000   0.000000   0.000000   0.000000
    33  H   -0.026479   0.342269  -0.024714   0.001352  -0.000070  -0.000005
    34  H   -0.004382  -0.040081   0.393175  -0.045042   0.000505   0.000037
    35  H    0.005117  -0.033200   0.387973  -0.042994   0.000776   0.002620
    36  H    0.000153   0.000651  -0.036567   0.374763  -0.029591  -0.005280
    37  H    0.004428  -0.006867  -0.030479   0.380586  -0.026241   0.002726
    38  H    0.000000  -0.000024   0.000186  -0.003724  -0.063743   0.392890
    39  H    0.000000   0.000000   0.000000   0.000012   0.000646   0.004462
    40  H    0.000000   0.000000  -0.000001  -0.000106   0.004481   0.000349
    41  H    0.000006  -0.000044   0.000157  -0.007916  -0.043874   0.004902
              25         26         27         28         29         30
     1  F    0.000000   0.000000   0.000000   0.000000   0.000000   0.000000
     2  C    0.000000   0.000000   0.000000   0.000000   0.000049   0.000063
     3  F    0.000000   0.000000   0.000000   0.000000   0.000000   0.000000
     4  C    0.000000   0.000000   0.000000   0.000000  -0.000009   0.000022
     5  F    0.000000   0.000000   0.000000   0.000000   0.000000   0.000000
     6  F    0.000000   0.000000   0.000000   0.000000   0.000000  -0.000014
     7  C    0.000000   0.000000   0.000000   0.000000   0.000069  -0.001033
     8  F    0.000000   0.000000   0.000000   0.000000   0.000000  -0.002413
     9  C    0.000000   0.000000   0.000000   0.000000   0.000005  -0.000204
    10  F    0.000000   0.000000   0.000000   0.000000   0.000000   0.000000
    11  C    0.000000   0.000000   0.000000   0.000000   0.000002   0.000034
    12  O    0.000000   0.000000   0.000000   0.000000   0.000000   0.000000
    13  O    0.000000   0.000000   0.000000   0.000000   0.000000   0.000551
    14  F    0.000000   0.000000   0.000000   0.000000   0.000000   0.000000
    15  C    0.000000   0.000000   0.000000   0.000000   0.014218  -0.024458
    16  F    0.000000   0.000000   0.000000   0.000000  -0.001440  -0.000058
    17  C    0.000000   0.000000   0.000000   0.000000  -0.065722   0.245572
    18  F    0.000000   0.000000   0.000000   0.000000   0.000742  -0.037836
    19  C    0.000000   0.000000   0.000000  -0.000008   0.562967  -0.021224
    20  N    0.000000   0.000000   0.000001   0.000044  -0.101266  -0.001158
    21  C   -0.000029   0.000013   0.000016  -0.003976   0.007638  -0.000063
    22  C    0.005403   0.000191   0.006637  -0.061410  -0.003916   0.000000
    23  C   -0.021831  -0.032088  -0.025472   0.543751  -0.000030   0.000000
    24  C    0.452634  -0.076826  -0.040449  -0.035537  -0.000002   0.000000
    25  N    6.714371   0.468827  -0.028890  -0.052293   0.000000   0.000000
    26  C    0.468827   4.716057   0.517258  -0.038482   0.000000   0.000000
    27  C   -0.028890   0.517258   4.879715   0.521160   0.000000   0.000000
    28  C   -0.052293  -0.038482   0.521160   4.865582  -0.000008   0.000000
    29  O    0.000000   0.000000   0.000000  -0.000008   8.079609  -0.000178
    30  F    0.000000   0.000000   0.000000   0.000000  -0.000178   9.107373
    31  O    0.000000   0.000000   0.000000   0.000000  -0.001371   0.000614
    32  H    0.000000   0.000000   0.000000   0.000000   0.000000   0.000000
    33  H    0.000000   0.000000   0.000000   0.000002   0.002769   0.000362
    34  H    0.000000  -0.000004  -0.000117   0.003410   0.006849   0.000000
    35  H   -0.000082  -0.000006  -0.000017   0.000101   0.000331   0.000001
    36  H    0.000103   0.000010  -0.000212   0.004090   0.000079   0.000000
    37  H   -0.000148   0.000028   0.000015  -0.004773   0.006094   0.000000
    38  H   -0.048744   0.004763   0.000280   0.003854   0.000000   0.000000
    39  H   -0.049765   0.392505  -0.057045   0.003413   0.000000   0.000000
    40  H    0.004419  -0.034300   0.368700  -0.036132   0.000000   0.000000
    41  H   -0.000224   0.004432  -0.040859   0.380655   0.000101   0.000000
              31         32         33         34         35         36
     1  F   -0.050250   0.000000   0.000000   0.000000   0.000000   0.000000
     2  C    0.181430   0.000000  -0.000001   0.000000   0.000000   0.000000
     3  F   -0.041413   0.000000   0.000000   0.000000   0.000000   0.000000
     4  C   -0.031570   0.000002  -0.000001   0.000000   0.000000   0.000000
     5  F    0.000733   0.000000   0.000000   0.000000   0.000000   0.000000
     6  F   -0.000950   0.000000   0.000005   0.000000   0.000000   0.000000
     7  C   -0.023220  -0.000312  -0.000020   0.000000   0.000000   0.000000
     8  F    0.000815   0.000005   0.000001   0.000000   0.000000   0.000000
     9  C   -0.002334   0.008051   0.000000   0.000000   0.000000   0.000000
    10  F   -0.001880  -0.000141   0.000000   0.000000   0.000000   0.000000
    11  C    0.000156  -0.015645   0.000000   0.000000   0.000000   0.000000
    12  O    0.000000   0.283709   0.000000   0.000000   0.000000   0.000000
    13  O   -0.000001   0.008478   0.000000   0.000000   0.000000   0.000000
    14  F   -0.000007  -0.000147   0.000000   0.000000   0.000000   0.000000
    15  C    0.132408  -0.000023   0.000642  -0.000026  -0.000001  -0.000006
    16  F   -0.043139  -0.000031  -0.000004   0.000000   0.000000   0.000000
    17  C   -0.036433  -0.000001  -0.001700   0.000107  -0.000131   0.000013
    18  F    0.000333   0.000000   0.014054  -0.000009  -0.000007  -0.000005
    19  C    0.004597   0.000000  -0.026479  -0.004382   0.005117   0.000153
    20  N   -0.000055   0.000000   0.342269  -0.040081  -0.033200   0.000651
    21  C   -0.000002   0.000000  -0.024714   0.393175   0.387973  -0.036567
    22  C   -0.000001   0.000000   0.001352  -0.045042  -0.042994   0.374763
    23  C    0.000000   0.000000  -0.000070   0.000505   0.000776  -0.029591
    24  C    0.000000   0.000000  -0.000005   0.000037   0.002620  -0.005280
    25  N    0.000000   0.000000   0.000000   0.000000  -0.000082   0.000103
    26  C    0.000000   0.000000   0.000000  -0.000004  -0.000006   0.000010
    27  C    0.000000   0.000000   0.000000  -0.000117  -0.000017  -0.000212
    28  C    0.000000   0.000000   0.000002   0.003410   0.000101   0.004090
    29  O   -0.001371   0.000000   0.002769   0.006849   0.000331   0.000079
    30  F    0.000614   0.000000   0.000362   0.000000   0.000001   0.000000
    31  O    8.408762   0.000000  -0.000025   0.000000   0.000000   0.000000
    32  H    0.000000   0.355365   0.000000   0.000000   0.000000   0.000000
    33  H   -0.000025   0.000000   0.400344   0.003478  -0.005538   0.000980
    34  H    0.000000   0.000000   0.003478   0.568388  -0.029227   0.005060
    35  H    0.000000   0.000000  -0.005538  -0.029227   0.586820  -0.004576
    36  H    0.000000   0.000000   0.000980   0.005060  -0.004576   0.605555
    37  H    0.000012   0.000000  -0.000143  -0.005266   0.004743  -0.033651
    38  H    0.000000   0.000000   0.000002   0.000008   0.000336   0.004405
    39  H    0.000000   0.000000   0.000000   0.000000   0.000000   0.000000
    40  H    0.000000   0.000000   0.000000   0.000002   0.000000   0.000003
    41  H    0.000000   0.000000   0.000000   0.000694   0.000037   0.000051
              37         38         39         40         41
     1  F    0.000000   0.000000   0.000000   0.000000   0.000000
     2  C    0.000001   0.000000   0.000000   0.000000   0.000000
     3  F    0.000000   0.000000   0.000000   0.000000   0.000000
     4  C    0.000000   0.000000   0.000000   0.000000   0.000000
     5  F    0.000000   0.000000   0.000000   0.000000   0.000000
     6  F    0.000000   0.000000   0.000000   0.000000   0.000000
     7  C    0.000000   0.000000   0.000000   0.000000   0.000000
     8  F    0.000000   0.000000   0.000000   0.000000   0.000000
     9  C    0.000000   0.000000   0.000000   0.000000   0.000000
    10  F    0.000000   0.000000   0.000000   0.000000   0.000000
    11  C    0.000000   0.000000   0.000000   0.000000   0.000000
    12  O    0.000000   0.000000   0.000000   0.000000   0.000000
    13  O    0.000000   0.000000   0.000000   0.000000   0.000000
    14  F    0.000000   0.000000   0.000000   0.000000   0.000000
    15  C    0.000001   0.000000   0.000000   0.000000   0.000000
    16  F    0.000000   0.000000   0.000000   0.000000   0.000000
    17  C    0.000085   0.000000   0.000000   0.000000   0.000000
    18  F   -0.000001   0.000000   0.000000   0.000000   0.000000
    19  C    0.004428   0.000000   0.000000   0.000000   0.000006
    20  N   -0.006867  -0.000024   0.000000   0.000000  -0.000044
    21  C   -0.030479   0.000186   0.000000  -0.000001   0.000157
    22  C    0.380586  -0.003724   0.000012  -0.000106  -0.007916
    23  C   -0.026241  -0.063743   0.000646   0.004481  -0.043874
    24  C    0.002726   0.392890   0.004462   0.000349   0.004902
    25  N   -0.000148  -0.048744  -0.049765   0.004419  -0.000224
    26  C    0.000028   0.004763   0.392505  -0.034300   0.004432
    27  C    0.000015   0.000280  -0.057045   0.368700  -0.040859
    28  C   -0.004773   0.003854   0.003413  -0.036132   0.380655
    29  O    0.006094   0.000000   0.000000   0.000000   0.000101
    30  F    0.000000   0.000000   0.000000   0.000000   0.000000
    31  O    0.000012   0.000000   0.000000   0.000000   0.000000
    32  H    0.000000   0.000000   0.000000   0.000000   0.000000
    33  H   -0.000143   0.000002   0.000000   0.000000   0.000000
    34  H   -0.005266   0.000008   0.000000   0.000002   0.000694
    35  H    0.004743   0.000336   0.000000   0.000000   0.000037
    36  H   -0.033651   0.004405   0.000000   0.000003   0.000051
    37  H    0.564873   0.000001   0.000000  -0.000008   0.003497
    38  H    0.000001   0.605718  -0.000198   0.000022  -0.000147
    39  H    0.000000  -0.000198   0.598889  -0.002572  -0.000164
    40  H   -0.000008   0.000022  -0.002572   0.590306  -0.005582
    41  H    0.003497  -0.000147  -0.000164  -0.005582   0.584909
 Mulliken charges:
               1
     1  F   -0.238895
     2  C    0.749477
     3  F   -0.248867
     4  C    0.546356
     5  F   -0.250200
     6  F   -0.269009
     7  C    0.136021
     8  F   -0.284462
     9  C    0.597360
    10  F   -0.258911
    11  C    0.564425
    12  O   -0.482134
    13  O   -0.448219
    14  F   -0.269499
    15  C    0.485812
    16  F   -0.266558
    17  C    0.578102
    18  F   -0.286039
    19  C    0.564573
    20  N   -0.553981
    21  C   -0.037214
    22  C   -0.246098
    23  C    0.081104
    24  C    0.047209
    25  N   -0.443751
    26  C    0.077623
    27  C   -0.100722
    28  C   -0.093444
    29  O   -0.507576
    30  F   -0.265951
    31  O   -0.497211
    32  H    0.360690
    33  H    0.292442
    34  H    0.142441
    35  H    0.126925
    36  H    0.113971
    37  H    0.140487
    38  H    0.104116
    39  H    0.109819
    40  H    0.110420
    41  H    0.119369
 Sum of Mulliken charges =   0.00000
 Mulliken charges with hydrogens summed into heavy atoms:
               1
     1  F   -0.238895
     2  C    0.749477
     3  F   -0.248867
     4  C    0.546356
     5  F   -0.250200
     6  F   -0.269009
     7  C    0.136021
     8  F   -0.284462
     9  C    0.597360
    10  F   -0.258911
    11  C    0.564425
    12  O   -0.121444
    13  O   -0.448219
    14  F   -0.269499
    15  C    0.485812
    16  F   -0.266558
    17  C    0.578102
    18  F   -0.286039
    19  C    0.564573
    20  N   -0.261539
    21  C    0.232152
    22  C    0.008361
    23  C    0.081104
    24  C    0.151324
    25  N   -0.443751
    26  C    0.187441
    27  C    0.009698
    28  C    0.025925
    29  O   -0.507576
    30  F   -0.265951
    31  O   -0.497211
 Electronic spatial extent (au):  <R**2>=          16951.4006
 Charge=              0.0000 electrons
 Dipole moment (field-independent basis, Debye):
    X=             -0.3559    Y=             -1.2447    Z=             -0.7824  Tot=              1.5126
 Quadrupole moment (field-independent basis, Debye-Ang):
   XX=           -175.2484   YY=           -162.3840   ZZ=           -171.1213
   XY=             -4.8322   XZ=              0.8119   YZ=             -5.5535
 Traceless Quadrupole moment (field-independent basis, Debye-Ang):
   XX=             -5.6639   YY=              7.2006   ZZ=             -1.5367
   XY=             -4.8322   XZ=              0.8119   YZ=             -5.5535
 Octapole moment (field-independent basis, Debye-Ang**2):
  XXX=            332.0084  YYY=           -134.4234  ZZZ=           -102.3212  XYY=             55.9262
  XXY=           -179.9912  XXZ=             29.7429  XZZ=            141.7590  YZZ=            -14.6342
  YYZ=             -6.0829  XYZ=             27.7658
 Hexadecapole moment (field-independent basis, Debye-Ang**3):
 XXXX=         -16321.6293 YYYY=          -1900.7504 ZZZZ=          -1705.7165 XXXY=          -1238.0040
 XXXZ=           1596.7696 YYYX=           -479.5590 YYYZ=            -49.5069 ZZZX=           1354.1111
 ZZZY=             51.7952 XXYY=          -2987.2860 XXZZ=          -3184.9952 YYZZ=           -652.6301
 XXYZ=             27.8956 YYXZ=            369.1649 ZZXY=           -285.4689
 N-N= 3.639425493540D+03 E-N=-1.195851712897D+04  KE= 1.970643540732D+03
 No NMR shielding tensors so no spin-rotation constants.
 Leave Link  601 at Mon Feb  3 21:55:37 2025, MaxMem=  5368709120 cpu:         3.8
 (Enter /home/k0335/k033513/app/g09/l9999.exe)
 1\1\GINC-C15U05N1\SP\RCAM-B3LYP\6-31G(d,p)\C15H10F10N2O4\K033513\03-Fe
 b-2025\0\\#p CAM-B3LYP/6-31G(d,p) SCRF=(PCM,Solvent=Generic,Read) NoSy
 mm out=wfn\\Title AEPYridine2_neu\\0,1\F,0,-3.255928,1.230686,3.02417\
 C,0,-2.832206,1.585442,1.793003\F,0,-2.310437,2.826846,1.894098\C,0,-3
 .914307,1.482663,0.739883\F,0,-5.126507,1.909647,1.129302\F,0,-3.56512
 6,2.26062,-0.326046\C,0,-3.843282,0.040161,0.327572\F,0,-4.305943,-0.0
 86004,-0.947373\C,0,-4.667061,-0.865826,1.227853\F,0,-4.259999,-0.7471
 61,2.519968\C,0,-4.61378,-2.327059,0.763871\O,0,-4.952817,-3.208438,1.
 734672\O,0,-4.326307,-2.737862,-0.352508\F,0,-5.963112,-0.431435,1.220
 256\C,0,-2.341545,-0.226878,0.449258\F,0,-2.155017,-1.480511,0.945022\
 C,0,-1.589943,-0.085828,-0.890698\F,0,-1.770423,1.17731,-1.388851\C,0,
 -0.0854,-0.376169,-0.735633\N,0,0.719622,0.381114,-1.585017\C,0,2.1646
 33,0.250215,-1.601994\C,0,2.820176,0.90168,-0.379468\C,0,4.319141,0.80
 9878,-0.435194\C,0,5.08801,1.847068,-0.960766\N,0,6.436214,1.818265,-1
 .053573\C,0,7.051638,0.704184,-0.600161\C,0,6.38071,-0.385419,-0.06354
 4\C,0,4.992435,-0.328165,0.018744\O,0,0.381827,-1.234926,0.012658\F,0,
 -2.134406,-0.922286,-1.823302\O,0,-1.791884,0.67879,1.432797\H,0,-4.87
 6608,-4.097492,1.321992\H,0,0.281369,1.092725,-2.164553\H,0,2.414762,-
 0.818636,-1.658402\H,0,2.516935,0.724842,-2.526706\H,0,2.516551,1.9555
 49,-0.311723\H,0,2.463477,0.434715,0.547785\H,0,4.630533,2.760723,-1.3
 33292\H,0,8.134892,0.707304,-0.684118\H,0,6.927102,-1.257118,0.283126\
 H,0,4.442012,-1.170096,0.436893\\Version=ES64L-G09RevD.01\HF=-1985.744
 5663\RMSD=9.647e-09\Dipole=-0.1400135,-0.4896925,-0.3078325\Quadrupole
 =-4.2109429,5.3534524,-1.1425095,-3.5926364,0.6036266,-4.1288684\PG=C0
 1 [X(C15H10F10N2O4)]\\@

 Writing a WFN file to "cytop/AEPYridine2/AEPYridine2_neu.wfn"


 LET US PLACE AT THE END OF EVERY CHAPTER.....THE
 TWO LETTERS USED BY THE ROMAN JUDGES WHEN THEY DID
 NOT UNDERSTAND A PLEADING.
 N. L. -NON LIQUET- IT IS NOT CLEAR.
                                              -- VOLTAIRE
 Job cpu time:       0 days  0 hours 14 minutes 46.6 seconds.
 File lengths (MBytes):  RWF=    322 Int=      0 D2E=      0 Chk=     11 Scr=      1
 Normal termination of Gaussian 09 at Mon Feb  3 21:55:37 2025.
