 Entering Gaussian System, Link 0=g09
 Initial command:
 /home/k0335/k033513/app/g09/l1.exe "/home/k0335/k033513/app/g09/scratch/Gau-256427.inp" -scrdir="/home/k0335/k033513/app/g09/scratch/"
 Default is to use a total of  36 processors:
                               36 via shared-memory
                                1 via Linda
 Entering Link 1 = /home/k0335/k033513/app/g09/l1.exe PID=    256428.
  
 Copyright (c) 1988,1990,1992,1993,1995,1998,2003,2009,2013,
            Gaussian, Inc.  All Rights Reserved.
  
 This is part of the Gaussian(R) 09 program.  It is based on
 the Gaussian(R) 03 system (copyright 2003, Gaussian, Inc.),
 the Gaussian(R) 98 system (copyright 1998, Gaussian, Inc.),
 the Gaussian(R) 94 system (copyright 1995, Gaussian, Inc.),
 the Gaussian 92(TM) system (copyright 1992, Gaussian, Inc.),
 the Gaussian 90(TM) system (copyright 1990, Gaussian, Inc.),
 the Gaussian 88(TM) system (copyright 1988, Gaussian, Inc.),
 the Gaussian 86(TM) system (copyright 1986, Carnegie Mellon
 University), and the Gaussian 82(TM) system (copyright 1983,
 Carnegie Mellon University). Gaussian is a federally registered
 trademark of Gaussian, Inc.
  
 This software contains proprietary and confidential information,
 including trade secrets, belonging to Gaussian, Inc.
  
 This software is provided under written license and may be
 used, copied, transmitted, or stored only in accord with that
 written license.
  
 The following legend is applicable only to US Government
 contracts under FAR:
  
                    RESTRICTED RIGHTS LEGEND
  
 Use, reproduction and disclosure by the US Government is
 subject to restrictions as set forth in subparagraphs (a)
 and (c) of the Commercial Computer Software - Restricted
 Rights clause in FAR 52.227-19.
  
 Gaussian, Inc.
 340 Quinnipiac St., Bldg. 40, Wallingford CT 06492
  
  
 ---------------------------------------------------------------
 Warning -- This program may not be used in any manner that
 competes with the business of Gaussian, Inc. or will provide
 assistance to any competitor of Gaussian, Inc.  The licensee
 of this program is prohibited from giving any competitor of
 Gaussian, Inc. access to this program.  By using this program,
 the user acknowledges that Gaussian, Inc. is engaged in the
 business of creating and licensing software in the field of
 computational chemistry and represents and warrants to the
 licensee that it is not a competitor of Gaussian, Inc. and that
 it will not use this program in any manner prohibited above.
 ---------------------------------------------------------------
  

 Cite this work as:
 Gaussian 09, Revision D.01,
 M. J. Frisch, G. W. Trucks, H. B. Schlegel, G. E. Scuseria, 
 M. A. Robb, J. R. Cheeseman, G. Scalmani, V. Barone, B. Mennucci, 
 G. A. Petersson, H. Nakatsuji, M. Caricato, X. Li, H. P. Hratchian, 
 A. F. Izmaylov, J. Bloino, G. Zheng, J. L. Sonnenberg, M. Hada, 
 M. Ehara, K. Toyota, R. Fukuda, J. Hasegawa, M. Ishida, T. Nakajima, 
 Y. Honda, O. Kitao, H. Nakai, T. Vreven, J. A. Montgomery, Jr., 
 J. E. Peralta, F. Ogliaro, M. Bearpark, J. J. Heyd, E. Brothers, 
 K. N. Kudin, V. N. Staroverov, T. Keith, R. Kobayashi, J. Normand, 
 K. Raghavachari, A. Rendell, J. C. Burant, S. S. Iyengar, J. Tomasi, 
 M. Cossi, N. Rega, J. M. Millam, M. Klene, J. E. Knox, J. B. Cross, 
 V. Bakken, C. Adamo, J. Jaramillo, R. Gomperts, R. E. Stratmann, 
 O. Yazyev, A. J. Austin, R. Cammi, C. Pomelli, J. W. Ochterski, 
 R. L. Martin, K. Morokuma, V. G. Zakrzewski, G. A. Voth, 
 P. Salvador, J. J. Dannenberg, S. Dapprich, A. D. Daniels, 
 O. Farkas, J. B. Foresman, J. V. Ortiz, J. Cioslowski, 
 and D. J. Fox, Gaussian, Inc., Wallingford CT, 2013.
 
 ******************************************
 Gaussian 09:  ES64L-G09RevD.01 24-Apr-2013
                 3-Mar-2024 
 ******************************************
 %nprocshared=24
 Will use up to   24 processors via shared memory.
 %mem=40GB
 %rwf=A1671897791/A1671897791_p1.rwf
 %nosave
 %chk=A1671897791/A1671897791_p1.chk
 ----------------------------------------------------------------------
 #p CAM-B3LYP/6-31G(d,p) SCRF=(PCM,Solvent=Generic,Read) NoSymm out=wfn
 ----------------------------------------------------------------------
 1/38=1,40=2/1;
 2/12=2,15=1,17=6,18=5,40=1/2;
 3/5=1,6=6,7=101,11=2,16=1,25=1,30=1,70=2203,72=-2,74=-40/1,2,3;
 4//1;
 5/5=2,38=5/2;
 6/7=2,8=2,9=2,10=2,28=1/1;
 99/5=1,6=100,9=1/99;
 Leave Link    1 at Sun Mar  3 17:30:29 2024, MaxMem=  5368709120 cpu:         1.0
 (Enter /home/k0335/k033513/app/g09/l101.exe)
 --------------------
 Title A1671897791_p1
 --------------------
 Symbolic Z-matrix:
 Charge =  1 Multiplicity = 2
 O                    -1.82419   1.84295  -2.28346 
 C                    -0.8201    1.3053   -1.8226 
 N                     0.25189   0.92076  -2.59403 
 O                     0.08794   1.07543  -3.99174 
 C                     1.15054  -0.04615  -2.2101 
 O                     1.71947  -0.72657  -3.06377 
 N                     1.2782   -0.21776  -0.85034 
 C                     2.29263  -1.17968  -0.42372 
 F                     3.37512  -1.01811  -1.2394 
 F                     1.83396  -2.43504  -0.67953 
 C                     2.8106   -1.09604   1.04469 
 F                     1.9359   -1.77169   1.8631 
 O                     2.82113   0.23082   1.59582 
 C                     3.8847    1.03561   1.16061 
 F                     5.03303   0.62585   1.71112 
 F                     3.63885   2.30281   1.53499 
 F                     3.96006   0.99691  -0.17701 
 C                     4.12635  -1.8846    1.10366 
 F                     4.60716  -1.91886   2.37106 
 F                     5.09801  -1.34277   0.33727 
 F                     3.97124  -3.16618   0.70441 
 C                     0.1856    0.01676  -0.0519 
 O                    -0.00105  -0.6119    0.98121 
 N                    -0.72486   0.95195  -0.49217 
 C                    -1.8177    1.31583   0.39955 
 F                    -1.23655   1.60393   1.61389 
 F                    -2.33095   2.52798   0.03043 
 C                    -2.99219   0.32859   0.6625 
 F                    -2.50149  -0.84571   1.15453 
 O                    -3.78961   0.89622   1.71762 
 C                    -4.97155   0.18608   1.97233 
 F                    -5.42706   0.53399   3.18992 
 F                    -5.89288   0.52808   1.05644 
 F                    -4.76546  -1.13927   1.94754 
 C                    -3.71033   0.05133  -0.65762 
 F                    -4.70127  -0.85961  -0.50903 
 F                    -2.86192  -0.48029  -1.57088 
 F                    -4.26929   1.15751  -1.18277 
 H                     0.57609   0.30555  -4.3526 
 
 NAtoms=     39 NQM=       39 NQMF=       0 NMMI=      0 NMMIF=      0
                NMic=       0 NMicF=      0.
                    Isotopes and Nuclear Properties:
 (Nuclear quadrupole moments (NQMom) in fm**2, nuclear magnetic moments (NMagM)
  in nuclear magnetons)

  Atom         1           2           3           4           5           6           7           8           9          10
 IAtWgt=          16          12          14          16          12          16          14          12          19          19
 AtmWgt=  15.9949146  12.0000000  14.0030740  15.9949146  12.0000000  15.9949146  14.0030740  12.0000000  18.9984033  18.9984033
 NucSpn=           0           0           2           0           0           0           2           0           1           1
 AtZEff=   0.0000000   0.0000000   0.0000000   0.0000000   0.0000000   0.0000000   0.0000000   0.0000000   0.0000000   0.0000000
 NQMom=    0.0000000   0.0000000   2.0440000   0.0000000   0.0000000   0.0000000   2.0440000   0.0000000   0.0000000   0.0000000
 NMagM=    0.0000000   0.0000000   0.4037610   0.0000000   0.0000000   0.0000000   0.4037610   0.0000000   2.6288670   2.6288670
 AtZNuc=   8.0000000   6.0000000   7.0000000   8.0000000   6.0000000   8.0000000   7.0000000   6.0000000   9.0000000   9.0000000

  Atom        11          12          13          14          15          16          17          18          19          20
 IAtWgt=          12          19          16          12          19          19          19          12          19          19
 AtmWgt=  12.0000000  18.9984033  15.9949146  12.0000000  18.9984033  18.9984033  18.9984033  12.0000000  18.9984033  18.9984033
 NucSpn=           0           1           0           0           1           1           1           0           1           1
 AtZEff=   0.0000000   0.0000000   0.0000000   0.0000000   0.0000000   0.0000000   0.0000000   0.0000000   0.0000000   0.0000000
 NQMom=    0.0000000   0.0000000   0.0000000   0.0000000   0.0000000   0.0000000   0.0000000   0.0000000   0.0000000   0.0000000
 NMagM=    0.0000000   2.6288670   0.0000000   0.0000000   2.6288670   2.6288670   2.6288670   0.0000000   2.6288670   2.6288670
 AtZNuc=   6.0000000   9.0000000   8.0000000   6.0000000   9.0000000   9.0000000   9.0000000   6.0000000   9.0000000   9.0000000

  Atom        21          22          23          24          25          26          27          28          29          30
 IAtWgt=          19          12          16          14          12          19          19          12          19          16
 AtmWgt=  18.9984033  12.0000000  15.9949146  14.0030740  12.0000000  18.9984033  18.9984033  12.0000000  18.9984033  15.9949146
 NucSpn=           1           0           0           2           0           1           1           0           1           0
 AtZEff=   0.0000000   0.0000000   0.0000000   0.0000000   0.0000000   0.0000000   0.0000000   0.0000000   0.0000000   0.0000000
 NQMom=    0.0000000   0.0000000   0.0000000   2.0440000   0.0000000   0.0000000   0.0000000   0.0000000   0.0000000   0.0000000
 NMagM=    2.6288670   0.0000000   0.0000000   0.4037610   0.0000000   2.6288670   2.6288670   0.0000000   2.6288670   0.0000000
 AtZNuc=   9.0000000   6.0000000   8.0000000   7.0000000   6.0000000   9.0000000   9.0000000   6.0000000   9.0000000   8.0000000

  Atom        31          32          33          34          35          36          37          38          39
 IAtWgt=          12          19          19          19          12          19          19          19           1
 AtmWgt=  12.0000000  18.9984033  18.9984033  18.9984033  12.0000000  18.9984033  18.9984033  18.9984033   1.0078250
 NucSpn=           0           1           1           1           0           1           1           1           1
 AtZEff=   0.0000000   0.0000000   0.0000000   0.0000000   0.0000000   0.0000000   0.0000000   0.0000000   0.0000000
 NQMom=    0.0000000   0.0000000   0.0000000   0.0000000   0.0000000   0.0000000   0.0000000   0.0000000   0.0000000
 NMagM=    0.0000000   2.6288670   2.6288670   2.6288670   0.0000000   2.6288670   2.6288670   2.6288670   2.7928460
 AtZNuc=   6.0000000   9.0000000   9.0000000   9.0000000   6.0000000   9.0000000   9.0000000   9.0000000   1.0000000
 Leave Link  101 at Sun Mar  3 17:30:29 2024, MaxMem=  5368709120 cpu:         0.9
 (Enter /home/k0335/k033513/app/g09/l202.exe)
                          Input orientation:                          
 ---------------------------------------------------------------------
 Center     Atomic      Atomic             Coordinates (Angstroms)
 Number     Number       Type             X           Y           Z
 ---------------------------------------------------------------------
      1          8           0       -1.824186    1.842952   -2.283461
      2          6           0       -0.820097    1.305298   -1.822603
      3          7           0        0.251888    0.920761   -2.594032
      4          8           0        0.087940    1.075427   -3.991743
      5          6           0        1.150536   -0.046146   -2.210096
      6          8           0        1.719466   -0.726569   -3.063774
      7          7           0        1.278201   -0.217758   -0.850339
      8          6           0        2.292627   -1.179675   -0.423720
      9          9           0        3.375120   -1.018112   -1.239397
     10          9           0        1.833955   -2.435044   -0.679527
     11          6           0        2.810599   -1.096040    1.044694
     12          9           0        1.935899   -1.771690    1.863095
     13          8           0        2.821134    0.230817    1.595816
     14          6           0        3.884695    1.035605    1.160611
     15          9           0        5.033031    0.625849    1.711118
     16          9           0        3.638850    2.302806    1.534989
     17          9           0        3.960059    0.996910   -0.177014
     18          6           0        4.126351   -1.884602    1.103659
     19          9           0        4.607159   -1.918856    2.371059
     20          9           0        5.098011   -1.342774    0.337272
     21          9           0        3.971241   -3.166177    0.704407
     22          6           0        0.185599    0.016761   -0.051895
     23          8           0       -0.001053   -0.611898    0.981205
     24          7           0       -0.724860    0.951947   -0.492170
     25          6           0       -1.817698    1.315831    0.399550
     26          9           0       -1.236550    1.603926    1.613893
     27          9           0       -2.330945    2.527983    0.030432
     28          6           0       -2.992193    0.328588    0.662497
     29          9           0       -2.501494   -0.845710    1.154525
     30          8           0       -3.789606    0.896221    1.717620
     31          6           0       -4.971548    0.186076    1.972329
     32          9           0       -5.427065    0.533994    3.189924
     33          9           0       -5.892880    0.528075    1.056435
     34          9           0       -4.765460   -1.139267    1.947536
     35          6           0       -3.710332    0.051325   -0.657620
     36          9           0       -4.701272   -0.859610   -0.509028
     37          9           0       -2.861920   -0.480285   -1.570879
     38          9           0       -4.269292    1.157514   -1.182765
     39          1           0        0.576088    0.305548   -4.352603
 ---------------------------------------------------------------------
                    Distance matrix (angstroms):
                    1          2          3          4          5
     1  O    0.000000
     2  C    1.228681   0.000000
     3  N    2.292809   1.375545   0.000000
     4  O    2.676480   2.362740   1.415767   0.000000
     5  C    3.524634   2.420733   1.374731   2.358241   0.000000
     6  O    4.446211   3.481145   2.255690   2.601959   1.231025
     7  N    3.990635   2.769089   2.321639   3.599648   1.376477
     8  C    5.435353   4.221494   3.645093   4.762029   2.404246
     9  F    6.025657   4.830964   3.917760   4.771149   2.614526
    10  F    5.852850   4.726603   4.174888   5.132519   2.918311
    11  C    6.418374   5.212463   4.884139   6.123221   3.801545
    12  F    6.663168   5.536040   5.472766   6.767581   4.492792
    13  O    6.263128   5.108685   4.963051   6.277303   4.165642
    14  C    6.716008   5.577398   5.225688   6.400288   4.472972
    15  F    8.028663   6.870804   6.440545   7.561658   5.558891
    16  F    6.681077   5.670155   5.516373   6.682828   5.072962
    17  F    6.213726   5.064875   4.426997   5.436141   3.621437
    18  C    7.795905   6.573113   6.046027   7.143784   4.818337
    19  F    8.785098   7.578725   7.189154   8.359086   6.036743
    20  F    8.058158   6.833838   6.099266   7.049034   4.873693
    21  F    8.222269   7.024015   6.435553   7.424625   5.117157
    22  C    3.514839   2.409805   2.698902   4.080774   2.364930
    23  O    4.473047   3.493968   3.898120   5.252161   3.439569
    24  N    2.282790   1.379847   2.317937   3.594844   2.732136
    25  C    2.734309   2.435833   3.660710   4.792985   4.180388
    26  F    3.948648   3.474495   4.515395   5.784180   4.800397
    27  F    2.465801   2.685397   4.017711   4.913127   4.875122
    28  C    3.512294   3.442047   4.634621   5.630891   5.055138
    29  F    4.416718   4.039458   4.975260   6.072891   5.029642
    30  O    4.557173   4.638804   5.909705   6.903934   6.381223
    31  C    5.546429   5.734868   6.976797   7.871437   7.417986
    32  F    6.682219   6.851605   8.115063   9.071095   8.530042
    33  F    5.425687   5.884391   7.158092   7.845630   7.785221
    34  F    5.953659   5.979610   7.074131   7.983445   7.312990
    35  C    3.067708   3.359031   4.494975   5.156746   5.103697
    36  F    4.327826   4.634202   5.661339   6.229785   6.148090
    37  F    2.642365   2.724099   3.564488   4.120982   4.086181
    38  F    2.767652   3.511151   4.742235   5.184840   5.646126
    39  H    3.522254   3.057733   1.891075   0.980419   2.245889
                    6          7          8          9         10
     6  O    0.000000
     7  N    2.313633   0.000000
     8  C    2.739289   1.461625   0.000000
     9  F    2.480834   2.277938   1.364999   0.000000
    10  F    2.935409   2.292247   1.360797   2.167104   0.000000
    11  C    4.266918   2.590516   1.559336   2.354109   2.391590
    12  F    5.041147   3.195308   2.388987   3.502098   2.629707
    13  O    4.882831   2.926694   2.519391   3.147246   3.641225
    14  C    5.063487   3.522591   3.154719   3.199603   4.431371
    15  F    5.967272   4.622930   3.915005   3.762554   5.031733
    16  F    5.831790   4.197106   4.216222   4.335351   5.532536
    17  F    4.040300   3.020124   2.752947   2.351834   4.068310
    18  C    4.949912   3.835158   2.488444   2.608652   2.955980
    19  F    6.268790   4.934886   3.703274   3.919777   4.154899
    20  F    4.833362   4.155362   2.911338   2.357890   3.589010
    21  F    5.022088   4.285192   2.834891   2.957688   2.649117
    22  C    3.460737   1.373423   2.451383   3.557270   3.020322
    23  O    4.397180   2.268566   2.749028   4.061358   3.073946
    24  N    3.924958   2.347072   3.695095   4.609698   4.249040
    25  C    5.355141   3.674059   4.878534   5.924424   5.344908
    26  F    6.004149   3.964208   4.935118   6.023607   5.567859
    27  F    6.047483   4.619609   5.943938   6.837136   6.517827
    28  C    6.099031   4.563270   5.602147   6.780374   5.721048
    29  F    5.968647   4.324338   5.058259   6.347848   4.968485
    30  O    7.472955   5.789476   6.774086   7.983854   6.961902
    31  C    8.424068   6.869490   7.770107   9.023975   7.759992
    32  F    9.579701   7.864442   8.694178   9.975288   8.747014
    33  F    8.746317   7.457644   8.491749   9.672506   8.455626
    34  F    8.205962   6.723327   7.445877   8.743012   7.220303
    35  C    5.989775   4.999501   6.132339   7.189283   6.076317
    36  F    6.911606   6.023501   7.001739   8.110898   6.724601
    37  F    4.824779   4.210546   5.326770   6.268956   5.163994
    38  F    6.553868   5.725082   7.006952   7.948182   7.099954
    39  H    2.008397   3.610078   4.537457   4.390753   4.752322
                   11         12         13         14         15
    11  C    0.000000
    12  F    1.375276   0.000000
    13  O    1.436801   2.205700   0.000000
    14  C    2.389776   3.488867   1.402943   0.000000
    15  F    2.889330   3.919632   2.249852   1.337772   0.000000
    16  F    3.532498   4.428229   2.228340   1.344023   2.187909
    17  F    2.682213   3.990541   2.242092   1.340305   2.203179
    18  C    1.535093   2.321114   2.533931   2.930742   2.737415
    19  F    2.379895   2.723108   2.900342   3.273527   2.663158
    20  F    2.406985   3.537097   3.040442   2.794049   2.401489
    21  F    2.397572   2.725760   3.695528   4.227361   4.064520
    22  C    3.054744   3.151078   3.115576   4.023869   5.193920
    23  O    2.853736   2.423764   3.008763   4.224392   5.235150
    24  N    4.365280   4.477177   4.177773   4.897620   6.173664
    25  C    5.258751   5.075849   4.911931   5.759777   7.009192
    26  F    4.898287   4.639107   4.283755   5.172582   6.346159
    27  F    6.371636   6.328649   5.854171   6.491431   7.789157
    28  C    5.987323   5.489872   5.888583   6.931059   8.098901
    29  F    5.319122   4.588024   5.448304   6.657537   7.697035
    30  O    6.927095   6.318253   6.645260   7.695751   8.826781
    31  C    7.941419   7.180362   7.801901   8.933847  10.017646
    32  F    8.667072   7.828786   8.406300   9.543511  10.564512
    33  F    8.853724   8.199354   8.735750   9.791293  10.945944
    34  F    7.629788   6.731664   7.717334   8.954021   9.959014
    35  C    6.836436   6.446496   6.911602   7.871417   9.076750
    36  F    7.674513   7.107102   7.887077   8.949769  10.094171
    37  F    6.276771   6.039782   6.544519   7.434768   8.621212
    38  F    7.756606   7.507456   7.671598   8.484915   9.756559
    39  H    6.007354   6.693198   6.358420   6.471120   7.532307
                   16         17         18         19         20
    16  F    0.000000
    17  F    2.177038   0.000000
    18  C    4.237698   3.157671   0.000000
    19  F    4.411243   3.925953   1.355969   0.000000
    20  F    4.105354   2.652083   1.350944   2.170045   0.000000
    21  F    5.541672   4.255387   1.351257   2.176679   2.174672
    22  C    4.434991   3.901653   4.525485   5.400696   5.111906
    23  O    4.695857   4.429463   4.320907   4.987530   5.191270
    24  N    4.997615   4.695723   5.841826   6.698509   6.313442
    25  C    5.660146   5.815205   6.787508   7.458474   7.409392
    26  F    4.925869   5.529969   6.418012   6.865292   7.102075
    27  F    6.160588   6.477959   7.894263   8.566808   8.382499
    28  C    6.973486   7.034575   7.467697   8.106808   8.267444
    29  F    6.910986   6.849811   6.708965   7.291402   7.659468
    30  O    7.562658   7.978539   8.412627   8.880163   9.268667
    31  C    8.877543   9.222295   9.370916   9.815363  10.315368
    32  F    9.383939   9.983419  10.073225  10.362078  11.065130
    33  F    9.707346   9.940906  10.305738  10.861240  11.172151
    34  F    9.091231   9.231015   8.962810   9.414516   9.996121
    35  C    7.992945   7.743385   8.262174   9.068361   8.973306
    36  F    9.150766   8.864285   9.032070   9.801214   9.847620
    37  F    7.723472   7.117890   7.613225   8.567118   8.230761
    38  F    8.440177   8.292138   9.217864  10.044157   9.813680
    39  H    6.930605   5.418928   6.868182   8.148935   6.720095
                   21         22         23         24         25
    21  F    0.000000
    22  C    5.003416   0.000000
    23  O    4.730759   1.223661   0.000000
    24  N    6.359568   1.377443   2.267232   0.000000
    25  C    7.327561   2.429935   2.711948   1.456664   0.000000
    26  F    7.120543   2.704894   2.614694   2.263273   1.376721
    27  F    8.520285   3.556123   4.023831   2.310089   1.367108
    28  C    7.791313   3.271995   3.151667   2.619662   1.556672
    29  F    6.890825   3.069165   2.517323   3.016555   2.389524
    30  O    8.818187   4.439244   4.143653   3.778749   2.408693
    31  C    9.634246   5.542771   5.130781   4.969373   3.700912
    32  F   10.401789   6.502224   5.969348   5.986922   4.628713
    33  F   10.539085   6.199818   6.001568   5.411680   4.202281
    34  F    9.054484   5.463251   4.889937   5.162537   4.136794
    35  C    8.438839   3.942889   4.109059   3.122745   2.509711
    36  F    9.055670   4.985830   4.937025   4.369654   3.724655
    37  F    7.686549   3.441183   3.836015   2.789611   2.863394
    38  F    9.495373   4.735635   5.102102   3.616929   2.922174
    39  H    7.010941   4.328044   5.442822   4.124711   5.416072
                   26         27         28         29         30
    26  F    0.000000
    27  F    2.135165   0.000000
    28  C    2.369372   2.382036   0.000000
    29  F    2.794963   3.560123   1.364497   0.000000
    30  O    2.651358   2.763502   1.439222   2.238444   0.000000
    31  C    4.011108   4.028434   2.377775   2.799027   1.402202
    32  F    4.603156   4.852251   3.515492   3.821701   2.231627
    33  F    4.811406   4.211852   2.934104   3.660383   2.235276
    34  F    4.482146   4.801133   2.636361   2.416730   2.269001
    35  C    3.699992   2.917183   1.528171   2.355808   2.522280
    36  F    4.751852   4.169563   2.388564   2.758011   2.978597
    37  F    4.138664   3.449030   2.378910   2.773314   3.683693
    38  F    4.149470   2.665937   2.392298   3.549780   2.951374
    39  H    6.369499   5.709733   6.155030   6.412906   7.500386
                   31         32         33         34         35
    31  C    0.000000
    32  F    1.345764   0.000000
    33  F    1.343383   2.183757   0.000000
    34  F    1.341500   2.186562   2.201174   0.000000
    35  C    2.919838   4.240724   2.815811   3.052481   0.000000
    36  F    2.706223   4.018850   2.407545   2.473264   1.354195
    37  F    4.177187   5.502179   4.135975   4.054253   1.355158
    38  F    3.375126   4.566139   2.836591   3.914099   1.346056
    39  H    8.413995   9.642601   8.435328   8.385188   5.664885
                   36         37         38         39
    36  F    0.000000
    37  F    2.157459   0.000000
    38  F    2.170096   2.194018   0.000000
    39  H    6.631832   4.491706   5.852472   0.000000
 Symmetry turned off by external request.
 Stoichiometry    C11HF18N3O6(1+,2)
 Framework group  C1[X(C11HF18N3O6)]
 Deg. of freedom   111
 Full point group                 C1      NOp   1
 Rotational constants (GHZ):      0.1891462      0.0619911      0.0567204
 Leave Link  202 at Sun Mar  3 17:30:29 2024, MaxMem=  5368709120 cpu:         0.1
 (Enter /home/k0335/k033513/app/g09/l301.exe)
 Standard basis: 6-31G(d,p) (6D, 7F)
 Ernie: Thresh=  0.10000D-02 Tol=  0.10000D-05 Strict=F.
   575 basis functions,  1071 primitive gaussians,   575 cartesian basis functions
   149 alpha electrons      148 beta electrons
       nuclear repulsion energy      5667.0616862556 Hartrees.
 IExCor=20419 DFT=T Ex+Corr=CAM-B3LYP ExCW=0 ScaHFX=  1.000000
 ScaDFX=  1.000000  1.000000  1.000000  0.810000 ScalE2=  1.000000  1.000000
 IRadAn=      0 IRanWt=     -1 IRanGd=            0 ICorTp=0 IEmpDi=  4
  HFx wShort=  0.000000 wLong=  0.330000 cFull=  0.190000 cShort=  0.000000 cLong=  0.460000
  DFx wShort=  0.000000 wLong=  0.330000 cFull=  0.190000 cShort=  0.000000 cLong=  0.460000
 NAtoms=   39 NActive=   39 NUniq=   39 SFac= 1.00D+00 NAtFMM=   60 NAOKFM=F Big=F
 Integral buffers will be    131072 words long.
 Raffenetti 2 integral format.
 Two-electron integral symmetry is turned off.
 Using the following non-standard input for PCM:
 eps=4.9
 --- end of non-standard input.
 ------------------------------------------------------------------------------
 Polarizable Continuum Model (PCM)
 =================================
 Model                : PCM (using non-symmetric T matrix).
 Atomic radii         : UFF (Universal Force Field).
 Polarization charges : Total charges.
 Charge compensation  : None.
 Solution method      : On-the-fly selection.
 Cavity type          : Scaled VdW (van der Waals Surface) (Alpha=1.100).
 Cavity algorithm     : GePol (No added spheres)
                        Default sphere list used, NSphG=   39.
                        Lebedev-Laikov grids with approx.  5.0 points / Ang**2.
                        Smoothing algorithm: Karplus/York (Gamma=1.0000).
                        Polarization charges: spherical gaussians, with
                                              point-specific exponents (IZeta= 3).
                        Self-potential: point-specific (ISelfS= 7).
                        Self-field    : sphere-specific E.n sum rule (ISelfD= 2).
 Solvent              : Generic,
                        Eps                           =   4.900000
                        Eps(infinity)                 =   0.000000
                        RSolv                         =   0.000000 Ang.
                        Molar volume                  =   0.000000 cm**3/mol
                        Thermal expansion coefficient =   0.000000 K**-1
                        Absolute temperature          = 298.150000 K
                        Numeral density               =   0.000000 Ang**-3
                        Hydrogen bond acidity         =   0.000000
                        Hydrogen bond basicity        =   0.000000
                        Surface tension at interface  =   0.000000 (cal/mol)*Ang**-2
                        Carbon aromaticity            =   0.000000
                        Electronegative halogenicity  =   0.000000
 ------------------------------------------------------------------------------
 GePol: Number of generator spheres                  =      39
 GePol: Total number of spheres                      =      39
 GePol: Number of exposed spheres                    =      38 ( 97.44%)
 GePol: Number of points                             =    3321
 GePol: Average weight of points                     =       0.13
 GePol: Minimum weight of points                     =   0.33D-11
 GePol: Maximum weight of points                     =    0.20577
 GePol: Number of points with low weight             =     126
 GePol: Fraction of low-weight points (<1% of avg)   =       3.79%
 GePol: Cavity surface area                          =    415.267 Ang**2
 GePol: Cavity volume                                =    485.793 Ang**3
 Leave Link  301 at Sun Mar  3 17:30:29 2024, MaxMem=  5368709120 cpu:         0.8
 (Enter /home/k0335/k033513/app/g09/l302.exe)
 NPDir=0 NMtPBC=     1 NCelOv=     1 NCel=       1 NClECP=     1 NCelD=      1
         NCelK=      1 NCelE2=     1 NClLst=     1 CellRange=     0.0.
 One-electron integrals computed using PRISM.
 NBasis=   575 RedAO= T EigKep=  1.06D-03  NBF=   575
 NBsUse=   575 1.00D-06 EigRej= -1.00D+00 NBFU=   575
 Precomputing XC quadrature grid using
 IXCGrd= 4 IRadAn=           0 IRanWt=          -1 IRanGd=           0 AccXCQ= 0.00D+00.
 Generated NRdTot=       0 NPtTot=           0 NUsed=           0 NTot=          32
 NSgBfM=   561   561   561   561   561 MxSgAt=    39 MxSgA2=    39.
 Leave Link  302 at Sun Mar  3 17:30:30 2024, MaxMem=  5368709120 cpu:        10.6
 (Enter /home/k0335/k033513/app/g09/l303.exe)
 DipDrv:  MaxL=1.
 Leave Link  303 at Sun Mar  3 17:30:30 2024, MaxMem=  5368709120 cpu:         0.8
 (Enter /home/k0335/k033513/app/g09/l401.exe)
 ExpMin= 1.61D-01 ExpMax= 7.00D+03 ExpMxC= 1.05D+03 IAcc=1 IRadAn=         1 AccDes= 0.00D+00
 Harris functional with IExCor=20419 and IRadAn=       1 diagonalized for initial guess.
 HarFok:  IExCor=20419 AccDes= 0.00D+00 IRadAn=         1 IDoV= 1 UseB2=F ITyADJ=14
 ICtDFT=  3500011 ScaDFX=  1.000000  1.000000  1.000000  1.000000
 FoFCou: FMM=F IPFlag=           0 FMFlag=      100000 FMFlg1=           0
         NFxFlg=           0 DoJE=T BraDBF=F KetDBF=T FulRan=T
         wScrn=  0.000000 ICntrl=     500 IOpCl=  0 I1Cent=   200000004 NGrid=           0
         NMat0=    1 NMatS0=      1 NMatT0=    0 NMatD0=    1 NMtDS0=    0 NMtDT0=    0
 Symmetry not used in FoFCou.
 Harris En= -2747.92298118021    
 JPrj=0 DoOrth=F DoCkMO=F.
 Initial guess <Sx>= 0.0000 <Sy>= 0.0000 <Sz>= 0.5000 <S**2>= 0.7500 S= 0.5000
 Leave Link  401 at Sun Mar  3 17:30:30 2024, MaxMem=  5368709120 cpu:        14.0
 (Enter /home/k0335/k033513/app/g09/l502.exe)
 UHF open shell SCF:
 Using DIIS extrapolation, IDIIS=  1040.
 Two-electron integral symmetry not used.
 IVT=     1027753 IEndB=     1027753 NGot=  5368709120 MDV=  5368029208
 LenX=  5368029208 LenY=  5367698008
 Requested convergence on RMS density matrix=1.00D-08 within 128 cycles.
 Requested convergence on MAX density matrix=1.00D-06.
 Requested convergence on             energy=1.00D-06.
 No special actions if energy rises.
 Fock matrices will be formed incrementally for  20 cycles.

 Cycle   1  Pass 1  IDiag  1:
 FoFJK:  IHMeth= 1 ICntrl=       0 DoSepK=T KAlg= 0 I1Cent=   0 FoldK=F
 IRaf=         1 NMat=   1 IRICut=       1 DoRegI=T DoRafI=F ISym2E= 0.
 FoFCou: FMM=F IPFlag=           0 FMFlag=      100000 FMFlg1=           0
         NFxFlg=           0 DoJE=T BraDBF=F KetDBF=F FulRan=T
         wScrn=  0.000000 ICntrl=     500 IOpCl=  0 I1Cent=           0 NGrid=           0
         NMat0=    1 NMatS0=      1 NMatT0=    0 NMatD0=    1 NMtDS0=    0 NMtDT0=    0
 Symmetry not used in FoFCou.
 Inv3:  Mode=1 IEnd=    33087123.
 Iteration    1 A*A^-1 deviation from unit magnitude is 7.11D-15 for    412.
 Iteration    1 A*A^-1 deviation from orthogonality  is 3.04D-15 for   3290   2890.
 Iteration    1 A^-1*A deviation from unit magnitude is 6.66D-15 for    277.
 Iteration    1 A^-1*A deviation from orthogonality  is 2.30D-15 for   2818   2800.
 E= -2830.23627406388    
 DIIS: error= 4.06D-02 at cycle   1 NSaved=   1.
 NSaved= 1 IEnMin= 1 EnMin= -2830.23627406388     IErMin= 1 ErrMin= 4.06D-02
 ErrMax= 4.06D-02  0.00D+00 EMaxC= 1.00D-01 BMatC= 9.98D+00 BMatP= 9.98D+00
 IDIUse=3 WtCom= 5.94D-01 WtEn= 4.06D-01
 Coeff-Com:  0.100D+01
 Coeff-En:   0.100D+01
 Coeff:      0.100D+01
 Gap=     0.453 Goal=   None    Shift=    0.000
 Gap=     0.076 Goal=   None    Shift=    0.000
 GapD=    0.076 DampG=0.500 DampE=0.500 DampFc=0.2500 IDamp=-1.
 Damping current iteration by 2.50D-01
 RMSDP=3.72D-03 MaxDP=2.91D-01              OVMax= 7.80D-01

 Cycle   2  Pass 1  IDiag  1:
 RMSU=  9.29D-04    CP:  1.00D+00
 E= -2830.57131309926     Delta-E=       -0.335039035386 Rises=F Damp=T
 DIIS: error= 2.96D-02 at cycle   2 NSaved=   2.
 NSaved= 2 IEnMin= 2 EnMin= -2830.57131309926     IErMin= 2 ErrMin= 2.96D-02
 ErrMax= 2.96D-02  0.00D+00 EMaxC= 1.00D-01 BMatC= 4.11D+00 BMatP= 9.98D+00
 IDIUse=3 WtCom= 7.04D-01 WtEn= 2.96D-01
 Coeff-Com: -0.128D+01 0.228D+01
 Coeff-En:   0.000D+00 0.100D+01
 Coeff:     -0.900D+00 0.190D+01
 Gap=     0.650 Goal=   None    Shift=    0.000
 Gap=    -0.086 Goal=   None    Shift=    0.000
 RMSDP=1.82D-03 MaxDP=1.44D-01 DE=-3.35D-01 OVMax= 7.69D-01

 Cycle   3  Pass 1  IDiag  1:
 RMSU=  1.55D-03    CP:  1.00D+00  2.02D+00
 E= -2831.00323585944     Delta-E=       -0.431922760175 Rises=F Damp=F
 DIIS: error= 1.79D-02 at cycle   3 NSaved=   3.
 NSaved= 3 IEnMin= 3 EnMin= -2831.00323585944     IErMin= 3 ErrMin= 1.79D-02
 ErrMax= 1.79D-02  0.00D+00 EMaxC= 1.00D-01 BMatC= 1.60D+00 BMatP= 4.11D+00
 IDIUse=3 WtCom= 8.21D-01 WtEn= 1.79D-01
 Coeff-Com: -0.804D+00 0.131D+01 0.499D+00
 Coeff-En:   0.000D+00 0.000D+00 0.100D+01
 Coeff:     -0.660D+00 0.107D+01 0.589D+00
 Gap=     0.440 Goal=   None    Shift=    0.000
 Gap=     0.055 Goal=   None    Shift=    0.000
 RMSDP=1.26D-03 MaxDP=1.48D-01 DE=-4.32D-01 OVMax= 4.42D-01

 Cycle   4  Pass 1  IDiag  1:
 RMSU=  8.50D-04    CP:  1.00D+00  2.41D+00  4.54D-01
 E= -2831.26359689121     Delta-E=       -0.260361031767 Rises=F Damp=F
 DIIS: error= 7.52D-03 at cycle   4 NSaved=   4.
 NSaved= 4 IEnMin= 4 EnMin= -2831.26359689121     IErMin= 4 ErrMin= 7.52D-03
 ErrMax= 7.52D-03  0.00D+00 EMaxC= 1.00D-01 BMatC= 2.50D-01 BMatP= 1.60D+00
 IDIUse=3 WtCom= 9.25D-01 WtEn= 7.52D-02
 Coeff-Com: -0.193D+00 0.296D+00 0.307D+00 0.589D+00
 Coeff-En:   0.000D+00 0.000D+00 0.125D+00 0.875D+00
 Coeff:     -0.178D+00 0.274D+00 0.294D+00 0.611D+00
 Gap=     0.369 Goal=   None    Shift=    0.000
 Gap=     0.093 Goal=   None    Shift=    0.000
 RMSDP=4.97D-04 MaxDP=6.60D-02 DE=-2.60D-01 OVMax= 2.02D-01

 Cycle   5  Pass 1  IDiag  1:
 RMSU=  2.58D-04    CP:  1.00D+00  2.25D+00  6.53D-01  7.08D-01
 E= -2831.30578150037     Delta-E=       -0.042184609167 Rises=F Damp=F
 DIIS: error= 3.03D-03 at cycle   5 NSaved=   5.
 NSaved= 5 IEnMin= 5 EnMin= -2831.30578150037     IErMin= 5 ErrMin= 3.03D-03
 ErrMax= 3.03D-03  0.00D+00 EMaxC= 1.00D-01 BMatC= 3.37D-02 BMatP= 2.50D-01
 IDIUse=3 WtCom= 9.70D-01 WtEn= 3.03D-02
 Coeff-Com: -0.400D-01 0.518D-01 0.773D-01 0.336D+00 0.575D+00
 Coeff-En:   0.000D+00 0.000D+00 0.000D+00 0.769D-01 0.923D+00
 Coeff:     -0.388D-01 0.503D-01 0.749D-01 0.328D+00 0.586D+00
 Gap=     0.351 Goal=   None    Shift=    0.000
 Gap=     0.118 Goal=   None    Shift=    0.000
 RMSDP=1.46D-04 MaxDP=1.41D-02 DE=-4.22D-02 OVMax= 2.42D-02

 Cycle   6  Pass 1  IDiag  1:
 RMSU=  1.25D-04    CP:  1.00D+00  2.29D+00  6.31D-01  7.67D-01  9.13D-01
 E= -2831.31278123162     Delta-E=       -0.006999731246 Rises=F Damp=F
 DIIS: error= 8.52D-04 at cycle   6 NSaved=   6.
 NSaved= 6 IEnMin= 6 EnMin= -2831.31278123162     IErMin= 6 ErrMin= 8.52D-04
 ErrMax= 8.52D-04  0.00D+00 EMaxC= 1.00D-01 BMatC= 1.96D-03 BMatP= 3.37D-02
 IDIUse=3 WtCom= 9.91D-01 WtEn= 8.52D-03
 Coeff-Com: -0.115D-01 0.145D-01-0.271D-01 0.116D-02 0.171D+00 0.852D+00
 Coeff-En:   0.000D+00 0.000D+00 0.000D+00 0.000D+00 0.000D+00 0.100D+01
 Coeff:     -0.114D-01 0.144D-01-0.268D-01 0.115D-02 0.169D+00 0.853D+00
 Gap=     0.346 Goal=   None    Shift=    0.000
 Gap=     0.133 Goal=   None    Shift=    0.000
 RMSDP=9.30D-05 MaxDP=7.78D-03 DE=-7.00D-03 OVMax= 4.29D-02

 Cycle   7  Pass 1  IDiag  1:
 RMSU=  4.78D-05    CP:  1.00D+00  2.29D+00  6.30D-01  7.41D-01  1.15D+00
                    CP:  1.36D+00
 E= -2831.31416670217     Delta-E=       -0.001385470547 Rises=F Damp=F
 DIIS: error= 3.80D-04 at cycle   7 NSaved=   7.
 NSaved= 7 IEnMin= 7 EnMin= -2831.31416670217     IErMin= 7 ErrMin= 3.80D-04
 ErrMax= 3.80D-04  0.00D+00 EMaxC= 1.00D-01 BMatC= 7.96D-04 BMatP= 1.96D-03
 IDIUse=3 WtCom= 9.96D-01 WtEn= 3.80D-03
 Coeff-Com: -0.409D-02 0.634D-02-0.326D-01-0.705D-01-0.229D-01 0.499D+00
 Coeff-Com:  0.625D+00
 Coeff-En:   0.000D+00 0.000D+00 0.000D+00 0.000D+00 0.000D+00 0.000D+00
 Coeff-En:   0.100D+01
 Coeff:     -0.407D-02 0.631D-02-0.325D-01-0.703D-01-0.228D-01 0.497D+00
 Coeff:      0.626D+00
 Gap=     0.342 Goal=   None    Shift=    0.000
 Gap=     0.137 Goal=   None    Shift=    0.000
 RMSDP=5.89D-05 MaxDP=4.80D-03 DE=-1.39D-03 OVMax= 2.73D-02

 Cycle   8  Pass 1  IDiag  1:
 RMSU=  2.30D-05    CP:  1.00D+00  2.29D+00  6.30D-01  7.21D-01  1.27D+00
                    CP:  1.68D+00  1.26D+00
 E= -2831.31478899484     Delta-E=       -0.000622292673 Rises=F Damp=F
 DIIS: error= 3.46D-04 at cycle   8 NSaved=   8.
 NSaved= 8 IEnMin= 8 EnMin= -2831.31478899484     IErMin= 8 ErrMin= 3.46D-04
 ErrMax= 3.46D-04  0.00D+00 EMaxC= 1.00D-01 BMatC= 1.35D-04 BMatP= 7.96D-04
 IDIUse=3 WtCom= 9.97D-01 WtEn= 3.46D-03
 Coeff-Com:  0.868D-03-0.455D-03-0.148D-02-0.198D-01-0.611D-01-0.107D+00
 Coeff-Com:  0.946D-01 0.109D+01
 Coeff-En:   0.000D+00 0.000D+00 0.000D+00 0.000D+00 0.000D+00 0.000D+00
 Coeff-En:   0.000D+00 0.100D+01
 Coeff:      0.865D-03-0.453D-03-0.148D-02-0.197D-01-0.608D-01-0.106D+00
 Coeff:      0.943D-01 0.109D+01
 Gap=     0.341 Goal=   None    Shift=    0.000
 Gap=     0.141 Goal=   None    Shift=    0.000
 RMSDP=6.72D-05 MaxDP=5.76D-03 DE=-6.22D-04 OVMax= 3.16D-02

 Cycle   9  Pass 1  IDiag  1:
 RMSU=  1.53D-05    CP:  1.00D+00  2.29D+00  6.31D-01  6.88D-01  1.38D+00
                    CP:  1.97D+00  1.96D+00  1.72D+00
 E= -2831.31521878639     Delta-E=       -0.000429791551 Rises=F Damp=F
 DIIS: error= 1.82D-04 at cycle   9 NSaved=   9.
 NSaved= 9 IEnMin= 9 EnMin= -2831.31521878639     IErMin= 9 ErrMin= 1.82D-04
 ErrMax= 1.82D-04  0.00D+00 EMaxC= 1.00D-01 BMatC= 9.77D-05 BMatP= 1.35D-04
 IDIUse=3 WtCom= 9.98D-01 WtEn= 1.82D-03
 Coeff-Com:  0.213D-02-0.277D-02 0.599D-02 0.316D-02-0.260D-01-0.147D+00
 Coeff-Com: -0.184D+00 0.565D+00 0.783D+00
 Coeff-En:   0.000D+00 0.000D+00 0.000D+00 0.000D+00 0.000D+00 0.000D+00
 Coeff-En:   0.000D+00 0.000D+00 0.100D+01
 Coeff:      0.213D-02-0.277D-02 0.598D-02 0.316D-02-0.259D-01-0.147D+00
 Coeff:     -0.184D+00 0.564D+00 0.784D+00
 Gap=     0.340 Goal=   None    Shift=    0.000
 Gap=     0.142 Goal=   None    Shift=    0.000
 RMSDP=3.91D-05 MaxDP=3.13D-03 DE=-4.30D-04 OVMax= 1.71D-02

 Cycle  10  Pass 1  IDiag  1:
 RMSU=  8.65D-06    CP:  1.00D+00  2.28D+00  6.32D-01  6.68D-01  1.43D+00
                    CP:  2.13D+00  2.34D+00  2.38D+00  1.47D+00
 E= -2831.31538556002     Delta-E=       -0.000166773629 Rises=F Damp=F
 DIIS: error= 1.94D-04 at cycle  10 NSaved=  10.
 NSaved=10 IEnMin=10 EnMin= -2831.31538556002     IErMin= 9 ErrMin= 1.82D-04
 ErrMax= 1.94D-04  0.00D+00 EMaxC= 1.00D-01 BMatC= 3.28D-05 BMatP= 9.77D-05
 IDIUse=3 WtCom= 9.98D-01 WtEn= 1.82D-03
 Coeff-Com: -0.139D-03-0.281D-04-0.268D-03 0.580D-02 0.320D-01 0.110D+00
 Coeff-Com: -0.116D+00-0.408D+00-0.265D-01 0.140D+01
 Coeff-En:   0.000D+00 0.000D+00 0.000D+00 0.000D+00 0.000D+00 0.000D+00
 Coeff-En:   0.000D+00 0.000D+00 0.000D+00 0.100D+01
 Coeff:     -0.139D-03-0.280D-04-0.268D-03 0.579D-02 0.319D-01 0.110D+00
 Coeff:     -0.116D+00-0.408D+00-0.265D-01 0.140D+01
 Gap=     0.339 Goal=   None    Shift=    0.000
 Gap=     0.141 Goal=   None    Shift=    0.000
 RMSDP=3.59D-05 MaxDP=3.87D-03 DE=-1.67D-04 OVMax= 1.73D-02

 Cycle  11  Pass 1  IDiag  1:
 RMSU=  7.14D-06    CP:  1.00D+00  2.28D+00  6.33D-01  6.52D-01  1.45D+00
                    CP:  2.23D+00  2.68D+00  3.00D+00  2.52D+00  2.26D+00
 E= -2831.31549245314     Delta-E=       -0.000106893121 Rises=F Damp=F
 DIIS: error= 1.06D-04 at cycle  11 NSaved=  11.
 NSaved=11 IEnMin=11 EnMin= -2831.31549245314     IErMin=11 ErrMin= 1.06D-04
 ErrMax= 1.06D-04  0.00D+00 EMaxC= 1.00D-01 BMatC= 2.05D-05 BMatP= 3.28D-05
 IDIUse=3 WtCom= 9.99D-01 WtEn= 1.06D-03
 Coeff-Com:  0.332D-03-0.568D-03-0.243D-02-0.149D-02 0.115D-01 0.828D-01
 Coeff-Com: -0.351D-01-0.198D+00-0.325D+00 0.598D+00 0.870D+00
 Coeff-En:   0.000D+00 0.000D+00 0.000D+00 0.000D+00 0.000D+00 0.000D+00
 Coeff-En:   0.000D+00 0.000D+00 0.000D+00 0.000D+00 0.100D+01
 Coeff:      0.332D-03-0.567D-03-0.243D-02-0.149D-02 0.115D-01 0.827D-01
 Coeff:     -0.351D-01-0.198D+00-0.325D+00 0.597D+00 0.870D+00
 Gap=     0.338 Goal=   None    Shift=    0.000
 Gap=     0.141 Goal=   None    Shift=    0.000
 RMSDP=1.92D-05 MaxDP=2.01D-03 DE=-1.07D-04 OVMax= 8.88D-03

 Cycle  12  Pass 1  IDiag  1:
 RMSU=  9.06D-06    CP:  1.00D+00  2.28D+00  6.34D-01  6.47D-01  1.47D+00
                    CP:  2.28D+00  2.81D+00  3.00D+00  3.00D+00  3.00D+00
                    CP:  1.70D+00
 E= -2831.31553216995     Delta-E=       -0.000039716810 Rises=F Damp=F
 DIIS: error= 7.90D-05 at cycle  12 NSaved=  12.
 NSaved=12 IEnMin=12 EnMin= -2831.31553216995     IErMin=12 ErrMin= 7.90D-05
 ErrMax= 7.90D-05  0.00D+00 EMaxC= 1.00D-01 BMatC= 9.48D-06 BMatP= 2.05D-05
 IDIUse=1 WtCom= 1.00D+00 WtEn= 0.00D+00
 Coeff-Com:  0.773D-04-0.824D-05-0.705D-03-0.268D-02-0.122D-01-0.734D-02
 Coeff-Com:  0.294D-01 0.191D+00-0.275D+00-0.511D+00 0.467D+00 0.112D+01
 Coeff:      0.773D-04-0.824D-05-0.705D-03-0.268D-02-0.122D-01-0.734D-02
 Coeff:      0.294D-01 0.191D+00-0.275D+00-0.511D+00 0.467D+00 0.112D+01
 Gap=     0.338 Goal=   None    Shift=    0.000
 Gap=     0.141 Goal=   None    Shift=    0.000
 RMSDP=2.11D-05 MaxDP=2.49D-03 DE=-3.97D-05 OVMax= 9.75D-03

 Cycle  13  Pass 1  IDiag  1:
 RMSU=  1.28D-05    CP:  1.00D+00  2.28D+00  6.34D-01  6.43D-01  1.47D+00
                    CP:  2.31D+00  2.94D+00  3.00D+00  3.00D+00  3.00D+00
                    CP:  2.90D+00  2.32D+00
 E= -2831.31556180731     Delta-E=       -0.000029637362 Rises=F Damp=F
 DIIS: error= 3.84D-05 at cycle  13 NSaved=  13.
 NSaved=13 IEnMin=13 EnMin= -2831.31556180731     IErMin=13 ErrMin= 3.84D-05
 ErrMax= 3.84D-05  0.00D+00 EMaxC= 1.00D-01 BMatC= 3.23D-06 BMatP= 9.48D-06
 IDIUse=1 WtCom= 1.00D+00 WtEn= 0.00D+00
 Coeff-Com:  0.390D-03-0.458D-03 0.355D-03-0.202D-02-0.132D-01-0.331D-01
 Coeff-Com:  0.251D-01 0.200D+00-0.433D-01-0.504D+00-0.283D-01 0.546D+00
 Coeff-Com:  0.852D+00
 Coeff:      0.390D-03-0.458D-03 0.355D-03-0.202D-02-0.132D-01-0.331D-01
 Coeff:      0.251D-01 0.200D+00-0.433D-01-0.504D+00-0.283D-01 0.546D+00
 Coeff:      0.852D+00
 Gap=     0.338 Goal=   None    Shift=    0.000
 Gap=     0.142 Goal=   None    Shift=    0.000
 RMSDP=1.12D-05 MaxDP=1.19D-03 DE=-2.96D-05 OVMax= 4.46D-03

 Cycle  14  Pass 1  IDiag  1:
 RMSU=  5.17D-06    CP:  1.00D+00  2.28D+00  6.35D-01  6.42D-01  1.47D+00
                    CP:  2.32D+00  2.98D+00  3.00D+00  3.00D+00  3.00D+00
                    CP:  3.00D+00  3.00D+00  1.52D+00
 E= -2831.31557123503     Delta-E=       -0.000009427718 Rises=F Damp=F
 DIIS: error= 2.62D-05 at cycle  14 NSaved=  14.
 NSaved=14 IEnMin=14 EnMin= -2831.31557123503     IErMin=14 ErrMin= 2.62D-05
 ErrMax= 2.62D-05  0.00D+00 EMaxC= 1.00D-01 BMatC= 1.51D-06 BMatP= 3.23D-06
 IDIUse=1 WtCom= 1.00D+00 WtEn= 0.00D+00
 Coeff-Com:  0.269D-03-0.374D-03 0.529D-03 0.528D-04-0.403D-03-0.904D-02
 Coeff-Com:  0.487D-03 0.948D-02 0.919D-01-0.275D-01-0.188D+00-0.252D+00
 Coeff-Com:  0.437D+00 0.938D+00
 Coeff:      0.269D-03-0.374D-03 0.529D-03 0.528D-04-0.403D-03-0.904D-02
 Coeff:      0.487D-03 0.948D-02 0.919D-01-0.275D-01-0.188D+00-0.252D+00
 Coeff:      0.437D+00 0.938D+00
 Gap=     0.337 Goal=   None    Shift=    0.000
 Gap=     0.141 Goal=   None    Shift=    0.000
 RMSDP=7.87D-06 MaxDP=7.50D-04 DE=-9.43D-06 OVMax= 2.95D-03

 Cycle  15  Pass 1  IDiag  1:
 RMSU=  4.28D-06    CP:  1.00D+00  2.28D+00  6.35D-01  6.41D-01  1.47D+00
                    CP:  2.32D+00  3.00D+00  3.00D+00  3.00D+00  3.00D+00
                    CP:  3.00D+00  3.00D+00  1.88D+00  1.87D+00
 E= -2831.31557563934     Delta-E=       -0.000004404308 Rises=F Damp=F
 DIIS: error= 1.54D-05 at cycle  15 NSaved=  15.
 NSaved=15 IEnMin=15 EnMin= -2831.31557563934     IErMin=15 ErrMin= 1.54D-05
 ErrMax= 1.54D-05  0.00D+00 EMaxC= 1.00D-01 BMatC= 4.68D-07 BMatP= 1.51D-06
 IDIUse=1 WtCom= 1.00D+00 WtEn= 0.00D+00
 Coeff-Com: -0.191D-03 0.241D-03-0.296D-03 0.202D-03 0.614D-02 0.161D-01
 Coeff-Com: -0.647D-02-0.917D-01 0.434D-01 0.219D+00-0.416D-01-0.301D+00
 Coeff-Com: -0.289D+00 0.301D+00 0.114D+01
 Coeff:     -0.191D-03 0.241D-03-0.296D-03 0.202D-03 0.614D-02 0.161D-01
 Coeff:     -0.647D-02-0.917D-01 0.434D-01 0.219D+00-0.416D-01-0.301D+00
 Coeff:     -0.289D+00 0.301D+00 0.114D+01
 Gap=     0.337 Goal=   None    Shift=    0.000
 Gap=     0.141 Goal=   None    Shift=    0.000
 RMSDP=5.70D-06 MaxDP=5.52D-04 DE=-4.40D-06 OVMax= 2.38D-03

 Cycle  16  Pass 1  IDiag  1:
 RMSU=  1.69D-06    CP:  1.00D+00  2.28D+00  6.35D-01  6.40D-01  1.47D+00
                    CP:  2.32D+00  3.00D+00  3.00D+00  3.00D+00  3.00D+00
                    CP:  3.00D+00  3.00D+00  2.10D+00  2.55D+00  1.67D+00
 E= -2831.31557773547     Delta-E=       -0.000002096132 Rises=F Damp=F
 DIIS: error= 1.21D-05 at cycle  16 NSaved=  16.
 NSaved=16 IEnMin=16 EnMin= -2831.31557773547     IErMin=16 ErrMin= 1.21D-05
 ErrMax= 1.21D-05  0.00D+00 EMaxC= 1.00D-01 BMatC= 2.99D-07 BMatP= 4.68D-07
 IDIUse=1 WtCom= 1.00D+00 WtEn= 0.00D+00
 Coeff-Com: -0.254D-03 0.341D-03-0.457D-03-0.106D-03 0.221D-02 0.736D-02
 Coeff-Com: -0.106D-02-0.352D-01-0.949D-02 0.784D-01 0.193D-01 0.186D-02
 Coeff-Com: -0.240D+00-0.143D+00 0.401D+00 0.919D+00
 Coeff:     -0.254D-03 0.341D-03-0.457D-03-0.106D-03 0.221D-02 0.736D-02
 Coeff:     -0.106D-02-0.352D-01-0.949D-02 0.784D-01 0.193D-01 0.186D-02
 Coeff:     -0.240D+00-0.143D+00 0.401D+00 0.919D+00
 Gap=     0.337 Goal=   None    Shift=    0.000
 Gap=     0.142 Goal=   None    Shift=    0.000
 RMSDP=3.18D-06 MaxDP=3.19D-04 DE=-2.10D-06 OVMax= 1.24D-03

 Cycle  17  Pass 1  IDiag  1:
 RMSU=  7.09D-07    CP:  1.00D+00  2.28D+00  6.35D-01  6.40D-01  1.47D+00
                    CP:  2.33D+00  3.00D+00  3.00D+00  3.00D+00  3.00D+00
                    CP:  3.00D+00  3.00D+00  2.20D+00  2.87D+00  2.06D+00
                    CP:  1.76D+00
 E= -2831.31557863369     Delta-E=       -0.000000898221 Rises=F Damp=F
 DIIS: error= 1.03D-05 at cycle  17 NSaved=  17.
 NSaved=17 IEnMin=17 EnMin= -2831.31557863369     IErMin=17 ErrMin= 1.03D-05
 ErrMax= 1.03D-05  0.00D+00 EMaxC= 1.00D-01 BMatC= 1.69D-07 BMatP= 2.99D-07
 IDIUse=1 WtCom= 1.00D+00 WtEn= 0.00D+00
 Coeff-Com: -0.143D-03 0.200D-03-0.340D-03-0.379D-03-0.141D-02-0.186D-02
 Coeff-Com:  0.571D-02 0.170D-01-0.244D-01-0.592D-01 0.272D-01 0.154D+00
 Coeff-Com: -0.720D-02-0.215D+00-0.325D+00 0.400D+00 0.103D+01
 Coeff:     -0.143D-03 0.200D-03-0.340D-03-0.379D-03-0.141D-02-0.186D-02
 Coeff:      0.571D-02 0.170D-01-0.244D-01-0.592D-01 0.272D-01 0.154D+00
 Coeff:     -0.720D-02-0.215D+00-0.325D+00 0.400D+00 0.103D+01
 Gap=     0.337 Goal=   None    Shift=    0.000
 Gap=     0.142 Goal=   None    Shift=    0.000
 RMSDP=2.99D-06 MaxDP=3.24D-04 DE=-8.98D-07 OVMax= 1.24D-03

 Cycle  18  Pass 1  IDiag  1:
 RMSU=  8.76D-07    CP:  1.00D+00  2.28D+00  6.35D-01  6.39D-01  1.47D+00
                    CP:  2.33D+00  3.00D+00  3.00D+00  3.00D+00  3.00D+00
                    CP:  3.00D+00  3.00D+00  2.28D+00  3.00D+00  2.39D+00
                    CP:  2.68D+00  2.18D+00
 E= -2831.31557931009     Delta-E=       -0.000000676398 Rises=F Damp=F
 DIIS: error= 8.38D-06 at cycle  18 NSaved=  18.
 NSaved=18 IEnMin=18 EnMin= -2831.31557931009     IErMin=18 ErrMin= 8.38D-06
 ErrMax= 8.38D-06  0.00D+00 EMaxC= 1.00D-01 BMatC= 8.10D-08 BMatP= 1.69D-07
 IDIUse=1 WtCom= 1.00D+00 WtEn= 0.00D+00
 Coeff-Com: -0.177D-04 0.263D-04-0.998D-04-0.290D-03-0.850D-03-0.879D-03
 Coeff-Com:  0.633D-02 0.938D-02 0.768D-04-0.463D-01 0.231D-02 0.380D-01
 Coeff-Com:  0.937D-01 0.108D-02-0.297D+00-0.378D+00 0.274D+00 0.130D+01
 Coeff:     -0.177D-04 0.263D-04-0.998D-04-0.290D-03-0.850D-03-0.879D-03
 Coeff:      0.633D-02 0.938D-02 0.768D-04-0.463D-01 0.231D-02 0.380D-01
 Coeff:      0.937D-01 0.108D-02-0.297D+00-0.378D+00 0.274D+00 0.130D+01
 Gap=     0.337 Goal=   None    Shift=    0.000
 Gap=     0.142 Goal=   None    Shift=    0.000
 RMSDP=3.33D-06 MaxDP=3.91D-04 DE=-6.76D-07 OVMax= 1.36D-03

 Cycle  19  Pass 1  IDiag  1:
 RMSU=  1.52D-06    CP:  1.00D+00  2.28D+00  6.35D-01  6.38D-01  1.47D+00
                    CP:  2.33D+00  3.00D+00  3.00D+00  3.00D+00  3.00D+00
                    CP:  3.00D+00  3.00D+00  2.36D+00  3.00D+00  2.72D+00
                    CP:  3.00D+00  3.00D+00  2.76D+00
 E= -2831.31557984623     Delta-E=       -0.000000536143 Rises=F Damp=F
 DIIS: error= 5.78D-06 at cycle  19 NSaved=  19.
 NSaved=19 IEnMin=19 EnMin= -2831.31557984623     IErMin=19 ErrMin= 5.78D-06
 ErrMax= 5.78D-06  0.00D+00 EMaxC= 1.00D-01 BMatC= 5.33D-08 BMatP= 8.10D-08
 IDIUse=1 WtCom= 1.00D+00 WtEn= 0.00D+00
 Coeff-Com:  0.250D-04-0.377D-04 0.267D-05-0.904D-04 0.987D-03 0.312D-02
 Coeff-Com:  0.176D-02-0.153D-01 0.164D-01 0.241D-01-0.157D-01-0.851D-01
 Coeff-Com:  0.262D-01 0.150D+00 0.968D-01-0.451D+00-0.657D+00 0.887D+00
 Coeff-Com:  0.102D+01
 Coeff:      0.250D-04-0.377D-04 0.267D-05-0.904D-04 0.987D-03 0.312D-02
 Coeff:      0.176D-02-0.153D-01 0.164D-01 0.241D-01-0.157D-01-0.851D-01
 Coeff:      0.262D-01 0.150D+00 0.968D-01-0.451D+00-0.657D+00 0.887D+00
 Coeff:      0.102D+01
 Gap=     0.337 Goal=   None    Shift=    0.000
 Gap=     0.142 Goal=   None    Shift=    0.000
 RMSDP=2.80D-06 MaxDP=3.28D-04 DE=-5.36D-07 OVMax= 1.13D-03

 Cycle  20  Pass 1  IDiag  1:
 RMSU=  1.22D-06    CP:  1.00D+00  2.28D+00  6.35D-01  6.37D-01  1.47D+00
                    CP:  2.33D+00  3.00D+00  3.00D+00  3.00D+00  3.00D+00
                    CP:  3.00D+00  3.00D+00  2.43D+00  3.00D+00  2.98D+00
                    CP:  3.00D+00  3.00D+00  3.00D+00  2.19D+00
 E= -2831.31558012387     Delta-E=       -0.000000277634 Rises=F Damp=F
 DIIS: error= 3.70D-06 at cycle  20 NSaved=  20.
 NSaved=20 IEnMin=20 EnMin= -2831.31558012387     IErMin=20 ErrMin= 3.70D-06
 ErrMax= 3.70D-06  0.00D+00 EMaxC= 1.00D-01 BMatC= 1.96D-08 BMatP= 5.33D-08
 IDIUse=1 WtCom= 1.00D+00 WtEn= 0.00D+00
 Coeff-Com: -0.906D-05 0.946D-05-0.480D-05 0.632D-04 0.125D-02 0.288D-02
 Coeff-Com: -0.218D-02-0.171D-01 0.104D-01 0.449D-01-0.157D-01-0.718D-01
 Coeff-Com: -0.483D-01 0.103D+00 0.238D+00-0.661D-01-0.607D+00-0.713D-01
 Coeff-Com:  0.489D+00 0.101D+01
 Coeff:     -0.906D-05 0.946D-05-0.480D-05 0.632D-04 0.125D-02 0.288D-02
 Coeff:     -0.218D-02-0.171D-01 0.104D-01 0.449D-01-0.157D-01-0.718D-01
 Coeff:     -0.483D-01 0.103D+00 0.238D+00-0.661D-01-0.607D+00-0.713D-01
 Coeff:      0.489D+00 0.101D+01
 Gap=     0.337 Goal=   None    Shift=    0.000
 Gap=     0.142 Goal=   None    Shift=    0.000
 RMSDP=1.97D-06 MaxDP=2.26D-04 DE=-2.78D-07 OVMax= 7.66D-04

 Cycle  21  Pass 1  IDiag  1:
 Restarting incremental Fock formation.
 E= -2831.31558022364     Delta-E=       -0.000000099773 Rises=F Damp=F
 DIIS: error= 1.68D-06 at cycle  21 NSaved=  20.
 NSaved=20 IEnMin=20 EnMin= -2831.31558022364     IErMin=20 ErrMin= 1.68D-06
 ErrMax= 1.68D-06  0.00D+00 EMaxC= 1.00D-01 BMatC= 5.79D-09 BMatP= 1.96D-08
 IDIUse=1 WtCom= 1.00D+00 WtEn= 0.00D+00
 Coeff-Com: -0.460D-05-0.347D-04 0.326D-04 0.215D-03 0.199D-03-0.114D-02
 Coeff-Com: -0.232D-02-0.467D-03 0.959D-02-0.299D-02-0.689D-03-0.243D-01
 Coeff-Com: -0.275D-02 0.524D-01 0.983D-01-0.390D-01-0.187D+00-0.243D+00
 Coeff-Com:  0.351D+00 0.992D+00
 Coeff:     -0.460D-05-0.347D-04 0.326D-04 0.215D-03 0.199D-03-0.114D-02
 Coeff:     -0.232D-02-0.467D-03 0.959D-02-0.299D-02-0.689D-03-0.243D-01
 Coeff:     -0.275D-02 0.524D-01 0.983D-01-0.390D-01-0.187D+00-0.243D+00
 Coeff:      0.351D+00 0.992D+00
 Gap=     0.337 Goal=   None    Shift=    0.000
 Gap=     0.142 Goal=   None    Shift=    0.000
 RMSDP=8.18D-07 MaxDP=8.92D-05 DE=-9.98D-08 OVMax= 3.61D-04

 Cycle  22  Pass 1  IDiag  1:
 RMSU=  8.18D-07    CP:  1.00D+00
 E= -2831.31558024206     Delta-E=       -0.000000018414 Rises=F Damp=F
 DIIS: error= 8.28D-07 at cycle  22 NSaved=  20.
 NSaved=20 IEnMin=20 EnMin= -2831.31558024206     IErMin=20 ErrMin= 8.28D-07
 ErrMax= 8.28D-07  0.00D+00 EMaxC= 1.00D-01 BMatC= 1.67D-09 BMatP= 5.79D-09
 IDIUse=1 WtCom= 1.00D+00 WtEn= 0.00D+00
 Coeff-Com: -0.230D-04-0.119D-04-0.121D-03-0.108D-03 0.670D-03 0.149D-02
 Coeff-Com: -0.244D-02-0.608D-02 0.574D-02 0.130D-01 0.457D-02-0.326D-01
 Coeff-Com: -0.424D-01 0.439D-01 0.124D+00 0.462D-01-0.234D+00-0.160D+00
 Coeff-Com:  0.118D+00 0.112D+01
 Coeff:     -0.230D-04-0.119D-04-0.121D-03-0.108D-03 0.670D-03 0.149D-02
 Coeff:     -0.244D-02-0.608D-02 0.574D-02 0.130D-01 0.457D-02-0.326D-01
 Coeff:     -0.424D-01 0.439D-01 0.124D+00 0.462D-01-0.234D+00-0.160D+00
 Coeff:      0.118D+00 0.112D+01
 Gap=     0.337 Goal=   None    Shift=    0.000
 Gap=     0.142 Goal=   None    Shift=    0.000
 RMSDP=2.58D-07 MaxDP=2.75D-05 DE=-1.84D-08 OVMax= 1.10D-04

 Cycle  23  Pass 1  IDiag  1:
 RMSU=  1.20D-07    CP:  1.00D+00  1.28D+00
 E= -2831.31558024659     Delta-E=       -0.000000004535 Rises=F Damp=F
 DIIS: error= 6.81D-07 at cycle  23 NSaved=  20.
 NSaved=20 IEnMin=20 EnMin= -2831.31558024659     IErMin=20 ErrMin= 6.81D-07
 ErrMax= 6.81D-07  0.00D+00 EMaxC= 1.00D-01 BMatC= 8.17D-10 BMatP= 1.67D-09
 IDIUse=1 WtCom= 1.00D+00 WtEn= 0.00D+00
 Coeff-Com: -0.756D-05-0.204D-04 0.975D-04 0.503D-03-0.243D-04 0.603D-03
 Coeff-Com: -0.235D-02 0.193D-02-0.239D-02 0.977D-02-0.355D-02-0.184D-01
 Coeff-Com: -0.294D-01 0.589D-02 0.123D+00-0.752D-02-0.975D-01-0.353D+00
 Coeff-Com:  0.298D+00 0.107D+01
 Coeff:     -0.756D-05-0.204D-04 0.975D-04 0.503D-03-0.243D-04 0.603D-03
 Coeff:     -0.235D-02 0.193D-02-0.239D-02 0.977D-02-0.355D-02-0.184D-01
 Coeff:     -0.294D-01 0.589D-02 0.123D+00-0.752D-02-0.975D-01-0.353D+00
 Coeff:      0.298D+00 0.107D+01
 Gap=     0.337 Goal=   None    Shift=    0.000
 Gap=     0.142 Goal=   None    Shift=    0.000
 RMSDP=1.51D-07 MaxDP=1.53D-05 DE=-4.53D-09 OVMax= 6.96D-05

 Cycle  24  Pass 1  IDiag  1:
 RMSU=  4.53D-08    CP:  1.00D+00  1.42D+00  1.70D+00
 E= -2831.31558024856     Delta-E=       -0.000000001972 Rises=F Damp=F
 DIIS: error= 4.29D-07 at cycle  24 NSaved=  20.
 NSaved=20 IEnMin=20 EnMin= -2831.31558024856     IErMin=20 ErrMin= 4.29D-07
 ErrMax= 4.29D-07  0.00D+00 EMaxC= 1.00D-01 BMatC= 4.75D-10 BMatP= 8.17D-10
 IDIUse=1 WtCom= 1.00D+00 WtEn= 0.00D+00
 Coeff-Com:  0.996D-04 0.264D-03-0.208D-03-0.139D-02 0.169D-02 0.361D-02
 Coeff-Com: -0.249D-02-0.974D-02 0.139D-02 0.169D-01 0.190D-01-0.397D-01
 Coeff-Com: -0.838D-01 0.644D-01 0.911D-01 0.757D-01-0.255D+00-0.428D+00
 Coeff-Com:  0.402D+00 0.114D+01
 Coeff:      0.996D-04 0.264D-03-0.208D-03-0.139D-02 0.169D-02 0.361D-02
 Coeff:     -0.249D-02-0.974D-02 0.139D-02 0.169D-01 0.190D-01-0.397D-01
 Coeff:     -0.838D-01 0.644D-01 0.911D-01 0.757D-01-0.255D+00-0.428D+00
 Coeff:      0.402D+00 0.114D+01
 Gap=     0.337 Goal=   None    Shift=    0.000
 Gap=     0.142 Goal=   None    Shift=    0.000
 RMSDP=1.46D-07 MaxDP=1.46D-05 DE=-1.97D-09 OVMax= 7.48D-05

 Cycle  25  Pass 1  IDiag  1:
 RMSU=  2.80D-08    CP:  1.00D+00  1.55D+00  2.33D+00  2.34D+00
 E= -2831.31558024968     Delta-E=       -0.000000001119 Rises=F Damp=F
 DIIS: error= 2.69D-07 at cycle  25 NSaved=  20.
 NSaved=20 IEnMin=20 EnMin= -2831.31558024968     IErMin=20 ErrMin= 2.69D-07
 ErrMax= 2.69D-07  0.00D+00 EMaxC= 1.00D-01 BMatC= 1.46D-10 BMatP= 4.75D-10
 IDIUse=1 WtCom= 1.00D+00 WtEn= 0.00D+00
 Coeff-Com: -0.581D-04-0.238D-03 0.127D-03 0.231D-03 0.943D-03-0.198D-02
 Coeff-Com: -0.942D-03-0.178D-02 0.641D-02 0.105D-01-0.371D-02-0.344D-01
 Coeff-Com: -0.851D-02 0.164D-01 0.804D-01 0.416D-01-0.287D+00-0.388D+00
 Coeff-Com:  0.383D+00 0.119D+01
 Coeff:     -0.581D-04-0.238D-03 0.127D-03 0.231D-03 0.943D-03-0.198D-02
 Coeff:     -0.942D-03-0.178D-02 0.641D-02 0.105D-01-0.371D-02-0.344D-01
 Coeff:     -0.851D-02 0.164D-01 0.804D-01 0.416D-01-0.287D+00-0.388D+00
 Coeff:      0.383D+00 0.119D+01
 Gap=     0.337 Goal=   None    Shift=    0.000
 Gap=     0.142 Goal=   None    Shift=    0.000
 RMSDP=1.28D-07 MaxDP=1.28D-05 DE=-1.12D-09 OVMax= 6.85D-05

 Cycle  26  Pass 1  IDiag  1:
 RMSU=  3.50D-08    CP:  1.00D+00  1.66D+00  2.80D+00  3.00D+00  1.87D+00
 E= -2831.31558025012     Delta-E=       -0.000000000442 Rises=F Damp=F
 DIIS: error= 1.17D-07 at cycle  26 NSaved=  20.
 NSaved=20 IEnMin=20 EnMin= -2831.31558025012     IErMin=20 ErrMin= 1.17D-07
 ErrMax= 1.17D-07  0.00D+00 EMaxC= 1.00D-01 BMatC= 3.35D-11 BMatP= 1.46D-10
 IDIUse=1 WtCom= 1.00D+00 WtEn= 0.00D+00
 Coeff-Com: -0.160D-04-0.506D-04-0.120D-03 0.162D-03 0.387D-03 0.327D-03
 Coeff-Com: -0.129D-02-0.233D-02 0.147D-02 0.105D-01 0.425D-02-0.156D-01
 Coeff-Com: -0.196D-01 0.140D-01 0.674D-01 0.344D-01-0.172D+00-0.190D+00
 Coeff-Com:  0.171D+00 0.110D+01
 Coeff:     -0.160D-04-0.506D-04-0.120D-03 0.162D-03 0.387D-03 0.327D-03
 Coeff:     -0.129D-02-0.233D-02 0.147D-02 0.105D-01 0.425D-02-0.156D-01
 Coeff:     -0.196D-01 0.140D-01 0.674D-01 0.344D-01-0.172D+00-0.190D+00
 Coeff:      0.171D+00 0.110D+01
 Gap=     0.337 Goal=   None    Shift=    0.000
 Gap=     0.142 Goal=   None    Shift=    0.000
 RMSDP=3.92D-08 MaxDP=4.60D-06 DE=-4.42D-10 OVMax= 1.74D-05

 Cycle  27  Pass 1  IDiag  1:
 RMSU=  1.12D-08    CP:  1.00D+00  1.68D+00  3.00D+00  3.00D+00  2.19D+00
                    CP:  1.62D+00
 E= -2831.31558025023     Delta-E=       -0.000000000111 Rises=F Damp=F
 DIIS: error= 6.32D-08 at cycle  27 NSaved=  20.
 NSaved=20 IEnMin=20 EnMin= -2831.31558025023     IErMin=20 ErrMin= 6.32D-08
 ErrMax= 6.32D-08  0.00D+00 EMaxC= 1.00D-01 BMatC= 9.04D-12 BMatP= 3.35D-11
 IDIUse=1 WtCom= 1.00D+00 WtEn= 0.00D+00
 Coeff-Com: -0.340D-04-0.513D-04-0.290D-04 0.545D-03 0.292D-03-0.397D-03
 Coeff-Com: -0.235D-02-0.634D-03 0.652D-02 0.628D-02-0.728D-02-0.147D-01
 Coeff-Com: -0.719D-03 0.278D-01 0.514D-01-0.215D-01-0.132D+00-0.132D+00
 Coeff-Com:  0.443D+00 0.776D+00
 Coeff:     -0.340D-04-0.513D-04-0.290D-04 0.545D-03 0.292D-03-0.397D-03
 Coeff:     -0.235D-02-0.634D-03 0.652D-02 0.628D-02-0.728D-02-0.147D-01
 Coeff:     -0.719D-03 0.278D-01 0.514D-01-0.215D-01-0.132D+00-0.132D+00
 Coeff:      0.443D+00 0.776D+00
 Gap=     0.337 Goal=   None    Shift=    0.000
 Gap=     0.142 Goal=   None    Shift=    0.000
 RMSDP=1.78D-08 MaxDP=1.72D-06 DE=-1.11D-10 OVMax= 8.56D-06

 Cycle  28  Pass 1  IDiag  1:
 RMSU=  9.43D-09    CP:  1.00D+00  1.70D+00  3.00D+00  3.00D+00  2.31D+00
                    CP:  1.79D+00  1.50D+00
 E= -2831.31558025022     Delta-E=        0.000000000016 Rises=F Damp=F
 DIIS: error= 3.50D-08 at cycle  28 NSaved=  20.
 NSaved=20 IEnMin=19 EnMin= -2831.31558025023     IErMin=20 ErrMin= 3.50D-08
 ErrMax= 3.50D-08  0.00D+00 EMaxC= 1.00D-01 BMatC= 2.56D-12 BMatP= 9.04D-12
 IDIUse=1 WtCom= 1.00D+00 WtEn= 0.00D+00
 Coeff-Com:  0.655D-04-0.910D-04 0.460D-04-0.131D-03 0.412D-03-0.107D-03
 Coeff-Com: -0.598D-03-0.129D-02 0.423D-04 0.475D-02-0.849D-04-0.275D-02
 Coeff-Com: -0.158D-01 0.530D-02 0.548D-01 0.199D-01-0.106D+00-0.227D+00
 Coeff-Com:  0.189D+00 0.108D+01
 Coeff:      0.655D-04-0.910D-04 0.460D-04-0.131D-03 0.412D-03-0.107D-03
 Coeff:     -0.598D-03-0.129D-02 0.423D-04 0.475D-02-0.849D-04-0.275D-02
 Coeff:     -0.158D-01 0.530D-02 0.548D-01 0.199D-01-0.106D+00-0.227D+00
 Coeff:      0.189D+00 0.108D+01
 Gap=     0.337 Goal=   None    Shift=    0.000
 Gap=     0.142 Goal=   None    Shift=    0.000
 RMSDP=8.87D-09 MaxDP=6.89D-07 DE= 1.64D-11 OVMax= 2.98D-06

 Error on total polarization charges =  0.00087
 SCF Done:  E(UCAM-B3LYP) =  -2831.31558025     A.U. after   28 cycles
            NFock= 28  Conv=0.89D-08     -V/T= 2.0074
 <Sx>= 0.0000 <Sy>= 0.0000 <Sz>= 0.5000 <S**2>= 0.7739 S= 0.5119
 <L.S>= 0.000000000000E+00
 KE= 2.810505760578D+03 PE=-1.798912067460D+04 EE= 6.680237647513D+03
 Annihilation of the first spin contaminant:
 S**2 before annihilation     0.7739,   after     0.7503
 Leave Link  502 at Sun Mar  3 17:32:31 2024, MaxMem=  5368709120 cpu:      2828.1
 (Enter /home/k0335/k033513/app/g09/l601.exe)
 Copying SCF densities to generalized density rwf, IOpCl= 1 IROHF=0.

 **********************************************************************

            Population analysis using the SCF density.

 **********************************************************************

 Alpha  occ. eigenvalues --  -24.88165 -24.87936 -24.87703 -24.87684 -24.87423
 Alpha  occ. eigenvalues --  -24.86777 -24.86465 -24.86458 -24.86369 -24.86071
 Alpha  occ. eigenvalues --  -24.85952 -24.85878 -24.85613 -24.85552 -24.85439
 Alpha  occ. eigenvalues --  -24.85210 -24.85127 -24.85116 -19.50471 -19.37908
 Alpha  occ. eigenvalues --  -19.37167 -19.36598 -19.35565 -19.32101 -14.74982
 Alpha  occ. eigenvalues --  -14.61725 -14.61425 -10.62767 -10.61576 -10.59048
 Alpha  occ. eigenvalues --  -10.58693 -10.58577 -10.58121 -10.57823 -10.57242
 Alpha  occ. eigenvalues --  -10.54256 -10.52965 -10.52789  -1.46589  -1.45990
 Alpha  occ. eigenvalues --   -1.44757  -1.44639  -1.43582  -1.43224  -1.41216
 Alpha  occ. eigenvalues --   -1.38893  -1.38252  -1.37366  -1.37027  -1.36722
 Alpha  occ. eigenvalues --   -1.36230  -1.35779  -1.35559  -1.35352  -1.34996
 Alpha  occ. eigenvalues --   -1.34704  -1.34517  -1.30968  -1.29681  -1.26702
 Alpha  occ. eigenvalues --   -1.24010  -1.22991  -1.20698  -1.17346  -1.14937
 Alpha  occ. eigenvalues --   -0.97891  -0.97508  -0.94916  -0.91912  -0.89246
 Alpha  occ. eigenvalues --   -0.87125  -0.85813  -0.85446  -0.83657  -0.81931
 Alpha  occ. eigenvalues --   -0.79581  -0.79214  -0.77359  -0.76806  -0.76606
 Alpha  occ. eigenvalues --   -0.74986  -0.74787  -0.74271  -0.73986  -0.73674
 Alpha  occ. eigenvalues --   -0.72943  -0.72482  -0.71931  -0.71789  -0.71469
 Alpha  occ. eigenvalues --   -0.70772  -0.70442  -0.69964  -0.69611  -0.68358
 Alpha  occ. eigenvalues --   -0.67647  -0.67069  -0.66921  -0.65907  -0.65175
 Alpha  occ. eigenvalues --   -0.63766  -0.63143  -0.62431  -0.61926  -0.60867
 Alpha  occ. eigenvalues --   -0.60512  -0.60269  -0.60129  -0.59858  -0.59716
 Alpha  occ. eigenvalues --   -0.59471  -0.59288  -0.58770  -0.58446  -0.58245
 Alpha  occ. eigenvalues --   -0.58114  -0.57814  -0.57624  -0.57227  -0.56924
 Alpha  occ. eigenvalues --   -0.56766  -0.56643  -0.55842  -0.55744  -0.55272
 Alpha  occ. eigenvalues --   -0.54602  -0.54568  -0.54308  -0.53909  -0.53698
 Alpha  occ. eigenvalues --   -0.53616  -0.53331  -0.53239  -0.53072  -0.52849
 Alpha  occ. eigenvalues --   -0.52649  -0.52362  -0.52024  -0.51750  -0.51511
 Alpha  occ. eigenvalues --   -0.51345  -0.50801  -0.50616  -0.49188  -0.48367
 Alpha  occ. eigenvalues --   -0.47599  -0.46759  -0.46352  -0.44558
 Alpha virt. eigenvalues --   -0.10820  -0.08516  -0.07359  -0.02352   0.01799
 Alpha virt. eigenvalues --    0.02265   0.03572   0.03833   0.06323   0.08614
 Alpha virt. eigenvalues --    0.10952   0.11470   0.12518   0.14110   0.14452
 Alpha virt. eigenvalues --    0.14895   0.15851   0.17038   0.17525   0.18387
 Alpha virt. eigenvalues --    0.18632   0.19622   0.19843   0.20205   0.20714
 Alpha virt. eigenvalues --    0.21302   0.21863   0.22060   0.23163   0.23741
 Alpha virt. eigenvalues --    0.24374   0.24550   0.25131   0.27329   0.29020
 Alpha virt. eigenvalues --    0.29806   0.30073   0.30581   0.31679   0.32417
 Alpha virt. eigenvalues --    0.34658   0.38622   0.41391   0.42634   0.44059
 Alpha virt. eigenvalues --    0.45096   0.45473   0.46751   0.47476   0.47534
 Alpha virt. eigenvalues --    0.48562   0.48997   0.49757   0.50804   0.51462
 Alpha virt. eigenvalues --    0.51855   0.52253   0.52465   0.53141   0.53600
 Alpha virt. eigenvalues --    0.54196   0.55256   0.55827   0.56321   0.56953
 Alpha virt. eigenvalues --    0.58136   0.59299   0.59969   0.61168   0.62194
 Alpha virt. eigenvalues --    0.63846   0.66089   0.66971   0.67470   0.68692
 Alpha virt. eigenvalues --    0.68829   0.71576   0.72443   0.73606   0.74291
 Alpha virt. eigenvalues --    0.75948   0.77227   0.79507   0.80480   0.81282
 Alpha virt. eigenvalues --    0.82407   0.83503   0.83941   0.85845   0.86927
 Alpha virt. eigenvalues --    0.88221   0.88745   0.90784   0.91846   0.92561
 Alpha virt. eigenvalues --    0.94391   0.94653   0.96773   0.97055   0.97910
 Alpha virt. eigenvalues --    0.99034   0.99920   1.00928   1.01654   1.02262
 Alpha virt. eigenvalues --    1.03849   1.04713   1.05356   1.06397   1.07054
 Alpha virt. eigenvalues --    1.07505   1.08164   1.08848   1.09132   1.09402
 Alpha virt. eigenvalues --    1.10773   1.12439   1.12903   1.13549   1.14111
 Alpha virt. eigenvalues --    1.14819   1.15202   1.15905   1.16522   1.17228
 Alpha virt. eigenvalues --    1.17490   1.18088   1.18263   1.19273   1.20069
 Alpha virt. eigenvalues --    1.21512   1.22161   1.23452   1.23521   1.24702
 Alpha virt. eigenvalues --    1.25171   1.26326   1.27069   1.28022   1.28497
 Alpha virt. eigenvalues --    1.28947   1.29280   1.29737   1.30368   1.30935
 Alpha virt. eigenvalues --    1.31296   1.31924   1.32517   1.33410   1.33566
 Alpha virt. eigenvalues --    1.34052   1.34318   1.35350   1.35728   1.36579
 Alpha virt. eigenvalues --    1.36902   1.37146   1.37587   1.38177   1.38424
 Alpha virt. eigenvalues --    1.39091   1.39257   1.39772   1.40060   1.40555
 Alpha virt. eigenvalues --    1.41108   1.41449   1.42443   1.42953   1.43241
 Alpha virt. eigenvalues --    1.45603   1.46106   1.46431   1.47020   1.47674
 Alpha virt. eigenvalues --    1.48481   1.49562   1.50146   1.50834   1.51299
 Alpha virt. eigenvalues --    1.51879   1.52892   1.53407   1.54019   1.55133
 Alpha virt. eigenvalues --    1.55395   1.56808   1.57955   1.58862   1.59730
 Alpha virt. eigenvalues --    1.60497   1.60529   1.61646   1.62401   1.63518
 Alpha virt. eigenvalues --    1.65280   1.65485   1.66791   1.67247   1.68385
 Alpha virt. eigenvalues --    1.68509   1.69585   1.69985   1.70250   1.71180
 Alpha virt. eigenvalues --    1.71710   1.72323   1.72902   1.73680   1.74191
 Alpha virt. eigenvalues --    1.74670   1.75262   1.75562   1.76838   1.77069
 Alpha virt. eigenvalues --    1.77923   1.78601   1.79377   1.80281   1.81214
 Alpha virt. eigenvalues --    1.81455   1.81699   1.82103   1.82454   1.83151
 Alpha virt. eigenvalues --    1.83314   1.83729   1.84452   1.84956   1.85389
 Alpha virt. eigenvalues --    1.85845   1.85964   1.86539   1.87345   1.87375
 Alpha virt. eigenvalues --    1.87718   1.88222   1.88524   1.89453   1.89717
 Alpha virt. eigenvalues --    1.90202   1.90644   1.91068   1.91684   1.92314
 Alpha virt. eigenvalues --    1.92816   1.93371   1.94029   1.94792   1.95174
 Alpha virt. eigenvalues --    1.96339   1.96822   1.97016   1.97336   1.97646
 Alpha virt. eigenvalues --    1.98154   1.98640   1.99058   1.99488   1.99826
 Alpha virt. eigenvalues --    2.00965   2.01201   2.01399   2.01552   2.01915
 Alpha virt. eigenvalues --    2.02278   2.03514   2.04100   2.04421   2.04710
 Alpha virt. eigenvalues --    2.05564   2.05931   2.06570   2.06996   2.07394
 Alpha virt. eigenvalues --    2.07650   2.08314   2.09021   2.09550   2.10727
 Alpha virt. eigenvalues --    2.11903   2.12499   2.13039   2.13703   2.14316
 Alpha virt. eigenvalues --    2.14765   2.16484   2.16769   2.17748   2.18274
 Alpha virt. eigenvalues --    2.18583   2.19940   2.22229   2.23368   2.24042
 Alpha virt. eigenvalues --    2.24834   2.26619   2.27019   2.27382   2.27962
 Alpha virt. eigenvalues --    2.28645   2.30153   2.31092   2.32438   2.33870
 Alpha virt. eigenvalues --    2.34245   2.37347   2.38714   2.39909   2.40204
 Alpha virt. eigenvalues --    2.41714   2.42722   2.42961   2.43470   2.44658
 Alpha virt. eigenvalues --    2.45676   2.46374   2.48252   2.48484   2.50086
 Alpha virt. eigenvalues --    2.51387   2.52540   2.53051   2.53866   2.54815
 Alpha virt. eigenvalues --    2.56366   2.57176   2.59212   2.59255   2.61313
 Alpha virt. eigenvalues --    2.61919   2.63618   2.64717   2.65476   2.66787
 Alpha virt. eigenvalues --    2.69434   2.70288   2.72450   2.73107   2.73897
 Alpha virt. eigenvalues --    2.75986   2.77154   2.78159   2.79062   2.80321
 Alpha virt. eigenvalues --    2.80463   2.81722   2.83066   2.84288   2.84918
 Alpha virt. eigenvalues --    2.86336   2.87342   2.87830   2.88271   2.89190
 Alpha virt. eigenvalues --    2.90168   2.90658   2.92419   2.93588   2.94998
 Alpha virt. eigenvalues --    2.95730   2.97957   2.99501   3.02842   3.03574
 Alpha virt. eigenvalues --    3.04101   3.04293   3.05206   3.05985   3.07528
 Alpha virt. eigenvalues --    3.09483   3.10993   3.11685   3.13359   3.13563
 Alpha virt. eigenvalues --    3.15761   3.16328   3.19601   3.21568   3.24890
 Alpha virt. eigenvalues --    3.26228   3.26723   3.28099   3.30676   3.31742
 Alpha virt. eigenvalues --    3.32448   3.34172   3.39879   3.71129   3.98943
 Alpha virt. eigenvalues --    4.02312   4.06456   4.07948   4.17993   4.19363
 Alpha virt. eigenvalues --    4.24026   4.28406   4.30848   4.31956   4.34162
 Alpha virt. eigenvalues --    4.37664   4.40459   4.42364   4.49231   4.50860
 Alpha virt. eigenvalues --    4.57034   4.58558   4.61287   4.64974   4.73241
 Alpha virt. eigenvalues --    4.75661   4.86151   4.95969   5.04702   5.12890
 Alpha virt. eigenvalues --    5.22316   5.38163   5.46598   5.58809   5.60565
 Alpha virt. eigenvalues --    5.65321   5.71393   6.20766   6.26712   6.33864
 Alpha virt. eigenvalues --    6.40010
  Beta  occ. eigenvalues --  -24.88158 -24.87927 -24.87699 -24.87674 -24.87423
  Beta  occ. eigenvalues --  -24.86777 -24.86465 -24.86457 -24.86369 -24.86071
  Beta  occ. eigenvalues --  -24.85952 -24.85877 -24.85613 -24.85552 -24.85439
  Beta  occ. eigenvalues --  -24.85210 -24.85127 -24.85116 -19.49514 -19.37515
  Beta  occ. eigenvalues --  -19.36599 -19.36539 -19.35565 -19.32080 -14.73846
  Beta  occ. eigenvalues --  -14.61705 -14.61457 -10.62767 -10.61576 -10.59048
  Beta  occ. eigenvalues --  -10.58695 -10.58576 -10.58121 -10.57984 -10.57452
  Beta  occ. eigenvalues --  -10.54269 -10.52964 -10.52791  -1.46588  -1.45986
  Beta  occ. eigenvalues --   -1.44747  -1.44638  -1.43564  -1.43204  -1.39457
  Beta  occ. eigenvalues --   -1.38891  -1.38248  -1.37364  -1.37016  -1.36714
  Beta  occ. eigenvalues --   -1.36228  -1.35775  -1.35549  -1.35351  -1.34996
  Beta  occ. eigenvalues --   -1.34703  -1.34516  -1.30355  -1.28958  -1.26060
  Beta  occ. eigenvalues --   -1.24008  -1.22991  -1.19769  -1.17150  -1.13424
  Beta  occ. eigenvalues --   -0.97834  -0.97394  -0.94545  -0.91876  -0.88883
  Beta  occ. eigenvalues --   -0.86988  -0.85757  -0.85436  -0.83650  -0.81485
  Beta  occ. eigenvalues --   -0.79547  -0.78948  -0.77097  -0.76582  -0.75505
  Beta  occ. eigenvalues --   -0.74788  -0.74461  -0.74200  -0.73663  -0.73359
  Beta  occ. eigenvalues --   -0.72818  -0.72127  -0.71886  -0.71552  -0.71429
  Beta  occ. eigenvalues --   -0.70671  -0.70373  -0.69869  -0.69496  -0.68322
  Beta  occ. eigenvalues --   -0.67223  -0.66537  -0.66481  -0.64828  -0.63864
  Beta  occ. eigenvalues --   -0.63152  -0.63038  -0.62281  -0.61363  -0.60791
  Beta  occ. eigenvalues --   -0.60215  -0.60183  -0.59829  -0.59807  -0.59568
  Beta  occ. eigenvalues --   -0.59345  -0.58954  -0.58450  -0.58189  -0.58088
  Beta  occ. eigenvalues --   -0.57831  -0.57577  -0.57306  -0.56961  -0.56780
  Beta  occ. eigenvalues --   -0.56590  -0.55923  -0.55740  -0.55285  -0.55223
  Beta  occ. eigenvalues --   -0.54587  -0.54554  -0.54195  -0.53861  -0.53615
  Beta  occ. eigenvalues --   -0.53595  -0.53249  -0.53091  -0.52775  -0.52684
  Beta  occ. eigenvalues --   -0.52602  -0.51937  -0.51671  -0.51511  -0.51267
  Beta  occ. eigenvalues --   -0.50530  -0.49594  -0.48927  -0.47887  -0.47460
  Beta  occ. eigenvalues --   -0.46599  -0.45924  -0.44221
  Beta virt. eigenvalues --   -0.30066  -0.09728  -0.07160  -0.06123  -0.01594
  Beta virt. eigenvalues --    0.01873   0.02278   0.03636   0.03910   0.06728
  Beta virt. eigenvalues --    0.08646   0.11193   0.11557   0.12628   0.14152
  Beta virt. eigenvalues --    0.14445   0.14929   0.15974   0.17052   0.17537
  Beta virt. eigenvalues --    0.18422   0.18658   0.19635   0.19848   0.20221
  Beta virt. eigenvalues --    0.20717   0.21310   0.21864   0.22069   0.23171
  Beta virt. eigenvalues --    0.23748   0.24396   0.24571   0.25173   0.27337
  Beta virt. eigenvalues --    0.29103   0.29819   0.30119   0.30674   0.31732
  Beta virt. eigenvalues --    0.32602   0.34745   0.38548   0.41517   0.42771
  Beta virt. eigenvalues --    0.44056   0.45103   0.45475   0.46861   0.47507
  Beta virt. eigenvalues --    0.47775   0.48585   0.49074   0.49750   0.50877
  Beta virt. eigenvalues --    0.51529   0.51894   0.52263   0.52464   0.53197
  Beta virt. eigenvalues --    0.53620   0.54194   0.55248   0.55890   0.56356
  Beta virt. eigenvalues --    0.57040   0.58170   0.59368   0.60079   0.61182
  Beta virt. eigenvalues --    0.62205   0.64431   0.66323   0.67375   0.67528
  Beta virt. eigenvalues --    0.68829   0.69317   0.71774   0.72796   0.73862
  Beta virt. eigenvalues --    0.74617   0.76294   0.77454   0.79838   0.80737
  Beta virt. eigenvalues --    0.81428   0.83609   0.83769   0.84302   0.85961
  Beta virt. eigenvalues --    0.87170   0.88404   0.89609   0.91085   0.92349
  Beta virt. eigenvalues --    0.92702   0.94475   0.94909   0.96901   0.97364
  Beta virt. eigenvalues --    0.98050   0.99168   1.00132   1.01024   1.01823
  Beta virt. eigenvalues --    1.02493   1.04091   1.04915   1.05508   1.06518
  Beta virt. eigenvalues --    1.07158   1.07562   1.08279   1.08951   1.09271
  Beta virt. eigenvalues --    1.09476   1.10997   1.12476   1.12944   1.13571
  Beta virt. eigenvalues --    1.14243   1.14940   1.15339   1.15933   1.16588
  Beta virt. eigenvalues --    1.17259   1.17538   1.18176   1.18339   1.19538
  Beta virt. eigenvalues --    1.20144   1.22000   1.22326   1.23540   1.23750
  Beta virt. eigenvalues --    1.24873   1.25216   1.26397   1.27095   1.28146
  Beta virt. eigenvalues --    1.28707   1.28986   1.29397   1.29770   1.30520
  Beta virt. eigenvalues --    1.31063   1.31338   1.31956   1.32602   1.33437
  Beta virt. eigenvalues --    1.33862   1.34161   1.34448   1.35353   1.35775
  Beta virt. eigenvalues --    1.36670   1.36922   1.37222   1.37634   1.38200
  Beta virt. eigenvalues --    1.38448   1.39109   1.39278   1.39921   1.40089
  Beta virt. eigenvalues --    1.40687   1.41174   1.41519   1.42579   1.43018
  Beta virt. eigenvalues --    1.43261   1.45733   1.46235   1.46754   1.47101
  Beta virt. eigenvalues --    1.47741   1.48554   1.49669   1.50269   1.50983
  Beta virt. eigenvalues --    1.51400   1.51923   1.52931   1.53564   1.54189
  Beta virt. eigenvalues --    1.55248   1.55892   1.56925   1.58039   1.58961
  Beta virt. eigenvalues --    1.59795   1.60674   1.60743   1.61771   1.62428
  Beta virt. eigenvalues --    1.63646   1.65329   1.65713   1.66834   1.67386
  Beta virt. eigenvalues --    1.68478   1.68571   1.69730   1.70067   1.70487
  Beta virt. eigenvalues --    1.71438   1.71885   1.72430   1.73068   1.73764
  Beta virt. eigenvalues --    1.74318   1.75105   1.75344   1.75818   1.76957
  Beta virt. eigenvalues --    1.77168   1.78039   1.78724   1.79463   1.80455
  Beta virt. eigenvalues --    1.81302   1.81620   1.81752   1.82257   1.82613
  Beta virt. eigenvalues --    1.83198   1.83513   1.83943   1.84499   1.85274
  Beta virt. eigenvalues --    1.85495   1.85916   1.86152   1.86708   1.87402
  Beta virt. eigenvalues --    1.87681   1.87811   1.88262   1.88752   1.89748
  Beta virt. eigenvalues --    1.89788   1.90282   1.90694   1.91152   1.91854
  Beta virt. eigenvalues --    1.92418   1.92958   1.93473   1.94082   1.94866
  Beta virt. eigenvalues --    1.95359   1.96545   1.96902   1.97076   1.97368
  Beta virt. eigenvalues --    1.97721   1.98165   1.98665   1.99084   1.99518
  Beta virt. eigenvalues --    1.99839   2.01019   2.01206   2.01438   2.01574
  Beta virt. eigenvalues --    2.01934   2.02287   2.03563   2.04121   2.04466
  Beta virt. eigenvalues --    2.04722   2.05610   2.06023   2.06647   2.07047
  Beta virt. eigenvalues --    2.07401   2.07692   2.08532   2.09085   2.09558
  Beta virt. eigenvalues --    2.10720   2.12000   2.12499   2.13147   2.13943
  Beta virt. eigenvalues --    2.14518   2.15469   2.16730   2.16823   2.17839
  Beta virt. eigenvalues --    2.18408   2.18620   2.20065   2.22397   2.23395
  Beta virt. eigenvalues --    2.24069   2.24877   2.26677   2.27082   2.27409
  Beta virt. eigenvalues --    2.28475   2.28715   2.30217   2.31108   2.32558
  Beta virt. eigenvalues --    2.33883   2.34335   2.37395   2.38807   2.39920
  Beta virt. eigenvalues --    2.40257   2.41813   2.42796   2.42969   2.43497
  Beta virt. eigenvalues --    2.44758   2.45701   2.46438   2.48549   2.48723
  Beta virt. eigenvalues --    2.50283   2.51579   2.52674   2.53121   2.54126
  Beta virt. eigenvalues --    2.54986   2.56559   2.57260   2.59306   2.59665
  Beta virt. eigenvalues --    2.61433   2.61960   2.63787   2.64914   2.65575
  Beta virt. eigenvalues --    2.66852   2.69509   2.70326   2.72519   2.73345
  Beta virt. eigenvalues --    2.74300   2.76131   2.77212   2.78384   2.79420
  Beta virt. eigenvalues --    2.80386   2.80561   2.81759   2.83125   2.84390
  Beta virt. eigenvalues --    2.85258   2.86446   2.87358   2.87944   2.88358
  Beta virt. eigenvalues --    2.89236   2.90211   2.90675   2.92545   2.93611
  Beta virt. eigenvalues --    2.95045   2.95769   2.98021   2.99634   3.02851
  Beta virt. eigenvalues --    3.03576   3.04110   3.04297   3.05215   3.05987
  Beta virt. eigenvalues --    3.07610   3.09498   3.11012   3.11819   3.13406
  Beta virt. eigenvalues --    3.13620   3.15763   3.16340   3.19604   3.21584
  Beta virt. eigenvalues --    3.24899   3.26240   3.26733   3.28109   3.30728
  Beta virt. eigenvalues --    3.31756   3.32659   3.34210   3.40221   3.72213
  Beta virt. eigenvalues --    3.98972   4.03254   4.06769   4.08095   4.18233
  Beta virt. eigenvalues --    4.19392   4.24063   4.28501   4.30938   4.32037
  Beta virt. eigenvalues --    4.34172   4.37688   4.40461   4.42410   4.49381
  Beta virt. eigenvalues --    4.50921   4.57122   4.58652   4.61307   4.65073
  Beta virt. eigenvalues --    4.73245   4.75677   4.86166   4.95975   5.04709
  Beta virt. eigenvalues --    5.12894   5.22315   5.38170   5.46600   5.58816
  Beta virt. eigenvalues --    5.60572   5.65325   5.71398   6.20768   6.26712
  Beta virt. eigenvalues --    6.33864   6.40026
          Condensed to atoms (all electrons):
               1          2          3          4          5          6
     1  O    7.956159   0.535423  -0.064334  -0.003200  -0.000206  -0.000025
     2  C    0.535423   4.279449   0.117438  -0.032728  -0.021497   0.000572
[...]
     7  N(14)             -0.00073      -0.23456      -0.08370      -0.07824
     8  C(13)             -0.00040      -0.44552      -0.15897      -0.14861
     9  F(19)              0.00125       5.25562       1.87534       1.75309
    10  F(19)              0.00003       0.11786       0.04206       0.03931
    11  C(13)              0.00019       0.21503       0.07673       0.07173
    12  F(19)             -0.00006      -0.26148      -0.09330      -0.08722
    13  O(17)             -0.00006       0.03561       0.01270       0.01188
    14  C(13)              0.00000      -0.00155      -0.00055      -0.00052
    15  F(19)              0.00000       0.00116       0.00041       0.00039
    16  F(19)              0.00000      -0.00745      -0.00266      -0.00249
    17  F(19)              0.00006       0.24208       0.08638       0.08075
    18  C(13)             -0.00004      -0.04796      -0.01711      -0.01600
    19  F(19)             -0.00001      -0.02247      -0.00802      -0.00749
    20  F(19)              0.00005       0.21709       0.07746       0.07241
    21  F(19)             -0.00001      -0.02144      -0.00765      -0.00715
    22  C(13)             -0.00210      -2.35859      -0.84160      -0.78674
    23  O(17)              0.00053      -0.32332      -0.11537      -0.10785
    24  N(14)             -0.00623      -2.01180      -0.71786      -0.67106
    25  C(13)              0.00034       0.37747       0.13469       0.12591
    26  F(19)             -0.00034      -1.44730      -0.51643      -0.48277
    27  F(19)              0.00183       7.71750       2.75380       2.57428
    28  C(13)             -0.00086      -0.96324      -0.34371      -0.32130
    29  F(19)             -0.00001      -0.03937      -0.01405      -0.01313
    30  O(17)             -0.00030       0.18142       0.06473       0.06051
    31  C(13)             -0.00005      -0.05908      -0.02108      -0.01971
    32  F(19)             -0.00001      -0.03095      -0.01104      -0.01032
    33  F(19)              0.00000      -0.00714      -0.00255      -0.00238
    34  F(19)              0.00000       0.00708       0.00253       0.00236
    35  C(13)             -0.00001      -0.00634      -0.00226      -0.00212
    36  F(19)              0.00000       0.01583       0.00565       0.00528
    37  F(19)              0.00060       2.53901       0.90598       0.84692
    38  F(19)             -0.00010      -0.43078      -0.15371      -0.14369
    39  H(1)              -0.00269     -12.01672      -4.28786      -4.00834
 --------------------------------------------------------
       Center         ----  Spin Dipole Couplings  ----
                      3XX-RR        3YY-RR        3ZZ-RR
 --------------------------------------------------------
     1   Atom       -0.368328      0.622676     -0.254347
     2   Atom        0.059112     -0.103495      0.044383
     3   Atom        0.063872      0.528025     -0.591897
     4   Atom        0.599202      0.160918     -0.760120
     5   Atom       -0.030954     -0.005637      0.036591
     6   Atom        0.370849     -0.087998     -0.282852
     7   Atom       -0.002009      0.007952     -0.005942
     8   Atom       -0.000952     -0.001169      0.002121
     9   Atom        0.004744     -0.002218     -0.002526
    10   Atom       -0.003111      0.007035     -0.003924
    11   Atom       -0.000331     -0.000728      0.001059
    12   Atom       -0.000974     -0.000644      0.001619
    13   Atom       -0.000254     -0.000586      0.000840
    14   Atom        0.000162     -0.000719      0.000557
    15   Atom        0.000167     -0.000427      0.000260
    16   Atom        0.000005     -0.000526      0.000521
    17   Atom        0.001229     -0.001278      0.000049
    18   Atom        0.000000     -0.000293      0.000293
    19   Atom       -0.000130     -0.000132      0.000262
    20   Atom        0.000512     -0.000603      0.000091
    21   Atom       -0.000034      0.000009      0.000025
    22   Atom       -0.003142     -0.002944      0.006087
    23   Atom       -0.038398      0.037511      0.000887
    24   Atom       -0.001903     -0.038120      0.040022
    25   Atom       -0.001963     -0.001713      0.003677
    26   Atom       -0.002634     -0.002333      0.004967
    27   Atom       -0.003664     -0.011971      0.015635
    28   Atom       -0.000758     -0.001158      0.001916
    29   Atom       -0.000484     -0.000356      0.000839
    30   Atom       -0.000285     -0.000495      0.000780
    31   Atom        0.000075     -0.000368      0.000293
    32   Atom        0.000024     -0.000224      0.000200
    33   Atom        0.000335     -0.000387      0.000052
    34   Atom        0.000068     -0.000237      0.000168
    35   Atom        0.000910     -0.000755     -0.000154
    36   Atom        0.001081     -0.000568     -0.000513
    37   Atom       -0.002863      0.009032     -0.006169
    38   Atom        0.002382     -0.002114     -0.000268
    39   Atom        0.002442      0.020147     -0.022589
 --------------------------------------------------------
                        XY            XZ            YZ
 --------------------------------------------------------
     1   Atom        0.304702      0.142752      0.489702
     2   Atom       -0.087317     -0.029076     -0.035767
     3   Atom        0.864909      0.093919      0.117754
     4   Atom        1.080221      0.018852      0.046520
     5   Atom       -0.087679     -0.000504     -0.003642
     6   Atom        0.364036      0.085575      0.056091
     7   Atom        0.012317      0.010628      0.006383
     8   Atom       -0.001235      0.001318     -0.001694
     9   Atom       -0.010470      0.012331     -0.009264
    10   Atom       -0.007548      0.001519     -0.005902
    11   Atom       -0.000484      0.001137     -0.000728
    12   Atom       -0.000221      0.000733     -0.001226
    13   Atom       -0.000148      0.000720     -0.000224
    14   Atom        0.000030      0.001076      0.000093
    15   Atom       -0.000025      0.000647     -0.000011
    16   Atom        0.000235      0.000845      0.000359
    17   Atom        0.000248      0.001914      0.000241
    18   Atom       -0.000379      0.000677     -0.000462
    19   Atom       -0.000175      0.000366     -0.000278
    20   Atom       -0.000515      0.001064     -0.000410
    21   Atom       -0.000452      0.000489     -0.000509
    22   Atom       -0.001152     -0.003657     -0.008470
    23   Atom        0.004076     -0.004978      0.030499
    24   Atom       -0.030995     -0.000385      0.003005
    25   Atom       -0.000098     -0.000884     -0.000819
    26   Atom       -0.000333      0.002351     -0.003027
    27   Atom       -0.001576     -0.016179      0.005999
    28   Atom       -0.000591     -0.001469     -0.000819
    29   Atom        0.000101     -0.001161     -0.001064
    30   Atom        0.000124     -0.000748     -0.000223
    31   Atom        0.000078     -0.000585     -0.000159
    32   Atom        0.000016     -0.000315     -0.000038
    33   Atom        0.000112     -0.000612     -0.000094
    34   Atom        0.000241     -0.000482     -0.000271
    35   Atom        0.001373     -0.002243     -0.001258
    36   Atom        0.000909     -0.001186     -0.000641
    37   Atom        0.009127     -0.004318     -0.007034
    38   Atom        0.000910     -0.002949     -0.000688
    39   Atom       -0.035482     -0.022760      0.033612
 --------------------------------------------------------


 ---------------------------------------------------------------------------------
              Anisotropic Spin Dipole Couplings in Principal Axis System
 ---------------------------------------------------------------------------------

       Atom             a.u.   MegaHertz   Gauss  10(-4) cm-1        Axes

              Baa    -0.4749    34.366    12.263    11.463 -0.2793 -0.3255  0.9034
     1 O(17)  Bbb    -0.4538    32.839    11.718    10.954  0.9268 -0.3374  0.1650
              Bcc     0.9288   -67.205   -23.980   -22.417  0.2511  0.8833  0.3959
 
              Baa    -0.1516   -20.342    -7.259    -6.785  0.3993  0.8897  0.2216
     2 C(13)  Bbb     0.0513     6.879     2.455     2.295  0.1468 -0.3006  0.9424
              Bcc     0.1003    13.463     4.804     4.491  0.9050 -0.3437 -0.2506
 
              Baa    -0.6058   -23.365    -8.337    -7.794 -0.3743  0.1913  0.9073
     3 N(14)  Bbb    -0.5983   -23.074    -8.233    -7.697  0.7014 -0.5817  0.4120
              Bcc     1.2041    46.439    16.570    15.490  0.6066  0.7906  0.0836
 
              Baa    -0.7725    55.898    19.946    18.646  0.2595 -0.3452  0.9019
     4 O(17)  Bbb    -0.7106    51.422    18.349    17.152 -0.5777  0.6929  0.4314
              Bcc     1.4831  -107.320   -38.294   -35.798  0.7739  0.6330  0.0196
 
              Baa    -0.1069   -14.350    -5.120    -4.787  0.7556  0.6547  0.0193
     5 C(13)  Bbb     0.0365     4.894     1.746     1.632 -0.0613  0.0414  0.9973
              Bcc     0.0705     9.456     3.374     3.154 -0.6521  0.7547 -0.0715
 
              Baa    -0.3001    21.718     7.750     7.244  0.1889 -0.5409  0.8196
     6 O(17)  Bbb    -0.2836    20.521     7.322     6.845 -0.4573  0.6902  0.5609
              Bcc     0.5837   -42.239   -15.072   -14.089  0.8690  0.4807  0.1169
 
              Baa    -0.0154    -0.593    -0.212    -0.198  0.7133 -0.1923 -0.6739
     7 N(14)  Bbb    -0.0057    -0.220    -0.079    -0.073 -0.4118  0.6631 -0.6251
              Bcc     0.0211     0.813     0.290     0.271  0.5671  0.7234  0.3939
 
              Baa    -0.0023    -0.315    -0.112    -0.105  0.5846  0.8007  0.1310
     8 C(13)  Bbb    -0.0011    -0.154    -0.055    -0.051  0.7265 -0.4449 -0.5237
              Bcc     0.0035     0.469     0.167     0.156  0.3610 -0.4013  0.8418
 
              Baa    -0.0122    -6.152    -2.195    -2.052 -0.3697  0.3921  0.8424
     9 F(19)  Bbb    -0.0097    -4.894    -1.746    -1.633  0.6293  0.7726 -0.0834
              Bcc     0.0220    11.047     3.942     3.685  0.6836 -0.4993  0.5324
 
              Baa    -0.0080    -4.036    -1.440    -1.346  0.6598  0.5365  0.5262
    10 F(19)  Bbb    -0.0051    -2.556    -0.912    -0.853 -0.6210 -0.0051  0.7838
              Bcc     0.0131     6.592     2.352     2.199 -0.4232  0.8439 -0.3298
 
              Baa    -0.0011    -0.142    -0.050    -0.047  0.6333  0.7702 -0.0754
    11 C(13)  Bbb    -0.0009    -0.124    -0.044    -0.041  0.6136 -0.5591 -0.5575
              Bcc     0.0020     0.265     0.095     0.088  0.4715 -0.3069  0.8267
 
              Baa    -0.0013    -0.631    -0.225    -0.210 -0.6255  0.6474  0.4356
    12 F(19)  Bbb    -0.0011    -0.540    -0.193    -0.180  0.7473  0.6575  0.0960
              Bcc     0.0023     1.170     0.418     0.390  0.2242 -0.3856  0.8950
 
              Baa    -0.0007     0.047     0.017     0.016  0.6129  0.7692 -0.1806
    13 O(17)  Bbb    -0.0006     0.042     0.015     0.014  0.6547 -0.6224 -0.4289
              Bcc     0.0012    -0.089    -0.032    -0.030  0.4423 -0.1447  0.8851
 
              Baa    -0.0008    -0.103    -0.037    -0.034  0.5664  0.6502 -0.5064
    14 C(13)  Bbb    -0.0007    -0.093    -0.033    -0.031 -0.5204  0.7587  0.3919
              Bcc     0.0015     0.196     0.070     0.065  0.6390  0.0416  0.7681
 
              Baa    -0.0004    -0.222    -0.079    -0.074  0.5965  0.5941 -0.5397
    15 F(19)  Bbb    -0.0004    -0.211    -0.075    -0.070 -0.4241  0.8042  0.4165
              Bcc     0.0009     0.433     0.155     0.144  0.6814 -0.0196  0.7316
 
              Baa    -0.0006    -0.326    -0.116    -0.109  0.4099  0.7462 -0.5245
    16 F(19)  Bbb    -0.0006    -0.302    -0.108    -0.101  0.7075 -0.6231 -0.3335
              Bcc     0.0012     0.627     0.224     0.209  0.5757  0.2343  0.7834
 
              Baa    -0.0014    -0.698    -0.249    -0.233 -0.4856 -0.4851  0.7272
    17 F(19)  Bbb    -0.0013    -0.644    -0.230    -0.215 -0.3503  0.8702  0.3465
              Bcc     0.0027     1.342     0.479     0.448  0.8009  0.0865  0.5925
 
              Baa    -0.0006    -0.074    -0.027    -0.025  0.6182  0.7832 -0.0665
    18 C(13)  Bbb    -0.0005    -0.073    -0.026    -0.024 -0.5332  0.4800  0.6967
              Bcc     0.0011     0.147     0.052     0.049  0.5776 -0.3952  0.7143
 
              Baa    -0.0004    -0.176    -0.063    -0.059  0.8711  0.0823 -0.4841
    19 F(19)  Bbb    -0.0003    -0.138    -0.049    -0.046  0.1285  0.9133  0.3865
              Bcc     0.0006     0.313     0.112     0.105  0.4739 -0.3989  0.7850
 
              Baa    -0.0008    -0.404    -0.144    -0.135  0.4521  0.8820 -0.1330
    20 F(19)  Bbb    -0.0008    -0.391    -0.140    -0.130 -0.4969  0.3729  0.7836
              Bcc     0.0016     0.795     0.284     0.265  0.7407 -0.2882  0.6069
 
              Baa    -0.0005    -0.253    -0.090    -0.084 -0.4464  0.4011  0.7999
    21 F(19)  Bbb    -0.0005    -0.234    -0.083    -0.078  0.7032  0.7101  0.0364
              Bcc     0.0010     0.486     0.173     0.162  0.5534 -0.5787  0.5990
 
              Baa    -0.0094    -1.263    -0.451    -0.421  0.4336  0.7437  0.5088
    22 C(13)  Bbb    -0.0022    -0.297    -0.106    -0.099  0.8841 -0.4604 -0.0804
              Bcc     0.0116     1.559     0.556     0.520 -0.1745 -0.4847  0.8571
 
              Baa    -0.0401     2.902     1.035     0.968  0.9661 -0.1368  0.2191
    23 O(17)  Bbb    -0.0147     1.062     0.379     0.354 -0.2581 -0.4723  0.8428
              Bcc     0.0548    -3.964    -1.415    -1.322  0.0118  0.8707  0.4916
 
              Baa    -0.0560    -2.159    -0.770    -0.720  0.4971  0.8674 -0.0252
    24 N(14)  Bbb     0.0157     0.607     0.217     0.203  0.8661 -0.4942  0.0749
              Bcc     0.0402     1.551     0.554     0.517 -0.0525  0.0590  0.9969
 
              Baa    -0.0022    -0.298    -0.106    -0.099  0.8551  0.4805  0.1950
    25 C(13)  Bbb    -0.0017    -0.229    -0.082    -0.076 -0.4979  0.8658  0.0499
              Bcc     0.0039     0.527     0.188     0.176 -0.1448 -0.1398  0.9795
 
              Baa    -0.0038    -1.910    -0.682    -0.637 -0.6088  0.6853  0.3997
    26 F(19)  Bbb    -0.0028    -1.426    -0.509    -0.476  0.7550  0.6552  0.0267
              Bcc     0.0066     3.336     1.190     1.113  0.2436 -0.3180  0.9163
 
              Baa    -0.0145    -7.263    -2.592    -2.423 -0.5548  0.7066 -0.4391
    27 F(19)  Bbb    -0.0113    -5.683    -2.028    -1.896  0.6781  0.6899  0.2535
              Bcc     0.0258    12.946     4.619     4.318 -0.4821  0.1571  0.8619
 
              Baa    -0.0022    -0.294    -0.105    -0.098  0.6511  0.6650  0.3659
    28 C(13)  Bbb    -0.0005    -0.060    -0.022    -0.020 -0.6613  0.7336 -0.1564
              Bcc     0.0026     0.354     0.126     0.118 -0.3725 -0.1401  0.9174
 
              Baa    -0.0014    -0.716    -0.255    -0.239  0.6482  0.5053  0.5697
    29 F(19)  Bbb    -0.0005    -0.257    -0.092    -0.086 -0.6416  0.7653  0.0512
              Bcc     0.0019     0.973     0.347     0.324 -0.4101 -0.3987  0.8203
 
              Baa    -0.0007     0.049     0.017     0.016  0.8910 -0.0543  0.4507
    30 O(17)  Bbb    -0.0005     0.039     0.014     0.013 -0.0192  0.9874  0.1568
              Bcc     0.0012    -0.087    -0.031    -0.029 -0.4536 -0.1484  0.8788
 
              Baa    -0.0004    -0.060    -0.021    -0.020  0.5431  0.6210  0.5651
    31 C(13)  Bbb    -0.0004    -0.048    -0.017    -0.016 -0.5569  0.7701 -0.3111
              Bcc     0.0008     0.108     0.038     0.036 -0.6284 -0.1457  0.7641
 
              Baa    -0.0002    -0.117    -0.042    -0.039  0.3642  0.8667  0.3409
    32 F(19)  Bbb    -0.0002    -0.105    -0.038    -0.035  0.7102 -0.4952  0.5003
              Bcc     0.0004     0.222     0.079     0.074 -0.6024 -0.0599  0.7959
 
              Baa    -0.0004    -0.218    -0.078    -0.073  0.6078  0.1158  0.7856
    33 F(19)  Bbb    -0.0004    -0.203    -0.072    -0.068 -0.1648  0.9862 -0.0178
              Bcc     0.0008     0.422     0.150     0.141  0.7768  0.1186 -0.6185
 
              Baa    -0.0004    -0.187    -0.067    -0.062  0.0858  0.8580  0.5064
    34 F(19)  Bbb    -0.0004    -0.183    -0.065    -0.061  0.7743 -0.3773  0.5080
              Bcc     0.0007     0.371     0.132     0.124 -0.6270 -0.3485  0.6968
 
              Baa    -0.0020    -0.264    -0.094    -0.088  0.5061  0.2751  0.8174
    35 C(13)  Bbb    -0.0015    -0.205    -0.073    -0.068 -0.4859  0.8740  0.0068
              Bcc     0.0035     0.469     0.167     0.156  0.7125  0.4006 -0.5760
 
              Baa    -0.0012    -0.615    -0.219    -0.205  0.2394  0.4884  0.8392
    36 F(19)  Bbb    -0.0009    -0.470    -0.168    -0.157 -0.5348  0.7877 -0.3058
              Bcc     0.0022     1.085     0.387     0.362  0.8104  0.3756 -0.4497
 
              Baa    -0.0092    -4.637    -1.655    -1.547  0.4009  0.1478  0.9041
    37 F(19)  Bbb    -0.0077    -3.861    -1.378    -1.288  0.7957 -0.5453 -0.2637
              Bcc     0.0169     8.498     3.032     2.835  0.4540  0.8251 -0.3363
 
              Baa    -0.0023    -1.180    -0.421    -0.394  0.1036  0.8913  0.4414
    38 F(19)  Bbb    -0.0021    -1.073    -0.383    -0.358  0.5537 -0.4203  0.7188
              Bcc     0.0045     2.253     0.804     0.752  0.8262  0.1699 -0.5371
 
              Baa    -0.0414   -22.104    -7.887    -7.373  0.1303 -0.4161  0.8999
    39 H(1)   Bbb    -0.0249   -13.285    -4.740    -4.431  0.8248  0.5492  0.1345
              Bcc     0.0663    35.389    12.628    11.805 -0.5503  0.7247  0.4148
 

 ---------------------------------------------------------------------------------

 No NMR shielding tensors so no spin-rotation constants.
 Leave Link  601 at Sun Mar  3 17:32:32 2024, MaxMem=  5368709120 cpu:         6.2
 (Enter /home/k0335/k033513/app/g09/l9999.exe)
 1\1\GINC-C24U16N4\SP\UCAM-B3LYP\6-31G(d,p)\C11H1F18N3O6(1+,2)\K033513\
 03-Mar-2024\0\\#p CAM-B3LYP/6-31G(d,p) SCRF=(PCM,Solvent=Generic,Read)
  NoSymm out=wfn\\Title A1671897791_p1\\1,2\O,0,-1.824186,1.842952,-2.2
 83461\C,0,-0.820097,1.305298,-1.822603\N,0,0.251888,0.920761,-2.594032
 \O,0,0.08794,1.075427,-3.991743\C,0,1.150536,-0.046146,-2.210096\O,0,1
 .719466,-0.726569,-3.063774\N,0,1.278201,-0.217758,-0.850339\C,0,2.292
 627,-1.179675,-0.42372\F,0,3.37512,-1.018112,-1.239397\F,0,1.833955,-2
 .435044,-0.679527\C,0,2.810599,-1.09604,1.044694\F,0,1.935899,-1.77169
 ,1.863095\O,0,2.821134,0.230817,1.595816\C,0,3.884695,1.035605,1.16061
 1\F,0,5.033031,0.625849,1.711118\F,0,3.63885,2.302806,1.534989\F,0,3.9
 60059,0.99691,-0.177014\C,0,4.126351,-1.884602,1.103659\F,0,4.607159,-
 1.918856,2.371059\F,0,5.098011,-1.342774,0.337272\F,0,3.971241,-3.1661
 77,0.704407\C,0,0.185599,0.016761,-0.051895\O,0,-0.001053,-0.611898,0.
 981205\N,0,-0.72486,0.951947,-0.49217\C,0,-1.817698,1.315831,0.39955\F
 ,0,-1.23655,1.603926,1.613893\F,0,-2.330945,2.527983,0.030432\C,0,-2.9
 92193,0.328588,0.662497\F,0,-2.501494,-0.84571,1.154525\O,0,-3.789606,
 0.896221,1.71762\C,0,-4.971548,0.186076,1.972329\F,0,-5.427065,0.53399
 4,3.189924\F,0,-5.89288,0.528075,1.056435\F,0,-4.76546,-1.139267,1.947
 536\C,0,-3.710332,0.051325,-0.65762\F,0,-4.701272,-0.85961,-0.509028\F
 ,0,-2.86192,-0.480285,-1.570879\F,0,-4.269292,1.157514,-1.182765\H,0,0
 .576088,0.305548,-4.352603\\Version=ES64L-G09RevD.01\HF=-2831.3155803\
 S2=0.773916\S2-1=0.\S2A=0.750336\RMSD=8.873e-09\Dipole=0.9077562,1.232
 826,-4.904606\Quadrupole=-4.7933928,-10.6490053,15.4423982,3.5423504,-
 3.9074885,-3.5405287\PG=C01 [X(C11H1F18N3O6)]\\@

 Writing a WFN file to "A1671897791/A1671897791_p1.wfn"


 TO ERR IS HUMAN - AND TO BLAME IT ON A COMPUTER IS EVEN MORE SO.
 Job cpu time:       0 days  0 hours 47 minutes 49.7 seconds.
 File lengths (MBytes):  RWF=    492 Int=      0 D2E=      0 Chk=     17 Scr=      1
 Normal termination of Gaussian 09 at Sun Mar  3 17:32:32 2024.
