 Entering Gaussian System, Link 0=g09
 Initial command:
 /home/k0335/k033513/app/g09/l1.exe "/home/k0335/k033513/app/g09/scratch/Gau-580160.inp" -scrdir="/home/k0335/k033513/app/g09/scratch/"
 Default is to use a total of  36 processors:
                               36 via shared-memory
                                1 via Linda
 Entering Link 1 = /home/k0335/k033513/app/g09/l1.exe PID=    580161.
  
 Copyright (c) 1988,1990,1992,1993,1995,1998,2003,2009,2013,
            Gaussian, Inc.  All Rights Reserved.
  
 This is part of the Gaussian(R) 09 program.  It is based on
 the Gaussian(R) 03 system (copyright 2003, Gaussian, Inc.),
 the Gaussian(R) 98 system (copyright 1998, Gaussian, Inc.),
 the Gaussian(R) 94 system (copyright 1995, Gaussian, Inc.),
 the Gaussian 92(TM) system (copyright 1992, Gaussian, Inc.),
 the Gaussian 90(TM) system (copyright 1990, Gaussian, Inc.),
 the Gaussian 88(TM) system (copyright 1988, Gaussian, Inc.),
 the Gaussian 86(TM) system (copyright 1986, Carnegie Mellon
 University), and the Gaussian 82(TM) system (copyright 1983,
 Carnegie Mellon University). Gaussian is a federally registered
 trademark of Gaussian, Inc.
  
 This software contains proprietary and confidential information,
 including trade secrets, belonging to Gaussian, Inc.
  
 This software is provided under written license and may be
 used, copied, transmitted, or stored only in accord with that
 written license.
  
 The following legend is applicable only to US Government
 contracts under FAR:
  
                    RESTRICTED RIGHTS LEGEND
  
 Use, reproduction and disclosure by the US Government is
 subject to restrictions as set forth in subparagraphs (a)
 and (c) of the Commercial Computer Software - Restricted
 Rights clause in FAR 52.227-19.
  
 Gaussian, Inc.
 340 Quinnipiac St., Bldg. 40, Wallingford CT 06492
  
  
 ---------------------------------------------------------------
 Warning -- This program may not be used in any manner that
 competes with the business of Gaussian, Inc. or will provide
 assistance to any competitor of Gaussian, Inc.  The licensee
 of this program is prohibited from giving any competitor of
 Gaussian, Inc. access to this program.  By using this program,
 the user acknowledges that Gaussian, Inc. is engaged in the
 business of creating and licensing software in the field of
 computational chemistry and represents and warrants to the
 licensee that it is not a competitor of Gaussian, Inc. and that
 it will not use this program in any manner prohibited above.
 ---------------------------------------------------------------
  

 Cite this work as:
 Gaussian 09, Revision D.01,
 M. J. Frisch, G. W. Trucks, H. B. Schlegel, G. E. Scuseria, 
 M. A. Robb, J. R. Cheeseman, G. Scalmani, V. Barone, B. Mennucci, 
 G. A. Petersson, H. Nakatsuji, M. Caricato, X. Li, H. P. Hratchian, 
 A. F. Izmaylov, J. Bloino, G. Zheng, J. L. Sonnenberg, M. Hada, 
 M. Ehara, K. Toyota, R. Fukuda, J. Hasegawa, M. Ishida, T. Nakajima, 
 Y. Honda, O. Kitao, H. Nakai, T. Vreven, J. A. Montgomery, Jr., 
 J. E. Peralta, F. Ogliaro, M. Bearpark, J. J. Heyd, E. Brothers, 
 K. N. Kudin, V. N. Staroverov, T. Keith, R. Kobayashi, J. Normand, 
 K. Raghavachari, A. Rendell, J. C. Burant, S. S. Iyengar, J. Tomasi, 
 M. Cossi, N. Rega, J. M. Millam, M. Klene, J. E. Knox, J. B. Cross, 
 V. Bakken, C. Adamo, J. Jaramillo, R. Gomperts, R. E. Stratmann, 
 O. Yazyev, A. J. Austin, R. Cammi, C. Pomelli, J. W. Ochterski, 
 R. L. Martin, K. Morokuma, V. G. Zakrzewski, G. A. Voth, 
 P. Salvador, J. J. Dannenberg, S. Dapprich, A. D. Daniels, 
 O. Farkas, J. B. Foresman, J. V. Ortiz, J. Cioslowski, 
 and D. J. Fox, Gaussian, Inc., Wallingford CT, 2013.
 
 ******************************************
 Gaussian 09:  ES64L-G09RevD.01 24-Apr-2013
                 3-Mar-2024 
 ******************************************
 %nprocshared=24
 Will use up to   24 processors via shared memory.
 %mem=40GB
 %rwf=A153226972/A153226972_0.rwf
 %nosave
 %chk=A153226972/A153226972_0.chk
 ----------------------------------------------------------------------
 #p CAM-B3LYP/6-31G(d,p) SCRF=(PCM,Solvent=Generic,Read) NoSymm out=wfn
 ----------------------------------------------------------------------
 1/38=1,40=2/1;
 2/12=2,15=1,17=6,18=5,40=1/2;
 3/5=1,6=6,7=101,11=2,16=1,25=1,30=1,70=2203,72=-2,74=-40/1,2,3;
 4//1;
 5/5=2,38=5/2;
 6/7=2,8=2,9=2,10=2,28=1/1;
 99/5=1,6=100,9=1/99;
 Leave Link    1 at Sun Mar  3 17:21:43 2024, MaxMem=  5368709120 cpu:         0.8
 (Enter /home/k0335/k033513/app/g09/l101.exe)
 ------------------
 Title A153226972_0
 ------------------
 Symbolic Z-matrix:
 Charge =  0 Multiplicity = 1
 C                     0.22941  -0.01101  -3.31423 
 N                     0.22832  -0.15898  -1.86679 
 C                    -0.82645  -0.83451  -1.2878 
 O                    -1.7331   -1.31253  -1.96749 
 N                    -0.82714  -0.87785   0.0832 
 C                    -1.99683  -1.44606   0.74138 
 F                    -1.6161   -1.88531   1.97627 
 F                    -2.33809  -2.59793   0.09287 
 C                    -3.23555  -0.51681   0.85827 
 F                    -2.94398   0.52326   1.69199 
 O                    -3.51025   0.08752  -0.41034 
 C                    -4.75      0.7427   -0.45678 
 F                    -5.7295   -0.16621  -0.5831 
 F                    -4.76436   1.54766  -1.5354 
 F                    -4.94553   1.48801   0.64112 
 C                    -4.3359   -1.38842   1.48098 
 F                    -5.43635  -0.65782   1.78424 
 F                    -4.7421   -2.36567   0.63955 
 F                    -3.94979  -1.98116   2.63163 
 C                    -0.0321   -0.03058   0.81559 
 O                    -0.37672   0.37156   1.92275 
 N                     1.13845   0.36743   0.21217 
 C                     2.07369   1.11901   1.04557 
 F                     2.07064   0.54265   2.28388 
 F                     1.58868   2.37687   1.2329 
 C                     3.56099   1.1917    0.58294 
 F                     3.69631   2.21005  -0.3319 
 O                     4.01933   0.03702  -0.14006 
 C                     4.299    -1.07989   0.66113 
 F                     5.42598  -0.88197   1.35503 
 F                     3.27034  -1.317     1.48628 
 F                     4.4547   -2.1478   -0.14094 
 C                     4.39086   1.61926   1.80136 
 F                     4.36208   0.71318   2.80297 
 F                     5.69465   1.77386   1.45941 
 F                     3.97579   2.79768   2.3159 
 C                     1.12208   0.5956   -1.13592 
 O                     1.81914   1.45121  -1.67102 
 H                    -0.41653   0.83322  -3.57578 
 H                     1.24026   0.18353  -3.68498 
 H                    -0.15435  -0.91548  -3.79572 
 
 NAtoms=     41 NQM=       41 NQMF=       0 NMMI=      0 NMMIF=      0
                NMic=       0 NMicF=      0.
                    Isotopes and Nuclear Properties:
 (Nuclear quadrupole moments (NQMom) in fm**2, nuclear magnetic moments (NMagM)
  in nuclear magnetons)

  Atom         1           2           3           4           5           6           7           8           9          10
 IAtWgt=          12          14          12          16          14          12          19          19          12          19
 AtmWgt=  12.0000000  14.0030740  12.0000000  15.9949146  14.0030740  12.0000000  18.9984033  18.9984033  12.0000000  18.9984033
 NucSpn=           0           2           0           0           2           0           1           1           0           1
 AtZEff=   0.0000000   0.0000000   0.0000000   0.0000000   0.0000000   0.0000000   0.0000000   0.0000000   0.0000000   0.0000000
 NQMom=    0.0000000   2.0440000   0.0000000   0.0000000   2.0440000   0.0000000   0.0000000   0.0000000   0.0000000   0.0000000
 NMagM=    0.0000000   0.4037610   0.0000000   0.0000000   0.4037610   0.0000000   2.6288670   2.6288670   0.0000000   2.6288670
 AtZNuc=   6.0000000   7.0000000   6.0000000   8.0000000   7.0000000   6.0000000   9.0000000   9.0000000   6.0000000   9.0000000

  Atom        11          12          13          14          15          16          17          18          19          20
 IAtWgt=          16          12          19          19          19          12          19          19          19          12
 AtmWgt=  15.9949146  12.0000000  18.9984033  18.9984033  18.9984033  12.0000000  18.9984033  18.9984033  18.9984033  12.0000000
 NucSpn=           0           0           1           1           1           0           1           1           1           0
 AtZEff=   0.0000000   0.0000000   0.0000000   0.0000000   0.0000000   0.0000000   0.0000000   0.0000000   0.0000000   0.0000000
 NQMom=    0.0000000   0.0000000   0.0000000   0.0000000   0.0000000   0.0000000   0.0000000   0.0000000   0.0000000   0.0000000
 NMagM=    0.0000000   0.0000000   2.6288670   2.6288670   2.6288670   0.0000000   2.6288670   2.6288670   2.6288670   0.0000000
 AtZNuc=   8.0000000   6.0000000   9.0000000   9.0000000   9.0000000   6.0000000   9.0000000   9.0000000   9.0000000   6.0000000

  Atom        21          22          23          24          25          26          27          28          29          30
 IAtWgt=          16          14          12          19          19          12          19          16          12          19
 AtmWgt=  15.9949146  14.0030740  12.0000000  18.9984033  18.9984033  12.0000000  18.9984033  15.9949146  12.0000000  18.9984033
 NucSpn=           0           2           0           1           1           0           1           0           0           1
 AtZEff=   0.0000000   0.0000000   0.0000000   0.0000000   0.0000000   0.0000000   0.0000000   0.0000000   0.0000000   0.0000000
 NQMom=    0.0000000   2.0440000   0.0000000   0.0000000   0.0000000   0.0000000   0.0000000   0.0000000   0.0000000   0.0000000
 NMagM=    0.0000000   0.4037610   0.0000000   2.6288670   2.6288670   0.0000000   2.6288670   0.0000000   0.0000000   2.6288670
 AtZNuc=   8.0000000   7.0000000   6.0000000   9.0000000   9.0000000   6.0000000   9.0000000   8.0000000   6.0000000   9.0000000

  Atom        31          32          33          34          35          36          37          38          39          40
 IAtWgt=          19          19          12          19          19          19          12          16           1           1
 AtmWgt=  18.9984033  18.9984033  12.0000000  18.9984033  18.9984033  18.9984033  12.0000000  15.9949146   1.0078250   1.0078250
 NucSpn=           1           1           0           1           1           1           0           0           1           1
 AtZEff=   0.0000000   0.0000000   0.0000000   0.0000000   0.0000000   0.0000000   0.0000000   0.0000000   0.0000000   0.0000000
 NQMom=    0.0000000   0.0000000   0.0000000   0.0000000   0.0000000   0.0000000   0.0000000   0.0000000   0.0000000   0.0000000
 NMagM=    2.6288670   2.6288670   0.0000000   2.6288670   2.6288670   2.6288670   0.0000000   0.0000000   2.7928460   2.7928460
 AtZNuc=   9.0000000   9.0000000   6.0000000   9.0000000   9.0000000   9.0000000   6.0000000   8.0000000   1.0000000   1.0000000

  Atom        41
 IAtWgt=           1
 AtmWgt=   1.0078250
 NucSpn=           1
 AtZEff=   0.0000000
 NQMom=    0.0000000
 NMagM=    2.7928460
 AtZNuc=   1.0000000
 Leave Link  101 at Sun Mar  3 17:21:43 2024, MaxMem=  5368709120 cpu:         0.8
 (Enter /home/k0335/k033513/app/g09/l202.exe)
                          Input orientation:                          
 ---------------------------------------------------------------------
 Center     Atomic      Atomic             Coordinates (Angstroms)
 Number     Number       Type             X           Y           Z
 ---------------------------------------------------------------------
      1          6           0        0.229411   -0.011010   -3.314227
      2          7           0        0.228320   -0.158978   -1.866789
      3          6           0       -0.826446   -0.834508   -1.287799
      4          8           0       -1.733095   -1.312534   -1.967486
      5          7           0       -0.827142   -0.877845    0.083195
      6          6           0       -1.996830   -1.446064    0.741384
      7          9           0       -1.616104   -1.885309    1.976269
      8          9           0       -2.338093   -2.597933    0.092865
      9          6           0       -3.235549   -0.516806    0.858268
     10          9           0       -2.943976    0.523258    1.691994
     11          8           0       -3.510246    0.087517   -0.410338
     12          6           0       -4.749999    0.742700   -0.456778
     13          9           0       -5.729495   -0.166208   -0.583100
     14          9           0       -4.764358    1.547655   -1.535404
     15          9           0       -4.945529    1.488014    0.641118
     16          6           0       -4.335901   -1.388415    1.480978
     17          9           0       -5.436349   -0.657822    1.784239
     18          9           0       -4.742099   -2.365669    0.639550
     19          9           0       -3.949792   -1.981159    2.631629
     20          6           0       -0.032102   -0.030580    0.815587
     21          8           0       -0.376718    0.371562    1.922746
     22          7           0        1.138453    0.367430    0.212165
     23          6           0        2.073687    1.119006    1.045572
     24          9           0        2.070640    0.542652    2.283884
     25          9           0        1.588676    2.376872    1.232895
     26          6           0        3.560992    1.191700    0.582939
     27          9           0        3.696306    2.210052   -0.331903
     28          8           0        4.019330    0.037019   -0.140057
     29          6           0        4.299003   -1.079892    0.661130
     30          9           0        5.425978   -0.881965    1.355027
     31          9           0        3.270341   -1.317001    1.486281
     32          9           0        4.454704   -2.147802   -0.140938
     33          6           0        4.390858    1.619256    1.801360
     34          9           0        4.362084    0.713176    2.802966
     35          9           0        5.694650    1.773860    1.459409
     36          9           0        3.975786    2.797683    2.315896
     37          6           0        1.122075    0.595602   -1.135922
     38          8           0        1.819143    1.451209   -1.671019
     39          1           0       -0.416527    0.833220   -3.575783
     40          1           0        1.240258    0.183532   -3.684975
     41          1           0       -0.154349   -0.915478   -3.795723
 ---------------------------------------------------------------------
                    Distance matrix (angstroms):
                    1          2          3          4          5
     1  C    0.000000
     2  N    1.454982   0.000000
     3  C    2.428867   1.379892   0.000000
     4  O    2.712767   2.277714   1.229836   0.000000
     5  N    3.661992   2.330924   1.371679   2.283637   0.000000
     6  C    4.843915   3.662028   2.421029   2.724952   1.457483
     7  F    5.908322   4.599045   3.518790   3.986849   2.284989
     8  F    4.989241   4.046631   2.702032   2.502662   2.289491
     9  C    5.447154   4.421806   3.241962   3.297793   2.555682
    10  F    5.951309   4.815999   3.899568   4.269445   3.005380
    11  O    4.735748   4.019812   2.970328   2.746474   2.893881
    12  C    5.790304   5.252125   4.309576   3.950688   4.278615
    13  F    6.556806   6.094544   4.998311   4.381986   4.998344
    14  F    5.525520   5.286705   4.609030   4.189980   4.899447
    15  F    6.683699   5.980877   5.107022   4.996761   4.782225
    16  C    6.762641   5.792337   4.504355   4.321141   3.811282
    17  F    7.649416   6.757760   5.542548   5.312079   4.918003
    18  F    6.774414   5.988012   4.625091   4.118232   4.224931
    19  F    7.529969   6.404118   5.141208   5.149045   4.178847
    20  C    4.138132   2.698045   2.387785   3.504608   1.373443
    21  O    5.285796   3.874031   3.458968   4.450825   2.268887
    22  N    3.661286   2.329699   2.748704   3.977304   2.330431
    23  C    4.866841   3.677019   4.203761   5.429778   3.650807
    24  F    5.919080   4.595053   4.800687   5.998688   3.906147
    25  F    5.312805   4.229556   4.743382   5.906633   4.213214
    26  C    5.266293   4.351115   5.182161   6.387739   4.877344
    27  F    5.083968   4.471589   5.535194   6.675488   5.492631
    28  O    4.943799   4.170345   5.055533   6.184754   4.937115
    29  C    5.788571   4.879438   5.488968   6.584068   5.162576
    30  F    7.040228   6.157796   6.788195   7.904227   6.381151
    31  F    5.830759   4.673113   4.971115   6.079712   4.353260
    32  F    5.699890   4.979589   5.561526   6.505598   5.436996
    33  C    6.792985   5.826161   6.540957   7.765462   6.034495
    34  F    7.417781   6.297243   6.786054   8.000745   6.070961
    35  F    7.472764   6.684326   7.541580   8.743045   7.173512
    36  F    7.322729   6.346668   7.017183   8.236053   6.446904
    37  C    2.431016   1.379259   2.421779   3.533338   2.730703
    38  O    2.713939   2.271948   3.517172   4.510495   3.937586
    39  H    1.094702   2.078688   2.860808   2.987345   4.060107
    40  H    1.094126   2.108822   3.324774   3.745505   4.427163
    41  H    1.094154   2.107015   2.597682   2.447967   3.937013
                    6          7          8          9         10
     6  C    0.000000
     7  F    1.364855   0.000000
     8  F    1.365225   2.139232   0.000000
     9  C    1.552935   2.396942   2.392145   0.000000
    10  F    2.383060   2.765005   3.558952   1.364495   0.000000
    11  O    2.443105   3.629836   2.973012   1.431791   2.220435
    12  C    3.715672   4.758933   4.156829   2.368388   2.815510
    13  F    4.162340   5.140590   4.227508   2.901763   3.662039
    14  F    4.669618   5.833403   5.071876   3.511256   3.844383
    15  F    4.160973   4.924125   4.877937   2.643953   2.457907
    16  C    2.453890   2.808828   2.716805   1.535658   2.374126
    17  F    3.679560   4.017197   4.027899   2.391825   2.759598
    18  F    2.896989   3.433571   2.476299   2.394958   3.561851
    19  F    2.770093   2.425857   3.069740   2.408170   2.857741
    20  C    2.422655   2.701160   3.525794   3.240418   3.090928
    21  O    2.706315   2.575346   4.001669   3.177299   2.582067
    22  N    3.660442   3.971710   4.570994   4.509015   4.345159
    23  C    4.820915   4.848367   5.846973   5.558682   5.094087
    24  F    4.783159   4.425122   5.839586   5.595576   5.049464
    25  F    5.264245   5.384181   6.439555   5.637984   4.918495
    26  C    6.154047   6.181559   7.028563   7.013399   6.632603
    27  F    6.850615   7.093754   7.727297   7.543399   7.143863
    28  O    6.258646   6.319201   6.885786   7.344157   7.216680
    29  C    6.306983   6.112837   6.832160   7.558135   7.489560
    30  F    7.469461   7.140277   8.050987   8.683442   8.493782
    31  F    5.321148   4.943724   5.919200   6.584931   6.484335
    32  F    6.549292   6.434763   6.811709   7.924554   8.076798
    33  C    7.163958   6.956735   8.122956   7.975855   7.417072
    34  F    7.024829   6.570714   7.949872   7.938434   7.392485
    35  F    8.369130   8.191690   9.246890   9.238884   8.731779
    36  F    7.494039   7.301712   8.597651   8.069317   7.310634
    37  C    4.173757   4.830971   4.866348   4.919668   4.953293
    38  O    5.364283   6.019633   6.065431   5.985005   5.904088
    39  H    5.131318   6.297195   5.378123   5.424967   5.850944
    40  H    5.720750   6.669977   5.900273   6.415947   6.821658
    41  H    4.925606   6.032677   4.766604   5.595745   6.321947
                   11         12         13         14         15
    11  O    0.000000
    12  C    1.403000   0.000000
    13  F    2.240377   1.342194   0.000000
    14  F    2.229478   1.345954   2.185337   0.000000
    15  F    2.264286   1.341306   2.202218   2.184863   0.000000
    16  C    2.537155   2.909987   2.774223   4.231151   3.057917
    17  F    3.013565   2.730329   2.435552   4.041748   2.480371
    18  F    2.939022   3.296051   2.703230   4.477167   3.859049
    19  F    3.704887   4.194997   4.098277   5.520889   4.121746
    20  C    3.689759   4.947265   5.868135   5.514729   5.145710
    21  O    3.917009   4.992541   5.934702   5.709061   4.874738
    22  N    4.698538   5.938197   6.934402   6.268182   6.201173
    23  C    5.862077   6.997239   8.074280   7.321478   7.040536
    24  F    6.213877   7.353391   8.340515   7.893934   7.267669
    25  F    5.825836   6.760497   7.957432   6.979407   6.620884
    26  C    7.225526   8.387800   9.461327   8.597996   8.511879
    27  F    7.513035   8.573726   9.723962   8.571465   8.726364
    28  O    7.534595   8.803376   9.761003   9.021208   9.115060
    29  C    7.968391   9.298172  10.146610   9.688822   9.594577
    30  F    9.160377  10.462919  11.345185  10.867410  10.662768
    31  F    7.179568   8.505510   9.306111   9.049487   8.722553
    32  F    8.277056   9.653047  10.384610  10.029558  10.109162
    33  C    8.346573   9.456363  10.549648   9.744593   9.409118
    34  F    8.525864   9.677647  10.680764  10.139514   9.586742
    35  F    9.543051  10.668915  11.766342  10.881678  10.675426
    36  F    8.415345   9.383496  10.553734   9.632507   9.171149
    37  C    4.716251   5.913047   6.915922   5.976294   6.385146
    38  O    5.643701   6.717886   7.796252   6.585604   7.148994
    39  H    4.488565   5.339978   6.179210   4.855636   6.222770
    40  H    5.770594   6.827672   7.636845   6.522032   7.660334
    41  H    4.871229   5.917610   6.478009   5.694581   6.958286
                   16         17         18         19         20
    16  C    0.000000
    17  F    1.355256   0.000000
    18  F    1.352044   2.170032   0.000000
    19  F    1.350712   2.163133   2.178067   0.000000
    20  C    4.561704   5.526084   5.260010   4.738255   0.000000
    21  O    4.355205   5.165141   5.309951   4.336435   1.227306
    22  N    5.887396   6.837440   6.498721   6.104090   1.375765
    23  C    6.896344   7.752637   7.665687   6.957650   2.410143
    24  F    6.739247   7.618771   7.587857   6.537289   2.627930
    25  F    7.024211   7.672309   7.932368   7.184951   2.932046
    26  C    8.356099   9.263692   9.033239   8.406904   3.802423
    27  F    8.986203   9.803476   9.648193   9.209321   4.498688
    28  O    8.629571   9.674481   9.118297   8.675378   4.163163
    29  C    8.679223   9.809006   9.132098   8.528644   4.459079
    30  F    9.775819  10.873114  10.300635   9.525912   5.550359
    31  F    7.606579   8.736690   8.125014   7.340521   3.607054
    32  F    8.971177  10.186230   9.232433   8.851579   5.052623
    33  C    9.236073  10.087585  10.031966   9.122433   4.822477
    34  F    9.045401   9.946192   9.851183   8.739341   4.879725
    35  F   10.517243  11.398146  11.257602  10.415831   6.038725
    36  F    9.343695  10.040491  10.269949   9.260227   5.129636
    37  C    6.369772   7.287753   6.805142   6.823340   2.352151
    38  O    7.475501   8.308368   7.934556   7.973364   3.435988
    39  H    6.772591   7.493441   6.834654   7.677021   4.492000
    40  H    7.762193   8.671635   7.809516   8.457068   4.681859
    41  H    6.749268   7.687775   6.543864   7.540021   4.697038
                   21         22         23         24         25
    21  O    0.000000
    22  N    2.285136   0.000000
    23  C    2.707876   1.460855   0.000000
    24  F    2.479769   2.278529   1.365873   0.000000
    25  F    2.891355   2.298358   1.361085   2.168232   0.000000
    26  C    4.239489   2.585651   1.559291   2.352791   2.391047
    27  F    5.005298   3.199043   2.391801   3.502193   2.630309
    28  O    4.867475   2.921076   2.522288   3.150960   3.642525
    29  C    5.055765   3.505052   3.151980   3.198684   4.429673
    30  F    5.963633   4.609771   3.916312   3.761729   5.035854
    31  F    4.042621   3.000937   2.749606   2.352395   4.066559
    32  F    5.826545   4.177151   4.212966   4.336135   5.529395
    33  C    4.929630   3.830241   2.488121   2.602944   2.957931
    34  F    4.831949   4.150131   2.913742   2.355683   3.595108
    35  F    6.248410   4.928752   3.702900   3.915237   4.156195
    36  F    4.998492   4.287455   2.837192   2.952248   2.654857
    37  C    3.413506   1.367358   2.436890   3.549317   3.000322
    38  O    4.347711   2.276905   2.748639   4.065708   3.056580
    39  H    5.518019   4.121101   5.257353   6.372294   5.433883
    40  H    5.839221   3.902804   4.893648   6.037034   5.396071
    41  H    5.865732   4.402313   5.704508   6.636139   6.258171
                   26         27         28         29         30
    26  C    0.000000
    27  F    1.375604   0.000000
    28  O    1.437388   2.205271   0.000000
    29  C    2.389750   3.488996   1.402714   0.000000
    30  F    2.893852   3.924037   2.249103   1.338186   0.000000
    31  F    2.682179   3.990907   2.244845   1.339866   2.203010
    32  F    3.531996   4.427474   2.227778   1.344614   2.187151
    33  C    1.534937   2.319968   2.531918   2.931546   2.743500
    34  F    2.408164   3.537132   3.039088   2.794017   2.402680
    35  F    2.378993   2.718904   2.895100   3.275512   2.671420
    36  F    2.398828   2.726584   3.695249   4.228275   4.070152
    37  C    3.042718   3.143177   3.114137   4.016161   5.187640
    38  O    2.860369   2.427512   3.030611   4.242063   5.254514
    39  H    5.765773   5.416070   5.667008   6.621756   7.835152
    40  H    4.961582   4.624073   4.506789   5.462672   6.637556
    41  H    6.116914   6.049341   5.629453   6.302612   7.594169
                   31         32         33         34         35
    31  F    0.000000
    32  F    2.177335   0.000000
    33  C    3.158550   4.238788   0.000000
    34  F    2.654653   4.106135   1.350934   0.000000
    35  F    3.928284   4.413390   1.356726   2.169315   0.000000
    36  F    4.256353   5.542853   1.351193   2.175232   2.176299
    37  C    3.892177   4.429749   4.512254   5.101600   5.388179
    38  O    4.442691   4.715953   4.324277   5.198825   4.992318
    39  H    6.621249   6.664349   7.255513   7.971071   7.973986
    40  H    5.754540   5.322404   6.487485   7.219397   6.988236
    41  H    6.307875   6.009946   7.642717   8.160477   8.310219
                   36         37         38         39         40
    36  F    0.000000
    37  C    4.990779   0.000000
    38  O    4.728593   1.226497   0.000000
    39  H    7.606800   2.894249   3.001376   0.000000
    40  H    7.094177   2.584848   2.449108   1.782962   0.000000
    41  H    8.258176   3.314689   3.743026   1.781869   1.779049
                   41
    41  H    0.000000
 Symmetry turned off by external request.
 Stoichiometry    C12H3F18N3O5
 Framework group  C1[X(C12H3F18N3O5)]
 Deg. of freedom   117
 Full point group                 C1      NOp   1
 Rotational constants (GHZ):      0.2161939      0.0553003      0.0544107
 Leave Link  202 at Sun Mar  3 17:21:43 2024, MaxMem=  5368709120 cpu:         0.1
 (Enter /home/k0335/k033513/app/g09/l301.exe)
 Standard basis: 6-31G(d,p) (6D, 7F)
 Ernie: Thresh=  0.10000D-02 Tol=  0.10000D-05 Strict=F.
   585 basis functions,  1085 primitive gaussians,   585 cartesian basis functions
   149 alpha electrons      149 beta electrons
       nuclear repulsion energy      5616.2197749541 Hartrees.
 IExCor=20419 DFT=T Ex+Corr=CAM-B3LYP ExCW=0 ScaHFX=  1.000000
 ScaDFX=  1.000000  1.000000  1.000000  0.810000 ScalE2=  1.000000  1.000000
 IRadAn=      0 IRanWt=     -1 IRanGd=            0 ICorTp=0 IEmpDi=  4
  HFx wShort=  0.000000 wLong=  0.330000 cFull=  0.190000 cShort=  0.000000 cLong=  0.460000
  DFx wShort=  0.000000 wLong=  0.330000 cFull=  0.190000 cShort=  0.000000 cLong=  0.460000
 NAtoms=   41 NActive=   41 NUniq=   41 SFac= 1.00D+00 NAtFMM=   60 NAOKFM=F Big=F
 Integral buffers will be    131072 words long.
 Raffenetti 2 integral format.
 Two-electron integral symmetry is turned off.
 Using the following non-standard input for PCM:
 eps=4.9
 --- end of non-standard input.
 ------------------------------------------------------------------------------
 Polarizable Continuum Model (PCM)
 =================================
 Model                : PCM (using non-symmetric T matrix).
 Atomic radii         : UFF (Universal Force Field).
 Polarization charges : Total charges.
 Charge compensation  : None.
 Solution method      : On-the-fly selection.
 Cavity type          : Scaled VdW (van der Waals Surface) (Alpha=1.100).
 Cavity algorithm     : GePol (No added spheres)
                        Default sphere list used, NSphG=   41.
                        Lebedev-Laikov grids with approx.  5.0 points / Ang**2.
                        Smoothing algorithm: Karplus/York (Gamma=1.0000).
                        Polarization charges: spherical gaussians, with
                                              point-specific exponents (IZeta= 3).
                        Self-potential: point-specific (ISelfS= 7).
                        Self-field    : sphere-specific E.n sum rule (ISelfD= 2).
 Solvent              : Generic,
                        Eps                           =   4.900000
                        Eps(infinity)                 =   0.000000
                        RSolv                         =   0.000000 Ang.
                        Molar volume                  =   0.000000 cm**3/mol
                        Thermal expansion coefficient =   0.000000 K**-1
                        Absolute temperature          = 298.150000 K
                        Numeral density               =   0.000000 Ang**-3
                        Hydrogen bond acidity         =   0.000000
                        Hydrogen bond basicity        =   0.000000
                        Surface tension at interface  =   0.000000 (cal/mol)*Ang**-2
                        Carbon aromaticity            =   0.000000
                        Electronegative halogenicity  =   0.000000
 ------------------------------------------------------------------------------
 GePol: Number of generator spheres                  =      41
 GePol: Total number of spheres                      =      41
 GePol: Number of exposed spheres                    =      40 ( 97.56%)
 GePol: Number of points                             =    3421
 GePol: Average weight of points                     =       0.13
 GePol: Minimum weight of points                     =   0.35D-11
 GePol: Maximum weight of points                     =    0.20577
 GePol: Number of points with low weight             =     138
 GePol: Fraction of low-weight points (<1% of avg)   =       4.03%
 GePol: Cavity surface area                          =    430.795 Ang**2
 GePol: Cavity volume                                =    499.807 Ang**3
 Leave Link  301 at Sun Mar  3 17:21:43 2024, MaxMem=  5368709120 cpu:         0.7
 (Enter /home/k0335/k033513/app/g09/l302.exe)
 NPDir=0 NMtPBC=     1 NCelOv=     1 NCel=       1 NClECP=     1 NCelD=      1
         NCelK=      1 NCelE2=     1 NClLst=     1 CellRange=     0.0.
 One-electron integrals computed using PRISM.
 NBasis=   585 RedAO= T EigKep=  1.04D-03  NBF=   585
 NBsUse=   585 1.00D-06 EigRej= -1.00D+00 NBFU=   585
 Precomputing XC quadrature grid using
 IXCGrd= 4 IRadAn=           0 IRanWt=          -1 IRanGd=           0 AccXCQ= 0.00D+00.
 Generated NRdTot=       0 NPtTot=           0 NUsed=           0 NTot=          32
 NSgBfM=   570   570   570   570   570 MxSgAt=    41 MxSgA2=    41.
 Leave Link  302 at Sun Mar  3 17:21:44 2024, MaxMem=  5368709120 cpu:        11.2
 (Enter /home/k0335/k033513/app/g09/l303.exe)
 DipDrv:  MaxL=1.
 Leave Link  303 at Sun Mar  3 17:21:44 2024, MaxMem=  5368709120 cpu:         0.9
 (Enter /home/k0335/k033513/app/g09/l401.exe)
 ExpMin= 1.61D-01 ExpMax= 7.00D+03 ExpMxC= 1.05D+03 IAcc=1 IRadAn=         1 AccDes= 0.00D+00
 Harris functional with IExCor=20419 and IRadAn=       1 diagonalized for initial guess.
 HarFok:  IExCor=20419 AccDes= 0.00D+00 IRadAn=         1 IDoV= 1 UseB2=F ITyADJ=14
 ICtDFT=  3500011 ScaDFX=  1.000000  1.000000  1.000000  1.000000
 FoFCou: FMM=F IPFlag=           0 FMFlag=      100000 FMFlg1=           0
         NFxFlg=           0 DoJE=T BraDBF=F KetDBF=T FulRan=T
         wScrn=  0.000000 ICntrl=     500 IOpCl=  0 I1Cent=   200000004 NGrid=           0
         NMat0=    1 NMatS0=      1 NMatT0=    0 NMatD0=    1 NMtDS0=    0 NMtDT0=    0
 Symmetry not used in FoFCou.
 Harris En= -2712.61824538394    
 JPrj=0 DoOrth=F DoCkMO=F.
 Leave Link  401 at Sun Mar  3 17:21:45 2024, MaxMem=  5368709120 cpu:        12.8
 (Enter /home/k0335/k033513/app/g09/l502.exe)
 Closed shell SCF:
 Using DIIS extrapolation, IDIIS=  1040.
 Two-electron integral symmetry not used.
 IVT=     1062857 IEndB=     1062857 NGot=  5368709120 MDV=  5368005714
 LenX=  5368005714 LenY=  5367662904
 Requested convergence on RMS density matrix=1.00D-08 within 128 cycles.
 Requested convergence on MAX density matrix=1.00D-06.
 Requested convergence on             energy=1.00D-06.
 No special actions if energy rises.
 Fock matrices will be formed incrementally for  20 cycles.

 Cycle   1  Pass 1  IDiag  1:
 FoFJK:  IHMeth= 1 ICntrl=       0 DoSepK=T KAlg= 0 I1Cent=   0 FoldK=F
 IRaf=         1 NMat=   1 IRICut=       1 DoRegI=T DoRafI=F ISym2E= 0.
 FoFCou: FMM=F IPFlag=           0 FMFlag=      100000 FMFlg1=           0
         NFxFlg=           0 DoJE=T BraDBF=F KetDBF=F FulRan=T
         wScrn=  0.000000 ICntrl=     500 IOpCl=  0 I1Cent=           0 NGrid=           0
         NMat0=    1 NMatS0=      1 NMatT0=    0 NMatD0=    1 NMtDS0=    0 NMtDT0=    0
 Symmetry not used in FoFCou.
 Inv3:  Mode=1 IEnd=    35109723.
 Iteration    1 A*A^-1 deviation from unit magnitude is 7.55D-15 for    839.
 Iteration    1 A*A^-1 deviation from orthogonality  is 3.70D-15 for   2816    125.
 Iteration    1 A^-1*A deviation from unit magnitude is 6.99D-15 for    703.
 Iteration    1 A^-1*A deviation from orthogonality  is 2.92D-11 for   3299   3274.
 E= -2794.90375266351    
 DIIS: error= 4.72D-02 at cycle   1 NSaved=   1.
 NSaved= 1 IEnMin= 1 EnMin= -2794.90375266351     IErMin= 1 ErrMin= 4.72D-02
 ErrMax= 4.72D-02  0.00D+00 EMaxC= 1.00D-01 BMatC= 2.30D+00 BMatP= 2.30D+00
 IDIUse=3 WtCom= 5.28D-01 WtEn= 4.72D-01
 Coeff-Com:  0.100D+01
 Coeff-En:   0.100D+01
 Coeff:      0.100D+01
 Gap=     0.429 Goal=   None    Shift=    0.000
 GapD=    0.429 DampG=2.000 DampE=0.500 DampFc=1.0000 IDamp=-1.
 RMSDP=3.05D-03 MaxDP=1.32D-01              OVMax= 1.59D-01

 Cycle   2  Pass 1  IDiag  1:
 RMSU=  3.04D-03    CP:  1.01D+00
 E= -2795.28188888906     Delta-E=       -0.378136225547 Rises=F Damp=F
 DIIS: error= 1.92D-02 at cycle   2 NSaved=   2.
 NSaved= 2 IEnMin= 2 EnMin= -2795.28188888906     IErMin= 2 ErrMin= 1.92D-02
 ErrMax= 1.92D-02  0.00D+00 EMaxC= 1.00D-01 BMatC= 8.36D-01 BMatP= 2.30D+00
 IDIUse=3 WtCom= 8.08D-01 WtEn= 1.92D-01
 Coeff-Com:  0.355D+00 0.645D+00
 Coeff-En:   0.326D+00 0.674D+00
 Coeff:      0.349D+00 0.651D+00
 Gap=     0.416 Goal=   None    Shift=    0.000
 RMSDP=1.60D-03 MaxDP=1.21D-01 DE=-3.78D-01 OVMax= 1.33D-01

 Cycle   3  Pass 1  IDiag  1:
 RMSU=  1.01D-03    CP:  1.00D+00  5.94D-01
 E= -2795.65137997237     Delta-E=       -0.369491083311 Rises=F Damp=F
 DIIS: error= 1.03D-02 at cycle   3 NSaved=   3.
 NSaved= 3 IEnMin= 3 EnMin= -2795.65137997237     IErMin= 3 ErrMin= 1.03D-02
 ErrMax= 1.03D-02  0.00D+00 EMaxC= 1.00D-01 BMatC= 2.24D-01 BMatP= 8.36D-01
 IDIUse=3 WtCom= 8.97D-01 WtEn= 1.03D-01
 Coeff-Com:  0.113D+00 0.361D+00 0.526D+00
 Coeff-En:   0.000D+00 0.211D+00 0.789D+00
 Coeff:      0.101D+00 0.346D+00 0.553D+00
 Gap=     0.376 Goal=   None    Shift=    0.000
 RMSDP=7.69D-04 MaxDP=6.35D-02 DE=-3.69D-01 OVMax= 8.80D-02

 Cycle   4  Pass 1  IDiag  1:
 RMSU=  3.29D-04    CP:  1.00D+00  7.01D-01  3.95D-01
 E= -2795.79279452190     Delta-E=       -0.141414549526 Rises=F Damp=F
 DIIS: error= 3.39D-03 at cycle   4 NSaved=   4.
 NSaved= 4 IEnMin= 4 EnMin= -2795.79279452190     IErMin= 4 ErrMin= 3.39D-03
 ErrMax= 3.39D-03  0.00D+00 EMaxC= 1.00D-01 BMatC= 2.18D-02 BMatP= 2.24D-01
 IDIUse=3 WtCom= 9.66D-01 WtEn= 3.39D-02
 Coeff-Com:  0.774D-02 0.945D-01 0.289D+00 0.609D+00
 Coeff-En:   0.000D+00 0.000D+00 0.530D-01 0.947D+00
 Coeff:      0.748D-02 0.913D-01 0.281D+00 0.620D+00
 Gap=     0.363 Goal=   None    Shift=    0.000
 RMSDP=2.36D-04 MaxDP=2.10D-02 DE=-1.41D-01 OVMax= 2.24D-02

 Cycle   5  Pass 1  IDiag  1:
 RMSU=  1.05D-04    CP:  1.00D+00  6.91D-01  5.73D-01  6.82D-01
 E= -2795.80711480198     Delta-E=       -0.014320280081 Rises=F Damp=F
 DIIS: error= 8.10D-04 at cycle   5 NSaved=   5.
 NSaved= 5 IEnMin= 5 EnMin= -2795.80711480198     IErMin= 5 ErrMin= 8.10D-04
 ErrMax= 8.10D-04  0.00D+00 EMaxC= 1.00D-01 BMatC= 1.51D-03 BMatP= 2.18D-02
 IDIUse=3 WtCom= 9.92D-01 WtEn= 8.10D-03
 Coeff-Com: -0.147D-02 0.298D-01 0.124D+00 0.345D+00 0.503D+00
 Coeff-En:   0.000D+00 0.000D+00 0.000D+00 0.000D+00 0.100D+01
 Coeff:     -0.146D-02 0.296D-01 0.123D+00 0.342D+00 0.507D+00
 Gap=     0.362 Goal=   None    Shift=    0.000
 RMSDP=5.46D-05 MaxDP=3.81D-03 DE=-1.43D-02 OVMax= 4.84D-03

 Cycle   6  Pass 1  IDiag  1:
 RMSU=  2.56D-05    CP:  1.00D+00  6.96D-01  5.60D-01  7.15D-01  5.99D-01
 E= -2795.80818177572     Delta-E=       -0.001066973746 Rises=F Damp=F
 DIIS: error= 8.28D-05 at cycle   6 NSaved=   6.
 NSaved= 6 IEnMin= 6 EnMin= -2795.80818177572     IErMin= 6 ErrMin= 8.28D-05
 ErrMax= 8.28D-05  0.00D+00 EMaxC= 1.00D-01 BMatC= 2.42D-05 BMatP= 1.51D-03
 IDIUse=1 WtCom= 1.00D+00 WtEn= 0.00D+00
 Coeff-Com: -0.713D-03-0.123D-02 0.296D-02 0.235D-01 0.124D+00 0.852D+00
 Coeff:     -0.713D-03-0.123D-02 0.296D-02 0.235D-01 0.124D+00 0.852D+00
 Gap=     0.361 Goal=   None    Shift=    0.000
 RMSDP=1.13D-05 MaxDP=7.14D-04 DE=-1.07D-03 OVMax= 9.64D-04

 Cycle   7  Pass 1  IDiag  1:
 RMSU=  7.98D-06    CP:  1.00D+00  6.95D-01  5.63D-01  7.27D-01  6.58D-01
                    CP:  1.02D+00
 E= -2795.80820220569     Delta-E=       -0.000020429965 Rises=F Damp=F
 DIIS: error= 6.07D-05 at cycle   7 NSaved=   7.
 NSaved= 7 IEnMin= 7 EnMin= -2795.80820220569     IErMin= 7 ErrMin= 6.07D-05
 ErrMax= 6.07D-05  0.00D+00 EMaxC= 1.00D-01 BMatC= 4.31D-06 BMatP= 2.42D-05
 IDIUse=1 WtCom= 1.00D+00 WtEn= 0.00D+00
 Coeff-Com: -0.155D-03-0.286D-02-0.786D-02-0.163D-01 0.187D-01 0.368D+00
 Coeff-Com:  0.641D+00
 Coeff:     -0.155D-03-0.286D-02-0.786D-02-0.163D-01 0.187D-01 0.368D+00
 Coeff:      0.641D+00
 Gap=     0.361 Goal=   None    Shift=    0.000
 RMSDP=3.76D-06 MaxDP=3.03D-04 DE=-2.04D-05 OVMax= 4.54D-04

 Cycle   8  Pass 1  IDiag  1:
 RMSU=  2.39D-06    CP:  1.00D+00  6.95D-01  5.64D-01  7.27D-01  6.69D-01
                    CP:  1.10D+00  8.03D-01
 E= -2795.80820587912     Delta-E=       -0.000003673429 Rises=F Damp=F
 DIIS: error= 1.12D-05 at cycle   8 NSaved=   8.
 NSaved= 8 IEnMin= 8 EnMin= -2795.80820587912     IErMin= 8 ErrMin= 1.12D-05
 ErrMax= 1.12D-05  0.00D+00 EMaxC= 1.00D-01 BMatC= 3.61D-07 BMatP= 4.31D-06
 IDIUse=1 WtCom= 1.00D+00 WtEn= 0.00D+00
 Coeff-Com:  0.250D-05-0.105D-02-0.329D-02-0.903D-02-0.454D-02 0.520D-01
 Coeff-Com:  0.238D+00 0.728D+00
 Coeff:      0.250D-05-0.105D-02-0.329D-02-0.903D-02-0.454D-02 0.520D-01
 Coeff:      0.238D+00 0.728D+00
 Gap=     0.361 Goal=   None    Shift=    0.000
 RMSDP=1.47D-06 MaxDP=1.31D-04 DE=-3.67D-06 OVMax= 2.08D-04

 Cycle   9  Pass 1  IDiag  1:
 RMSU=  1.00D-06    CP:  1.00D+00  6.95D-01  5.64D-01  7.27D-01  6.74D-01
                    CP:  1.12D+00  8.83D-01  9.93D-01
 E= -2795.80820621684     Delta-E=       -0.000000337723 Rises=F Damp=F
 DIIS: error= 5.75D-06 at cycle   9 NSaved=   9.
 NSaved= 9 IEnMin= 9 EnMin= -2795.80820621684     IErMin= 9 ErrMin= 5.75D-06
 ErrMax= 5.75D-06  0.00D+00 EMaxC= 1.00D-01 BMatC= 6.97D-08 BMatP= 3.61D-07
 IDIUse=1 WtCom= 1.00D+00 WtEn= 0.00D+00
 Coeff-Com:  0.227D-04-0.190D-04-0.154D-03-0.153D-02-0.517D-02-0.409D-01
 Coeff-Com:  0.327D-02 0.337D+00 0.707D+00
 Coeff:      0.227D-04-0.190D-04-0.154D-03-0.153D-02-0.517D-02-0.409D-01
 Coeff:      0.327D-02 0.337D+00 0.707D+00
 Gap=     0.361 Goal=   None    Shift=    0.000
 RMSDP=6.54D-07 MaxDP=7.62D-05 DE=-3.38D-07 OVMax= 1.09D-04

 Cycle  10  Pass 1  IDiag  1:
 RMSU=  3.46D-07    CP:  1.00D+00  6.95D-01  5.64D-01  7.28D-01  6.76D-01
                    CP:  1.13D+00  9.11D-01  1.13D+00  9.04D-01
 E= -2795.80820628548     Delta-E=       -0.000000068638 Rises=F Damp=F
 DIIS: error= 2.70D-06 at cycle  10 NSaved=  10.
 NSaved=10 IEnMin=10 EnMin= -2795.80820628548     IErMin=10 ErrMin= 2.70D-06
 ErrMax= 2.70D-06  0.00D+00 EMaxC= 1.00D-01 BMatC= 8.07D-09 BMatP= 6.97D-08
 IDIUse=1 WtCom= 1.00D+00 WtEn= 0.00D+00
 Coeff-Com:  0.981D-05 0.111D-03 0.325D-03 0.302D-03-0.171D-02-0.253D-01
 Coeff-Com: -0.248D-01 0.764D-01 0.322D+00 0.652D+00
 Coeff:      0.981D-05 0.111D-03 0.325D-03 0.302D-03-0.171D-02-0.253D-01
 Coeff:     -0.248D-01 0.764D-01 0.322D+00 0.652D+00
 Gap=     0.361 Goal=   None    Shift=    0.000
 RMSDP=2.01D-07 MaxDP=1.82D-05 DE=-6.86D-08 OVMax= 3.14D-05

 Cycle  11  Pass 1  IDiag  1:
 RMSU=  1.29D-07    CP:  1.00D+00  6.95D-01  5.65D-01  7.28D-01  6.76D-01
                    CP:  1.13D+00  9.20D-01  1.15D+00  9.94D-01  8.96D-01
 E= -2795.80820629203     Delta-E=       -0.000000006552 Rises=F Damp=F
 DIIS: error= 8.59D-07 at cycle  11 NSaved=  11.
 NSaved=11 IEnMin=11 EnMin= -2795.80820629203     IErMin=11 ErrMin= 8.59D-07
 ErrMax= 8.59D-07  0.00D+00 EMaxC= 1.00D-01 BMatC= 1.18D-09 BMatP= 8.07D-09
 IDIUse=1 WtCom= 1.00D+00 WtEn= 0.00D+00
 Coeff-Com:  0.148D-05 0.539D-04 0.183D-03 0.342D-03 0.688D-04-0.584D-02
 Coeff-Com: -0.114D-01-0.102D-01 0.520D-01 0.305D+00 0.669D+00
 Coeff:      0.148D-05 0.539D-04 0.183D-03 0.342D-03 0.688D-04-0.584D-02
 Coeff:     -0.114D-01-0.102D-01 0.520D-01 0.305D+00 0.669D+00
 Gap=     0.361 Goal=   None    Shift=    0.000
 RMSDP=6.90D-08 MaxDP=5.95D-06 DE=-6.55D-09 OVMax= 1.17D-05

 Cycle  12  Pass 1  IDiag  1:
 RMSU=  3.94D-08    CP:  1.00D+00  6.95D-01  5.65D-01  7.28D-01  6.76D-01
                    CP:  1.13D+00  9.21D-01  1.17D+00  1.01D+00  9.90D-01
                    CP:  9.08D-01
 E= -2795.80820629315     Delta-E=       -0.000000001117 Rises=F Damp=F
 DIIS: error= 2.82D-07 at cycle  12 NSaved=  12.
 NSaved=12 IEnMin=12 EnMin= -2795.80820629315     IErMin=12 ErrMin= 2.82D-07
 ErrMax= 2.82D-07  0.00D+00 EMaxC= 1.00D-01 BMatC= 8.04D-11 BMatP= 1.18D-09
 IDIUse=1 WtCom= 1.00D+00 WtEn= 0.00D+00
 Coeff-Com: -0.541D-06 0.338D-05 0.223D-04 0.610D-04 0.279D-03 0.116D-02
 Coeff-Com: -0.333D-03-0.110D-01-0.208D-01 0.479D-02 0.165D+00 0.861D+00
 Coeff:     -0.541D-06 0.338D-05 0.223D-04 0.610D-04 0.279D-03 0.116D-02
 Coeff:     -0.333D-03-0.110D-01-0.208D-01 0.479D-02 0.165D+00 0.861D+00
 Gap=     0.361 Goal=   None    Shift=    0.000
 RMSDP=2.59D-08 MaxDP=1.92D-06 DE=-1.12D-09 OVMax= 2.81D-06

 Cycle  13  Pass 1  IDiag  1:
 RMSU=  1.17D-08    CP:  1.00D+00  6.95D-01  5.65D-01  7.28D-01  6.76D-01
                    CP:  1.13D+00  9.22D-01  1.17D+00  1.02D+00  1.02D+00
                    CP:  9.91D-01  9.88D-01
 E= -2795.80820629347     Delta-E=       -0.000000000327 Rises=F Damp=F
 DIIS: error= 5.04D-08 at cycle  13 NSaved=  13.
 NSaved=13 IEnMin=13 EnMin= -2795.80820629347     IErMin=13 ErrMin= 5.04D-08
 ErrMax= 5.04D-08  0.00D+00 EMaxC= 1.00D-01 BMatC= 7.55D-12 BMatP= 8.04D-11
 IDIUse=1 WtCom= 1.00D+00 WtEn= 0.00D+00
 Coeff-Com: -0.284D-06-0.284D-05-0.461D-05-0.479D-05 0.994D-04 0.811D-03
 Coeff-Com:  0.718D-03-0.324D-02-0.113D-01-0.239D-01 0.185D-02 0.291D+00
 Coeff-Com:  0.744D+00
 Coeff:     -0.284D-06-0.284D-05-0.461D-05-0.479D-05 0.994D-04 0.811D-03
 Coeff:      0.718D-03-0.324D-02-0.113D-01-0.239D-01 0.185D-02 0.291D+00
 Coeff:      0.744D+00
 Gap=     0.361 Goal=   None    Shift=    0.000
 RMSDP=6.84D-09 MaxDP=4.46D-07 DE=-3.27D-10 OVMax= 9.56D-07

 Error on total polarization charges =  0.00179
 SCF Done:  E(RCAM-B3LYP) =  -2795.80820629     A.U. after   13 cycles
            NFock= 13  Conv=0.68D-08     -V/T= 2.0073
 KE= 2.775533573040D+03 PE=-1.784209310547D+04 EE= 6.654531551182D+03
 Leave Link  502 at Sun Mar  3 17:22:33 2024, MaxMem=  5368709120 cpu:      1101.7
 (Enter /home/k0335/k033513/app/g09/l601.exe)
 Copying SCF densities to generalized density rwf, IOpCl= 0 IROHF=0.

 **********************************************************************

            Population analysis using the SCF density.

 **********************************************************************

 Alpha  occ. eigenvalues --  -24.84659 -24.84233 -24.84061 -24.83753 -24.83624
 Alpha  occ. eigenvalues --  -24.83621 -24.83525 -24.83445 -24.83124 -24.83048
 Alpha  occ. eigenvalues --  -24.83041 -24.83024 -24.82933 -24.82907 -24.82879
 Alpha  occ. eigenvalues --  -24.82811 -24.82787 -24.82382 -19.33603 -19.33164
 Alpha  occ. eigenvalues --  -19.25136 -19.24352 -19.23842 -14.52935 -14.52846
 Alpha  occ. eigenvalues --  -14.50675 -10.60216 -10.59702 -10.55523 -10.55470
 Alpha  occ. eigenvalues --  -10.53561 -10.53370 -10.49427 -10.49131 -10.47049
 Alpha  occ. eigenvalues --  -10.45857 -10.45693 -10.31336  -1.44048  -1.43349
 Alpha  occ. eigenvalues --   -1.41920  -1.41822  -1.39228  -1.39122  -1.35699
 Alpha  occ. eigenvalues --   -1.34918  -1.34705  -1.33996  -1.33661  -1.33405
 Alpha  occ. eigenvalues --   -1.32848  -1.32814  -1.32293  -1.32214  -1.31838
 Alpha  occ. eigenvalues --   -1.31722  -1.23631  -1.21027  -1.20739  -1.18409
 Alpha  occ. eigenvalues --   -1.17912  -1.10328  -1.08581  -1.06676  -0.93763
 Alpha  occ. eigenvalues --   -0.93068  -0.86822  -0.84277  -0.84135  -0.82729
 Alpha  occ. eigenvalues --   -0.82160  -0.79398  -0.78204  -0.76261  -0.75642
 Alpha  occ. eigenvalues --   -0.74655  -0.73823  -0.73081  -0.72420  -0.71515
 Alpha  occ. eigenvalues --   -0.71250  -0.70605  -0.70280  -0.69771  -0.69264
 Alpha  occ. eigenvalues --   -0.68843  -0.68593  -0.67904  -0.67140  -0.67073
 Alpha  occ. eigenvalues --   -0.66549  -0.65951  -0.64578  -0.63804  -0.62535
 Alpha  occ. eigenvalues --   -0.60028  -0.59718  -0.58594  -0.58024  -0.57750
 Alpha  occ. eigenvalues --   -0.57606  -0.57235  -0.56831  -0.56637  -0.56362
 Alpha  occ. eigenvalues --   -0.56314  -0.56114  -0.55856  -0.55715  -0.55520
 Alpha  occ. eigenvalues --   -0.54996  -0.54930  -0.54433  -0.54317  -0.54128
 Alpha  occ. eigenvalues --   -0.53824  -0.53635  -0.53564  -0.53165  -0.52972
 Alpha  occ. eigenvalues --   -0.52634  -0.52304  -0.51997  -0.51691  -0.51291
 Alpha  occ. eigenvalues --   -0.50918  -0.50823  -0.50492  -0.50457  -0.50276
 Alpha  occ. eigenvalues --   -0.50206  -0.49942  -0.49817  -0.49509  -0.49101
 Alpha  occ. eigenvalues --   -0.48970  -0.48566  -0.48284  -0.48202  -0.47952
 Alpha  occ. eigenvalues --   -0.45919  -0.44729  -0.43482  -0.41549  -0.40435
 Alpha  occ. eigenvalues --   -0.39037  -0.38137  -0.36520  -0.36303
 Alpha virt. eigenvalues --   -0.00172   0.00923   0.05460   0.05598   0.07736
 Alpha virt. eigenvalues --    0.07946   0.10413   0.14013   0.15204   0.16234
 Alpha virt. eigenvalues --    0.17108   0.17289   0.17796   0.18679   0.19444
 Alpha virt. eigenvalues --    0.19898   0.20178   0.21080   0.21844   0.22107
 Alpha virt. eigenvalues --    0.22323   0.22504   0.22692   0.23496   0.24099
 Alpha virt. eigenvalues --    0.24782   0.24800   0.25246   0.26323   0.26823
 Alpha virt. eigenvalues --    0.26933   0.27477   0.28671   0.29232   0.29999
 Alpha virt. eigenvalues --    0.30755   0.32955   0.33677   0.37347   0.38940
 Alpha virt. eigenvalues --    0.39123   0.40398   0.42543   0.45425   0.47123
 Alpha virt. eigenvalues --    0.47598   0.48287   0.49609   0.50377   0.50512
 Alpha virt. eigenvalues --    0.51653   0.52254   0.52550   0.53114   0.53946
 Alpha virt. eigenvalues --    0.54555   0.54774   0.55451   0.56075   0.56772
 Alpha virt. eigenvalues --    0.57184   0.57350   0.59213   0.59786   0.61058
 Alpha virt. eigenvalues --    0.61541   0.62070   0.62657   0.63701   0.64504
 Alpha virt. eigenvalues --    0.65386   0.68334   0.68796   0.69079   0.71441
 Alpha virt. eigenvalues --    0.72062   0.72995   0.74292   0.74654   0.77254
 Alpha virt. eigenvalues --    0.79741   0.80948   0.82357   0.83792   0.84977
 Alpha virt. eigenvalues --    0.85378   0.87088   0.88036   0.88670   0.89157
 Alpha virt. eigenvalues --    0.89696   0.90978   0.91819   0.92887   0.93633
 Alpha virt. eigenvalues --    0.94217   0.95557   0.96824   0.97327   0.97976
 Alpha virt. eigenvalues --    0.98860   1.01114   1.01508   1.02037   1.02754
 Alpha virt. eigenvalues --    1.03779   1.04784   1.06556   1.06849   1.07824
 Alpha virt. eigenvalues --    1.08702   1.09212   1.09683   1.10746   1.11469
 Alpha virt. eigenvalues --    1.11620   1.11677   1.13708   1.14757   1.15013
 Alpha virt. eigenvalues --    1.15732   1.16112   1.16618   1.17229   1.17579
 Alpha virt. eigenvalues --    1.18350   1.19212   1.19556   1.19935   1.20690
 Alpha virt. eigenvalues --    1.22254   1.23128   1.23929   1.25103   1.26414
 Alpha virt. eigenvalues --    1.27351   1.27948   1.28936   1.29273   1.29962
 Alpha virt. eigenvalues --    1.30128   1.31175   1.31867   1.32297   1.32386
 Alpha virt. eigenvalues --    1.34127   1.34421   1.34617   1.34927   1.35510
 Alpha virt. eigenvalues --    1.35603   1.36558   1.36748   1.37768   1.38284
 Alpha virt. eigenvalues --    1.38746   1.39139   1.39889   1.40161   1.41111
 Alpha virt. eigenvalues --    1.41328   1.41607   1.41902   1.42100   1.42671
 Alpha virt. eigenvalues --    1.43169   1.43882   1.44648   1.45042   1.46244
 Alpha virt. eigenvalues --    1.46407   1.46788   1.47366   1.48861   1.49756
 Alpha virt. eigenvalues --    1.50590   1.51184   1.51350   1.51955   1.53187
 Alpha virt. eigenvalues --    1.54036   1.54488   1.56026   1.56634   1.57053
 Alpha virt. eigenvalues --    1.57688   1.58538   1.59174   1.59771   1.60571
 Alpha virt. eigenvalues --    1.61231   1.62092   1.63647   1.63742   1.65592
 Alpha virt. eigenvalues --    1.66910   1.67805   1.68976   1.69346   1.69807
 Alpha virt. eigenvalues --    1.70889   1.72301   1.72826   1.73582   1.73772
 Alpha virt. eigenvalues --    1.74547   1.75007   1.75800   1.77285   1.77679
 Alpha virt. eigenvalues --    1.78392   1.78775   1.79181   1.79963   1.80690
 Alpha virt. eigenvalues --    1.81633   1.82073   1.82290   1.83255   1.83665
 Alpha virt. eigenvalues --    1.84209   1.84701   1.85477   1.85808   1.86373
 Alpha virt. eigenvalues --    1.86795   1.86960   1.87476   1.87726   1.88420
 Alpha virt. eigenvalues --    1.88707   1.89352   1.89897   1.90067   1.90935
 Alpha virt. eigenvalues --    1.91252   1.91436   1.91932   1.92365   1.93014
 Alpha virt. eigenvalues --    1.93155   1.93321   1.93563   1.93716   1.94531
 Alpha virt. eigenvalues --    1.95467   1.95755   1.96757   1.97027   1.97332
 Alpha virt. eigenvalues --    1.97780   1.99318   1.99943   2.00181   2.00435
 Alpha virt. eigenvalues --    2.00940   2.01107   2.01779   2.02098   2.02599
 Alpha virt. eigenvalues --    2.03108   2.03198   2.03534   2.03785   2.04054
 Alpha virt. eigenvalues --    2.04544   2.04723   2.05073   2.05413   2.05847
 Alpha virt. eigenvalues --    2.06356   2.07345   2.08266   2.08730   2.08941
 Alpha virt. eigenvalues --    2.09033   2.09640   2.09786   2.11001   2.11348
 Alpha virt. eigenvalues --    2.11710   2.12014   2.12979   2.13803   2.14434
 Alpha virt. eigenvalues --    2.15258   2.16019   2.17964   2.18169   2.18639
 Alpha virt. eigenvalues --    2.19312   2.19747   2.20655   2.21011   2.21556
 Alpha virt. eigenvalues --    2.22159   2.23563   2.25201   2.26905   2.27495
 Alpha virt. eigenvalues --    2.28069   2.29584   2.30275   2.32326   2.33029
 Alpha virt. eigenvalues --    2.33706   2.34646   2.35586   2.36944   2.37555
 Alpha virt. eigenvalues --    2.38743   2.39668   2.39816   2.41392   2.42303
 Alpha virt. eigenvalues --    2.44820   2.45266   2.46059   2.46836   2.47571
 Alpha virt. eigenvalues --    2.48709   2.50051   2.50878   2.52025   2.53415
 Alpha virt. eigenvalues --    2.54996   2.56019   2.56733   2.58351   2.59270
 Alpha virt. eigenvalues --    2.60407   2.61961   2.62476   2.64043   2.65159
 Alpha virt. eigenvalues --    2.65504   2.67147   2.67873   2.69382   2.70189
 Alpha virt. eigenvalues --    2.72019   2.72892   2.74852   2.75396   2.75872
 Alpha virt. eigenvalues --    2.77860   2.79355   2.80012   2.81821   2.82164
 Alpha virt. eigenvalues --    2.84040   2.85500   2.86284   2.87839   2.89914
 Alpha virt. eigenvalues --    2.90325   2.91432   2.91847   2.91933   2.92245
 Alpha virt. eigenvalues --    2.93327   2.95094   2.96028   2.96430   2.98079
 Alpha virt. eigenvalues --    2.98377   2.99619   2.99835   3.02583   3.04826
 Alpha virt. eigenvalues --    3.05346   3.06152   3.06529   3.06777   3.07782
 Alpha virt. eigenvalues --    3.08219   3.08847   3.12443   3.14710   3.15567
 Alpha virt. eigenvalues --    3.16452   3.17887   3.18702   3.19866   3.22114
 Alpha virt. eigenvalues --    3.22885   3.23991   3.25048   3.28739   3.29301
 Alpha virt. eigenvalues --    3.30186   3.30807   3.33909   3.34803   3.42486
 Alpha virt. eigenvalues --    3.45568   3.51098   3.51664   4.06769   4.10520
 Alpha virt. eigenvalues --    4.14529   4.17906   4.22860   4.27021   4.29471
 Alpha virt. eigenvalues --    4.32243   4.34991   4.37748   4.39408   4.43892
 Alpha virt. eigenvalues --    4.46448   4.47818   4.51256   4.57465   4.58583
 Alpha virt. eigenvalues --    4.63466   4.68854   4.71303   4.75994   4.78908
 Alpha virt. eigenvalues --    4.87261   4.89592   5.04966   5.12269   5.16746
 Alpha virt. eigenvalues --    5.24953   5.30583   5.41048   5.42984   5.66800
 Alpha virt. eigenvalues --    5.67656   5.73701   6.21889   6.25422   6.47857
 Alpha virt. eigenvalues --    6.60860
          Condensed to atoms (all electrons):
               1          2          3          4          5          6
     1  C    4.792875   0.258266  -0.027388   0.001015   0.003489  -0.000017
     2  N    0.258266   7.301546   0.257542  -0.091397  -0.100945   0.001697
     3  C   -0.027388   0.257542   4.170278   0.591353   0.205873  -0.005801
     4  O    0.001015  -0.091397   0.591353   8.079224  -0.089162   0.015833
     5  N    0.003489  -0.100945   0.205873  -0.089162   7.553838   0.182274
     6  C   -0.000017   0.001697  -0.005801   0.015833   0.182274   4.358272
     7  F    0.000000  -0.000028   0.000537   0.000012  -0.041668   0.272099
     8  F    0.000005   0.000031   0.004935  -0.010154  -0.038020   0.269105
     9  C    0.000002  -0.000034  -0.002874  -0.003487  -0.069030   0.210820
    10  F    0.000000   0.000002  -0.000380   0.000006  -0.000520  -0.022548
    11  O   -0.000003  -0.000453   0.005028  -0.003191   0.000309  -0.026402
    12  C    0.000001  -0.000007   0.000125   0.000517  -0.000195   0.001041
    13  F    0.000000   0.000000   0.000002  -0.000003   0.000001  -0.000164
    14  F    0.000000   0.000000  -0.000013  -0.000005   0.000001  -0.000032
    15  F    0.000000   0.000000   0.000000   0.000000  -0.000002   0.000189
    16  C    0.000000  -0.000002  -0.000042  -0.000052   0.003121  -0.029888
    17  F    0.000000   0.000000   0.000000   0.000000  -0.000012   0.001290
    18  F    0.000000   0.000000   0.000003  -0.000001  -0.000031  -0.000612
    19  F    0.000000   0.000000   0.000002   0.000000   0.000047   0.007042
    20  C   -0.000084  -0.000185  -0.013443  -0.000007   0.217742  -0.012411
    21  O    0.000001   0.000175   0.000452  -0.000026  -0.090663   0.014819
    22  N    0.003335  -0.105121  -0.003220   0.000050  -0.092779   0.001816
    23  C   -0.000017   0.003138   0.000376   0.000002   0.002714  -0.000015
    24  F    0.000000  -0.000022   0.000003   0.000000  -0.000119   0.000012
    25  F    0.000001   0.000010   0.000005   0.000000   0.000025   0.000002
    26  C   -0.000012  -0.000243  -0.000013   0.000000  -0.000082   0.000001
    27  F    0.000003  -0.000004   0.000000   0.000000   0.000000   0.000000
    28  O    0.000002  -0.000222   0.000005   0.000000  -0.000004   0.000000
    29  C    0.000000  -0.000008   0.000006   0.000000  -0.000005   0.000000
    30  F    0.000000   0.000000   0.000000   0.000000   0.000000   0.000000
    31  F    0.000000  -0.000001   0.000005   0.000000  -0.000031   0.000000
    32  F    0.000000  -0.000001   0.000000   0.000000   0.000000   0.000000
    33  C    0.000000  -0.000001   0.000000   0.000000   0.000000   0.000000
    34  F    0.000000   0.000000   0.000000   0.000000   0.000000   0.000000
    35  F    0.000000   0.000000   0.000000   0.000000   0.000000   0.000000
    36  F    0.000000   0.000000   0.000000   0.000000   0.000000   0.000000
    37  C   -0.028332   0.248354  -0.019378   0.000285  -0.005196   0.000297
    38  O    0.000595  -0.093960   0.000361  -0.000023   0.000091   0.000002
    39  H    0.401424  -0.040785  -0.002182   0.001064  -0.000003   0.000014
    40  H    0.388972  -0.029853   0.004063   0.000571  -0.000080   0.000000
    41  H    0.388723  -0.029909  -0.003868   0.006027   0.000276  -0.000007
               7          8          9         10         11         12
     1  C    0.000000   0.000005   0.000002   0.000000  -0.000003   0.000001
     2  N   -0.000028   0.000031  -0.000034   0.000002  -0.000453  -0.000007
     3  C    0.000537   0.004935  -0.002874  -0.000380   0.005028   0.000125
     4  O    0.000012  -0.010154  -0.003487   0.000006  -0.003191   0.000517
     5  N   -0.041668  -0.038020  -0.069030  -0.000520   0.000309  -0.000195
     6  C    0.272099   0.269105   0.210820  -0.022548  -0.026402   0.001041
     7  F    9.097235  -0.041435  -0.024507  -0.000077   0.000543   0.000004
     8  F   -0.041435   9.096581  -0.035863   0.000302   0.000754  -0.000058
     9  C   -0.024507  -0.035863   4.990515   0.220723   0.154775   0.001865
    10  F   -0.000077   0.000302   0.220723   9.124405  -0.053514  -0.001046
    11  O    0.000543   0.000754   0.154775  -0.053514   8.356043   0.234001
    12  C    0.000004  -0.000058   0.001865  -0.001046   0.234001   3.821659
    13  F    0.000000   0.000001  -0.009004  -0.000016  -0.047404   0.302426
    14  F    0.000000   0.000000   0.000546  -0.000021  -0.039423   0.339092
    15  F    0.000000   0.000000   0.012658  -0.001500  -0.046170   0.295758
    16  C   -0.001656   0.008284   0.207675  -0.014956  -0.026683  -0.003698
    17  F   -0.000002   0.000000  -0.031415  -0.000058  -0.001500   0.012144
    18  F   -0.000129  -0.001007  -0.031582   0.000313   0.000283  -0.000383
    19  F   -0.002266  -0.000978  -0.029737  -0.000259   0.000543   0.000058
    20  C    0.008661   0.001137   0.000221   0.006723   0.000203  -0.000011
    21  O   -0.008065   0.000008  -0.000881  -0.004734  -0.000093  -0.000005
    22  N   -0.000062  -0.000026  -0.000270   0.000021   0.000002   0.000000
    23  C    0.000011   0.000000   0.000005   0.000004   0.000000   0.000000
    24  F   -0.000001   0.000000   0.000000   0.000000   0.000000   0.000000
    25  F    0.000000   0.000000   0.000000   0.000000   0.000000   0.000000
    26  C    0.000000   0.000000   0.000000   0.000000   0.000000   0.000000
    27  F    0.000000   0.000000   0.000000   0.000000   0.000000   0.000000
    28  O    0.000000   0.000000   0.000000   0.000000   0.000000   0.000000
    29  C    0.000000   0.000000   0.000000   0.000000   0.000000   0.000000
    30  F    0.000000   0.000000   0.000000   0.000000   0.000000   0.000000
    31  F    0.000000   0.000000   0.000000   0.000000   0.000000   0.000000
    32  F    0.000000   0.000000   0.000000   0.000000   0.000000   0.000000
    33  C    0.000000   0.000000   0.000000   0.000000   0.000000   0.000000
    34  F    0.000000   0.000000   0.000000   0.000000   0.000000   0.000000
    35  F    0.000000   0.000000   0.000000   0.000000   0.000000   0.000000
    36  F    0.000000   0.000000   0.000000   0.000000   0.000000   0.000000
    37  C    0.000009   0.000004   0.000019  -0.000001   0.000017   0.000000
    38  O    0.000000   0.000000   0.000000   0.000000   0.000000   0.000000
    39  H    0.000000   0.000000  -0.000003   0.000000   0.000006   0.000001
    40  H    0.000000   0.000000   0.000000   0.000000   0.000000   0.000000
    41  H    0.000000   0.000000   0.000001   0.000000   0.000002   0.000000
              13         14         15         16         17         18
     1  C    0.000000   0.000000   0.000000   0.000000   0.000000   0.000000
     2  N    0.000000   0.000000   0.000000  -0.000002   0.000000   0.000000
     3  C    0.000002  -0.000013   0.000000  -0.000042   0.000000   0.000003
     4  O   -0.000003  -0.000005   0.000000  -0.000052   0.000000  -0.000001
     5  N    0.000001   0.000001  -0.000002   0.003121  -0.000012  -0.000031
     6  C   -0.000164  -0.000032   0.000189  -0.029888   0.001290  -0.000612
     7  F    0.000000   0.000000   0.000000  -0.001656  -0.000002  -0.000129
     8  F    0.000001   0.000000   0.000000   0.008284   0.000000  -0.001007
     9  C   -0.009004   0.000546   0.012658   0.207675  -0.031415  -0.031582
    10  F   -0.000016  -0.000021  -0.001500  -0.014956  -0.000058   0.000313
    11  O   -0.047404  -0.039423  -0.046170  -0.026683  -0.001500   0.000283
    12  C    0.302426   0.339092   0.295758  -0.003698   0.012144  -0.000383
    13  F    9.057640  -0.037331  -0.033862   0.017755  -0.006618  -0.000481
    14  F   -0.037331   9.013500  -0.036631  -0.000028  -0.000003   0.000000
    15  F   -0.033862  -0.036631   9.057813  -0.004237  -0.001942   0.000014
    16  C    0.017755  -0.000028  -0.004237   4.195736   0.280968   0.266760
    17  F   -0.006618  -0.000003  -0.001942   0.280968   9.085004  -0.038807
    18  F   -0.000481   0.000000   0.000014   0.266760  -0.038807   9.089619
    19  F    0.000000   0.000000   0.000000   0.287830  -0.039777  -0.037935
    20  C    0.000000   0.000000   0.000000   0.000302   0.000000   0.000000
    21  O    0.000000   0.000000   0.000000   0.000010   0.000000   0.000000
    22  N    0.000000   0.000000   0.000000   0.000000   0.000000   0.000000
    23  C    0.000000   0.000000   0.000000   0.000000   0.000000   0.000000
    24  F    0.000000   0.000000   0.000000   0.000000   0.000000   0.000000
    25  F    0.000000   0.000000   0.000000   0.000000   0.000000   0.000000
    26  C    0.000000   0.000000   0.000000   0.000000   0.000000   0.000000
    27  F    0.000000   0.000000   0.000000   0.000000   0.000000   0.000000
    28  O    0.000000   0.000000   0.000000   0.000000   0.000000   0.000000
    29  C    0.000000   0.000000   0.000000   0.000000   0.000000   0.000000
    30  F    0.000000   0.000000   0.000000   0.000000   0.000000   0.000000
    31  F    0.000000   0.000000   0.000000   0.000000   0.000000   0.000000
    32  F    0.000000   0.000000   0.000000   0.000000   0.000000   0.000000
    33  C    0.000000   0.000000   0.000000   0.000000   0.000000   0.000000
    34  F    0.000000   0.000000   0.000000   0.000000   0.000000   0.000000
    35  F    0.000000   0.000000   0.000000   0.000000   0.000000   0.000000
    36  F    0.000000   0.000000   0.000000   0.000000   0.000000   0.000000
    37  C    0.000000   0.000000   0.000000   0.000000   0.000000   0.000000
    38  O    0.000000   0.000000   0.000000   0.000000   0.000000   0.000000
    39  H    0.000000   0.000000   0.000000   0.000000   0.000000   0.000000
    40  H    0.000000   0.000000   0.000000   0.000000   0.000000   0.000000
    41  H    0.000000   0.000000   0.000000   0.000000   0.000000   0.000000
              19         20         21         22         23         24
     1  C    0.000000  -0.000084   0.000001   0.003335  -0.000017   0.000000
     2  N    0.000000  -0.000185   0.000175  -0.105121   0.003138  -0.000022
     3  C    0.000002  -0.013443   0.000452  -0.003220   0.000376   0.000003
     4  O    0.000000  -0.000007  -0.000026   0.000050   0.000002   0.000000
     5  N    0.000047   0.217742  -0.090663  -0.092779   0.002714  -0.000119
     6  C    0.007042  -0.012411   0.014819   0.001816  -0.000015   0.000012
     7  F   -0.002266   0.008661  -0.008065  -0.000062   0.000011  -0.000001
     8  F   -0.000978   0.001137   0.000008  -0.000026   0.000000   0.000000
     9  C   -0.029737   0.000221  -0.000881  -0.000270   0.000005   0.000000
    10  F   -0.000259   0.006723  -0.004734   0.000021   0.000004   0.000000
    11  O    0.000543   0.000203  -0.000093   0.000002   0.000000   0.000000
    12  C    0.000058  -0.000011  -0.000005   0.000000   0.000000   0.000000
    13  F    0.000000   0.000000   0.000000   0.000000   0.000000   0.000000
    14  F    0.000000   0.000000   0.000000   0.000000   0.000000   0.000000
    15  F    0.000000   0.000000   0.000000   0.000000   0.000000   0.000000
    16  C    0.287830   0.000302   0.000010   0.000000   0.000000   0.000000
    17  F   -0.039777   0.000000   0.000000   0.000000   0.000000   0.000000
    18  F   -0.037935   0.000000   0.000000   0.000000   0.000000   0.000000
    19  F    9.059080  -0.000004  -0.000001   0.000000   0.000000   0.000000
    20  C   -0.000004   4.211204   0.575087   0.193435  -0.004419   0.004694
    21  O   -0.000001   0.575087   8.063954  -0.088777   0.014728  -0.011275
    22  N    0.000000   0.193435  -0.088777   7.609357   0.146661  -0.034404
    23  C    0.000000  -0.004419   0.014728   0.146661   4.401926   0.240766
    24  F    0.000000   0.004694  -0.011275  -0.034404   0.240766   9.135575
    25  F    0.000000   0.005004  -0.002026  -0.067712   0.288872  -0.037508
    26  C    0.000000   0.003130   0.000160  -0.034225   0.192444  -0.034431
    27  F    0.000000  -0.000048   0.000000  -0.000611  -0.026445   0.000345
    28  O    0.000000   0.000064   0.000000  -0.000121  -0.043083   0.000667
    29  C    0.000000   0.000009   0.000000   0.001351  -0.006908   0.002344
    30  F    0.000000   0.000000   0.000000   0.000008  -0.000177  -0.000012
    31  F    0.000000   0.000831  -0.000013  -0.001685   0.010788  -0.005438
    32  F    0.000000   0.000000   0.000000  -0.000034  -0.000066  -0.000001
    33  C    0.000000  -0.000051   0.000002   0.002811  -0.034964   0.013092
    34  F    0.000000   0.000005   0.000000  -0.000044   0.000688  -0.004473
    35  F    0.000000   0.000000   0.000000  -0.000008   0.001894   0.000002
    36  F    0.000000   0.000003   0.000000   0.000046   0.010209  -0.001522
    37  C    0.000000  -0.010933   0.000012   0.198099  -0.008719   0.002019
    38  O    0.000000  -0.000061  -0.000012  -0.093854   0.012176   0.000021
    39  H    0.000000  -0.000167  -0.000001  -0.000043   0.000011   0.000000
    40  H    0.000000   0.000039   0.000000   0.000283  -0.000007   0.000000
    41  H    0.000000   0.000032   0.000000  -0.000080  -0.000001   0.000000
              25         26         27         28         29         30
     1  C    0.000001  -0.000012   0.000003   0.000002   0.000000   0.000000
     2  N    0.000010  -0.000243  -0.000004  -0.000222  -0.000008   0.000000
     3  C    0.000005  -0.000013   0.000000   0.000005   0.000006   0.000000
     4  O    0.000000   0.000000   0.000000   0.000000   0.000000   0.000000
     5  N    0.000025  -0.000082   0.000000  -0.000004  -0.000005   0.000000
     6  C    0.000002   0.000001   0.000000   0.000000   0.000000   0.000000
     7  F    0.000000   0.000000   0.000000   0.000000   0.000000   0.000000
     8  F    0.000000   0.000000   0.000000   0.000000   0.000000   0.000000
     9  C    0.000000   0.000000   0.000000   0.000000   0.000000   0.000000
    10  F    0.000000   0.000000   0.000000   0.000000   0.000000   0.000000
    11  O    0.000000   0.000000   0.000000   0.000000   0.000000   0.000000
    12  C    0.000000   0.000000   0.000000   0.000000   0.000000   0.000000
    13  F    0.000000   0.000000   0.000000   0.000000   0.000000   0.000000
    14  F    0.000000   0.000000   0.000000   0.000000   0.000000   0.000000
    15  F    0.000000   0.000000   0.000000   0.000000   0.000000   0.000000
    16  C    0.000000   0.000000   0.000000   0.000000   0.000000   0.000000
    17  F    0.000000   0.000000   0.000000   0.000000   0.000000   0.000000
    18  F    0.000000   0.000000   0.000000   0.000000   0.000000   0.000000
    19  F    0.000000   0.000000   0.000000   0.000000   0.000000   0.000000
    20  C    0.005004   0.003130  -0.000048   0.000064   0.000009   0.000000
    21  O   -0.002026   0.000160   0.000000   0.000000   0.000000   0.000000
    22  N   -0.067712  -0.034225  -0.000611  -0.000121   0.001351   0.000008
    23  C    0.288872   0.192444  -0.026445  -0.043083  -0.006908  -0.000177
    24  F   -0.037508  -0.034431   0.000345   0.000667   0.002344  -0.000012
    25  F    9.086267  -0.025296   0.000114   0.000592   0.000076   0.000000
    26  C   -0.025296   4.969614   0.230679   0.151062  -0.003427  -0.007380
    27  F    0.000114   0.230679   9.112556  -0.038789   0.000235  -0.000003
    28  O    0.000592   0.151062  -0.038789   8.350855   0.240321  -0.046804
    29  C    0.000076  -0.003427   0.000235   0.240321   3.843143   0.302611
    30  F    0.000000  -0.007380  -0.000003  -0.046804   0.302611   9.047278
    31  F    0.000002   0.004893   0.000000  -0.049004   0.294235  -0.033450
    32  F    0.000000   0.001068  -0.000002  -0.039248   0.336016  -0.037242
    33  C   -0.002882   0.229739  -0.007539  -0.022408  -0.004506   0.017368
    34  F   -0.000030  -0.037800   0.000304  -0.001359   0.013497  -0.007395
    35  F   -0.000002  -0.025684  -0.001073  -0.000805  -0.000198  -0.000753
    36  F    0.000087  -0.034353  -0.000842   0.000517   0.000064   0.000000
    37  C    0.007026  -0.008236   0.002846   0.004877   0.000455   0.000002
    38  O   -0.001474   0.008664  -0.010510  -0.002735   0.000017   0.000000
    39  H    0.000000  -0.000001   0.000000   0.000000   0.000000   0.000000
    40  H    0.000000   0.000006  -0.000001  -0.000002   0.000000   0.000000
    41  H    0.000000   0.000000   0.000000   0.000000   0.000000   0.000000
              31         32         33         34         35         36
     1  C    0.000000   0.000000   0.000000   0.000000   0.000000   0.000000
     2  N   -0.000001  -0.000001  -0.000001   0.000000   0.000000   0.000000
     3  C    0.000005   0.000000   0.000000   0.000000   0.000000   0.000000
     4  O    0.000000   0.000000   0.000000   0.000000   0.000000   0.000000
     5  N   -0.000031   0.000000   0.000000   0.000000   0.000000   0.000000
     6  C    0.000000   0.000000   0.000000   0.000000   0.000000   0.000000
     7  F    0.000000   0.000000   0.000000   0.000000   0.000000   0.000000
     8  F    0.000000   0.000000   0.000000   0.000000   0.000000   0.000000
     9  C    0.000000   0.000000   0.000000   0.000000   0.000000   0.000000
    10  F    0.000000   0.000000   0.000000   0.000000   0.000000   0.000000
    11  O    0.000000   0.000000   0.000000   0.000000   0.000000   0.000000
    12  C    0.000000   0.000000   0.000000   0.000000   0.000000   0.000000
    13  F    0.000000   0.000000   0.000000   0.000000   0.000000   0.000000
    14  F    0.000000   0.000000   0.000000   0.000000   0.000000   0.000000
    15  F    0.000000   0.000000   0.000000   0.000000   0.000000   0.000000
    16  C    0.000000   0.000000   0.000000   0.000000   0.000000   0.000000
    17  F    0.000000   0.000000   0.000000   0.000000   0.000000   0.000000
    18  F    0.000000   0.000000   0.000000   0.000000   0.000000   0.000000
    19  F    0.000000   0.000000   0.000000   0.000000   0.000000   0.000000
    20  C    0.000831   0.000000  -0.000051   0.000005   0.000000   0.000003
    21  O   -0.000013   0.000000   0.000002   0.000000   0.000000   0.000000
    22  N   -0.001685  -0.000034   0.002811  -0.000044  -0.000008   0.000046
    23  C    0.010788  -0.000066  -0.034964   0.000688   0.001894   0.010209
    24  F   -0.005438  -0.000001   0.013092  -0.004473   0.000002  -0.001522
    25  F    0.000002   0.000000  -0.002882  -0.000030  -0.000002   0.000087
    26  C    0.004893   0.001068   0.229739  -0.037800  -0.025684  -0.034353
    27  F    0.000000  -0.000002  -0.007539   0.000304  -0.001073  -0.000842
    28  O   -0.049004  -0.039248  -0.022408  -0.001359  -0.000805   0.000517
    29  C    0.294235   0.336016  -0.004506   0.013497  -0.000198   0.000064
    30  F   -0.033450  -0.037242   0.017368  -0.007395  -0.000753   0.000000
    31  F    9.064876  -0.037537  -0.004699  -0.000406   0.000011   0.000000
    32  F   -0.037537   9.014656  -0.000071  -0.000001   0.000000   0.000000
    33  C   -0.004699  -0.000071   4.167866   0.254869   0.288337   0.292419
    34  F   -0.000406  -0.000001   0.254869   9.105585  -0.038362  -0.037187
    35  F    0.000011   0.000000   0.288337  -0.038362   9.071413  -0.038169
    36  F    0.000000   0.000000   0.292419  -0.037187  -0.038169   9.051143
    37  C    0.000011   0.000008   0.000274   0.000000  -0.000001  -0.000003
    38  O    0.000001   0.000000   0.000309   0.000000   0.000000  -0.000001
    39  H    0.000000   0.000000   0.000000   0.000000   0.000000   0.000000
    40  H    0.000000   0.000000   0.000000   0.000000   0.000000   0.000000
    41  H    0.000000   0.000000   0.000000   0.000000   0.000000   0.000000
              37         38         39         40         41
     1  C   -0.028332   0.000595   0.401424   0.388972   0.388723
     2  N    0.248354  -0.093960  -0.040785  -0.029853  -0.029909
     3  C   -0.019378   0.000361  -0.002182   0.004063  -0.003868
     4  O    0.000285  -0.000023   0.001064   0.000571   0.006027
     5  N   -0.005196   0.000091  -0.000003  -0.000080   0.000276
     6  C    0.000297   0.000002   0.000014   0.000000  -0.000007
     7  F    0.000009   0.000000   0.000000   0.000000   0.000000
     8  F    0.000004   0.000000   0.000000   0.000000   0.000000
     9  C    0.000019   0.000000  -0.000003   0.000000   0.000001
    10  F   -0.000001   0.000000   0.000000   0.000000   0.000000
    11  O    0.000017   0.000000   0.000006   0.000000   0.000002
    12  C    0.000000   0.000000   0.000001   0.000000   0.000000
    13  F    0.000000   0.000000   0.000000   0.000000   0.000000
    14  F    0.000000   0.000000   0.000000   0.000000   0.000000
    15  F    0.000000   0.000000   0.000000   0.000000   0.000000
    16  C    0.000000   0.000000   0.000000   0.000000   0.000000
    17  F    0.000000   0.000000   0.000000   0.000000   0.000000
    18  F    0.000000   0.000000   0.000000   0.000000   0.000000
    19  F    0.000000   0.000000   0.000000   0.000000   0.000000
    20  C   -0.010933  -0.000061  -0.000167   0.000039   0.000032
    21  O    0.000012  -0.000012  -0.000001   0.000000   0.000000
    22  N    0.198099  -0.093854  -0.000043   0.000283  -0.000080
    23  C   -0.008719   0.012176   0.000011  -0.000007  -0.000001
    24  F    0.002019   0.000021   0.000000   0.000000   0.000000
    25  F    0.007026  -0.001474   0.000000   0.000000   0.000000
    26  C   -0.008236   0.008664  -0.000001   0.000006   0.000000
    27  F    0.002846  -0.010510   0.000000  -0.000001   0.000000
    28  O    0.004877  -0.002735   0.000000  -0.000002   0.000000
    29  C    0.000455   0.000017   0.000000   0.000000   0.000000
    30  F    0.000002   0.000000   0.000000   0.000000   0.000000
    31  F    0.000011   0.000001   0.000000   0.000000   0.000000
    32  F    0.000008   0.000000   0.000000   0.000000   0.000000
    33  C    0.000274   0.000309   0.000000   0.000000   0.000000
    34  F    0.000000   0.000000   0.000000   0.000000   0.000000
    35  F   -0.000001   0.000000   0.000000   0.000000   0.000000
    36  F   -0.000003  -0.000001   0.000000   0.000000   0.000000
    37  C    4.197059   0.600479  -0.002982  -0.003193   0.004392
    38  O    0.600479   8.062204   0.001012   0.005504   0.000557
    39  H   -0.002982   0.001012   0.537714  -0.027954  -0.028258
    40  H   -0.003193   0.005504  -0.027954   0.519215  -0.023114
    41  H    0.004392   0.000557  -0.028258  -0.023114   0.518274
 Mulliken charges:
               1
     1  C   -0.182857
     2  N   -0.577580
     3  C    0.837645
     4  O   -0.498452
     5  N   -0.641255
     6  C    0.761272
     7  F   -0.259216
     8  F   -0.253606
     9  C    0.438863
    10  F   -0.252871
    11  O   -0.507675
    12  C    0.996713
    13  F   -0.242942
    14  F   -0.239651
    15  F   -0.242089
    16  C    0.812800
    17  F   -0.259269
    18  F   -0.246023
    19  F   -0.243645
    20  C    0.813299
    21  O   -0.462837
    22  N   -0.634201
    23  C    0.797408
    24  F   -0.270333
    25  F   -0.251152
    26  C    0.419723
    27  F   -0.261215
    28  O   -0.504378
    29  C    0.980674
    30  F   -0.234052
    31  F   -0.243387
    32  F   -0.237546
    33  C    0.810036
    34  F   -0.247891
    35  F   -0.256601
    36  F   -0.242412
    37  C    0.820429
    38  O   -0.489366
    39  H    0.161133
    40  H    0.165552
    41  H    0.166951
 Sum of Mulliken charges =   0.00000
 Mulliken charges with hydrogens summed into heavy atoms:
               1
     1  C    0.310779
     2  N   -0.577580
     3  C    0.837645
     4  O   -0.498452
     5  N   -0.641255
     6  C    0.761272
     7  F   -0.259216
     8  F   -0.253606
     9  C    0.438863
    10  F   -0.252871
    11  O   -0.507675
    12  C    0.996713
    13  F   -0.242942
    14  F   -0.239651
    15  F   -0.242089
    16  C    0.812800
    17  F   -0.259269
    18  F   -0.246023
    19  F   -0.243645
    20  C    0.813299
    21  O   -0.462837
    22  N   -0.634201
    23  C    0.797408
    24  F   -0.270333
    25  F   -0.251152
    26  C    0.419723
    27  F   -0.261215
    28  O   -0.504378
    29  C    0.980674
    30  F   -0.234052
    31  F   -0.243387
    32  F   -0.237546
    33  C    0.810036
    34  F   -0.247891
    35  F   -0.256601
    36  F   -0.242412
    37  C    0.820429
    38  O   -0.489366
 Electronic spatial extent (au):  <R**2>=          18652.2631
 Charge=              0.0000 electrons
 Dipole moment (field-independent basis, Debye):
    X=              0.9655    Y=             -1.1262    Z=             -2.5417  Tot=              2.9429
 Quadrupole moment (field-independent basis, Debye-Ang):
   XX=           -207.9667   YY=           -205.0847   ZZ=           -201.0735
   XY=            -10.2943   XZ=             -0.1587   YZ=             -1.6088
 Traceless Quadrupole moment (field-independent basis, Debye-Ang):
   XX=             -3.2584   YY=             -0.3764   ZZ=              3.6348
   XY=            -10.2943   XZ=             -0.1587   YZ=             -1.6088
 Octapole moment (field-independent basis, Debye-Ang**2):
  XXX=              4.7837  YYY=             -2.1357  ZZZ=           -290.0198  XYY=              1.8486
  XXY=             -2.6270  XXZ=            -70.6001  XZZ=             10.2811  YZZ=             -3.5566
  YYZ=            -74.1062  XYZ=             11.8196
 Hexadecapole moment (field-independent basis, Debye-Ang**3):
 XXXX=         -14318.2967 YYYY=          -2296.5265 ZZZZ=          -2718.3105 XXXY=          -1017.2481
 XXXZ=           -412.4134 YYYX=           -946.4867 YYYZ=            -19.4662 ZZZX=           -445.1999
 ZZZY=            -21.2083 XXYY=          -2782.5244 XXZZ=          -2889.9880 YYZZ=           -868.4779
 XXYZ=            -17.3008 YYXZ=           -132.9242 ZZXY=           -334.1650
 N-N= 5.616219774954D+03 E-N=-1.784209310299D+04  KE= 2.775533573040D+03
 No NMR shielding tensors so no spin-rotation constants.
 Leave Link  601 at Sun Mar  3 17:22:34 2024, MaxMem=  5368709120 cpu:         5.3
 (Enter /home/k0335/k033513/app/g09/l9999.exe)
 1\1\GINC-C24U17N3\SP\RCAM-B3LYP\6-31G(d,p)\C12H3F18N3O5\K033513\03-Mar
 -2024\0\\#p CAM-B3LYP/6-31G(d,p) SCRF=(PCM,Solvent=Generic,Read) NoSym
 m out=wfn\\Title A153226972_0\\0,1\C,0,0.229411,-0.01101,-3.314227\N,0
 ,0.22832,-0.158978,-1.866789\C,0,-0.826446,-0.834508,-1.287799\O,0,-1.
 733095,-1.312534,-1.967486\N,0,-0.827142,-0.877845,0.083195\C,0,-1.996
 83,-1.446064,0.741384\F,0,-1.616104,-1.885309,1.976269\F,0,-2.338093,-
 2.597933,0.092865\C,0,-3.235549,-0.516806,0.858268\F,0,-2.943976,0.523
 258,1.691994\O,0,-3.510246,0.087517,-0.410338\C,0,-4.749999,0.7427,-0.
 456778\F,0,-5.729495,-0.166208,-0.5831\F,0,-4.764358,1.547655,-1.53540
 4\F,0,-4.945529,1.488014,0.641118\C,0,-4.335901,-1.388415,1.480978\F,0
 ,-5.436349,-0.657822,1.784239\F,0,-4.742099,-2.365669,0.63955\F,0,-3.9
 49792,-1.981159,2.631629\C,0,-0.032102,-0.03058,0.815587\O,0,-0.376718
 ,0.371562,1.922746\N,0,1.138453,0.36743,0.212165\C,0,2.073687,1.119006
 ,1.045572\F,0,2.07064,0.542652,2.283884\F,0,1.588676,2.376872,1.232895
 \C,0,3.560992,1.1917,0.582939\F,0,3.696306,2.210052,-0.331903\O,0,4.01
 933,0.037019,-0.140057\C,0,4.299003,-1.079892,0.66113\F,0,5.425978,-0.
 881965,1.355027\F,0,3.270341,-1.317001,1.486281\F,0,4.454704,-2.147802
 ,-0.140938\C,0,4.390858,1.619256,1.80136\F,0,4.362084,0.713176,2.80296
 6\F,0,5.69465,1.77386,1.459409\F,0,3.975786,2.797683,2.315896\C,0,1.12
 2075,0.595602,-1.135922\O,0,1.819143,1.451209,-1.671019\H,0,-0.416527,
 0.83322,-3.575783\H,0,1.240258,0.183532,-3.684975\H,0,-0.154349,-0.915
 478,-3.795723\\Version=ES64L-G09RevD.01\HF=-2795.8082063\RMSD=6.837e-0
 9\Dipole=0.3798629,-0.4430809,-0.9999713\Quadrupole=-2.4225401,-0.2798
 212,2.7023614,-7.6535971,-0.1179896,-1.1961003\PG=C01 [X(C12H3F18N3O5)
 ]\\@

 Writing a WFN file to "A153226972/A153226972_0.wfn"


 ACCORDING TO HEN3RY, LIFE IS MUCH LIKE A SEWER........
 YOU GET OUT OF IT JUST WHAT YOU PUT INTO IT...........
                         TOM LEHRER - (THE 3 IS SILENT)
 Job cpu time:       0 days  0 hours 18 minutes 58.8 seconds.
 File lengths (MBytes):  RWF=    375 Int=      0 D2E=      0 Chk=     14 Scr=      1
 Normal termination of Gaussian 09 at Sun Mar  3 17:22:34 2024.
