 Entering Gaussian System, Link 0=g09
 Initial command:
 /home/k0335/k033513/app/g09/l1.exe "/home/k0335/k033513/app/g09/scratch/Gau-2392341.inp" -scrdir="/home/k0335/k033513/app/g09/scratch/"
 Default is to use a total of  36 processors:
                               36 via shared-memory
                                1 via Linda
 Entering Link 1 = /home/k0335/k033513/app/g09/l1.exe PID=   2392342.
  
 Copyright (c) 1988,1990,1992,1993,1995,1998,2003,2009,2013,
            Gaussian, Inc.  All Rights Reserved.
  
 This is part of the Gaussian(R) 09 program.  It is based on
 the Gaussian(R) 03 system (copyright 2003, Gaussian, Inc.),
 the Gaussian(R) 98 system (copyright 1998, Gaussian, Inc.),
 the Gaussian(R) 94 system (copyright 1995, Gaussian, Inc.),
 the Gaussian 92(TM) system (copyright 1992, Gaussian, Inc.),
 the Gaussian 90(TM) system (copyright 1990, Gaussian, Inc.),
 the Gaussian 88(TM) system (copyright 1988, Gaussian, Inc.),
 the Gaussian 86(TM) system (copyright 1986, Carnegie Mellon
 University), and the Gaussian 82(TM) system (copyright 1983,
 Carnegie Mellon University). Gaussian is a federally registered
 trademark of Gaussian, Inc.
  
 This software contains proprietary and confidential information,
 including trade secrets, belonging to Gaussian, Inc.
  
 This software is provided under written license and may be
 used, copied, transmitted, or stored only in accord with that
 written license.
  
 The following legend is applicable only to US Government
 contracts under FAR:
  
                    RESTRICTED RIGHTS LEGEND
  
 Use, reproduction and disclosure by the US Government is
 subject to restrictions as set forth in subparagraphs (a)
 and (c) of the Commercial Computer Software - Restricted
 Rights clause in FAR 52.227-19.
  
 Gaussian, Inc.
 340 Quinnipiac St., Bldg. 40, Wallingford CT 06492
  
  
 ---------------------------------------------------------------
 Warning -- This program may not be used in any manner that
 competes with the business of Gaussian, Inc. or will provide
 assistance to any competitor of Gaussian, Inc.  The licensee
 of this program is prohibited from giving any competitor of
 Gaussian, Inc. access to this program.  By using this program,
 the user acknowledges that Gaussian, Inc. is engaged in the
 business of creating and licensing software in the field of
 computational chemistry and represents and warrants to the
 licensee that it is not a competitor of Gaussian, Inc. and that
 it will not use this program in any manner prohibited above.
 ---------------------------------------------------------------
  

 Cite this work as:
 Gaussian 09, Revision D.01,
 M. J. Frisch, G. W. Trucks, H. B. Schlegel, G. E. Scuseria, 
 M. A. Robb, J. R. Cheeseman, G. Scalmani, V. Barone, B. Mennucci, 
 G. A. Petersson, H. Nakatsuji, M. Caricato, X. Li, H. P. Hratchian, 
 A. F. Izmaylov, J. Bloino, G. Zheng, J. L. Sonnenberg, M. Hada, 
 M. Ehara, K. Toyota, R. Fukuda, J. Hasegawa, M. Ishida, T. Nakajima, 
 Y. Honda, O. Kitao, H. Nakai, T. Vreven, J. A. Montgomery, Jr., 
 J. E. Peralta, F. Ogliaro, M. Bearpark, J. J. Heyd, E. Brothers, 
 K. N. Kudin, V. N. Staroverov, T. Keith, R. Kobayashi, J. Normand, 
 K. Raghavachari, A. Rendell, J. C. Burant, S. S. Iyengar, J. Tomasi, 
 M. Cossi, N. Rega, J. M. Millam, M. Klene, J. E. Knox, J. B. Cross, 
 V. Bakken, C. Adamo, J. Jaramillo, R. Gomperts, R. E. Stratmann, 
 O. Yazyev, A. J. Austin, R. Cammi, C. Pomelli, J. W. Ochterski, 
 R. L. Martin, K. Morokuma, V. G. Zakrzewski, G. A. Voth, 
 P. Salvador, J. J. Dannenberg, S. Dapprich, A. D. Daniels, 
 O. Farkas, J. B. Foresman, J. V. Ortiz, J. Cioslowski, 
 and D. J. Fox, Gaussian, Inc., Wallingford CT, 2013.
 
 ******************************************
 Gaussian 09:  ES64L-G09RevD.01 24-Apr-2013
                 4-Feb-2025 
 ******************************************
 %nprocshared=24
 Will use up to   24 processors via shared memory.
 %mem=40GB
 %rwf=cytopopt/EHOPA0/EHOPA0_neu.rwf
 %nosave
 %chk=cytopopt/EHOPA0/EHOPA0_neu.chk
 ----------------------------------------------------------------------
 #p CAM-B3LYP/6-31G(d,p) opt SCRF=(PCM,Solvent=Generic,Read) NoSymm out
 =wfn
 ----------------------------------------------------------------------
 1/14=-1,18=20,19=15,26=3,38=1,40=2/1,3;
 2/9=110,12=2,15=1,17=6,18=5,40=1/2;
 3/5=1,6=6,7=101,11=2,16=1,25=1,30=1,70=2203,71=1,72=-2,74=-40/1,2,3;
 4//1;
 5/5=2,38=5/2;
 6/7=2,8=2,9=2,10=2,28=1/1;
 7/30=1/1,2,3,16;
 1/14=-1,18=20,19=15,26=3/3(2);
 2/9=110,15=1/2;
 99/6=100/99;
 2/9=110,15=1/2;
 3/5=1,6=6,7=101,11=2,16=1,25=1,30=1,70=2205,71=1,72=-2,74=-40/1,2,3;
 4/5=5,16=3,69=1/1;
 5/5=2,38=5/2;
 7/30=1/1,2,3,16;
 1/14=-1,18=20,19=15,26=3/3(-5);
 2/9=110,15=1/2;
 6/7=2,8=2,9=2,10=2,19=2,28=1/1;
 99/6=100,9=1/99;
 Leave Link    1 at Tue Feb  4 00:46:57 2025, MaxMem=  5368709120 cpu:         1.3
 (Enter /home/k0335/k033513/app/g09/l101.exe)
 ----------------
 Title EHOPA0_neu
 ----------------
 Symbolic Z-matrix:
 Charge =  0 Multiplicity = 1
 C                    -7.27809  -0.8811   -1.96057 
 C                    -6.58096  -1.27094  -0.66582 
 C                    -5.44243  -0.32353  -0.27486 
 C                    -4.26493  -0.36232  -1.25538 
 C                    -3.0468    0.49788  -0.84558 
 C                    -3.35826   2.00093  -0.69504 
 C                    -3.93178   2.63933  -1.95245 
 C                    -2.36648  -0.01036   0.44243 
 O                    -2.10325  -1.41382   0.43146 
 C                    -1.03571  -1.83555  -0.41204 
 C                     0.34198  -1.42845   0.10219 
 C                     0.55598  -1.82896   1.55986 
 N                     1.89828  -1.49689   2.00279 
 C                     2.24796  -0.21043   2.38336 
 C                     3.73008  -0.01784   2.74787 
 F                     3.97712   1.17637   3.35397 
 F                     4.10365  -0.96755   3.66669 
 C                     4.64609  -0.17014   1.51396 
 F                     4.4424   -1.41207   0.99554 
 O                     6.02641  -0.14168   1.94071 
 C                     6.59196   1.06861   1.45243 
 F                     7.50535   0.70501   0.52614 
 F                     7.25951   1.68518   2.4442 
 C                     5.48758   1.91062   0.84369 
 F                     5.8854    2.72735  -0.14448 
 F                     4.94627   2.70526   1.80625 
 C                     4.47495   0.88438   0.43109 
 C                     4.63673   0.34858  -0.98346 
 F                     4.3969    1.38343  -1.85002 
 C                     5.96464  -0.33163  -1.31131 
 O                     6.81079   0.44516  -2.01971 
 O                     6.31486  -1.44641  -0.95931 
 F                     3.60122  -0.52456  -1.21037 
 F                     3.22532   1.43672   0.48106 
 O                     1.4312    0.70879   2.4043 
 H                    -8.14338  -1.53014  -2.13085 
 H                    -6.61273  -0.98531  -2.82299 
 H                    -7.63345   0.15368  -1.91949 
 H                    -7.32334  -1.27176   0.14165 
 H                    -6.20277  -2.29661  -0.74895 
 H                    -5.83702   0.69537  -0.19621 
 H                    -5.09899  -0.61096   0.72487 
 H                    -3.94202  -1.40299  -1.38305 
 H                    -4.60187  -0.03837  -2.24646 
 H                    -2.32071   0.4003   -1.66339 
 H                    -4.04659   2.16953   0.14149 
 H                    -2.43005   2.52921  -0.44054 
 H                    -4.92999   2.25393  -2.18081 
 H                    -4.02059   3.72205  -1.81547 
 H                    -3.28284   2.46007  -2.8154 
 H                    -1.44548   0.54763   0.64202 
 H                    -3.02016   0.17459   1.30199 
 H                    -1.08697  -2.92953  -0.45156 
 H                    -1.18681  -1.48259  -1.43689 
 H                     1.11059  -1.8916   -0.52899 
 H                     0.47586  -0.34595  -0.00357 
 H                    -0.1608   -1.32456   2.21678 
 H                     0.43467  -2.91019   1.68457 
 H                     2.58947  -2.24126   2.03952 
 H                     7.62203  -0.09393  -2.1525 
 
 NAtoms=     60 NQM=       60 NQMF=       0 NMMI=      0 NMMIF=      0
                NMic=       0 NMicF=      0.
                    Isotopes and Nuclear Properties:
 (Nuclear quadrupole moments (NQMom) in fm**2, nuclear magnetic moments (NMagM)
  in nuclear magnetons)

  Atom         1           2           3           4           5           6           7           8           9          10
 IAtWgt=          12          12          12          12          12          12          12          12          16          12
 AtmWgt=  12.0000000  12.0000000  12.0000000  12.0000000  12.0000000  12.0000000  12.0000000  12.0000000  15.9949146  12.0000000
 NucSpn=           0           0           0           0           0           0           0           0           0           0
 AtZEff=   0.0000000   0.0000000   0.0000000   0.0000000   0.0000000   0.0000000   0.0000000   0.0000000   0.0000000   0.0000000
 NQMom=    0.0000000   0.0000000   0.0000000   0.0000000   0.0000000   0.0000000   0.0000000   0.0000000   0.0000000   0.0000000
 NMagM=    0.0000000   0.0000000   0.0000000   0.0000000   0.0000000   0.0000000   0.0000000   0.0000000   0.0000000   0.0000000
 AtZNuc=   6.0000000   6.0000000   6.0000000   6.0000000   6.0000000   6.0000000   6.0000000   6.0000000   8.0000000   6.0000000

  Atom        11          12          13          14          15          16          17          18          19          20
 IAtWgt=          12          12          14          12          12          19          19          12          19          16
 AtmWgt=  12.0000000  12.0000000  14.0030740  12.0000000  12.0000000  18.9984033  18.9984033  12.0000000  18.9984033  15.9949146
 NucSpn=           0           0           2           0           0           1           1           0           1           0
 AtZEff=   0.0000000   0.0000000   0.0000000   0.0000000   0.0000000   0.0000000   0.0000000   0.0000000   0.0000000   0.0000000
 NQMom=    0.0000000   0.0000000   2.0440000   0.0000000   0.0000000   0.0000000   0.0000000   0.0000000   0.0000000   0.0000000
 NMagM=    0.0000000   0.0000000   0.4037610   0.0000000   0.0000000   2.6288670   2.6288670   0.0000000   2.6288670   0.0000000
 AtZNuc=   6.0000000   6.0000000   7.0000000   6.0000000   6.0000000   9.0000000   9.0000000   6.0000000   9.0000000   8.0000000

  Atom        21          22          23          24          25          26          27          28          29          30
 IAtWgt=          12          19          19          12          19          19          12          12          19          12
 AtmWgt=  12.0000000  18.9984033  18.9984033  12.0000000  18.9984033  18.9984033  12.0000000  12.0000000  18.9984033  12.0000000
 NucSpn=           0           1           1           0           1           1           0           0           1           0
 AtZEff=   0.0000000   0.0000000   0.0000000   0.0000000   0.0000000   0.0000000   0.0000000   0.0000000   0.0000000   0.0000000
 NQMom=    0.0000000   0.0000000   0.0000000   0.0000000   0.0000000   0.0000000   0.0000000   0.0000000   0.0000000   0.0000000
 NMagM=    0.0000000   2.6288670   2.6288670   0.0000000   2.6288670   2.6288670   0.0000000   0.0000000   2.6288670   0.0000000
 AtZNuc=   6.0000000   9.0000000   9.0000000   6.0000000   9.0000000   9.0000000   6.0000000   6.0000000   9.0000000   6.0000000

  Atom        31          32          33          34          35          36          37          38          39          40
 IAtWgt=          16          16          19          19          16           1           1           1           1           1
 AtmWgt=  15.9949146  15.9949146  18.9984033  18.9984033  15.9949146   1.0078250   1.0078250   1.0078250   1.0078250   1.0078250
 NucSpn=           0           0           1           1           0           1           1           1           1           1
 AtZEff=   0.0000000   0.0000000   0.0000000   0.0000000   0.0000000   0.0000000   0.0000000   0.0000000   0.0000000   0.0000000
 NQMom=    0.0000000   0.0000000   0.0000000   0.0000000   0.0000000   0.0000000   0.0000000   0.0000000   0.0000000   0.0000000
 NMagM=    0.0000000   0.0000000   2.6288670   2.6288670   0.0000000   2.7928460   2.7928460   2.7928460   2.7928460   2.7928460
 AtZNuc=   8.0000000   8.0000000   9.0000000   9.0000000   8.0000000   1.0000000   1.0000000   1.0000000   1.0000000   1.0000000

  Atom        41          42          43          44          45          46          47          48          49          50
 IAtWgt=           1           1           1           1           1           1           1           1           1           1
 AtmWgt=   1.0078250   1.0078250   1.0078250   1.0078250   1.0078250   1.0078250   1.0078250   1.0078250   1.0078250   1.0078250
 NucSpn=           1           1           1           1           1           1           1           1           1           1
 AtZEff=   0.0000000   0.0000000   0.0000000   0.0000000   0.0000000   0.0000000   0.0000000   0.0000000   0.0000000   0.0000000
 NQMom=    0.0000000   0.0000000   0.0000000   0.0000000   0.0000000   0.0000000   0.0000000   0.0000000   0.0000000   0.0000000
 NMagM=    2.7928460   2.7928460   2.7928460   2.7928460   2.7928460   2.7928460   2.7928460   2.7928460   2.7928460   2.7928460
 AtZNuc=   1.0000000   1.0000000   1.0000000   1.0000000   1.0000000   1.0000000   1.0000000   1.0000000   1.0000000   1.0000000

  Atom        51          52          53          54          55          56          57          58          59          60
 IAtWgt=           1           1           1           1           1           1           1           1           1           1
 AtmWgt=   1.0078250   1.0078250   1.0078250   1.0078250   1.0078250   1.0078250   1.0078250   1.0078250   1.0078250   1.0078250
 NucSpn=           1           1           1           1           1           1           1           1           1           1
 AtZEff=   0.0000000   0.0000000   0.0000000   0.0000000   0.0000000   0.0000000   0.0000000   0.0000000   0.0000000   0.0000000
 NQMom=    0.0000000   0.0000000   0.0000000   0.0000000   0.0000000   0.0000000   0.0000000   0.0000000   0.0000000   0.0000000
 NMagM=    2.7928460   2.7928460   2.7928460   2.7928460   2.7928460   2.7928460   2.7928460   2.7928460   2.7928460   2.7928460
 AtZNuc=   1.0000000   1.0000000   1.0000000   1.0000000   1.0000000   1.0000000   1.0000000   1.0000000   1.0000000   1.0000000
 Leave Link  101 at Tue Feb  4 00:46:57 2025, MaxMem=  5368709120 cpu:         3.3
 (Enter /home/k0335/k033513/app/g09/l103.exe)

 GradGradGradGradGradGradGradGradGradGradGradGradGradGradGradGradGradGrad
 Berny optimization.
 Initialization pass.
                           ----------------------------
                           !    Initial Parameters    !
                           ! (Angstroms and Degrees)  !
 --------------------------                            --------------------------
 ! Name  Definition              Value          Derivative Info.                !
 --------------------------------------------------------------------------------
 ! R1    R(1,2)                  1.5213         estimate D2E/DX2                !
 ! R2    R(1,36)                 1.095          estimate D2E/DX2                !
 ! R3    R(1,37)                 1.0942         estimate D2E/DX2                !
 ! R4    R(1,38)                 1.0949         estimate D2E/DX2                !
 ! R5    R(2,3)                  1.5319         estimate D2E/DX2                !
 ! R6    R(2,39)                 1.0969         estimate D2E/DX2                !
 ! R7    R(2,40)                 1.0963         estimate D2E/DX2                !
 ! R8    R(3,4)                  1.5328         estimate D2E/DX2                !
 ! R9    R(3,41)                 1.0955         estimate D2E/DX2                !
 ! R10   R(3,42)                 1.0955         estimate D2E/DX2                !
 ! R11   R(4,5)                  1.5465         estimate D2E/DX2                !
 ! R12   R(4,43)                 1.0971         estimate D2E/DX2                !
 ! R13   R(4,44)                 1.0958         estimate D2E/DX2                !
 ! R14   R(5,6)                  1.5423         estimate D2E/DX2                !
 ! R15   R(5,8)                  1.5428         estimate D2E/DX2                !
 ! R16   R(5,45)                 1.098          estimate D2E/DX2                !
 ! R17   R(6,7)                  1.5224         estimate D2E/DX2                !
 ! R18   R(6,46)                 1.0964         estimate D2E/DX2                !
 ! R19   R(6,47)                 1.0979         estimate D2E/DX2                !
 ! R20   R(7,48)                 1.0941         estimate D2E/DX2                !
 ! R21   R(7,49)                 1.095          estimate D2E/DX2                !
 ! R22   R(7,50)                 1.0945         estimate D2E/DX2                !
 ! R23   R(8,9)                  1.428          estimate D2E/DX2                !
 ! R24   R(8,51)                 1.0952         estimate D2E/DX2                !
 ! R25   R(8,52)                 1.0956         estimate D2E/DX2                !
 ! R26   R(9,10)                 1.4244         estimate D2E/DX2                !
 ! R27   R(10,11)                1.5258         estimate D2E/DX2                !
 ! R28   R(10,53)                1.0959         estimate D2E/DX2                !
 ! R29   R(10,54)                1.0944         estimate D2E/DX2                !
 ! R30   R(11,12)                1.5268         estimate D2E/DX2                !
 ! R31   R(11,55)                1.0971         estimate D2E/DX2                !
 ! R32   R(11,56)                1.0959         estimate D2E/DX2                !
 ! R33   R(12,13)                1.452          estimate D2E/DX2                !
 ! R34   R(12,57)                1.0953         estimate D2E/DX2                !
 ! R35   R(12,58)                1.0951         estimate D2E/DX2                !
 ! R36   R(13,14)                1.3864         estimate D2E/DX2                !
 ! R37   R(13,59)                1.0165         estimate D2E/DX2                !
 ! R38   R(14,15)                1.5384         estimate D2E/DX2                !
 ! R39   R(14,35)                1.2298         estimate D2E/DX2                !
 ! R40   R(15,16)                1.3618         estimate D2E/DX2                !
 ! R41   R(15,17)                1.3732         estimate D2E/DX2                !
 ! R42   R(15,18)                1.5443         estimate D2E/DX2                !
 ! R43   R(18,19)                1.3611         estimate D2E/DX2                !
 ! R44   R(18,20)                1.4451         estimate D2E/DX2                !
 ! R45   R(18,27)                1.5212         estimate D2E/DX2                !
 ! R46   R(20,21)                1.4223         estimate D2E/DX2                !
 ! R47   R(21,22)                1.3507         estimate D2E/DX2                !
 ! R48   R(21,23)                1.3451         estimate D2E/DX2                !
 ! R49   R(21,24)                1.5163         estimate D2E/DX2                !
 ! R50   R(24,25)                1.3423         estimate D2E/DX2                !
 ! R51   R(24,26)                1.3605         estimate D2E/DX2                !
 ! R52   R(24,27)                1.4996         estimate D2E/DX2                !
 ! R53   R(27,28)                1.5213         estimate D2E/DX2                !
 ! R54   R(27,34)                1.3672         estimate D2E/DX2                !
 ! R55   R(28,29)                1.3709         estimate D2E/DX2                !
 ! R56   R(28,30)                1.5276         estimate D2E/DX2                !
 ! R57   R(28,33)                1.3734         estimate D2E/DX2                !
 ! R58   R(30,31)                1.3495         estimate D2E/DX2                !
 ! R59   R(30,32)                1.2204         estimate D2E/DX2                !
 ! R60   R(31,60)                0.983          estimate D2E/DX2                !
 ! A1    A(2,1,36)             110.0344         estimate D2E/DX2                !
 ! A2    A(2,1,37)             111.5764         estimate D2E/DX2                !
 ! A3    A(2,1,38)             111.0381         estimate D2E/DX2                !
 ! A4    A(36,1,37)            107.5471         estimate D2E/DX2                !
 ! A5    A(36,1,38)            108.0333         estimate D2E/DX2                !
 ! A6    A(37,1,38)            108.4777         estimate D2E/DX2                !
 ! A7    A(1,2,3)              113.5348         estimate D2E/DX2                !
 ! A8    A(1,2,39)             108.4558         estimate D2E/DX2                !
 ! A9    A(1,2,40)             109.4681         estimate D2E/DX2                !
 ! A10   A(3,2,39)             108.3974         estimate D2E/DX2                !
 ! A11   A(3,2,40)             109.9724         estimate D2E/DX2                !
 ! A12   A(39,2,40)            106.7737         estimate D2E/DX2                !
 ! A13   A(2,3,4)              113.0811         estimate D2E/DX2                !
 ! A14   A(2,3,41)             109.0166         estimate D2E/DX2                !
 ! A15   A(2,3,42)             107.6766         estimate D2E/DX2                !
 ! A16   A(4,3,41)             110.2537         estimate D2E/DX2                !
 ! A17   A(4,3,42)             109.6524         estimate D2E/DX2                !
 ! A18   A(41,3,42)            106.9456         estimate D2E/DX2                !
 ! A19   A(3,4,5)              114.9292         estimate D2E/DX2                !
 ! A20   A(3,4,43)             108.9393         estimate D2E/DX2                !
 ! A21   A(3,4,44)             109.5652         estimate D2E/DX2                !
 ! A22   A(5,4,43)             109.0642         estimate D2E/DX2                !
 ! A23   A(5,4,44)             108.5071         estimate D2E/DX2                !
 ! A24   A(43,4,44)            105.4079         estimate D2E/DX2                !
 ! A25   A(4,5,6)              114.1331         estimate D2E/DX2                !
 ! A26   A(4,5,8)              112.6639         estimate D2E/DX2                !
 ! A27   A(4,5,45)             105.9074         estimate D2E/DX2                !
 ! A28   A(6,5,8)              109.184          estimate D2E/DX2                !
 ! A29   A(6,5,45)             107.0285         estimate D2E/DX2                !
 ! A30   A(8,5,45)             107.5142         estimate D2E/DX2                !
 ! A31   A(5,6,7)              113.8363         estimate D2E/DX2                !
 ! A32   A(5,6,46)             110.5557         estimate D2E/DX2                !
 ! A33   A(5,6,47)             108.712          estimate D2E/DX2                !
 ! A34   A(7,6,46)             109.2203         estimate D2E/DX2                !
 ! A35   A(7,6,47)             107.95           estimate D2E/DX2                !
 ! A36   A(46,6,47)            106.2556         estimate D2E/DX2                !
 ! A37   A(6,7,48)             111.6161         estimate D2E/DX2                !
 ! A38   A(6,7,49)             109.9919         estimate D2E/DX2                !
 ! A39   A(6,7,50)             111.0491         estimate D2E/DX2                !
 ! A40   A(48,7,49)            107.4832         estimate D2E/DX2                !
 ! A41   A(48,7,50)            108.5836         estimate D2E/DX2                !
 ! A42   A(49,7,50)            107.9793         estimate D2E/DX2                !
 ! A43   A(5,8,9)              113.494          estimate D2E/DX2                !
 ! A44   A(5,8,51)             110.8022         estimate D2E/DX2                !
 ! A45   A(5,8,52)             109.6507         estimate D2E/DX2                !
 ! A46   A(9,8,51)             110.3117         estimate D2E/DX2                !
 ! A47   A(9,8,52)             106.3752         estimate D2E/DX2                !
 ! A48   A(51,8,52)            105.8286         estimate D2E/DX2                !
 ! A49   A(8,9,10)             115.7022         estimate D2E/DX2                !
 ! A50   A(9,10,11)            113.4609         estimate D2E/DX2                !
 ! A51   A(9,10,53)            106.371          estimate D2E/DX2                !
 ! A52   A(9,10,54)            110.8285         estimate D2E/DX2                !
 ! A53   A(11,10,53)           108.7067         estimate D2E/DX2                !
 ! A54   A(11,10,54)           110.7447         estimate D2E/DX2                !
 ! A55   A(53,10,54)           106.363          estimate D2E/DX2                !
 ! A56   A(10,11,12)           112.2302         estimate D2E/DX2                !
 ! A57   A(10,11,55)           109.0282         estimate D2E/DX2                !
 ! A58   A(10,11,56)           109.9582         estimate D2E/DX2                !
 ! A59   A(12,11,55)           109.8972         estimate D2E/DX2                !
 ! A60   A(12,11,56)           109.5203         estimate D2E/DX2                !
 ! A61   A(55,11,56)           106.0156         estimate D2E/DX2                !
 ! A62   A(11,12,13)           111.1514         estimate D2E/DX2                !
 ! A63   A(11,12,57)           111.1056         estimate D2E/DX2                !
 ! A64   A(11,12,58)           110.6211         estimate D2E/DX2                !
 ! A65   A(13,12,57)           108.4632         estimate D2E/DX2                !
 ! A66   A(13,12,58)           107.0651         estimate D2E/DX2                !
 ! A67   A(57,12,58)           108.2926         estimate D2E/DX2                !
 ! A68   A(12,13,14)           121.9464         estimate D2E/DX2                !
 ! A69   A(12,13,59)           118.1755         estimate D2E/DX2                !
 ! A70   A(14,13,59)           119.8749         estimate D2E/DX2                !
 ! A71   A(13,14,15)           115.1004         estimate D2E/DX2                !
 ! A72   A(13,14,35)           122.0547         estimate D2E/DX2                !
 ! A73   A(15,14,35)           122.8348         estimate D2E/DX2                !
 ! A74   A(14,15,16)           112.9552         estimate D2E/DX2                !
 ! A75   A(14,15,17)           109.515          estimate D2E/DX2                !
 ! A76   A(14,15,18)           111.7029         estimate D2E/DX2                !
 ! A77   A(16,15,17)           105.0305         estimate D2E/DX2                !
 ! A78   A(16,15,18)           109.542          estimate D2E/DX2                !
 ! A79   A(17,15,18)           107.7614         estimate D2E/DX2                !
 ! A80   A(15,18,19)           107.7914         estimate D2E/DX2                !
 ! A81   A(15,18,20)           109.1889         estimate D2E/DX2                !
 ! A82   A(15,18,27)           115.7029         estimate D2E/DX2                !
 ! A83   A(19,18,20)           105.8663         estimate D2E/DX2                !
 ! A84   A(19,18,27)           110.1546         estimate D2E/DX2                !
 ! A85   A(20,18,27)           107.7            estimate D2E/DX2                !
 ! A86   A(18,20,21)           107.1687         estimate D2E/DX2                !
 ! A87   A(20,21,22)           105.9764         estimate D2E/DX2                !
 ! A88   A(20,21,23)           109.5266         estimate D2E/DX2                !
 ! A89   A(20,21,24)           108.7067         estimate D2E/DX2                !
 ! A90   A(22,21,23)           107.0629         estimate D2E/DX2                !
 ! A91   A(22,21,24)           111.5117         estimate D2E/DX2                !
 ! A92   A(23,21,24)           113.7603         estimate D2E/DX2                !
 ! A93   A(21,24,25)           114.6805         estimate D2E/DX2                !
 ! A94   A(21,24,26)           109.2743         estimate D2E/DX2                !
 ! A95   A(21,24,27)           102.8419         estimate D2E/DX2                !
 ! A96   A(25,24,26)           106.4618         estimate D2E/DX2                !
 ! A97   A(25,24,27)           114.454          estimate D2E/DX2                !
 ! A98   A(26,24,27)           109.0082         estimate D2E/DX2                !
 ! A99   A(18,27,24)           101.6875         estimate D2E/DX2                !
 ! A100  A(18,27,28)           113.9421         estimate D2E/DX2                !
 ! A101  A(18,27,34)           110.9084         estimate D2E/DX2                !
 ! A102  A(24,27,28)           115.1549         estimate D2E/DX2                !
 ! A103  A(24,27,34)           109.3103         estimate D2E/DX2                !
 ! A104  A(28,27,34)           105.8713         estimate D2E/DX2                !
 ! A105  A(27,28,29)           107.6556         estimate D2E/DX2                !
 ! A106  A(27,28,30)           116.6695         estimate D2E/DX2                !
 ! A107  A(27,28,33)           107.3004         estimate D2E/DX2                !
 ! A108  A(29,28,30)           110.6429         estimate D2E/DX2                !
 ! A109  A(29,28,33)           104.0978         estimate D2E/DX2                !
 ! A110  A(30,28,33)           109.6866         estimate D2E/DX2                !
 ! A111  A(28,30,31)           113.6659         estimate D2E/DX2                !
 ! A112  A(28,30,32)           126.4644         estimate D2E/DX2                !
 ! A113  A(31,30,32)           119.8194         estimate D2E/DX2                !
 ! A114  A(30,31,60)           105.8243         estimate D2E/DX2                !
 ! D1    D(36,1,2,3)          -174.1148         estimate D2E/DX2                !
 ! D2    D(36,1,2,39)          -53.5668         estimate D2E/DX2                !
 ! D3    D(36,1,2,40)           62.5794         estimate D2E/DX2                !
 ! D4    D(37,1,2,3)            66.5912         estimate D2E/DX2                !
 ! D5    D(37,1,2,39)         -172.8608         estimate D2E/DX2                !
 ! D6    D(37,1,2,40)          -56.7146         estimate D2E/DX2                !
 ! D7    D(38,1,2,3)           -54.5573         estimate D2E/DX2                !
 ! D8    D(38,1,2,39)           65.9907         estimate D2E/DX2                !
 ! D9    D(38,1,2,40)         -177.8631         estimate D2E/DX2                !
 ! D10   D(1,2,3,4)            -66.0437         estimate D2E/DX2                !
 ! D11   D(1,2,3,41)            56.9737         estimate D2E/DX2                !
 ! D12   D(1,2,3,42)           172.6574         estimate D2E/DX2                !
 ! D13   D(39,2,3,4)           173.3753         estimate D2E/DX2                !
 ! D14   D(39,2,3,41)          -63.6072         estimate D2E/DX2                !
 ! D15   D(39,2,3,42)           52.0765         estimate D2E/DX2                !
 ! D16   D(40,2,3,4)            56.9855         estimate D2E/DX2                !
 ! D17   D(40,2,3,41)         -179.997          estimate D2E/DX2                !
 ! D18   D(40,2,3,42)          -64.3133         estimate D2E/DX2                !
 ! D19   D(2,3,4,5)           -175.6065         estimate D2E/DX2                !
 ! D20   D(2,3,4,43)           -52.9026         estimate D2E/DX2                !
 ! D21   D(2,3,4,44)            61.9359         estimate D2E/DX2                !
 ! D22   D(41,3,4,5)            62.0643         estimate D2E/DX2                !
 ! D23   D(41,3,4,43)         -175.2318         estimate D2E/DX2                !
 ! D24   D(41,3,4,44)          -60.3934         estimate D2E/DX2                !
 ! D25   D(42,3,4,5)           -55.4301         estimate D2E/DX2                !
 ! D26   D(42,3,4,43)           67.2738         estimate D2E/DX2                !
 ! D27   D(42,3,4,44)         -177.8877         estimate D2E/DX2                !
 ! D28   D(3,4,5,6)            -59.9378         estimate D2E/DX2                !
 ! D29   D(3,4,5,8)             65.322          estimate D2E/DX2                !
 ! D30   D(3,4,5,45)          -177.4123         estimate D2E/DX2                !
 ! D31   D(43,4,5,6)           177.4254         estimate D2E/DX2                !
 ! D32   D(43,4,5,8)           -57.3148         estimate D2E/DX2                !
 ! D33   D(43,4,5,45)           59.9508         estimate D2E/DX2                !
 ! D34   D(44,4,5,6)            63.0877         estimate D2E/DX2                !
 ! D35   D(44,4,5,8)          -171.6526         estimate D2E/DX2                !
 ! D36   D(44,4,5,45)          -54.3869         estimate D2E/DX2                !
 ! D37   D(4,5,6,7)            -57.5758         estimate D2E/DX2                !
 ! D38   D(4,5,6,46)            65.7945         estimate D2E/DX2                !
 ! D39   D(4,5,6,47)          -177.932          estimate D2E/DX2                !
 ! D40   D(8,5,6,7)            175.3442         estimate D2E/DX2                !
 ! D41   D(8,5,6,46)           -61.2856         estimate D2E/DX2                !
 ! D42   D(8,5,6,47)            54.9879         estimate D2E/DX2                !
 ! D43   D(45,5,6,7)            59.2526         estimate D2E/DX2                !
 ! D44   D(45,5,6,46)         -177.3772         estimate D2E/DX2                !
 ! D45   D(45,5,6,47)          -61.1037         estimate D2E/DX2                !
 ! D46   D(4,5,8,9)             48.8284         estimate D2E/DX2                !
 ! D47   D(4,5,8,51)           173.5815         estimate D2E/DX2                !
 ! D48   D(4,5,8,52)           -69.9642         estimate D2E/DX2                !
 ! D49   D(6,5,8,9)            176.7372         estimate D2E/DX2                !
 ! D50   D(6,5,8,51)           -58.5097         estimate D2E/DX2                !
 ! D51   D(6,5,8,52)            57.9446         estimate D2E/DX2                !
 ! D52   D(45,5,8,9)           -67.4817         estimate D2E/DX2                !
 ! D53   D(45,5,8,51)           57.2713         estimate D2E/DX2                !
 ! D54   D(45,5,8,52)          173.7257         estimate D2E/DX2                !
 ! D55   D(5,6,7,48)            67.2911         estimate D2E/DX2                !
 ! D56   D(5,6,7,49)          -173.4974         estimate D2E/DX2                !
 ! D57   D(5,6,7,50)           -54.0279         estimate D2E/DX2                !
 ! D58   D(46,6,7,48)          -56.8027         estimate D2E/DX2                !
 ! D59   D(46,6,7,49)           62.4088         estimate D2E/DX2                !
 ! D60   D(46,6,7,50)         -178.1217         estimate D2E/DX2                !
 ! D61   D(47,6,7,48)         -171.9253         estimate D2E/DX2                !
 ! D62   D(47,6,7,49)          -52.7138         estimate D2E/DX2                !
 ! D63   D(47,6,7,50)           66.7558         estimate D2E/DX2                !
 ! D64   D(5,8,9,10)            73.1707         estimate D2E/DX2                !
 ! D65   D(51,8,9,10)          -51.8462         estimate D2E/DX2                !
 ! D66   D(52,8,9,10)         -166.171          estimate D2E/DX2                !
 ! D67   D(8,9,10,11)           70.8584         estimate D2E/DX2                !
 ! D68   D(8,9,10,53)         -169.6764         estimate D2E/DX2                !
 ! D69   D(8,9,10,54)          -54.4678         estimate D2E/DX2                !
 ! D70   D(9,10,11,12)          51.0963         estimate D2E/DX2                !
 ! D71   D(9,10,11,55)         173.0927         estimate D2E/DX2                !
 ! D72   D(9,10,11,56)         -71.0752         estimate D2E/DX2                !
 ! D73   D(53,10,11,12)        -67.0257         estimate D2E/DX2                !
 ! D74   D(53,10,11,55)         54.9707         estimate D2E/DX2                !
 ! D75   D(53,10,11,56)        170.8028         estimate D2E/DX2                !
 ! D76   D(54,10,11,12)        176.4673         estimate D2E/DX2                !
 ! D77   D(54,10,11,55)        -61.5363         estimate D2E/DX2                !
 ! D78   D(54,10,11,56)         54.2958         estimate D2E/DX2                !
 ! D79   D(10,11,12,13)        176.8652         estimate D2E/DX2                !
 ! D80   D(10,11,12,57)        -62.2492         estimate D2E/DX2                !
 ! D81   D(10,11,12,58)         58.0631         estimate D2E/DX2                !
 ! D82   D(55,11,12,13)         55.3651         estimate D2E/DX2                !
 ! D83   D(55,11,12,57)        176.2507         estimate D2E/DX2                !
 ! D84   D(55,11,12,58)        -63.437          estimate D2E/DX2                !
 ! D85   D(56,11,12,13)        -60.7147         estimate D2E/DX2                !
 ! D86   D(56,11,12,57)         60.1709         estimate D2E/DX2                !
 ! D87   D(56,11,12,58)       -179.5168         estimate D2E/DX2                !
 ! D88   D(11,12,13,14)         80.0374         estimate D2E/DX2                !
 ! D89   D(11,12,13,59)       -100.6219         estimate D2E/DX2                !
 ! D90   D(57,12,13,14)        -42.39           estimate D2E/DX2                !
 ! D91   D(57,12,13,59)        136.9508         estimate D2E/DX2                !
 ! D92   D(58,12,13,14)       -159.0461         estimate D2E/DX2                !
 ! D93   D(58,12,13,59)         20.2946         estimate D2E/DX2                !
 ! D94   D(12,13,14,15)       -176.6596         estimate D2E/DX2                !
 ! D95   D(12,13,14,35)          2.2121         estimate D2E/DX2                !
 ! D96   D(59,13,14,15)          4.0106         estimate D2E/DX2                !
 ! D97   D(59,13,14,35)       -177.1176         estimate D2E/DX2                !
 ! D98   D(13,14,15,16)       -168.1892         estimate D2E/DX2                !
 ! D99   D(13,14,15,17)        -51.5153         estimate D2E/DX2                !
 ! D100  D(13,14,15,18)         67.7857         estimate D2E/DX2                !
 ! D101  D(35,14,15,16)         12.9489         estimate D2E/DX2                !
 ! D102  D(35,14,15,17)        129.6228         estimate D2E/DX2                !
 ! D103  D(35,14,15,18)       -111.0762         estimate D2E/DX2                !
 ! D104  D(14,15,18,19)        -58.5457         estimate D2E/DX2                !
 ! D105  D(14,15,18,20)       -173.1088         estimate D2E/DX2                !
 ! D106  D(14,15,18,27)         65.2376         estimate D2E/DX2                !
 ! D107  D(16,15,18,19)        175.5315         estimate D2E/DX2                !
 ! D108  D(16,15,18,20)         60.9684         estimate D2E/DX2                !
 ! D109  D(16,15,18,27)        -60.6852         estimate D2E/DX2                !
 ! D110  D(17,15,18,19)         61.7873         estimate D2E/DX2                !
 ! D111  D(17,15,18,20)        -52.7758         estimate D2E/DX2                !
 ! D112  D(17,15,18,27)       -174.4293         estimate D2E/DX2                !
 ! D113  D(15,18,20,21)       -111.3976         estimate D2E/DX2                !
 ! D114  D(19,18,20,21)        132.8008         estimate D2E/DX2                !
 ! D115  D(27,18,20,21)         14.9801         estimate D2E/DX2                !
 ! D116  D(15,18,27,24)         91.6462         estimate D2E/DX2                !
 ! D117  D(15,18,27,28)       -143.8276         estimate D2E/DX2                !
 ! D118  D(15,18,27,34)        -24.4906         estimate D2E/DX2                !
 ! D119  D(19,18,27,24)       -145.814          estimate D2E/DX2                !
 ! D120  D(19,18,27,28)        -21.2878         estimate D2E/DX2                !
 ! D121  D(19,18,27,34)         98.0492         estimate D2E/DX2                !
 ! D122  D(20,18,27,24)        -30.8005         estimate D2E/DX2                !
 ! D123  D(20,18,27,28)         93.7257         estimate D2E/DX2                !
 ! D124  D(20,18,27,34)       -146.9373         estimate D2E/DX2                !
 ! D125  D(18,20,21,22)       -112.8616         estimate D2E/DX2                !
 ! D126  D(18,20,21,23)        131.9645         estimate D2E/DX2                !
 ! D127  D(18,20,21,24)          7.1147         estimate D2E/DX2                !
 ! D128  D(20,21,24,25)       -151.2264         estimate D2E/DX2                !
 ! D129  D(20,21,24,26)         89.3621         estimate D2E/DX2                !
 ! D130  D(20,21,24,27)        -26.3349         estimate D2E/DX2                !
 ! D131  D(22,21,24,25)        -34.7511         estimate D2E/DX2                !
 ! D132  D(22,21,24,26)       -154.1626         estimate D2E/DX2                !
 ! D133  D(22,21,24,27)         90.1404         estimate D2E/DX2                !
 ! D134  D(23,21,24,25)         86.4546         estimate D2E/DX2                !
 ! D135  D(23,21,24,26)        -32.9569         estimate D2E/DX2                !
 ! D136  D(23,21,24,27)       -148.6539         estimate D2E/DX2                !
 ! D137  D(21,24,27,18)         33.333          estimate D2E/DX2                !
 ! D138  D(21,24,27,28)        -90.3756         estimate D2E/DX2                !
 ! D139  D(21,24,27,34)        150.6324         estimate D2E/DX2                !
 ! D140  D(25,24,27,18)        158.3726         estimate D2E/DX2                !
 ! D141  D(25,24,27,28)         34.6641         estimate D2E/DX2                !
 ! D142  D(25,24,27,34)        -84.328          estimate D2E/DX2                !
 ! D143  D(26,24,27,18)        -82.5551         estimate D2E/DX2                !
 ! D144  D(26,24,27,28)        153.7363         estimate D2E/DX2                !
 ! D145  D(26,24,27,34)         34.7443         estimate D2E/DX2                !
 ! D146  D(18,27,28,29)        177.231          estimate D2E/DX2                !
 ! D147  D(18,27,28,30)        -57.7474         estimate D2E/DX2                !
 ! D148  D(18,27,28,33)         65.7084         estimate D2E/DX2                !
 ! D149  D(24,27,28,29)        -65.8082         estimate D2E/DX2                !
 ! D150  D(24,27,28,30)         59.2135         estimate D2E/DX2                !
 ! D151  D(24,27,28,33)       -177.3308         estimate D2E/DX2                !
 ! D152  D(34,27,28,29)         55.0774         estimate D2E/DX2                !
 ! D153  D(34,27,28,30)       -179.9009         estimate D2E/DX2                !
 ! D154  D(34,27,28,33)        -56.4452         estimate D2E/DX2                !
 ! D155  D(27,28,30,31)       -102.1229         estimate D2E/DX2                !
 ! D156  D(27,28,30,32)         75.2717         estimate D2E/DX2                !
 ! D157  D(29,28,30,31)         21.3755         estimate D2E/DX2                !
 ! D158  D(29,28,30,32)       -161.2299         estimate D2E/DX2                !
 ! D159  D(33,28,30,31)        135.6581         estimate D2E/DX2                !
 ! D160  D(33,28,30,32)        -46.9473         estimate D2E/DX2                !
 ! D161  D(28,30,31,60)        179.1487         estimate D2E/DX2                !
 ! D162  D(32,30,31,60)          1.5637         estimate D2E/DX2                !
 --------------------------------------------------------------------------------
 Trust Radius=3.00D-01 FncErr=1.00D-07 GrdErr=1.00D-06
 Number of steps in this run=    346 maximum allowed number of steps=    360.
 GradGradGradGradGradGradGradGradGradGradGradGradGradGradGradGradGradGrad

 Leave Link  103 at Tue Feb  4 00:46:58 2025, MaxMem=  5368709120 cpu:         0.1
 (Enter /home/k0335/k033513/app/g09/l202.exe)
 Symmetry turned off by external request.
 Stoichiometry    C19H25F10NO5
 Framework group  C1[X(C19H25F10NO5)]
 Deg. of freedom   174
 Full point group                 C1      NOp   1
                          Input orientation:                          
 ---------------------------------------------------------------------
 Center     Atomic      Atomic             Coordinates (Angstroms)
 Number     Number       Type             X           Y           Z
 ---------------------------------------------------------------------
      1          6           0       -7.278090   -0.881099   -1.960567
      2          6           0       -6.580964   -1.270937   -0.665819
      3          6           0       -5.442429   -0.323526   -0.274855
      4          6           0       -4.264929   -0.362321   -1.255377
      5          6           0       -3.046805    0.497883   -0.845579
      6          6           0       -3.358256    2.000928   -0.695041
      7          6           0       -3.931782    2.639326   -1.952449
      8          6           0       -2.366482   -0.010358    0.442434
      9          8           0       -2.103250   -1.413816    0.431460
     10          6           0       -1.035711   -1.835548   -0.412038
     11          6           0        0.341980   -1.428447    0.102192
     12          6           0        0.555978   -1.828955    1.559860
     13          7           0        1.898279   -1.496887    2.002792
     14          6           0        2.247958   -0.210433    2.383355
     15          6           0        3.730080   -0.017843    2.747873
     16          9           0        3.977121    1.176367    3.353972
     17          9           0        4.103653   -0.967548    3.666688
     18          6           0        4.646086   -0.170138    1.513963
     19          9           0        4.442397   -1.412065    0.995535
     20          8           0        6.026408   -0.141679    1.940708
     21          6           0        6.591964    1.068609    1.452425
     22          9           0        7.505355    0.705005    0.526138
     23          9           0        7.259511    1.685180    2.444204
     24          6           0        5.487577    1.910618    0.843694
     25          9           0        5.885395    2.727350   -0.144478
     26          9           0        4.946275    2.705255    1.806251
     27          6           0        4.474954    0.884383    0.431091
     28          6           0        4.636726    0.348581   -0.983458
     29          9           0        4.396898    1.383433   -1.850015
     30          6           0        5.964635   -0.331626   -1.311310
     31          8           0        6.810787    0.445156   -2.019706
     32          8           0        6.314864   -1.446410   -0.959305
     33          9           0        3.601224   -0.524560   -1.210374
     34          9           0        3.225316    1.436715    0.481061
     35          8           0        1.431202    0.708792    2.404301
     36          1           0       -8.143375   -1.530144   -2.130855
     37          1           0       -6.612734   -0.985305   -2.822985
     38          1           0       -7.633447    0.153682   -1.919487
     39          1           0       -7.323340   -1.271757    0.141645
     40          1           0       -6.202775   -2.296605   -0.748947
     41          1           0       -5.837017    0.695365   -0.196211
     42          1           0       -5.098990   -0.610964    0.724871
     43          1           0       -3.942022   -1.402991   -1.383052
     44          1           0       -4.601871   -0.038367   -2.246456
     45          1           0       -2.320706    0.400303   -1.663388
     46          1           0       -4.046587    2.169531    0.141494
     47          1           0       -2.430048    2.529207   -0.440542
     48          1           0       -4.929987    2.253925   -2.180807
     49          1           0       -4.020590    3.722049   -1.815465
     50          1           0       -3.282836    2.460070   -2.815398
     51          1           0       -1.445483    0.547633    0.642021
     52          1           0       -3.020159    0.174591    1.301987
     53          1           0       -1.086969   -2.929533   -0.451559
     54          1           0       -1.186809   -1.482586   -1.436891
     55          1           0        1.110593   -1.891602   -0.528987
     56          1           0        0.475861   -0.345946   -0.003565
     57          1           0       -0.160801   -1.324562    2.216784
     58          1           0        0.434674   -2.910190    1.684565
     59          1           0        2.589469   -2.241264    2.039517
     60          1           0        7.622025   -0.093926   -2.152501
 ---------------------------------------------------------------------
 Rotational constants (GHZ):      0.2326065      0.0475400      0.0458168
 Leave Link  202 at Tue Feb  4 00:46:58 2025, MaxMem=  5368709120 cpu:         0.1
 (Enter /home/k0335/k033513/app/g09/l301.exe)
 Standard basis: 6-31G(d,p) (6D, 7F)
 Ernie: Thresh=  0.10000D-02 Tol=  0.10000D-05 Strict=F.
   650 basis functions,  1155 primitive gaussians,   650 cartesian basis functions
   138 alpha electrons      138 beta electrons
       nuclear repulsion energy      4549.5355857980 Hartrees.
 IExCor=20419 DFT=T Ex+Corr=CAM-B3LYP ExCW=0 ScaHFX=  1.000000
 ScaDFX=  1.000000  1.000000  1.000000  0.810000 ScalE2=  1.000000  1.000000
 IRadAn=      0 IRanWt=     -1 IRanGd=            0 ICorTp=0 IEmpDi=  4
  HFx wShort=  0.000000 wLong=  0.330000 cFull=  0.190000 cShort=  0.000000 cLong=  0.460000
  DFx wShort=  0.000000 wLong=  0.330000 cFull=  0.190000 cShort=  0.000000 cLong=  0.460000
 NAtoms=   60 NActive=   60 NUniq=   60 SFac= 1.00D+00 NAtFMM=   60 NAOKFM=T Big=T
 Integral buffers will be    131072 words long.
 Raffenetti 2 integral format.
 Two-electron integral symmetry is turned off.
 Using the following non-standard input for PCM:
 eps=2.05
 --- end of non-standard input.
 ------------------------------------------------------------------------------
 Polarizable Continuum Model (PCM)
 =================================
 Model                : PCM (using non-symmetric T matrix).
 Atomic radii         : UFF (Universal Force Field).
 Polarization charges : Total charges.
 Charge compensation  : None.
 Solution method      : On-the-fly selection.
 Cavity type          : Scaled VdW (van der Waals Surface) (Alpha=1.100).
 Cavity algorithm     : GePol (No added spheres)
                        Default sphere list used, NSphG=   60.
                        Lebedev-Laikov grids with approx.  5.0 points / Ang**2.
                        Smoothing algorithm: Karplus/York (Gamma=1.0000).
                        Polarization charges: spherical gaussians, with
                                              point-specific exponents (IZeta= 3).
                        Self-potential: point-specific (ISelfS= 7).
                        Self-field    : sphere-specific E.n sum rule (ISelfD= 2).
 1st derivatives      : Analytical E(r).r(x)/FMM algorithm (CHGder, D1EAlg=3).
                        Cavity 1st derivative terms included.
 Solvent              : Generic,
                        Eps                           =   2.050000
                        Eps(infinity)                 =   0.000000
                        RSolv                         =   0.000000 Ang.
                        Molar volume                  =   0.000000 cm**3/mol
                        Thermal expansion coefficient =   0.000000 K**-1
                        Absolute temperature          = 298.150000 K
                        Numeral density               =   0.000000 Ang**-3
                        Hydrogen bond acidity         =   0.000000
                        Hydrogen bond basicity        =   0.000000
                        Surface tension at interface  =   0.000000 (cal/mol)*Ang**-2
                        Carbon aromaticity            =   0.000000
                        Electronegative halogenicity  =   0.000000
 ------------------------------------------------------------------------------
 GePol: Number of generator spheres                  =      60
 GePol: Total number of spheres                      =      60
 GePol: Number of exposed spheres                    =      60 (100.00%)
 GePol: Number of points                             =    4118
 GePol: Average weight of points                     =       0.13
 GePol: Minimum weight of points                     =   0.16D-09
 GePol: Maximum weight of points                     =    0.20577
 GePol: Number of points with low weight             =     235
 GePol: Fraction of low-weight points (<1% of avg)   =       5.71%
 GePol: Cavity surface area                          =    522.571 Ang**2
 GePol: Cavity volume                                =    605.014 Ang**3
 Leave Link  301 at Tue Feb  4 00:46:58 2025, MaxMem=  5368709120 cpu:         0.8
 (Enter /home/k0335/k033513/app/g09/l302.exe)
 NPDir=0 NMtPBC=     1 NCelOv=     1 NCel=       1 NClECP=     1 NCelD=      1
         NCelK=      1 NCelE2=     1 NClLst=     1 CellRange=     0.0.
 One-electron integrals computed using PRISM.
 NBasis=   650 RedAO= T EigKep=  8.63D-04  NBF=   650
 NBsUse=   650 1.00D-06 EigRej= -1.00D+00 NBFU=   650
 Precomputing XC quadrature grid using
 IXCGrd= 4 IRadAn=           0 IRanWt=          -1 IRanGd=           0 AccXCQ= 0.00D+00.
 Generated NRdTot=       0 NPtTot=           0 NUsed=           0 NTot=          32
 NSgBfM=   598   598   610   614   614 MxSgAt=    60 MxSgA2=    60.
 Leave Link  302 at Tue Feb  4 00:46:59 2025, MaxMem=  5368709120 cpu:        14.8
 (Enter /home/k0335/k033513/app/g09/l303.exe)
 DipDrv:  MaxL=1.
 Leave Link  303 at Tue Feb  4 00:46:59 2025, MaxMem=  5368709120 cpu:         1.0
 (Enter /home/k0335/k033513/app/g09/l401.exe)
 ExpMin= 1.61D-01 ExpMax= 7.00D+03 ExpMxC= 1.05D+03 IAcc=1 IRadAn=         1 AccDes= 0.00D+00
 Harris functional with IExCor=20419 and IRadAn=       1 diagonalized for initial guess.
 HarFok:  IExCor=20419 AccDes= 0.00D+00 IRadAn=         1 IDoV= 1 UseB2=F ITyADJ=14
 ICtDFT=  3500011 ScaDFX=  1.000000  1.000000  1.000000  1.000000
 FoFCou: FMM=F IPFlag=           0 FMFlag=      100000 FMFlg1=        2001
         NFxFlg=           0 DoJE=T BraDBF=F KetDBF=T FulRan=T
         wScrn=  0.000000 ICntrl=     500 IOpCl=  0 I1Cent=   200000004 NGrid=           0
         NMat0=    1 NMatS0=      1 NMatT0=    0 NMatD0=    1 NMtDS0=    0 NMtDT0=    0
 Symmetry not used in FoFCou.
 Harris En= -2096.17604378602    
 JPrj=0 DoOrth=F DoCkMO=F.
 Leave Link  401 at Tue Feb  4 00:47:00 2025, MaxMem=  5368709120 cpu:        17.0
 (Enter /home/k0335/k033513/app/g09/l502.exe)
 Closed shell SCF:
 Using DIIS extrapolation, IDIIS=  1040.
 Two-electron integral symmetry not used.
 IVT=     1305670 IEndB=     1305670 NGot=  5368709120 MDV=  5367843241
 LenX=  5367843241 LenY=  5367420091
 Requested convergence on RMS density matrix=1.00D-08 within 128 cycles.
 Requested convergence on MAX density matrix=1.00D-06.
 Requested convergence on             energy=1.00D-06.
 No special actions if energy rises.
 Fock matrices will be formed incrementally for  20 cycles.

 Cycle   1  Pass 1  IDiag  1:
 FoFJK:  IHMeth= 1 ICntrl=       0 DoSepK=T KAlg= 0 I1Cent=   0 FoldK=F
 IRaf=         1 NMat=   1 IRICut=       1 DoRegI=T DoRafI=F ISym2E= 0.
 FoFCou: FMM=T IPFlag=           0 FMFlag=      100000 FMFlg1=        2001
         NFxFlg=           0 DoJE=T BraDBF=F KetDBF=F FulRan=T
         wScrn=  0.000000 ICntrl=     500 IOpCl=  0 I1Cent=           0 NGrid=           0
         NMat0=    1 NMatS0=      1 NMatT0=    0 NMatD0=    1 NMtDS0=    0 NMtDT0=    0
 Symmetry not used in FoFCou.
 FMM levels:  10  Number of levels for PrismC:   9
 Inv3:  Mode=1 IEnd=    50873772.
 Iteration    1 A*A^-1 deviation from unit magnitude is 4.88D-15 for   4105.
 Iteration    1 A*A^-1 deviation from orthogonality  is 3.28D-15 for   4111   1004.
 Iteration    1 A^-1*A deviation from unit magnitude is 4.88D-15 for   4105.
 Iteration    1 A^-1*A deviation from orthogonality  is 2.47D-15 for   4095   1000.
 E= -2166.92484058936    
 DIIS: error= 6.38D-02 at cycle   1 NSaved=   1.
 NSaved= 1 IEnMin= 1 EnMin= -2166.92484058936     IErMin= 1 ErrMin= 6.38D-02
 ErrMax= 6.38D-02  0.00D+00 EMaxC= 1.00D-01 BMatC= 1.77D+00 BMatP= 1.77D+00
 IDIUse=3 WtCom= 3.62D-01 WtEn= 6.38D-01
 Coeff-Com:  0.100D+01
 Coeff-En:   0.100D+01
 Coeff:      0.100D+01
 Gap=     0.423 Goal=   None    Shift=    0.000
 GapD=    0.423 DampG=2.000 DampE=0.500 DampFc=1.0000 IDamp=-1.
 RMSDP=2.45D-03 MaxDP=1.36D-01              OVMax= 1.29D-01

 Cycle   2  Pass 1  IDiag  1:
 RMSU=  2.45D-03    CP:  9.90D-01
 E= -2167.17055368582     Delta-E=       -0.245713096463 Rises=F Damp=F
 DIIS: error= 2.12D-02 at cycle   2 NSaved=   2.
 NSaved= 2 IEnMin= 2 EnMin= -2167.17055368582     IErMin= 2 ErrMin= 2.12D-02
 ErrMax= 2.12D-02  0.00D+00 EMaxC= 1.00D-01 BMatC= 6.68D-01 BMatP= 1.77D+00
 IDIUse=3 WtCom= 7.88D-01 WtEn= 2.12D-01
 Coeff-Com:  0.357D+00 0.643D+00
 Coeff-En:   0.354D+00 0.646D+00
 Coeff:      0.356D+00 0.644D+00
 Gap=     0.360 Goal=   None    Shift=    0.000
 RMSDP=1.19D-03 MaxDP=8.25D-02 DE=-2.46D-01 OVMax= 8.80D-02

 Cycle   3  Pass 1  IDiag  1:
 RMSU=  7.29D-04    CP:  9.99D-01  6.17D-01
 E= -2167.50509423677     Delta-E=       -0.334540550949 Rises=F Damp=F
 DIIS: error= 7.34D-03 at cycle   3 NSaved=   3.
 NSaved= 3 IEnMin= 3 EnMin= -2167.50509423677     IErMin= 3 ErrMin= 7.34D-03
 ErrMax= 7.34D-03  0.00D+00 EMaxC= 1.00D-01 BMatC= 1.24D-01 BMatP= 6.68D-01
 IDIUse=3 WtCom= 9.27D-01 WtEn= 7.34D-02
 Coeff-Com:  0.670D-01 0.315D+00 0.618D+00
 Coeff-En:   0.000D+00 0.119D+00 0.881D+00
 Coeff:      0.621D-01 0.300D+00 0.638D+00
 Gap=     0.319 Goal=   None    Shift=    0.000
 RMSDP=5.27D-04 MaxDP=4.34D-02 DE=-3.35D-01 OVMax= 4.87D-02

 Cycle   4  Pass 1  IDiag  1:
 RMSU=  2.77D-04    CP:  9.94D-01  7.14D-01  4.87D-01
 E= -2167.57875186762     Delta-E=       -0.073657630856 Rises=F Damp=F
 DIIS: error= 3.03D-03 at cycle   4 NSaved=   4.
 NSaved= 4 IEnMin= 4 EnMin= -2167.57875186762     IErMin= 4 ErrMin= 3.03D-03
 ErrMax= 3.03D-03  0.00D+00 EMaxC= 1.00D-01 BMatC= 1.18D-02 BMatP= 1.24D-01
 IDIUse=3 WtCom= 9.70D-01 WtEn= 3.03D-02
 Coeff-Com:  0.625D-02 0.980D-01 0.324D+00 0.572D+00
 Coeff-En:   0.000D+00 0.000D+00 0.269D-01 0.973D+00
 Coeff:      0.606D-02 0.950D-01 0.315D+00 0.584D+00
 Gap=     0.297 Goal=   None    Shift=    0.000
 RMSDP=1.54D-04 MaxDP=1.63D-02 DE=-7.37D-02 OVMax= 2.44D-02

 Cycle   5  Pass 1  IDiag  1:
 RMSU=  6.94D-05    CP:  9.94D-01  7.14D-01  6.15D-01  6.36D-01
 E= -2167.58699431184     Delta-E=       -0.008242444216 Rises=F Damp=F
 DIIS: error= 9.01D-04 at cycle   5 NSaved=   5.
 NSaved= 5 IEnMin= 5 EnMin= -2167.58699431184     IErMin= 5 ErrMin= 9.01D-04
 ErrMax= 9.01D-04  0.00D+00 EMaxC= 1.00D-01 BMatC= 6.51D-04 BMatP= 1.18D-02
 IDIUse=3 WtCom= 9.91D-01 WtEn= 9.01D-03
 Coeff-Com:  0.571D-03 0.392D-01 0.149D+00 0.321D+00 0.490D+00
 Coeff-En:   0.000D+00 0.000D+00 0.000D+00 0.000D+00 0.100D+01
 Coeff:      0.566D-03 0.389D-01 0.148D+00 0.318D+00 0.495D+00
 Gap=     0.295 Goal=   None    Shift=    0.000
 RMSDP=3.37D-05 MaxDP=3.97D-03 DE=-8.24D-03 OVMax= 7.21D-03

 Cycle   6  Pass 1  IDiag  1:
 RMSU=  2.05D-05    CP:  9.94D-01  7.15D-01  6.16D-01  6.56D-01  6.28D-01
 E= -2167.58746458615     Delta-E=       -0.000470274313 Rises=F Damp=F
 DIIS: error= 1.68D-04 at cycle   6 NSaved=   6.
 NSaved= 6 IEnMin= 6 EnMin= -2167.58746458615     IErMin= 6 ErrMin= 1.68D-04
 ErrMax= 1.68D-04  0.00D+00 EMaxC= 1.00D-01 BMatC= 3.26D-05 BMatP= 6.51D-04
 IDIUse=3 WtCom= 9.98D-01 WtEn= 1.68D-03
 Coeff-Com: -0.549D-03 0.391D-02 0.213D-01 0.564D-01 0.207D+00 0.712D+00
 Coeff-En:   0.000D+00 0.000D+00 0.000D+00 0.000D+00 0.000D+00 0.100D+01
 Coeff:     -0.548D-03 0.390D-02 0.212D-01 0.563D-01 0.207D+00 0.712D+00
 Gap=     0.296 Goal=   None    Shift=    0.000
 RMSDP=1.08D-05 MaxDP=8.37D-04 DE=-4.70D-04 OVMax= 1.21D-03

 Cycle   7  Pass 1  IDiag  1:
 RMSU=  7.25D-06    CP:  9.94D-01  7.15D-01  6.19D-01  6.71D-01  7.14D-01
                    CP:  8.77D-01
 E= -2167.58748838838     Delta-E=       -0.000023802223 Rises=F Damp=F
 DIIS: error= 4.13D-05 at cycle   7 NSaved=   7.
 NSaved= 7 IEnMin= 7 EnMin= -2167.58748838838     IErMin= 7 ErrMin= 4.13D-05
 ErrMax= 4.13D-05  0.00D+00 EMaxC= 1.00D-01 BMatC= 4.55D-06 BMatP= 3.26D-05
 IDIUse=1 WtCom= 1.00D+00 WtEn= 0.00D+00
 Coeff-Com: -0.237D-03-0.370D-02-0.107D-01-0.183D-01 0.355D-01 0.328D+00
 Coeff-Com:  0.670D+00
 Coeff:     -0.237D-03-0.370D-02-0.107D-01-0.183D-01 0.355D-01 0.328D+00
 Coeff:      0.670D+00
 Gap=     0.296 Goal=   None    Shift=    0.000
 RMSDP=3.43D-06 MaxDP=2.53D-04 DE=-2.38D-05 OVMax= 4.68D-04

 Cycle   8  Pass 1  IDiag  1:
 RMSU=  2.21D-06    CP:  9.94D-01  7.16D-01  6.19D-01  6.70D-01  7.32D-01
                    CP:  9.70D-01  8.48D-01
 E= -2167.58749233117     Delta-E=       -0.000003942798 Rises=F Damp=F
 DIIS: error= 1.87D-05 at cycle   8 NSaved=   8.
 NSaved= 8 IEnMin= 8 EnMin= -2167.58749233117     IErMin= 8 ErrMin= 1.87D-05
 ErrMax= 1.87D-05  0.00D+00 EMaxC= 1.00D-01 BMatC= 2.88D-07 BMatP= 4.55D-06
 IDIUse=1 WtCom= 1.00D+00 WtEn= 0.00D+00
 Coeff-Com: -0.483D-04-0.171D-02-0.555D-02-0.115D-01 0.119D-02 0.712D-01
 Coeff-Com:  0.260D+00 0.687D+00
 Coeff:     -0.483D-04-0.171D-02-0.555D-02-0.115D-01 0.119D-02 0.712D-01
 Coeff:      0.260D+00 0.687D+00
 Gap=     0.296 Goal=   None    Shift=    0.000
 RMSDP=1.05D-06 MaxDP=7.03D-05 DE=-3.94D-06 OVMax= 1.35D-04

 Cycle   9  Pass 1  IDiag  1:
 RMSU=  7.83D-07    CP:  9.94D-01  7.16D-01  6.19D-01  6.71D-01  7.39D-01
                    CP:  9.83D-01  9.05D-01  1.01D+00
 E= -2167.58749259332     Delta-E=       -0.000000262146 Rises=F Damp=F
 DIIS: error= 4.78D-06 at cycle   9 NSaved=   9.
 NSaved= 9 IEnMin= 9 EnMin= -2167.58749259332     IErMin= 9 ErrMin= 4.78D-06
 ErrMax= 4.78D-06  0.00D+00 EMaxC= 1.00D-01 BMatC= 4.42D-08 BMatP= 2.88D-07
 IDIUse=1 WtCom= 1.00D+00 WtEn= 0.00D+00
 Coeff-Com:  0.954D-05-0.184D-03-0.721D-03-0.230D-02-0.396D-02-0.242D-01
 Coeff-Com:  0.660D-02 0.271D+00 0.754D+00
 Coeff:      0.954D-05-0.184D-03-0.721D-03-0.230D-02-0.396D-02-0.242D-01
 Coeff:      0.660D-02 0.271D+00 0.754D+00
 Gap=     0.296 Goal=   None    Shift=    0.000
 RMSDP=5.39D-07 MaxDP=5.41D-05 DE=-2.62D-07 OVMax= 6.56D-05

 Cycle  10  Pass 1  IDiag  1:
 RMSU=  3.00D-07    CP:  9.94D-01  7.16D-01  6.20D-01  6.71D-01  7.42D-01
                    CP:  9.91D-01  9.35D-01  1.12D+00  9.78D-01
 E= -2167.58749264394     Delta-E=       -0.000000050616 Rises=F Damp=F
 DIIS: error= 2.48D-06 at cycle  10 NSaved=  10.
 NSaved=10 IEnMin=10 EnMin= -2167.58749264394     IErMin=10 ErrMin= 2.48D-06
 ErrMax= 2.48D-06  0.00D+00 EMaxC= 1.00D-01 BMatC= 4.67D-09 BMatP= 4.42D-08
 IDIUse=1 WtCom= 1.00D+00 WtEn= 0.00D+00
 Coeff-Com:  0.108D-04 0.176D-03 0.522D-03 0.733D-03-0.967D-03-0.191D-01
 Coeff-Com: -0.322D-01-0.766D-02 0.253D+00 0.806D+00
 Coeff:      0.108D-04 0.176D-03 0.522D-03 0.733D-03-0.967D-03-0.191D-01
 Coeff:     -0.322D-01-0.766D-02 0.253D+00 0.806D+00
 Gap=     0.296 Goal=   None    Shift=    0.000
 RMSDP=2.01D-07 MaxDP=1.84D-05 DE=-5.06D-08 OVMax= 3.72D-05

 Cycle  11  Pass 1  IDiag  1:
 RMSU=  1.00D-07    CP:  9.94D-01  7.16D-01  6.20D-01  6.71D-01  7.43D-01
                    CP:  9.92D-01  9.46D-01  1.16D+00  1.11D+00  1.01D+00
 E= -2167.58749264968     Delta-E=       -0.000000005746 Rises=F Damp=F
 DIIS: error= 9.75D-07 at cycle  11 NSaved=  11.
 NSaved=11 IEnMin=11 EnMin= -2167.58749264968     IErMin=11 ErrMin= 9.75D-07
 ErrMax= 9.75D-07  0.00D+00 EMaxC= 1.00D-01 BMatC= 1.12D-09 BMatP= 4.67D-09
 IDIUse=1 WtCom= 1.00D+00 WtEn= 0.00D+00
 Coeff-Com:  0.523D-05 0.116D-03 0.359D-03 0.624D-03 0.242D-04-0.802D-02
 Coeff-Com: -0.175D-01-0.304D-01 0.627D-01 0.428D+00 0.564D+00
 Coeff:      0.523D-05 0.116D-03 0.359D-03 0.624D-03 0.242D-04-0.802D-02
 Coeff:     -0.175D-01-0.304D-01 0.627D-01 0.428D+00 0.564D+00
 Gap=     0.296 Goal=   None    Shift=    0.000
 RMSDP=6.28D-08 MaxDP=6.90D-06 DE=-5.75D-09 OVMax= 1.03D-05

 Cycle  12  Pass 1  IDiag  1:
 RMSU=  4.10D-08    CP:  9.94D-01  7.16D-01  6.20D-01  6.71D-01  7.43D-01
                    CP:  9.92D-01  9.48D-01  1.17D+00  1.13D+00  1.09D+00
                    CP:  8.51D-01
 E= -2167.58749265057     Delta-E=       -0.000000000883 Rises=F Damp=F
 DIIS: error= 3.63D-07 at cycle  12 NSaved=  12.
 NSaved=12 IEnMin=12 EnMin= -2167.58749265057     IErMin=12 ErrMin= 3.63D-07
 ErrMax= 3.63D-07  0.00D+00 EMaxC= 1.00D-01 BMatC= 1.08D-10 BMatP= 1.12D-09
 IDIUse=1 WtCom= 1.00D+00 WtEn= 0.00D+00
 Coeff-Com:  0.150D-06 0.174D-04 0.584D-04 0.130D-03 0.296D-03 0.156D-03
 Coeff-Com: -0.116D-02-0.114D-01-0.197D-01 0.317D-01 0.233D+00 0.766D+00
 Coeff:      0.150D-06 0.174D-04 0.584D-04 0.130D-03 0.296D-03 0.156D-03
 Coeff:     -0.116D-02-0.114D-01-0.197D-01 0.317D-01 0.233D+00 0.766D+00
 Gap=     0.296 Goal=   None    Shift=    0.000
 RMSDP=2.43D-08 MaxDP=3.35D-06 DE=-8.83D-10 OVMax= 5.63D-06

 Cycle  13  Pass 1  IDiag  1:
 RMSU=  1.43D-08    CP:  9.94D-01  7.16D-01  6.20D-01  6.71D-01  7.43D-01
                    CP:  9.92D-01  9.48D-01  1.17D+00  1.14D+00  1.12D+00
                    CP:  9.79D-01  9.29D-01
 E= -2167.58749265066     Delta-E=       -0.000000000095 Rises=F Damp=F
 DIIS: error= 1.06D-07 at cycle  13 NSaved=  13.
 NSaved=13 IEnMin=13 EnMin= -2167.58749265066     IErMin=13 ErrMin= 1.06D-07
 ErrMax= 1.06D-07  0.00D+00 EMaxC= 1.00D-01 BMatC= 2.20D-11 BMatP= 1.08D-10
 IDIUse=1 WtCom= 1.00D+00 WtEn= 0.00D+00
 Coeff-Com: -0.611D-06-0.489D-05-0.128D-04-0.899D-05 0.157D-03 0.102D-02
 Coeff-Com:  0.153D-02-0.219D-02-0.184D-01-0.386D-01 0.437D-01 0.392D+00
 Coeff-Com:  0.621D+00
 Coeff:     -0.611D-06-0.489D-05-0.128D-04-0.899D-05 0.157D-03 0.102D-02
 Coeff:      0.153D-02-0.219D-02-0.184D-01-0.386D-01 0.437D-01 0.392D+00
 Coeff:      0.621D+00
 Gap=     0.296 Goal=   None    Shift=    0.000
 RMSDP=9.44D-09 MaxDP=8.75D-07 DE=-9.55D-11 OVMax= 1.91D-06

 Error on total polarization charges =  0.00470
 SCF Done:  E(RCAM-B3LYP) =  -2167.58749265     A.U. after   13 cycles
            NFock= 13  Conv=0.94D-08     -V/T= 2.0078
 KE= 2.150824711985D+03 PE=-1.420024372756D+04 EE= 5.332295937123D+03
 Leave Link  502 at Tue Feb  4 00:47:59 2025, MaxMem=  5368709120 cpu:      1228.4
 (Enter /home/k0335/k033513/app/g09/l601.exe)
 Copying SCF densities to generalized density rwf, IOpCl= 0 IROHF=0.

 **********************************************************************

            Population analysis using the SCF density.

 **********************************************************************

 Alpha  occ. eigenvalues --  -24.83810 -24.83549 -24.83269 -24.83099 -24.82991
 Alpha  occ. eigenvalues --  -24.82865 -24.82423 -24.82343 -24.81523 -24.81388
 Alpha  occ. eigenvalues --  -19.32183 -19.30452 -19.25806 -19.21556 -19.21439
 Alpha  occ. eigenvalues --  -14.45153 -10.53281 -10.49729 -10.49282 -10.47434
 Alpha  occ. eigenvalues --  -10.47415 -10.44881 -10.43171 -10.39624 -10.30295
 Alpha  occ. eigenvalues --  -10.30031 -10.29285 -10.25840 -10.25287 -10.24853
 Alpha  occ. eigenvalues --  -10.24389 -10.24171 -10.24127 -10.24104 -10.23856
 Alpha  occ. eigenvalues --   -1.40958  -1.38830  -1.38000  -1.37157  -1.35536
 Alpha  occ. eigenvalues --   -1.34647  -1.33231  -1.32082  -1.30969  -1.30119
 Alpha  occ. eigenvalues --   -1.22514  -1.20556  -1.13481  -1.12792  -1.10267
 Alpha  occ. eigenvalues --   -1.01592  -0.98088  -0.90783  -0.89558  -0.88331
 Alpha  occ. eigenvalues --   -0.86540  -0.85748  -0.82987  -0.80660  -0.79267
 Alpha  occ. eigenvalues --   -0.78032  -0.77058  -0.75622  -0.74642  -0.72516
 Alpha  occ. eigenvalues --   -0.71266  -0.70759  -0.70206  -0.69599  -0.68662
 Alpha  occ. eigenvalues --   -0.67944  -0.67294  -0.66537  -0.66119  -0.65666
 Alpha  occ. eigenvalues --   -0.65429  -0.64839  -0.64501  -0.63852  -0.63193
 Alpha  occ. eigenvalues --   -0.62164  -0.60598  -0.58926  -0.58052  -0.57135
 Alpha  occ. eigenvalues --   -0.56753  -0.56664  -0.56462  -0.55705  -0.55556
 Alpha  occ. eigenvalues --   -0.54755  -0.54333  -0.54188  -0.53841  -0.53502
 Alpha  occ. eigenvalues --   -0.53327  -0.53002  -0.52781  -0.52650  -0.52316
 Alpha  occ. eigenvalues --   -0.52160  -0.51950  -0.50945  -0.50793  -0.50381
 Alpha  occ. eigenvalues --   -0.50360  -0.50082  -0.49729  -0.49444  -0.49067
 Alpha  occ. eigenvalues --   -0.48611  -0.48393  -0.48232  -0.47192  -0.46701
 Alpha  occ. eigenvalues --   -0.46449  -0.46008  -0.45534  -0.44936  -0.44091
 Alpha  occ. eigenvalues --   -0.44049  -0.43227  -0.42399  -0.42008  -0.41843
 Alpha  occ. eigenvalues --   -0.41382  -0.40570  -0.40464  -0.39358  -0.38938
 Alpha  occ. eigenvalues --   -0.38135  -0.37598  -0.36489  -0.36121  -0.34733
 Alpha  occ. eigenvalues --   -0.34340  -0.32914  -0.30626
 Alpha virt. eigenvalues --   -0.01039   0.02646   0.04382   0.07171   0.09691
 Alpha virt. eigenvalues --    0.11362   0.12200   0.13010   0.13378   0.13946
 Alpha virt. eigenvalues --    0.14378   0.15635   0.15786   0.17339   0.17952
 Alpha virt. eigenvalues --    0.18492   0.18574   0.18939   0.19655   0.19864
 Alpha virt. eigenvalues --    0.20251   0.21500   0.21566   0.22266   0.22430
 Alpha virt. eigenvalues --    0.22663   0.23023   0.23165   0.23807   0.24251
 Alpha virt. eigenvalues --    0.24483   0.24604   0.25234   0.25449   0.25990
 Alpha virt. eigenvalues --    0.26645   0.27165   0.27574   0.28005   0.28213
 Alpha virt. eigenvalues --    0.28489   0.28751   0.29932   0.30262   0.30607
 Alpha virt. eigenvalues --    0.31020   0.31583   0.32123   0.32566   0.32653
 Alpha virt. eigenvalues --    0.33006   0.33178   0.34028   0.34730   0.35569
 Alpha virt. eigenvalues --    0.35636   0.36523   0.37332   0.37973   0.39823
 Alpha virt. eigenvalues --    0.41850   0.45030   0.48033   0.49347   0.50920
 Alpha virt. eigenvalues --    0.51442   0.52977   0.54630   0.55468   0.55730
 Alpha virt. eigenvalues --    0.56396   0.56933   0.57901   0.58038   0.58530
 Alpha virt. eigenvalues --    0.59075   0.59762   0.59930   0.60201   0.60776
 Alpha virt. eigenvalues --    0.61183   0.61638   0.62260   0.62824   0.63798
 Alpha virt. eigenvalues --    0.63919   0.64869   0.65870   0.66163   0.66660
 Alpha virt. eigenvalues --    0.67988   0.68487   0.69736   0.71049   0.71416
 Alpha virt. eigenvalues --    0.71668   0.72046   0.72279   0.72716   0.73201
 Alpha virt. eigenvalues --    0.73271   0.74362   0.75470   0.75856   0.76421
 Alpha virt. eigenvalues --    0.76786   0.77102   0.78759   0.79318   0.80101
 Alpha virt. eigenvalues --    0.80566   0.81832   0.82359   0.83564   0.84095
 Alpha virt. eigenvalues --    0.85419   0.86518   0.87642   0.87826   0.88776
 Alpha virt. eigenvalues --    0.89302   0.90139   0.90480   0.91118   0.91584
 Alpha virt. eigenvalues --    0.92019   0.92647   0.93107   0.93399   0.94143
 Alpha virt. eigenvalues --    0.94931   0.94983   0.95734   0.95790   0.96308
 Alpha virt. eigenvalues --    0.96410   0.97167   0.97426   0.98570   0.98697
 Alpha virt. eigenvalues --    0.99390   0.99807   1.01125   1.01722   1.02136
 Alpha virt. eigenvalues --    1.02687   1.03392   1.03996   1.04542   1.05229
 Alpha virt. eigenvalues --    1.05829   1.06035   1.06952   1.07234   1.07659
 Alpha virt. eigenvalues --    1.08792   1.09214   1.09784   1.10853   1.11051
 Alpha virt. eigenvalues --    1.11639   1.12988   1.13648   1.14630   1.15111
 Alpha virt. eigenvalues --    1.15992   1.17054   1.17664   1.19276   1.19847
 Alpha virt. eigenvalues --    1.20761   1.21294   1.23149   1.23829   1.24682
 Alpha virt. eigenvalues --    1.25581   1.26702   1.27606   1.29385   1.29913
 Alpha virt. eigenvalues --    1.30403   1.30911   1.31453   1.32644   1.33709
 Alpha virt. eigenvalues --    1.34275   1.35550   1.35973   1.36326   1.36913
 Alpha virt. eigenvalues --    1.37953   1.38465   1.39179   1.39729   1.40287
 Alpha virt. eigenvalues --    1.40704   1.41206   1.41915   1.42475   1.43102
 Alpha virt. eigenvalues --    1.43542   1.44716   1.45354   1.45407   1.45831
 Alpha virt. eigenvalues --    1.46733   1.47348   1.48072   1.49458   1.50267
 Alpha virt. eigenvalues --    1.50959   1.51611   1.52022   1.52696   1.53621
 Alpha virt. eigenvalues --    1.54934   1.56050   1.56606   1.57548   1.58268
 Alpha virt. eigenvalues --    1.59538   1.59656   1.60185   1.60683   1.61940
 Alpha virt. eigenvalues --    1.62516   1.63772   1.63940   1.65285   1.67210
 Alpha virt. eigenvalues --    1.67665   1.67871   1.68446   1.69212   1.70348
 Alpha virt. eigenvalues --    1.70609   1.71114   1.71688   1.72292   1.74374
 Alpha virt. eigenvalues --    1.74726   1.75310   1.75862   1.76176   1.76796
 Alpha virt. eigenvalues --    1.76876   1.77501   1.78575   1.79634   1.80034
 Alpha virt. eigenvalues --    1.80437   1.81405   1.82146   1.82469   1.83018
 Alpha virt. eigenvalues --    1.83675   1.84184   1.85031   1.85354   1.86061
 Alpha virt. eigenvalues --    1.86813   1.87741   1.87837   1.88673   1.89368
 Alpha virt. eigenvalues --    1.90522   1.90885   1.91042   1.91673   1.91800
 Alpha virt. eigenvalues --    1.92134   1.92902   1.93576   1.93777   1.94372
 Alpha virt. eigenvalues --    1.94456   1.95429   1.95614   1.97055   1.97549
 Alpha virt. eigenvalues --    1.97966   1.98073   1.98611   1.98913   1.99387
 Alpha virt. eigenvalues --    2.00024   2.00603   2.01396   2.01899   2.02614
 Alpha virt. eigenvalues --    2.02991   2.03657   2.05002   2.05872   2.06323
 Alpha virt. eigenvalues --    2.06655   2.07598   2.08084   2.08606   2.08902
 Alpha virt. eigenvalues --    2.09244   2.09562   2.10240   2.10537   2.11486
 Alpha virt. eigenvalues --    2.11777   2.13064   2.13354   2.13760   2.14116
 Alpha virt. eigenvalues --    2.14426   2.14494   2.15844   2.16110   2.16408
 Alpha virt. eigenvalues --    2.16815   2.18307   2.19017   2.19061   2.19796
 Alpha virt. eigenvalues --    2.20410   2.20743   2.21207   2.22174   2.23369
 Alpha virt. eigenvalues --    2.23666   2.23754   2.25869   2.26600   2.27342
 Alpha virt. eigenvalues --    2.27838   2.28460   2.28859   2.29313   2.30156
 Alpha virt. eigenvalues --    2.30638   2.31604   2.32917   2.33167   2.33583
 Alpha virt. eigenvalues --    2.33945   2.34571   2.35172   2.35398   2.35610
 Alpha virt. eigenvalues --    2.36573   2.37276   2.37791   2.38802   2.38844
 Alpha virt. eigenvalues --    2.39664   2.40822   2.41224   2.41825   2.42538
 Alpha virt. eigenvalues --    2.42963   2.43081   2.43513   2.44426   2.45528
 Alpha virt. eigenvalues --    2.46367   2.47580   2.48335   2.48541   2.49772
 Alpha virt. eigenvalues --    2.50362   2.51659   2.54775   2.55043   2.55453
 Alpha virt. eigenvalues --    2.57112   2.57522   2.59246   2.59638   2.59902
 Alpha virt. eigenvalues --    2.60610   2.61350   2.62184   2.63658   2.64089
 Alpha virt. eigenvalues --    2.64970   2.65894   2.67174   2.67759   2.68203
 Alpha virt. eigenvalues --    2.68709   2.69188   2.69703   2.71817   2.72838
 Alpha virt. eigenvalues --    2.73137   2.75333   2.75554   2.75698   2.76921
 Alpha virt. eigenvalues --    2.77740   2.78396   2.78873   2.79068   2.79979
 Alpha virt. eigenvalues --    2.80881   2.81431   2.81917   2.83259   2.83710
 Alpha virt. eigenvalues --    2.84060   2.84831   2.85326   2.85763   2.86705
 Alpha virt. eigenvalues --    2.86884   2.89074   2.89687   2.90578   2.90876
 Alpha virt. eigenvalues --    2.92042   2.92224   2.92631   2.93446   2.94633
 Alpha virt. eigenvalues --    2.95366   2.96930   2.97280   2.97443   2.98656
 Alpha virt. eigenvalues --    2.99318   2.99545   2.99824   3.00519   3.01036
 Alpha virt. eigenvalues --    3.01420   3.02197   3.04071   3.04473   3.05065
 Alpha virt. eigenvalues --    3.06266   3.07665   3.08183   3.09221   3.10741
 Alpha virt. eigenvalues --    3.13329   3.14027   3.14911   3.18339   3.19269
 Alpha virt. eigenvalues --    3.22074   3.22532   3.26799   3.27320   3.28777
 Alpha virt. eigenvalues --    3.29455   3.30939   3.32748   3.34157   3.35443
 Alpha virt. eigenvalues --    3.36754   3.37582   3.38960   3.40326   3.40782
 Alpha virt. eigenvalues --    3.42563   3.43483   3.46098   3.46648   3.49067
 Alpha virt. eigenvalues --    3.49849   3.52520   3.54321   3.55045   3.55603
 Alpha virt. eigenvalues --    3.57507   3.58069   3.62467   3.63056   3.64734
 Alpha virt. eigenvalues --    3.65357   3.67904   4.02415   4.10941   4.12747
 Alpha virt. eigenvalues --    4.18815   4.24724   4.28625   4.34105   4.35931
 Alpha virt. eigenvalues --    4.40556   4.43725   4.43919   4.46599   4.53587
 Alpha virt. eigenvalues --    4.54259   4.58928   4.62355   4.63155   4.68525
 Alpha virt. eigenvalues --    4.71100   4.72048   4.77448   4.79284   4.81768
 Alpha virt. eigenvalues --    4.83765   4.85427   5.03053   5.12436   5.28906
 Alpha virt. eigenvalues --    5.41735   5.46109   5.65986   5.81255   5.99122
 Alpha virt. eigenvalues --    6.54254   6.99809
          Condensed to atoms (all electrons):
 Mulliken charges:
               1
     1  C   -0.317832
     2  C   -0.179365
     3  C   -0.176903
     4  C   -0.171609
     5  C   -0.094131
     6  C   -0.181404
     7  C   -0.321654
     8  C    0.058109
     9  O   -0.511247
    10  C    0.053875
    11  C   -0.210880
    12  C   -0.038510
    13  N   -0.542115
    14  C    0.542793
    15  C    0.568314
    16  F   -0.265260
    17  F   -0.278962
    18  C    0.454087
    19  F   -0.270684
    20  O   -0.490534
    21  C    0.747144
    22  F   -0.245061
    23  F   -0.239968
    24  C    0.541765
    25  F   -0.246395
    26  F   -0.256886
    27  C    0.180063
    28  C    0.633533
    29  F   -0.271377
    30  C    0.507492
    31  O   -0.471738
    32  O   -0.438840
    33  F   -0.275127
    34  F   -0.281285
    35  O   -0.510016
    36  H    0.099760
    37  H    0.104862
    38  H    0.100706
    39  H    0.089445
    40  H    0.094227
    41  H    0.089373
    42  H    0.096704
    43  H    0.097271
    44  H    0.091048
    45  H    0.081366
    46  H    0.096806
    47  H    0.097002
    48  H    0.107929
    49  H    0.102152
    50  H    0.102636
    51  H    0.099943
    52  H    0.103746
    53  H    0.103801
    54  H    0.095407
    55  H    0.103205
    56  H    0.125907
    57  H    0.151937
    58  H    0.117084
    59  H    0.286294
    60  H    0.361993
 Sum of Mulliken charges =   0.00000
 Mulliken charges with hydrogens summed into heavy atoms:
               1
     1  C   -0.012503
     2  C    0.004307
     3  C    0.009175
     4  C    0.016709
     5  C   -0.012765
     6  C    0.012405
     7  C   -0.008936
     8  C    0.261799
     9  O   -0.511247
    10  C    0.253083
    11  C    0.018231
    12  C    0.230512
    13  N   -0.255821
    14  C    0.542793
    15  C    0.568314
    16  F   -0.265260
    17  F   -0.278962
    18  C    0.454087
    19  F   -0.270684
    20  O   -0.490534
    21  C    0.747144
    22  F   -0.245061
    23  F   -0.239968
    24  C    0.541765
    25  F   -0.246395
    26  F   -0.256886
    27  C    0.180063
    28  C    0.633533
    29  F   -0.271377
    30  C    0.507492
    31  O   -0.109745
    32  O   -0.438840
    33  F   -0.275127
    34  F   -0.281285
    35  O   -0.510016
 Electronic spatial extent (au):  <R**2>=          27367.8663
 Charge=              0.0000 electrons
 Dipole moment (field-independent basis, Debye):
    X=              1.8805    Y=             -1.8383    Z=             -2.9559  Tot=              3.9564
 Quadrupole moment (field-independent basis, Debye-Ang):
   XX=           -183.7963   YY=           -200.1898   ZZ=           -203.9897
   XY=             -3.9697   XZ=            -12.8646   YZ=             -3.7178
 Traceless Quadrupole moment (field-independent basis, Debye-Ang):
   XX=             12.1957   YY=             -4.1978   ZZ=             -7.9978
   XY=             -3.9697   XZ=            -12.8646   YZ=             -3.7178
 Octapole moment (field-independent basis, Debye-Ang**2):
  XXX=           -762.3787  YYY=            -98.8268  ZZZ=           -227.2814  XYY=           -335.8314
  XXY=              7.4391  XXZ=           -167.6050  XZZ=           -313.2027  YZZ=            -49.7553
  YYZ=            -59.2707  XYZ=             -5.1847
 Hexadecapole moment (field-independent basis, Debye-Ang**3):
 XXXX=         -24725.7854 YYYY=          -2332.7270 ZZZZ=          -3394.7211 XXXY=           -809.9525
 XXXZ=          -2926.3102 YYYX=           -967.8613 YYYZ=            -18.1152 ZZZX=          -2146.4215
 ZZZY=              3.5342 XXYY=          -4986.5910 XXZZ=          -4899.5436 YYZZ=           -966.2404
 XXYZ=             74.0907 YYXZ=           -614.2249 ZZXY=           -380.2780
 N-N= 4.549535585798D+03 E-N=-1.420024374366D+04  KE= 2.150824711985D+03
[...]
     36          1           0       -7.899285   -1.106498   -2.611282
     37          1           0       -6.322361   -0.443414   -3.034323
     38          1           0       -7.408719    0.470382   -1.983900
     39          1           0       -7.243313   -1.361442   -0.249638
     40          1           0       -6.092059   -2.211954   -1.260027
     41          1           0       -5.672450    0.574545   -0.075693
     42          1           0       -5.049112   -0.917836    0.607354
     43          1           0       -3.735605   -1.338587   -1.469701
     44          1           0       -4.308342    0.166264   -2.157039
     45          1           0       -2.069907    0.437133   -1.343499
     46          1           0       -3.907114    1.907840    0.587383
     47          1           0       -2.241878    2.303303    0.229485
     48          1           0       -4.569845    2.429185   -1.772091
     49          1           0       -3.705196    3.792232   -1.062992
     50          1           0       -2.879301    2.716378   -2.194523
     51          1           0       -1.403969    0.191766    1.002896
     52          1           0       -3.041027   -0.254704    1.466281
     53          1           0       -1.088953   -3.150067   -0.478528
     54          1           0       -1.277268   -1.689558   -1.449960
     55          1           0        1.063878   -2.001025   -0.717742
     56          1           0        0.409242   -0.501266   -0.087820
     57          1           0       -0.124026   -1.694666    2.088031
     58          1           0        0.754479   -3.099031    1.488413
     59          1           0        2.777689   -1.961580    1.788666
     60          1           0        7.399949   -0.437051   -2.145709
 ---------------------------------------------------------------------
 Rotational constants (GHZ):      0.2257681      0.0500883      0.0493276
 Leave Link  202 at Tue Feb  4 01:15:29 2025, MaxMem=  5368709120 cpu:         0.0
 (Enter /home/k0335/k033513/app/g09/l601.exe)
 Copying SCF densities to generalized density rwf, IOpCl= 0 IROHF=0.

 **********************************************************************

            Population analysis using the SCF density.

 **********************************************************************

 Alpha  occ. eigenvalues --  -24.83631 -24.83476 -24.83399 -24.83198 -24.83181
 Alpha  occ. eigenvalues --  -24.82810 -24.82694 -24.82475 -24.81081 -24.81008
 Alpha  occ. eigenvalues --  -19.32183 -19.31076 -19.25776 -19.21391 -19.20966
 Alpha  occ. eigenvalues --  -14.45129 -10.52832 -10.48857 -10.48709 -10.47060
 Alpha  occ. eigenvalues --  -10.46326 -10.44408 -10.42883 -10.38782 -10.30174
 Alpha  occ. eigenvalues --  -10.29919 -10.28778 -10.25787 -10.24967 -10.24611
 Alpha  occ. eigenvalues --  -10.24433 -10.24068 -10.24057 -10.23927 -10.23873
 Alpha  occ. eigenvalues --   -1.41395  -1.39195  -1.38495  -1.37449  -1.35520
 Alpha  occ. eigenvalues --   -1.34639  -1.33688  -1.32555  -1.32031  -1.30521
 Alpha  occ. eigenvalues --   -1.23499  -1.22577  -1.14457  -1.14037  -1.10514
 Alpha  occ. eigenvalues --   -1.02597  -0.95656  -0.90769  -0.89618  -0.87220
 Alpha  occ. eigenvalues --   -0.86416  -0.85661  -0.82527  -0.80532  -0.79431
 Alpha  occ. eigenvalues --   -0.78284  -0.76583  -0.75494  -0.74769  -0.72534
 Alpha  occ. eigenvalues --   -0.71462  -0.70982  -0.70205  -0.69639  -0.69032
 Alpha  occ. eigenvalues --   -0.67966  -0.67532  -0.66914  -0.66580  -0.66035
 Alpha  occ. eigenvalues --   -0.65613  -0.65134  -0.64610  -0.64118  -0.63670
 Alpha  occ. eigenvalues --   -0.62369  -0.60438  -0.59282  -0.58002  -0.57408
 Alpha  occ. eigenvalues --   -0.56777  -0.56612  -0.56524  -0.55788  -0.55231
 Alpha  occ. eigenvalues --   -0.54756  -0.54576  -0.54320  -0.53747  -0.53712
 Alpha  occ. eigenvalues --   -0.53449  -0.53292  -0.53115  -0.52666  -0.52617
 Alpha  occ. eigenvalues --   -0.52223  -0.51954  -0.51457  -0.50921  -0.50799
 Alpha  occ. eigenvalues --   -0.50388  -0.50105  -0.49940  -0.49267  -0.49068
 Alpha  occ. eigenvalues --   -0.48735  -0.48423  -0.48323  -0.47326  -0.46611
 Alpha  occ. eigenvalues --   -0.45923  -0.45524  -0.45333  -0.44750  -0.43995
 Alpha  occ. eigenvalues --   -0.43263  -0.43110  -0.42186  -0.42095  -0.41832
 Alpha  occ. eigenvalues --   -0.41760  -0.40576  -0.40437  -0.39366  -0.38732
 Alpha  occ. eigenvalues --   -0.38272  -0.37487  -0.36427  -0.35928  -0.34657
 Alpha  occ. eigenvalues --   -0.34040  -0.33304  -0.30565
 Alpha virt. eigenvalues --    0.00331   0.04290   0.05517   0.09194   0.10705
 Alpha virt. eigenvalues --    0.11816   0.12480   0.13848   0.14048   0.14784
 Alpha virt. eigenvalues --    0.15861   0.16136   0.16420   0.17729   0.18181
 Alpha virt. eigenvalues --    0.18776   0.19638   0.19828   0.20240   0.20410
 Alpha virt. eigenvalues --    0.20885   0.21648   0.21782   0.22080   0.22599
 Alpha virt. eigenvalues --    0.22948   0.23189   0.23411   0.23910   0.24294
 Alpha virt. eigenvalues --    0.25114   0.25587   0.25960   0.26237   0.26683
 Alpha virt. eigenvalues --    0.26930   0.27453   0.28061   0.28291   0.28496
 Alpha virt. eigenvalues --    0.28791   0.29923   0.30333   0.30756   0.31336
 Alpha virt. eigenvalues --    0.31383   0.31841   0.32391   0.32654   0.32971
 Alpha virt. eigenvalues --    0.33054   0.33246   0.34054   0.34576   0.35929
 Alpha virt. eigenvalues --    0.36460   0.36800   0.38410   0.38824   0.40092
 Alpha virt. eigenvalues --    0.43247   0.46968   0.48397   0.49374   0.50342
 Alpha virt. eigenvalues --    0.51604   0.52354   0.55156   0.55988   0.56361
 Alpha virt. eigenvalues --    0.56766   0.56843   0.58060   0.58272   0.58812
 Alpha virt. eigenvalues --    0.59304   0.59890   0.60264   0.60407   0.60938
 Alpha virt. eigenvalues --    0.61086   0.62034   0.62765   0.63228   0.63530
 Alpha virt. eigenvalues --    0.64127   0.64824   0.66165   0.66572   0.66824
 Alpha virt. eigenvalues --    0.67553   0.68334   0.69504   0.71063   0.71155
 Alpha virt. eigenvalues --    0.71762   0.71914   0.72377   0.72676   0.72956
 Alpha virt. eigenvalues --    0.73365   0.74486   0.75321   0.75708   0.75928
 Alpha virt. eigenvalues --    0.76806   0.78162   0.79182   0.79405   0.80073
 Alpha virt. eigenvalues --    0.81088   0.81759   0.82875   0.83603   0.84028
 Alpha virt. eigenvalues --    0.84892   0.87267   0.87791   0.88108   0.88578
 Alpha virt. eigenvalues --    0.88938   0.89713   0.90745   0.91160   0.91347
 Alpha virt. eigenvalues --    0.91893   0.92968   0.93551   0.93692   0.94114
 Alpha virt. eigenvalues --    0.94692   0.94773   0.95480   0.96053   0.96497
 Alpha virt. eigenvalues --    0.97152   0.97295   0.97528   0.98111   0.99039
 Alpha virt. eigenvalues --    1.00628   1.00779   1.01488   1.01991   1.02225
 Alpha virt. eigenvalues --    1.02754   1.03852   1.03928   1.04693   1.05192
 Alpha virt. eigenvalues --    1.05719   1.06118   1.06728   1.07152   1.08008
 Alpha virt. eigenvalues --    1.08801   1.09794   1.10212   1.11124   1.12342
 Alpha virt. eigenvalues --    1.12952   1.13623   1.13751   1.14011   1.15525
 Alpha virt. eigenvalues --    1.16575   1.17620   1.18747   1.19213   1.19987
 Alpha virt. eigenvalues --    1.21150   1.21907   1.24417   1.25596   1.25948
 Alpha virt. eigenvalues --    1.27273   1.27992   1.28329   1.29582   1.30331
 Alpha virt. eigenvalues --    1.31339   1.32212   1.33723   1.34032   1.34234
 Alpha virt. eigenvalues --    1.34906   1.35968   1.36640   1.37165   1.37339
 Alpha virt. eigenvalues --    1.38653   1.39458   1.40106   1.40360   1.40608
 Alpha virt. eigenvalues --    1.41011   1.41606   1.42412   1.43235   1.43941
 Alpha virt. eigenvalues --    1.44211   1.44607   1.45141   1.45636   1.46076
 Alpha virt. eigenvalues --    1.46900   1.47501   1.47607   1.48289   1.49573
 Alpha virt. eigenvalues --    1.50617   1.51162   1.51823   1.52353   1.52927
 Alpha virt. eigenvalues --    1.53717   1.54821   1.55989   1.56526   1.58058
 Alpha virt. eigenvalues --    1.59344   1.60107   1.60347   1.61096   1.61475
 Alpha virt. eigenvalues --    1.61976   1.62676   1.64819   1.65108   1.65814
 Alpha virt. eigenvalues --    1.66677   1.67289   1.68423   1.68798   1.69379
 Alpha virt. eigenvalues --    1.70892   1.71987   1.72399   1.72719   1.72963
 Alpha virt. eigenvalues --    1.74842   1.75061   1.75619   1.75741   1.76412
 Alpha virt. eigenvalues --    1.77259   1.77954   1.78547   1.79817   1.80540
 Alpha virt. eigenvalues --    1.80796   1.81348   1.81568   1.83049   1.83708
 Alpha virt. eigenvalues --    1.84333   1.84814   1.85564   1.85610   1.86334
 Alpha virt. eigenvalues --    1.86771   1.87326   1.88016   1.88738   1.89132
 Alpha virt. eigenvalues --    1.89661   1.89808   1.90493   1.91363   1.91630
 Alpha virt. eigenvalues --    1.91876   1.92744   1.93027   1.93682   1.94598
 Alpha virt. eigenvalues --    1.94807   1.95088   1.95506   1.95871   1.96635
 Alpha virt. eigenvalues --    1.97224   1.97610   1.98269   1.99032   1.99711
 Alpha virt. eigenvalues --    1.99786   2.00719   2.01253   2.01672   2.02329
 Alpha virt. eigenvalues --    2.02851   2.03408   2.03689   2.04469   2.05005
 Alpha virt. eigenvalues --    2.06368   2.06546   2.07514   2.07602   2.08408
 Alpha virt. eigenvalues --    2.08918   2.09910   2.11149   2.11293   2.11878
 Alpha virt. eigenvalues --    2.12900   2.13641   2.13897   2.14427   2.14683
 Alpha virt. eigenvalues --    2.15582   2.16217   2.16378   2.16555   2.17450
 Alpha virt. eigenvalues --    2.18039   2.18337   2.19136   2.19518   2.20407
 Alpha virt. eigenvalues --    2.20621   2.21156   2.21566   2.22706   2.23696
 Alpha virt. eigenvalues --    2.24350   2.25453   2.26240   2.27148   2.27665
 Alpha virt. eigenvalues --    2.28228   2.28643   2.29634   2.30576   2.30774
 Alpha virt. eigenvalues --    2.31123   2.31572   2.32330   2.32803   2.33610
 Alpha virt. eigenvalues --    2.34486   2.35021   2.35799   2.36041   2.36461
 Alpha virt. eigenvalues --    2.37846   2.37934   2.38644   2.39148   2.40025
 Alpha virt. eigenvalues --    2.40878   2.41952   2.42563   2.43062   2.43568
 Alpha virt. eigenvalues --    2.43829   2.44821   2.45119   2.46207   2.47269
 Alpha virt. eigenvalues --    2.47868   2.48707   2.48887   2.50552   2.51151
 Alpha virt. eigenvalues --    2.52425   2.53070   2.54528   2.55252   2.56311
 Alpha virt. eigenvalues --    2.57606   2.57713   2.58929   2.59711   2.60716
 Alpha virt. eigenvalues --    2.61430   2.61791   2.63195   2.63939   2.64442
 Alpha virt. eigenvalues --    2.65070   2.66527   2.66900   2.68666   2.68735
 Alpha virt. eigenvalues --    2.69723   2.71575   2.72018   2.72752   2.72862
 Alpha virt. eigenvalues --    2.74498   2.75138   2.76122   2.77184   2.78023
 Alpha virt. eigenvalues --    2.78916   2.79632   2.80188   2.80549   2.81653
 Alpha virt. eigenvalues --    2.81990   2.83097   2.84057   2.84489   2.84861
 Alpha virt. eigenvalues --    2.85287   2.85613   2.86533   2.87005   2.87229
 Alpha virt. eigenvalues --    2.89076   2.89379   2.90325   2.90966   2.92211
 Alpha virt. eigenvalues --    2.92322   2.92804   2.93816   2.94444   2.96042
 Alpha virt. eigenvalues --    2.96679   2.97224   2.97634   2.98685   2.98843
 Alpha virt. eigenvalues --    3.00140   3.00725   3.01068   3.01524   3.01725
 Alpha virt. eigenvalues --    3.02513   3.03618   3.04462   3.05351   3.07101
 Alpha virt. eigenvalues --    3.07730   3.08780   3.10823   3.12782   3.12969
 Alpha virt. eigenvalues --    3.13618   3.15428   3.16568   3.17684   3.20328
 Alpha virt. eigenvalues --    3.22324   3.22562   3.25820   3.27272   3.27840
 Alpha virt. eigenvalues --    3.28741   3.31335   3.33566   3.35209   3.36506
 Alpha virt. eigenvalues --    3.37451   3.38097   3.39619   3.41063   3.41437
 Alpha virt. eigenvalues --    3.43150   3.44237   3.47235   3.47598   3.49854
 Alpha virt. eigenvalues --    3.50219   3.53053   3.54643   3.56026   3.57278
 Alpha virt. eigenvalues --    3.58493   3.58938   3.63194   3.63892   3.65387
 Alpha virt. eigenvalues --    3.66498   3.68578   4.04881   4.09891   4.13100
 Alpha virt. eigenvalues --    4.18267   4.22011   4.28011   4.31845   4.34551
 Alpha virt. eigenvalues --    4.40368   4.43584   4.45286   4.50788   4.54307
 Alpha virt. eigenvalues --    4.54968   4.59692   4.63190   4.64524   4.68740
 Alpha virt. eigenvalues --    4.71355   4.73179   4.76073   4.78673   4.80647
 Alpha virt. eigenvalues --    4.84734   4.87284   4.98735   5.06441   5.16395
 Alpha virt. eigenvalues --    5.36730   5.40044   5.69452   5.86364   6.15151
 Alpha virt. eigenvalues --    6.40371   6.83729
          Condensed to atoms (all electrons):
 Mulliken charges:
               1
     1  C   -0.319328
     2  C   -0.178904
     3  C   -0.178436
     4  C   -0.169545
     5  C   -0.097840
     6  C   -0.180307
     7  C   -0.323350
     8  C    0.052979
     9  O   -0.511551
    10  C    0.059487
    11  C   -0.218833
    12  C   -0.047342
    13  N   -0.537889
    14  C    0.550550
    15  C    0.554107
    16  F   -0.264502
    17  F   -0.276607
    18  C    0.477396
    19  F   -0.272113
    20  O   -0.479459
    21  C    0.740655
    22  F   -0.254692
    23  F   -0.230731
    24  C    0.533922
    25  F   -0.246282
    26  F   -0.250376
    27  C    0.159796
    28  C    0.612183
    29  F   -0.264042
    30  C    0.506805
    31  O   -0.460674
    32  O   -0.426402
    33  F   -0.269679
    34  F   -0.284644
    35  O   -0.512504
    36  H    0.100811
    37  H    0.104796
    38  H    0.101050
    39  H    0.090464
    40  H    0.092920
    41  H    0.088699
    42  H    0.098249
    43  H    0.095888
    44  H    0.089657
    45  H    0.080822
    46  H    0.095427
    47  H    0.100847
    48  H    0.107255
    49  H    0.103098
    50  H    0.101804
    51  H    0.108652
    52  H    0.101186
    53  H    0.103220
    54  H    0.092933
    55  H    0.103501
    56  H    0.126394
    57  H    0.155340
    58  H    0.118008
    59  H    0.287466
    60  H    0.359665
 Sum of Mulliken charges =   0.00000
 Mulliken charges with hydrogens summed into heavy atoms:
               1
     1  C   -0.012671
     2  C    0.004480
     3  C    0.008512
     4  C    0.016000
     5  C   -0.017018
     6  C    0.015968
     7  C   -0.011193
     8  C    0.262818
     9  O   -0.511551
    10  C    0.255641
    11  C    0.011062
    12  C    0.226005
    13  N   -0.250423
    14  C    0.550550
    15  C    0.554107
    16  F   -0.264502
    17  F   -0.276607
    18  C    0.477396
    19  F   -0.272113
    20  O   -0.479459
    21  C    0.740655
    22  F   -0.254692
    23  F   -0.230731
    24  C    0.533922
    25  F   -0.246282
    26  F   -0.250376
    27  C    0.159796
    28  C    0.612183
    29  F   -0.264042
    30  C    0.506805
    31  O   -0.101009
    32  O   -0.426402
    33  F   -0.269679
    34  F   -0.284644
    35  O   -0.512504
 Electronic spatial extent (au):  <R**2>=          25740.9668
 Charge=              0.0000 electrons
 Dipole moment (field-independent basis, Debye):
    X=              3.3638    Y=             -1.7420    Z=             -3.4911  Tot=              5.1514
 Quadrupole moment (field-independent basis, Debye-Ang):
   XX=           -175.4499   YY=           -201.3998   ZZ=           -204.2913
   XY=             -4.8259   XZ=            -13.6268   YZ=             -2.3888
 Traceless Quadrupole moment (field-independent basis, Debye-Ang):
   XX=             18.2638   YY=             -7.6862   ZZ=            -10.5776
   XY=             -4.8259   XZ=            -13.6268   YZ=             -2.3888
 Octapole moment (field-independent basis, Debye-Ang**2):
  XXX=           -661.9362  YYY=           -102.6339  ZZZ=           -215.2322  XYY=           -315.1061
  XXY=            -11.8858  XXZ=           -164.4823  XZZ=           -292.2209  YZZ=            -52.8093
  YYZ=            -59.2950  XYZ=             -1.8155
 Hexadecapole moment (field-independent basis, Debye-Ang**3):
 XXXX=         -22395.5554 YYYY=          -2648.1166 ZZZZ=          -3179.3237 XXXY=          -1011.7388
 XXXZ=          -2620.3217 YYYX=          -1019.0520 YYYZ=           -159.2040 ZZZX=          -1859.7355
 ZZZY=           -142.0545 XXYY=          -4691.7826 XXZZ=          -4473.5418 YYZZ=           -973.2770
 XXYZ=             43.7389 YYXZ=           -540.8230 ZZXY=           -411.0998
 N-N= 4.581273119938D+03 E-N=-1.426402395898D+04  KE= 2.151312583920D+03
 No NMR shielding tensors so no spin-rotation constants.
 Leave Link  601 at Tue Feb  4 01:15:29 2025, MaxMem=  5368709120 cpu:         3.4
 (Enter /home/k0335/k033513/app/g09/l9999.exe)
 1\1\GINC-C18U04N2\FOpt\RCAM-B3LYP\6-31G(d,p)\C19H25F10N1O5\K033513\04-
 Feb-2025\0\\#p CAM-B3LYP/6-31G(d,p) opt SCRF=(PCM,Solvent=Generic,Read
 ) NoSymm out=wfn\\Title EHOPA0_neu\\0,1\C,-7.0503761115,-0.5362978821,
 -2.223834272\C,-6.450946014,-1.2105272358,-0.9915688029\C,-5.308746893
 6,-0.4273397783,-0.3369689809\C,-4.0575451499,-0.3236974759,-1.2107704
 605\C,-2.8636113792,0.4139395134,-0.5831357901\C,-3.1518479893,1.87472
 87392,-0.2068900983\C,-3.6031105607,2.7489817786,-1.3736500848\C,-2.31
 48092227,-0.3098352326,0.6500221508\O,-2.0868025391,-1.7014203881,0.46
 92883284\C,-1.0597430305,-2.0563897513,-0.4378082843\C,0.3301427399,-1
 .5898766221,-0.0167650924\C,0.6698191215,-2.012521767,1.4110453495\N,1
 .9229653416,-1.4340069467,1.877436935\C,1.9794249061,-0.1480948994,2.2
 604752915\C,3.3875752759,0.3441104967,2.6807392735\F,3.3287523274,1.65
 51892007,2.9594842426\F,3.7683349766,-0.3258789394,3.7983575765\C,4.53
 17062025,0.1518353664,1.6611659641\F,4.7126831074,-1.1901422389,1.4887
 432817\O,5.7008533597,0.67490814,2.2220506498\C,6.3646523058,1.5251477
 255,1.3693179754\F,7.310707957,0.8530545507,0.6791161851\F,6.956690827
 5,2.4804365958,2.0696450721\C,5.3004610009,2.0542059849,0.3929601182\F
 ,5.8276245345,2.4274898868,-0.7778107006\F,4.6819390672,3.1020487178,0
 .9554540216\C,4.3041805246,0.8782705129,0.3037418492\C,4.4372149855,-0
 .0148060698,-0.9569592356\F,4.1075975405,0.7647231203,-2.0066408247\C,
 5.7869654606,-0.7131557813,-1.2431750805\O,6.5688265795,0.045674522,-1
 .9991645909\O,6.040160483,-1.8137531986,-0.8417915946\F,3.5010715061,-
 0.9830260108,-0.8425180997\F,3.0301405291,1.3661359873,0.2441589083\O,
 1.0315410054,0.6095414366,2.3376167998\H,-7.8992851482,-1.1064978698,-
 2.6112817438\H,-6.3223609018,-0.4434137989,-3.0343227777\H,-7.40871910
 41,0.470381571,-1.9838996375\H,-7.2433134626,-1.3614424839,-0.24963800
 19\H,-6.0920589267,-2.211954354,-1.2600267575\H,-5.6724499452,0.574544
 688,-0.075693476\H,-5.0491116543,-0.9178361598,0.6073538226\H,-3.73560
 46263,-1.3385870025,-1.4697008997\H,-4.3083415094,0.1662639048,-2.1570
 392563\H,-2.0699072124,0.4371329087,-1.343498628\H,-3.9071137319,1.907
 839934,0.5873831989\H,-2.2418784914,2.3033030858,0.2294853779\H,-4.569
 8447554,2.429184685,-1.772090645\H,-3.7051957808,3.7922322062,-1.06299
 19723\H,-2.8793008828,2.7163783116,-2.1945225858\H,-1.4039686308,0.191
 7657447,1.0028958881\H,-3.0410274833,-0.2547038239,1.4662814534\H,-1.0
 889525593,-3.150066823,-0.4785275428\H,-1.2772680328,-1.6895583818,-1.
 4499595537\H,1.0638784289,-2.0010249896,-0.7177421575\H,0.409241687,-0
 .5012662369,-0.0878195762\H,-0.1240259505,-1.6946656105,2.0880310618\H
 ,0.7544788788,-3.0990310118,1.4884134144\H,2.7776893575,-1.961580188,1
 .7886664801\H,7.3999486626,-0.4370513628,-2.1457094659\\Version=ES64L-
 G09RevD.01\HF=-2167.6151467\RMSD=4.938e-09\RMSF=2.128e-06\Dipole=1.323
 4232,-0.6853431,-1.3734861\Quadrupole=13.5786793,-5.7144673,-7.864212,
 -3.5879305,-10.1312231,-1.7760318\PG=C01 [X(C19H25F10N1O5)]\\@

 Writing a WFN file to "cytopopt/EHOPA0/EHOPA0_neu.wfn"


 REALITY IS FOR PEOPLE WHO CAN'T FACE SCIENCE FICTION.
 Job cpu time:       0 days 10 hours  4 minutes  8.5 seconds.
 File lengths (MBytes):  RWF=    803 Int=      0 D2E=      0 Chk=     35 Scr=      1
 Normal termination of Gaussian 09 at Tue Feb  4 01:15:30 2025.
