 Entering Gaussian System, Link 0=g09
 Initial command:
 /home/k0335/k033513/app/g09/l1.exe "/home/k0335/k033513/app/g09/scratch/Gau-438442.inp" -scrdir="/home/k0335/k033513/app/g09/scratch/"
 Default is to use a total of  36 processors:
                               36 via shared-memory
                                1 via Linda
 Entering Link 1 = /home/k0335/k033513/app/g09/l1.exe PID=    438443.
  
 Copyright (c) 1988,1990,1992,1993,1995,1998,2003,2009,2013,
            Gaussian, Inc.  All Rights Reserved.
  
 This is part of the Gaussian(R) 09 program.  It is based on
 the Gaussian(R) 03 system (copyright 2003, Gaussian, Inc.),
 the Gaussian(R) 98 system (copyright 1998, Gaussian, Inc.),
 the Gaussian(R) 94 system (copyright 1995, Gaussian, Inc.),
 the Gaussian 92(TM) system (copyright 1992, Gaussian, Inc.),
 the Gaussian 90(TM) system (copyright 1990, Gaussian, Inc.),
 the Gaussian 88(TM) system (copyright 1988, Gaussian, Inc.),
 the Gaussian 86(TM) system (copyright 1986, Carnegie Mellon
 University), and the Gaussian 82(TM) system (copyright 1983,
 Carnegie Mellon University). Gaussian is a federally registered
 trademark of Gaussian, Inc.
  
 This software contains proprietary and confidential information,
 including trade secrets, belonging to Gaussian, Inc.
  
 This software is provided under written license and may be
 used, copied, transmitted, or stored only in accord with that
 written license.
  
 The following legend is applicable only to US Government
 contracts under FAR:
  
                    RESTRICTED RIGHTS LEGEND
  
 Use, reproduction and disclosure by the US Government is
 subject to restrictions as set forth in subparagraphs (a)
 and (c) of the Commercial Computer Software - Restricted
 Rights clause in FAR 52.227-19.
  
 Gaussian, Inc.
 340 Quinnipiac St., Bldg. 40, Wallingford CT 06492
  
  
 ---------------------------------------------------------------
 Warning -- This program may not be used in any manner that
 competes with the business of Gaussian, Inc. or will provide
 assistance to any competitor of Gaussian, Inc.  The licensee
 of this program is prohibited from giving any competitor of
 Gaussian, Inc. access to this program.  By using this program,
 the user acknowledges that Gaussian, Inc. is engaged in the
 business of creating and licensing software in the field of
 computational chemistry and represents and warrants to the
 licensee that it is not a competitor of Gaussian, Inc. and that
 it will not use this program in any manner prohibited above.
 ---------------------------------------------------------------
  

 Cite this work as:
 Gaussian 09, Revision D.01,
 M. J. Frisch, G. W. Trucks, H. B. Schlegel, G. E. Scuseria, 
 M. A. Robb, J. R. Cheeseman, G. Scalmani, V. Barone, B. Mennucci, 
 G. A. Petersson, H. Nakatsuji, M. Caricato, X. Li, H. P. Hratchian, 
 A. F. Izmaylov, J. Bloino, G. Zheng, J. L. Sonnenberg, M. Hada, 
 M. Ehara, K. Toyota, R. Fukuda, J. Hasegawa, M. Ishida, T. Nakajima, 
 Y. Honda, O. Kitao, H. Nakai, T. Vreven, J. A. Montgomery, Jr., 
 J. E. Peralta, F. Ogliaro, M. Bearpark, J. J. Heyd, E. Brothers, 
 K. N. Kudin, V. N. Staroverov, T. Keith, R. Kobayashi, J. Normand, 
 K. Raghavachari, A. Rendell, J. C. Burant, S. S. Iyengar, J. Tomasi, 
 M. Cossi, N. Rega, J. M. Millam, M. Klene, J. E. Knox, J. B. Cross, 
 V. Bakken, C. Adamo, J. Jaramillo, R. Gomperts, R. E. Stratmann, 
 O. Yazyev, A. J. Austin, R. Cammi, C. Pomelli, J. W. Ochterski, 
 R. L. Martin, K. Morokuma, V. G. Zakrzewski, G. A. Voth, 
 P. Salvador, J. J. Dannenberg, S. Dapprich, A. D. Daniels, 
 O. Farkas, J. B. Foresman, J. V. Ortiz, J. Cioslowski, 
 and D. J. Fox, Gaussian, Inc., Wallingford CT, 2013.
 
 ******************************************
 Gaussian 09:  ES64L-G09RevD.01 24-Apr-2013
                 2-Feb-2025 
 ******************************************
 %nprocshared=24
 Will use up to   24 processors via shared memory.
 %mem=40GB
 %rwf=wang5/LDAI1C1/LDAI1C1_neu.rwf
 %nosave
 %chk=wang5/LDAI1C1/LDAI1C1_neu.chk
 ----------------------------------------------------------------------
 #p CAM-B3LYP/6-31G(d,p) SCRF=(PCM,Solvent=Generic,Read) NoSymm out=wfn
 ----------------------------------------------------------------------
 1/38=1,40=2/1;
 2/12=2,15=1,17=6,18=5,40=1/2;
 3/5=1,6=6,7=101,11=2,16=1,25=1,30=1,70=2203,72=-2,74=-40/1,2,3;
 4//1;
 5/5=2,38=5/2;
 6/7=2,8=2,9=2,10=2,28=1/1;
 99/5=1,6=100,9=1/99;
 Leave Link    1 at Sun Feb  2 08:08:42 2025, MaxMem=  5368709120 cpu:         0.8
 (Enter /home/k0335/k033513/app/g09/l101.exe)
 -----------------
 Title LDAI1C1_neu
 -----------------
 Symbolic Z-matrix:
 Charge =  0 Multiplicity = 1
 C                    -0.22488   4.91806   1.51824 
 N                    -0.14131   3.65883   0.79999 
 C                    -1.31814   3.03536   0.44834 
 O                    -2.41884   3.49954   0.75563 
 N                    -1.19816   1.84293  -0.23448 
 C                    -2.42451   1.15887  -0.6441 
 C                    -2.95719   0.24069   0.46261 
 C                    -4.3954   -0.24537   0.24027 
 C                    -4.59157  -1.0643   -1.03454 
 F                    -3.66837  -2.06546  -1.05669 
 F                    -4.32585  -0.27448  -2.11184 
 C                    -6.01152  -1.65384  -1.15567 
 F                    -6.92104  -0.64513  -1.17605 
 F                    -6.14014  -2.33886  -2.31718 
 O                    -6.331    -2.48904  -0.0672 
 C                    -7.43506  -3.2811   -0.39886 
 F                    -8.41291  -2.56884  -0.98576 
 F                    -7.05814  -4.29591  -1.19802 
 F                    -7.92698  -3.80852   0.74251 
 C                     0.00348   1.1889   -0.40845 
 O                     0.0605    0.045    -0.86407 
 N                     1.13469   1.86986  -0.01013 
 C                     2.43183   1.21466  -0.17647 
 C                     2.76609   0.3101    1.01586 
 C                     4.2288   -0.14926   1.06571 
 C                     4.67142  -0.96666  -0.14492 
 F                     3.78114  -1.97598  -0.34685 
 F                     4.61541  -0.17921  -1.25576 
 C                     6.0952   -1.53227   0.02166 
 F                     6.97335  -0.51746   0.223 
 F                     6.14847  -2.32879   1.12015 
 O                     6.49152  -2.2964   -1.0913 
 C                     7.87639  -2.47354  -1.06672 
 F                     8.49497  -1.35294  -1.48531 
 F                     8.32449  -2.81211   0.15572 
 F                     8.19174  -3.46908  -1.92177 
 C                     1.09532   3.06448   0.67827 
 O                     2.10712   3.55534   1.18494 
 H                     0.67546   5.51934   1.36006 
 H                    -1.09416   5.49739   1.1928 
 H                    -0.3231    4.6994    2.58638 
 H                    -2.21684   0.57792  -1.54937 
 H                    -3.18035   1.9084   -0.90659 
 H                    -2.92984   0.77111   1.42304 
 H                    -2.28958  -0.62223   0.57631 
 H                    -4.67131  -0.85166   1.11109 
 H                    -5.06354   0.62387   0.22109 
 H                     2.41349   0.62841  -1.10176 
 H                     3.20638   1.98155  -0.29465 
 H                     2.10455  -0.56488   1.00936 
 H                     2.55178   0.84271   1.95119 
 H                     4.87304   0.73225   1.16697 
 H                     4.35309  -0.75212   1.97331 
 
 NAtoms=     53 NQM=       53 NQMF=       0 NMMI=      0 NMMIF=      0
                NMic=       0 NMicF=      0.
                    Isotopes and Nuclear Properties:
 (Nuclear quadrupole moments (NQMom) in fm**2, nuclear magnetic moments (NMagM)
  in nuclear magnetons)

  Atom         1           2           3           4           5           6           7           8           9          10
 IAtWgt=          12          14          12          16          14          12          12          12          12          19
 AtmWgt=  12.0000000  14.0030740  12.0000000  15.9949146  14.0030740  12.0000000  12.0000000  12.0000000  12.0000000  18.9984033
 NucSpn=           0           2           0           0           2           0           0           0           0           1
 AtZEff=   0.0000000   0.0000000   0.0000000   0.0000000   0.0000000   0.0000000   0.0000000   0.0000000   0.0000000   0.0000000
 NQMom=    0.0000000   2.0440000   0.0000000   0.0000000   2.0440000   0.0000000   0.0000000   0.0000000   0.0000000   0.0000000
 NMagM=    0.0000000   0.4037610   0.0000000   0.0000000   0.4037610   0.0000000   0.0000000   0.0000000   0.0000000   2.6288670
 AtZNuc=   6.0000000   7.0000000   6.0000000   8.0000000   7.0000000   6.0000000   6.0000000   6.0000000   6.0000000   9.0000000

  Atom        11          12          13          14          15          16          17          18          19          20
 IAtWgt=          19          12          19          19          16          12          19          19          19          12
 AtmWgt=  18.9984033  12.0000000  18.9984033  18.9984033  15.9949146  12.0000000  18.9984033  18.9984033  18.9984033  12.0000000
 NucSpn=           1           0           1           1           0           0           1           1           1           0
 AtZEff=   0.0000000   0.0000000   0.0000000   0.0000000   0.0000000   0.0000000   0.0000000   0.0000000   0.0000000   0.0000000
 NQMom=    0.0000000   0.0000000   0.0000000   0.0000000   0.0000000   0.0000000   0.0000000   0.0000000   0.0000000   0.0000000
 NMagM=    2.6288670   0.0000000   2.6288670   2.6288670   0.0000000   0.0000000   2.6288670   2.6288670   2.6288670   0.0000000
 AtZNuc=   9.0000000   6.0000000   9.0000000   9.0000000   8.0000000   6.0000000   9.0000000   9.0000000   9.0000000   6.0000000

  Atom        21          22          23          24          25          26          27          28          29          30
 IAtWgt=          16          14          12          12          12          12          19          19          12          19
 AtmWgt=  15.9949146  14.0030740  12.0000000  12.0000000  12.0000000  12.0000000  18.9984033  18.9984033  12.0000000  18.9984033
 NucSpn=           0           2           0           0           0           0           1           1           0           1
 AtZEff=   0.0000000   0.0000000   0.0000000   0.0000000   0.0000000   0.0000000   0.0000000   0.0000000   0.0000000   0.0000000
 NQMom=    0.0000000   2.0440000   0.0000000   0.0000000   0.0000000   0.0000000   0.0000000   0.0000000   0.0000000   0.0000000
 NMagM=    0.0000000   0.4037610   0.0000000   0.0000000   0.0000000   0.0000000   2.6288670   2.6288670   0.0000000   2.6288670
 AtZNuc=   8.0000000   7.0000000   6.0000000   6.0000000   6.0000000   6.0000000   9.0000000   9.0000000   6.0000000   9.0000000

  Atom        31          32          33          34          35          36          37          38          39          40
 IAtWgt=          19          16          12          19          19          19          12          16           1           1
 AtmWgt=  18.9984033  15.9949146  12.0000000  18.9984033  18.9984033  18.9984033  12.0000000  15.9949146   1.0078250   1.0078250
 NucSpn=           1           0           0           1           1           1           0           0           1           1
 AtZEff=   0.0000000   0.0000000   0.0000000   0.0000000   0.0000000   0.0000000   0.0000000   0.0000000   0.0000000   0.0000000
 NQMom=    0.0000000   0.0000000   0.0000000   0.0000000   0.0000000   0.0000000   0.0000000   0.0000000   0.0000000   0.0000000
 NMagM=    2.6288670   0.0000000   0.0000000   2.6288670   2.6288670   2.6288670   0.0000000   0.0000000   2.7928460   2.7928460
 AtZNuc=   9.0000000   8.0000000   6.0000000   9.0000000   9.0000000   9.0000000   6.0000000   8.0000000   1.0000000   1.0000000

  Atom        41          42          43          44          45          46          47          48          49          50
 IAtWgt=           1           1           1           1           1           1           1           1           1           1
 AtmWgt=   1.0078250   1.0078250   1.0078250   1.0078250   1.0078250   1.0078250   1.0078250   1.0078250   1.0078250   1.0078250
 NucSpn=           1           1           1           1           1           1           1           1           1           1
 AtZEff=   0.0000000   0.0000000   0.0000000   0.0000000   0.0000000   0.0000000   0.0000000   0.0000000   0.0000000   0.0000000
 NQMom=    0.0000000   0.0000000   0.0000000   0.0000000   0.0000000   0.0000000   0.0000000   0.0000000   0.0000000   0.0000000
 NMagM=    2.7928460   2.7928460   2.7928460   2.7928460   2.7928460   2.7928460   2.7928460   2.7928460   2.7928460   2.7928460
 AtZNuc=   1.0000000   1.0000000   1.0000000   1.0000000   1.0000000   1.0000000   1.0000000   1.0000000   1.0000000   1.0000000

  Atom        51          52          53
 IAtWgt=           1           1           1
 AtmWgt=   1.0078250   1.0078250   1.0078250
 NucSpn=           1           1           1
 AtZEff=   0.0000000   0.0000000   0.0000000
 NQMom=    0.0000000   0.0000000   0.0000000
 NMagM=    2.7928460   2.7928460   2.7928460
 AtZNuc=   1.0000000   1.0000000   1.0000000
 Leave Link  101 at Sun Feb  2 08:08:42 2025, MaxMem=  5368709120 cpu:         0.9
 (Enter /home/k0335/k033513/app/g09/l202.exe)
 Symmetry turned off by external request.
 Stoichiometry    C16H15F14N3O5
 Framework group  C1[X(C16H15F14N3O5)]
 Deg. of freedom   153
 Full point group                 C1      NOp   1
                          Input orientation:                          
 ---------------------------------------------------------------------
 Center     Atomic      Atomic             Coordinates (Angstroms)
 Number     Number       Type             X           Y           Z
 ---------------------------------------------------------------------
      1          6           0       -0.224883    4.918059    1.518237
      2          7           0       -0.141310    3.658825    0.799988
      3          6           0       -1.318143    3.035360    0.448339
      4          8           0       -2.418840    3.499538    0.755629
      5          7           0       -1.198160    1.842930   -0.234476
      6          6           0       -2.424505    1.158870   -0.644100
      7          6           0       -2.957186    0.240693    0.462611
      8          6           0       -4.395404   -0.245370    0.240271
      9          6           0       -4.591567   -1.064303   -1.034539
     10          9           0       -3.668368   -2.065462   -1.056686
     11          9           0       -4.325854   -0.274478   -2.111838
     12          6           0       -6.011518   -1.653836   -1.155669
     13          9           0       -6.921035   -0.645127   -1.176047
     14          9           0       -6.140142   -2.338855   -2.317183
     15          8           0       -6.331000   -2.489043   -0.067197
     16          6           0       -7.435060   -3.281100   -0.398855
     17          9           0       -8.412911   -2.568838   -0.985762
     18          9           0       -7.058137   -4.295913   -1.198019
     19          9           0       -7.926982   -3.808516    0.742514
     20          6           0        0.003475    1.188902   -0.408450
     21          8           0        0.060504    0.044997   -0.864070
     22          7           0        1.134687    1.869858   -0.010129
     23          6           0        2.431829    1.214657   -0.176472
     24          6           0        2.766090    0.310099    1.015860
     25          6           0        4.228800   -0.149256    1.065713
     26          6           0        4.671424   -0.966662   -0.144919
     27          9           0        3.781139   -1.975981   -0.346849
     28          9           0        4.615409   -0.179205   -1.255756
     29          6           0        6.095197   -1.532267    0.021658
     30          9           0        6.973351   -0.517462    0.222996
     31          9           0        6.148471   -2.328792    1.120147
     32          8           0        6.491523   -2.296399   -1.091305
     33          6           0        7.876391   -2.473538   -1.066715
     34          9           0        8.494966   -1.352938   -1.485307
     35          9           0        8.324487   -2.812114    0.155720
     36          9           0        8.191743   -3.469079   -1.921768
     37          6           0        1.095320    3.064480    0.678272
     38          8           0        2.107122    3.555339    1.184939
     39          1           0        0.675459    5.519343    1.360055
     40          1           0       -1.094159    5.497389    1.192801
     41          1           0       -0.323102    4.699400    2.586383
     42          1           0       -2.216838    0.577917   -1.549371
     43          1           0       -3.180352    1.908396   -0.906591
     44          1           0       -2.929838    0.771110    1.423037
     45          1           0       -2.289577   -0.622227    0.576305
     46          1           0       -4.671305   -0.851657    1.111092
     47          1           0       -5.063543    0.623867    0.221090
     48          1           0        2.413489    0.628412   -1.101759
     49          1           0        3.206378    1.981552   -0.294652
     50          1           0        2.104553   -0.564883    1.009355
     51          1           0        2.551781    0.842712    1.951186
     52          1           0        4.873044    0.732251    1.166974
     53          1           0        4.353087   -0.752118    1.973311
 ---------------------------------------------------------------------
 Rotational constants (GHZ):      0.1346927      0.0284661      0.0244893
 Leave Link  202 at Sun Feb  2 08:08:42 2025, MaxMem=  5368709120 cpu:         0.0
 (Enter /home/k0335/k033513/app/g09/l301.exe)
 Standard basis: 6-31G(d,p) (6D, 7F)
 Ernie: Thresh=  0.10000D-02 Tol=  0.10000D-05 Strict=F.
   645 basis functions,  1169 primitive gaussians,   645 cartesian basis functions
   149 alpha electrons      149 beta electrons
       nuclear repulsion energy      4684.9281052457 Hartrees.
 IExCor=20419 DFT=T Ex+Corr=CAM-B3LYP ExCW=0 ScaHFX=  1.000000
 ScaDFX=  1.000000  1.000000  1.000000  0.810000 ScalE2=  1.000000  1.000000
 IRadAn=      0 IRanWt=     -1 IRanGd=            0 ICorTp=0 IEmpDi=  4
  HFx wShort=  0.000000 wLong=  0.330000 cFull=  0.190000 cShort=  0.000000 cLong=  0.460000
  DFx wShort=  0.000000 wLong=  0.330000 cFull=  0.190000 cShort=  0.000000 cLong=  0.460000
 NAtoms=   53 NActive=   53 NUniq=   53 SFac= 1.00D+00 NAtFMM=   60 NAOKFM=F Big=F
 Integral buffers will be    131072 words long.
 Raffenetti 2 integral format.
 Two-electron integral symmetry is turned off.
 Using the following non-standard input for PCM:
 eps=4.9
 --- end of non-standard input.
 ------------------------------------------------------------------------------
 Polarizable Continuum Model (PCM)
 =================================
 Model                : PCM (using non-symmetric T matrix).
 Atomic radii         : UFF (Universal Force Field).
 Polarization charges : Total charges.
 Charge compensation  : None.
 Solution method      : On-the-fly selection.
 Cavity type          : Scaled VdW (van der Waals Surface) (Alpha=1.100).
 Cavity algorithm     : GePol (No added spheres)
                        Default sphere list used, NSphG=   53.
                        Lebedev-Laikov grids with approx.  5.0 points / Ang**2.
                        Smoothing algorithm: Karplus/York (Gamma=1.0000).
                        Polarization charges: spherical gaussians, with
                                              point-specific exponents (IZeta= 3).
                        Self-potential: point-specific (ISelfS= 7).
                        Self-field    : sphere-specific E.n sum rule (ISelfD= 2).
 Solvent              : Generic,
                        Eps                           =   4.900000
                        Eps(infinity)                 =   0.000000
                        RSolv                         =   0.000000 Ang.
                        Molar volume                  =   0.000000 cm**3/mol
                        Thermal expansion coefficient =   0.000000 K**-1
                        Absolute temperature          = 298.150000 K
                        Numeral density               =   0.000000 Ang**-3
                        Hydrogen bond acidity         =   0.000000
                        Hydrogen bond basicity        =   0.000000
                        Surface tension at interface  =   0.000000 (cal/mol)*Ang**-2
                        Carbon aromaticity            =   0.000000
                        Electronegative halogenicity  =   0.000000
 ------------------------------------------------------------------------------
 GePol: Number of generator spheres                  =      53
 GePol: Total number of spheres                      =      53
 GePol: Number of exposed spheres                    =      53 (100.00%)
 GePol: Number of points                             =    4205
 GePol: Average weight of points                     =       0.13
 GePol: Minimum weight of points                     =   0.31D-11
 GePol: Maximum weight of points                     =    0.20577
 GePol: Number of points with low weight             =     213
 GePol: Fraction of low-weight points (<1% of avg)   =       5.07%
 GePol: Cavity surface area                          =    536.040 Ang**2
 GePol: Cavity volume                                =    591.432 Ang**3
 Leave Link  301 at Sun Feb  2 08:08:42 2025, MaxMem=  5368709120 cpu:         0.8
 (Enter /home/k0335/k033513/app/g09/l302.exe)
 NPDir=0 NMtPBC=     1 NCelOv=     1 NCel=       1 NClECP=     1 NCelD=      1
         NCelK=      1 NCelE2=     1 NClLst=     1 CellRange=     0.0.
 One-electron integrals computed using PRISM.
 NBasis=   645 RedAO= T EigKep=  1.39D-03  NBF=   645
 NBsUse=   645 1.00D-06 EigRej= -1.00D+00 NBFU=   645
 Precomputing XC quadrature grid using
 IXCGrd= 4 IRadAn=           0 IRanWt=          -1 IRanGd=           0 AccXCQ= 0.00D+00.
 Generated NRdTot=       0 NPtTot=           0 NUsed=           0 NTot=          32
 NSgBfM=   576   576   576   576   576 MxSgAt=    53 MxSgA2=    53.
 Leave Link  302 at Sun Feb  2 08:08:43 2025, MaxMem=  5368709120 cpu:        15.7
 (Enter /home/k0335/k033513/app/g09/l303.exe)
 DipDrv:  MaxL=1.
 Leave Link  303 at Sun Feb  2 08:08:43 2025, MaxMem=  5368709120 cpu:         0.9
 (Enter /home/k0335/k033513/app/g09/l401.exe)
 ExpMin= 1.61D-01 ExpMax= 7.00D+03 ExpMxC= 1.05D+03 IAcc=1 IRadAn=         1 AccDes= 0.00D+00
 Harris functional with IExCor=20419 and IRadAn=       1 diagonalized for initial guess.
 HarFok:  IExCor=20419 AccDes= 0.00D+00 IRadAn=         1 IDoV= 1 UseB2=F ITyADJ=14
 ICtDFT=  3500011 ScaDFX=  1.000000  1.000000  1.000000  1.000000
 FoFCou: FMM=F IPFlag=           0 FMFlag=      100000 FMFlg1=           0
         NFxFlg=           0 DoJE=T BraDBF=F KetDBF=T FulRan=T
         wScrn=  0.000000 ICntrl=     500 IOpCl=  0 I1Cent=   200000004 NGrid=           0
         NMat0=    1 NMatS0=      1 NMatT0=    0 NMatD0=    1 NMtDS0=    0 NMtDT0=    0
 Symmetry not used in FoFCou.
 Harris En= -2476.16134302297    
 JPrj=0 DoOrth=F DoCkMO=F.
 Leave Link  401 at Sun Feb  2 08:08:44 2025, MaxMem=  5368709120 cpu:        15.3
 (Enter /home/k0335/k033513/app/g09/l502.exe)
 Closed shell SCF:
 Using DIIS extrapolation, IDIIS=  1040.
 Two-electron integral symmetry not used.
 IVT=     1286081 IEndB=     1286081 NGot=  5368709120 MDV=  5367856350
 LenX=  5367856350 LenY=  5367439680
 Requested convergence on RMS density matrix=1.00D-08 within 128 cycles.
 Requested convergence on MAX density matrix=1.00D-06.
 Requested convergence on             energy=1.00D-06.
 No special actions if energy rises.
 Fock matrices will be formed incrementally for  20 cycles.

 Cycle   1  Pass 1  IDiag  1:
 FoFJK:  IHMeth= 1 ICntrl=       0 DoSepK=T KAlg= 0 I1Cent=   0 FoldK=F
 IRaf=         1 NMat=   1 IRICut=       1 DoRegI=T DoRafI=F ISym2E= 0.
 FoFCou: FMM=F IPFlag=           0 FMFlag=      100000 FMFlg1=           0
         NFxFlg=           0 DoJE=T BraDBF=F KetDBF=F FulRan=T
         wScrn=  0.000000 ICntrl=     500 IOpCl=  0 I1Cent=           0 NGrid=           0
         NMat0=    1 NMatS0=      1 NMatT0=    0 NMatD0=    1 NMtDS0=    0 NMtDT0=    0
 Symmetry not used in FoFCou.
 Inv3:  Mode=1 IEnd=    53046075.
 Iteration    1 A*A^-1 deviation from unit magnitude is 6.22D-15 for   4188.
 Iteration    1 A*A^-1 deviation from orthogonality  is 3.55D-15 for   4188   3141.
 Iteration    1 A^-1*A deviation from unit magnitude is 6.00D-15 for   4187.
 Iteration    1 A^-1*A deviation from orthogonality  is 1.27D-13 for   4096   3608.
 E= -2555.32767764767    
 DIIS: error= 7.15D-02 at cycle   1 NSaved=   1.
 NSaved= 1 IEnMin= 1 EnMin= -2555.32767764767     IErMin= 1 ErrMin= 7.15D-02
 ErrMax= 7.15D-02  0.00D+00 EMaxC= 1.00D-01 BMatC= 2.17D+00 BMatP= 2.17D+00
 IDIUse=3 WtCom= 2.85D-01 WtEn= 7.15D-01
 Coeff-Com:  0.100D+01
 Coeff-En:   0.100D+01
 Coeff:      0.100D+01
 Gap=     0.392 Goal=   None    Shift=    0.000
 GapD=    0.392 DampG=1.000 DampE=0.500 DampFc=0.5000 IDamp=-1.
 Damping current iteration by 5.00D-01
 RMSDP=2.85D-03 MaxDP=1.31D-01              OVMax= 1.29D-01

 Cycle   2  Pass 1  IDiag  1:
 RMSU=  1.42D-03    CP:  1.00D+00
 E= -2555.76420861931     Delta-E=       -0.436530971642 Rises=F Damp=T
 DIIS: error= 3.19D-02 at cycle   2 NSaved=   2.
 NSaved= 2 IEnMin= 2 EnMin= -2555.76420861931     IErMin= 2 ErrMin= 3.19D-02
 ErrMax= 3.19D-02  0.00D+00 EMaxC= 1.00D-01 BMatC= 2.87D-01 BMatP= 2.17D+00
 IDIUse=3 WtCom= 6.81D-01 WtEn= 3.19D-01
 Coeff-Com: -0.243D+00 0.124D+01
 Coeff-En:   0.000D+00 0.100D+01
 Coeff:     -0.165D+00 0.117D+01
 Gap=     0.413 Goal=   None    Shift=    0.000
 RMSDP=8.95D-04 MaxDP=4.54D-02 DE=-4.37D-01 OVMax= 1.11D-01

 Cycle   3  Pass 1  IDiag  1:
 RMSU=  8.47D-04    CP:  9.99D-01  1.20D+00
 E= -2556.11305823436     Delta-E=       -0.348849615045 Rises=F Damp=F
 DIIS: error= 1.53D-02 at cycle   3 NSaved=   3.
 NSaved= 3 IEnMin= 3 EnMin= -2556.11305823436     IErMin= 3 ErrMin= 1.53D-02
 ErrMax= 1.53D-02  0.00D+00 EMaxC= 1.00D-01 BMatC= 1.30D-01 BMatP= 2.87D-01
 IDIUse=3 WtCom= 8.47D-01 WtEn= 1.53D-01
 Coeff-Com: -0.187D+00 0.581D+00 0.606D+00
 Coeff-En:   0.000D+00 0.000D+00 0.100D+01
 Coeff:     -0.158D+00 0.492D+00 0.666D+00
 Gap=     0.386 Goal=   None    Shift=    0.000
 RMSDP=6.53D-04 MaxDP=5.83D-02 DE=-3.49D-01 OVMax= 7.84D-02

 Cycle   4  Pass 1  IDiag  1:
 RMSU=  3.50D-04    CP:  9.99D-01  1.39D+00  4.29D-01
 E= -2556.18031413981     Delta-E=       -0.067255905455 Rises=F Damp=F
 DIIS: error= 8.80D-03 at cycle   4 NSaved=   4.
 NSaved= 4 IEnMin= 4 EnMin= -2556.18031413981     IErMin= 4 ErrMin= 8.80D-03
 ErrMax= 8.80D-03  0.00D+00 EMaxC= 1.00D-01 BMatC= 3.78D-02 BMatP= 1.30D-01
 IDIUse=3 WtCom= 9.12D-01 WtEn= 8.80D-02
 Coeff-Com: -0.589D-01 0.140D+00 0.387D+00 0.532D+00
 Coeff-En:   0.000D+00 0.000D+00 0.244D+00 0.756D+00
 Coeff:     -0.537D-01 0.127D+00 0.375D+00 0.552D+00
 Gap=     0.379 Goal=   None    Shift=    0.000
 RMSDP=2.73D-04 MaxDP=2.67D-02 DE=-6.73D-02 OVMax= 3.08D-02

 Cycle   5  Pass 1  IDiag  1:
 RMSU=  9.41D-05    CP:  9.98D-01  1.35D+00  6.61D-01  5.53D-01
 E= -2556.20649026473     Delta-E=       -0.026176124923 Rises=F Damp=F
 DIIS: error= 1.39D-03 at cycle   5 NSaved=   5.
 NSaved= 5 IEnMin= 5 EnMin= -2556.20649026473     IErMin= 5 ErrMin= 1.39D-03
 ErrMax= 1.39D-03  0.00D+00 EMaxC= 1.00D-01 BMatC= 1.48D-03 BMatP= 3.78D-02
 IDIUse=3 WtCom= 9.86D-01 WtEn= 1.39D-02
 Coeff-Com: -0.178D-01 0.351D-01 0.167D+00 0.302D+00 0.514D+00
 Coeff-En:   0.000D+00 0.000D+00 0.000D+00 0.000D+00 0.100D+01
 Coeff:     -0.175D-01 0.347D-01 0.165D+00 0.297D+00 0.521D+00
 Gap=     0.377 Goal=   None    Shift=    0.000
 RMSDP=4.67D-05 MaxDP=3.64D-03 DE=-2.62D-02 OVMax= 5.27D-03

 Cycle   6  Pass 1  IDiag  1:
 RMSU=  2.24D-05    CP:  9.98D-01  1.36D+00  6.50D-01  6.11D-01  6.55D-01
 E= -2556.20754192828     Delta-E=       -0.001051663544 Rises=F Damp=F
 DIIS: error= 1.01D-04 at cycle   6 NSaved=   6.
 NSaved= 6 IEnMin= 6 EnMin= -2556.20754192828     IErMin= 6 ErrMin= 1.01D-04
 ErrMax= 1.01D-04  0.00D+00 EMaxC= 1.00D-01 BMatC= 2.25D-05 BMatP= 1.48D-03
 IDIUse=3 WtCom= 9.99D-01 WtEn= 1.01D-03
 Coeff-Com: -0.511D-03-0.367D-03 0.165D-01 0.388D-01 0.135D+00 0.811D+00
 Coeff-En:   0.000D+00 0.000D+00 0.000D+00 0.000D+00 0.000D+00 0.100D+01
 Coeff:     -0.510D-03-0.367D-03 0.165D-01 0.387D-01 0.135D+00 0.811D+00
 Gap=     0.377 Goal=   None    Shift=    0.000
 RMSDP=9.83D-06 MaxDP=5.35D-04 DE=-1.05D-03 OVMax= 7.87D-04

 Cycle   7  Pass 1  IDiag  1:
 RMSU=  7.55D-06    CP:  9.98D-01  1.36D+00  6.54D-01  6.19D-01  6.97D-01
                    CP:  9.69D-01
 E= -2556.20756018702     Delta-E=       -0.000018258738 Rises=F Damp=F
 DIIS: error= 4.18D-05 at cycle   7 NSaved=   7.
 NSaved= 7 IEnMin= 7 EnMin= -2556.20756018702     IErMin= 7 ErrMin= 4.18D-05
 ErrMax= 4.18D-05  0.00D+00 EMaxC= 1.00D-01 BMatC= 5.62D-06 BMatP= 2.25D-05
 IDIUse=1 WtCom= 1.00D+00 WtEn= 0.00D+00
 Coeff-Com:  0.220D-02-0.479D-02-0.144D-01-0.225D-01-0.593D-02 0.370D+00
 Coeff-Com:  0.675D+00
 Coeff:      0.220D-02-0.479D-02-0.144D-01-0.225D-01-0.593D-02 0.370D+00
 Coeff:      0.675D+00
 Gap=     0.377 Goal=   None    Shift=    0.000
 RMSDP=3.80D-06 MaxDP=1.99D-04 DE=-1.83D-05 OVMax= 4.24D-04

 Cycle   8  Pass 1  IDiag  1:
 RMSU=  2.02D-06    CP:  9.98D-01  1.36D+00  6.55D-01  6.19D-01  7.12D-01
                    CP:  1.07D+00  8.08D-01
 E= -2556.20756544397     Delta-E=       -0.000005256958 Rises=F Damp=F
 DIIS: error= 1.01D-05 at cycle   8 NSaved=   8.
 NSaved= 8 IEnMin= 8 EnMin= -2556.20756544397     IErMin= 8 ErrMin= 1.01D-05
 ErrMax= 1.01D-05  0.00D+00 EMaxC= 1.00D-01 BMatC= 1.76D-07 BMatP= 5.62D-06
 IDIUse=1 WtCom= 1.00D+00 WtEn= 0.00D+00
 Coeff-Com:  0.670D-03-0.138D-02-0.495D-02-0.893D-02-0.838D-02 0.560D-01
 Coeff-Com:  0.176D+00 0.791D+00
 Coeff:      0.670D-03-0.138D-02-0.495D-02-0.893D-02-0.838D-02 0.560D-01
 Coeff:      0.176D+00 0.791D+00
 Gap=     0.377 Goal=   None    Shift=    0.000
 RMSDP=9.48D-07 MaxDP=8.08D-05 DE=-5.26D-06 OVMax= 1.24D-04

 Cycle   9  Pass 1  IDiag  1:
 RMSU=  6.41D-07    CP:  9.98D-01  1.36D+00  6.55D-01  6.19D-01  7.15D-01
                    CP:  1.09D+00  8.58D-01  1.10D+00
 E= -2556.20756561999     Delta-E=       -0.000000176015 Rises=F Damp=F
 DIIS: error= 5.72D-06 at cycle   9 NSaved=   9.
 NSaved= 9 IEnMin= 9 EnMin= -2556.20756561999     IErMin= 9 ErrMin= 5.72D-06
 ErrMax= 5.72D-06  0.00D+00 EMaxC= 1.00D-01 BMatC= 4.60D-08 BMatP= 1.76D-07
 IDIUse=1 WtCom= 1.00D+00 WtEn= 0.00D+00
 Coeff-Com: -0.800D-04 0.205D-03 0.329D-03-0.222D-03-0.218D-02-0.382D-01
 Coeff-Com: -0.338D-01 0.364D+00 0.710D+00
 Coeff:     -0.800D-04 0.205D-03 0.329D-03-0.222D-03-0.218D-02-0.382D-01
 Coeff:     -0.338D-01 0.364D+00 0.710D+00
 Gap=     0.377 Goal=   None    Shift=    0.000
 RMSDP=4.21D-07 MaxDP=3.59D-05 DE=-1.76D-07 OVMax= 7.10D-05

 Cycle  10  Pass 1  IDiag  1:
 RMSU=  2.24D-07    CP:  9.98D-01  1.36D+00  6.55D-01  6.19D-01  7.16D-01
                    CP:  1.09D+00  8.78D-01  1.22D+00  9.20D-01
 E= -2556.20756566465     Delta-E=       -0.000000044656 Rises=F Damp=F
 DIIS: error= 1.00D-06 at cycle  10 NSaved=  10.
 NSaved=10 IEnMin=10 EnMin= -2556.20756566465     IErMin=10 ErrMin= 1.00D-06
 ErrMax= 1.00D-06  0.00D+00 EMaxC= 1.00D-01 BMatC= 2.17D-09 BMatP= 4.60D-08
 IDIUse=1 WtCom= 1.00D+00 WtEn= 0.00D+00
 Coeff-Com: -0.724D-04 0.159D-03 0.491D-03 0.623D-03 0.325D-03-0.140D-01
 Coeff-Com: -0.220D-01 0.266D-01 0.191D+00 0.817D+00
 Coeff:     -0.724D-04 0.159D-03 0.491D-03 0.623D-03 0.325D-03-0.140D-01
 Coeff:     -0.220D-01 0.266D-01 0.191D+00 0.817D+00
 Gap=     0.377 Goal=   None    Shift=    0.000
 RMSDP=1.22D-07 MaxDP=1.04D-05 DE=-4.47D-08 OVMax= 2.02D-05

 Cycle  11  Pass 1  IDiag  1:
 RMSU=  6.67D-08    CP:  9.98D-01  1.36D+00  6.55D-01  6.19D-01  7.17D-01
                    CP:  1.09D+00  8.82D-01  1.25D+00  1.00D+00  1.04D+00
 E= -2556.20756566716     Delta-E=       -0.000000002517 Rises=F Damp=F
 DIIS: error= 8.94D-07 at cycle  11 NSaved=  11.
 NSaved=11 IEnMin=11 EnMin= -2556.20756566716     IErMin=11 ErrMin= 8.94D-07
 ErrMax= 8.94D-07  0.00D+00 EMaxC= 1.00D-01 BMatC= 4.33D-10 BMatP= 2.17D-09
 IDIUse=1 WtCom= 1.00D+00 WtEn= 0.00D+00
 Coeff-Com: -0.266D-04 0.561D-04 0.203D-03 0.305D-03 0.378D-03-0.331D-02
 Coeff-Com: -0.752D-02-0.233D-01 0.222D-01 0.362D+00 0.649D+00
 Coeff:     -0.266D-04 0.561D-04 0.203D-03 0.305D-03 0.378D-03-0.331D-02
 Coeff:     -0.752D-02-0.233D-01 0.222D-01 0.362D+00 0.649D+00
 Gap=     0.377 Goal=   None    Shift=    0.000
 RMSDP=3.88D-08 MaxDP=4.93D-06 DE=-2.52D-09 OVMax= 5.49D-06

 Cycle  12  Pass 1  IDiag  1:
 RMSU=  2.28D-08    CP:  9.98D-01  1.36D+00  6.55D-01  6.19D-01  7.17D-01
                    CP:  1.09D+00  8.83D-01  1.25D+00  1.02D+00  1.12D+00
                    CP:  8.66D-01
 E= -2556.20756566731     Delta-E=       -0.000000000144 Rises=F Damp=F
 DIIS: error= 2.16D-07 at cycle  12 NSaved=  12.
 NSaved=12 IEnMin=12 EnMin= -2556.20756566731     IErMin=12 ErrMin= 2.16D-07
 ErrMax= 2.16D-07  0.00D+00 EMaxC= 1.00D-01 BMatC= 4.37D-11 BMatP= 4.33D-10
 IDIUse=1 WtCom= 1.00D+00 WtEn= 0.00D+00
 Coeff-Com: -0.636D-06 0.392D-06 0.184D-04 0.368D-04 0.140D-03 0.630D-03
 Coeff-Com:  0.128D-03-0.125D-01-0.157D-01 0.282D-01 0.244D+00 0.755D+00
 Coeff:     -0.636D-06 0.392D-06 0.184D-04 0.368D-04 0.140D-03 0.630D-03
 Coeff:      0.128D-03-0.125D-01-0.157D-01 0.282D-01 0.244D+00 0.755D+00
 Gap=     0.377 Goal=   None    Shift=    0.000
 RMSDP=1.45D-08 MaxDP=1.35D-06 DE=-1.44D-10 OVMax= 1.92D-06

 Cycle  13  Pass 1  IDiag  1:
 RMSU=  8.27D-09    CP:  9.98D-01  1.36D+00  6.55D-01  6.19D-01  7.17D-01
                    CP:  1.09D+00  8.84D-01  1.26D+00  1.03D+00  1.14D+00
                    CP:  9.62D-01  8.68D-01
 E= -2556.20756566748     Delta-E=       -0.000000000171 Rises=F Damp=F
 DIIS: error= 1.76D-07 at cycle  13 NSaved=  13.
 NSaved=13 IEnMin=13 EnMin= -2556.20756566748     IErMin=13 ErrMin= 1.76D-07
 ErrMax= 1.76D-07  0.00D+00 EMaxC= 1.00D-01 BMatC= 8.86D-12 BMatP= 4.37D-11
 IDIUse=1 WtCom= 1.00D+00 WtEn= 0.00D+00
 Coeff-Com:  0.259D-05-0.593D-05-0.117D-04-0.155D-04 0.375D-04 0.675D-03
 Coeff-Com:  0.892D-03-0.361D-02-0.972D-02-0.246D-01 0.507D-01 0.382D+00
 Coeff-Com:  0.603D+00
 Coeff:      0.259D-05-0.593D-05-0.117D-04-0.155D-04 0.375D-04 0.675D-03
 Coeff:      0.892D-03-0.361D-02-0.972D-02-0.246D-01 0.507D-01 0.382D+00
 Coeff:      0.603D+00
 Gap=     0.377 Goal=   None    Shift=    0.000
 RMSDP=4.66D-09 MaxDP=4.79D-07 DE=-1.71D-10 OVMax= 5.32D-07

 Error on total polarization charges =  0.00396
 SCF Done:  E(RCAM-B3LYP) =  -2556.20756567     A.U. after   13 cycles
            NFock= 13  Conv=0.47D-08     -V/T= 2.0077
 KE= 2.536737840384D+03 PE=-1.539962905719D+04 EE= 5.621755545890D+03
 Leave Link  502 at Sun Feb  2 08:09:39 2025, MaxMem=  5368709120 cpu:      1224.3
 (Enter /home/k0335/k033513/app/g09/l601.exe)
 Copying SCF densities to generalized density rwf, IOpCl= 0 IROHF=0.

 **********************************************************************

            Population analysis using the SCF density.

 **********************************************************************

 Alpha  occ. eigenvalues --  -24.83349 -24.83208 -24.82865 -24.82753 -24.82648
 Alpha  occ. eigenvalues --  -24.82639 -24.82552 -24.82470 -24.81984 -24.81888
 Alpha  occ. eigenvalues --  -24.80861 -24.80647 -24.80411 -24.80321 -19.32276
 Alpha  occ. eigenvalues --  -19.32050 -19.21863 -19.21861 -19.21799 -14.48686
 Alpha  occ. eigenvalues --  -14.48503 -14.48496 -10.59047 -10.58864 -10.52415
 Alpha  occ. eigenvalues --  -10.52395 -10.46065 -10.46064 -10.43038 -10.43035
 Alpha  occ. eigenvalues --  -10.43021 -10.30845 -10.30831 -10.30254 -10.28728
 Alpha  occ. eigenvalues --  -10.28668 -10.27581 -10.27530  -1.42643  -1.42526
 Alpha  occ. eigenvalues --   -1.38732  -1.38708  -1.35684  -1.35599  -1.33100
 Alpha  occ. eigenvalues --   -1.32980  -1.32352  -1.32259  -1.31645  -1.31526
 Alpha  occ. eigenvalues --   -1.29613  -1.29487  -1.20412  -1.20314  -1.19773
 Alpha  occ. eigenvalues --   -1.15070  -1.15068  -1.06632  -1.04020  -1.04002
 Alpha  occ. eigenvalues --   -0.91667  -0.91390  -0.88224  -0.87452  -0.83803
 Alpha  occ. eigenvalues --   -0.82220  -0.81633  -0.79153  -0.78794  -0.75994
 Alpha  occ. eigenvalues --   -0.75566  -0.73511  -0.73312  -0.71536  -0.71281
 Alpha  occ. eigenvalues --   -0.71133  -0.70436  -0.70279  -0.69881  -0.69738
 Alpha  occ. eigenvalues --   -0.69324  -0.68758  -0.67172  -0.66663  -0.66442
 Alpha  occ. eigenvalues --   -0.66359  -0.63612  -0.63359  -0.61858  -0.60922
 Alpha  occ. eigenvalues --   -0.60663  -0.60409  -0.60002  -0.59205  -0.57045
 Alpha  occ. eigenvalues --   -0.56960  -0.56477  -0.56070  -0.55758  -0.55610
 Alpha  occ. eigenvalues --   -0.55130  -0.54823  -0.54276  -0.54197  -0.53901
 Alpha  occ. eigenvalues --   -0.53812  -0.53786  -0.53354  -0.52914  -0.52425
 Alpha  occ. eigenvalues --   -0.52290  -0.51882  -0.51720  -0.51570  -0.51385
 Alpha  occ. eigenvalues --   -0.51221  -0.50942  -0.50611  -0.50423  -0.50275
 Alpha  occ. eigenvalues --   -0.49944  -0.49636  -0.49415  -0.49283  -0.49140
 Alpha  occ. eigenvalues --   -0.48945  -0.48738  -0.48265  -0.48059  -0.47514
 Alpha  occ. eigenvalues --   -0.47319  -0.46992  -0.46779  -0.45649  -0.45533
 Alpha  occ. eigenvalues --   -0.45021  -0.44986  -0.44034  -0.43688  -0.42145
 Alpha  occ. eigenvalues --   -0.41843  -0.40593  -0.40383  -0.38091  -0.37971
 Alpha  occ. eigenvalues --   -0.35623  -0.34197  -0.34190  -0.34056
 Alpha virt. eigenvalues --    0.03622   0.03692   0.11508   0.11721   0.12068
 Alpha virt. eigenvalues --    0.12333   0.14049   0.14812   0.15514   0.16504
 Alpha virt. eigenvalues --    0.16996   0.17592   0.17894   0.18747   0.19209
 Alpha virt. eigenvalues --    0.19586   0.19820   0.19945   0.20242   0.20800
 Alpha virt. eigenvalues --    0.20902   0.21370   0.21569   0.22123   0.22707
 Alpha virt. eigenvalues --    0.23017   0.23161   0.23397   0.23531   0.24167
 Alpha virt. eigenvalues --    0.24922   0.24990   0.25285   0.25762   0.26182
 Alpha virt. eigenvalues --    0.26619   0.27136   0.28012   0.28629   0.29104
 Alpha virt. eigenvalues --    0.29388   0.29744   0.30185   0.30318   0.31363
 Alpha virt. eigenvalues --    0.31593   0.32825   0.33032   0.33661   0.34080
 Alpha virt. eigenvalues --    0.36090   0.37132   0.38049   0.41639   0.42057
 Alpha virt. eigenvalues --    0.49165   0.50833   0.50940   0.51191   0.52091
 Alpha virt. eigenvalues --    0.52889   0.53181   0.53473   0.54120   0.54465
 Alpha virt. eigenvalues --    0.54700   0.55840   0.56390   0.56752   0.57404
 Alpha virt. eigenvalues --    0.57683   0.57766   0.58647   0.59419   0.59988
 Alpha virt. eigenvalues --    0.60170   0.60457   0.60768   0.61934   0.62841
 Alpha virt. eigenvalues --    0.63658   0.64031   0.64668   0.64807   0.65827
 Alpha virt. eigenvalues --    0.66030   0.67583   0.67845   0.70007   0.70762
 Alpha virt. eigenvalues --    0.71729   0.72313   0.72650   0.73165   0.75349
 Alpha virt. eigenvalues --    0.76300   0.76980   0.78837   0.79020   0.80966
 Alpha virt. eigenvalues --    0.81695   0.83346   0.83622   0.84232   0.85600
 Alpha virt. eigenvalues --    0.85948   0.86518   0.87392   0.88613   0.89055
 Alpha virt. eigenvalues --    0.90370   0.90502   0.91417   0.92012   0.92134
 Alpha virt. eigenvalues --    0.93255   0.93505   0.93996   0.94322   0.94495
 Alpha virt. eigenvalues --    0.95434   0.96106   0.96379   0.97365   0.97510
 Alpha virt. eigenvalues --    0.98051   0.98317   0.98846   0.99526   1.00091
 Alpha virt. eigenvalues --    1.00324   1.00943   1.02241   1.03452   1.04184
 Alpha virt. eigenvalues --    1.04421   1.06633   1.08062   1.08168   1.09357
 Alpha virt. eigenvalues --    1.09698   1.10026   1.11046   1.12099   1.12457
 Alpha virt. eigenvalues --    1.13233   1.13625   1.14425   1.14948   1.15023
 Alpha virt. eigenvalues --    1.16512   1.16778   1.17267   1.17607   1.18260
 Alpha virt. eigenvalues --    1.18893   1.19873   1.20811   1.21367   1.22025
 Alpha virt. eigenvalues --    1.22708   1.23112   1.23561   1.23850   1.24840
 Alpha virt. eigenvalues --    1.26666   1.26935   1.27527   1.28229   1.30114
 Alpha virt. eigenvalues --    1.30581   1.31424   1.31888   1.32708   1.33399
 Alpha virt. eigenvalues --    1.34274   1.35241   1.36011   1.36959   1.37311
 Alpha virt. eigenvalues --    1.37482   1.38036   1.38394   1.38844   1.39784
 Alpha virt. eigenvalues --    1.39831   1.40158   1.40662   1.40909   1.41167
 Alpha virt. eigenvalues --    1.41683   1.41945   1.42544   1.42882   1.43391
 Alpha virt. eigenvalues --    1.43962   1.44167   1.44601   1.44921   1.45131
 Alpha virt. eigenvalues --    1.45682   1.46176   1.47145   1.48298   1.48728
 Alpha virt. eigenvalues --    1.50693   1.51881   1.53067   1.54214   1.54545
 Alpha virt. eigenvalues --    1.54612   1.55345   1.56074   1.56136   1.57043
 Alpha virt. eigenvalues --    1.58222   1.58584   1.58778   1.59869   1.60194
 Alpha virt. eigenvalues --    1.62148   1.63637   1.64293   1.67156   1.68468
 Alpha virt. eigenvalues --    1.69424   1.69853   1.70410   1.71258   1.71626
 Alpha virt. eigenvalues --    1.72747   1.73145   1.73347   1.74106   1.74959
 Alpha virt. eigenvalues --    1.74995   1.75392   1.78310   1.78967   1.79294
 Alpha virt. eigenvalues --    1.80030   1.80572   1.81264   1.82242   1.82927
 Alpha virt. eigenvalues --    1.83108   1.84542   1.84707   1.85282   1.85539
 Alpha virt. eigenvalues --    1.85720   1.86245   1.86577   1.87238   1.87691
 Alpha virt. eigenvalues --    1.88098   1.88744   1.88903   1.89168   1.89608
 Alpha virt. eigenvalues --    1.89920   1.90135   1.90502   1.90820   1.91738
 Alpha virt. eigenvalues --    1.92022   1.92670   1.93152   1.93241   1.93548
 Alpha virt. eigenvalues --    1.94066   1.94678   1.95456   1.96183   1.96428
 Alpha virt. eigenvalues --    1.96921   1.97367   1.97709   1.98063   1.98138
 Alpha virt. eigenvalues --    1.98943   1.99052   1.99599   2.00039   2.00656
 Alpha virt. eigenvalues --    2.00932   2.01787   2.01876   2.02398   2.02656
 Alpha virt. eigenvalues --    2.02762   2.03045   2.03612   2.03785   2.04262
 Alpha virt. eigenvalues --    2.04597   2.05132   2.05484   2.06331   2.06838
 Alpha virt. eigenvalues --    2.07118   2.07655   2.07862   2.08389   2.09123
 Alpha virt. eigenvalues --    2.09725   2.09935   2.09977   2.10447   2.10554
 Alpha virt. eigenvalues --    2.11688   2.12079   2.12835   2.13899   2.14563
 Alpha virt. eigenvalues --    2.15599   2.16620   2.17458   2.18097   2.18797
 Alpha virt. eigenvalues --    2.19276   2.19865   2.20244   2.20800   2.21391
 Alpha virt. eigenvalues --    2.22857   2.23387   2.23894   2.24054   2.25651
 Alpha virt. eigenvalues --    2.26797   2.26928   2.29686   2.30699   2.32116
 Alpha virt. eigenvalues --    2.32355   2.33537   2.33793   2.34436   2.34957
 Alpha virt. eigenvalues --    2.35087   2.35312   2.36149   2.37682   2.37768
 Alpha virt. eigenvalues --    2.38333   2.40105   2.40122   2.40832   2.41573
 Alpha virt. eigenvalues --    2.42062   2.42488   2.43555   2.44060   2.44421
 Alpha virt. eigenvalues --    2.45486   2.46497   2.48453   2.49041   2.49694
 Alpha virt. eigenvalues --    2.50111   2.51712   2.52346   2.52914   2.54142
 Alpha virt. eigenvalues --    2.55025   2.56858   2.57590   2.59369   2.60034
 Alpha virt. eigenvalues --    2.60613   2.61760   2.63429   2.63805   2.64652
 Alpha virt. eigenvalues --    2.65181   2.67213   2.68504   2.68820   2.70788
 Alpha virt. eigenvalues --    2.71808   2.72810   2.73923   2.74819   2.75184
 Alpha virt. eigenvalues --    2.75979   2.76314   2.77189   2.77997   2.78600
 Alpha virt. eigenvalues --    2.79027   2.79360   2.80837   2.81574   2.81910
 Alpha virt. eigenvalues --    2.82892   2.85067   2.85744   2.86370   2.86693
 Alpha virt. eigenvalues --    2.87994   2.89331   2.89775   2.90995   2.92540
 Alpha virt. eigenvalues --    2.92907   2.93289   2.94074   2.95317   2.95596
 Alpha virt. eigenvalues --    2.96391   2.96923   2.98098   2.98379   2.98585
 Alpha virt. eigenvalues --    2.98894   2.99257   2.99922   3.00323   3.03959
 Alpha virt. eigenvalues --    3.04308   3.05115   3.05749   3.06328   3.06476
 Alpha virt. eigenvalues --    3.07501   3.08097   3.10007   3.13188   3.14813
 Alpha virt. eigenvalues --    3.16743   3.17468   3.17881   3.20758   3.20917
 Alpha virt. eigenvalues --    3.21995   3.22235   3.23742   3.24054   3.25523
 Alpha virt. eigenvalues --    3.25917   3.26553   3.31507   3.32568   3.37648
 Alpha virt. eigenvalues --    3.38184   3.41603   3.43325   3.44337   3.48383
 Alpha virt. eigenvalues --    3.48953   3.49626   3.52771   3.56763   3.57547
 Alpha virt. eigenvalues --    3.59622   3.62970   3.63216   4.07131   4.13012
 Alpha virt. eigenvalues --    4.13583   4.14313   4.16536   4.24316   4.25817
 Alpha virt. eigenvalues --    4.27484   4.30771   4.35530   4.39615   4.40550
 Alpha virt. eigenvalues --    4.41857   4.45013   4.48002   4.49402   4.50482
 Alpha virt. eigenvalues --    4.52442   4.57655   4.59516   4.67262   4.70586
 Alpha virt. eigenvalues --    4.70958   4.75852   4.78242   4.78295   4.83563
 Alpha virt. eigenvalues --    4.85926   4.97293   4.99542   5.18340   5.23993
 Alpha virt. eigenvalues --    5.40373   5.45948   6.05657   6.05805   6.44112
 Alpha virt. eigenvalues --    6.59102
          Condensed to atoms (all electrons):
 Mulliken charges:
               1
     1  C   -0.180162
     2  N   -0.554323
     3  C    0.812043
     4  O   -0.537171
     5  N   -0.566917
     6  C   -0.053981
     7  C   -0.204569
     8  C   -0.267051
     9  C    0.547731
    10  F   -0.281528
    11  F   -0.278756
    12  C    0.762604
    13  F   -0.266540
    14  F   -0.267006
    15  O   -0.514806
    16  C    0.989860
    17  F   -0.244974
    18  F   -0.245125
    19  F   -0.248797
    20  C    0.814334
    21  O   -0.533591
    22  N   -0.566893
    23  C   -0.054143
    24  C   -0.205299
    25  C   -0.265318
    26  C    0.543466
    27  F   -0.281791
    28  F   -0.279312
    29  C    0.774565
    30  F   -0.268072
    31  F   -0.265144
    32  O   -0.516820
    33  C    0.987151
    34  F   -0.247920
    35  F   -0.246782
    36  F   -0.247973
    37  C    0.812262
    38  O   -0.537358
    39  H    0.157032
    40  H    0.157004
    41  H    0.149152
    42  H    0.152451
    43  H    0.145431
    44  H    0.129085
    45  H    0.135988
    46  H    0.150437
    47  H    0.147021
    48  H    0.152780
    49  H    0.145590
    50  H    0.136227
    51  H    0.129661
    52  H    0.148422
    53  H    0.147826
 Sum of Mulliken charges =   0.00000
 Mulliken charges with hydrogens summed into heavy atoms:
               1
     1  C    0.283025
     2  N   -0.554323
     3  C    0.812043
     4  O   -0.537171
     5  N   -0.566917
     6  C    0.243901
     7  C    0.060504
     8  C    0.030408
     9  C    0.547731
    10  F   -0.281528
    11  F   -0.278756
    12  C    0.762604
    13  F   -0.266540
    14  F   -0.267006
    15  O   -0.514806
    16  C    0.989860
    17  F   -0.244974
    18  F   -0.245125
    19  F   -0.248797
    20  C    0.814334
    21  O   -0.533591
    22  N   -0.566893
    23  C    0.244227
    24  C    0.060588
    25  C    0.030930
    26  C    0.543466
    27  F   -0.281791
    28  F   -0.279312
    29  C    0.774565
    30  F   -0.268072
    31  F   -0.265144
    32  O   -0.516820
    33  C    0.987151
    34  F   -0.247920
    35  F   -0.246782
    36  F   -0.247973
    37  C    0.812262
    38  O   -0.537358
 Electronic spatial extent (au):  <R**2>=          37732.4174
 Charge=              0.0000 electrons
 Dipole moment (field-independent basis, Debye):
    X=             -0.3608    Y=              2.6976    Z=              2.9810  Tot=              4.0366
 Quadrupole moment (field-independent basis, Debye-Ang):
   XX=           -225.8781   YY=           -211.6449   ZZ=           -206.6950
   XY=              0.5687   XZ=              0.2255   YZ=             -6.1423
 Traceless Quadrupole moment (field-independent basis, Debye-Ang):
   XX=            -11.1387   YY=              3.0944   ZZ=              8.0443
   XY=              0.5687   XZ=              0.2255   YZ=             -6.1423
 Octapole moment (field-independent basis, Debye-Ang**2):
  XXX=            -41.3262  YYY=            218.2702  ZZZ=            149.5067  XYY=             -5.6904
  XXY=             85.1938  XXZ=             92.5166  XZZ=             -2.1646  YZZ=             67.5011
  YYZ=             47.7711  XYZ=             -4.9757
 Hexadecapole moment (field-independent basis, Debye-Ang**3):
 XXXX=         -33323.6755 YYYY=          -6738.3696 ZZZZ=          -1407.7874 XXXY=           -308.6762
 XXXZ=           -385.5110 YYYX=           -390.3188 YYYZ=           -773.6534 ZZZX=           -420.0408
 ZZZY=           -795.1761 XXYY=          -6904.1758 XXZZ=          -5689.4499 YYZZ=          -1392.6580
 XXYZ=           -384.5718 YYXZ=           -149.1514 ZZXY=           -136.0236
 N-N= 4.684928105246D+03 E-N=-1.539962904584D+04  KE= 2.536737840384D+03
 No NMR shielding tensors so no spin-rotation constants.
 Leave Link  601 at Sun Feb  2 08:09:40 2025, MaxMem=  5368709120 cpu:         5.1
 (Enter /home/k0335/k033513/app/g09/l9999.exe)
 1\1\GINC-C18U03N3\SP\RCAM-B3LYP\6-31G(d,p)\C16H15F14N3O5\K033513\02-Fe
 b-2025\0\\#p CAM-B3LYP/6-31G(d,p) SCRF=(PCM,Solvent=Generic,Read) NoSy
 mm out=wfn\\Title LDAI1C1_neu\\0,1\C,0,-0.224883,4.918059,1.518237\N,0
 ,-0.14131,3.658825,0.799988\C,0,-1.318143,3.03536,0.448339\O,0,-2.4188
 4,3.499538,0.755629\N,0,-1.19816,1.84293,-0.234476\C,0,-2.424505,1.158
 87,-0.6441\C,0,-2.957186,0.240693,0.462611\C,0,-4.395404,-0.24537,0.24
 0271\C,0,-4.591567,-1.064303,-1.034539\F,0,-3.668368,-2.065462,-1.0566
 86\F,0,-4.325854,-0.274478,-2.111838\C,0,-6.011518,-1.653836,-1.155669
 \F,0,-6.921035,-0.645127,-1.176047\F,0,-6.140142,-2.338855,-2.317183\O
 ,0,-6.331,-2.489043,-0.067197\C,0,-7.43506,-3.2811,-0.398855\F,0,-8.41
 2911,-2.568838,-0.985762\F,0,-7.058137,-4.295913,-1.198019\F,0,-7.9269
 82,-3.808516,0.742514\C,0,0.003475,1.188902,-0.40845\O,0,0.060504,0.04
 4997,-0.86407\N,0,1.134687,1.869858,-0.010129\C,0,2.431829,1.214657,-0
 .176472\C,0,2.76609,0.310099,1.01586\C,0,4.2288,-0.149256,1.065713\C,0
 ,4.671424,-0.966662,-0.144919\F,0,3.781139,-1.975981,-0.346849\F,0,4.6
 15409,-0.179205,-1.255756\C,0,6.095197,-1.532267,0.021658\F,0,6.973351
 ,-0.517462,0.222996\F,0,6.148471,-2.328792,1.120147\O,0,6.491523,-2.29
 6399,-1.091305\C,0,7.876391,-2.473538,-1.066715\F,0,8.494966,-1.352938
 ,-1.485307\F,0,8.324487,-2.812114,0.15572\F,0,8.191743,-3.469079,-1.92
 1768\C,0,1.09532,3.06448,0.678272\O,0,2.107122,3.555339,1.184939\H,0,0
 .675459,5.519343,1.360055\H,0,-1.094159,5.497389,1.192801\H,0,-0.32310
 2,4.6994,2.586383\H,0,-2.216838,0.577917,-1.549371\H,0,-3.180352,1.908
 396,-0.906591\H,0,-2.929838,0.77111,1.423037\H,0,-2.289577,-0.622227,0
 .576305\H,0,-4.671305,-0.851657,1.111092\H,0,-5.063543,0.623867,0.2210
 9\H,0,2.413489,0.628412,-1.101759\H,0,3.206378,1.981552,-0.294652\H,0,
 2.104553,-0.564883,1.009355\H,0,2.551781,0.842712,1.951186\H,0,4.87304
 4,0.732251,1.166974\H,0,4.353087,-0.752118,1.973311\\Version=ES64L-G09
 RevD.01\HF=-2556.2075657\RMSD=4.659e-09\Dipole=-0.1419512,1.061329,1.1
 728168\Quadrupole=-8.2813796,2.3006251,5.9807545,0.4228314,0.1676716,-
 4.5666557\PG=C01 [X(C16H15F14N3O5)]\\@

 Writing a WFN file to "wang5/LDAI1C1/LDAI1C1_neu.wfn"


 ASKING FOR EFFICIENCY AND ADAPTABILITY IN THE SAME PROGRAM IS LIKE
 ASKING FOR A BEAUTIFUL AND MODEST WIFE ...
 WE'LL PROBABLY HAVE TO SETTLE FOR ONE OR THE OTHER.

             -- THE PSYCHOLOGY OF COMPUTER PROGRAMMING
                GERALD M. WEINBERG
 Job cpu time:       0 days  0 hours 21 minutes  8.9 seconds.
 File lengths (MBytes):  RWF=    514 Int=      0 D2E=      0 Chk=     17 Scr=      1
 Normal termination of Gaussian 09 at Sun Feb  2 08:09:40 2025.
