 Entering Gaussian System, Link 0=g09
 Initial command:
 /home/k0335/k033513/app/g09/l1.exe "/home/k0335/k033513/app/g09/scratch/Gau-439001.inp" -scrdir="/home/k0335/k033513/app/g09/scratch/"
 Default is to use a total of  36 processors:
                               36 via shared-memory
                                1 via Linda
 Entering Link 1 = /home/k0335/k033513/app/g09/l1.exe PID=    439002.
  
 Copyright (c) 1988,1990,1992,1993,1995,1998,2003,2009,2013,
            Gaussian, Inc.  All Rights Reserved.
  
 This is part of the Gaussian(R) 09 program.  It is based on
 the Gaussian(R) 03 system (copyright 2003, Gaussian, Inc.),
 the Gaussian(R) 98 system (copyright 1998, Gaussian, Inc.),
 the Gaussian(R) 94 system (copyright 1995, Gaussian, Inc.),
 the Gaussian 92(TM) system (copyright 1992, Gaussian, Inc.),
 the Gaussian 90(TM) system (copyright 1990, Gaussian, Inc.),
 the Gaussian 88(TM) system (copyright 1988, Gaussian, Inc.),
 the Gaussian 86(TM) system (copyright 1986, Carnegie Mellon
 University), and the Gaussian 82(TM) system (copyright 1983,
 Carnegie Mellon University). Gaussian is a federally registered
 trademark of Gaussian, Inc.
  
 This software contains proprietary and confidential information,
 including trade secrets, belonging to Gaussian, Inc.
  
 This software is provided under written license and may be
 used, copied, transmitted, or stored only in accord with that
 written license.
  
 The following legend is applicable only to US Government
 contracts under FAR:
  
                    RESTRICTED RIGHTS LEGEND
  
 Use, reproduction and disclosure by the US Government is
 subject to restrictions as set forth in subparagraphs (a)
 and (c) of the Commercial Computer Software - Restricted
 Rights clause in FAR 52.227-19.
  
 Gaussian, Inc.
 340 Quinnipiac St., Bldg. 40, Wallingford CT 06492
  
  
 ---------------------------------------------------------------
 Warning -- This program may not be used in any manner that
 competes with the business of Gaussian, Inc. or will provide
 assistance to any competitor of Gaussian, Inc.  The licensee
 of this program is prohibited from giving any competitor of
 Gaussian, Inc. access to this program.  By using this program,
 the user acknowledges that Gaussian, Inc. is engaged in the
 business of creating and licensing software in the field of
 computational chemistry and represents and warrants to the
 licensee that it is not a competitor of Gaussian, Inc. and that
 it will not use this program in any manner prohibited above.
 ---------------------------------------------------------------
  

 Cite this work as:
 Gaussian 09, Revision D.01,
 M. J. Frisch, G. W. Trucks, H. B. Schlegel, G. E. Scuseria, 
 M. A. Robb, J. R. Cheeseman, G. Scalmani, V. Barone, B. Mennucci, 
 G. A. Petersson, H. Nakatsuji, M. Caricato, X. Li, H. P. Hratchian, 
 A. F. Izmaylov, J. Bloino, G. Zheng, J. L. Sonnenberg, M. Hada, 
 M. Ehara, K. Toyota, R. Fukuda, J. Hasegawa, M. Ishida, T. Nakajima, 
 Y. Honda, O. Kitao, H. Nakai, T. Vreven, J. A. Montgomery, Jr., 
 J. E. Peralta, F. Ogliaro, M. Bearpark, J. J. Heyd, E. Brothers, 
 K. N. Kudin, V. N. Staroverov, T. Keith, R. Kobayashi, J. Normand, 
 K. Raghavachari, A. Rendell, J. C. Burant, S. S. Iyengar, J. Tomasi, 
 M. Cossi, N. Rega, J. M. Millam, M. Klene, J. E. Knox, J. B. Cross, 
 V. Bakken, C. Adamo, J. Jaramillo, R. Gomperts, R. E. Stratmann, 
 O. Yazyev, A. J. Austin, R. Cammi, C. Pomelli, J. W. Ochterski, 
 R. L. Martin, K. Morokuma, V. G. Zakrzewski, G. A. Voth, 
 P. Salvador, J. J. Dannenberg, S. Dapprich, A. D. Daniels, 
 O. Farkas, J. B. Foresman, J. V. Ortiz, J. Cioslowski, 
 and D. J. Fox, Gaussian, Inc., Wallingford CT, 2013.
 
 ******************************************
 Gaussian 09:  ES64L-G09RevD.01 24-Apr-2013
                 2-Feb-2025 
 ******************************************
 %nprocshared=24
 Will use up to   24 processors via shared memory.
 %mem=40GB
 %rwf=wang5/LDAI1C1/LDAI1C1_pos.rwf
 %nosave
 %chk=wang5/LDAI1C1/LDAI1C1_pos.chk
 ----------------------------------------------------------------------
 #p CAM-B3LYP/6-31G(d,p) SCRF=(PCM,Solvent=Generic,Read) NoSymm out=wfn
 ----------------------------------------------------------------------
 1/38=1,40=2/1;
 2/12=2,15=1,17=6,18=5,40=1/2;
 3/5=1,6=6,7=101,11=2,16=1,25=1,30=1,70=2203,72=-2,74=-40/1,2,3;
 4//1;
 5/5=2,38=5/2;
 6/7=2,8=2,9=2,10=2,28=1/1;
 99/5=1,6=100,9=1/99;
 Leave Link    1 at Sun Feb  2 08:10:41 2025, MaxMem=  5368709120 cpu:         0.8
 (Enter /home/k0335/k033513/app/g09/l101.exe)
 -----------------
 Title LDAI1C1_pos
 -----------------
 Symbolic Z-matrix:
 Charge =  1 Multiplicity = 2
 C                    -0.22488   4.91806   1.51824 
 N                    -0.14131   3.65883   0.79999 
 C                    -1.31814   3.03536   0.44834 
 O                    -2.41884   3.49954   0.75563 
 N                    -1.19816   1.84293  -0.23448 
 C                    -2.42451   1.15887  -0.6441 
 C                    -2.95719   0.24069   0.46261 
 C                    -4.3954   -0.24537   0.24027 
 C                    -4.59157  -1.0643   -1.03454 
 F                    -3.66837  -2.06546  -1.05669 
 F                    -4.32585  -0.27448  -2.11184 
 C                    -6.01152  -1.65384  -1.15567 
 F                    -6.92104  -0.64513  -1.17605 
 F                    -6.14014  -2.33886  -2.31718 
 O                    -6.331    -2.48904  -0.0672 
 C                    -7.43506  -3.2811   -0.39886 
 F                    -8.41291  -2.56884  -0.98576 
 F                    -7.05814  -4.29591  -1.19802 
 F                    -7.92698  -3.80852   0.74251 
 C                     0.00348   1.1889   -0.40845 
 O                     0.0605    0.045    -0.86407 
 N                     1.13469   1.86986  -0.01013 
 C                     2.43183   1.21466  -0.17647 
 C                     2.76609   0.3101    1.01586 
 C                     4.2288   -0.14926   1.06571 
 C                     4.67142  -0.96666  -0.14492 
 F                     3.78114  -1.97598  -0.34685 
 F                     4.61541  -0.17921  -1.25576 
 C                     6.0952   -1.53227   0.02166 
 F                     6.97335  -0.51746   0.223 
 F                     6.14847  -2.32879   1.12015 
 O                     6.49152  -2.2964   -1.0913 
 C                     7.87639  -2.47354  -1.06672 
 F                     8.49497  -1.35294  -1.48531 
 F                     8.32449  -2.81211   0.15572 
 F                     8.19174  -3.46908  -1.92177 
 C                     1.09532   3.06448   0.67827 
 O                     2.10712   3.55534   1.18494 
 H                     0.67546   5.51934   1.36006 
 H                    -1.09416   5.49739   1.1928 
 H                    -0.3231    4.6994    2.58638 
 H                    -2.21684   0.57792  -1.54937 
 H                    -3.18035   1.9084   -0.90659 
 H                    -2.92984   0.77111   1.42304 
 H                    -2.28958  -0.62223   0.57631 
 H                    -4.67131  -0.85166   1.11109 
 H                    -5.06354   0.62387   0.22109 
 H                     2.41349   0.62841  -1.10176 
 H                     3.20638   1.98155  -0.29465 
 H                     2.10455  -0.56488   1.00936 
 H                     2.55178   0.84271   1.95119 
 H                     4.87304   0.73225   1.16697 
 H                     4.35309  -0.75212   1.97331 
 
 NAtoms=     53 NQM=       53 NQMF=       0 NMMI=      0 NMMIF=      0
                NMic=       0 NMicF=      0.
                    Isotopes and Nuclear Properties:
 (Nuclear quadrupole moments (NQMom) in fm**2, nuclear magnetic moments (NMagM)
  in nuclear magnetons)

  Atom         1           2           3           4           5           6           7           8           9          10
 IAtWgt=          12          14          12          16          14          12          12          12          12          19
 AtmWgt=  12.0000000  14.0030740  12.0000000  15.9949146  14.0030740  12.0000000  12.0000000  12.0000000  12.0000000  18.9984033
 NucSpn=           0           2           0           0           2           0           0           0           0           1
 AtZEff=   0.0000000   0.0000000   0.0000000   0.0000000   0.0000000   0.0000000   0.0000000   0.0000000   0.0000000   0.0000000
 NQMom=    0.0000000   2.0440000   0.0000000   0.0000000   2.0440000   0.0000000   0.0000000   0.0000000   0.0000000   0.0000000
 NMagM=    0.0000000   0.4037610   0.0000000   0.0000000   0.4037610   0.0000000   0.0000000   0.0000000   0.0000000   2.6288670
 AtZNuc=   6.0000000   7.0000000   6.0000000   8.0000000   7.0000000   6.0000000   6.0000000   6.0000000   6.0000000   9.0000000

  Atom        11          12          13          14          15          16          17          18          19          20
 IAtWgt=          19          12          19          19          16          12          19          19          19          12
 AtmWgt=  18.9984033  12.0000000  18.9984033  18.9984033  15.9949146  12.0000000  18.9984033  18.9984033  18.9984033  12.0000000
 NucSpn=           1           0           1           1           0           0           1           1           1           0
 AtZEff=   0.0000000   0.0000000   0.0000000   0.0000000   0.0000000   0.0000000   0.0000000   0.0000000   0.0000000   0.0000000
 NQMom=    0.0000000   0.0000000   0.0000000   0.0000000   0.0000000   0.0000000   0.0000000   0.0000000   0.0000000   0.0000000
 NMagM=    2.6288670   0.0000000   2.6288670   2.6288670   0.0000000   0.0000000   2.6288670   2.6288670   2.6288670   0.0000000
 AtZNuc=   9.0000000   6.0000000   9.0000000   9.0000000   8.0000000   6.0000000   9.0000000   9.0000000   9.0000000   6.0000000

  Atom        21          22          23          24          25          26          27          28          29          30
 IAtWgt=          16          14          12          12          12          12          19          19          12          19
 AtmWgt=  15.9949146  14.0030740  12.0000000  12.0000000  12.0000000  12.0000000  18.9984033  18.9984033  12.0000000  18.9984033
 NucSpn=           0           2           0           0           0           0           1           1           0           1
 AtZEff=   0.0000000   0.0000000   0.0000000   0.0000000   0.0000000   0.0000000   0.0000000   0.0000000   0.0000000   0.0000000
 NQMom=    0.0000000   2.0440000   0.0000000   0.0000000   0.0000000   0.0000000   0.0000000   0.0000000   0.0000000   0.0000000
 NMagM=    0.0000000   0.4037610   0.0000000   0.0000000   0.0000000   0.0000000   2.6288670   2.6288670   0.0000000   2.6288670
 AtZNuc=   8.0000000   7.0000000   6.0000000   6.0000000   6.0000000   6.0000000   9.0000000   9.0000000   6.0000000   9.0000000

  Atom        31          32          33          34          35          36          37          38          39          40
 IAtWgt=          19          16          12          19          19          19          12          16           1           1
 AtmWgt=  18.9984033  15.9949146  12.0000000  18.9984033  18.9984033  18.9984033  12.0000000  15.9949146   1.0078250   1.0078250
 NucSpn=           1           0           0           1           1           1           0           0           1           1
 AtZEff=   0.0000000   0.0000000   0.0000000   0.0000000   0.0000000   0.0000000   0.0000000   0.0000000   0.0000000   0.0000000
 NQMom=    0.0000000   0.0000000   0.0000000   0.0000000   0.0000000   0.0000000   0.0000000   0.0000000   0.0000000   0.0000000
 NMagM=    2.6288670   0.0000000   0.0000000   2.6288670   2.6288670   2.6288670   0.0000000   0.0000000   2.7928460   2.7928460
 AtZNuc=   9.0000000   8.0000000   6.0000000   9.0000000   9.0000000   9.0000000   6.0000000   8.0000000   1.0000000   1.0000000

  Atom        41          42          43          44          45          46          47          48          49          50
 IAtWgt=           1           1           1           1           1           1           1           1           1           1
 AtmWgt=   1.0078250   1.0078250   1.0078250   1.0078250   1.0078250   1.0078250   1.0078250   1.0078250   1.0078250   1.0078250
 NucSpn=           1           1           1           1           1           1           1           1           1           1
 AtZEff=   0.0000000   0.0000000   0.0000000   0.0000000   0.0000000   0.0000000   0.0000000   0.0000000   0.0000000   0.0000000
 NQMom=    0.0000000   0.0000000   0.0000000   0.0000000   0.0000000   0.0000000   0.0000000   0.0000000   0.0000000   0.0000000
 NMagM=    2.7928460   2.7928460   2.7928460   2.7928460   2.7928460   2.7928460   2.7928460   2.7928460   2.7928460   2.7928460
 AtZNuc=   1.0000000   1.0000000   1.0000000   1.0000000   1.0000000   1.0000000   1.0000000   1.0000000   1.0000000   1.0000000

  Atom        51          52          53
 IAtWgt=           1           1           1
 AtmWgt=   1.0078250   1.0078250   1.0078250
 NucSpn=           1           1           1
 AtZEff=   0.0000000   0.0000000   0.0000000
 NQMom=    0.0000000   0.0000000   0.0000000
 NMagM=    2.7928460   2.7928460   2.7928460
 AtZNuc=   1.0000000   1.0000000   1.0000000
 Leave Link  101 at Sun Feb  2 08:10:41 2025, MaxMem=  5368709120 cpu:         0.9
 (Enter /home/k0335/k033513/app/g09/l202.exe)
 Symmetry turned off by external request.
 Stoichiometry    C16H15F14N3O5(1+,2)
 Framework group  C1[X(C16H15F14N3O5)]
 Deg. of freedom   153
 Full point group                 C1      NOp   1
                          Input orientation:                          
 ---------------------------------------------------------------------
 Center     Atomic      Atomic             Coordinates (Angstroms)
 Number     Number       Type             X           Y           Z
 ---------------------------------------------------------------------
      1          6           0       -0.224883    4.918059    1.518237
      2          7           0       -0.141310    3.658825    0.799988
      3          6           0       -1.318143    3.035360    0.448339
      4          8           0       -2.418840    3.499538    0.755629
      5          7           0       -1.198160    1.842930   -0.234476
      6          6           0       -2.424505    1.158870   -0.644100
      7          6           0       -2.957186    0.240693    0.462611
      8          6           0       -4.395404   -0.245370    0.240271
      9          6           0       -4.591567   -1.064303   -1.034539
     10          9           0       -3.668368   -2.065462   -1.056686
     11          9           0       -4.325854   -0.274478   -2.111838
     12          6           0       -6.011518   -1.653836   -1.155669
     13          9           0       -6.921035   -0.645127   -1.176047
     14          9           0       -6.140142   -2.338855   -2.317183
     15          8           0       -6.331000   -2.489043   -0.067197
     16          6           0       -7.435060   -3.281100   -0.398855
     17          9           0       -8.412911   -2.568838   -0.985762
     18          9           0       -7.058137   -4.295913   -1.198019
     19          9           0       -7.926982   -3.808516    0.742514
     20          6           0        0.003475    1.188902   -0.408450
     21          8           0        0.060504    0.044997   -0.864070
     22          7           0        1.134687    1.869858   -0.010129
     23          6           0        2.431829    1.214657   -0.176472
     24          6           0        2.766090    0.310099    1.015860
     25          6           0        4.228800   -0.149256    1.065713
     26          6           0        4.671424   -0.966662   -0.144919
     27          9           0        3.781139   -1.975981   -0.346849
     28          9           0        4.615409   -0.179205   -1.255756
     29          6           0        6.095197   -1.532267    0.021658
     30          9           0        6.973351   -0.517462    0.222996
     31          9           0        6.148471   -2.328792    1.120147
     32          8           0        6.491523   -2.296399   -1.091305
     33          6           0        7.876391   -2.473538   -1.066715
     34          9           0        8.494966   -1.352938   -1.485307
     35          9           0        8.324487   -2.812114    0.155720
     36          9           0        8.191743   -3.469079   -1.921768
     37          6           0        1.095320    3.064480    0.678272
     38          8           0        2.107122    3.555339    1.184939
     39          1           0        0.675459    5.519343    1.360055
     40          1           0       -1.094159    5.497389    1.192801
     41          1           0       -0.323102    4.699400    2.586383
     42          1           0       -2.216838    0.577917   -1.549371
     43          1           0       -3.180352    1.908396   -0.906591
     44          1           0       -2.929838    0.771110    1.423037
     45          1           0       -2.289577   -0.622227    0.576305
     46          1           0       -4.671305   -0.851657    1.111092
     47          1           0       -5.063543    0.623867    0.221090
     48          1           0        2.413489    0.628412   -1.101759
     49          1           0        3.206378    1.981552   -0.294652
     50          1           0        2.104553   -0.564883    1.009355
     51          1           0        2.551781    0.842712    1.951186
     52          1           0        4.873044    0.732251    1.166974
     53          1           0        4.353087   -0.752118    1.973311
 ---------------------------------------------------------------------
 Rotational constants (GHZ):      0.1346927      0.0284661      0.0244893
 Leave Link  202 at Sun Feb  2 08:10:41 2025, MaxMem=  5368709120 cpu:         0.0
 (Enter /home/k0335/k033513/app/g09/l301.exe)
 Standard basis: 6-31G(d,p) (6D, 7F)
 Ernie: Thresh=  0.10000D-02 Tol=  0.10000D-05 Strict=F.
   645 basis functions,  1169 primitive gaussians,   645 cartesian basis functions
   149 alpha electrons      148 beta electrons
       nuclear repulsion energy      4684.9281052457 Hartrees.
 IExCor=20419 DFT=T Ex+Corr=CAM-B3LYP ExCW=0 ScaHFX=  1.000000
 ScaDFX=  1.000000  1.000000  1.000000  0.810000 ScalE2=  1.000000  1.000000
 IRadAn=      0 IRanWt=     -1 IRanGd=            0 ICorTp=0 IEmpDi=  4
  HFx wShort=  0.000000 wLong=  0.330000 cFull=  0.190000 cShort=  0.000000 cLong=  0.460000
  DFx wShort=  0.000000 wLong=  0.330000 cFull=  0.190000 cShort=  0.000000 cLong=  0.460000
 NAtoms=   53 NActive=   53 NUniq=   53 SFac= 1.00D+00 NAtFMM=   60 NAOKFM=F Big=F
 Integral buffers will be    131072 words long.
 Raffenetti 2 integral format.
 Two-electron integral symmetry is turned off.
 Using the following non-standard input for PCM:
 eps=4.9
 --- end of non-standard input.
 ------------------------------------------------------------------------------
 Polarizable Continuum Model (PCM)
 =================================
 Model                : PCM (using non-symmetric T matrix).
 Atomic radii         : UFF (Universal Force Field).
 Polarization charges : Total charges.
 Charge compensation  : None.
 Solution method      : On-the-fly selection.
 Cavity type          : Scaled VdW (van der Waals Surface) (Alpha=1.100).
 Cavity algorithm     : GePol (No added spheres)
                        Default sphere list used, NSphG=   53.
                        Lebedev-Laikov grids with approx.  5.0 points / Ang**2.
                        Smoothing algorithm: Karplus/York (Gamma=1.0000).
                        Polarization charges: spherical gaussians, with
                                              point-specific exponents (IZeta= 3).
                        Self-potential: point-specific (ISelfS= 7).
                        Self-field    : sphere-specific E.n sum rule (ISelfD= 2).
 Solvent              : Generic,
                        Eps                           =   4.900000
                        Eps(infinity)                 =   0.000000
                        RSolv                         =   0.000000 Ang.
                        Molar volume                  =   0.000000 cm**3/mol
                        Thermal expansion coefficient =   0.000000 K**-1
                        Absolute temperature          = 298.150000 K
                        Numeral density               =   0.000000 Ang**-3
                        Hydrogen bond acidity         =   0.000000
                        Hydrogen bond basicity        =   0.000000
                        Surface tension at interface  =   0.000000 (cal/mol)*Ang**-2
                        Carbon aromaticity            =   0.000000
                        Electronegative halogenicity  =   0.000000
 ------------------------------------------------------------------------------
 GePol: Number of generator spheres                  =      53
 GePol: Total number of spheres                      =      53
 GePol: Number of exposed spheres                    =      53 (100.00%)
 GePol: Number of points                             =    4205
 GePol: Average weight of points                     =       0.13
 GePol: Minimum weight of points                     =   0.31D-11
 GePol: Maximum weight of points                     =    0.20577
 GePol: Number of points with low weight             =     213
 GePol: Fraction of low-weight points (<1% of avg)   =       5.07%
 GePol: Cavity surface area                          =    536.040 Ang**2
 GePol: Cavity volume                                =    591.432 Ang**3
 Leave Link  301 at Sun Feb  2 08:10:41 2025, MaxMem=  5368709120 cpu:         0.7
 (Enter /home/k0335/k033513/app/g09/l302.exe)
 NPDir=0 NMtPBC=     1 NCelOv=     1 NCel=       1 NClECP=     1 NCelD=      1
         NCelK=      1 NCelE2=     1 NClLst=     1 CellRange=     0.0.
 One-electron integrals computed using PRISM.
 NBasis=   645 RedAO= T EigKep=  1.39D-03  NBF=   645
 NBsUse=   645 1.00D-06 EigRej= -1.00D+00 NBFU=   645
 Precomputing XC quadrature grid using
 IXCGrd= 4 IRadAn=           0 IRanWt=          -1 IRanGd=           0 AccXCQ= 0.00D+00.
 Generated NRdTot=       0 NPtTot=           0 NUsed=           0 NTot=          32
 NSgBfM=   576   576   576   576   576 MxSgAt=    53 MxSgA2=    53.
 Leave Link  302 at Sun Feb  2 08:10:42 2025, MaxMem=  5368709120 cpu:        14.0
 (Enter /home/k0335/k033513/app/g09/l303.exe)
 DipDrv:  MaxL=1.
 Leave Link  303 at Sun Feb  2 08:10:43 2025, MaxMem=  5368709120 cpu:         0.9
 (Enter /home/k0335/k033513/app/g09/l401.exe)
 ExpMin= 1.61D-01 ExpMax= 7.00D+03 ExpMxC= 1.05D+03 IAcc=1 IRadAn=         1 AccDes= 0.00D+00
 Harris functional with IExCor=20419 and IRadAn=       1 diagonalized for initial guess.
 HarFok:  IExCor=20419 AccDes= 0.00D+00 IRadAn=         1 IDoV= 1 UseB2=F ITyADJ=14
 ICtDFT=  3500011 ScaDFX=  1.000000  1.000000  1.000000  1.000000
 FoFCou: FMM=F IPFlag=           0 FMFlag=      100000 FMFlg1=           0
         NFxFlg=           0 DoJE=T BraDBF=F KetDBF=T FulRan=T
         wScrn=  0.000000 ICntrl=     500 IOpCl=  0 I1Cent=   200000004 NGrid=           0
         NMat0=    1 NMatS0=      1 NMatT0=    0 NMatD0=    1 NMtDS0=    0 NMtDT0=    0
 Symmetry not used in FoFCou.
 Harris En= -2476.04171895246    
 JPrj=0 DoOrth=F DoCkMO=F.
 Initial guess <Sx>= 0.0000 <Sy>= 0.0000 <Sz>= 0.5000 <S**2>= 0.7500 S= 0.5000
 Leave Link  401 at Sun Feb  2 08:10:45 2025, MaxMem=  5368709120 cpu:        17.7
 (Enter /home/k0335/k033513/app/g09/l502.exe)
 UHF open shell SCF:
 Using DIIS extrapolation, IDIIS=  1040.
 Two-electron integral symmetry not used.
 IVT=     1286081 IEndB=     1286081 NGot=  5368709120 MDV=  5367856350
 LenX=  5367856350 LenY=  5367439680
 Requested convergence on RMS density matrix=1.00D-08 within 128 cycles.
 Requested convergence on MAX density matrix=1.00D-06.
 Requested convergence on             energy=1.00D-06.
 No special actions if energy rises.
 Fock matrices will be formed incrementally for  20 cycles.

 Cycle   1  Pass 1  IDiag  1:
 FoFJK:  IHMeth= 1 ICntrl=       0 DoSepK=T KAlg= 0 I1Cent=   0 FoldK=F
 IRaf=         1 NMat=   1 IRICut=       1 DoRegI=T DoRafI=F ISym2E= 0.
 FoFCou: FMM=F IPFlag=           0 FMFlag=      100000 FMFlg1=           0
         NFxFlg=           0 DoJE=T BraDBF=F KetDBF=F FulRan=T
         wScrn=  0.000000 ICntrl=     500 IOpCl=  0 I1Cent=           0 NGrid=           0
         NMat0=    1 NMatS0=      1 NMatT0=    0 NMatD0=    1 NMtDS0=    0 NMtDT0=    0
 Symmetry not used in FoFCou.
 Inv3:  Mode=1 IEnd=    53046075.
 Iteration    1 A*A^-1 deviation from unit magnitude is 6.22D-15 for   4188.
 Iteration    1 A*A^-1 deviation from orthogonality  is 3.72D-15 for   4188   3141.
 Iteration    1 A^-1*A deviation from unit magnitude is 6.00D-15 for   4187.
 Iteration    1 A^-1*A deviation from orthogonality  is 1.63D-13 for   4096   3608.
 E= -2554.88755078743    
 DIIS: error= 7.15D-02 at cycle   1 NSaved=   1.
 NSaved= 1 IEnMin= 1 EnMin= -2554.88755078743     IErMin= 1 ErrMin= 7.15D-02
 ErrMax= 7.15D-02  0.00D+00 EMaxC= 1.00D-01 BMatC= 9.19D+00 BMatP= 9.19D+00
 IDIUse=3 WtCom= 2.85D-01 WtEn= 7.15D-01
 Coeff-Com:  0.100D+01
 Coeff-En:   0.100D+01
 Coeff:      0.100D+01
 Gap=     0.429 Goal=   None    Shift=    0.000
 Gap=     0.087 Goal=   None    Shift=    0.000
 GapD=    0.087 DampG=0.500 DampE=0.500 DampFc=0.2500 IDamp=-1.
 Damping current iteration by 2.50D-01
 RMSDP=3.21D-03 MaxDP=2.28D-01              OVMax= 3.74D-01

 Cycle   2  Pass 1  IDiag  1:
 RMSU=  8.02D-04    CP:  1.00D+00
 E= -2555.21971184624     Delta-E=       -0.332161058806 Rises=F Damp=T
 DIIS: error= 5.16D-02 at cycle   2 NSaved=   2.
 NSaved= 2 IEnMin= 2 EnMin= -2555.21971184624     IErMin= 2 ErrMin= 5.16D-02
 ErrMax= 5.16D-02  0.00D+00 EMaxC= 1.00D-01 BMatC= 3.70D+00 BMatP= 9.19D+00
 IDIUse=3 WtCom= 4.84D-01 WtEn= 5.16D-01
 Coeff-Com: -0.132D+01 0.232D+01
 Coeff-En:   0.000D+00 0.100D+01
 Coeff:     -0.640D+00 0.164D+01
 Gap=     0.418 Goal=   None    Shift=    0.000
 Gap=     0.080 Goal=   None    Shift=    0.000
 RMSDP=1.53D-03 MaxDP=5.66D-02 DE=-3.32D-01 OVMax= 4.26D-01

 Cycle   3  Pass 1  IDiag  1:
 RMSU=  9.27D-04    CP:  1.00D+00  2.51D+00
 E= -2555.83751954090     Delta-E=       -0.617807694663 Rises=F Damp=F
 DIIS: error= 1.17D-02 at cycle   3 NSaved=   3.
 NSaved= 3 IEnMin= 3 EnMin= -2555.83751954090     IErMin= 3 ErrMin= 1.17D-02
 ErrMax= 1.17D-02  0.00D+00 EMaxC= 1.00D-01 BMatC= 3.12D-01 BMatP= 3.70D+00
 IDIUse=3 WtCom= 8.83D-01 WtEn= 1.17D-01
 Coeff-Com: -0.328D+00 0.624D+00 0.704D+00
 Coeff-En:   0.000D+00 0.000D+00 0.100D+01
 Coeff:     -0.290D+00 0.551D+00 0.739D+00
 Gap=     0.363 Goal=   None    Shift=    0.000
 Gap=     0.096 Goal=   None    Shift=    0.000
 RMSDP=5.32D-04 MaxDP=5.67D-02 DE=-6.18D-01 OVMax= 7.89D-02

 Cycle   4  Pass 1  IDiag  1:
 RMSU=  4.31D-04    CP:  1.00D+00  2.50D+00  6.64D-01
 E= -2555.87048059930     Delta-E=       -0.032961058403 Rises=F Damp=F
 DIIS: error= 9.22D-03 at cycle   4 NSaved=   4.
 NSaved= 4 IEnMin= 4 EnMin= -2555.87048059930     IErMin= 4 ErrMin= 9.22D-03
 ErrMax= 9.22D-03  0.00D+00 EMaxC= 1.00D-01 BMatC= 1.39D-01 BMatP= 3.12D-01
 IDIUse=3 WtCom= 9.08D-01 WtEn= 9.22D-02
 Coeff-Com: -0.158D-01 0.465D-01 0.402D+00 0.567D+00
 Coeff-En:   0.000D+00 0.000D+00 0.295D+00 0.705D+00
 Coeff:     -0.143D-01 0.422D-01 0.392D+00 0.580D+00
 Gap=     0.375 Goal=   None    Shift=    0.000
 Gap=     0.131 Goal=   None    Shift=    0.000
 RMSDP=2.65D-04 MaxDP=2.79D-02 DE=-3.30D-02 OVMax= 4.24D-02

 Cycle   5  Pass 1  IDiag  1:
 RMSU=  1.47D-04    CP:  9.98D-01  2.50D+00  8.32D-01  6.40D-01
 E= -2555.89396447314     Delta-E=       -0.023483873840 Rises=F Damp=F
 DIIS: error= 1.67D-03 at cycle   5 NSaved=   5.
 NSaved= 5 IEnMin= 5 EnMin= -2555.89396447314     IErMin= 5 ErrMin= 1.67D-03
 ErrMax= 1.67D-03  0.00D+00 EMaxC= 1.00D-01 BMatC= 9.07D-03 BMatP= 1.39D-01
 IDIUse=3 WtCom= 9.83D-01 WtEn= 1.67D-02
 Coeff-Com:  0.103D-01-0.141D-01 0.142D+00 0.295D+00 0.567D+00
 Coeff-En:   0.000D+00 0.000D+00 0.000D+00 0.000D+00 0.100D+01
 Coeff:      0.101D-01-0.139D-01 0.139D+00 0.291D+00 0.574D+00
 Gap=     0.361 Goal=   None    Shift=    0.000
 Gap=     0.118 Goal=   None    Shift=    0.000
 RMSDP=6.34D-05 MaxDP=6.73D-03 DE=-2.35D-02 OVMax= 1.22D-02

 Cycle   6  Pass 1  IDiag  1:
 RMSU=  4.66D-05    CP:  9.98D-01  2.52D+00  8.35D-01  7.07D-01  8.03D-01
 E= -2555.89594015392     Delta-E=       -0.001975680778 Rises=F Damp=F
 DIIS: error= 2.81D-04 at cycle   6 NSaved=   6.
 NSaved= 6 IEnMin= 6 EnMin= -2555.89594015392     IErMin= 6 ErrMin= 2.81D-04
 ErrMax= 2.81D-04  0.00D+00 EMaxC= 1.00D-01 BMatC= 2.99D-04 BMatP= 9.07D-03
 IDIUse=3 WtCom= 9.97D-01 WtEn= 2.81D-03
 Coeff-Com: -0.283D-02 0.268D-02-0.179D-01-0.192D-01 0.664D-01 0.971D+00
 Coeff-En:   0.000D+00 0.000D+00 0.000D+00 0.000D+00 0.000D+00 0.100D+01
 Coeff:     -0.282D-02 0.267D-02-0.178D-01-0.191D-01 0.662D-01 0.971D+00
 Gap=     0.361 Goal=   None    Shift=    0.000
 Gap=     0.119 Goal=   None    Shift=    0.000
 RMSDP=3.33D-05 MaxDP=3.41D-03 DE=-1.98D-03 OVMax= 1.23D-02

 Cycle   7  Pass 1  IDiag  1:
 RMSU=  1.86D-05    CP:  9.98D-01  2.51D+00  8.44D-01  7.27D-01  9.22D-01
                    CP:  1.38D+00
 E= -2555.89622312640     Delta-E=       -0.000282972484 Rises=F Damp=F
 DIIS: error= 1.72D-04 at cycle   7 NSaved=   7.
 NSaved= 7 IEnMin= 7 EnMin= -2555.89622312640     IErMin= 7 ErrMin= 1.72D-04
 ErrMax= 1.72D-04  0.00D+00 EMaxC= 1.00D-01 BMatC= 1.46D-04 BMatP= 2.99D-04
 IDIUse=3 WtCom= 9.98D-01 WtEn= 1.72D-03
 Coeff-Com: -0.631D-02 0.819D-02-0.450D-01-0.815D-01-0.994D-01 0.465D+00
 Coeff-Com:  0.759D+00
 Coeff-En:   0.000D+00 0.000D+00 0.000D+00 0.000D+00 0.000D+00 0.000D+00
 Coeff-En:   0.100D+01
 Coeff:     -0.630D-02 0.817D-02-0.449D-01-0.813D-01-0.992D-01 0.464D+00
 Coeff:      0.759D+00
 Gap=     0.361 Goal=   None    Shift=    0.000
 Gap=     0.121 Goal=   None    Shift=    0.000
 RMSDP=2.10D-05 MaxDP=2.93D-03 DE=-2.83D-04 OVMax= 7.79D-03

 Cycle   8  Pass 1  IDiag  1:
 RMSU=  9.86D-06    CP:  9.98D-01  2.52D+00  8.47D-01  7.35D-01  9.86D-01
                    CP:  1.70D+00  1.14D+00
 E= -2555.89633781528     Delta-E=       -0.000114688879 Rises=F Damp=F
 DIIS: error= 1.02D-04 at cycle   8 NSaved=   8.
 NSaved= 8 IEnMin= 8 EnMin= -2555.89633781528     IErMin= 8 ErrMin= 1.02D-04
 ErrMax= 1.02D-04  0.00D+00 EMaxC= 1.00D-01 BMatC= 3.28D-05 BMatP= 1.46D-04
 IDIUse=3 WtCom= 9.99D-01 WtEn= 1.02D-03
 Coeff-Com: -0.269D-02 0.375D-02-0.103D-01-0.197D-01-0.446D-01-0.148D+00
 Coeff-Com:  0.228D+00 0.994D+00
 Coeff-En:   0.000D+00 0.000D+00 0.000D+00 0.000D+00 0.000D+00 0.000D+00
 Coeff-En:   0.000D+00 0.100D+01
 Coeff:     -0.269D-02 0.375D-02-0.103D-01-0.197D-01-0.445D-01-0.147D+00
 Coeff:      0.227D+00 0.994D+00
 Gap=     0.361 Goal=   None    Shift=    0.000
 Gap=     0.122 Goal=   None    Shift=    0.000
 RMSDP=1.49D-05 MaxDP=2.07D-03 DE=-1.15D-04 OVMax= 4.68D-03

 Cycle   9  Pass 1  IDiag  1:
 RMSU=  5.87D-06    CP:  9.98D-01  2.52D+00  8.49D-01  7.40D-01  1.02D+00
                    CP:  1.89D+00  1.54D+00  1.39D+00
 E= -2555.89637539094     Delta-E=       -0.000037575663 Rises=F Damp=F
 DIIS: error= 5.91D-05 at cycle   9 NSaved=   9.
 NSaved= 9 IEnMin= 9 EnMin= -2555.89637539094     IErMin= 9 ErrMin= 5.91D-05
 ErrMax= 5.91D-05  0.00D+00 EMaxC= 1.00D-01 BMatC= 1.43D-05 BMatP= 3.28D-05
 IDIUse=1 WtCom= 1.00D+00 WtEn= 0.00D+00
 Coeff-Com: -0.308D-03 0.605D-03 0.703D-02 0.127D-01 0.481D-02-0.221D+00
 Coeff-Com: -0.798D-01 0.592D+00 0.684D+00
 Coeff:     -0.308D-03 0.605D-03 0.703D-02 0.127D-01 0.481D-02-0.221D+00
 Coeff:     -0.798D-01 0.592D+00 0.684D+00
 Gap=     0.361 Goal=   None    Shift=    0.000
 Gap=     0.122 Goal=   None    Shift=    0.000
 RMSDP=6.79D-06 MaxDP=1.25D-03 DE=-3.76D-05 OVMax= 1.79D-03

 Cycle  10  Pass 1  IDiag  1:
 RMSU=  3.36D-06    CP:  9.98D-01  2.52D+00  8.49D-01  7.42D-01  1.03D+00
                    CP:  1.96D+00  1.70D+00  1.75D+00  1.18D+00
 E= -2555.89638562366     Delta-E=       -0.000010232718 Rises=F Damp=F
 DIIS: error= 3.47D-05 at cycle  10 NSaved=  10.
 NSaved=10 IEnMin=10 EnMin= -2555.89638562366     IErMin=10 ErrMin= 3.47D-05
 ErrMax= 3.47D-05  0.00D+00 EMaxC= 1.00D-01 BMatC= 2.40D-06 BMatP= 1.43D-05
 IDIUse=1 WtCom= 1.00D+00 WtEn= 0.00D+00
 Coeff-Com:  0.321D-03-0.380D-03 0.459D-02 0.860D-02 0.100D-01-0.589D-01
 Coeff-Com: -0.720D-01 0.543D-01 0.224D+00 0.829D+00
 Coeff:      0.321D-03-0.380D-03 0.459D-02 0.860D-02 0.100D-01-0.589D-01
 Coeff:     -0.720D-01 0.543D-01 0.224D+00 0.829D+00
 Gap=     0.361 Goal=   None    Shift=    0.000
 Gap=     0.122 Goal=   None    Shift=    0.000
 RMSDP=4.33D-06 MaxDP=4.83D-04 DE=-1.02D-05 OVMax= 2.21D-03

 Cycle  11  Pass 1  IDiag  1:
 RMSU=  1.97D-06    CP:  9.98D-01  2.52D+00  8.48D-01  7.42D-01  1.04D+00
                    CP:  1.97D+00  1.76D+00  1.92D+00  1.63D+00  1.54D+00
 E= -2555.89638977646     Delta-E=       -0.000004152802 Rises=F Damp=F
 DIIS: error= 3.30D-05 at cycle  11 NSaved=  11.
 NSaved=11 IEnMin=11 EnMin= -2555.89638977646     IErMin=11 ErrMin= 3.30D-05
 ErrMax= 3.30D-05  0.00D+00 EMaxC= 1.00D-01 BMatC= 1.59D-06 BMatP= 2.40D-06
 IDIUse=1 WtCom= 1.00D+00 WtEn= 0.00D+00
 Coeff-Com:  0.309D-03-0.458D-03-0.261D-03-0.382D-03 0.247D-02 0.451D-01
 Coeff-Com: -0.807D-02-0.153D+00-0.167D+00 0.427D+00 0.854D+00
 Coeff:      0.309D-03-0.458D-03-0.261D-03-0.382D-03 0.247D-02 0.451D-01
 Coeff:     -0.807D-02-0.153D+00-0.167D+00 0.427D+00 0.854D+00
 Gap=     0.361 Goal=   None    Shift=    0.000
 Gap=     0.122 Goal=   None    Shift=    0.000
 RMSDP=4.54D-06 MaxDP=4.76D-04 DE=-4.15D-06 OVMax= 2.34D-03

 Cycle  12  Pass 1  IDiag  1:
 RMSU=  1.28D-06    CP:  9.98D-01  2.52D+00  8.48D-01  7.42D-01  1.04D+00
                    CP:  1.97D+00  1.81D+00  2.05D+00  2.03D+00  2.37D+00
                    CP:  1.89D+00
 E= -2555.89639362803     Delta-E=       -0.000003851569 Rises=F Damp=F
 DIIS: error= 2.98D-05 at cycle  12 NSaved=  12.
 NSaved=12 IEnMin=12 EnMin= -2555.89639362803     IErMin=12 ErrMin= 2.98D-05
 ErrMax= 2.98D-05  0.00D+00 EMaxC= 1.00D-01 BMatC= 1.06D-06 BMatP= 1.59D-06
 IDIUse=1 WtCom= 1.00D+00 WtEn= 0.00D+00
 Coeff-Com:  0.140D-03-0.220D-03-0.126D-02-0.251D-02-0.161D-02 0.350D-01
 Coeff-Com:  0.127D-01-0.655D-01-0.170D+00 0.416D-01 0.343D+00 0.809D+00
 Coeff:      0.140D-03-0.220D-03-0.126D-02-0.251D-02-0.161D-02 0.350D-01
 Coeff:      0.127D-01-0.655D-01-0.170D+00 0.416D-01 0.343D+00 0.809D+00
 Gap=     0.361 Goal=   None    Shift=    0.000
 Gap=     0.122 Goal=   None    Shift=    0.000
 RMSDP=3.89D-06 MaxDP=4.22D-04 DE=-3.85D-06 OVMax= 2.21D-03

 Cycle  13  Pass 1  IDiag  1:
 RMSU=  6.22D-07    CP:  9.98D-01  2.52D+00  8.48D-01  7.42D-01  1.04D+00
                    CP:  1.98D+00  1.83D+00  2.13D+00  2.35D+00  3.00D+00
                    CP:  2.95D+00  1.87D+00
 E= -2555.89639667306     Delta-E=       -0.000003045029 Rises=F Damp=F
 DIIS: error= 2.91D-05 at cycle  13 NSaved=  13.
 NSaved=13 IEnMin=13 EnMin= -2555.89639667306     IErMin=13 ErrMin= 2.91D-05
 ErrMax= 2.91D-05  0.00D+00 EMaxC= 1.00D-01 BMatC= 9.21D-07 BMatP= 1.06D-06
 IDIUse=1 WtCom= 1.00D+00 WtEn= 0.00D+00
 Coeff-Com:  0.107D-03-0.144D-03-0.399D-03-0.120D-02-0.168D-02-0.889D-03
 Coeff-Com:  0.376D-02 0.410D-01-0.679D-01-0.755D-01-0.219D+00 0.884D-01
 Coeff-Com:  0.123D+01
 Coeff:      0.107D-03-0.144D-03-0.399D-03-0.120D-02-0.168D-02-0.889D-03
 Coeff:      0.376D-02 0.410D-01-0.679D-01-0.755D-01-0.219D+00 0.884D-01
 Coeff:      0.123D+01
 Gap=     0.360 Goal=   None    Shift=    0.000
 Gap=     0.122 Goal=   None    Shift=    0.000
 RMSDP=6.12D-06 MaxDP=6.73D-04 DE=-3.05D-06 OVMax= 3.58D-03

 Cycle  14  Pass 1  IDiag  1:
 RMSU=  4.62D-06    CP:  9.98D-01  2.52D+00  8.48D-01  7.42D-01  1.04D+00
                    CP:  1.98D+00  1.86D+00  2.23D+00  2.81D+00  3.00D+00
                    CP:  3.00D+00  3.00D+00  3.00D+00
 E= -2555.89640128343     Delta-E=       -0.000004610367 Rises=F Damp=F
 DIIS: error= 2.63D-05 at cycle  14 NSaved=  14.
 NSaved=14 IEnMin=14 EnMin= -2555.89640128343     IErMin=14 ErrMin= 2.63D-05
 ErrMax= 2.63D-05  0.00D+00 EMaxC= 1.00D-01 BMatC= 1.02D-06 BMatP= 9.21D-07
 IDIUse=1 WtCom= 1.00D+00 WtEn= 0.00D+00
 Coeff-Com:  0.127D-03-0.163D-03 0.156D-03-0.179D-03-0.420D-03-0.830D-02
 Coeff-Com: -0.455D-02 0.490D-01-0.364D-01 0.133D-01-0.222D+00-0.368D+00
 Coeff-Com:  0.111D+01 0.472D+00
 Coeff:      0.127D-03-0.163D-03 0.156D-03-0.179D-03-0.420D-03-0.830D-02
 Coeff:     -0.455D-02 0.490D-01-0.364D-01 0.133D-01-0.222D+00-0.368D+00
 Coeff:      0.111D+01 0.472D+00
 Gap=     0.360 Goal=   None    Shift=    0.000
 Gap=     0.123 Goal=   None    Shift=    0.000
 RMSDP=3.26D-06 MaxDP=3.62D-04 DE=-4.61D-06 OVMax= 1.96D-03

 Cycle  15  Pass 1  IDiag  1:
 RMSU=  1.26D-06    CP:  9.98D-01  2.52D+00  8.48D-01  7.42D-01  1.04D+00
                    CP:  1.98D+00  1.88D+00  2.29D+00  3.00D+00  3.00D+00
                    CP:  3.00D+00  3.00D+00  3.00D+00  1.57D+00
 E= -2555.89640372949     Delta-E=       -0.000002446065 Rises=F Damp=F
 DIIS: error= 2.55D-05 at cycle  15 NSaved=  15.
 NSaved=15 IEnMin=15 EnMin= -2555.89640372949     IErMin=15 ErrMin= 2.55D-05
 ErrMax= 2.55D-05  0.00D+00 EMaxC= 1.00D-01 BMatC= 9.84D-07 BMatP= 9.21D-07
 IDIUse=1 WtCom= 1.00D+00 WtEn= 0.00D+00
 Coeff-Com:  0.147D-03-0.194D-03 0.226D-03 0.165D-04 0.214D-03-0.356D-02
 Coeff-Com: -0.659D-02 0.292D-01-0.479D-01 0.765D-01-0.108D+00-0.403D+00
 Coeff-Com:  0.816D+00-0.537D+00 0.118D+01
 Coeff:      0.147D-03-0.194D-03 0.226D-03 0.165D-04 0.214D-03-0.356D-02
 Coeff:     -0.659D-02 0.292D-01-0.479D-01 0.765D-01-0.108D+00-0.403D+00
 Coeff:      0.816D+00-0.537D+00 0.118D+01
 Gap=     0.360 Goal=   None    Shift=    0.000
 Gap=     0.122 Goal=   None    Shift=    0.000
 RMSDP=3.86D-06 MaxDP=4.48D-04 DE=-2.45D-06 OVMax= 2.37D-03

 Cycle  16  Pass 1  IDiag  1:
 RMSU=  1.26D-06    CP:  9.98D-01  2.52D+00  8.48D-01  7.42D-01  1.04D+00
                    CP:  1.98D+00  1.90D+00  2.34D+00  3.00D+00  3.00D+00
                    CP:  3.00D+00  3.00D+00  3.00D+00  2.24D+00  2.46D+00
 E= -2555.89640662206     Delta-E=       -0.000002892566 Rises=F Damp=F
 DIIS: error= 2.49D-05 at cycle  16 NSaved=  16.
 NSaved=16 IEnMin=16 EnMin= -2555.89640662206     IErMin=16 ErrMin= 2.49D-05
 ErrMax= 2.49D-05  0.00D+00 EMaxC= 1.00D-01 BMatC= 1.00D-06 BMatP= 9.21D-07
 IDIUse=1 WtCom= 1.00D+00 WtEn= 0.00D+00
 Coeff-Com:  0.146D-03-0.191D-03 0.271D-03 0.914D-04 0.268D-03-0.463D-02
 Coeff-Com: -0.713D-02 0.316D-01-0.436D-01 0.785D-01-0.118D+00-0.446D+00
 Coeff-Com:  0.828D+00-0.392D+00 0.134D+01-0.263D+00
 Coeff:      0.146D-03-0.191D-03 0.271D-03 0.914D-04 0.268D-03-0.463D-02
 Coeff:     -0.713D-02 0.316D-01-0.436D-01 0.785D-01-0.118D+00-0.446D+00
 Coeff:      0.828D+00-0.392D+00 0.134D+01-0.263D+00
 Gap=     0.360 Goal=   None    Shift=    0.000
 Gap=     0.123 Goal=   None    Shift=    0.000
 RMSDP=1.04D-06 MaxDP=1.23D-04 DE=-2.89D-06 OVMax= 6.48D-04

 Cycle  17  Pass 1  IDiag  1:
 RMSU=  4.18D-08    CP:  9.98D-01  2.52D+00  8.48D-01  7.42D-01  1.04D+00
                    CP:  1.98D+00  1.89D+00  2.33D+00  3.00D+00  3.00D+00
                    CP:  3.00D+00  3.00D+00  3.00D+00  2.06D+00  2.05D+00
                    CP:  7.36D-01
 E= -2555.89640584400     Delta-E=        0.000000778058 Rises=F Damp=F
 DIIS: error= 2.50D-05 at cycle  17 NSaved=  17.
 NSaved=17 IEnMin=16 EnMin= -2555.89640662206     IErMin=16 ErrMin= 2.49D-05
 ErrMax= 2.50D-05  0.00D+00 EMaxC= 1.00D-01 BMatC= 1.00D-06 BMatP= 9.21D-07
 IDIUse=1 WtCom= 1.00D+00 WtEn= 0.00D+00
 Large coefficients: NSaved= 17 BigCof=   20.78 CofMax=   10.00 Det=-3.08D-11
 Inversion failed.  Reducing to 16 matrices.
 Large coefficients: NSaved= 16 BigCof=   17.70 CofMax=   10.00 Det=-3.71D-11
 Inversion failed.  Reducing to 15 matrices.
 Large coefficients: NSaved= 15 BigCof=   17.37 CofMax=   10.00 Det=-3.20D-11
 Inversion failed.  Reducing to 14 matrices.
 Large coefficients: NSaved= 14 BigCof=   18.03 CofMax=   10.00 Det=-3.37D-11
 Inversion failed.  Reducing to 13 matrices.
 Large coefficients: NSaved= 13 BigCof=   20.85 CofMax=   10.00 Det=-3.47D-11
 Inversion failed.  Reducing to 12 matrices.
 Large coefficients: NSaved= 12 BigCof=   20.14 CofMax=   10.00 Det=-3.49D-11
 Inversion failed.  Reducing to 11 matrices.
 Large coefficients: NSaved= 11 BigCof=   21.36 CofMax=   10.00 Det=-3.60D-11
 Inversion failed.  Reducing to 10 matrices.
 Large coefficients: NSaved= 10 BigCof=   19.89 CofMax=   10.00 Det=-3.68D-11
 Inversion failed.  Reducing to  9 matrices.
 Large coefficients: NSaved=  9 BigCof=   22.99 CofMax=   10.00 Det=-3.88D-11
 Inversion failed.  Reducing to  8 matrices.
 Large coefficients: NSaved=  8 BigCof=   26.88 CofMax=   10.00 Det=-3.99D-11
 Inversion failed.  Reducing to  7 matrices.
 Large coefficients: NSaved=  7 BigCof=   25.49 CofMax=   10.00 Det=-3.99D-11
 Inversion failed.  Reducing to  6 matrices.
 Large coefficients: NSaved=  6 BigCof=   27.90 CofMax=   10.00 Det=-4.42D-11
 Inversion failed.  Reducing to  5 matrices.
 Large coefficients: NSaved=  5 BigCof=   24.85 CofMax=   10.00 Det=-4.74D-11
 Inversion failed.  Reducing to  4 matrices.
 Large coefficients: NSaved=  4 BigCof=   33.27 CofMax=   10.00 Det=-5.48D-11
 Inversion failed.  Reducing to  3 matrices.
 Large coefficients: NSaved=  3 BigCof=   31.22 CofMax=   10.00 Det=-5.56D-11
 Inversion failed.  Reducing to  2 matrices.
 Large coefficients: NSaved=  2 BigCof=   16.66 CofMax=   10.00 Det=-7.10D-11
 Coeff-Com: -0.157D+02 0.167D+02
 Coeff:     -0.157D+02 0.167D+02
 Gap=     0.361 Goal=   None    Shift=    0.000
 Gap=     0.123 Goal=   None    Shift=    0.000
 RMSDP=1.28D-05 MaxDP=1.57D-03 DE= 7.78D-07 OVMax= 8.05D-03

 Cycle  18  Pass 1  IDiag  1:
 RMSU=  1.52D-06    CP:  9.98D-01  2.52D+00  8.48D-01  7.42D-01  1.04D+00
                    CP:  1.98D+00  1.83D+00  2.16D+00  2.34D+00  3.00D+00
                    CP:  2.76D+00  1.40D+00 -2.91D-01  4.87D-02 -1.85D-01
                    CP: -1.66D-01  3.00D+00
 E= -2555.89639629302     Delta-E=        0.000009550983 Rises=F Damp=F
 DIIS: error= 2.68D-05 at cycle  18 NSaved=   3.
 NSaved= 3 IEnMin= 1 EnMin= -2555.89640662206     IErMin= 1 ErrMin= 2.49D-05
 ErrMax= 2.68D-05  0.00D+00 EMaxC= 1.00D-01 BMatC= 8.81D-07 BMatP= 1.00D-06
 IDIUse=1 WtCom= 1.00D+00 WtEn= 0.00D+00
 Large coefficients: NSaved=  3 BigCof=   18.91 CofMax=   10.00 Det=-7.08D-11
 Inversion failed.  Reducing to  2 matrices.
 Coeff-Com:  0.394D+00 0.606D+00
 Coeff:      0.394D+00 0.606D+00
 Gap=     0.360 Goal=   None    Shift=    0.000
 Gap=     0.122 Goal=   None    Shift=    0.000
 RMSDP=8.56D-06 MaxDP=1.04D-03 DE= 9.55D-06 OVMax= 5.38D-03

 Cycle  19  Pass 1  IDiag  1:
 RMSU=  2.10D-07    CP:  9.98D-01  2.52D+00  8.48D-01  7.42D-01  1.04D+00
                    CP:  1.98D+00  1.87D+00  2.27D+00  2.94D+00  3.00D+00
                    CP:  3.00D+00  3.00D+00  3.00D+00  1.34D+00  4.48D-01
                    CP: -1.32D-01  3.00D+00  2.38D-01
 E= -2555.89640266851     Delta-E=       -0.000006375492 Rises=F Damp=F
 DIIS: error= 2.54D-05 at cycle  19 NSaved=   3.
 NSaved= 3 IEnMin= 1 EnMin= -2555.89640584400     IErMin= 1 ErrMin= 2.50D-05
 ErrMax= 2.54D-05  0.00D+00 EMaxC= 1.00D-01 BMatC= 9.28D-07 BMatP= 8.81D-07
 IDIUse=1 WtCom= 1.00D+00 WtEn= 0.00D+00
 Coeff-Com: -0.942D+00 0.510D+00 0.143D+01
 Coeff:     -0.942D+00 0.510D+00 0.143D+01
 Gap=     0.361 Goal=   None    Shift=    0.000
 Gap=     0.122 Goal=   None    Shift=    0.000
 RMSDP=4.90D-06 MaxDP=6.14D-04 DE=-6.38D-06 OVMax= 3.19D-03

 Cycle  20  Pass 1  IDiag  1:
 RMSU=  3.19D-07    CP:  9.98D-01  2.52D+00  8.48D-01  7.42D-01  1.04D+00
                    CP:  1.98D+00  1.85D+00  2.20D+00  2.62D+00  3.00D+00
                    CP:  3.00D+00  2.64D+00  1.36D+00  5.43D-01 -4.21D-01
                    CP: -7.86D-02  3.00D+00  8.19D-01  1.88D+00
 E= -2555.89639902528     Delta-E=        0.000003643234 Rises=F Damp=F
 DIIS: error= 2.48D-05 at cycle  20 NSaved=   4.
 NSaved= 4 IEnMin= 1 EnMin= -2555.89640584400     IErMin= 4 ErrMin= 2.48D-05
 ErrMax= 2.48D-05  0.00D+00 EMaxC= 1.00D-01 BMatC= 1.01D-06 BMatP= 8.81D-07
 IDIUse=1 WtCom= 1.00D+00 WtEn= 0.00D+00
 Coeff-Com:  0.638D+00 0.621D+00 0.774D+00-0.103D+01
 Coeff:      0.638D+00 0.621D+00 0.774D+00-0.103D+01
 Gap=     0.360 Goal=   None    Shift=    0.000
 Gap=     0.122 Goal=   None    Shift=    0.000
 RMSDP=1.09D-05 MaxDP=1.37D-03 DE= 3.64D-06 OVMax= 7.16D-03

 Cycle  21  Pass 1  IDiag  1:
 Restarting incremental Fock formation.
 E= -2555.89640713571     Delta-E=       -0.000008110428 Rises=F Damp=F
 DIIS: error= 2.46D-05 at cycle  21 NSaved=   5.
 NSaved= 5 IEnMin= 5 EnMin= -2555.89640713571     IErMin= 5 ErrMin= 2.46D-05
 ErrMax= 2.46D-05  0.00D+00 EMaxC= 1.00D-01 BMatC= 1.09D-06 BMatP= 8.81D-07
 IDIUse=1 WtCom= 1.00D+00 WtEn= 0.00D+00
 Coeff-Com:  0.408D+01 0.643D+00-0.155D+01 0.381D+01-0.598D+01
 Coeff:      0.408D+01 0.643D+00-0.155D+01 0.381D+01-0.598D+01
 Gap=     0.361 Goal=   None    Shift=    0.000
 Gap=     0.122 Goal=   None    Shift=    0.000
 RMSDP=4.54D-05 MaxDP=5.68D-03 DE=-8.11D-06 OVMax= 2.91D-02

 Cycle  22  Pass 1  IDiag  1:
 RMSU=  4.54D-05    CP:  1.00D+00
 E= -2555.89637416623     Delta-E=        0.000032969477 Rises=F Damp=F
 DIIS: error= 2.34D-05 at cycle  22 NSaved=   6.
 NSaved= 6 IEnMin= 5 EnMin= -2555.89640713571     IErMin= 6 ErrMin= 2.34D-05
 ErrMax= 2.34D-05  0.00D+00 EMaxC= 1.00D-01 BMatC= 1.80D-06 BMatP= 8.81D-07
 IDIUse=1 WtCom= 1.00D+00 WtEn= 0.00D+00
 Coeff-Com:  0.499D+01 0.709D+00-0.203D+01 0.397D+01-0.675D+01 0.113D+00
 Coeff:      0.499D+01 0.709D+00-0.203D+01 0.397D+01-0.675D+01 0.113D+00
 Gap=     0.361 Goal=   None    Shift=    0.000
 Gap=     0.123 Goal=   None    Shift=    0.000
 RMSDP=6.51D-06 MaxDP=8.24D-04 DE= 3.30D-05 OVMax= 4.18D-03

 Cycle  23  Pass 1  IDiag  1:
 RMSU=  2.69D-07    CP:  1.00D+00  1.14D+00
 E= -2555.89636963568     Delta-E=        0.000004530552 Rises=F Damp=F
 DIIS: error= 2.46D-05 at cycle  23 NSaved=   7.
 NSaved= 7 IEnMin= 5 EnMin= -2555.89640713571     IErMin= 6 ErrMin= 2.34D-05
 ErrMax= 2.46D-05  0.00D+00 EMaxC= 1.00D-01 BMatC= 1.86D-06 BMatP= 8.81D-07
 IDIUse=1 WtCom= 1.00D+00 WtEn= 0.00D+00
 Coeff-Com: -0.173D+01 0.825D+00 0.146D+01 0.306D+01-0.219D+01-0.767D+01
 Coeff-Com:  0.725D+01
 Coeff:     -0.173D+01 0.825D+00 0.146D+01 0.306D+01-0.219D+01-0.767D+01
 Coeff:      0.725D+01
 Gap=     0.361 Goal=   None    Shift=    0.000
 Gap=     0.123 Goal=   None    Shift=    0.000
 RMSDP=2.36D-05 MaxDP=2.98D-03 DE= 4.53D-06 OVMax= 1.49D-02

 Cycle  24  Pass 1  IDiag  1:
 RMSU=  1.13D-06    CP:  1.00D+00  1.66D+00  3.00D+00
 E= -2555.89635356092     Delta-E=        0.000016074760 Rises=F Damp=F
 DIIS: error= 2.30D-05 at cycle  24 NSaved=   8.
 NSaved= 8 IEnMin= 5 EnMin= -2555.89640713571     IErMin= 8 ErrMin= 2.30D-05
 ErrMax= 2.30D-05  0.00D+00 EMaxC= 1.00D-01 BMatC= 1.95D-06 BMatP= 8.81D-07
 IDIUse=1 WtCom= 1.00D+00 WtEn= 0.00D+00
 Coeff-Com:  0.175D+01 0.966D+00-0.373D+00 0.324D+01-0.450D+01-0.460D+01
 Coeff-Com:  0.505D+01-0.530D+00
 Coeff:      0.175D+01 0.966D+00-0.373D+00 0.324D+01-0.450D+01-0.460D+01
 Coeff:      0.505D+01-0.530D+00
 Gap=     0.361 Goal=   None    Shift=    0.000
 Gap=     0.123 Goal=   None    Shift=    0.000
 RMSDP=1.54D-05 MaxDP=1.97D-03 DE= 1.61D-05 OVMax= 9.83D-03

 Cycle  25  Pass 1  IDiag  1:
 RMSU=  2.66D-07    CP:  1.00D+00  1.32D+00  2.35D+00  1.46D-01
 E= -2555.89636394352     Delta-E=       -0.000010382603 Rises=F Damp=F
 DIIS: error= 2.56D-05 at cycle  25 NSaved=   9.
 NSaved= 9 IEnMin= 5 EnMin= -2555.89640713571     IErMin= 8 ErrMin= 2.30D-05
 ErrMax= 2.56D-05  0.00D+00 EMaxC= 1.00D-01 BMatC= 2.18D-06 BMatP= 8.81D-07
 IDIUse=1 WtCom= 1.00D+00 WtEn= 0.00D+00
 Coeff-Com:  0.882D+01 0.336D+00-0.350D+01 0.117D+01-0.622D+01 0.141D+01
 Coeff-Com: -0.851D+00 0.443D+01-0.460D+01
 Coeff:      0.882D+01 0.336D+00-0.350D+01 0.117D+01-0.622D+01 0.141D+01
 Coeff:     -0.851D+00 0.443D+01-0.460D+01
 Gap=     0.361 Goal=   None    Shift=    0.000
 Gap=     0.122 Goal=   None    Shift=    0.000
 RMSDP=2.76D-05 MaxDP=3.63D-03 DE=-1.04D-05 OVMax= 1.85D-02

 Cycle  26  Pass 1  IDiag  1:
 RMSU=  1.81D-06    CP:  1.00D+00  1.93D+00  3.00D+00  2.01D+00 -3.00D+00
 E= -2555.89634616490     Delta-E=        0.000017778617 Rises=F Damp=F
 DIIS: error= 2.26D-05 at cycle  26 NSaved=  10.
 NSaved=10 IEnMin= 5 EnMin= -2555.89640713571     IErMin=10 ErrMin= 2.26D-05
 ErrMax= 2.26D-05  0.00D+00 EMaxC= 1.00D-01 BMatC= 1.65D-06 BMatP= 8.81D-07
 IDIUse=1 WtCom= 1.00D+00 WtEn= 0.00D+00
 Large coefficients: NSaved= 10 BigCof=   20.67 CofMax=   10.00 Det=-1.19D-10
 Inversion failed.  Reducing to  9 matrices.
 Large coefficients: NSaved=  9 BigCof=   18.34 CofMax=   10.00 Det=-1.22D-10
 Inversion failed.  Reducing to  8 matrices.
 Large coefficients: NSaved=  8 BigCof=   21.43 CofMax=   10.00 Det=-4.56D-10
 Inversion failed.  Reducing to  7 matrices.
 Coeff-Com:  0.153D+01 0.514D+00-0.195D+00 0.306D+01-0.360D+01-0.243D+00
 Coeff-Com: -0.695D-01
 Coeff:      0.153D+01 0.514D+00-0.195D+00 0.306D+01-0.360D+01-0.243D+00
 Coeff:     -0.695D-01
 Gap=     0.361 Goal=   None    Shift=    0.000
 Gap=     0.122 Goal=   None    Shift=    0.000
 RMSDP=6.93D-05 MaxDP=8.92D-03 DE= 1.78D-05 OVMax= 4.58D-02

 Cycle  27  Pass 1  IDiag  1:
 RMSU=  2.10D-07    CP:  1.00D+00  4.02D-01 -1.99D+00  8.93D-02  8.69D-01
                    CP: -1.15D-01
 E= -2555.89639345231     Delta-E=       -0.000047287406 Rises=F Damp=F
 DIIS: error= 2.47D-05 at cycle  27 NSaved=   8.
 NSaved= 8 IEnMin= 5 EnMin= -2555.89640713571     IErMin= 7 ErrMin= 2.26D-05
 ErrMax= 2.47D-05  0.00D+00 EMaxC= 1.00D-01 BMatC= 2.04D-06 BMatP= 8.81D-07
 IDIUse=1 WtCom= 1.00D+00 WtEn= 0.00D+00
 Coeff-Com: -0.164D+01 0.424D+00 0.152D+01 0.253D+01-0.120D+01 0.483D+00
 Coeff-Com: -0.193D+00-0.922D+00
 Coeff:     -0.164D+01 0.424D+00 0.152D+01 0.253D+01-0.120D+01 0.483D+00
 Coeff:     -0.193D+00-0.922D+00
 Gap=     0.361 Goal=   None    Shift=    0.000
 Gap=     0.123 Goal=   None    Shift=    0.000
 RMSDP=1.36D-05 MaxDP=1.73D-03 DE=-4.73D-05 OVMax= 8.89D-03

 Cycle  28  Pass 1  IDiag  1:
 RMSU=  6.66D-08    CP:  1.00D+00  7.03D-01 -1.63D+00  1.30D-01  8.67D-01
                    CP: -6.66D-02  2.30D-01
 E= -2555.89638363547     Delta-E=        0.000009816834 Rises=F Damp=F
 DIIS: error= 2.27D-05 at cycle  28 NSaved=   9.
 NSaved= 9 IEnMin= 5 EnMin= -2555.89640713571     IErMin= 7 ErrMin= 2.26D-05
 ErrMax= 2.27D-05  0.00D+00 EMaxC= 1.00D-01 BMatC= 1.90D-06 BMatP= 8.81D-07
 IDIUse=1 WtCom= 1.00D+00 WtEn= 0.00D+00
 Coeff-Com: -0.239D+01 0.289D+00 0.199D+01 0.224D+01-0.371D+00 0.594D+00
 Coeff-Com: -0.396D+00-0.239D+01 0.144D+01
 Coeff:     -0.239D+01 0.289D+00 0.199D+01 0.224D+01-0.371D+00 0.594D+00
 Coeff:     -0.396D+00-0.239D+01 0.144D+01
 Gap=     0.361 Goal=   None    Shift=    0.000
 Gap=     0.123 Goal=   None    Shift=    0.000
 RMSDP=4.36D-06 MaxDP=5.30D-04 DE= 9.82D-06 OVMax= 2.76D-03

 Cycle  29  Pass 1  IDiag  1:
 RMSU=  1.40D-07    CP:  1.00D+00  7.99D-01 -1.52D+00  1.31D-01  1.35D+00
                    CP: -1.63D-01  4.74D-01  1.35D+00
 E= -2555.89638048524     Delta-E=        0.000003150237 Rises=F Damp=F
 DIIS: error= 2.33D-05 at cycle  29 NSaved=  10.
 NSaved=10 IEnMin= 5 EnMin= -2555.89640713571     IErMin= 7 ErrMin= 2.26D-05
 ErrMax= 2.33D-05  0.00D+00 EMaxC= 1.00D-01 BMatC= 2.01D-06 BMatP= 8.81D-07
 IDIUse=1 WtCom= 1.00D+00 WtEn= 0.00D+00
 Coeff-Com: -0.158D+01 0.159D+00 0.160D+01 0.206D+01-0.573D+00-0.148D+00
 Coeff-Com: -0.199D+00-0.309D+01 0.999D+00 0.178D+01
 Coeff:     -0.158D+01 0.159D+00 0.160D+01 0.206D+01-0.573D+00-0.148D+00
 Coeff:     -0.199D+00-0.309D+01 0.999D+00 0.178D+01
 Gap=     0.361 Goal=   None    Shift=    0.000
 Gap=     0.123 Goal=   None    Shift=    0.000
 RMSDP=5.48D-06 MaxDP=7.04D-04 DE= 3.15D-06 OVMax= 3.58D-03

 Cycle  30  Pass 1  IDiag  1:
 RMSU=  7.81D-08    CP:  1.00D+00  9.19D-01 -8.09D-01  9.42D-02  1.13D+00
                    CP: -1.06D-01  2.63D-01  1.37D+00  1.02D+00
 E= -2555.89637663838     Delta-E=        0.000003846855 Rises=F Damp=F
 DIIS: error= 2.51D-05 at cycle  30 NSaved=  11.
 NSaved=11 IEnMin= 5 EnMin= -2555.89640713571     IErMin= 7 ErrMin= 2.26D-05
 ErrMax= 2.51D-05  0.00D+00 EMaxC= 1.00D-01 BMatC= 2.00D-06 BMatP= 8.81D-07
 IDIUse=1 WtCom= 1.00D+00 WtEn= 0.00D+00
 Coeff-Com:  0.404D+01 0.358D+00-0.155D+01 0.214D+01-0.407D+01-0.322D+01
 Coeff-Com:  0.122D+01 0.738D+00-0.638D+01 0.264D+01 0.509D+01
 Coeff:      0.404D+01 0.358D+00-0.155D+01 0.214D+01-0.407D+01-0.322D+01
 Coeff:      0.122D+01 0.738D+00-0.638D+01 0.264D+01 0.509D+01
 Gap=     0.361 Goal=   None    Shift=    0.000
 Gap=     0.122 Goal=   None    Shift=    0.000
 RMSDP=1.27D-05 MaxDP=1.71D-03 DE= 3.85D-06 OVMax= 8.78D-03

 Cycle  31  Pass 1  IDiag  1:
 RMSU=  4.36D-07    CP:  1.00D+00  1.19D+00  3.00D+00 -2.19D-01 -2.86D+00
                    CP:  7.32D-01 -2.14D+00 -2.59D+00 -1.64D+00  3.00D+00
 E= -2555.89636837904     Delta-E=        0.000008259339 Rises=F Damp=F
 DIIS: error= 2.11D-05 at cycle  31 NSaved=  12.
 NSaved=12 IEnMin= 5 EnMin= -2555.89640713571     IErMin=12 ErrMin= 2.11D-05
 ErrMax= 2.11D-05  0.00D+00 EMaxC= 1.00D-01 BMatC= 1.73D-06 BMatP= 8.81D-07
 IDIUse=1 WtCom= 1.00D+00 WtEn= 0.00D+00
 Coeff-Com:  0.397D+01 0.350D+00-0.151D+01 0.209D+01-0.398D+01-0.323D+01
 Coeff-Com:  0.125D+01 0.689D+00-0.633D+01 0.274D+01 0.500D+01-0.457D-01
 Coeff:      0.397D+01 0.350D+00-0.151D+01 0.209D+01-0.398D+01-0.323D+01
 Coeff:      0.125D+01 0.689D+00-0.633D+01 0.274D+01 0.500D+01-0.457D-01
 Gap=     0.361 Goal=   None    Shift=    0.000
 Gap=     0.122 Goal=   None    Shift=    0.000
 RMSDP=3.73D-07 MaxDP=4.91D-05 DE= 8.26D-06 OVMax= 2.55D-04

 Cycle  32  Pass 1  IDiag  1:
 RMSU=  2.50D-08    CP:  1.00D+00  1.19D+00  3.00D+00 -2.15D-01 -2.74D+00
                    CP:  7.21D-01 -2.19D+00 -2.41D+00 -1.80D+00  3.00D+00
                    CP:  9.72D-01
 E= -2555.89636862231     Delta-E=       -0.000000243264 Rises=F Damp=F
 DIIS: error= 2.11D-05 at cycle  32 NSaved=  13.
 NSaved=13 IEnMin= 5 EnMin= -2555.89640713571     IErMin=12 ErrMin= 2.11D-05
 ErrMax= 2.11D-05  0.00D+00 EMaxC= 1.00D-01 BMatC= 1.74D-06 BMatP= 8.81D-07
 IDIUse=1 WtCom= 1.00D+00 WtEn= 0.00D+00
 Large coefficients: NSaved= 13 BigCof=   30.55 CofMax=   10.00 Det=-1.66D-11
 Inversion failed.  Reducing to 12 matrices.
 Large coefficients: NSaved= 12 BigCof=   37.50 CofMax=   10.00 Det=-1.99D-11
 Inversion failed.  Reducing to 11 matrices.
 Large coefficients: NSaved= 11 BigCof=   39.41 CofMax=   10.00 Det=-2.32D-11
 Inversion failed.  Reducing to 10 matrices.
 Large coefficients: NSaved= 10 BigCof=   31.95 CofMax=   10.00 Det=-2.44D-11
 Inversion failed.  Reducing to  9 matrices.
 Large coefficients: NSaved=  9 BigCof=   31.32 CofMax=   10.00 Det=-3.72D-11
 Inversion failed.  Reducing to  8 matrices.
 Large coefficients: NSaved=  8 BigCof=   31.87 CofMax=   10.00 Det=-3.81D-11
 Inversion failed.  Reducing to  7 matrices.
 Coeff-Com:  0.102D+01 0.698D+00 0.156D-01 0.320D+01-0.364D+01 0.395D+01
 Coeff-Com: -0.424D+01
 Coeff:      0.102D+01 0.698D+00 0.156D-01 0.320D+01-0.364D+01 0.395D+01
 Coeff:     -0.424D+01
 Gap=     0.361 Goal=   None    Shift=    0.000
 Gap=     0.123 Goal=   None    Shift=    0.000
 RMSDP=2.48D-05 MaxDP=3.29D-03 DE=-2.43D-07 OVMax= 1.68D-02

 Cycle  33  Pass 1  IDiag  1:
 RMSU=  1.23D-07    CP:  1.00D+00  6.41D-01 -2.13D+00  2.33D-01  1.53D+00
                    CP: -2.09D-01  4.30D-01  1.86D+00  3.17D-01 -1.66D+00
                    CP: -1.25D-02  1.28D+00
 E= -2555.89638557478     Delta-E=       -0.000016952470 Rises=F Damp=F
 DIIS: error= 2.25D-05 at cycle  33 NSaved=   8.
 NSaved= 8 IEnMin= 5 EnMin= -2555.89640713571     IErMin= 6 ErrMin= 2.11D-05
 ErrMax= 2.25D-05  0.00D+00 EMaxC= 1.00D-01 BMatC= 1.94D-06 BMatP= 8.81D-07
 IDIUse=1 WtCom= 1.00D+00 WtEn= 0.00D+00
 Large coefficients: NSaved=  8 BigCof=   11.15 CofMax=   10.00 Det=-9.63D-11
 Inversion failed.  Reducing to  7 matrices.
 Coeff-Com: -0.151D+01 0.244D+00 0.146D+01 0.208D+01-0.588D+00 0.164D+00
 Coeff-Com: -0.847D+00
 Coeff:     -0.151D+01 0.244D+00 0.146D+01 0.208D+01-0.588D+00 0.164D+00
 Coeff:     -0.847D+00
 Gap=     0.361 Goal=   None    Shift=    0.000
 Gap=     0.122 Goal=   None    Shift=    0.000
 RMSDP=1.62D-05 MaxDP=1.94D-03 DE=-1.70D-05 OVMax= 1.02D-02

 Cycle  34  Pass 1  IDiag  1:
 RMSU=  1.15D-07    CP:  1.00D+00  2.86D-01 -7.23D-01 -1.25D-01 -1.05D+00
                    CP:  2.91D-01  2.02D-01 -2.64D+00 -1.47D+00  1.71D+00
                    CP:  4.39D-01  1.30D+00 -1.79D-01
 E= -2555.89639744776     Delta-E=       -0.000011872985 Rises=F Damp=F
 DIIS: error= 2.18D-05 at cycle  34 NSaved=   8.
 NSaved= 8 IEnMin= 5 EnMin= -2555.89640713571     IErMin= 6 ErrMin= 2.11D-05
 ErrMax= 2.18D-05  0.00D+00 EMaxC= 1.00D-01 BMatC= 1.95D-06 BMatP= 8.81D-07
 IDIUse=1 WtCom= 1.00D+00 WtEn= 0.00D+00
 Coeff-Com: -0.217D+01 0.261D+00 0.194D+01 0.139D+01 0.238D+00 0.536D+00
 Coeff-Com:  0.374D+00-0.157D+01
 Coeff:     -0.217D+01 0.261D+00 0.194D+01 0.139D+01 0.238D+00 0.536D+00
 Coeff:      0.374D+00-0.157D+01
 Gap=     0.361 Goal=   None    Shift=    0.000
 Gap=     0.122 Goal=   None    Shift=    0.000
 RMSDP=2.98D-05 MaxDP=3.70D-03 DE=-1.19D-05 OVMax= 1.91D-02

 Cycle  35  Pass 1  IDiag  1:
 RMSU=  8.03D-08    CP:  1.00D+00  9.42D-01 -6.11D-01  2.18D-01  9.38D-01
                    CP:  1.75D-03 -4.22D-01  1.05D+00 -2.68D-01 -2.96D-02
                    CP:  1.69D-01  3.00D+00  1.78D-02 -6.68D-01
 E= -2555.89637593819     Delta-E=        0.000021509569 Rises=F Damp=F
 DIIS: error= 2.20D-05 at cycle  35 NSaved=   9.
 NSaved= 9 IEnMin= 5 EnMin= -2555.89640713571     IErMin= 6 ErrMin= 2.11D-05
 ErrMax= 2.20D-05  0.00D+00 EMaxC= 1.00D-01 BMatC= 1.93D-06 BMatP= 8.81D-07
 IDIUse=1 WtCom= 1.00D+00 WtEn= 0.00D+00
 Coeff-Com: -0.376D+01-0.205D-01 0.292D+01 0.469D+00 0.224D+01 0.891D+00
 Coeff-Com:  0.294D+00-0.283D+01 0.800D+00
 Coeff:     -0.376D+01-0.205D-01 0.292D+01 0.469D+00 0.224D+01 0.891D+00
 Coeff:      0.294D+00-0.283D+01 0.800D+00
 Gap=     0.361 Goal=   None    Shift=    0.000
 Gap=     0.122 Goal=   None    Shift=    0.000
 RMSDP=2.37D-05 MaxDP=3.00D-03 DE= 2.15D-05 OVMax= 1.52D-02

 Cycle  36  Pass 1  IDiag  1:
 RMSU=  8.12D-08    CP:  1.00D+00  1.46D+00  3.00D+00  5.04D-01  1.04D+00
                    CP: -2.39D-02 -6.94D-01  2.42D+00 -4.38D-01  1.94D-01
                    CP:  2.92D-01  3.00D+00  5.10D-01 -1.34D+00  1.77D+00
 E= -2555.89635960218     Delta-E=        0.000016336010 Rises=F Damp=F
 DIIS: error= 2.21D-05 at cycle  36 NSaved=  10.
 NSaved=10 IEnMin= 5 EnMin= -2555.89640713571     IErMin= 6 ErrMin= 2.11D-05
 ErrMax= 2.21D-05  0.00D+00 EMaxC= 1.00D-01 BMatC= 1.90D-06 BMatP= 8.81D-07
 IDIUse=1 WtCom= 1.00D+00 WtEn= 0.00D+00
 Coeff-Com: -0.691D+01-0.204D+00 0.448D+01 0.374D+00 0.440D+01 0.750D+00
 Coeff-Com: -0.143D+01-0.160D+01-0.834D+00 0.197D+01
 Coeff:     -0.691D+01-0.204D+00 0.448D+01 0.374D+00 0.440D+01 0.750D+00
 Coeff:     -0.143D+01-0.160D+01-0.834D+00 0.197D+01
 Gap=     0.361 Goal=   None    Shift=    0.000
 Gap=     0.122 Goal=   None    Shift=    0.000
 RMSDP=2.00D-05 MaxDP=2.65D-03 DE= 1.63D-05 OVMax= 1.33D-02

 Cycle  37  Pass 1  IDiag  1:
 RMSU=  1.42D-07    CP:  1.00D+00  1.90D+00  3.00D+00  1.72D+00 -3.00D+00
                    CP:  7.79D-01  3.95D-01 -1.04D+00  2.37D+00  3.00D+00
                    CP:  4.35D-01 -1.09D+00  5.15D-01 -8.56D-01  1.52D+00
                    CP:  5.35D-01
 E= -2555.89634686354     Delta-E=        0.000012738642 Rises=F Damp=F
 DIIS: error= 2.27D-05 at cycle  37 NSaved=  11.
 NSaved=11 IEnMin= 5 EnMin= -2555.89640713571     IErMin= 6 ErrMin= 2.11D-05
 ErrMax= 2.27D-05  0.00D+00 EMaxC= 1.00D-01 BMatC= 1.68D-06 BMatP= 8.81D-07
 IDIUse=1 WtCom= 1.00D+00 WtEn= 0.00D+00
 Coeff-Com: -0.676D+01 0.231D+00 0.405D+01 0.162D+01 0.278D+01-0.196D+01
 Coeff-Com: -0.352D+01 0.357D+01-0.510D+01 0.336D+01 0.273D+01
 Coeff:     -0.676D+01 0.231D+00 0.405D+01 0.162D+01 0.278D+01-0.196D+01
 Coeff:     -0.352D+01 0.357D+01-0.510D+01 0.336D+01 0.273D+01
 Gap=     0.361 Goal=   None    Shift=    0.000
 Gap=     0.122 Goal=   None    Shift=    0.000
 RMSDP=2.44D-05 MaxDP=3.39D-03 DE= 1.27D-05 OVMax= 1.74D-02

 Cycle  38  Pass 1  IDiag  1:
 RMSU=  2.41D-06    CP:  1.00D+00  2.42D+00  3.00D+00  3.00D+00 -3.00D+00
                    CP:  3.00D+00  3.00D+00  3.00D+00  3.00D+00 -2.97D+00
                    CP: -5.73D-01  3.00D+00 -4.92D-01 -2.95D+00  1.08D+00
                    CP:  3.00D+00  1.63D-01
 E= -2555.89633278276     Delta-E=        0.000014080787 Rises=F Damp=F
 DIIS: error= 2.27D-05 at cycle  38 NSaved=  12.
 NSaved=12 IEnMin= 5 EnMin= -2555.89640713571     IErMin= 6 ErrMin= 2.11D-05
 ErrMax= 2.27D-05  0.00D+00 EMaxC= 1.00D-01 BMatC= 2.09D-06 BMatP= 8.81D-07
 IDIUse=1 WtCom= 1.00D+00 WtEn= 0.00D+00
 Coeff-Com: -0.415D+01-0.257D+00 0.307D+01-0.594D+00 0.350D+01-0.367D+01
 Coeff-Com: -0.234D+01 0.232D+01-0.348D+01 0.467D+01 0.794D+00 0.114D+01
 Coeff:     -0.415D+01-0.257D+00 0.307D+01-0.594D+00 0.350D+01-0.367D+01
 Coeff:     -0.234D+01 0.232D+01-0.348D+01 0.467D+01 0.794D+00 0.114D+01
 Gap=     0.362 Goal=   None    Shift=    0.000
 Gap=     0.121 Goal=   None    Shift=    0.000
 RMSDP=8.27D-06 MaxDP=1.09D-03 DE= 1.41D-05 OVMax= 5.74D-03

 Cycle  39  Pass 1  IDiag  1:
 RMSU=  1.07D-06    CP:  1.00D+00  2.60D+00  3.00D+00  3.00D+00 -3.00D+00
                    CP:  3.00D+00  3.00D+00  3.00D+00  3.00D+00 -3.00D+00
                    CP: -1.38D+00  3.00D+00 -1.04D+00 -3.00D+00  2.31D+00
                    CP:  3.00D+00  9.30D-01  1.49D+00
 E= -2555.89632770532     Delta-E=        0.000005077432 Rises=F Damp=F
 DIIS: error= 2.52D-05 at cycle  39 NSaved=  13.
 NSaved=13 IEnMin= 5 EnMin= -2555.89640713571     IErMin= 6 ErrMin= 2.11D-05
 ErrMax= 2.52D-05  0.00D+00 EMaxC= 1.00D-01 BMatC= 2.75D-06 BMatP= 8.81D-07
 IDIUse=1 WtCom= 1.00D+00 WtEn= 0.00D+00
 Coeff-Com: -0.286D+01-0.617D+00 0.252D+01-0.178D+01 0.405D+01-0.560D+01
 Coeff-Com: -0.246D+01 0.320D+01-0.434D+01 0.710D+01 0.106D+00 0.369D+00
 Coeff-Com:  0.132D+01
 Coeff:     -0.286D+01-0.617D+00 0.252D+01-0.178D+01 0.405D+01-0.560D+01
 Coeff:     -0.246D+01 0.320D+01-0.434D+01 0.710D+01 0.106D+00 0.369D+00
 Coeff:      0.132D+01
 Gap=     0.362 Goal=   None    Shift=    0.000
 Gap=     0.121 Goal=   None    Shift=    0.000
 RMSDP=2.20D-05 MaxDP=2.87D-03 DE= 5.08D-06 OVMax= 1.55D-02

 Cycle  40  Pass 1  IDiag  1:
 RMSU=  3.52D-06    CP:  1.00D+00  3.00D+00  3.00D+00  3.00D+00 -3.00D+00
                    CP:  3.00D+00  3.00D+00  3.00D+00  3.00D+00 -3.00D+00
                    CP: -2.87D+00  3.00D+00 -1.68D+00 -3.00D+00  3.00D+00
                    CP:  3.00D+00  1.72D+00  2.90D+00  3.00D+00
 E= -2555.89631480375     Delta-E=        0.000012901573 Rises=F Damp=F
 DIIS: error= 3.38D-05 at cycle  40 NSaved=  14.
 NSaved=14 IEnMin= 5 EnMin= -2555.89640713571     IErMin= 6 ErrMin= 2.11D-05
 ErrMax= 3.38D-05  0.00D+00 EMaxC= 1.00D-01 BMatC= 3.64D-06 BMatP= 8.81D-07
 IDIUse=1 WtCom= 1.00D+00 WtEn= 0.00D+00
 Coeff-Com: -0.470D+01-0.474D+00 0.327D+01-0.108D+01 0.442D+01-0.473D+01
 Coeff-Com: -0.350D+01 0.456D+01-0.606D+01 0.710D+01 0.152D+01-0.136D+01
 Coeff-Com:  0.115D+01 0.890D+00
 Coeff:     -0.470D+01-0.474D+00 0.327D+01-0.108D+01 0.442D+01-0.473D+01
 Coeff:     -0.350D+01 0.456D+01-0.606D+01 0.710D+01 0.152D+01-0.136D+01
 Coeff:      0.115D+01 0.890D+00
 Gap=     0.362 Goal=   None    Shift=    0.000
 Gap=     0.121 Goal=   None    Shift=    0.000
 RMSDP=8.54D-06 MaxDP=1.11D-03 DE= 1.29D-05 OVMax= 5.97D-03

 Cycle  41  Pass 1  IDiag  1:
 Restarting incremental Fock formation.
 E= -2555.89630976348     Delta-E=        0.000005040268 Rises=F Damp=F
 DIIS: error= 3.69D-05 at cycle  41 NSaved=  15.
 NSaved=15 IEnMin= 5 EnMin= -2555.89640713571     IErMin= 6 ErrMin= 2.11D-05
 ErrMax= 3.69D-05  0.00D+00 EMaxC= 1.00D-01 BMatC= 4.45D-06 BMatP= 8.81D-07
 IDIUse=1 WtCom= 1.00D+00 WtEn= 0.00D+00
 Coeff-Com: -0.375D+01-0.533D+00 0.282D+01-0.134D+01 0.414D+01-0.577D+01
 Coeff-Com: -0.338D+01 0.490D+01-0.615D+01 0.772D+01 0.113D+01-0.810D+00
 Coeff-Com:  0.142D+01 0.103D+01-0.412D+00
 Coeff:     -0.375D+01-0.533D+00 0.282D+01-0.134D+01 0.414D+01-0.577D+01
 Coeff:     -0.338D+01 0.490D+01-0.615D+01 0.772D+01 0.113D+01-0.810D+00
 Coeff:      0.142D+01 0.103D+01-0.412D+00
 Gap=     0.362 Goal=   None    Shift=    0.000
 Gap=     0.121 Goal=   None    Shift=    0.000
 RMSDP=1.86D-06 MaxDP=2.61D-04 DE= 5.04D-06 OVMax= 1.36D-03

 Cycle  42  Pass 1  IDiag  1:
 RMSU=  1.86D-06    CP:  1.00D+00
 E= -2555.89630905270     Delta-E=        0.000000710779 Rises=F Damp=F
 DIIS: error= 3.80D-05 at cycle  42 NSaved=  16.
 NSaved=16 IEnMin= 5 EnMin= -2555.89640713571     IErMin= 6 ErrMin= 2.11D-05
 ErrMax= 3.80D-05  0.00D+00 EMaxC= 1.00D-01 BMatC= 4.66D-06 BMatP= 8.81D-07
 IDIUse=1 WtCom= 1.00D+00 WtEn= 0.00D+00
 Large coefficients: NSaved= 16 BigCof=   13.70 CofMax=   10.00 Det=-2.68D-10
 Inversion failed.  Reducing to 15 matrices.
 Coeff-Com: -0.402D+01-0.529D+00 0.301D+01-0.137D+01 0.432D+01-0.397D+01
 Coeff-Com: -0.262D+01 0.268D+01-0.421D+01 0.620D+01 0.729D+00-0.632D+00
 Coeff-Com:  0.957D+00-0.678D+00 0.114D+01
 Coeff:     -0.402D+01-0.529D+00 0.301D+01-0.137D+01 0.432D+01-0.397D+01
 Coeff:     -0.262D+01 0.268D+01-0.421D+01 0.620D+01 0.729D+00-0.632D+00
 Coeff:      0.957D+00-0.678D+00 0.114D+01
 Gap=     0.362 Goal=   None    Shift=    0.000
 Gap=     0.121 Goal=   None    Shift=    0.000
 RMSDP=1.03D-05 MaxDP=1.42D-03 DE= 7.11D-07 OVMax= 7.39D-03

 Cycle  43  Pass 1  IDiag  1:
 RMSU=  4.17D-06    CP:  1.00D+00 -3.00D+00
 E= -2555.89631480740     Delta-E=       -0.000005754699 Rises=F Damp=F
 DIIS: error= 3.06D-05 at cycle  43 NSaved=  16.
 NSaved=16 IEnMin= 5 EnMin= -2555.89640713571     IErMin= 6 ErrMin= 2.11D-05
 ErrMax= 3.06D-05  0.00D+00 EMaxC= 1.00D-01 BMatC= 3.18D-06 BMatP= 8.81D-07
 IDIUse=1 WtCom= 1.00D+00 WtEn= 0.00D+00
 Large coefficients: NSaved= 16 BigCof=   21.61 CofMax=   10.00 Det=-1.67D-10
 Inversion failed.  Reducing to 15 matrices.
 Coeff-Com: -0.525D+01-0.435D+00 0.355D+01-0.960D+00 0.459D+01-0.402D+01
 Coeff-Com: -0.341D+01 0.408D+01-0.571D+01 0.653D+01 0.160D+01-0.148D+01
 Coeff-Com:  0.933D+00 0.389D+00 0.586D+00
 Coeff:     -0.525D+01-0.435D+00 0.355D+01-0.960D+00 0.459D+01-0.402D+01
 Coeff:     -0.341D+01 0.408D+01-0.571D+01 0.653D+01 0.160D+01-0.148D+01
 Coeff:      0.933D+00 0.389D+00 0.586D+00
 Gap=     0.362 Goal=   None    Shift=    0.000
 Gap=     0.121 Goal=   None    Shift=    0.000
 RMSDP=6.89D-06 MaxDP=9.11D-04 DE=-5.75D-06 OVMax= 4.80D-03

 Cycle  44  Pass 1  IDiag  1:
 RMSU=  2.02D-07    CP:  1.00D+00 -9.22D-01  7.43D-02
 E= -2555.89631062860     Delta-E=        0.000004178802 Rises=F Damp=F
 DIIS: error= 3.57D-05 at cycle  44 NSaved=  16.
 NSaved=16 IEnMin= 5 EnMin= -2555.89640713571     IErMin= 6 ErrMin= 2.11D-05
 ErrMax= 3.57D-05  0.00D+00 EMaxC= 1.00D-01 BMatC= 4.24D-06 BMatP= 8.81D-07
 IDIUse=1 WtCom= 1.00D+00 WtEn= 0.00D+00
 Large coefficients: NSaved= 16 BigCof=   17.96 CofMax=   10.00 Det=-2.75D-10
 Inversion failed.  Reducing to 15 matrices.
 Coeff-Com: -0.411D+01-0.512D+00 0.304D+01-0.131D+01 0.429D+01-0.531D+01
 Coeff-Com: -0.321D+01 0.440D+01-0.571D+01 0.724D+01 0.104D+01-0.664D+00
 Coeff-Com:  0.124D+01 0.621D+00-0.411D-01
 Coeff:     -0.411D+01-0.512D+00 0.304D+01-0.131D+01 0.429D+01-0.531D+01
 Coeff:     -0.321D+01 0.440D+01-0.571D+01 0.724D+01 0.104D+01-0.664D+00
 Coeff:      0.124D+01 0.621D+00-0.411D-01
 Gap=     0.362 Goal=   None    Shift=    0.000
 Gap=     0.121 Goal=   None    Shift=    0.000
 RMSDP=9.92D-07 MaxDP=1.25D-04 DE= 4.18D-06 OVMax= 6.01D-04

 Cycle  45  Pass 1  IDiag  1:
 RMSU=  1.07D-07    CP:  1.00D+00 -4.39D-01  1.56D-01  2.11D+00
 E= -2555.89631043789     Delta-E=        0.000000190705 Rises=F Damp=F
 DIIS: error= 3.74D-05 at cycle  45 NSaved=  16.
 NSaved=16 IEnMin= 5 EnMin= -2555.89640713571     IErMin= 6 ErrMin= 2.11D-05
 ErrMax= 3.74D-05  0.00D+00 EMaxC= 1.00D-01 BMatC= 4.52D-06 BMatP= 8.81D-07
 IDIUse=1 WtCom= 1.00D+00 WtEn= 0.00D+00
 Large coefficients: NSaved= 16 BigCof=   12.26 CofMax=   10.00 Det=-2.83D-10
 Inversion failed.  Reducing to 15 matrices.
 Coeff-Com: -0.455D+01-0.508D+00 0.326D+01-0.123D+01 0.450D+01-0.387D+01
 Coeff-Com: -0.289D+01 0.303D+01-0.463D+01 0.625D+01 0.103D+01-0.927D+00
 Coeff-Com:  0.902D+00-0.225D+00 0.856D+00
 Coeff:     -0.455D+01-0.508D+00 0.326D+01-0.123D+01 0.450D+01-0.387D+01
 Coeff:     -0.289D+01 0.303D+01-0.463D+01 0.625D+01 0.103D+01-0.927D+00
 Coeff:      0.902D+00-0.225D+00 0.856D+00
 Gap=     0.362 Goal=   None    Shift=    0.000
 Gap=     0.121 Goal=   None    Shift=    0.000
 RMSDP=7.35D-06 MaxDP=1.02D-03 DE= 1.91D-07 OVMax= 5.33D-03

 Cycle  46  Pass 1  IDiag  1:
 RMSU=  6.61D-08    CP:  1.00D+00 -3.00D+00  8.87D-01 -1.44D+00  1.17D+00
 E= -2555.89631441393     Delta-E=       -0.000003976037 Rises=F Damp=F
 DIIS: error= 3.25D-05 at cycle  46 NSaved=  16.
 NSaved=16 IEnMin= 5 EnMin= -2555.89640713571     IErMin= 6 ErrMin= 2.11D-05
 ErrMax= 3.25D-05  0.00D+00 EMaxC= 1.00D-01 BMatC= 3.47D-06 BMatP= 8.81D-07
 IDIUse=1 WtCom= 1.00D+00 WtEn= 0.00D+00
 Large coefficients: NSaved= 16 BigCof=   14.89 CofMax=   10.00 Det=-1.91D-10
 Inversion failed.  Reducing to 15 matrices.
 Coeff-Com: -0.515D+01-0.459D+00 0.353D+01-0.104D+01 0.463D+01-0.404D+01
 Coeff-Com: -0.331D+01 0.386D+01-0.547D+01 0.651D+01 0.146D+01-0.131D+01
 Coeff-Com:  0.925D+00 0.413D+00 0.459D+00
 Coeff:     -0.515D+01-0.459D+00 0.353D+01-0.104D+01 0.463D+01-0.404D+01
 Coeff:     -0.331D+01 0.386D+01-0.547D+01 0.651D+01 0.146D+01-0.131D+01
 Coeff:      0.925D+00 0.413D+00 0.459D+00
 Gap=     0.362 Goal=   None    Shift=    0.000
 Gap=     0.121 Goal=   None    Shift=    0.000
 RMSDP=3.48D-06 MaxDP=4.62D-04 DE=-3.98D-06 OVMax= 2.41D-03

 Cycle  47  Pass 1  IDiag  1:
 RMSU=  1.23D-07    CP:  1.00D+00 -2.55D+00  2.67D-01  3.00D+00  1.61D+00
                    CP: -4.19D-01
 E= -2555.89631222997     Delta-E=        0.000002183966 Rises=F Damp=F
 DIIS: error= 3.56D-05 at cycle  47 NSaved=  16.
 NSaved=16 IEnMin= 5 EnMin= -2555.89640713571     IErMin= 6 ErrMin= 2.11D-05
 ErrMax= 3.56D-05  0.00D+00 EMaxC= 1.00D-01 BMatC= 4.16D-06 BMatP= 8.81D-07
 IDIUse=1 WtCom= 1.00D+00 WtEn= 0.00D+00
 Large coefficients: NSaved= 16 BigCof=   23.69 CofMax=   10.00 Det=-2.88D-10
 Inversion failed.  Reducing to 15 matrices.
 Coeff-Com: -0.354D+01-0.552D+00 0.279D+01-0.151D+01 0.416D+01-0.567D+01
 Coeff-Com: -0.297D+01 0.416D+01-0.535D+01 0.736D+01 0.681D+00-0.235D+00
 Coeff-Com:  0.134D+01 0.719D+00-0.376D+00
 Coeff:     -0.354D+01-0.552D+00 0.279D+01-0.151D+01 0.416D+01-0.567D+01
 Coeff:     -0.297D+01 0.416D+01-0.535D+01 0.736D+01 0.681D+00-0.235D+00
 Coeff:      0.134D+01 0.719D+00-0.376D+00
 Gap=     0.362 Goal=   None    Shift=    0.000
 Gap=     0.121 Goal=   None    Shift=    0.000
 RMSDP=2.12D-06 MaxDP=2.86D-04 DE= 2.18D-06 OVMax= 1.46D-03

 Cycle  48  Pass 1  IDiag  1:
 RMSU=  7.74D-08    CP:  1.00D+00 -1.44D+00  3.59D-01  3.00D+00  1.88D+00
                    CP: -7.11D-01  2.91D+00
 E= -2555.89631167071     Delta-E=        0.000000559255 Rises=F Damp=F
 DIIS: error= 3.68D-05 at cycle  48 NSaved=  16.
 NSaved=16 IEnMin= 5 EnMin= -2555.89640713571     IErMin= 6 ErrMin= 2.11D-05
 ErrMax= 3.68D-05  0.00D+00 EMaxC= 1.00D-01 BMatC= 4.38D-06 BMatP= 8.81D-07
 IDIUse=1 WtCom= 1.00D+00 WtEn= 0.00D+00
 Large coefficients: NSaved= 16 BigCof=   10.46 CofMax=   10.00 Det=-2.85D-10
 Inversion failed.  Reducing to 15 matrices.
 Coeff-Com: -0.455D+01-0.505D+00 0.323D+01-0.117D+01 0.445D+01-0.381D+01
 Coeff-Com: -0.298D+01 0.317D+01-0.481D+01 0.632D+01 0.117D+01-0.114D+01
 Coeff-Com:  0.917D+00-0.523D+00 0.125D+01
 Coeff:     -0.455D+01-0.505D+00 0.323D+01-0.117D+01 0.445D+01-0.381D+01
 Coeff:     -0.298D+01 0.317D+01-0.481D+01 0.632D+01 0.117D+01-0.114D+01
 Coeff:      0.917D+00-0.523D+00 0.125D+01
 Gap=     0.362 Goal=   None    Shift=    0.000
 Gap=     0.121 Goal=   None    Shift=    0.000
 RMSDP=2.88D-06 MaxDP=4.18D-04 DE= 5.59D-07 OVMax= 2.06D-03

 Cycle  49  Pass 1  IDiag  1:
 RMSU=  2.26D-07    CP:  1.00D+00 -2.96D+00  4.52D-01  3.00D+00 -1.25D+00
                    CP: -2.83D+00  3.00D+00  1.09D+00
 E= -2555.89631324128     Delta-E=       -0.000001570564 Rises=F Damp=F
 DIIS: error= 3.21D-05 at cycle  49 NSaved=  16.
 NSaved=16 IEnMin= 5 EnMin= -2555.89640713571     IErMin= 6 ErrMin= 2.11D-05
 ErrMax= 3.21D-05  0.00D+00 EMaxC= 1.00D-01 BMatC= 3.37D-06 BMatP= 8.81D-07
 IDIUse=1 WtCom= 1.00D+00 WtEn= 0.00D+00
 Large coefficients: NSaved= 16 BigCof=   13.82 CofMax=   10.00 Det=-2.90D-10
 Inversion failed.  Reducing to 15 matrices.
 Coeff-Com: -0.548D+01-0.433D+00 0.366D+01-0.910D+00 0.469D+01-0.367D+01
 Coeff-Com: -0.342D+01 0.387D+01-0.559D+01 0.635D+01 0.169D+01-0.165D+01
 Coeff-Com:  0.850D+00 0.655D+00 0.379D+00
 Coeff:     -0.548D+01-0.433D+00 0.366D+01-0.910D+00 0.469D+01-0.367D+01
 Coeff:     -0.342D+01 0.387D+01-0.559D+01 0.635D+01 0.169D+01-0.165D+01
 Coeff:      0.850D+00 0.655D+00 0.379D+00
 Gap=     0.362 Goal=   None    Shift=    0.000
 Gap=     0.121 Goal=   None    Shift=    0.000
 RMSDP=2.38D-06 MaxDP=2.93D-04 DE=-1.57D-06 OVMax= 1.50D-03

 Cycle  50  Pass 1  IDiag  1:
 RMSU=  2.92D-09    CP:  1.00D+00 -1.95D+00  1.59D-01  2.12D+00  4.09D-01
                    CP: -4.07D-01  3.63D-02 -2.29D-01  2.36D-03
 E= -2555.89631157433     Delta-E=        0.000001666943 Rises=F Damp=F
 DIIS: error= 3.50D-05 at cycle  50 NSaved=  16.
 NSaved=16 IEnMin= 5 EnMin= -2555.89640713571     IErMin= 6 ErrMin= 2.11D-05
 ErrMax= 3.50D-05  0.00D+00 EMaxC= 1.00D-01 BMatC= 4.07D-06 BMatP= 8.81D-07
 IDIUse=1 WtCom= 1.00D+00 WtEn= 0.00D+00
 Coeff-Com:  0.529D-01-0.626D+00 0.604D+00-0.160D+01 0.232D+01-0.673D+01
 Coeff-Com: -0.315D+01 0.545D+01-0.662D+01 0.899D+01 0.921D+00-0.156D+01
 Coeff-Com:  0.225D+01 0.663D+01 0.334D+01-0.927D+01
 Coeff:      0.529D-01-0.626D+00 0.604D+00-0.160D+01 0.232D+01-0.673D+01
 Coeff:     -0.315D+01 0.545D+01-0.662D+01 0.899D+01 0.921D+00-0.156D+01
 Coeff:      0.225D+01 0.663D+01 0.334D+01-0.927D+01
 Gap=     0.362 Goal=   None    Shift=    0.000
 Gap=     0.121 Goal=   None    Shift=    0.000
 RMSDP=3.42D-05 MaxDP=4.66D-03 DE= 1.67D-06 OVMax= 2.52D-02

 Cycle  51  Pass 1  IDiag  1:
 RMSU=  1.70D-05    CP:  1.00D+00  3.00D+00 -3.00D+00  3.00D+00 -3.00D+00
                    CP: -3.00D+00  3.00D+00  3.00D+00  3.00D+00 -3.00D+00
 E= -2555.89629796359     Delta-E=        0.000013610746 Rises=F Damp=F
 DIIS: error= 2.29D-05 at cycle  51 NSaved=  17.
 NSaved=17 IEnMin= 5 EnMin= -2555.89640713571     IErMin= 6 ErrMin= 2.11D-05
 ErrMax= 2.29D-05  0.00D+00 EMaxC= 1.00D-01 BMatC= 1.99D-06 BMatP= 8.81D-07
 IDIUse=1 WtCom= 1.00D+00 WtEn= 0.00D+00
 Coeff-Com: -0.333D+01 0.667D-01 0.199D+01 0.167D+00 0.191D+01 0.236D+01
 Coeff-Com: -0.120D+01-0.493D+00-0.216D+01 0.170D+01 0.115D+01-0.402D+01
 Coeff-Com:  0.475D+00 0.578D+01 0.216D+01-0.775D+01 0.219D+01
 Coeff:     -0.333D+01 0.667D-01 0.199D+01 0.167D+00 0.191D+01 0.236D+01
 Coeff:     -0.120D+01-0.493D+00-0.216D+01 0.170D+01 0.115D+01-0.402D+01
 Coeff:      0.475D+00 0.578D+01 0.216D+01-0.775D+01 0.219D+01
 Gap=     0.362 Goal=   None    Shift=    0.000
 Gap=     0.123 Goal=   None    Shift=    0.000
 RMSDP=6.30D-05 MaxDP=8.19D-03 DE= 1.36D-05 OVMax= 4.12D-02

 Cycle  52  Pass 1  IDiag  1:
 RMSU=  3.75D-05    CP:  1.00D+00  3.00D+00 -3.00D+00  3.00D+00 -3.00D+00
                    CP: -3.00D+00  3.00D+00  3.00D+00  3.00D+00 -3.00D+00
                    CP:  3.00D+00
 E= -2555.89627223433     Delta-E=        0.000025729251 Rises=F Damp=F
 DIIS: error= 6.27D-05 at cycle  52 NSaved=  18.
 NSaved=18 IEnMin= 5 EnMin= -2555.89640713571     IErMin= 6 ErrMin= 2.11D-05
 ErrMax= 6.27D-05  0.00D+00 EMaxC= 1.00D-01 BMatC= 8.65D-06 BMatP= 8.81D-07
 IDIUse=1 WtCom= 1.00D+00 WtEn= 0.00D+00
 Large coefficients: NSaved= 18 BigCof=   10.41 CofMax=   10.00 Det=-2.37D-10
 Inversion failed.  Reducing to 17 matrices.
 Coeff-Com: -0.840D+01 0.267D+00 0.484D+01 0.814D+00 0.398D+01 0.457D+01
 Coeff-Com: -0.118D+01-0.200D+01-0.107D+01-0.565D+00 0.127D+01-0.355D+01
 Coeff-Com: -0.581D+00 0.777D+00-0.456D+00 0.211D+01 0.165D+00
 Coeff:     -0.840D+01 0.267D+00 0.484D+01 0.814D+00 0.398D+01 0.457D+01
 Coeff:     -0.118D+01-0.200D+01-0.107D+01-0.565D+00 0.127D+01-0.355D+01
 Coeff:     -0.581D+00 0.777D+00-0.456D+00 0.211D+01 0.165D+00
 Gap=     0.362 Goal=   None    Shift=    0.000
 Gap=     0.124 Goal=   None    Shift=    0.000
 RMSDP=4.16D-06 MaxDP=4.06D-04 DE= 2.57D-05 OVMax= 2.95D-03

 Cycle  53  Pass 1  IDiag  1:
 RMSU=  4.06D-06    CP:  1.00D+00  3.00D+00 -3.00D+00  3.00D+00 -3.00D+00
                    CP: -3.00D+00  3.00D+00  3.00D+00  3.00D+00 -3.00D+00
                    CP:  3.00D+00  1.02D+00
 E= -2555.89627178911     Delta-E=        0.000000445220 Rises=F Damp=F
 DIIS: error= 5.28D-05 at cycle  53 NSaved=  18.
 NSaved=18 IEnMin= 5 EnMin= -2555.89640713571     IErMin= 6 ErrMin= 2.11D-05
 ErrMax= 5.28D-05  0.00D+00 EMaxC= 1.00D-01 BMatC= 6.95D-06 BMatP= 8.81D-07
 IDIUse=1 WtCom= 1.00D+00 WtEn= 0.00D+00
 Coeff-Com:  0.432D+00 0.138D+00 0.195D+00-0.101D+01 0.781D+00 0.177D+01
 Coeff-Com:  0.375D-01-0.147D+00-0.162D+01 0.218D+00-0.619D+00 0.128D+00
 Coeff-Com: -0.449D+00-0.110D+01-0.191D+01 0.384D+01-0.389D+01 0.421D+01
 Coeff:      0.432D+00 0.138D+00 0.195D+00-0.101D+01 0.781D+00 0.177D+01
 Coeff:      0.375D-01-0.147D+00-0.162D+01 0.218D+00-0.619D+00 0.128D+00
 Coeff:     -0.449D+00-0.110D+01-0.191D+01 0.384D+01-0.389D+01 0.421D+01
 Gap=     0.362 Goal=   None    Shift=    0.000
 Gap=     0.123 Goal=   None    Shift=    0.000
 RMSDP=3.00D-05 MaxDP=4.01D-03 DE= 4.45D-07 OVMax= 2.15D-02

 Cycle  54  Pass 1  IDiag  1:
 RMSU=  5.72D-06    CP:  1.00D+00  3.00D+00 -3.00D+00  3.00D+00 -3.00D+00
                    CP: -3.00D+00  3.00D+00  3.00D+00  3.00D+00 -3.00D+00
                    CP:  3.00D+00  1.66D+00 -3.00D+00
 E= -2555.89626532378     Delta-E=        0.000006465331 Rises=F Damp=F
 DIIS: error= 1.97D-05 at cycle  54 NSaved=  19.
 NSaved=19 IEnMin= 5 EnMin= -2555.89640713571     IErMin=19 ErrMin= 1.97D-05
 ErrMax= 1.97D-05  0.00D+00 EMaxC= 1.00D-01 BMatC= 1.33D-06 BMatP= 8.81D-07
 IDIUse=1 WtCom= 1.00D+00 WtEn= 0.00D+00
 Coeff-Com:  0.606D+01-0.744D-01-0.253D+01-0.247D+01-0.112D+01 0.346D+01
 Coeff-Com:  0.179D+01-0.303D+01 0.201D+01-0.160D+01-0.243D+01 0.111D+01
 Coeff-Com: -0.586D+00-0.225D+01-0.233D+01 0.461D+01-0.583D+01 0.573D+01
 Coeff-Com:  0.497D+00
 Coeff:      0.606D+01-0.744D-01-0.253D+01-0.247D+01-0.112D+01 0.346D+01
 Coeff:      0.179D+01-0.303D+01 0.201D+01-0.160D+01-0.243D+01 0.111D+01
 Coeff:     -0.586D+00-0.225D+01-0.233D+01 0.461D+01-0.583D+01 0.573D+01
 Coeff:      0.497D+00
 Gap=     0.362 Goal=   None    Shift=    0.000
 Gap=     0.121 Goal=   None    Shift=    0.000
 RMSDP=1.29D-05 MaxDP=1.39D-03 DE= 6.47D-06 OVMax= 6.94D-03

 Cycle  55  Pass 1  IDiag  1:
 RMSU=  2.55D-06    CP:  1.00D+00  3.00D+00 -3.00D+00  3.00D+00 -3.00D+00
                    CP: -3.00D+00  3.00D+00  3.00D+00  3.00D+00 -3.00D+00
                    CP:  3.00D+00  1.34D+00 -3.00D+00  1.54D+00
 E= -2555.89627005102     Delta-E=       -0.000004727232 Rises=F Damp=F
 DIIS: error= 3.07D-05 at cycle  55 NSaved=  20.
 NSaved=20 IEnMin= 5 EnMin= -2555.89640713571     IErMin=19 ErrMin= 1.97D-05
 ErrMax= 3.07D-05  0.00D+00 EMaxC= 1.00D-01 BMatC= 2.92D-06 BMatP= 8.81D-07
 IDIUse=1 WtCom= 1.00D+00 WtEn= 0.00D+00
 Coeff-Com:  0.564D+01-0.143D+00-0.210D+01-0.946D+00-0.263D+01 0.349D+01
 Coeff-Com:  0.127D+01-0.247D+01 0.109D+01-0.909D+00-0.160D+01 0.343D+00
 Coeff-Com: -0.782D+00-0.168D+01-0.132D+01 0.258D+01-0.368D+01 0.419D+01
 Coeff-Com: -0.759D+00 0.140D+01
 Coeff:      0.564D+01-0.143D+00-0.210D+01-0.946D+00-0.263D+01 0.349D+01
 Coeff:      0.127D+01-0.247D+01 0.109D+01-0.909D+00-0.160D+01 0.343D+00
 Coeff:     -0.782D+00-0.168D+01-0.132D+01 0.258D+01-0.368D+01 0.419D+01
 Coeff:     -0.759D+00 0.140D+01
 Gap=     0.362 Goal=   None    Shift=    0.000
 Gap=     0.123 Goal=   None    Shift=    0.000
 RMSDP=2.14D-05 MaxDP=2.57D-03 DE=-4.73D-06 OVMax= 1.59D-02

 Cycle  56  Pass 1  IDiag  1:
 RMSU=  1.09D-05    CP:  1.00D+00  3.00D+00 -3.00D+00  3.00D+00 -3.00D+00
                    CP: -3.00D+00  3.00D+00  3.00D+00  3.00D+00 -3.00D+00
[...]
 Coeff-Com: -0.301D+01-0.315D+00 0.212D+01-0.268D+00 0.192D+01 0.399D-01
 Coeff-Com: -0.157D+01 0.648D+00 0.836D+00 0.492D-01 0.121D+01 0.714D+00
 Coeff-Com: -0.695D-01-0.762D+00-0.214D+01 0.157D+01-0.161D+01 0.175D+01
 Coeff-Com:  0.511D+00-0.614D+00
 Coeff:     -0.301D+01-0.315D+00 0.212D+01-0.268D+00 0.192D+01 0.399D-01
 Coeff:     -0.157D+01 0.648D+00 0.836D+00 0.492D-01 0.121D+01 0.714D+00
 Coeff:     -0.695D-01-0.762D+00-0.214D+01 0.157D+01-0.161D+01 0.175D+01
 Coeff:      0.511D+00-0.614D+00
 Gap=     0.362 Goal=   None    Shift=    0.000
 Gap=     0.126 Goal=   None    Shift=    0.000
 RMSDP=1.03D-05 MaxDP=1.22D-03 DE= 8.02D-06 OVMax= 6.78D-03

 Cycle 113  Pass 1  IDiag  1:
 RMSU=  1.26D-07    CP:  1.00D+00  1.50D+00  5.97D-01  1.55D-01 -3.00D+00
                    CP:  2.26D+00 -1.56D+00 -3.00D+00 -1.77D+00  1.64D+00
                    CP: -1.56D+00  1.66D+00
 E= -2555.89624791450     Delta-E=       -0.000002991991 Rises=F Damp=F
 DIIS: error= 1.76D-04 at cycle 113 NSaved=  20.
 NSaved=20 IEnMin= 5 EnMin= -2555.89640713571     IErMin=10 ErrMin= 1.59D-05
 ErrMax= 1.76D-04  0.00D+00 EMaxC= 1.00D-01 BMatC= 6.85D-05 BMatP= 8.81D-07
 IDIUse=1 WtCom= 1.00D+00 WtEn= 0.00D+00
 Coeff-Com: -0.250D+01-0.357D+00 0.179D+01-0.344D+00 0.177D+01 0.320D+00
 Coeff-Com: -0.158D+01 0.613D+00 0.486D+00 0.123D+00-0.272D+01 0.413D+01
 Coeff-Com:  0.183D+00-0.687D+00-0.214D+01 0.135D+01-0.501D+00 0.117D+01
 Coeff-Com: -0.304D+01 0.293D+01
 Coeff:     -0.250D+01-0.357D+00 0.179D+01-0.344D+00 0.177D+01 0.320D+00
 Coeff:     -0.158D+01 0.613D+00 0.486D+00 0.123D+00-0.272D+01 0.413D+01
 Coeff:      0.183D+00-0.687D+00-0.214D+01 0.135D+01-0.501D+00 0.117D+01
 Coeff:     -0.304D+01 0.293D+01
 Gap=     0.362 Goal=   None    Shift=    0.000
 Gap=     0.126 Goal=   None    Shift=    0.000
 RMSDP=1.22D-05 MaxDP=1.35D-03 DE=-2.99D-06 OVMax= 8.05D-03

 Cycle 114  Pass 1  IDiag  1:
 RMSU=  4.25D-07    CP:  1.00D+00  3.00D+00  1.37D+00  1.62D-01  3.00D+00
                    CP: -1.48D+00  7.53D-01  3.00D+00 -1.26D-01 -5.61D-01
                    CP:  8.76D-01 -1.24D+00 -4.51D-01
 E= -2555.89625573221     Delta-E=       -0.000007817709 Rises=F Damp=F
 DIIS: error= 1.54D-04 at cycle 114 NSaved=  20.
 NSaved=20 IEnMin= 5 EnMin= -2555.89640713571     IErMin=10 ErrMin= 1.59D-05
 ErrMax= 1.54D-04  0.00D+00 EMaxC= 1.00D-01 BMatC= 5.03D-05 BMatP= 8.81D-07
 IDIUse=1 WtCom= 1.00D+00 WtEn= 0.00D+00
 Coeff-Com: -0.433D+01-0.190D+00 0.268D+01 0.128D+00 0.232D+01-0.188D+00
 Coeff-Com: -0.117D+01 0.209D+00 0.770D+00 0.716D-01 0.156D+01 0.122D+01
 Coeff-Com:  0.120D-01-0.129D+01-0.281D+01 0.209D+01-0.268D+01 0.225D+01
 Coeff-Com: -0.603D+00 0.959D+00
 Coeff:     -0.433D+01-0.190D+00 0.268D+01 0.128D+00 0.232D+01-0.188D+00
 Coeff:     -0.117D+01 0.209D+00 0.770D+00 0.716D-01 0.156D+01 0.122D+01
 Coeff:      0.120D-01-0.129D+01-0.281D+01 0.209D+01-0.268D+01 0.225D+01
 Coeff:     -0.603D+00 0.959D+00
 Gap=     0.362 Goal=   None    Shift=    0.000
 Gap=     0.127 Goal=   None    Shift=    0.000
 RMSDP=3.48D-05 MaxDP=3.83D-03 DE=-7.82D-06 OVMax= 2.03D-02

 Cycle 115  Pass 1  IDiag  1:
 RMSU=  3.43D-08    CP:  1.00D+00 -1.66D+00  2.28D+00  1.87D+00 -3.00D+00
                    CP:  2.37D+00 -7.17D-01 -3.00D+00  5.85D-01  1.34D+00
                    CP: -1.94D+00  1.33D+00  1.58D+00  2.11D-03
 E= -2555.89624488785     Delta-E=        0.000010844365 Rises=F Damp=F
 DIIS: error= 1.97D-04 at cycle 115 NSaved=  20.
 NSaved=20 IEnMin= 5 EnMin= -2555.89640713571     IErMin=10 ErrMin= 1.59D-05
 ErrMax= 1.97D-04  0.00D+00 EMaxC= 1.00D-01 BMatC= 8.19D-05 BMatP= 8.81D-07
 IDIUse=1 WtCom= 1.00D+00 WtEn= 0.00D+00
 Coeff-Com: -0.345D+01-0.145D+00 0.214D+01 0.151D+00 0.176D+01-0.542D-01
 Coeff-Com: -0.994D+00 0.122D+00 0.664D+00 0.131D-01 0.337D-01 0.262D+01
 Coeff-Com:  0.118D+00-0.125D+01-0.303D+01 0.211D+01-0.240D+01 0.226D+01
 Coeff-Com:  0.911D+00-0.576D+00
 Coeff:     -0.345D+01-0.145D+00 0.214D+01 0.151D+00 0.176D+01-0.542D-01
 Coeff:     -0.994D+00 0.122D+00 0.664D+00 0.131D-01 0.337D-01 0.262D+01
 Coeff:      0.118D+00-0.125D+01-0.303D+01 0.211D+01-0.240D+01 0.226D+01
 Coeff:      0.911D+00-0.576D+00
 Gap=     0.362 Goal=   None    Shift=    0.000
 Gap=     0.127 Goal=   None    Shift=    0.000
 RMSDP=5.88D-06 MaxDP=6.29D-04 DE= 1.08D-05 OVMax= 4.38D-03

 Cycle 116  Pass 1  IDiag  1:
 RMSU=  3.96D-08    CP:  1.00D+00 -9.93D-01  2.90D+00  1.94D+00 -6.98D-01
                    CP:  1.47D+00  2.35D+00 -3.00D+00  1.39D+00  2.56D+00
                    CP:  1.17D-01  1.22D+00  5.36D-01  1.04D-03  1.03D+00
 E= -2555.89624977351     Delta-E=       -0.000004885660 Rises=F Damp=F
 DIIS: error= 1.85D-04 at cycle 116 NSaved=  20.
 NSaved=20 IEnMin= 5 EnMin= -2555.89640713571     IErMin=10 ErrMin= 1.59D-05
 ErrMax= 1.85D-04  0.00D+00 EMaxC= 1.00D-01 BMatC= 6.95D-05 BMatP= 8.81D-07
 IDIUse=1 WtCom= 1.00D+00 WtEn= 0.00D+00
 Coeff-Com: -0.161D+01-0.224D+00 0.145D+01 0.116D-01 0.722D+00-0.735D-02
 Coeff-Com: -0.121D+01 0.422D+00 0.983D+00-0.955D-01 0.558D+00 0.930D+00
 Coeff-Com: -0.754D-01-0.448D+00-0.197D+01 0.118D+01-0.110D+01 0.178D+01
 Coeff-Com: -0.831D+00 0.518D+00
 Coeff:     -0.161D+01-0.224D+00 0.145D+01 0.116D-01 0.722D+00-0.735D-02
 Coeff:     -0.121D+01 0.422D+00 0.983D+00-0.955D-01 0.558D+00 0.930D+00
 Coeff:     -0.754D-01-0.448D+00-0.197D+01 0.118D+01-0.110D+01 0.178D+01
 Coeff:     -0.831D+00 0.518D+00
 Gap=     0.362 Goal=   None    Shift=    0.000
 Gap=     0.126 Goal=   None    Shift=    0.000
 RMSDP=2.66D-05 MaxDP=2.89D-03 DE=-4.89D-06 OVMax= 1.98D-02

 Cycle 117  Pass 1  IDiag  1:
 RMSU=  1.95D-08    CP:  1.00D+00  2.25D+00  6.10D-01  3.12D-01  1.10D+00
                    CP:  1.02D+00  2.10D-01  2.69D+00  6.71D-01 -1.14D+00
                    CP:  4.87D-02 -1.41D-01  9.04D-02  1.54D-03  4.82D-01
                    CP: -7.40D-02
 E= -2555.89624980143     Delta-E=       -0.000000027928 Rises=F Damp=F
 DIIS: error= 1.73D-04 at cycle 117 NSaved=  20.
 NSaved=20 IEnMin= 5 EnMin= -2555.89640713571     IErMin=10 ErrMin= 1.59D-05
 ErrMax= 1.73D-04  0.00D+00 EMaxC= 1.00D-01 BMatC= 6.45D-05 BMatP= 8.81D-07
 IDIUse=1 WtCom= 1.00D+00 WtEn= 0.00D+00
 Coeff-Com: -0.351D+01-0.342D+00 0.231D+01-0.278D+00 0.231D+01 0.237D+00
 Coeff-Com: -0.165D+01 0.513D+00 0.560D+00 0.223D+00-0.364D+00 0.266D+01
 Coeff-Com:  0.112D+00-0.998D+00-0.290D+01 0.199D+01-0.156D+01 0.187D+01
 Coeff-Com: -0.409D+00 0.233D+00
 Coeff:     -0.351D+01-0.342D+00 0.231D+01-0.278D+00 0.231D+01 0.237D+00
 Coeff:     -0.165D+01 0.513D+00 0.560D+00 0.223D+00-0.364D+00 0.266D+01
 Coeff:      0.112D+00-0.998D+00-0.290D+01 0.199D+01-0.156D+01 0.187D+01
 Coeff:     -0.409D+00 0.233D+00
 Gap=     0.362 Goal=   None    Shift=    0.000
 Gap=     0.126 Goal=   None    Shift=    0.000
 RMSDP=1.33D-05 MaxDP=1.55D-03 DE=-2.79D-08 OVMax= 8.48D-03

 Cycle 118  Pass 1  IDiag  1:
 RMSU=  1.33D-08    CP:  1.00D+00  4.49D-01  2.45D-01 -7.20D-02  5.73D-01
                    CP:  1.40D-01  6.39D-01 -1.06D+00  3.05D-01  6.67D-01
                    CP: -3.95D-02  1.24D-01 -6.44D-02 -1.62D-03 -2.82D-01
                    CP:  1.03D-01 -1.29D-01
 E= -2555.89624699655     Delta-E=        0.000002804882 Rises=F Damp=F
 DIIS: error= 1.77D-04 at cycle 118 NSaved=  20.
 NSaved=20 IEnMin= 5 EnMin= -2555.89640713571     IErMin=10 ErrMin= 1.59D-05
 ErrMax= 1.77D-04  0.00D+00 EMaxC= 1.00D-01 BMatC= 6.65D-05 BMatP= 8.81D-07
 IDIUse=1 WtCom= 1.00D+00 WtEn= 0.00D+00
 Coeff-Com: -0.356D+01-0.374D+00 0.240D+01-0.320D+00 0.238D+01 0.185D+00
 Coeff-Com: -0.174D+01 0.605D+00 0.634D+00 0.223D+00 0.158D+00 0.194D+01
 Coeff-Com:  0.448D-01-0.902D+00-0.252D+01 0.178D+01-0.145D+01 0.169D+01
 Coeff-Com:  0.332D+00-0.499D+00
 Coeff:     -0.356D+01-0.374D+00 0.240D+01-0.320D+00 0.238D+01 0.185D+00
 Coeff:     -0.174D+01 0.605D+00 0.634D+00 0.223D+00 0.158D+00 0.194D+01
 Coeff:      0.448D-01-0.902D+00-0.252D+01 0.178D+01-0.145D+01 0.169D+01
 Coeff:      0.332D+00-0.499D+00
 Gap=     0.362 Goal=   None    Shift=    0.000
 Gap=     0.126 Goal=   None    Shift=    0.000
 RMSDP=3.70D-06 MaxDP=4.07D-04 DE= 2.80D-06 OVMax= 2.43D-03

 Cycle 119  Pass 1  IDiag  1:
 RMSU=  2.89D-09    CP:  1.00D+00  9.38D-01  7.30D-02 -1.71D-01 -1.47D+00
                    CP:  6.17D-01 -8.40D-01 -3.00D+00 -8.43D-01  1.11D+00
                    CP: -7.85D-02  6.47D-01 -2.68D-02 -1.13D-03 -2.34D-01
                    CP:  1.14D-01 -3.13D-01  4.78D-01
 E= -2555.89624672608     Delta-E=        0.000000270474 Rises=F Damp=F
 DIIS: error= 1.76D-04 at cycle 119 NSaved=  20.
 NSaved=20 IEnMin= 5 EnMin= -2555.89640713571     IErMin=10 ErrMin= 1.59D-05
 ErrMax= 1.76D-04  0.00D+00 EMaxC= 1.00D-01 BMatC= 6.78D-05 BMatP= 8.81D-07
 IDIUse=1 WtCom= 1.00D+00 WtEn= 0.00D+00
 Coeff-Com: -0.394D+01-0.385D+00 0.256D+01-0.369D+00 0.268D+01 0.228D+00
 Coeff-Com: -0.183D+01 0.661D+00 0.535D+00 0.255D+00-0.443D+00 0.264D+01
 Coeff-Com:  0.101D+00-0.956D+00-0.278D+01 0.197D+01-0.139D+01 0.168D+01
 Coeff-Com: -0.115D+01 0.932D+00
 Coeff:     -0.394D+01-0.385D+00 0.256D+01-0.369D+00 0.268D+01 0.228D+00
 Coeff:     -0.183D+01 0.661D+00 0.535D+00 0.255D+00-0.443D+00 0.264D+01
 Coeff:      0.101D+00-0.956D+00-0.278D+01 0.197D+01-0.139D+01 0.168D+01
 Coeff:     -0.115D+01 0.932D+00
 Gap=     0.362 Goal=   None    Shift=    0.000
 Gap=     0.126 Goal=   None    Shift=    0.000
 RMSDP=4.20D-06 MaxDP=4.76D-04 DE= 2.70D-07 OVMax= 2.52D-03

 Cycle 120  Pass 1  IDiag  1:
 RMSU=  1.03D-08    CP:  1.00D+00  3.69D-01  1.68D-01  9.00D-03 -4.32D-01
                    CP: -6.71D-01  4.00D-01 -1.19D+00 -3.40D-01  6.99D-01
                    CP: -4.69D-02  3.94D-02 -9.71D-02  5.33D-05 -4.41D-03
                    CP: -1.40D-01 -1.57D-01  7.02D-02 -2.13D+00
 E= -2555.89624611269     Delta-E=        0.000000613387 Rises=F Damp=F
 DIIS: error= 1.79D-04 at cycle 120 NSaved=  20.
 NSaved=20 IEnMin= 5 EnMin= -2555.89640713571     IErMin=10 ErrMin= 1.59D-05
 ErrMax= 1.79D-04  0.00D+00 EMaxC= 1.00D-01 BMatC= 6.89D-05 BMatP= 8.81D-07
 IDIUse=1 WtCom= 1.00D+00 WtEn= 0.00D+00
 Coeff-Com: -0.422D+01-0.360D+00 0.273D+01-0.301D+00 0.274D+01 0.188D+00
 Coeff-Com: -0.173D+01 0.521D+00 0.561D+00 0.229D+00-0.648D+00 0.296D+01
 Coeff-Com:  0.121D+00-0.107D+01-0.271D+01 0.188D+01-0.141D+01 0.158D+01
 Coeff-Com:  0.206D+01-0.212D+01
 Coeff:     -0.422D+01-0.360D+00 0.273D+01-0.301D+00 0.274D+01 0.188D+00
 Coeff:     -0.173D+01 0.521D+00 0.561D+00 0.229D+00-0.648D+00 0.296D+01
 Coeff:      0.121D+00-0.107D+01-0.271D+01 0.188D+01-0.141D+01 0.158D+01
 Coeff:      0.206D+01-0.212D+01
 Gap=     0.362 Goal=   None    Shift=    0.000
 Gap=     0.126 Goal=   None    Shift=    0.000
 RMSDP=1.25D-06 MaxDP=1.46D-04 DE= 6.13D-07 OVMax= 9.00D-04

 Cycle 121  Pass 1  IDiag  1:
 Restarting incremental Fock formation.
 E= -2555.89624511914     Delta-E=        0.000000993549 Rises=F Damp=F
 DIIS: error= 1.82D-04 at cycle 121 NSaved=  20.
 NSaved=20 IEnMin= 5 EnMin= -2555.89640713571     IErMin=10 ErrMin= 1.59D-05
 ErrMax= 1.82D-04  0.00D+00 EMaxC= 1.00D-01 BMatC= 7.16D-05 BMatP= 8.81D-07
 IDIUse=1 WtCom= 1.00D+00 WtEn= 0.00D+00
 Coeff-Com: -0.436D+01-0.235D+00 0.262D+01-0.108D+00 0.260D+01-0.197D-01
 Coeff-Com: -0.130D+01 0.430D+00 0.447D+00 0.949D-01-0.130D+00 0.247D+01
 Coeff-Com:  0.125D+00-0.115D+01-0.279D+01 0.207D+01-0.198D+01 0.235D+01
 Coeff-Com:  0.593D+01-0.606D+01
 Coeff:     -0.436D+01-0.235D+00 0.262D+01-0.108D+00 0.260D+01-0.197D-01
 Coeff:     -0.130D+01 0.430D+00 0.447D+00 0.949D-01-0.130D+00 0.247D+01
 Coeff:      0.125D+00-0.115D+01-0.279D+01 0.207D+01-0.198D+01 0.235D+01
 Coeff:      0.593D+01-0.606D+01
 Gap=     0.362 Goal=   None    Shift=    0.000
 Gap=     0.126 Goal=   None    Shift=    0.000
 RMSDP=2.12D-05 MaxDP=2.36D-03 DE= 9.94D-07 OVMax= 1.62D-02

 Cycle 122  Pass 1  IDiag  1:
 RMSU=  2.12D-05    CP:  1.00D+00
 E= -2555.89625385126     Delta-E=       -0.000008732115 Rises=F Damp=F
 DIIS: error= 1.65D-04 at cycle 122 NSaved=  20.
 NSaved=20 IEnMin= 5 EnMin= -2555.89640713571     IErMin=10 ErrMin= 1.59D-05
 ErrMax= 1.65D-04  0.00D+00 EMaxC= 1.00D-01 BMatC= 5.59D-05 BMatP= 8.81D-07
 IDIUse=1 WtCom= 1.00D+00 WtEn= 0.00D+00
 Coeff-Com: -0.202D+01-0.283D+00 0.167D+01-0.153D+00 0.118D+01-0.106D+00
 Coeff-Com: -0.136D+01 0.670D+00 0.958D+00-0.491D-01 0.217D+01-0.877D+00
 Coeff-Com: -0.176D+00-0.350D+00-0.157D+01 0.111D+01-0.107D+01 0.159D+01
 Coeff-Com: -0.102D+01 0.683D+00
 Coeff:     -0.202D+01-0.283D+00 0.167D+01-0.153D+00 0.118D+01-0.106D+00
 Coeff:     -0.136D+01 0.670D+00 0.958D+00-0.491D-01 0.217D+01-0.877D+00
 Coeff:     -0.176D+00-0.350D+00-0.157D+01 0.111D+01-0.107D+01 0.159D+01
 Coeff:     -0.102D+01 0.683D+00
 Gap=     0.362 Goal=   None    Shift=    0.000
 Gap=     0.126 Goal=   None    Shift=    0.000
 RMSDP=2.88D-05 MaxDP=3.02D-03 DE=-8.73D-06 OVMax= 2.06D-02

 Cycle 123  Pass 1  IDiag  1:
 RMSU=  1.70D-05    CP:  1.00D+00 -9.43D-02
 E= -2555.89625399040     Delta-E=       -0.000000139145 Rises=F Damp=F
 DIIS: error= 1.55D-04 at cycle 123 NSaved=  20.
 NSaved=20 IEnMin= 5 EnMin= -2555.89640713571     IErMin=10 ErrMin= 1.59D-05
 ErrMax= 1.55D-04  0.00D+00 EMaxC= 1.00D-01 BMatC= 5.48D-05 BMatP= 8.81D-07
 IDIUse=1 WtCom= 1.00D+00 WtEn= 0.00D+00
 Coeff-Com: -0.521D+01-0.377D+00 0.319D+01-0.221D+00 0.334D+01 0.172D+00
 Coeff-Com: -0.171D+01 0.340D+00 0.411D+00 0.407D+00 0.564D-01 0.277D+01
 Coeff-Com:  0.161D+00-0.141D+01-0.308D+01 0.222D+01-0.201D+01 0.184D+01
 Coeff-Com: -0.116D+00 0.224D+00
 Coeff:     -0.521D+01-0.377D+00 0.319D+01-0.221D+00 0.334D+01 0.172D+00
 Coeff:     -0.171D+01 0.340D+00 0.411D+00 0.407D+00 0.564D-01 0.277D+01
 Coeff:      0.161D+00-0.141D+01-0.308D+01 0.222D+01-0.201D+01 0.184D+01
 Coeff:     -0.116D+00 0.224D+00
 Gap=     0.362 Goal=   None    Shift=    0.000
 Gap=     0.126 Goal=   None    Shift=    0.000
 RMSDP=2.81D-05 MaxDP=3.32D-03 DE=-1.39D-07 OVMax= 1.90D-02

 Cycle 124  Pass 1  IDiag  1:
 RMSU=  9.30D-07    CP:  1.00D+00  4.27D-01 -5.16D-01
 E= -2555.89624413314     Delta-E=        0.000009857258 Rises=F Damp=F
 DIIS: error= 1.86D-04 at cycle 124 NSaved=  20.
 NSaved=20 IEnMin= 5 EnMin= -2555.89640713571     IErMin=10 ErrMin= 1.59D-05
 ErrMax= 1.86D-04  0.00D+00 EMaxC= 1.00D-01 BMatC= 7.37D-05 BMatP= 8.81D-07
 IDIUse=1 WtCom= 1.00D+00 WtEn= 0.00D+00
 Coeff-Com: -0.344D+01-0.374D+00 0.223D+01-0.345D+00 0.238D+01 0.307D+00
 Coeff-Com: -0.166D+01 0.553D+00 0.425D+00 0.259D+00-0.962D+00 0.301D+01
 Coeff-Com:  0.137D+00-0.975D+00-0.259D+01 0.180D+01-0.127D+01 0.159D+01
 Coeff-Com:  0.463D+00-0.543D+00
 Coeff:     -0.344D+01-0.374D+00 0.223D+01-0.345D+00 0.238D+01 0.307D+00
 Coeff:     -0.166D+01 0.553D+00 0.425D+00 0.259D+00-0.962D+00 0.301D+01
 Coeff:      0.137D+00-0.975D+00-0.259D+01 0.180D+01-0.127D+01 0.159D+01
 Coeff:      0.463D+00-0.543D+00
 Gap=     0.362 Goal=   None    Shift=    0.000
 Gap=     0.126 Goal=   None    Shift=    0.000
 RMSDP=1.94D-05 MaxDP=2.26D-03 DE= 9.86D-06 OVMax= 1.20D-02

 Cycle 125  Pass 1  IDiag  1:
 RMSU=  5.90D-07    CP:  1.00D+00  4.33D-02  5.15D-01 -1.46D-01
 E= -2555.89625231477     Delta-E=       -0.000008181622 Rises=F Damp=F
 DIIS: error= 1.60D-04 at cycle 125 NSaved=  20.
 NSaved=20 IEnMin= 5 EnMin= -2555.89640713571     IErMin=10 ErrMin= 1.59D-05
 ErrMax= 1.60D-04  0.00D+00 EMaxC= 1.00D-01 BMatC= 5.48D-05 BMatP= 8.81D-07
 IDIUse=1 WtCom= 1.00D+00 WtEn= 0.00D+00
 Coeff-Com: -0.146D+01-0.454D-01 0.110D+01 0.376D+00 0.292D+00-0.106D+00
 Coeff-Com: -0.394D+00-0.115D+00 0.673D+00-0.205D+00-0.157D+01 0.319D+01
 Coeff-Com:  0.174D+00-0.821D+00-0.210D+01 0.120D+01-0.133D+01 0.173D+01
 Coeff-Com: -0.229D+01 0.270D+01
 Coeff:     -0.146D+01-0.454D-01 0.110D+01 0.376D+00 0.292D+00-0.106D+00
 Coeff:     -0.394D+00-0.115D+00 0.673D+00-0.205D+00-0.157D+01 0.319D+01
 Coeff:      0.174D+00-0.821D+00-0.210D+01 0.120D+01-0.133D+01 0.173D+01
 Coeff:     -0.229D+01 0.270D+01
 Gap=     0.362 Goal=   None    Shift=    0.000
 Gap=     0.126 Goal=   None    Shift=    0.000
 RMSDP=2.31D-05 MaxDP=3.07D-03 DE=-8.18D-06 OVMax= 1.59D-02

 Cycle 126  Pass 1  IDiag  1:
 RMSU=  1.27D-06    CP:  1.00D+00  8.07D-01  1.47D+00 -1.68D+00  3.53D-01
 E= -2555.89626365291     Delta-E=       -0.000011338139 Rises=F Damp=F
 DIIS: error= 1.43D-04 at cycle 126 NSaved=  20.
 NSaved=20 IEnMin= 5 EnMin= -2555.89640713571     IErMin=10 ErrMin= 1.59D-05
 ErrMax= 1.43D-04  0.00D+00 EMaxC= 1.00D-01 BMatC= 3.99D-05 BMatP= 8.81D-07
 IDIUse=1 WtCom= 1.00D+00 WtEn= 0.00D+00
 Coeff-Com: -0.547D+01-0.296D+00 0.335D+01 0.427D-01 0.317D+01-0.132D+00
 Coeff-Com: -0.135D+01 0.119D+00 0.596D+00 0.335D+00 0.212D+01 0.805D+00
 Coeff-Com:  0.130D-01-0.152D+01-0.260D+01 0.198D+01-0.251D+01 0.191D+01
 Coeff-Com:  0.357D-01 0.409D+00
 Coeff:     -0.547D+01-0.296D+00 0.335D+01 0.427D-01 0.317D+01-0.132D+00
 Coeff:     -0.135D+01 0.119D+00 0.596D+00 0.335D+00 0.212D+01 0.805D+00
 Coeff:      0.130D-01-0.152D+01-0.260D+01 0.198D+01-0.251D+01 0.191D+01
 Coeff:      0.357D-01 0.409D+00
 Gap=     0.362 Goal=   None    Shift=    0.000
 Gap=     0.127 Goal=   None    Shift=    0.000
 RMSDP=3.58D-05 MaxDP=3.81D-03 DE=-1.13D-05 OVMax= 2.71D-02

 Cycle 127  Pass 1  IDiag  1:
 RMSU=  3.72D-07    CP:  1.00D+00  8.99D-01 -6.13D-01  2.14D+00 -1.44D+00
                    CP:  3.47D-01
 E= -2555.89624437569     Delta-E=        0.000019277215 Rises=F Damp=F
 DIIS: error= 1.92D-04 at cycle 127 NSaved=  20.
 NSaved=20 IEnMin= 5 EnMin= -2555.89640713571     IErMin=10 ErrMin= 1.59D-05
 ErrMax= 1.92D-04  0.00D+00 EMaxC= 1.00D-01 BMatC= 7.96D-05 BMatP= 8.81D-07
 IDIUse=1 WtCom= 1.00D+00 WtEn= 0.00D+00
 Coeff-Com: -0.219D+01-0.192D+00 0.171D+01 0.166D+00 0.933D+00-0.177D+00
 Coeff-Com: -0.959D+00 0.223D+00 0.956D+00-0.354D-01 0.201D+01-0.360D+00
 Coeff-Com: -0.179D+00-0.741D+00-0.154D+01 0.104D+01-0.163D+01 0.182D+01
 Coeff-Com:  0.603D+00-0.468D+00
 Coeff:     -0.219D+01-0.192D+00 0.171D+01 0.166D+00 0.933D+00-0.177D+00
 Coeff:     -0.959D+00 0.223D+00 0.956D+00-0.354D-01 0.201D+01-0.360D+00
 Coeff:     -0.179D+00-0.741D+00-0.154D+01 0.104D+01-0.163D+01 0.182D+01
 Coeff:      0.603D+00-0.468D+00
 Gap=     0.362 Goal=   None    Shift=    0.000
 Gap=     0.126 Goal=   None    Shift=    0.000
 RMSDP=2.65D-05 MaxDP=3.07D-03 DE= 1.93D-05 OVMax= 1.61D-02

 Cycle 128  Pass 1  IDiag  1:
 RMSU=  1.81D-07    CP:  1.00D+00  2.80D-01  7.35D-01  3.47D-01 -1.13D+00
                    CP:  6.02D-01  1.19D+00
 E= -2555.89625172261     Delta-E=       -0.000007346922 Rises=F Damp=F
 DIIS: error= 1.71D-04 at cycle 128 NSaved=  20.
 NSaved=20 IEnMin= 5 EnMin= -2555.89640713571     IErMin=10 ErrMin= 1.59D-05
 ErrMax= 1.71D-04  0.00D+00 EMaxC= 1.00D-01 BMatC= 6.43D-05 BMatP= 8.81D-07
 IDIUse=1 WtCom= 1.00D+00 WtEn= 0.00D+00
 Coeff-Com:  0.682D+00-0.917D-01-0.706D-02 0.175D+00-0.744D+00 0.292D-01
 Coeff-Com: -0.159D+00-0.157D+00 0.706D+00-0.189D+00-0.100D+01 0.180D+01
 Coeff-Com:  0.138D-01-0.785D+00-0.425D+00-0.803D+00 0.983D+00 0.114D+01
 Coeff-Com: -0.257D+01 0.240D+01
 Coeff:      0.682D+00-0.917D-01-0.706D-02 0.175D+00-0.744D+00 0.292D-01
 Coeff:     -0.159D+00-0.157D+00 0.706D+00-0.189D+00-0.100D+01 0.180D+01
 Coeff:      0.138D-01-0.785D+00-0.425D+00-0.803D+00 0.983D+00 0.114D+01
 Coeff:     -0.257D+01 0.240D+01
 Gap=     0.362 Goal=   None    Shift=    0.000
 Gap=     0.125 Goal=   None    Shift=    0.000
 RMSDP=4.13D-05 MaxDP=4.43D-03 DE=-7.35D-06 OVMax= 2.98D-02

 >>>>>>>>>> Convergence criterion not met.
 Error on total polarization charges =  0.00328
 SCF Done:  E(UCAM-B3LYP) =  -2555.89625172     A.U. after  129 cycles
            NFock=128  Conv=0.41D-04     -V/T= 2.0077
 <Sx>= 0.0000 <Sy>= 0.0000 <Sz>= 0.5000 <S**2>= 0.7772 S= 0.5135
 <L.S>= 0.000000000000E+00
 KE= 2.536381540030D+03 PE=-1.536595832354D+04 EE= 5.588752426543D+03
 Annihilation of the first spin contaminant:
 S**2 before annihilation     0.7772,   after     0.7504
 Convergence failure -- run terminated.
 Error termination via Lnk1e in /home/k0335/k033513/app/g09/l502.exe at Sun Feb  2 08:20:11 2025.
 Job cpu time:       0 days  3 hours 44 minutes 13.2 seconds.
 File lengths (MBytes):  RWF=    682 Int=      0 D2E=      0 Chk=     10 Scr=      1
