 Entering Gaussian System, Link 0=g09
 Initial command:
 /home/k0335/k033513/app/g09/l1.exe "/home/k0335/k033513/app/g09/scratch/Gau-342310.inp" -scrdir="/home/k0335/k033513/app/g09/scratch/"
 Default is to use a total of  36 processors:
                               36 via shared-memory
                                1 via Linda
 Entering Link 1 = /home/k0335/k033513/app/g09/l1.exe PID=    342311.
  
 Copyright (c) 1988,1990,1992,1993,1995,1998,2003,2009,2013,
            Gaussian, Inc.  All Rights Reserved.
  
 This is part of the Gaussian(R) 09 program.  It is based on
 the Gaussian(R) 03 system (copyright 2003, Gaussian, Inc.),
 the Gaussian(R) 98 system (copyright 1998, Gaussian, Inc.),
 the Gaussian(R) 94 system (copyright 1995, Gaussian, Inc.),
 the Gaussian 92(TM) system (copyright 1992, Gaussian, Inc.),
 the Gaussian 90(TM) system (copyright 1990, Gaussian, Inc.),
 the Gaussian 88(TM) system (copyright 1988, Gaussian, Inc.),
 the Gaussian 86(TM) system (copyright 1986, Carnegie Mellon
 University), and the Gaussian 82(TM) system (copyright 1983,
 Carnegie Mellon University). Gaussian is a federally registered
 trademark of Gaussian, Inc.
  
 This software contains proprietary and confidential information,
 including trade secrets, belonging to Gaussian, Inc.
  
 This software is provided under written license and may be
 used, copied, transmitted, or stored only in accord with that
 written license.
  
 The following legend is applicable only to US Government
 contracts under FAR:
  
                    RESTRICTED RIGHTS LEGEND
  
 Use, reproduction and disclosure by the US Government is
 subject to restrictions as set forth in subparagraphs (a)
 and (c) of the Commercial Computer Software - Restricted
 Rights clause in FAR 52.227-19.
  
 Gaussian, Inc.
 340 Quinnipiac St., Bldg. 40, Wallingford CT 06492
  
  
 ---------------------------------------------------------------
 Warning -- This program may not be used in any manner that
 competes with the business of Gaussian, Inc. or will provide
 assistance to any competitor of Gaussian, Inc.  The licensee
 of this program is prohibited from giving any competitor of
 Gaussian, Inc. access to this program.  By using this program,
 the user acknowledges that Gaussian, Inc. is engaged in the
 business of creating and licensing software in the field of
 computational chemistry and represents and warrants to the
 licensee that it is not a competitor of Gaussian, Inc. and that
 it will not use this program in any manner prohibited above.
 ---------------------------------------------------------------
  

 Cite this work as:
 Gaussian 09, Revision D.01,
 M. J. Frisch, G. W. Trucks, H. B. Schlegel, G. E. Scuseria, 
 M. A. Robb, J. R. Cheeseman, G. Scalmani, V. Barone, B. Mennucci, 
 G. A. Petersson, H. Nakatsuji, M. Caricato, X. Li, H. P. Hratchian, 
 A. F. Izmaylov, J. Bloino, G. Zheng, J. L. Sonnenberg, M. Hada, 
 M. Ehara, K. Toyota, R. Fukuda, J. Hasegawa, M. Ishida, T. Nakajima, 
 Y. Honda, O. Kitao, H. Nakai, T. Vreven, J. A. Montgomery, Jr., 
 J. E. Peralta, F. Ogliaro, M. Bearpark, J. J. Heyd, E. Brothers, 
 K. N. Kudin, V. N. Staroverov, T. Keith, R. Kobayashi, J. Normand, 
 K. Raghavachari, A. Rendell, J. C. Burant, S. S. Iyengar, J. Tomasi, 
 M. Cossi, N. Rega, J. M. Millam, M. Klene, J. E. Knox, J. B. Cross, 
 V. Bakken, C. Adamo, J. Jaramillo, R. Gomperts, R. E. Stratmann, 
 O. Yazyev, A. J. Austin, R. Cammi, C. Pomelli, J. W. Ochterski, 
 R. L. Martin, K. Morokuma, V. G. Zakrzewski, G. A. Voth, 
 P. Salvador, J. J. Dannenberg, S. Dapprich, A. D. Daniels, 
 O. Farkas, J. B. Foresman, J. V. Ortiz, J. Cioslowski, 
 and D. J. Fox, Gaussian, Inc., Wallingford CT, 2013.
 
 ******************************************
 Gaussian 09:  ES64L-G09RevD.01 24-Apr-2013
                 3-Mar-2024 
 ******************************************
 %nprocshared=24
 Will use up to   24 processors via shared memory.
 %mem=40GB
 %rwf=A156206682/A156206682_p1.rwf
 %nosave
 %chk=A156206682/A156206682_p1.chk
 ----------------------------------------------------------------------
 #p CAM-B3LYP/6-31G(d,p) SCRF=(PCM,Solvent=Generic,Read) NoSymm out=wfn
 ----------------------------------------------------------------------
 1/38=1,40=2/1;
 2/12=2,15=1,17=6,18=5,40=1/2;
 3/5=1,6=6,7=101,11=2,16=1,25=1,30=1,70=2203,72=-2,74=-40/1,2,3;
 4//1;
 5/5=2,38=5/2;
 6/7=2,8=2,9=2,10=2,28=1/1;
 99/5=1,6=100,9=1/99;
 Leave Link    1 at Sun Mar  3 18:16:02 2024, MaxMem=  5368709120 cpu:         1.1
 (Enter /home/k0335/k033513/app/g09/l101.exe)
 -------------------
 Title A156206682_p1
 -------------------
 Symbolic Z-matrix:
 Charge =  1 Multiplicity = 2
 C                    -2.55534   0.67024   0.45194 
 C                    -1.25868   0.31198   0.44087 
 N                    -0.27691   1.13601  -0.11027 
 C                    -0.55292   2.36189  -0.89815 
 F                     0.27843   2.37634  -1.97777 
 F                    -1.78786   2.27813  -1.47595 
 C                    -0.45719   3.68291  -0.08966 
 F                     0.76789   3.79583   0.4941 
 O                    -1.3997    3.60999   0.994 
 C                    -1.55517   4.83158   1.66936 
 F                    -2.14009   4.58376   2.85631 
 F                    -2.3636    5.62808   0.95189 
 F                    -0.37482   5.43044   1.88096 
 C                    -0.66464   4.80831  -1.11153 
 F                    -0.50891   6.02841  -0.54339 
 F                    -1.91405   4.78102  -1.63095 
 F                     0.20419   4.76043  -2.14268 
 C                     1.07422   0.90333   0.10608 
 O                     1.93595   1.66078  -0.33426 
 N                     1.40444  -0.22205   0.81402 
 C                     2.81961  -0.5432    0.9551 
 F                     2.9759   -1.30244   2.07874 
 F                     3.50205   0.60002   1.25852 
 C                     3.47666  -1.24334  -0.26559 
 F                     2.90617  -2.47055  -0.4451 
 O                     3.17781  -0.51386  -1.4608 
 C                     3.92419  -0.93421  -2.57094 
 F                     5.17257  -0.44918  -2.47915 
 F                     3.95106  -2.27299  -2.65804 
 F                     3.34969  -0.44001  -3.68366 
 C                     4.95617  -1.40974   0.10957 
 F                     5.13361  -2.0408    1.29065 
 F                     5.62143  -2.14757  -0.81281 
 F                     5.59534  -0.22094   0.18674 
 C                     0.5124   -1.24488   0.99004 
 O                     0.88435  -2.40253   1.15614 
 N                    -0.8313   -0.91019   0.96685 
 C                    -1.75058  -1.9819    1.40637 
 F                    -2.7542   -1.4005    2.14588 
 F                    -1.15818  -2.78853   2.33476 
 C                    -2.42107  -2.84184   0.31166 
 F                    -3.05667  -2.00635  -0.56836 
 O                    -3.40725  -3.6939    0.92426 
 C                    -4.60158  -3.72829   0.19058 
 F                    -5.37979  -4.70699   0.68885 
 F                    -5.24764  -2.55574   0.3228 
 F                    -4.36578  -3.98285  -1.10655 
 C                    -1.38051  -3.66128  -0.43806 
 F                    -0.49257  -2.87228  -1.08819 
 F                    -1.96438  -4.43468  -1.38786 
 F                    -0.69853  -4.49955   0.36754 
 H                    -3.36557   0.06647   0.8428 
 H                    -2.93865   1.61723   0.09232 
 
 NAtoms=     53 NQM=       53 NQMF=       0 NMMI=      0 NMMIF=      0
                NMic=       0 NMicF=      0.
                    Isotopes and Nuclear Properties:
 (Nuclear quadrupole moments (NQMom) in fm**2, nuclear magnetic moments (NMagM)
  in nuclear magnetons)

  Atom         1           2           3           4           5           6           7           8           9          10
 IAtWgt=          12          12          14          12          19          19          12          19          16          12
 AtmWgt=  12.0000000  12.0000000  14.0030740  12.0000000  18.9984033  18.9984033  12.0000000  18.9984033  15.9949146  12.0000000
 NucSpn=           0           0           2           0           1           1           0           1           0           0
 AtZEff=   0.0000000   0.0000000   0.0000000   0.0000000   0.0000000   0.0000000   0.0000000   0.0000000   0.0000000   0.0000000
 NQMom=    0.0000000   0.0000000   2.0440000   0.0000000   0.0000000   0.0000000   0.0000000   0.0000000   0.0000000   0.0000000
 NMagM=    0.0000000   0.0000000   0.4037610   0.0000000   2.6288670   2.6288670   0.0000000   2.6288670   0.0000000   0.0000000
 AtZNuc=   6.0000000   6.0000000   7.0000000   6.0000000   9.0000000   9.0000000   6.0000000   9.0000000   8.0000000   6.0000000

  Atom        11          12          13          14          15          16          17          18          19          20
 IAtWgt=          19          19          19          12          19          19          19          12          16          14
 AtmWgt=  18.9984033  18.9984033  18.9984033  12.0000000  18.9984033  18.9984033  18.9984033  12.0000000  15.9949146  14.0030740
 NucSpn=           1           1           1           0           1           1           1           0           0           2
 AtZEff=   0.0000000   0.0000000   0.0000000   0.0000000   0.0000000   0.0000000   0.0000000   0.0000000   0.0000000   0.0000000
 NQMom=    0.0000000   0.0000000   0.0000000   0.0000000   0.0000000   0.0000000   0.0000000   0.0000000   0.0000000   2.0440000
 NMagM=    2.6288670   2.6288670   2.6288670   0.0000000   2.6288670   2.6288670   2.6288670   0.0000000   0.0000000   0.4037610
 AtZNuc=   9.0000000   9.0000000   9.0000000   6.0000000   9.0000000   9.0000000   9.0000000   6.0000000   8.0000000   7.0000000

  Atom        21          22          23          24          25          26          27          28          29          30
 IAtWgt=          12          19          19          12          19          16          12          19          19          19
 AtmWgt=  12.0000000  18.9984033  18.9984033  12.0000000  18.9984033  15.9949146  12.0000000  18.9984033  18.9984033  18.9984033
 NucSpn=           0           1           1           0           1           0           0           1           1           1
 AtZEff=   0.0000000   0.0000000   0.0000000   0.0000000   0.0000000   0.0000000   0.0000000   0.0000000   0.0000000   0.0000000
 NQMom=    0.0000000   0.0000000   0.0000000   0.0000000   0.0000000   0.0000000   0.0000000   0.0000000   0.0000000   0.0000000
 NMagM=    0.0000000   2.6288670   2.6288670   0.0000000   2.6288670   0.0000000   0.0000000   2.6288670   2.6288670   2.6288670
 AtZNuc=   6.0000000   9.0000000   9.0000000   6.0000000   9.0000000   8.0000000   6.0000000   9.0000000   9.0000000   9.0000000

  Atom        31          32          33          34          35          36          37          38          39          40
 IAtWgt=          12          19          19          19          12          16          14          12          19          19
 AtmWgt=  12.0000000  18.9984033  18.9984033  18.9984033  12.0000000  15.9949146  14.0030740  12.0000000  18.9984033  18.9984033
 NucSpn=           0           1           1           1           0           0           2           0           1           1
 AtZEff=   0.0000000   0.0000000   0.0000000   0.0000000   0.0000000   0.0000000   0.0000000   0.0000000   0.0000000   0.0000000
 NQMom=    0.0000000   0.0000000   0.0000000   0.0000000   0.0000000   0.0000000   2.0440000   0.0000000   0.0000000   0.0000000
 NMagM=    0.0000000   2.6288670   2.6288670   2.6288670   0.0000000   0.0000000   0.4037610   0.0000000   2.6288670   2.6288670
 AtZNuc=   6.0000000   9.0000000   9.0000000   9.0000000   6.0000000   8.0000000   7.0000000   6.0000000   9.0000000   9.0000000

  Atom        41          42          43          44          45          46          47          48          49          50
 IAtWgt=          12          19          16          12          19          19          19          12          19          19
 AtmWgt=  12.0000000  18.9984033  15.9949146  12.0000000  18.9984033  18.9984033  18.9984033  12.0000000  18.9984033  18.9984033
 NucSpn=           0           1           0           0           1           1           1           0           1           1
 AtZEff=   0.0000000   0.0000000   0.0000000   0.0000000   0.0000000   0.0000000   0.0000000   0.0000000   0.0000000   0.0000000
 NQMom=    0.0000000   0.0000000   0.0000000   0.0000000   0.0000000   0.0000000   0.0000000   0.0000000   0.0000000   0.0000000
 NMagM=    0.0000000   2.6288670   0.0000000   0.0000000   2.6288670   2.6288670   2.6288670   0.0000000   2.6288670   2.6288670
 AtZNuc=   6.0000000   9.0000000   8.0000000   6.0000000   9.0000000   9.0000000   9.0000000   6.0000000   9.0000000   9.0000000

  Atom        51          52          53
 IAtWgt=          19           1           1
 AtmWgt=  18.9984033   1.0078250   1.0078250
 NucSpn=           1           1           1
 AtZEff=   0.0000000   0.0000000   0.0000000
 NQMom=    0.0000000   0.0000000   0.0000000
 NMagM=    2.6288670   2.7928460   2.7928460
 AtZNuc=   9.0000000   1.0000000   1.0000000
 Leave Link  101 at Sun Mar  3 18:16:02 2024, MaxMem=  5368709120 cpu:         1.0
 (Enter /home/k0335/k033513/app/g09/l202.exe)
 Symmetry turned off by external request.
 Stoichiometry    C16H2F27N3O5(1+,2)
 Framework group  C1[X(C16H2F27N3O5)]
 Deg. of freedom   153
 Full point group                 C1      NOp   1
                          Input orientation:                          
 ---------------------------------------------------------------------
 Center     Atomic      Atomic             Coordinates (Angstroms)
 Number     Number       Type             X           Y           Z
 ---------------------------------------------------------------------
      1          6           0       -2.555336    0.670239    0.451942
      2          6           0       -1.258677    0.311979    0.440868
      3          7           0       -0.276913    1.136015   -0.110274
      4          6           0       -0.552916    2.361889   -0.898145
      5          9           0        0.278431    2.376336   -1.977765
      6          9           0       -1.787859    2.278129   -1.475947
      7          6           0       -0.457194    3.682909   -0.089662
      8          9           0        0.767890    3.795833    0.494100
      9          8           0       -1.399697    3.609986    0.994004
     10          6           0       -1.555166    4.831582    1.669364
     11          9           0       -2.140089    4.583758    2.856313
     12          9           0       -2.363596    5.628080    0.951891
     13          9           0       -0.374820    5.430436    1.880958
     14          6           0       -0.664636    4.808314   -1.111529
     15          9           0       -0.508908    6.028406   -0.543386
     16          9           0       -1.914048    4.781015   -1.630950
     17          9           0        0.204192    4.760429   -2.142682
     18          6           0        1.074217    0.903333    0.106082
     19          8           0        1.935949    1.660775   -0.334255
     20          7           0        1.404437   -0.222047    0.814021
     21          6           0        2.819614   -0.543200    0.955103
     22          9           0        2.975895   -1.302439    2.078738
     23          9           0        3.502048    0.600018    1.258521
     24          6           0        3.476656   -1.243340   -0.265592
     25          9           0        2.906168   -2.470547   -0.445101
     26          8           0        3.177812   -0.513860   -1.460799
     27          6           0        3.924185   -0.934205   -2.570937
     28          9           0        5.172573   -0.449181   -2.479152
     29          9           0        3.951057   -2.272985   -2.658040
     30          9           0        3.349690   -0.440011   -3.683655
     31          6           0        4.956171   -1.409740    0.109566
     32          9           0        5.133614   -2.040799    1.290647
     33          9           0        5.621426   -2.147571   -0.812813
     34          9           0        5.595337   -0.220943    0.186738
     35          6           0        0.512397   -1.244882    0.990042
     36          8           0        0.884348   -2.402530    1.156138
     37          7           0       -0.831303   -0.910193    0.966848
     38          6           0       -1.750580   -1.981899    1.406370
     39          9           0       -2.754196   -1.400504    2.145876
     40          9           0       -1.158178   -2.788534    2.334763
     41          6           0       -2.421065   -2.841837    0.311660
     42          9           0       -3.056669   -2.006347   -0.568355
     43          8           0       -3.407254   -3.693902    0.924259
     44          6           0       -4.601578   -3.728292    0.190579
     45          9           0       -5.379789   -4.706992    0.688853
     46          9           0       -5.247642   -2.555742    0.322804
     47          9           0       -4.365785   -3.982846   -1.106552
     48          6           0       -1.380513   -3.661275   -0.438058
     49          9           0       -0.492568   -2.872283   -1.088191
     50          9           0       -1.964384   -4.434681   -1.387864
     51          9           0       -0.698534   -4.499554    0.367537
     52          1           0       -3.365568    0.066465    0.842800
     53          1           0       -2.938646    1.617231    0.092319
 ---------------------------------------------------------------------
 Rotational constants (GHZ):      0.0562125      0.0524158      0.0328515
 Leave Link  202 at Sun Mar  3 18:16:02 2024, MaxMem=  5368709120 cpu:         0.0
 (Enter /home/k0335/k033513/app/g09/l301.exe)
 Standard basis: 6-31G(d,p) (6D, 7F)
 Ernie: Thresh=  0.10000D-02 Tol=  0.10000D-05 Strict=F.
   775 basis functions,  1442 primitive gaussians,   775 cartesian basis functions
   201 alpha electrons      200 beta electrons
       nuclear repulsion energy      9123.4650216732 Hartrees.
 IExCor=20419 DFT=T Ex+Corr=CAM-B3LYP ExCW=0 ScaHFX=  1.000000
 ScaDFX=  1.000000  1.000000  1.000000  0.810000 ScalE2=  1.000000  1.000000
 IRadAn=      0 IRanWt=     -1 IRanGd=            0 ICorTp=0 IEmpDi=  4
  HFx wShort=  0.000000 wLong=  0.330000 cFull=  0.190000 cShort=  0.000000 cLong=  0.460000
  DFx wShort=  0.000000 wLong=  0.330000 cFull=  0.190000 cShort=  0.000000 cLong=  0.460000
 NAtoms=   53 NActive=   53 NUniq=   53 SFac= 1.00D+00 NAtFMM=   60 NAOKFM=F Big=F
 Integral buffers will be    131072 words long.
 Raffenetti 2 integral format.
 Two-electron integral symmetry is turned off.
 Using the following non-standard input for PCM:
 eps=4.9
 --- end of non-standard input.
 ------------------------------------------------------------------------------
 Polarizable Continuum Model (PCM)
 =================================
 Model                : PCM (using non-symmetric T matrix).
 Atomic radii         : UFF (Universal Force Field).
 Polarization charges : Total charges.
 Charge compensation  : None.
 Solution method      : On-the-fly selection.
 Cavity type          : Scaled VdW (van der Waals Surface) (Alpha=1.100).
 Cavity algorithm     : GePol (No added spheres)
                        Default sphere list used, NSphG=   53.
                        Lebedev-Laikov grids with approx.  5.0 points / Ang**2.
                        Smoothing algorithm: Karplus/York (Gamma=1.0000).
                        Polarization charges: spherical gaussians, with
                                              point-specific exponents (IZeta= 3).
                        Self-potential: point-specific (ISelfS= 7).
                        Self-field    : sphere-specific E.n sum rule (ISelfD= 2).
 Solvent              : Generic,
                        Eps                           =   4.900000
                        Eps(infinity)                 =   0.000000
                        RSolv                         =   0.000000 Ang.
                        Molar volume                  =   0.000000 cm**3/mol
                        Thermal expansion coefficient =   0.000000 K**-1
                        Absolute temperature          = 298.150000 K
                        Numeral density               =   0.000000 Ang**-3
                        Hydrogen bond acidity         =   0.000000
                        Hydrogen bond basicity        =   0.000000
                        Surface tension at interface  =   0.000000 (cal/mol)*Ang**-2
                        Carbon aromaticity            =   0.000000
                        Electronegative halogenicity  =   0.000000
 ------------------------------------------------------------------------------
 GePol: Number of generator spheres                  =      53
 GePol: Total number of spheres                      =      53
 GePol: Number of exposed spheres                    =      52 ( 98.11%)
 GePol: Number of points                             =    4383
 GePol: Average weight of points                     =       0.12
 GePol: Minimum weight of points                     =   0.60D-10
 GePol: Maximum weight of points                     =    0.20577
 GePol: Number of points with low weight             =     177
 GePol: Fraction of low-weight points (<1% of avg)   =       4.04%
 GePol: Cavity surface area                          =    540.254 Ang**2
 GePol: Cavity volume                                =    648.801 Ang**3
 Leave Link  301 at Sun Mar  3 18:16:03 2024, MaxMem=  5368709120 cpu:         0.9
 (Enter /home/k0335/k033513/app/g09/l302.exe)
 NPDir=0 NMtPBC=     1 NCelOv=     1 NCel=       1 NClECP=     1 NCelD=      1
         NCelK=      1 NCelE2=     1 NClLst=     1 CellRange=     0.0.
 One-electron integrals computed using PRISM.
 NBasis=   775 RedAO= T EigKep=  1.20D-03  NBF=   775
 NBsUse=   775 1.00D-06 EigRej= -1.00D+00 NBFU=   775
 Precomputing XC quadrature grid using
 IXCGrd= 4 IRadAn=           0 IRanWt=          -1 IRanGd=           0 AccXCQ= 0.00D+00.
 Generated NRdTot=       0 NPtTot=           0 NUsed=           0 NTot=          32
 NSgBfM=   741   741   741   741   741 MxSgAt=    53 MxSgA2=    53.
 Leave Link  302 at Sun Mar  3 18:16:04 2024, MaxMem=  5368709120 cpu:        23.0
 (Enter /home/k0335/k033513/app/g09/l303.exe)
 DipDrv:  MaxL=1.
 Leave Link  303 at Sun Mar  3 18:16:04 2024, MaxMem=  5368709120 cpu:         1.7
 (Enter /home/k0335/k033513/app/g09/l401.exe)
 ExpMin= 1.61D-01 ExpMax= 7.00D+03 ExpMxC= 1.05D+03 IAcc=1 IRadAn=         1 AccDes= 0.00D+00
 Harris functional with IExCor=20419 and IRadAn=       1 diagonalized for initial guess.
 HarFok:  IExCor=20419 AccDes= 0.00D+00 IRadAn=         1 IDoV= 1 UseB2=F ITyADJ=14
 ICtDFT=  3500011 ScaDFX=  1.000000  1.000000  1.000000  1.000000
 FoFCou: FMM=F IPFlag=           0 FMFlag=      100000 FMFlg1=           0
         NFxFlg=           0 DoJE=T BraDBF=F KetDBF=T FulRan=T
         wScrn=  0.000000 ICntrl=     500 IOpCl=  0 I1Cent=   200000004 NGrid=           0
         NMat0=    1 NMatS0=      1 NMatT0=    0 NMatD0=    1 NMtDS0=    0 NMtDT0=    0
 Symmetry not used in FoFCou.
 Harris En= -3732.70855767905    
 JPrj=0 DoOrth=F DoCkMO=F.
 Initial guess <Sx>= 0.0000 <Sy>= 0.0000 <Sz>= 0.5000 <S**2>= 0.7500 S= 0.5000
 Leave Link  401 at Sun Mar  3 18:16:05 2024, MaxMem=  5368709120 cpu:        28.4
 (Enter /home/k0335/k033513/app/g09/l502.exe)
 UHF open shell SCF:
 Using DIIS extrapolation, IDIIS=  1040.
 Two-electron integral symmetry not used.
 IVT=     1843781 IEndB=     1843781 NGot=  5368709120 MDV=  5367483380
 LenX=  5367483380 LenY=  5366881980
 Requested convergence on RMS density matrix=1.00D-08 within 128 cycles.
 Requested convergence on MAX density matrix=1.00D-06.
 Requested convergence on             energy=1.00D-06.
 No special actions if energy rises.
 Fock matrices will be formed incrementally for  20 cycles.

 Cycle   1  Pass 1  IDiag  1:
 FoFJK:  IHMeth= 1 ICntrl=       0 DoSepK=T KAlg= 0 I1Cent=   0 FoldK=F
 IRaf=         1 NMat=   1 IRICut=       1 DoRegI=T DoRafI=F ISym2E= 0.
 FoFCou: FMM=F IPFlag=           0 FMFlag=      100000 FMFlg1=           0
         NFxFlg=           0 DoJE=T BraDBF=F KetDBF=F FulRan=T
         wScrn=  0.000000 ICntrl=     500 IOpCl=  0 I1Cent=           0 NGrid=           0
         NMat0=    1 NMatS0=      1 NMatT0=    0 NMatD0=    1 NMtDS0=    0 NMtDT0=    0
 Symmetry not used in FoFCou.
 Inv3:  Mode=1 IEnd=    57632067.
 Iteration    1 A*A^-1 deviation from unit magnitude is 7.11D-15 for   4346.
 Iteration    1 A*A^-1 deviation from orthogonality  is 5.62D-15 for   4370     46.
 Iteration    1 A^-1*A deviation from unit magnitude is 7.99D-15 for   4346.
 Iteration    1 A^-1*A deviation from orthogonality  is 6.66D-13 for   2292   2245.
 E= -3844.10303416854    
 DIIS: error= 4.86D-02 at cycle   1 NSaved=   1.
 NSaved= 1 IEnMin= 1 EnMin= -3844.10303416854     IErMin= 1 ErrMin= 4.86D-02
 ErrMax= 4.86D-02  0.00D+00 EMaxC= 1.00D-01 BMatC= 1.36D+01 BMatP= 1.36D+01
 IDIUse=3 WtCom= 5.14D-01 WtEn= 4.86D-01
 Coeff-Com:  0.100D+01
 Coeff-En:   0.100D+01
 Coeff:      0.100D+01
 Gap=     0.379 Goal=   None    Shift=    0.000
 Gap=     0.172 Goal=   None    Shift=    0.000
 GapD=    0.172 DampG=1.000 DampE=0.500 DampFc=0.5000 IDamp=-1.
 Damping current iteration by 5.00D-01
 RMSDP=2.97D-03 MaxDP=1.43D-01              OVMax= 3.64D-01

 Cycle   2  Pass 1  IDiag  1:
 RMSU=  1.49D-03    CP:  1.00D+00
 E= -3844.85363661116     Delta-E=       -0.750602442620 Rises=F Damp=T
 DIIS: error= 2.23D-02 at cycle   2 NSaved=   2.
 NSaved= 2 IEnMin= 2 EnMin= -3844.85363661116     IErMin= 2 ErrMin= 2.23D-02
 ErrMax= 2.23D-02  0.00D+00 EMaxC= 1.00D-01 BMatC= 1.64D+00 BMatP= 1.36D+01
 IDIUse=3 WtCom= 7.77D-01 WtEn= 2.23D-01
 Coeff-Com: -0.257D+00 0.126D+01
 Coeff-En:   0.000D+00 0.100D+01
 Coeff:     -0.200D+00 0.120D+01
 Gap=     0.426 Goal=   None    Shift=    0.000
 Gap=     0.240 Goal=   None    Shift=    0.000
 RMSDP=9.77D-04 MaxDP=8.07D-02 DE=-7.51D-01 OVMax= 2.36D-01

 Cycle   3  Pass 1  IDiag  1:
 RMSU=  9.13D-04    CP:  1.00D+00  1.23D+00
 E= -3845.41071528750     Delta-E=       -0.557078676340 Rises=F Damp=F
 DIIS: error= 1.11D-02 at cycle   3 NSaved=   3.
 NSaved= 3 IEnMin= 3 EnMin= -3845.41071528750     IErMin= 3 ErrMin= 1.11D-02
 ErrMax= 1.11D-02  0.00D+00 EMaxC= 1.00D-01 BMatC= 9.43D-01 BMatP= 1.64D+00
 IDIUse=3 WtCom= 8.89D-01 WtEn= 1.11D-01
 Coeff-Com: -0.191D+00 0.641D+00 0.550D+00
 Coeff-En:   0.000D+00 0.000D+00 0.100D+01
 Coeff:     -0.170D+00 0.570D+00 0.600D+00
 Gap=     0.346 Goal=   None    Shift=    0.000
 Gap=     0.181 Goal=   None    Shift=    0.000
 RMSDP=7.03D-04 MaxDP=9.74D-02 DE=-5.57D-01 OVMax= 1.46D-01

 Cycle   4  Pass 1  IDiag  1:
 RMSU=  4.05D-04    CP:  9.99D-01  1.41D+00  4.41D-01
 E= -3845.54623077278     Delta-E=       -0.135515485279 Rises=F Damp=F
 DIIS: error= 5.63D-03 at cycle   4 NSaved=   4.
 NSaved= 4 IEnMin= 4 EnMin= -3845.54623077278     IErMin= 4 ErrMin= 5.63D-03
 ErrMax= 5.63D-03  0.00D+00 EMaxC= 1.00D-01 BMatC= 2.16D-01 BMatP= 9.43D-01
 IDIUse=3 WtCom= 9.44D-01 WtEn= 5.63D-02
 Coeff-Com: -0.534D-01 0.134D+00 0.349D+00 0.571D+00
 Coeff-En:   0.000D+00 0.000D+00 0.199D+00 0.801D+00
 Coeff:     -0.504D-01 0.126D+00 0.340D+00 0.584D+00
 Gap=     0.343 Goal=   None    Shift=    0.000
 Gap=     0.190 Goal=   None    Shift=    0.000
 RMSDP=2.85D-04 MaxDP=4.18D-02 DE=-1.36D-01 OVMax= 4.68D-02

 Cycle   5  Pass 1  IDiag  1:
 RMSU=  1.29D-04    CP:  9.98D-01  1.37D+00  6.68D-01  6.74D-01
 E= -3845.58404919820     Delta-E=       -0.037818425420 Rises=F Damp=F
 DIIS: error= 9.05D-04 at cycle   5 NSaved=   5.
 NSaved= 5 IEnMin= 5 EnMin= -3845.58404919820     IErMin= 5 ErrMin= 9.05D-04
 ErrMax= 9.05D-04  0.00D+00 EMaxC= 1.00D-01 BMatC= 1.25D-02 BMatP= 2.16D-01
 IDIUse=3 WtCom= 9.91D-01 WtEn= 9.05D-03
 Coeff-Com: -0.123D-01 0.216D-01 0.144D+00 0.324D+00 0.523D+00
 Coeff-En:   0.000D+00 0.000D+00 0.000D+00 0.000D+00 0.100D+01
 Coeff:     -0.122D-01 0.214D-01 0.143D+00 0.321D+00 0.527D+00
 Gap=     0.338 Goal=   None    Shift=    0.000
 Gap=     0.187 Goal=   None    Shift=    0.000
 RMSDP=6.36D-05 MaxDP=7.80D-03 DE=-3.78D-02 OVMax= 1.34D-02

 Cycle   6  Pass 1  IDiag  1:
 RMSU=  4.49D-05    CP:  9.99D-01  1.38D+00  6.58D-01  7.35D-01  7.43D-01
 E= -3845.58660545023     Delta-E=       -0.002556252031 Rises=F Damp=F
 DIIS: error= 3.65D-04 at cycle   6 NSaved=   6.
 NSaved= 6 IEnMin= 6 EnMin= -3845.58660545023     IErMin= 6 ErrMin= 3.65D-04
 ErrMax= 3.65D-04  0.00D+00 EMaxC= 1.00D-01 BMatC= 4.06D-04 BMatP= 1.25D-02
 IDIUse=3 WtCom= 9.96D-01 WtEn= 3.65D-03
 Coeff-Com:  0.434D-02-0.116D-01-0.185D-01-0.198D-01 0.951D-01 0.950D+00
 Coeff-En:   0.000D+00 0.000D+00 0.000D+00 0.000D+00 0.000D+00 0.100D+01
 Coeff:      0.433D-02-0.115D-01-0.185D-01-0.197D-01 0.948D-01 0.951D+00
 Gap=     0.334 Goal=   None    Shift=    0.000
 Gap=     0.189 Goal=   None    Shift=    0.000
 RMSDP=3.08D-05 MaxDP=6.18D-03 DE=-2.56D-03 OVMax= 1.19D-02

 Cycle   7  Pass 1  IDiag  1:
 RMSU=  1.72D-05    CP:  9.99D-01  1.38D+00  6.65D-01  7.64D-01  8.71D-01
                    CP:  1.30D+00
 E= -3845.58692156976     Delta-E=       -0.000316119529 Rises=F Damp=F
 DIIS: error= 2.13D-04 at cycle   7 NSaved=   7.
 NSaved= 7 IEnMin= 7 EnMin= -3845.58692156976     IErMin= 7 ErrMin= 2.13D-04
 ErrMax= 2.13D-04  0.00D+00 EMaxC= 1.00D-01 BMatC= 1.19D-04 BMatP= 4.06D-04
 IDIUse=3 WtCom= 9.98D-01 WtEn= 2.13D-03
 Coeff-Com:  0.327D-02-0.646D-02-0.272D-01-0.572D-01-0.360D-01 0.366D+00
 Coeff-Com:  0.758D+00
 Coeff-En:   0.000D+00 0.000D+00 0.000D+00 0.000D+00 0.000D+00 0.000D+00
 Coeff-En:   0.100D+01
 Coeff:      0.326D-02-0.645D-02-0.271D-01-0.571D-01-0.359D-01 0.365D+00
 Coeff:      0.758D+00
 Gap=     0.335 Goal=   None    Shift=    0.000
 Gap=     0.191 Goal=   None    Shift=    0.000
 RMSDP=1.41D-05 MaxDP=1.45D-03 DE=-3.16D-04 OVMax= 6.48D-03

 Cycle   8  Pass 1  IDiag  1:
 RMSU=  7.30D-06    CP:  9.99D-01  1.38D+00  6.67D-01  7.69D-01  9.19D-01
                    CP:  1.52D+00  1.14D+00
 E= -3845.58700285905     Delta-E=       -0.000081289294 Rises=F Damp=F
 DIIS: error= 6.50D-05 at cycle   8 NSaved=   8.
 NSaved= 8 IEnMin= 8 EnMin= -3845.58700285905     IErMin= 8 ErrMin= 6.50D-05
 ErrMax= 6.50D-05  0.00D+00 EMaxC= 1.00D-01 BMatC= 1.95D-05 BMatP= 1.19D-04
 IDIUse=1 WtCom= 1.00D+00 WtEn= 0.00D+00
 Coeff-Com: -0.501D-04 0.617D-03-0.346D-02-0.125D-01-0.245D-01-0.948D-01
 Coeff-Com:  0.138D+00 0.997D+00
 Coeff:     -0.501D-04 0.617D-03-0.346D-02-0.125D-01-0.245D-01-0.948D-01
 Coeff:      0.138D+00 0.997D+00
 Gap=     0.335 Goal=   None    Shift=    0.000
 Gap=     0.192 Goal=   None    Shift=    0.000
 RMSDP=9.70D-06 MaxDP=1.69D-03 DE=-8.13D-05 OVMax= 4.89D-03

 Cycle   9  Pass 1  IDiag  1:
 RMSU=  3.80D-06    CP:  9.99D-01  1.38D+00  6.69D-01  7.71D-01  9.47D-01
                    CP:  1.64D+00  1.45D+00  1.40D+00
 E= -3845.58702657169     Delta-E=       -0.000023712639 Rises=F Damp=F
 DIIS: error= 2.19D-05 at cycle   9 NSaved=   9.
 NSaved= 9 IEnMin= 9 EnMin= -3845.58702657169     IErMin= 9 ErrMin= 2.19D-05
 ErrMax= 2.19D-05  0.00D+00 EMaxC= 1.00D-01 BMatC= 8.34D-06 BMatP= 1.95D-05
 IDIUse=1 WtCom= 1.00D+00 WtEn= 0.00D+00
 Coeff-Com: -0.876D-03 0.191D-02 0.511D-02 0.840D-02-0.589D-03-0.124D+00
 Coeff-Com: -0.143D+00 0.487D+00 0.766D+00
 Coeff:     -0.876D-03 0.191D-02 0.511D-02 0.840D-02-0.589D-03-0.124D+00
 Coeff:     -0.143D+00 0.487D+00 0.766D+00
 Gap=     0.335 Goal=   None    Shift=    0.000
 Gap=     0.192 Goal=   None    Shift=    0.000
 RMSDP=4.67D-06 MaxDP=8.50D-04 DE=-2.37D-05 OVMax= 2.30D-03

 Cycle  10  Pass 1  IDiag  1:
 RMSU=  1.85D-06    CP:  9.99D-01  1.38D+00  6.69D-01  7.73D-01  9.55D-01
                    CP:  1.68D+00  1.58D+00  1.76D+00  1.15D+00
 E= -3845.58703250937     Delta-E=       -0.000005937678 Rises=F Damp=F
 DIIS: error= 1.52D-05 at cycle  10 NSaved=  10.
 NSaved=10 IEnMin=10 EnMin= -3845.58703250937     IErMin=10 ErrMin= 1.52D-05
 ErrMax= 1.52D-05  0.00D+00 EMaxC= 1.00D-01 BMatC= 1.10D-06 BMatP= 8.34D-06
 IDIUse=1 WtCom= 1.00D+00 WtEn= 0.00D+00
 Coeff-Com: -0.199D-03 0.347D-03 0.188D-02 0.462D-02 0.578D-02-0.204D-02
 Coeff-Com: -0.701D-01-0.819D-01 0.136D+00 0.101D+01
 Coeff:     -0.199D-03 0.347D-03 0.188D-02 0.462D-02 0.578D-02-0.204D-02
 Coeff:     -0.701D-01-0.819D-01 0.136D+00 0.101D+01
 Gap=     0.335 Goal=   None    Shift=    0.000
 Gap=     0.192 Goal=   None    Shift=    0.000
 RMSDP=2.49D-06 MaxDP=3.84D-04 DE=-5.94D-06 OVMax= 1.21D-03

 Cycle  11  Pass 1  IDiag  1:
 RMSU=  9.96D-07    CP:  9.99D-01  1.38D+00  6.69D-01  7.73D-01  9.57D-01
                    CP:  1.70D+00  1.64D+00  1.94D+00  1.45D+00  1.42D+00
 E= -3845.58703408768     Delta-E=       -0.000001578308 Rises=F Damp=F
 DIIS: error= 9.97D-06 at cycle  11 NSaved=  11.
 NSaved=11 IEnMin=11 EnMin= -3845.58703408768     IErMin=11 ErrMin= 9.97D-06
 ErrMax= 9.97D-06  0.00D+00 EMaxC= 1.00D-01 BMatC= 5.59D-07 BMatP= 1.10D-06
 IDIUse=1 WtCom= 1.00D+00 WtEn= 0.00D+00
 Coeff-Com:  0.157D-03-0.372D-03-0.635D-03-0.478D-03 0.276D-02 0.344D-01
 Coeff-Com:  0.383D-02-0.170D+00-0.160D+00 0.507D+00 0.783D+00
 Coeff:      0.157D-03-0.372D-03-0.635D-03-0.478D-03 0.276D-02 0.344D-01
 Coeff:      0.383D-02-0.170D+00-0.160D+00 0.507D+00 0.783D+00
 Gap=     0.335 Goal=   None    Shift=    0.000
 Gap=     0.192 Goal=   None    Shift=    0.000
 RMSDP=1.39D-06 MaxDP=2.03D-04 DE=-1.58D-06 OVMax= 5.90D-04

 Cycle  12  Pass 1  IDiag  1:
 RMSU=  5.26D-07    CP:  9.99D-01  1.38D+00  6.69D-01  7.73D-01  9.57D-01
                    CP:  1.70D+00  1.67D+00  2.03D+00  1.61D+00  1.83D+00
                    CP:  1.23D+00
 E= -3845.58703462091     Delta-E=       -0.000000533231 Rises=F Damp=F
 DIIS: error= 5.72D-06 at cycle  12 NSaved=  12.
 NSaved=12 IEnMin=12 EnMin= -3845.58703462091     IErMin=12 ErrMin= 5.72D-06
 ErrMax= 5.72D-06  0.00D+00 EMaxC= 1.00D-01 BMatC= 1.23D-07 BMatP= 5.59D-07
 IDIUse=1 WtCom= 1.00D+00 WtEn= 0.00D+00
 Coeff-Com:  0.132D-03-0.272D-03-0.845D-03-0.176D-02-0.813D-03 0.138D-01
 Coeff-Com:  0.254D-01-0.316D-01-0.112D+00-0.101D+00 0.238D+00 0.971D+00
 Coeff:      0.132D-03-0.272D-03-0.845D-03-0.176D-02-0.813D-03 0.138D-01
 Coeff:      0.254D-01-0.316D-01-0.112D+00-0.101D+00 0.238D+00 0.971D+00
 Gap=     0.335 Goal=   None    Shift=    0.000
 Gap=     0.192 Goal=   None    Shift=    0.000
 RMSDP=8.47D-07 MaxDP=1.64D-04 DE=-5.33D-07 OVMax= 3.47D-04

 Cycle  13  Pass 1  IDiag  1:
 RMSU=  2.90D-07    CP:  9.99D-01  1.38D+00  6.69D-01  7.73D-01  9.58D-01
                    CP:  1.71D+00  1.68D+00  2.06D+00  1.70D+00  2.05D+00
                    CP:  1.63D+00  1.50D+00
 E= -3845.58703481020     Delta-E=       -0.000000189289 Rises=F Damp=F
 DIIS: error= 3.77D-06 at cycle  13 NSaved=  13.
 NSaved=13 IEnMin=13 EnMin= -3845.58703481020     IErMin=13 ErrMin= 3.77D-06
 ErrMax= 3.77D-06  0.00D+00 EMaxC= 1.00D-01 BMatC= 4.17D-08 BMatP= 1.23D-07
 IDIUse=1 WtCom= 1.00D+00 WtEn= 0.00D+00
 Coeff-Com: -0.822D-05 0.305D-04-0.695D-05-0.328D-03-0.121D-02-0.779D-02
 Coeff-Com:  0.681D-02 0.477D-01 0.114D-01-0.174D+00-0.221D+00 0.268D+00
 Coeff-Com:  0.107D+01
 Coeff:     -0.822D-05 0.305D-04-0.695D-05-0.328D-03-0.121D-02-0.779D-02
 Coeff:      0.681D-02 0.477D-01 0.114D-01-0.174D+00-0.221D+00 0.268D+00
 Coeff:      0.107D+01
 Gap=     0.335 Goal=   None    Shift=    0.000
 Gap=     0.192 Goal=   None    Shift=    0.000
 RMSDP=5.87D-07 MaxDP=1.16D-04 DE=-1.89D-07 OVMax= 2.41D-04

 Cycle  14  Pass 1  IDiag  1:
 RMSU=  1.72D-07    CP:  9.99D-01  1.38D+00  6.69D-01  7.73D-01  9.58D-01
                    CP:  1.71D+00  1.68D+00  2.08D+00  1.75D+00  2.20D+00
                    CP:  1.90D+00  2.06D+00  1.47D+00
 E= -3845.58703487868     Delta-E=       -0.000000068483 Rises=F Damp=F
 DIIS: error= 1.86D-06 at cycle  14 NSaved=  14.
 NSaved=14 IEnMin=14 EnMin= -3845.58703487868     IErMin=14 ErrMin= 1.86D-06
 ErrMax= 1.86D-06  0.00D+00 EMaxC= 1.00D-01 BMatC= 1.44D-08 BMatP= 4.17D-08
 IDIUse=1 WtCom= 1.00D+00 WtEn= 0.00D+00
 Coeff-Com: -0.333D-04 0.739D-04 0.203D-03 0.268D-03-0.400D-03-0.732D-02
 Coeff-Com: -0.283D-02 0.300D-01 0.317D-01-0.442D-01-0.176D+00-0.150D+00
 Coeff-Com:  0.504D+00 0.815D+00
 Coeff:     -0.333D-04 0.739D-04 0.203D-03 0.268D-03-0.400D-03-0.732D-02
 Coeff:     -0.283D-02 0.300D-01 0.317D-01-0.442D-01-0.176D+00-0.150D+00
 Coeff:      0.504D+00 0.815D+00
 Gap=     0.335 Goal=   None    Shift=    0.000
 Gap=     0.192 Goal=   None    Shift=    0.000
 RMSDP=2.73D-07 MaxDP=5.91D-05 DE=-6.85D-08 OVMax= 1.04D-04

 Cycle  15  Pass 1  IDiag  1:
 RMSU=  8.78D-08    CP:  9.99D-01  1.38D+00  6.69D-01  7.73D-01  9.58D-01
                    CP:  1.71D+00  1.68D+00  2.09D+00  1.76D+00  2.25D+00
                    CP:  2.02D+00  2.31D+00  1.88D+00  1.22D+00
 E= -3845.58703489380     Delta-E=       -0.000000015116 Rises=F Damp=F
 DIIS: error= 1.02D-06 at cycle  15 NSaved=  15.
 NSaved=15 IEnMin=15 EnMin= -3845.58703489380     IErMin=15 ErrMin= 1.02D-06
 ErrMax= 1.02D-06  0.00D+00 EMaxC= 1.00D-01 BMatC= 3.91D-09 BMatP= 1.44D-08
 IDIUse=1 WtCom= 1.00D+00 WtEn= 0.00D+00
 Coeff-Com: -0.131D-04 0.258D-04 0.109D-03 0.231D-03 0.184D-03-0.145D-02
 Coeff-Com: -0.297D-02 0.131D-02 0.115D-01 0.330D-01-0.262D-01-0.153D+00
 Coeff-Com: -0.526D-01 0.404D+00 0.785D+00
 Coeff:     -0.131D-04 0.258D-04 0.109D-03 0.231D-03 0.184D-03-0.145D-02
 Coeff:     -0.297D-02 0.131D-02 0.115D-01 0.330D-01-0.262D-01-0.153D+00
 Coeff:     -0.526D-01 0.404D+00 0.785D+00
 Gap=     0.335 Goal=   None    Shift=    0.000
 Gap=     0.192 Goal=   None    Shift=    0.000
 RMSDP=1.12D-07 MaxDP=2.30D-05 DE=-1.51D-08 OVMax= 4.28D-05

 Cycle  16  Pass 1  IDiag  1:
 RMSU=  4.30D-08    CP:  9.99D-01  1.38D+00  6.69D-01  7.73D-01  9.59D-01
                    CP:  1.71D+00  1.68D+00  2.09D+00  1.77D+00  2.26D+00
                    CP:  2.05D+00  2.42D+00  2.06D+00  1.52D+00  1.10D+00
 E= -3845.58703489653     Delta-E=       -0.000000002736 Rises=F Damp=F
 DIIS: error= 3.78D-07 at cycle  16 NSaved=  16.
 NSaved=16 IEnMin=16 EnMin= -3845.58703489653     IErMin=16 ErrMin= 3.78D-07
 ErrMax= 3.78D-07  0.00D+00 EMaxC= 1.00D-01 BMatC= 7.26D-10 BMatP= 3.91D-09
 IDIUse=1 WtCom= 1.00D+00 WtEn= 0.00D+00
 Coeff-Com:  0.183D-05-0.515D-05 0.425D-05 0.386D-04 0.179D-03 0.872D-03
 Coeff-Com: -0.562D-03-0.579D-02-0.251D-02 0.204D-01 0.262D-01-0.242D-01
 Coeff-Com: -0.126D+00-0.326D-01 0.278D+00 0.866D+00
 Coeff:      0.183D-05-0.515D-05 0.425D-05 0.386D-04 0.179D-03 0.872D-03
 Coeff:     -0.562D-03-0.579D-02-0.251D-02 0.204D-01 0.262D-01-0.242D-01
 Coeff:     -0.126D+00-0.326D-01 0.278D+00 0.866D+00
 Gap=     0.335 Goal=   None    Shift=    0.000
 Gap=     0.192 Goal=   None    Shift=    0.000
 RMSDP=5.43D-08 MaxDP=1.05D-05 DE=-2.74D-09 OVMax= 2.38D-05

 Cycle  17  Pass 1  IDiag  1:
 RMSU=  2.16D-08    CP:  9.99D-01  1.38D+00  6.69D-01  7.73D-01  9.59D-01
                    CP:  1.71D+00  1.69D+00  2.09D+00  1.77D+00  2.27D+00
                    CP:  2.06D+00  2.45D+00  2.14D+00  1.65D+00  1.38D+00
                    CP:  1.28D+00
 E= -3845.58703489735     Delta-E=       -0.000000000815 Rises=F Damp=F
 DIIS: error= 1.49D-07 at cycle  17 NSaved=  17.
 NSaved=17 IEnMin=17 EnMin= -3845.58703489735     IErMin=17 ErrMin= 1.49D-07
 ErrMax= 1.49D-07  0.00D+00 EMaxC= 1.00D-01 BMatC= 2.13D-10 BMatP= 7.26D-10
 IDIUse=1 WtCom= 1.00D+00 WtEn= 0.00D+00
 Coeff-Com:  0.390D-05-0.831D-05-0.252D-04-0.443D-04 0.313D-04 0.691D-03
 Coeff-Com:  0.398D-03-0.262D-02-0.360D-02-0.102D-03 0.185D-01 0.284D-01
 Coeff-Com: -0.377D-01-0.108D+00-0.916D-01 0.343D+00 0.852D+00
 Coeff:      0.390D-05-0.831D-05-0.252D-04-0.443D-04 0.313D-04 0.691D-03
 Coeff:      0.398D-03-0.262D-02-0.360D-02-0.102D-03 0.185D-01 0.284D-01
 Coeff:     -0.377D-01-0.108D+00-0.916D-01 0.343D+00 0.852D+00
 Gap=     0.335 Goal=   None    Shift=    0.000
 Gap=     0.192 Goal=   None    Shift=    0.000
 RMSDP=2.54D-08 MaxDP=3.79D-06 DE=-8.15D-10 OVMax= 9.63D-06

 Cycle  18  Pass 1  IDiag  1:
 RMSU=  1.02D-08    CP:  9.99D-01  1.38D+00  6.69D-01  7.73D-01  9.59D-01
                    CP:  1.71D+00  1.69D+00  2.09D+00  1.77D+00  2.27D+00
                    CP:  2.06D+00  2.46D+00  2.16D+00  1.71D+00  1.50D+00
                    CP:  1.64D+00  1.32D+00
 E= -3845.58703489750     Delta-E=       -0.000000000158 Rises=F Damp=F
 DIIS: error= 7.62D-08 at cycle  18 NSaved=  18.
 NSaved=18 IEnMin=18 EnMin= -3845.58703489750     IErMin=18 ErrMin= 7.62D-08
 ErrMax= 7.62D-08  0.00D+00 EMaxC= 1.00D-01 BMatC= 4.66D-11 BMatP= 2.13D-10
 IDIUse=1 WtCom= 1.00D+00 WtEn= 0.00D+00
 Coeff-Com:  0.128D-06 0.131D-07-0.652D-05-0.201D-04-0.372D-04-0.400D-04
 Coeff-Com:  0.174D-03 0.970D-03 0.854D-04-0.622D-02-0.174D-02 0.118D-01
 Coeff-Com:  0.235D-01-0.103D-01-0.106D+00-0.180D+00 0.191D+00 0.108D+01
 Coeff:      0.128D-06 0.131D-07-0.652D-05-0.201D-04-0.372D-04-0.400D-04
 Coeff:      0.174D-03 0.970D-03 0.854D-04-0.622D-02-0.174D-02 0.118D-01
 Coeff:      0.235D-01-0.103D-01-0.106D+00-0.180D+00 0.191D+00 0.108D+01
 Gap=     0.335 Goal=   None    Shift=    0.000
 Gap=     0.192 Goal=   None    Shift=    0.000
 RMSDP=1.84D-08 MaxDP=2.64D-06 DE=-1.58D-10 OVMax= 6.71D-06

 Cycle  19  Pass 1  IDiag  1:
 RMSU=  5.16D-09    CP:  9.99D-01  1.38D+00  6.69D-01  7.73D-01  9.59D-01
                    CP:  1.71D+00  1.69D+00  2.09D+00  1.77D+00  2.27D+00
                    CP:  2.07D+00  2.46D+00  2.17D+00  1.74D+00  1.57D+00
                    CP:  1.87D+00  1.78D+00  1.49D+00
 E= -3845.58703489758     Delta-E=       -0.000000000071 Rises=F Damp=F
 DIIS: error= 3.27D-08 at cycle  19 NSaved=  19.
 NSaved=19 IEnMin=19 EnMin= -3845.58703489758     IErMin=19 ErrMin= 3.27D-08
 ErrMax= 3.27D-08  0.00D+00 EMaxC= 1.00D-01 BMatC= 1.28D-11 BMatP= 4.66D-11
 IDIUse=1 WtCom= 1.00D+00 WtEn= 0.00D+00
 Coeff-Com: -0.998D-06 0.221D-05 0.368D-05 0.458D-05-0.192D-04-0.164D-03
 Coeff-Com: -0.609D-04 0.911D-03 0.949D-03-0.220D-02-0.421D-02-0.253D-02
 Coeff-Com:  0.161D-01 0.219D-01-0.175D-01-0.136D+00-0.129D+00 0.395D+00
 Coeff-Com:  0.857D+00
 Coeff:     -0.998D-06 0.221D-05 0.368D-05 0.458D-05-0.192D-04-0.164D-03
 Coeff:     -0.609D-04 0.911D-03 0.949D-03-0.220D-02-0.421D-02-0.253D-02
 Coeff:      0.161D-01 0.219D-01-0.175D-01-0.136D+00-0.129D+00 0.395D+00
 Coeff:      0.857D+00
 Gap=     0.335 Goal=   None    Shift=    0.000
 Gap=     0.192 Goal=   None    Shift=    0.000
 RMSDP=7.43D-09 MaxDP=9.31D-07 DE=-7.09D-11 OVMax= 2.94D-06

 Error on total polarization charges =  0.00113
 SCF Done:  E(UCAM-B3LYP) =  -3845.58703490     A.U. after   19 cycles
            NFock= 19  Conv=0.74D-08     -V/T= 2.0073
 <Sx>= 0.0000 <Sy>= 0.0000 <Sz>= 0.5000 <S**2>= 0.7562 S= 0.5031
 <L.S>= 0.000000000000E+00
 KE= 3.817722374274D+03 PE=-2.729636847915D+04 EE= 1.050959404831D+04
 Annihilation of the first spin contaminant:
 S**2 before annihilation     0.7562,   after     0.7500
 Leave Link  502 at Sun Mar  3 18:18:43 2024, MaxMem=  5368709120 cpu:      3674.0
 (Enter /home/k0335/k033513/app/g09/l601.exe)
 Copying SCF densities to generalized density rwf, IOpCl= 1 IROHF=0.

 **********************************************************************

            Population analysis using the SCF density.

 **********************************************************************

 Alpha  occ. eigenvalues --  -24.90242 -24.89723 -24.89190 -24.88617 -24.88523
 Alpha  occ. eigenvalues --  -24.87600 -24.87244 -24.86732 -24.86531 -24.86440
 Alpha  occ. eigenvalues --  -24.86436 -24.86416 -24.86309 -24.86266 -24.86257
 Alpha  occ. eigenvalues --  -24.86116 -24.85930 -24.85832 -24.85777 -24.85686
 Alpha  occ. eigenvalues --  -24.85594 -24.85552 -24.85476 -24.85305 -24.85281
 Alpha  occ. eigenvalues --  -24.84974 -24.84622 -19.37530 -19.36543 -19.35761
 Alpha  occ. eigenvalues --  -19.31251 -19.30873 -14.63508 -14.63340 -14.59221
 Alpha  occ. eigenvalues --  -10.62929 -10.62415 -10.61728 -10.60259 -10.60182
 Alpha  occ. eigenvalues --  -10.58963 -10.58818 -10.57567 -10.57464 -10.54612
 Alpha  occ. eigenvalues --  -10.54220 -10.53844 -10.53349 -10.53243 -10.52018
 Alpha  occ. eigenvalues --  -10.43133  -1.46478  -1.46248  -1.45759  -1.45241
 Alpha  occ. eigenvalues --   -1.45111  -1.44716  -1.44385  -1.43867  -1.42439
 Alpha  occ. eigenvalues --   -1.41713  -1.40087  -1.38385  -1.38168  -1.37469
 Alpha  occ. eigenvalues --   -1.36555  -1.36544  -1.36179  -1.36097  -1.35580
 Alpha  occ. eigenvalues --   -1.35568  -1.35467  -1.35425  -1.35170  -1.35128
 Alpha  occ. eigenvalues --   -1.35089  -1.34298  -1.34023  -1.30274  -1.25281
 Alpha  occ. eigenvalues --   -1.24805  -1.24219  -1.23296  -1.21703  -1.16169
 Alpha  occ. eigenvalues --   -1.15633  -1.02939  -0.99340  -0.98412  -0.96440
 Alpha  occ. eigenvalues --   -0.92288  -0.90512  -0.88528  -0.86136  -0.85796
 Alpha  occ. eigenvalues --   -0.84818  -0.84599  -0.83508  -0.82709  -0.80903
 Alpha  occ. eigenvalues --   -0.80115  -0.79218  -0.77793  -0.76774  -0.76610
 Alpha  occ. eigenvalues --   -0.76279  -0.75825  -0.75198  -0.75022  -0.74617
 Alpha  occ. eigenvalues --   -0.74167  -0.73454  -0.72806  -0.72507  -0.72474
 Alpha  occ. eigenvalues --   -0.72202  -0.72048  -0.71876  -0.71546  -0.71247
 Alpha  occ. eigenvalues --   -0.70966  -0.70674  -0.70579  -0.70339  -0.70270
 Alpha  occ. eigenvalues --   -0.69848  -0.69583  -0.69133  -0.68823  -0.67865
 Alpha  occ. eigenvalues --   -0.67740  -0.64742  -0.64220  -0.63797  -0.63121
 Alpha  occ. eigenvalues --   -0.62411  -0.62054  -0.61809  -0.61168  -0.60978
 Alpha  occ. eigenvalues --   -0.60893  -0.60486  -0.60127  -0.59872  -0.59789
 Alpha  occ. eigenvalues --   -0.59550  -0.59385  -0.59193  -0.59175  -0.58844
 Alpha  occ. eigenvalues --   -0.58804  -0.58686  -0.58441  -0.58405  -0.58285
 Alpha  occ. eigenvalues --   -0.58109  -0.57834  -0.57717  -0.57440  -0.57314
 Alpha  occ. eigenvalues --   -0.57218  -0.56789  -0.56483  -0.56241  -0.55957
 Alpha  occ. eigenvalues --   -0.55891  -0.55558  -0.55533  -0.55110  -0.54985
 Alpha  occ. eigenvalues --   -0.54841  -0.54714  -0.54526  -0.54231  -0.54138
 Alpha  occ. eigenvalues --   -0.53942  -0.53804  -0.53675  -0.53667  -0.53359
 Alpha  occ. eigenvalues --   -0.53135  -0.52820  -0.52756  -0.52654  -0.52523
 Alpha  occ. eigenvalues --   -0.52428  -0.52004  -0.51965  -0.51816  -0.51428
 Alpha  occ. eigenvalues --   -0.50865  -0.50409  -0.49031  -0.48768  -0.48039
 Alpha  occ. eigenvalues --   -0.47462  -0.46716  -0.46205  -0.44565  -0.43772
 Alpha  occ. eigenvalues --   -0.43215
 Alpha virt. eigenvalues --   -0.09722  -0.06286  -0.01351  -0.00231   0.00110
 Alpha virt. eigenvalues --    0.01460   0.02584   0.04273   0.06152   0.06471
 Alpha virt. eigenvalues --    0.07936   0.09223   0.09865   0.11563   0.11966
 Alpha virt. eigenvalues --    0.13001   0.13632   0.14571   0.15758   0.16244
 Alpha virt. eigenvalues --    0.16512   0.16831   0.17604   0.18010   0.18400
 Alpha virt. eigenvalues --    0.19168   0.19464   0.19550   0.19851   0.20044
 Alpha virt. eigenvalues --    0.20319   0.20645   0.20828   0.21158   0.21671
 Alpha virt. eigenvalues --    0.21764   0.21966   0.22229   0.23000   0.23549
 Alpha virt. eigenvalues --    0.23686   0.24076   0.24934   0.25330   0.25800
 Alpha virt. eigenvalues --    0.26053   0.26666   0.27798   0.28381   0.29018
 Alpha virt. eigenvalues --    0.30158   0.30891   0.31101   0.33726   0.35032
 Alpha virt. eigenvalues --    0.39255   0.40163   0.40512   0.43333   0.44792
 Alpha virt. eigenvalues --    0.45335   0.45747   0.46396   0.46433   0.46839
 Alpha virt. eigenvalues --    0.47496   0.48312   0.48843   0.49131   0.49221
 Alpha virt. eigenvalues --    0.49667   0.49994   0.50309   0.50666   0.51767
 Alpha virt. eigenvalues --    0.52196   0.52338   0.52732   0.53088   0.53794
 Alpha virt. eigenvalues --    0.54017   0.54315   0.54908   0.55659   0.55944
 Alpha virt. eigenvalues --    0.56373   0.57204   0.57518   0.58260   0.58467
 Alpha virt. eigenvalues --    0.60148   0.61263   0.62064   0.63482   0.63943
 Alpha virt. eigenvalues --    0.66037   0.67447   0.67520   0.68027   0.68880
 Alpha virt. eigenvalues --    0.70195   0.71441   0.72320   0.73921   0.75231
 Alpha virt. eigenvalues --    0.75732   0.76996   0.77923   0.79616   0.80823
 Alpha virt. eigenvalues --    0.82095   0.83102   0.84510   0.85044   0.85849
 Alpha virt. eigenvalues --    0.87253   0.88546   0.89709   0.89878   0.90746
 Alpha virt. eigenvalues --    0.92220   0.92571   0.92835   0.94025   0.94781
 Alpha virt. eigenvalues --    0.95044   0.96077   0.97038   0.98120   0.98642
 Alpha virt. eigenvalues --    0.99222   1.00005   1.00722   1.00947   1.02297
 Alpha virt. eigenvalues --    1.02602   1.03250   1.03699   1.04376   1.05212
 Alpha virt. eigenvalues --    1.05477   1.05697   1.06432   1.06631   1.07892
 Alpha virt. eigenvalues --    1.08329   1.08658   1.09285   1.09834   1.10798
 Alpha virt. eigenvalues --    1.11401   1.12463   1.12841   1.13357   1.13420
 Alpha virt. eigenvalues --    1.14145   1.14433   1.14727   1.14903   1.16132
 Alpha virt. eigenvalues --    1.16409   1.16675   1.17025   1.18178   1.18404
 Alpha virt. eigenvalues --    1.18747   1.19671   1.20081   1.20560   1.21549
 Alpha virt. eigenvalues --    1.21780   1.22210   1.23007   1.23725   1.24270
 Alpha virt. eigenvalues --    1.24656   1.25134   1.25447   1.25916   1.26013
 Alpha virt. eigenvalues --    1.26624   1.27222   1.27941   1.28349   1.28980
 Alpha virt. eigenvalues --    1.29700   1.30581   1.31104   1.31369   1.31719
 Alpha virt. eigenvalues --    1.31908   1.32206   1.32294   1.32575   1.33020
 Alpha virt. eigenvalues --    1.33805   1.33894   1.34377   1.34537   1.35127
 Alpha virt. eigenvalues --    1.35411   1.35929   1.36016   1.36367   1.36740
 Alpha virt. eigenvalues --    1.37051   1.37383   1.37677   1.37856   1.38270
 Alpha virt. eigenvalues --    1.38833   1.39000   1.39169   1.39409   1.40276
 Alpha virt. eigenvalues --    1.40481   1.41189   1.41612   1.41986   1.42490
 Alpha virt. eigenvalues --    1.42729   1.43411   1.43817   1.44365   1.44472
 Alpha virt. eigenvalues --    1.45068   1.45436   1.46071   1.46362   1.47262
 Alpha virt. eigenvalues --    1.47428   1.47838   1.48106   1.48594   1.49366
 Alpha virt. eigenvalues --    1.49886   1.50343   1.50761   1.51019   1.51901
 Alpha virt. eigenvalues --    1.52520   1.53331   1.53681   1.54256   1.54330
 Alpha virt. eigenvalues --    1.54689   1.55648   1.56299   1.56949   1.56988
 Alpha virt. eigenvalues --    1.57634   1.58665   1.58851   1.60074   1.60599
 Alpha virt. eigenvalues --    1.62049   1.63159   1.63507   1.63692   1.64702
 Alpha virt. eigenvalues --    1.65409   1.66309   1.66469   1.67240   1.67640
 Alpha virt. eigenvalues --    1.68131   1.68652   1.69308   1.69849   1.70245
 Alpha virt. eigenvalues --    1.70888   1.71522   1.71786   1.72166   1.72330
 Alpha virt. eigenvalues --    1.72644   1.73543   1.74230   1.74764   1.75376
 Alpha virt. eigenvalues --    1.75465   1.76059   1.76646   1.77675   1.78386
 Alpha virt. eigenvalues --    1.78511   1.79272   1.79541   1.80347   1.81120
 Alpha virt. eigenvalues --    1.81575   1.81752   1.81846   1.82104   1.82184
 Alpha virt. eigenvalues --    1.82648   1.83325   1.83671   1.83990   1.84115
 Alpha virt. eigenvalues --    1.84565   1.84887   1.85107   1.85329   1.85576
 Alpha virt. eigenvalues --    1.85830   1.86070   1.86582   1.86822   1.87247
 Alpha virt. eigenvalues --    1.87784   1.88240   1.88542   1.88959   1.89426
 Alpha virt. eigenvalues --    1.89491   1.89732   1.90281   1.90604   1.90768
 Alpha virt. eigenvalues --    1.90897   1.91313   1.91372   1.91872   1.91935
 Alpha virt. eigenvalues --    1.92430   1.93275   1.93528   1.94118   1.94416
 Alpha virt. eigenvalues --    1.94681   1.94885   1.95163   1.95631   1.96295
 Alpha virt. eigenvalues --    1.96529   1.97368   1.97637   1.97998   1.98130
 Alpha virt. eigenvalues --    1.98271   1.98359   1.98738   1.98905   1.99277
 Alpha virt. eigenvalues --    1.99711   1.99816   2.00204   2.00509   2.00652
 Alpha virt. eigenvalues --    2.01023   2.01111   2.01308   2.01528   2.01667
 Alpha virt. eigenvalues --    2.01917   2.02200   2.02923   2.03202   2.03379
 Alpha virt. eigenvalues --    2.03897   2.04517   2.05081   2.05867   2.06225
 Alpha virt. eigenvalues --    2.06360   2.06573   2.07100   2.07261   2.07906
 Alpha virt. eigenvalues --    2.08517   2.08945   2.09227   2.09282   2.10039
 Alpha virt. eigenvalues --    2.10522   2.11644   2.12114   2.12569   2.12683
 Alpha virt. eigenvalues --    2.13532   2.13999   2.14355   2.14748   2.16314
 Alpha virt. eigenvalues --    2.16457   2.16870   2.17226   2.17888   2.18078
 Alpha virt. eigenvalues --    2.18588   2.20171   2.20709   2.21561   2.22507
 Alpha virt. eigenvalues --    2.22796   2.23614   2.24326   2.24481   2.25012
 Alpha virt. eigenvalues --    2.25796   2.26346   2.27399   2.28004   2.28650
 Alpha virt. eigenvalues --    2.29140   2.30659   2.31762   2.32595   2.33281
 Alpha virt. eigenvalues --    2.34519   2.35147   2.35562   2.36810   2.36988
 Alpha virt. eigenvalues --    2.37436   2.38660   2.39066   2.39372   2.40704
 Alpha virt. eigenvalues --    2.42113   2.42362   2.43055   2.44098   2.44708
 Alpha virt. eigenvalues --    2.45640   2.46261   2.46357   2.47303   2.47861
 Alpha virt. eigenvalues --    2.49264   2.49699   2.50858   2.52539   2.53621
 Alpha virt. eigenvalues --    2.54158   2.56041   2.56199   2.56962   2.57721
 Alpha virt. eigenvalues --    2.58248   2.58648   2.60297   2.61243   2.61816
 Alpha virt. eigenvalues --    2.62972   2.64852   2.65020   2.66196   2.66754
 Alpha virt. eigenvalues --    2.68097   2.69106   2.69141   2.71136   2.71530
 Alpha virt. eigenvalues --    2.72175   2.74073   2.74399   2.75888   2.77052
 Alpha virt. eigenvalues --    2.78158   2.80058   2.81026   2.81165   2.82283
 Alpha virt. eigenvalues --    2.82697   2.83114   2.83330   2.85155   2.85765
 Alpha virt. eigenvalues --    2.86644   2.86955   2.88258   2.88479   2.89052
 Alpha virt. eigenvalues --    2.89495   2.90205   2.91087   2.92020   2.92389
 Alpha virt. eigenvalues --    2.93729   2.95444   2.95773   2.96180   2.97039
 Alpha virt. eigenvalues --    2.98684   3.00019   3.00784   3.01344   3.02553
 Alpha virt. eigenvalues --    3.02994   3.03233   3.03721   3.04004   3.04556
 Alpha virt. eigenvalues --    3.04681   3.05728   3.06314   3.08566   3.08958
 Alpha virt. eigenvalues --    3.10545   3.11610   3.13392   3.14713   3.16015
 Alpha virt. eigenvalues --    3.16888   3.17715   3.19554   3.20100   3.20455
 Alpha virt. eigenvalues --    3.23335   3.24874   3.25278   3.25823   3.26951
 Alpha virt. eigenvalues --    3.28269   3.28453   3.29477   3.31205   3.32238
 Alpha virt. eigenvalues --    3.35700   3.43645   3.62655   3.94684   4.01628
 Alpha virt. eigenvalues --    4.03496   4.09720   4.15525   4.17182   4.21243
 Alpha virt. eigenvalues --    4.23533   4.26630   4.31261   4.32874   4.35377
 Alpha virt. eigenvalues --    4.36988   4.41003   4.42486   4.43313   4.45308
 Alpha virt. eigenvalues --    4.46068   4.48092   4.52054   4.52823   4.56004
 Alpha virt. eigenvalues --    4.56772   4.64650   4.65050   4.74098   4.77192
 Alpha virt. eigenvalues --    4.77584   4.80999   4.84639   4.87210   4.99493
 Alpha virt. eigenvalues --    5.07004   5.09655   5.19741   5.22665   5.25718
 Alpha virt. eigenvalues --    5.33943   5.34810   5.40175   5.41516   5.50630
 Alpha virt. eigenvalues --    5.59870   5.64192   5.64805   6.14852   6.21371
 Alpha virt. eigenvalues --    6.22790   6.63453   6.76567   6.84987
  Beta  occ. eigenvalues --  -24.90228 -24.89700 -24.89178 -24.88618 -24.88512
  Beta  occ. eigenvalues --  -24.87598 -24.87243 -24.86731 -24.86529 -24.86439
  Beta  occ. eigenvalues --  -24.86436 -24.86416 -24.86309 -24.86266 -24.86257
  Beta  occ. eigenvalues --  -24.86116 -24.85930 -24.85831 -24.85777 -24.85685
  Beta  occ. eigenvalues --  -24.85594 -24.85552 -24.85476 -24.85305 -24.85281
  Beta  occ. eigenvalues --  -24.84974 -24.84622 -19.37525 -19.36538 -19.35760
  Beta  occ. eigenvalues --  -19.31165 -19.30790 -14.63192 -14.63009 -14.59191
  Beta  occ. eigenvalues --  -10.62928 -10.62415 -10.61728 -10.60274 -10.60197
  Beta  occ. eigenvalues --  -10.58963 -10.58817 -10.57566 -10.57465 -10.54522
  Beta  occ. eigenvalues --  -10.54209 -10.53835 -10.53391 -10.53287 -10.52016
  Beta  occ. eigenvalues --  -10.42163  -1.46469  -1.46237  -1.45741  -1.45240
  Beta  occ. eigenvalues --   -1.45106  -1.44702  -1.44378  -1.43866  -1.42436
  Beta  occ. eigenvalues --   -1.41678  -1.40083  -1.38384  -1.38143  -1.37456
  Beta  occ. eigenvalues --   -1.36554  -1.36541  -1.36178  -1.36097  -1.35578
  Beta  occ. eigenvalues --   -1.35566  -1.35466  -1.35424  -1.35170  -1.35127
  Beta  occ. eigenvalues --   -1.35087  -1.34297  -1.34022  -1.30002  -1.25054
  Beta  occ. eigenvalues --   -1.24788  -1.24204  -1.23283  -1.21287  -1.15624
  Beta  occ. eigenvalues --   -1.15504  -1.01187  -0.99094  -0.98351  -0.96290
  Beta  occ. eigenvalues --   -0.92195  -0.90440  -0.87780  -0.86090  -0.85696
  Beta  occ. eigenvalues --   -0.84686  -0.84546  -0.83271  -0.82599  -0.80814
  Beta  occ. eigenvalues --   -0.80054  -0.79192  -0.77724  -0.76718  -0.76467
  Beta  occ. eigenvalues --   -0.76230  -0.75797  -0.75179  -0.75006  -0.74561
  Beta  occ. eigenvalues --   -0.74106  -0.73416  -0.72793  -0.72494  -0.72430
  Beta  occ. eigenvalues --   -0.72185  -0.72019  -0.71819  -0.71469  -0.71099
  Beta  occ. eigenvalues --   -0.70868  -0.70633  -0.70448  -0.70265  -0.70093
  Beta  occ. eigenvalues --   -0.69833  -0.69491  -0.69046  -0.68448  -0.67716
  Beta  occ. eigenvalues --   -0.67303  -0.64689  -0.64161  -0.63508  -0.62751
  Beta  occ. eigenvalues --   -0.62345  -0.61894  -0.61532  -0.61072  -0.60903
  Beta  occ. eigenvalues --   -0.60721  -0.60045  -0.59963  -0.59836  -0.59756
  Beta  occ. eigenvalues --   -0.59504  -0.59344  -0.59170  -0.58964  -0.58813
  Beta  occ. eigenvalues --   -0.58728  -0.58536  -0.58404  -0.58257  -0.58183
  Beta  occ. eigenvalues --   -0.58030  -0.57770  -0.57532  -0.57351  -0.57300
  Beta  occ. eigenvalues --   -0.56932  -0.56741  -0.56390  -0.56190  -0.55926
  Beta  occ. eigenvalues --   -0.55864  -0.55533  -0.55484  -0.55068  -0.54862
  Beta  occ. eigenvalues --   -0.54774  -0.54600  -0.54482  -0.54213  -0.54118
  Beta  occ. eigenvalues --   -0.53831  -0.53739  -0.53646  -0.53589  -0.53328
  Beta  occ. eigenvalues --   -0.53123  -0.52817  -0.52732  -0.52641  -0.52517
  Beta  occ. eigenvalues --   -0.52403  -0.51981  -0.51954  -0.51811  -0.51404
  Beta  occ. eigenvalues --   -0.50859  -0.50273  -0.48843  -0.48639  -0.47516
  Beta  occ. eigenvalues --   -0.47319  -0.45892  -0.45317  -0.43726  -0.43117
  Beta virt. eigenvalues --   -0.23939  -0.06070  -0.05399  -0.01198  -0.00124
  Beta virt. eigenvalues --    0.00399   0.01765   0.02597   0.04605   0.06327
  Beta virt. eigenvalues --    0.06692   0.08126   0.09365   0.09982   0.11874
  Beta virt. eigenvalues --    0.12477   0.13101   0.13820   0.14596   0.15859
  Beta virt. eigenvalues --    0.16316   0.16568   0.16911   0.17740   0.18071
  Beta virt. eigenvalues --    0.18512   0.19203   0.19569   0.19701   0.19878
  Beta virt. eigenvalues --    0.20118   0.20347   0.20688   0.20896   0.21205
  Beta virt. eigenvalues --    0.21744   0.21849   0.21995   0.22246   0.23009
  Beta virt. eigenvalues --    0.23612   0.23728   0.24185   0.24947   0.25372
  Beta virt. eigenvalues --    0.25859   0.26099   0.26695   0.28068   0.28434
  Beta virt. eigenvalues --    0.29062   0.30191   0.31011   0.31246   0.33851
  Beta virt. eigenvalues --    0.35087   0.39641   0.40342   0.40667   0.43502
  Beta virt. eigenvalues --    0.45059   0.45585   0.45847   0.46430   0.46549
  Beta virt. eigenvalues --    0.47244   0.47996   0.48430   0.48874   0.49149
  Beta virt. eigenvalues --    0.49552   0.49749   0.50061   0.50357   0.50712
  Beta virt. eigenvalues --    0.51854   0.52248   0.52517   0.52967   0.53195
  Beta virt. eigenvalues --    0.53907   0.54076   0.54430   0.55145   0.55851
  Beta virt. eigenvalues --    0.56209   0.56555   0.57271   0.58100   0.58349
  Beta virt. eigenvalues --    0.59195   0.60400   0.61574   0.62320   0.63599
  Beta virt. eigenvalues --    0.64005   0.66159   0.67537   0.67542   0.68126
  Beta virt. eigenvalues --    0.68999   0.70297   0.71510   0.72445   0.74026
  Beta virt. eigenvalues --    0.75375   0.75827   0.77132   0.78077   0.79752
  Beta virt. eigenvalues --    0.80991   0.82188   0.83178   0.84750   0.85328
  Beta virt. eigenvalues --    0.85938   0.87373   0.88905   0.89822   0.90045
  Beta virt. eigenvalues --    0.90874   0.92349   0.92625   0.92941   0.94082
  Beta virt. eigenvalues --    0.95025   0.95268   0.96280   0.97241   0.98207
  Beta virt. eigenvalues --    0.98866   0.99392   1.00125   1.00777   1.01008
  Beta virt. eigenvalues --    1.02366   1.02667   1.03293   1.03898   1.04528
  Beta virt. eigenvalues --    1.05277   1.05556   1.05744   1.06453   1.06678
  Beta virt. eigenvalues --    1.07952   1.08407   1.08780   1.09335   1.09861
  Beta virt. eigenvalues --    1.10849   1.11435   1.12511   1.12889   1.13398
  Beta virt. eigenvalues --    1.13500   1.14193   1.14480   1.14819   1.14972
  Beta virt. eigenvalues --    1.16228   1.16480   1.16703   1.17081   1.18280
  Beta virt. eigenvalues --    1.18442   1.18816   1.19740   1.20155   1.20607
  Beta virt. eigenvalues --    1.21605   1.21848   1.22264   1.23177   1.23759
  Beta virt. eigenvalues --    1.24456   1.25112   1.25284   1.25752   1.25987
  Beta virt. eigenvalues --    1.26029   1.26780   1.27258   1.27958   1.28522
  Beta virt. eigenvalues --    1.29127   1.29752   1.30675   1.31154   1.31402
  Beta virt. eigenvalues --    1.31764   1.31948   1.32279   1.32414   1.32605
  Beta virt. eigenvalues --    1.33082   1.33829   1.34063   1.34442   1.34593
  Beta virt. eigenvalues --    1.35147   1.35442   1.35975   1.36113   1.36397
  Beta virt. eigenvalues --    1.36757   1.37236   1.37397   1.37757   1.37989
  Beta virt. eigenvalues --    1.38282   1.38875   1.39034   1.39336   1.39519
  Beta virt. eigenvalues --    1.40306   1.40654   1.41251   1.41674   1.42033
  Beta virt. eigenvalues --    1.42518   1.42855   1.43669   1.43899   1.44392
  Beta virt. eigenvalues --    1.44529   1.45213   1.45473   1.46364   1.46434
  Beta virt. eigenvalues --    1.47327   1.47534   1.47988   1.48196   1.48697
  Beta virt. eigenvalues --    1.49467   1.49964   1.50379   1.50782   1.51129
  Beta virt. eigenvalues --    1.51940   1.52610   1.53369   1.53850   1.54386
  Beta virt. eigenvalues --    1.54458   1.54798   1.55773   1.56509   1.56987
  Beta virt. eigenvalues --    1.57043   1.57733   1.58775   1.58913   1.60185
  Beta virt. eigenvalues --    1.60721   1.62132   1.63303   1.63569   1.63905
  Beta virt. eigenvalues --    1.64818   1.65481   1.66407   1.66538   1.67267
  Beta virt. eigenvalues --    1.67797   1.68199   1.68670   1.69344   1.69912
  Beta virt. eigenvalues --    1.70310   1.70956   1.71565   1.71963   1.72191
  Beta virt. eigenvalues --    1.72365   1.72727   1.73600   1.74362   1.74834
  Beta virt. eigenvalues --    1.75434   1.75519   1.76137   1.76673   1.77836
  Beta virt. eigenvalues --    1.78461   1.78686   1.79516   1.79662   1.80384
  Beta virt. eigenvalues --    1.81154   1.81609   1.81791   1.81901   1.82150
  Beta virt. eigenvalues --    1.82233   1.82763   1.83379   1.83913   1.84075
  Beta virt. eigenvalues --    1.84324   1.84631   1.85010   1.85243   1.85410
  Beta virt. eigenvalues --    1.85692   1.85882   1.86111   1.86745   1.86874
  Beta virt. eigenvalues --    1.87319   1.87836   1.88316   1.88610   1.89071
  Beta virt. eigenvalues --    1.89485   1.89631   1.89777   1.90559   1.90690
  Beta virt. eigenvalues --    1.90832   1.90974   1.91382   1.91471   1.91917
  Beta virt. eigenvalues --    1.92023   1.92463   1.93327   1.93662   1.94156
  Beta virt. eigenvalues --    1.94465   1.94717   1.94928   1.95194   1.95666
  Beta virt. eigenvalues --    1.96366   1.96596   1.97392   1.97700   1.98049
  Beta virt. eigenvalues --    1.98144   1.98309   1.98398   1.98766   1.98972
  Beta virt. eigenvalues --    1.99329   1.99755   1.99839   2.00252   2.00580
  Beta virt. eigenvalues --    2.00666   2.01066   2.01129   2.01353   2.01553
  Beta virt. eigenvalues --    2.01688   2.01935   2.02522   2.02955   2.03229
  Beta virt. eigenvalues --    2.03416   2.04000   2.04582   2.05217   2.05887
  Beta virt. eigenvalues --    2.06257   2.06460   2.06610   2.07205   2.07296
  Beta virt. eigenvalues --    2.07961   2.08568   2.09021   2.09257   2.09378
  Beta virt. eigenvalues --    2.10067   2.10566   2.11701   2.12169   2.12678
  Beta virt. eigenvalues --    2.12742   2.13546   2.14143   2.14453   2.14780
  Beta virt. eigenvalues --    2.16350   2.16570   2.16880   2.17359   2.18079
  Beta virt. eigenvalues --    2.18136   2.18613   2.20306   2.21066   2.21658
  Beta virt. eigenvalues --    2.22668   2.22836   2.23687   2.24448   2.24538
  Beta virt. eigenvalues --    2.25142   2.25801   2.26578   2.27493   2.28063
  Beta virt. eigenvalues --    2.28712   2.29252   2.30777   2.31848   2.32670
  Beta virt. eigenvalues --    2.33336   2.34545   2.35224   2.35672   2.36837
  Beta virt. eigenvalues --    2.37046   2.37577   2.38715   2.39094   2.39504
  Beta virt. eigenvalues --    2.40843   2.42196   2.42522   2.43113   2.44129
  Beta virt. eigenvalues --    2.44790   2.45695   2.46332   2.46393   2.47579
  Beta virt. eigenvalues --    2.48037   2.49413   2.49870   2.50912   2.52902
  Beta virt. eigenvalues --    2.53776   2.54880   2.56147   2.56514   2.57648
  Beta virt. eigenvalues --    2.57784   2.58420   2.58711   2.60411   2.61314
  Beta virt. eigenvalues --    2.61905   2.63040   2.65004   2.65151   2.66292
  Beta virt. eigenvalues --    2.66846   2.68139   2.69170   2.69241   2.71237
  Beta virt. eigenvalues --    2.71593   2.72316   2.74129   2.74447   2.75955
  Beta virt. eigenvalues --    2.77092   2.78185   2.80141   2.81048   2.81192
  Beta virt. eigenvalues --    2.82386   2.82792   2.83191   2.83368   2.85176
  Beta virt. eigenvalues --    2.85838   2.86713   2.86973   2.88292   2.88519
  Beta virt. eigenvalues --    2.89076   2.89526   2.90245   2.91122   2.92037
  Beta virt. eigenvalues --    2.92421   2.93800   2.95483   2.95795   2.96193
  Beta virt. eigenvalues --    2.97059   2.98751   3.00198   3.00833   3.01408
  Beta virt. eigenvalues --    3.02571   3.02999   3.03237   3.03727   3.04009
  Beta virt. eigenvalues --    3.04566   3.04689   3.05747   3.06320   3.08589
  Beta virt. eigenvalues --    3.08974   3.10558   3.11657   3.13404   3.14728
  Beta virt. eigenvalues --    3.16032   3.16936   3.17742   3.19565   3.20123
  Beta virt. eigenvalues --    3.20468   3.23431   3.24993   3.25292   3.26021
  Beta virt. eigenvalues --    3.26962   3.28298   3.28462   3.29511   3.31214
  Beta virt. eigenvalues --    3.32287   3.35751   3.43818   3.63180   3.94844
  Beta virt. eigenvalues --    4.01767   4.03622   4.09957   4.15668   4.17908
  Beta virt. eigenvalues --    4.21314   4.23971   4.26875   4.31333   4.33013
  Beta virt. eigenvalues --    4.35513   4.37014   4.41015   4.42511   4.43347
  Beta virt. eigenvalues --    4.45331   4.46123   4.48097   4.52152   4.53049
  Beta virt. eigenvalues --    4.56117   4.56972   4.64698   4.65242   4.74156
  Beta virt. eigenvalues --    4.77220   4.77606   4.81047   4.84650   4.87222
  Beta virt. eigenvalues --    4.99515   5.07012   5.09666   5.19750   5.22669
  Beta virt. eigenvalues --    5.25730   5.33954   5.34825   5.40190   5.41535
  Beta virt. eigenvalues --    5.50638   5.59872   5.64196   5.64823   6.14868
  Beta virt. eigenvalues --    6.21375   6.22796   6.63456   6.76581   6.84997
          Condensed to atoms (all electrons):
          Atomic-Atomic Spin Densities.
 Mulliken charges and spin densities:
               1          2
     1  C   -0.168755   0.660500
     2  C    0.732734   0.074982
     3  N   -0.673679   0.141049
     4  C    0.747768  -0.009124
     5  F   -0.223048   0.002751
     6  F   -0.243984   0.002900
     7  C    0.443974   0.003269
     8  F   -0.238313   0.000215
     9  O   -0.527423   0.000715
    10  C    1.005734   0.000233
    11  F   -0.233852   0.000013
    12  F   -0.236033   0.000002
    13  F   -0.232226   0.000100
    14  C    0.827313   0.000709
    15  F   -0.247846   0.000253
    16  F   -0.243520   0.000030
    17  F   -0.234463   0.000018
    18  C    0.891661  -0.023535
    19  O   -0.431706   0.033373
    20  N   -0.657948   0.014399
    21  C    0.762480  -0.000510
    22  F   -0.247138   0.000318
    23  F   -0.242328   0.000157
    24  C    0.440562   0.000909
    25  F   -0.249705   0.000017
    26  O   -0.512973   0.000031
    27  C    1.001311   0.000008
    28  F   -0.238817   0.000005
    29  F   -0.239563   0.000018
    30  F   -0.237156  -0.000001
    31  C    0.819805   0.000016
    32  F   -0.240522   0.000011
    33  F   -0.253998   0.000102
    34  F   -0.242295   0.000007
    35  C    0.868331  -0.022681
    36  O   -0.425504   0.034368
    37  N   -0.648890   0.132387
    38  C    0.740490  -0.007460
    39  F   -0.248946   0.003018
    40  F   -0.214607  -0.000139
    41  C    0.426303   0.003767
    42  F   -0.266832   0.004304
    43  O   -0.510024   0.001448
    44  C    1.020502   0.000066
    45  F   -0.231738   0.000119
    46  F   -0.248723  -0.000013
    47  F   -0.243729   0.000059
    48  C    0.836786   0.000020
    49  F   -0.248618   0.000558
    50  F   -0.240037   0.000039
    51  F   -0.224517   0.000040
    52  H    0.240056  -0.026867
    53  H    0.243647  -0.026970
 Sum of Mulliken charges =   1.00000   1.00000
 Mulliken charges and spin densities with hydrogens summed into heavy atoms:
               1          2
     1  C    0.314947   0.606663
     2  C    0.732734   0.074982
     3  N   -0.673679   0.141049
     4  C    0.747768  -0.009124
     5  F   -0.223048   0.002751
     6  F   -0.243984   0.002900
     7  C    0.443974   0.003269
     8  F   -0.238313   0.000215
     9  O   -0.527423   0.000715
    10  C    1.005734   0.000233
    11  F   -0.233852   0.000013
    12  F   -0.236033   0.000002
    13  F   -0.232226   0.000100
    14  C    0.827313   0.000709
    15  F   -0.247846   0.000253
    16  F   -0.243520   0.000030
    17  F   -0.234463   0.000018
    18  C    0.891661  -0.023535
    19  O   -0.431706   0.033373
    20  N   -0.657948   0.014399
    21  C    0.762480  -0.000510
    22  F   -0.247138   0.000318
    23  F   -0.242328   0.000157
    24  C    0.440562   0.000909
    25  F   -0.249705   0.000017
    26  O   -0.512973   0.000031
    27  C    1.001311   0.000008
    28  F   -0.238817   0.000005
    29  F   -0.239563   0.000018
    30  F   -0.237156  -0.000001
    31  C    0.819805   0.000016
    32  F   -0.240522   0.000011
    33  F   -0.253998   0.000102
    34  F   -0.242295   0.000007
    35  C    0.868331  -0.022681
    36  O   -0.425504   0.034368
    37  N   -0.648890   0.132387
    38  C    0.740490  -0.007460
    39  F   -0.248946   0.003018
    40  F   -0.214607  -0.000139
    41  C    0.426303   0.003767
    42  F   -0.266832   0.004304
    43  O   -0.510024   0.001448
    44  C    1.020502   0.000066
    45  F   -0.231738   0.000119
    46  F   -0.248723  -0.000013
    47  F   -0.243729   0.000059
    48  C    0.836786   0.000020
    49  F   -0.248618   0.000558
    50  F   -0.240037   0.000039
    51  F   -0.224517   0.000040
 Electronic spatial extent (au):  <R**2>=          29783.9331
 Charge=              1.0000 electrons
 Dipole moment (field-independent basis, Debye):
    X=             -8.4345    Y=              2.4695    Z=              2.0156  Tot=              9.0167
 Quadrupole moment (field-independent basis, Debye-Ang):
   XX=           -242.5056   YY=           -254.3592   ZZ=           -259.7632
   XY=             -3.7415   XZ=             -4.1343   YZ=              3.9362
 Traceless Quadrupole moment (field-independent basis, Debye-Ang):
   XX=              9.7038   YY=             -2.1499   ZZ=             -7.5539
   XY=             -3.7415   XZ=             -4.1343   YZ=              3.9362
 Octapole moment (field-independent basis, Debye-Ang**2):
  XXX=           -160.9291  YYY=             64.8858  ZZZ=              7.4077  XYY=            -67.1625
  XXY=             -0.1827  XXZ=              5.8637  XZZ=            -27.9962  YZZ=             15.0011
  YYZ=              4.5344  XYZ=              1.7206
 Hexadecapole moment (field-independent basis, Debye-Ang**3):
 XXXX=         -12835.8616 YYYY=         -14133.5789 ZZZZ=          -3096.3518 XXXY=           -118.9342
 XXXZ=            780.7197 YYYX=            -99.0954 YYYZ=             35.7857 ZZZX=            800.5016
 ZZZY=            -21.1712 XXYY=          -4514.0742 XXZZ=          -2676.4648 YYZZ=          -2893.5223
 XXYZ=             12.1244 YYXZ=            254.0090 ZZXY=            -48.9023
 N-N= 9.123465021673D+03 E-N=-2.729636848279D+04  KE= 3.817722374274D+03
                          Isotropic Fermi Contact Couplings
        Atom                 a.u.       MegaHertz       Gauss      10(-4) cm-1
     1  C(13)              0.05671      63.75543      22.74952      21.26652
     2  C(13)             -0.01281     -14.40473      -5.13997      -4.80490
     3  N(14)              0.02819       9.10792       3.24993       3.03807
     4  C(13)             -0.00216      -2.42361      -0.86480      -0.80843
     5  F(19)              0.00022       0.90607       0.32331       0.30223
     6  F(19)             -0.00016      -0.67967      -0.24252      -0.22671
     7  C(13)              0.00271       3.05047       1.08848       1.01753
     8  F(19)             -0.00003      -0.12450      -0.04443      -0.04153
     9  O(17)              0.00327      -1.98440      -0.70808      -0.66192
    10  C(13)              0.00030       0.33494       0.11951       0.11172
    11  F(19)              0.00001       0.02262       0.00807       0.00755
    12  F(19)             -0.00001      -0.05406      -0.01929      -0.01803
    13  F(19)              0.00006       0.27344       0.09757       0.09121
    14  C(13)              0.00071       0.79276       0.28288       0.26444
    15  F(19)              0.00009       0.36370       0.12978       0.12132
    16  F(19)              0.00005       0.19545       0.06974       0.06519
    17  F(19)             -0.00001      -0.05980      -0.02134      -0.01995
    18  C(13)             -0.00637      -7.15698      -2.55379      -2.38731
    19  O(17)              0.00347      -2.10153      -0.74988      -0.70100
    20  N(14)              0.00227       0.73418       0.26197       0.24490
    21  C(13)             -0.00065      -0.73570      -0.26252      -0.24540
    22  F(19)              0.00089       3.75006       1.33811       1.25088
    23  F(19)              0.00025       1.04611       0.37328       0.34894
    24  C(13)              0.00019       0.21353       0.07619       0.07123
    25  F(19)              0.00012       0.52379       0.18690       0.17472
    26  O(17)              0.00044      -0.26377      -0.09412      -0.08798
    27  C(13)             -0.00001      -0.01237      -0.00442      -0.00413
    28  F(19)              0.00000       0.01166       0.00416       0.00389
    29  F(19)              0.00001       0.03702       0.01321       0.01235
    30  F(19)              0.00000      -0.00939      -0.00335      -0.00313
    31  C(13)              0.00007       0.07700       0.02748       0.02569
    32  F(19)              0.00000       0.01191       0.00425       0.00397
    33  F(19)              0.00002       0.06405       0.02285       0.02136
    34  F(19)              0.00000      -0.01919      -0.00685      -0.00640
    35  C(13)             -0.00599      -6.73335      -2.40263      -2.24601
    36  O(17)              0.00372      -2.25555      -0.80484      -0.75237
    37  N(14)              0.02752       8.89312       3.17329       2.96643
    38  C(13)             -0.00458      -5.15283      -1.83866      -1.71880
    39  F(19)             -0.00155      -6.53126      -2.33052      -2.17860
    40  F(19)             -0.00045      -1.89121      -0.67483      -0.63084
    41  C(13)              0.00359       4.03192       1.43869       1.34490
    42  F(19)              0.00518      21.77407       7.76953       7.26305
    43  O(17)              0.00096      -0.58372      -0.20828      -0.19471
    44  C(13)              0.00002       0.02599       0.00927       0.00867
    45  F(19)              0.00007       0.31225       0.11142       0.10415
    46  F(19)             -0.00004      -0.18754      -0.06692      -0.06256
    47  F(19)              0.00009       0.38467       0.13726       0.12831
    48  C(13)              0.00012       0.13493       0.04815       0.04501
    49  F(19)              0.00009       0.38655       0.13793       0.12894
    50  F(19)             -0.00001      -0.02252      -0.00804      -0.00751
    51  F(19)             -0.00005      -0.21131      -0.07540      -0.07048
    52  H(1)              -0.01068     -47.75439     -17.03995     -15.92915
    53  H(1)              -0.01064     -47.58171     -16.97834     -15.87155
 --------------------------------------------------------
       Center         ----  Spin Dipole Couplings  ----
                      3XX-RR        3YY-RR        3ZZ-RR
 --------------------------------------------------------
     1   Atom       -0.341487     -0.211499      0.552986
     2   Atom       -0.037064     -0.037195      0.074259
     3   Atom       -0.168985     -0.024285      0.193270
     4   Atom       -0.000722      0.002536     -0.001814
     5   Atom       -0.011065     -0.001542      0.012607
     6   Atom        0.008325      0.006794     -0.015119
     7   Atom       -0.004203      0.009429     -0.005226
     8   Atom       -0.001513      0.002869     -0.001356
     9   Atom       -0.002832      0.009196     -0.006364
    10   Atom       -0.001524      0.002738     -0.001214
    11   Atom       -0.001260      0.001685     -0.000425
    12   Atom       -0.000901      0.001899     -0.000998
    13   Atom       -0.001116      0.001983     -0.000868
    14   Atom       -0.001474      0.002015     -0.000540
    15   Atom       -0.001663      0.002946     -0.001282
    16   Atom       -0.001361      0.001721     -0.000360
    17   Atom       -0.000745      0.000817     -0.000071
    18   Atom        0.022243     -0.004060     -0.018183
    19   Atom       -0.056395     -0.008141      0.064535
    20   Atom       -0.010487     -0.009323      0.019810
    21   Atom        0.002557     -0.000821     -0.001736
    22   Atom        0.003753     -0.003397     -0.000356
    23   Atom        0.002733     -0.001202     -0.001532
    24   Atom        0.001291     -0.000733     -0.000558
    25   Atom        0.000880     -0.000415     -0.000465
    26   Atom        0.001111     -0.000344     -0.000767
    27   Atom        0.000531     -0.000406     -0.000125
    28   Atom        0.000499     -0.000345     -0.000154
    29   Atom        0.000267     -0.000215     -0.000053
    30   Atom        0.000297     -0.000446      0.000149
    31   Atom        0.000943     -0.000408     -0.000535
    32   Atom        0.000631     -0.000210     -0.000421
    33   Atom        0.001250     -0.000523     -0.000727
    34   Atom        0.000722     -0.000392     -0.000330
    35   Atom        0.016883      0.009380     -0.026263
    36   Atom       -0.042993     -0.053429      0.096422
    37   Atom       -0.167204     -0.062685      0.229889
    38   Atom       -0.000929      0.006449     -0.005520
    39   Atom       -0.006577      0.014235     -0.007659
    40   Atom       -0.002466      0.003143     -0.000676
    41   Atom       -0.004959      0.006266     -0.001307
    42   Atom       -0.021395      0.033941     -0.012547
    43   Atom       -0.003887      0.009247     -0.005360
[...]
    50   Atom       -0.001131      0.001615     -0.000483
    51   Atom       -0.000592      0.001876     -0.001284
    52   Atom        0.017838     -0.013917     -0.003920
    53   Atom       -0.028031      0.034395     -0.006364
 --------------------------------------------------------
                        XY            XZ            YZ
 --------------------------------------------------------
     1   Atom        0.061543      0.150641      0.382134
     2   Atom       -0.004840      0.011840      0.077193
     3   Atom        0.000895     -0.008007      0.242620
     4   Atom        0.003073     -0.002067     -0.005078
     5   Atom        0.007763     -0.009870     -0.019118
     6   Atom        0.027155     -0.004348     -0.010540
     7   Atom        0.002678     -0.000467      0.001014
     8   Atom        0.001283     -0.000775      0.002683
     9   Atom        0.005830      0.000126      0.001637
    10   Atom        0.000172     -0.000100      0.001419
    11   Atom       -0.000141     -0.000111      0.001716
    12   Atom       -0.000298     -0.000073      0.000285
    13   Atom        0.000796      0.000245      0.001250
    14   Atom        0.000437     -0.000049     -0.001958
    15   Atom        0.000336     -0.000065     -0.001641
    16   Atom       -0.000106      0.000094     -0.001813
    17   Atom        0.000650     -0.000299     -0.000781
    18   Atom        0.000876     -0.000337     -0.016191
    19   Atom       -0.012890     -0.027067      0.084005
    20   Atom       -0.003365     -0.003070      0.018024
    21   Atom       -0.000796      0.000405     -0.000450
    22   Atom       -0.001578      0.004140     -0.000420
    23   Atom        0.001176      0.000264     -0.000417
    24   Atom       -0.001254     -0.001253      0.000658
    25   Atom       -0.001062     -0.000468      0.000094
    26   Atom       -0.000929     -0.001137      0.000493
    27   Atom       -0.000328     -0.000666      0.000194
    28   Atom       -0.000140     -0.000444      0.000048
    29   Atom       -0.000407     -0.000512      0.000343
    30   Atom       -0.000186     -0.000719      0.000179
    31   Atom       -0.000363      0.000001     -0.000021
    32   Atom       -0.000410      0.000064      0.000025
    33   Atom       -0.000594     -0.000110      0.000010
    34   Atom       -0.000145     -0.000040      0.000016
    35   Atom       -0.006808     -0.001130     -0.006416
    36   Atom        0.011643      0.072171      0.037108
    37   Atom       -0.000306      0.017619      0.203258
    38   Atom        0.002520      0.000192     -0.005333
    39   Atom       -0.016094     -0.012916      0.010141
    40   Atom       -0.003163      0.002307     -0.004965
    41   Atom        0.003037      0.002278      0.005093
    42   Atom        0.015499      0.007897      0.027101
    43   Atom        0.004628      0.000629      0.000446
    44   Atom        0.001390      0.000240      0.000035
    45   Atom        0.001121      0.000013     -0.000058
    46   Atom        0.002138     -0.000057     -0.000039
    47   Atom        0.001346      0.000807      0.000912
    48   Atom       -0.000371      0.000022      0.001392
    49   Atom       -0.004574     -0.002467      0.005004
    50   Atom        0.000114      0.000165      0.001330
    51   Atom        0.000063      0.000479      0.000325
    52   Atom        0.043002     -0.020839     -0.003330
    53   Atom       -0.033542      0.017214     -0.011601
 --------------------------------------------------------


 ---------------------------------------------------------------------------------
              Anisotropic Spin Dipole Couplings in Principal Axis System
 ---------------------------------------------------------------------------------

       Atom             a.u.   MegaHertz   Gauss  10(-4) cm-1        Axes

              Baa    -0.3699   -49.638   -17.712   -16.557  0.1942  0.8947 -0.4022
     1 C(13)  Bbb    -0.3659   -49.102   -17.521   -16.379  0.9695 -0.2375 -0.0602
              Bcc     0.7358    98.740    35.233    32.936  0.1494  0.3782  0.9136
 
              Baa    -0.0789   -10.593    -3.780    -3.533  0.2275  0.8624 -0.4521
     2 C(13)  Bbb    -0.0353    -4.731    -1.688    -1.578  0.9722 -0.2275  0.0552
              Bcc     0.1142    15.324     5.468     5.112  0.0552  0.4521  0.8902
 
              Baa    -0.1832    -7.067    -2.522    -2.357 -0.3387  0.7876 -0.5147
     3 N(14)  Bbb    -0.1672    -6.449    -2.301    -2.151  0.9408  0.2905 -0.1746
              Bcc     0.3505    13.516     4.823     4.509 -0.0120  0.5434  0.8394
 
              Baa    -0.0052    -0.693    -0.247    -0.231  0.0104  0.5477  0.8366
     4 C(13)  Bbb    -0.0024    -0.319    -0.114    -0.107  0.9125 -0.3473  0.2160
              Bcc     0.0075     1.012     0.361     0.338  0.4089  0.7612 -0.5034
 
              Baa    -0.0156    -7.827    -2.793    -2.611  0.6915 -0.6869 -0.2237
     5 F(19)  Bbb    -0.0142    -7.123    -2.542    -2.376  0.6601  0.4749  0.5820
              Bcc     0.0298    14.950     5.334     4.987 -0.2936 -0.5502  0.7818
 
              Baa    -0.0230   -11.561    -4.125    -3.856 -0.4756  0.6448  0.5984
     6 F(19)  Bbb    -0.0138    -6.945    -2.478    -2.317  0.5437 -0.3193  0.7761
              Bcc     0.0368    18.506     6.603     6.173  0.6915  0.6945 -0.1987
 
              Baa    -0.0057    -0.765    -0.273    -0.255  0.5276 -0.1495  0.8362
     7 C(13)  Bbb    -0.0043    -0.576    -0.205    -0.192  0.8295 -0.1216 -0.5451
              Bcc     0.0100     1.341     0.478     0.447  0.1832  0.9813  0.0598
 
              Baa    -0.0035    -1.755    -0.626    -0.585  0.5522 -0.4161  0.7225
     8 F(19)  Bbb    -0.0008    -0.401    -0.143    -0.134  0.8211  0.1209 -0.5579
              Bcc     0.0043     2.155     0.769     0.719  0.1448  0.9013  0.4084
 
              Baa    -0.0067     0.482     0.172     0.161  0.2655 -0.1950  0.9442
     9 O(17)  Bbb    -0.0050     0.364     0.130     0.121  0.8896 -0.3280 -0.3179
              Bcc     0.0117    -0.846    -0.302    -0.282  0.3717  0.9243  0.0864
 
              Baa    -0.0018    -0.237    -0.084    -0.079  0.5325 -0.2729  0.8012
    10 C(13)  Bbb    -0.0014    -0.193    -0.069    -0.064  0.8460  0.1400 -0.5146
              Bcc     0.0032     0.429     0.153     0.143  0.0282  0.9518  0.3054
 
              Baa    -0.0014    -0.699    -0.249    -0.233  0.2228 -0.4671  0.8557
    11 F(19)  Bbb    -0.0013    -0.633    -0.226    -0.211  0.9738  0.1475 -0.1730
              Bcc     0.0027     1.332     0.475     0.444 -0.0454  0.8718  0.4878
 
              Baa    -0.0010    -0.524    -0.187    -0.175  0.3652 -0.0530  0.9294
    12 F(19)  Bbb    -0.0009    -0.460    -0.164    -0.153  0.9249  0.1340 -0.3557
              Bcc     0.0020     0.984     0.351     0.328 -0.1057  0.9896  0.0979
 
              Baa    -0.0014    -0.689    -0.246    -0.230  0.5532 -0.4029  0.7292
    13 F(19)  Bbb    -0.0013    -0.636    -0.227    -0.212  0.8045  0.0310 -0.5931
              Bcc     0.0026     1.325     0.473     0.442  0.2163  0.9147  0.3413
 
              Baa    -0.0017    -0.232    -0.083    -0.077 -0.6041  0.4239  0.6749
    14 C(13)  Bbb    -0.0014    -0.186    -0.066    -0.062  0.7920  0.2250  0.5676
              Bcc     0.0031     0.418     0.149     0.139  0.0887  0.8773 -0.4716
 
              Baa    -0.0019    -0.933    -0.333    -0.311 -0.2659  0.3282  0.9064
    15 F(19)  Bbb    -0.0017    -0.840    -0.300    -0.280  0.9618  0.0267  0.2724
              Bcc     0.0035     1.773     0.633     0.591  0.0652  0.9442 -0.3228
 
              Baa    -0.0014    -0.715    -0.255    -0.239 -0.4376  0.4381  0.7852
    16 F(19)  Bbb    -0.0014    -0.679    -0.242    -0.227  0.8985  0.2455  0.3638
              Bcc     0.0028     1.394     0.497     0.465 -0.0334  0.8648 -0.5011
 
              Baa    -0.0010    -0.493    -0.176    -0.164  0.9438 -0.3293  0.0275
    17 F(19)  Bbb    -0.0005    -0.259    -0.092    -0.086  0.1321  0.4522  0.8821
              Bcc     0.0015     0.752     0.268     0.251  0.3029  0.8289 -0.4703
 
              Baa    -0.0288    -3.863    -1.378    -1.288 -0.0039  0.5479  0.8365
    18 C(13)  Bbb     0.0065     0.871     0.311     0.290 -0.0582  0.8350 -0.5472
              Bcc     0.0223     2.992     1.068     0.998  0.9983  0.0508 -0.0286
 
              Baa    -0.0665     4.809     1.716     1.604 -0.6056  0.6071 -0.5144
    19 O(17)  Bbb    -0.0581     4.207     1.501     1.403  0.7791  0.5840 -0.2280
              Bcc     0.1246    -9.016    -3.217    -3.007 -0.1620  0.5389  0.8267
 
              Baa    -0.0183    -0.707    -0.252    -0.236  0.2239  0.8880 -0.4017
    20 N(14)  Bbb    -0.0105    -0.407    -0.145    -0.136  0.9687 -0.1577  0.1916
              Bcc     0.0289     1.113     0.397     0.371 -0.1068  0.4320  0.8955
 
              Baa    -0.0019    -0.258    -0.092    -0.086 -0.0188  0.3668  0.9301
    21 C(13)  Bbb    -0.0009    -0.116    -0.042    -0.039  0.2511  0.9022 -0.3507
              Bcc     0.0028     0.374     0.134     0.125  0.9678 -0.2270  0.1091
 
              Baa    -0.0039    -1.945    -0.694    -0.649  0.3489  0.8862 -0.3048
    22 F(19)  Bbb    -0.0027    -1.352    -0.483    -0.451 -0.4082  0.4364  0.8018
              Bcc     0.0066     3.298     1.177     1.100  0.8436 -0.1553  0.5140
 
              Baa    -0.0020    -1.006    -0.359    -0.336 -0.2066  0.6726  0.7105
    23 F(19)  Bbb    -0.0011    -0.532    -0.190    -0.177  0.1655 -0.6917  0.7029
              Bcc     0.0031     1.538     0.549     0.513  0.9643  0.2628  0.0316
 
              Baa    -0.0013    -0.181    -0.065    -0.060  0.2925  0.9099 -0.2941
    24 C(13)  Bbb    -0.0012    -0.159    -0.057    -0.053  0.4952  0.1190  0.8606
              Bcc     0.0025     0.340     0.121     0.114  0.8180 -0.3974 -0.4158
 
              Baa    -0.0011    -0.530    -0.189    -0.177  0.5131  0.8121  0.2780
    25 F(19)  Bbb    -0.0005    -0.263    -0.094    -0.088  0.0468 -0.3499  0.9356
              Bcc     0.0016     0.792     0.283     0.264  0.8571 -0.4670 -0.2176
 
              Baa    -0.0013     0.095     0.034     0.032  0.3969 -0.0851  0.9139
    26 O(17)  Bbb    -0.0008     0.057     0.020     0.019  0.3949  0.9147 -0.0864
              Bcc     0.0021    -0.152    -0.054    -0.051  0.8286 -0.3952 -0.3966
 
              Baa    -0.0005    -0.073    -0.026    -0.024  0.5632  0.2279  0.7943
    27 C(13)  Bbb    -0.0005    -0.068    -0.024    -0.023  0.0855  0.9400 -0.3303
              Bcc     0.0010     0.140     0.050     0.047  0.8219 -0.2539 -0.5100
 
              Baa    -0.0004    -0.198    -0.070    -0.066  0.4359  0.5719  0.6949
    28 F(19)  Bbb    -0.0004    -0.176    -0.063    -0.059 -0.1623  0.8094 -0.5643
              Bcc     0.0007     0.373     0.133     0.125  0.8852 -0.1332 -0.4457
 
              Baa    -0.0005    -0.244    -0.087    -0.081  0.0051  0.7869 -0.6170
    29 F(19)  Bbb    -0.0004    -0.207    -0.074    -0.069  0.6939  0.4415  0.5688
              Bcc     0.0009     0.451     0.161     0.150  0.7200 -0.4311 -0.5438
 
              Baa    -0.0005    -0.254    -0.091    -0.085  0.5091 -0.5040  0.6977
    30 F(19)  Bbb    -0.0005    -0.245    -0.087    -0.082  0.4560  0.8455  0.2779
              Bcc     0.0010     0.498     0.178     0.166  0.7300 -0.1766 -0.6603
 
              Baa    -0.0005    -0.073    -0.026    -0.024  0.0975  0.4023  0.9103
    31 C(13)  Bbb    -0.0005    -0.066    -0.023    -0.022  0.2240  0.8823 -0.4139
              Bcc     0.0010     0.139     0.050     0.046  0.9697 -0.2443  0.0041
 
              Baa    -0.0005    -0.227    -0.081    -0.076 -0.2318 -0.4810  0.8455
    32 F(19)  Bbb    -0.0003    -0.174    -0.062    -0.058  0.2978  0.7924  0.5324
              Bcc     0.0008     0.402     0.143     0.134  0.9261 -0.3752  0.0405
 
              Baa    -0.0007    -0.374    -0.134    -0.125  0.1829  0.4527  0.8727
    33 F(19)  Bbb    -0.0007    -0.347    -0.124    -0.116  0.2306  0.8431 -0.4857
              Bcc     0.0014     0.721     0.257     0.241  0.9557 -0.2901 -0.0498
 
              Baa    -0.0004    -0.207    -0.074    -0.069  0.1212  0.9835 -0.1342
    34 F(19)  Bbb    -0.0003    -0.166    -0.059    -0.055  0.0557  0.1282  0.9902
              Bcc     0.0007     0.373     0.133     0.124  0.9911 -0.1275 -0.0393
 
              Baa    -0.0275    -3.691    -1.317    -1.231  0.0527  0.1806  0.9821
    35 C(13)  Bbb     0.0065     0.870     0.310     0.290  0.5248  0.8318 -0.1811
              Bcc     0.0210     2.821     1.007     0.941  0.8496 -0.5249  0.0509
 
              Baa    -0.0747     5.402     1.928     1.802  0.8669  0.2638 -0.4229
    36 O(17)  Bbb    -0.0603     4.367     1.558     1.457 -0.3233  0.9433 -0.0744
              Bcc     0.1350    -9.769    -3.486    -3.259  0.3793  0.2013  0.9031
 
              Baa    -0.1756    -6.771    -2.416    -2.259  0.7248  0.6027 -0.3337
    37 N(14)  Bbb    -0.1589    -6.130    -2.187    -2.045  0.6882 -0.6553  0.3114
              Bcc     0.3345    12.901     4.604     4.303  0.0310  0.4553  0.8898
 
              Baa    -0.0077    -1.037    -0.370    -0.346 -0.1639  0.3727  0.9134
    38 C(13)  Bbb    -0.0013    -0.172    -0.061    -0.057  0.9603 -0.1516  0.2342
              Bcc     0.0090     1.209     0.431     0.403  0.2257  0.9155 -0.3330
 
              Baa    -0.0207   -10.402    -3.712    -3.470  0.7636  0.1709  0.6227
    39 F(19)  Bbb    -0.0086    -4.317    -1.540    -1.440 -0.4211 -0.5993  0.6808
              Bcc     0.0293    14.719     5.252     4.910 -0.4895  0.7821  0.3856
 
              Baa    -0.0041    -2.078    -0.742    -0.693 -0.4161  0.3820  0.8252
    40 F(19)  Bbb    -0.0039    -1.946    -0.695    -0.649  0.8393  0.5105  0.1870
              Bcc     0.0080     4.025     1.436     1.343 -0.3498  0.7704 -0.5330
 
              Baa    -0.0061    -0.818    -0.292    -0.273  0.9312 -0.0825 -0.3551
    41 C(13)  Bbb    -0.0037    -0.494    -0.176    -0.165  0.2688 -0.5028  0.8215
              Bcc     0.0098     1.312     0.468     0.438  0.2463  0.8604  0.4461
 
              Baa    -0.0260   -13.078    -4.667    -4.362  0.8118  0.0529 -0.5815
    42 F(19)  Bbb    -0.0246   -12.333    -4.401    -4.114  0.5346 -0.4677  0.7039
              Bcc     0.0506    25.411     9.067     8.476  0.2347  0.8823  0.4080
 
              Baa    -0.0058     0.422     0.151     0.141 -0.6712  0.1847  0.7179
    43 O(17)  Bbb    -0.0049     0.355     0.127     0.118  0.6765 -0.2432  0.6951
              Bcc     0.0107    -0.777    -0.277    -0.259  0.3030  0.9522  0.0382
 
              Baa    -0.0013    -0.169    -0.060    -0.056 -0.3908  0.2183  0.8942
    44 C(13)  Bbb    -0.0008    -0.109    -0.039    -0.036  0.7192 -0.5339  0.4446
              Bcc     0.0021     0.278     0.099     0.093  0.5745  0.8169  0.0516
 
              Baa    -0.0011    -0.559    -0.199    -0.186 -0.0606  0.1020  0.9929
    45 F(19)  Bbb    -0.0006    -0.322    -0.115    -0.107 -0.5627  0.8181 -0.1184
              Bcc     0.0018     0.881     0.314     0.294  0.8244  0.5659 -0.0078
 
              Baa    -0.0015    -0.760    -0.271    -0.254  0.0737 -0.0535  0.9958
    46 F(19)  Bbb    -0.0014    -0.694    -0.248    -0.232 -0.6948  0.7136  0.0897
              Bcc     0.0029     1.454     0.519     0.485  0.7155  0.6985 -0.0155
 
              Baa    -0.0013    -0.656    -0.234    -0.219 -0.4795 -0.0712  0.8746
    47 F(19)  Bbb    -0.0010    -0.492    -0.176    -0.164  0.6767 -0.6646  0.3169
              Bcc     0.0023     1.148     0.410     0.383  0.5587  0.7438  0.3669
 
              Baa    -0.0020    -0.269    -0.096    -0.090 -0.1779 -0.2826  0.9426
    48 C(13)  Bbb    -0.0013    -0.174    -0.062    -0.058  0.9811  0.0231  0.1921
              Bcc     0.0033     0.443     0.158     0.148 -0.0760  0.9590  0.2731
 
              Baa    -0.0048    -2.407    -0.859    -0.803  0.6413  0.6146 -0.4593
    49 F(19)  Bbb    -0.0043    -2.176    -0.777    -0.726  0.6438 -0.1053  0.7579
              Bcc     0.0091     4.584     1.636     1.529 -0.4175  0.7818  0.4632
 
              Baa    -0.0012    -0.620    -0.221    -0.207  0.7269  0.2665 -0.6329
    50 F(19)  Bbb    -0.0010    -0.520    -0.186    -0.173  0.6848 -0.3502  0.6390
              Bcc     0.0023     1.140     0.407     0.380  0.0514  0.8979  0.4371
 
              Baa    -0.0015    -0.778    -0.278    -0.259 -0.4419 -0.0765  0.8938
    51 F(19)  Bbb    -0.0004    -0.183    -0.065    -0.061  0.8959 -0.0884  0.4354
              Bcc     0.0019     0.961     0.343     0.321  0.0456  0.9931  0.1076
 
              Baa    -0.0461   -24.586    -8.773    -8.201 -0.5940  0.7701 -0.2328
    52 H(1)   Bbb    -0.0080    -4.287    -1.530    -1.430  0.1222  0.3723  0.9200
              Bcc     0.0541    28.873    10.303     9.631  0.7952  0.5180 -0.3152
 
              Baa    -0.0460   -24.568    -8.767    -8.195  0.8970  0.3319 -0.2921
    53 H(1)   Bbb    -0.0081    -4.336    -1.547    -1.446  0.1589  0.3745  0.9135
              Bcc     0.0542    28.905    10.314     9.642 -0.4126  0.8658 -0.2832
 

 ---------------------------------------------------------------------------------

 No NMR shielding tensors so no spin-rotation constants.
 Leave Link  601 at Sun Mar  3 18:18:43 2024, MaxMem=  5368709120 cpu:         6.1
 (Enter /home/k0335/k033513/app/g09/l9999.exe)
 1\1\GINC-C18U04N4\SP\UCAM-B3LYP\6-31G(d,p)\C16H2F27N3O5(1+,2)\K033513\
 03-Mar-2024\0\\#p CAM-B3LYP/6-31G(d,p) SCRF=(PCM,Solvent=Generic,Read)
  NoSymm out=wfn\\Title A156206682_p1\\1,2\C,0,-2.555336,0.670239,0.451
 942\C,0,-1.258677,0.311979,0.440868\N,0,-0.276913,1.136015,-0.110274\C
 ,0,-0.552916,2.361889,-0.898145\F,0,0.278431,2.376336,-1.977765\F,0,-1
 .787859,2.278129,-1.475947\C,0,-0.457194,3.682909,-0.089662\F,0,0.7678
 9,3.795833,0.4941\O,0,-1.399697,3.609986,0.994004\C,0,-1.555166,4.8315
 82,1.669364\F,0,-2.140089,4.583758,2.856313\F,0,-2.363596,5.62808,0.95
 1891\F,0,-0.37482,5.430436,1.880958\C,0,-0.664636,4.808314,-1.111529\F
 ,0,-0.508908,6.028406,-0.543386\F,0,-1.914048,4.781015,-1.63095\F,0,0.
 204192,4.760429,-2.142682\C,0,1.074217,0.903333,0.106082\O,0,1.935949,
 1.660775,-0.334255\N,0,1.404437,-0.222047,0.814021\C,0,2.819614,-0.543
 2,0.955103\F,0,2.975895,-1.302439,2.078738\F,0,3.502048,0.600018,1.258
 521\C,0,3.476656,-1.24334,-0.265592\F,0,2.906168,-2.470547,-0.445101\O
 ,0,3.177812,-0.51386,-1.460799\C,0,3.924185,-0.934205,-2.570937\F,0,5.
 172573,-0.449181,-2.479152\F,0,3.951057,-2.272985,-2.65804\F,0,3.34969
 ,-0.440011,-3.683655\C,0,4.956171,-1.40974,0.109566\F,0,5.133614,-2.04
 0799,1.290647\F,0,5.621426,-2.147571,-0.812813\F,0,5.595337,-0.220943,
 0.186738\C,0,0.512397,-1.244882,0.990042\O,0,0.884348,-2.40253,1.15613
 8\N,0,-0.831303,-0.910193,0.966848\C,0,-1.75058,-1.981899,1.40637\F,0,
 -2.754196,-1.400504,2.145876\F,0,-1.158178,-2.788534,2.334763\C,0,-2.4
 21065,-2.841837,0.31166\F,0,-3.056669,-2.006347,-0.568355\O,0,-3.40725
 4,-3.693902,0.924259\C,0,-4.601578,-3.728292,0.190579\F,0,-5.379789,-4
 .706992,0.688853\F,0,-5.247642,-2.555742,0.322804\F,0,-4.365785,-3.982
 846,-1.106552\C,0,-1.380513,-3.661275,-0.438058\F,0,-0.492568,-2.87228
 3,-1.088191\F,0,-1.964384,-4.434681,-1.387864\F,0,-0.698534,-4.499554,
 0.367537\H,0,-3.365568,0.066465,0.8428\H,0,-2.938646,1.617231,0.092319
 \\Version=ES64L-G09RevD.01\HF=-3845.5870349\S2=0.756177\S2-1=0.\S2A=0.
 750025\RMSD=7.434e-09\Dipole=-3.5531968,1.0283729,0.8676112\Quadrupole
 =7.2145129,-1.5983801,-5.6161328,-2.7817006,-3.0737372,2.9264954\PG=C0
 1 [X(C16H2F27N3O5)]\\@

 Writing a WFN file to "A156206682/A156206682_p1.wfn"


 DO YOU KNOW THAT THE LETTERS IN "EPISCOPAL", WHEN
 REARRANGED, SPELL "PEPSI COLA"?
 Job cpu time:       0 days  1 hours  2 minutes 27.2 seconds.
 File lengths (MBytes):  RWF=    877 Int=      0 D2E=      0 Chk=     30 Scr=      1
 Normal termination of Gaussian 09 at Sun Mar  3 18:18:44 2024.
