 Entering Gaussian System, Link 0=g09
 Initial command:
 /home/k0335/k033513/app/g09/l1.exe "/home/k0335/k033513/app/g09/scratch/Gau-541391.inp" -scrdir="/home/k0335/k033513/app/g09/scratch/"
 Default is to use a total of  36 processors:
                               36 via shared-memory
                                1 via Linda
 Entering Link 1 = /home/k0335/k033513/app/g09/l1.exe PID=    541392.
  
 Copyright (c) 1988,1990,1992,1993,1995,1998,2003,2009,2013,
            Gaussian, Inc.  All Rights Reserved.
  
 This is part of the Gaussian(R) 09 program.  It is based on
 the Gaussian(R) 03 system (copyright 2003, Gaussian, Inc.),
 the Gaussian(R) 98 system (copyright 1998, Gaussian, Inc.),
 the Gaussian(R) 94 system (copyright 1995, Gaussian, Inc.),
 the Gaussian 92(TM) system (copyright 1992, Gaussian, Inc.),
 the Gaussian 90(TM) system (copyright 1990, Gaussian, Inc.),
 the Gaussian 88(TM) system (copyright 1988, Gaussian, Inc.),
 the Gaussian 86(TM) system (copyright 1986, Carnegie Mellon
 University), and the Gaussian 82(TM) system (copyright 1983,
 Carnegie Mellon University). Gaussian is a federally registered
 trademark of Gaussian, Inc.
  
 This software contains proprietary and confidential information,
 including trade secrets, belonging to Gaussian, Inc.
  
 This software is provided under written license and may be
 used, copied, transmitted, or stored only in accord with that
 written license.
  
 The following legend is applicable only to US Government
 contracts under FAR:
  
                    RESTRICTED RIGHTS LEGEND
  
 Use, reproduction and disclosure by the US Government is
 subject to restrictions as set forth in subparagraphs (a)
 and (c) of the Commercial Computer Software - Restricted
 Rights clause in FAR 52.227-19.
  
 Gaussian, Inc.
 340 Quinnipiac St., Bldg. 40, Wallingford CT 06492
  
  
 ---------------------------------------------------------------
 Warning -- This program may not be used in any manner that
 competes with the business of Gaussian, Inc. or will provide
 assistance to any competitor of Gaussian, Inc.  The licensee
 of this program is prohibited from giving any competitor of
 Gaussian, Inc. access to this program.  By using this program,
 the user acknowledges that Gaussian, Inc. is engaged in the
 business of creating and licensing software in the field of
 computational chemistry and represents and warrants to the
 licensee that it is not a competitor of Gaussian, Inc. and that
 it will not use this program in any manner prohibited above.
 ---------------------------------------------------------------
  

 Cite this work as:
 Gaussian 09, Revision D.01,
 M. J. Frisch, G. W. Trucks, H. B. Schlegel, G. E. Scuseria, 
 M. A. Robb, J. R. Cheeseman, G. Scalmani, V. Barone, B. Mennucci, 
 G. A. Petersson, H. Nakatsuji, M. Caricato, X. Li, H. P. Hratchian, 
 A. F. Izmaylov, J. Bloino, G. Zheng, J. L. Sonnenberg, M. Hada, 
 M. Ehara, K. Toyota, R. Fukuda, J. Hasegawa, M. Ishida, T. Nakajima, 
 Y. Honda, O. Kitao, H. Nakai, T. Vreven, J. A. Montgomery, Jr., 
 J. E. Peralta, F. Ogliaro, M. Bearpark, J. J. Heyd, E. Brothers, 
 K. N. Kudin, V. N. Staroverov, T. Keith, R. Kobayashi, J. Normand, 
 K. Raghavachari, A. Rendell, J. C. Burant, S. S. Iyengar, J. Tomasi, 
 M. Cossi, N. Rega, J. M. Millam, M. Klene, J. E. Knox, J. B. Cross, 
 V. Bakken, C. Adamo, J. Jaramillo, R. Gomperts, R. E. Stratmann, 
 O. Yazyev, A. J. Austin, R. Cammi, C. Pomelli, J. W. Ochterski, 
 R. L. Martin, K. Morokuma, V. G. Zakrzewski, G. A. Voth, 
 P. Salvador, J. J. Dannenberg, S. Dapprich, A. D. Daniels, 
 O. Farkas, J. B. Foresman, J. V. Ortiz, J. Cioslowski, 
 and D. J. Fox, Gaussian, Inc., Wallingford CT, 2013.
 
 ******************************************
 Gaussian 09:  ES64L-G09RevD.01 24-Apr-2013
                30-Jan-2025 
 ******************************************
 %nprocshared=24
 Will use up to   24 processors via shared memory.
 %mem=40GB
 %rwf=finalLDAIC1/finalLDAIC1_p1.rwf
 %nosave
 %chk=finalLDAIC1/finalLDAIC1_p1.chk
 ----------------------------------------------------------------------
 #p CAM-B3LYP/6-31G(d,p) SCRF=(PCM,Solvent=Generic,Read) NoSymm out=wfn
 ----------------------------------------------------------------------
 1/38=1,40=2/1;
 2/12=2,15=1,17=6,18=5,40=1/2;
 3/5=1,6=6,7=101,11=2,16=1,25=1,30=1,70=2203,72=-2,74=-40/1,2,3;
 4//1;
 5/5=2,38=5/2;
 6/7=2,8=2,9=2,10=2,28=1/1;
 99/5=1,6=100,9=1/99;
 Leave Link    1 at Thu Jan 30 16:21:37 2025, MaxMem=  5368709120 cpu:         0.9
 (Enter /home/k0335/k033513/app/g09/l101.exe)
 --------------------
 Title finalLDAIC1_p1
 --------------------
 Symbolic Z-matrix:
 Charge =  1 Multiplicity = 2
 C                     0.06052  -3.81253  -2.06391 
 N                     0.05912  -2.51254  -1.41629 
 C                    -1.1077   -1.78039  -1.43024 
 O                    -2.15085  -2.22149  -1.91768 
 N                    -1.04821  -0.52783  -0.85558 
 C                    -2.24307   0.3114   -0.90443 
 C                    -3.15916   0.05861   0.29726 
 C                    -4.41268   0.93633   0.23842 
 C                    -5.32258   0.69691   1.4427 
 F                    -4.61379   0.96095   2.57719 
 F                    -5.64326  -0.62297   1.50488 
 C                    -6.60274   1.56894   1.40812 
 F                    -7.3542    1.40052   2.52547 
 F                    -6.22064   2.88165   1.43265 
 O                    -7.45161   1.46693   0.29033 
 C                    -7.93604   0.16251   0.14116 
 F                    -8.22038  -0.4224    1.31474 
 F                    -9.05944   0.20692  -0.60204 
 F                    -7.02325  -0.56928  -0.52406 
 C                     0.03957  -0.07249  -0.14112 
 O                     0.0443    1.03637   0.39871 
 N                     1.11787  -0.92763  -0.05446 
 C                     2.29035  -0.48701   0.69795 
 C                     3.26913   0.28669  -0.19139 
 C                     4.49999   0.74795   0.59984 
 C                     5.47995   1.51589  -0.28821 
 F                     4.75801   2.51192  -0.89291 
 F                     5.90174   0.70206  -1.29547 
 C                     6.70599   2.15987   0.42127 
 F                     6.32873   2.82076   1.5473 
 F                     7.19079   3.13485  -0.40992 
 O                     7.84757   1.39558   0.71901 
 C                     7.57156   0.31577   1.54669 
 F                     8.70595  -0.07549   2.15599 
 F                     7.11088  -0.70581   0.80324 
 F                     6.66135   0.62486   2.48666 
 C                     1.17936  -2.14305  -0.70435 
 O                     2.18015  -2.86092  -0.64336 
 H                    -0.24474  -4.56278  -1.32753 
 H                    -0.6379   -3.83568  -2.90567 
 H                     1.05955  -4.06455  -2.43218 
 H                    -2.78747   0.11455  -1.83576 
 H                    -1.94503   1.36634  -0.92939 
 H                    -2.61115   0.25644   1.22652 
 H                    -3.44918  -0.99882   0.32412 
 H                    -4.95114   0.72409  -0.69134 
 H                    -4.10906   1.9896    0.2156 
 H                     2.79263  -1.35874   1.1339 
 H                     1.97067   0.14408   1.5357 
 H                     2.75926   1.15428  -0.62745 
 H                     3.58518  -0.34574  -1.03002 
 H                     4.17083   1.39383   1.42203 
 H                     4.96426  -0.1393    1.0325 
 
 NAtoms=     53 NQM=       53 NQMF=       0 NMMI=      0 NMMIF=      0
                NMic=       0 NMicF=      0.
                    Isotopes and Nuclear Properties:
 (Nuclear quadrupole moments (NQMom) in fm**2, nuclear magnetic moments (NMagM)
  in nuclear magnetons)

  Atom         1           2           3           4           5           6           7           8           9          10
 IAtWgt=          12          14          12          16          14          12          12          12          12          19
 AtmWgt=  12.0000000  14.0030740  12.0000000  15.9949146  14.0030740  12.0000000  12.0000000  12.0000000  12.0000000  18.9984033
 NucSpn=           0           2           0           0           2           0           0           0           0           1
 AtZEff=   0.0000000   0.0000000   0.0000000   0.0000000   0.0000000   0.0000000   0.0000000   0.0000000   0.0000000   0.0000000
 NQMom=    0.0000000   2.0440000   0.0000000   0.0000000   2.0440000   0.0000000   0.0000000   0.0000000   0.0000000   0.0000000
 NMagM=    0.0000000   0.4037610   0.0000000   0.0000000   0.4037610   0.0000000   0.0000000   0.0000000   0.0000000   2.6288670
 AtZNuc=   6.0000000   7.0000000   6.0000000   8.0000000   7.0000000   6.0000000   6.0000000   6.0000000   6.0000000   9.0000000

  Atom        11          12          13          14          15          16          17          18          19          20
 IAtWgt=          19          12          19          19          16          12          19          19          19          12
 AtmWgt=  18.9984033  12.0000000  18.9984033  18.9984033  15.9949146  12.0000000  18.9984033  18.9984033  18.9984033  12.0000000
 NucSpn=           1           0           1           1           0           0           1           1           1           0
 AtZEff=   0.0000000   0.0000000   0.0000000   0.0000000   0.0000000   0.0000000   0.0000000   0.0000000   0.0000000   0.0000000
 NQMom=    0.0000000   0.0000000   0.0000000   0.0000000   0.0000000   0.0000000   0.0000000   0.0000000   0.0000000   0.0000000
 NMagM=    2.6288670   0.0000000   2.6288670   2.6288670   0.0000000   0.0000000   2.6288670   2.6288670   2.6288670   0.0000000
 AtZNuc=   9.0000000   6.0000000   9.0000000   9.0000000   8.0000000   6.0000000   9.0000000   9.0000000   9.0000000   6.0000000

  Atom        21          22          23          24          25          26          27          28          29          30
 IAtWgt=          16          14          12          12          12          12          19          19          12          19
 AtmWgt=  15.9949146  14.0030740  12.0000000  12.0000000  12.0000000  12.0000000  18.9984033  18.9984033  12.0000000  18.9984033
 NucSpn=           0           2           0           0           0           0           1           1           0           1
 AtZEff=   0.0000000   0.0000000   0.0000000   0.0000000   0.0000000   0.0000000   0.0000000   0.0000000   0.0000000   0.0000000
 NQMom=    0.0000000   2.0440000   0.0000000   0.0000000   0.0000000   0.0000000   0.0000000   0.0000000   0.0000000   0.0000000
 NMagM=    0.0000000   0.4037610   0.0000000   0.0000000   0.0000000   0.0000000   2.6288670   2.6288670   0.0000000   2.6288670
 AtZNuc=   8.0000000   7.0000000   6.0000000   6.0000000   6.0000000   6.0000000   9.0000000   9.0000000   6.0000000   9.0000000

  Atom        31          32          33          34          35          36          37          38          39          40
 IAtWgt=          19          16          12          19          19          19          12          16           1           1
 AtmWgt=  18.9984033  15.9949146  12.0000000  18.9984033  18.9984033  18.9984033  12.0000000  15.9949146   1.0078250   1.0078250
 NucSpn=           1           0           0           1           1           1           0           0           1           1
 AtZEff=   0.0000000   0.0000000   0.0000000   0.0000000   0.0000000   0.0000000   0.0000000   0.0000000   0.0000000   0.0000000
 NQMom=    0.0000000   0.0000000   0.0000000   0.0000000   0.0000000   0.0000000   0.0000000   0.0000000   0.0000000   0.0000000
 NMagM=    2.6288670   0.0000000   0.0000000   2.6288670   2.6288670   2.6288670   0.0000000   0.0000000   2.7928460   2.7928460
 AtZNuc=   9.0000000   8.0000000   6.0000000   9.0000000   9.0000000   9.0000000   6.0000000   8.0000000   1.0000000   1.0000000

  Atom        41          42          43          44          45          46          47          48          49          50
 IAtWgt=           1           1           1           1           1           1           1           1           1           1
 AtmWgt=   1.0078250   1.0078250   1.0078250   1.0078250   1.0078250   1.0078250   1.0078250   1.0078250   1.0078250   1.0078250
 NucSpn=           1           1           1           1           1           1           1           1           1           1
 AtZEff=   0.0000000   0.0000000   0.0000000   0.0000000   0.0000000   0.0000000   0.0000000   0.0000000   0.0000000   0.0000000
 NQMom=    0.0000000   0.0000000   0.0000000   0.0000000   0.0000000   0.0000000   0.0000000   0.0000000   0.0000000   0.0000000
 NMagM=    2.7928460   2.7928460   2.7928460   2.7928460   2.7928460   2.7928460   2.7928460   2.7928460   2.7928460   2.7928460
 AtZNuc=   1.0000000   1.0000000   1.0000000   1.0000000   1.0000000   1.0000000   1.0000000   1.0000000   1.0000000   1.0000000

  Atom        51          52          53
 IAtWgt=           1           1           1
 AtmWgt=   1.0078250   1.0078250   1.0078250
 NucSpn=           1           1           1
 AtZEff=   0.0000000   0.0000000   0.0000000
 NQMom=    0.0000000   0.0000000   0.0000000
 NMagM=    2.7928460   2.7928460   2.7928460
 AtZNuc=   1.0000000   1.0000000   1.0000000
 Leave Link  101 at Thu Jan 30 16:21:37 2025, MaxMem=  5368709120 cpu:         0.9
 (Enter /home/k0335/k033513/app/g09/l202.exe)
 Symmetry turned off by external request.
 Stoichiometry    C16H15F14N3O5(1+,2)
 Framework group  C1[X(C16H15F14N3O5)]
 Deg. of freedom   153
 Full point group                 C1      NOp   1
                          Input orientation:                          
 ---------------------------------------------------------------------
 Center     Atomic      Atomic             Coordinates (Angstroms)
 Number     Number       Type             X           Y           Z
 ---------------------------------------------------------------------
      1          6           0        0.060520   -3.812534   -2.063911
      2          7           0        0.059118   -2.512536   -1.416291
      3          6           0       -1.107703   -1.780387   -1.430237
      4          8           0       -2.150849   -2.221493   -1.917680
      5          7           0       -1.048213   -0.527825   -0.855578
      6          6           0       -2.243071    0.311399   -0.904428
      7          6           0       -3.159157    0.058610    0.297264
      8          6           0       -4.412678    0.936326    0.238421
      9          6           0       -5.322582    0.696910    1.442699
     10          9           0       -4.613790    0.960946    2.577193
     11          9           0       -5.643261   -0.622969    1.504875
     12          6           0       -6.602736    1.568939    1.408120
     13          9           0       -7.354202    1.400523    2.525469
     14          9           0       -6.220637    2.881650    1.432652
     15          8           0       -7.451606    1.466934    0.290330
     16          6           0       -7.936038    0.162507    0.141160
     17          9           0       -8.220375   -0.422395    1.314741
     18          9           0       -9.059443    0.206916   -0.602037
     19          9           0       -7.023250   -0.569282   -0.524061
     20          6           0        0.039569   -0.072492   -0.141121
     21          8           0        0.044295    1.036372    0.398705
     22          7           0        1.117869   -0.927630   -0.054456
     23          6           0        2.290351   -0.487008    0.697951
     24          6           0        3.269129    0.286688   -0.191392
     25          6           0        4.499986    0.747952    0.599843
     26          6           0        5.479953    1.515891   -0.288213
     27          9           0        4.758013    2.511919   -0.892913
     28          9           0        5.901736    0.702064   -1.295469
     29          6           0        6.705991    2.159867    0.421268
     30          9           0        6.328733    2.820755    1.547297
     31          9           0        7.190794    3.134855   -0.409918
     32          8           0        7.847569    1.395576    0.719010
     33          6           0        7.571560    0.315767    1.546691
     34          9           0        8.705947   -0.075492    2.155994
     35          9           0        7.110876   -0.705810    0.803243
     36          9           0        6.661354    0.624855    2.486661
     37          6           0        1.179363   -2.143047   -0.704345
     38          8           0        2.180154   -2.860921   -0.643357
     39          1           0       -0.244737   -4.562776   -1.327532
     40          1           0       -0.637895   -3.835684   -2.905670
     41          1           0        1.059548   -4.064551   -2.432183
     42          1           0       -2.787467    0.114550   -1.835762
     43          1           0       -1.945030    1.366335   -0.929387
     44          1           0       -2.611152    0.256442    1.226519
     45          1           0       -3.449176   -0.998817    0.324121
     46          1           0       -4.951141    0.724092   -0.691344
     47          1           0       -4.109057    1.989603    0.215595
     48          1           0        2.792628   -1.358742    1.133902
     49          1           0        1.970667    0.144082    1.535696
     50          1           0        2.759256    1.154276   -0.627447
     51          1           0        3.585177   -0.345741   -1.030025
     52          1           0        4.170830    1.393825    1.422027
     53          1           0        4.964259   -0.139295    1.032499
 ---------------------------------------------------------------------
 Rotational constants (GHZ):      0.2045989      0.0258144      0.0243136
 Leave Link  202 at Thu Jan 30 16:21:37 2025, MaxMem=  5368709120 cpu:         0.1
 (Enter /home/k0335/k033513/app/g09/l301.exe)
 Standard basis: 6-31G(d,p) (6D, 7F)
 Ernie: Thresh=  0.10000D-02 Tol=  0.10000D-05 Strict=F.
   645 basis functions,  1169 primitive gaussians,   645 cartesian basis functions
   149 alpha electrons      148 beta electrons
       nuclear repulsion energy      4712.4276737787 Hartrees.
 IExCor=20419 DFT=T Ex+Corr=CAM-B3LYP ExCW=0 ScaHFX=  1.000000
 ScaDFX=  1.000000  1.000000  1.000000  0.810000 ScalE2=  1.000000  1.000000
 IRadAn=      0 IRanWt=     -1 IRanGd=            0 ICorTp=0 IEmpDi=  4
  HFx wShort=  0.000000 wLong=  0.330000 cFull=  0.190000 cShort=  0.000000 cLong=  0.460000
  DFx wShort=  0.000000 wLong=  0.330000 cFull=  0.190000 cShort=  0.000000 cLong=  0.460000
 NAtoms=   53 NActive=   53 NUniq=   53 SFac= 1.00D+00 NAtFMM=   60 NAOKFM=F Big=F
 Integral buffers will be    131072 words long.
 Raffenetti 2 integral format.
 Two-electron integral symmetry is turned off.
 Using the following non-standard input for PCM:
 eps=4.9
 --- end of non-standard input.
 ------------------------------------------------------------------------------
 Polarizable Continuum Model (PCM)
 =================================
 Model                : PCM (using non-symmetric T matrix).
 Atomic radii         : UFF (Universal Force Field).
 Polarization charges : Total charges.
 Charge compensation  : None.
 Solution method      : On-the-fly selection.
 Cavity type          : Scaled VdW (van der Waals Surface) (Alpha=1.100).
 Cavity algorithm     : GePol (No added spheres)
                        Default sphere list used, NSphG=   53.
                        Lebedev-Laikov grids with approx.  5.0 points / Ang**2.
                        Smoothing algorithm: Karplus/York (Gamma=1.0000).
                        Polarization charges: spherical gaussians, with
                                              point-specific exponents (IZeta= 3).
                        Self-potential: point-specific (ISelfS= 7).
                        Self-field    : sphere-specific E.n sum rule (ISelfD= 2).
 Solvent              : Generic,
                        Eps                           =   4.900000
                        Eps(infinity)                 =   0.000000
                        RSolv                         =   0.000000 Ang.
                        Molar volume                  =   0.000000 cm**3/mol
                        Thermal expansion coefficient =   0.000000 K**-1
                        Absolute temperature          = 298.150000 K
                        Numeral density               =   0.000000 Ang**-3
                        Hydrogen bond acidity         =   0.000000
                        Hydrogen bond basicity        =   0.000000
                        Surface tension at interface  =   0.000000 (cal/mol)*Ang**-2
                        Carbon aromaticity            =   0.000000
                        Electronegative halogenicity  =   0.000000
 ------------------------------------------------------------------------------
 GePol: Number of generator spheres                  =      53
 GePol: Total number of spheres                      =      53
 GePol: Number of exposed spheres                    =      53 (100.00%)
 GePol: Number of points                             =    4138
 GePol: Average weight of points                     =       0.13
 GePol: Minimum weight of points                     =   0.15D-09
 GePol: Maximum weight of points                     =    0.20577
 GePol: Number of points with low weight             =     212
 GePol: Fraction of low-weight points (<1% of avg)   =       5.12%
 GePol: Cavity surface area                          =    526.017 Ang**2
 GePol: Cavity volume                                =    587.913 Ang**3
 Leave Link  301 at Thu Jan 30 16:21:37 2025, MaxMem=  5368709120 cpu:         0.8
 (Enter /home/k0335/k033513/app/g09/l302.exe)
 NPDir=0 NMtPBC=     1 NCelOv=     1 NCel=       1 NClECP=     1 NCelD=      1
         NCelK=      1 NCelE2=     1 NClLst=     1 CellRange=     0.0.
 One-electron integrals computed using PRISM.
 NBasis=   645 RedAO= T EigKep=  1.48D-03  NBF=   645
 NBsUse=   645 1.00D-06 EigRej= -1.00D+00 NBFU=   645
 Precomputing XC quadrature grid using
 IXCGrd= 4 IRadAn=           0 IRanWt=          -1 IRanGd=           0 AccXCQ= 0.00D+00.
 Generated NRdTot=       0 NPtTot=           0 NUsed=           0 NTot=          32
 NSgBfM=   589   590   590   590   590 MxSgAt=    53 MxSgA2=    53.
 Leave Link  302 at Thu Jan 30 16:21:38 2025, MaxMem=  5368709120 cpu:        14.0
 (Enter /home/k0335/k033513/app/g09/l303.exe)
 DipDrv:  MaxL=1.
 Leave Link  303 at Thu Jan 30 16:21:38 2025, MaxMem=  5368709120 cpu:         0.9
 (Enter /home/k0335/k033513/app/g09/l401.exe)
 ExpMin= 1.61D-01 ExpMax= 7.00D+03 ExpMxC= 1.05D+03 IAcc=1 IRadAn=         1 AccDes= 0.00D+00
 Harris functional with IExCor=20419 and IRadAn=       1 diagonalized for initial guess.
 HarFok:  IExCor=20419 AccDes= 0.00D+00 IRadAn=         1 IDoV= 1 UseB2=F ITyADJ=14
 ICtDFT=  3500011 ScaDFX=  1.000000  1.000000  1.000000  1.000000
 FoFCou: FMM=F IPFlag=           0 FMFlag=      100000 FMFlg1=           0
         NFxFlg=           0 DoJE=T BraDBF=F KetDBF=T FulRan=T
         wScrn=  0.000000 ICntrl=     500 IOpCl=  0 I1Cent=   200000004 NGrid=           0
         NMat0=    1 NMatS0=      1 NMatT0=    0 NMatD0=    1 NMtDS0=    0 NMtDT0=    0
 Symmetry not used in FoFCou.
 Harris En= -2476.04627457423    
 JPrj=0 DoOrth=F DoCkMO=F.
 Initial guess <Sx>= 0.0000 <Sy>= 0.0000 <Sz>= 0.5000 <S**2>= 0.7500 S= 0.5000
 Leave Link  401 at Thu Jan 30 16:21:39 2025, MaxMem=  5368709120 cpu:        17.9
 (Enter /home/k0335/k033513/app/g09/l502.exe)
 UHF open shell SCF:
 Using DIIS extrapolation, IDIIS=  1040.
 Two-electron integral symmetry not used.
 IVT=     1286081 IEndB=     1286081 NGot=  5368709120 MDV=  5367856350
 LenX=  5367856350 LenY=  5367439680
 Requested convergence on RMS density matrix=1.00D-08 within 128 cycles.
 Requested convergence on MAX density matrix=1.00D-06.
 Requested convergence on             energy=1.00D-06.
 No special actions if energy rises.
 Fock matrices will be formed incrementally for  20 cycles.

 Cycle   1  Pass 1  IDiag  1:
 FoFJK:  IHMeth= 1 ICntrl=       0 DoSepK=T KAlg= 0 I1Cent=   0 FoldK=F
 IRaf=         1 NMat=   1 IRICut=       1 DoRegI=T DoRafI=F ISym2E= 0.
 FoFCou: FMM=F IPFlag=           0 FMFlag=      100000 FMFlg1=           0
         NFxFlg=           0 DoJE=T BraDBF=F KetDBF=F FulRan=T
         wScrn=  0.000000 ICntrl=     500 IOpCl=  0 I1Cent=           0 NGrid=           0
         NMat0=    1 NMatS0=      1 NMatT0=    0 NMatD0=    1 NMtDS0=    0 NMtDT0=    0
 Symmetry not used in FoFCou.
 Inv3:  Mode=1 IEnd=    51369132.
 Iteration    1 A*A^-1 deviation from unit magnitude is 8.66D-15 for   4127.
 Iteration    1 A*A^-1 deviation from orthogonality  is 7.11D-15 for   3393   2558.
 Iteration    1 A^-1*A deviation from unit magnitude is 8.33D-15 for   4127.
 Iteration    1 A^-1*A deviation from orthogonality  is 2.47D-13 for   1947   1896.
 E= -2554.83061871470    
 DIIS: error= 6.46D-02 at cycle   1 NSaved=   1.
 NSaved= 1 IEnMin= 1 EnMin= -2554.83061871470     IErMin= 1 ErrMin= 6.46D-02
 ErrMax= 6.46D-02  0.00D+00 EMaxC= 1.00D-01 BMatC= 9.29D+00 BMatP= 9.29D+00
 IDIUse=3 WtCom= 3.54D-01 WtEn= 6.46D-01
 Coeff-Com:  0.100D+01
 Coeff-En:   0.100D+01
 Coeff:      0.100D+01
 Gap=     0.493 Goal=   None    Shift=    0.000
 Gap=     0.011 Goal=   None    Shift=    0.000
 GapD=    0.011 DampG=0.250 DampE=0.500 DampFc=0.2500 IDamp=-1.
 Damping current iteration by 2.50D-01
 RMSDP=3.23D-03 MaxDP=1.62D-01              OVMax= 5.15D-01

 Cycle   2  Pass 1  IDiag  1:
 RMSU=  8.08D-04    CP:  9.99D-01
 E= -2555.17204163491     Delta-E=       -0.341422920214 Rises=F Damp=T
 DIIS: error= 4.67D-02 at cycle   2 NSaved=   2.
 NSaved= 2 IEnMin= 2 EnMin= -2555.17204163491     IErMin= 2 ErrMin= 4.67D-02
 ErrMax= 4.67D-02  0.00D+00 EMaxC= 1.00D-01 BMatC= 3.75D+00 BMatP= 9.29D+00
 IDIUse=3 WtCom= 5.33D-01 WtEn= 4.67D-01
 Coeff-Com: -0.137D+01 0.237D+01
 Coeff-En:   0.000D+00 0.100D+01
 Coeff:     -0.731D+00 0.173D+01
 Gap=     0.524 Goal=   None    Shift=    0.000
 Gap=     0.102 Goal=   None    Shift=    0.000
 RMSDP=1.65D-03 MaxDP=7.47D-02 DE=-3.41D-01 OVMax= 7.67D-01

 Cycle   3  Pass 1  IDiag  1:
 RMSU=  1.07D-03    CP:  9.97D-01  2.55D+00
 E= -2555.80111668501     Delta-E=       -0.629075050093 Rises=F Damp=F
 DIIS: error= 7.22D-03 at cycle   3 NSaved=   3.
 NSaved= 3 IEnMin= 3 EnMin= -2555.80111668501     IErMin= 3 ErrMin= 7.22D-03
 ErrMax= 7.22D-03  0.00D+00 EMaxC= 1.00D-01 BMatC= 3.79D-01 BMatP= 3.75D+00
 IDIUse=3 WtCom= 9.28D-01 WtEn= 7.22D-02
 Coeff-Com: -0.410D+00 0.746D+00 0.664D+00
 Coeff-En:   0.000D+00 0.000D+00 0.100D+01
 Coeff:     -0.380D+00 0.692D+00 0.688D+00
 Gap=     0.397 Goal=   None    Shift=    0.000
 Gap=     0.076 Goal=   None    Shift=    0.000
 RMSDP=6.30D-04 MaxDP=6.71D-02 DE=-6.29D-01 OVMax= 9.53D-02

 Cycle   4  Pass 1  IDiag  1:
 RMSU=  5.67D-04    CP:  9.97D-01  2.57D+00  7.44D-01
 E= -2555.85665685570     Delta-E=       -0.055540170692 Rises=F Damp=F
 DIIS: error= 6.11D-03 at cycle   4 NSaved=   4.
 NSaved= 4 IEnMin= 4 EnMin= -2555.85665685570     IErMin= 4 ErrMin= 6.11D-03
 ErrMax= 6.11D-03  0.00D+00 EMaxC= 1.00D-01 BMatC= 1.28D-01 BMatP= 3.79D-01
 IDIUse=3 WtCom= 9.39D-01 WtEn= 6.11D-02
 Coeff-Com: -0.403D-01 0.790D-01 0.361D+00 0.601D+00
 Coeff-En:   0.000D+00 0.000D+00 0.205D+00 0.795D+00
 Coeff:     -0.378D-01 0.742D-01 0.351D+00 0.612D+00
 Gap=     0.379 Goal=   None    Shift=    0.000
 Gap=     0.113 Goal=   None    Shift=    0.000
 RMSDP=3.02D-04 MaxDP=3.69D-02 DE=-5.55D-02 OVMax= 8.09D-02

 Cycle   5  Pass 1  IDiag  1:
 RMSU=  2.20D-04    CP:  9.96D-01  2.59D+00  8.71D-01  7.31D-01
 E= -2555.88090619005     Delta-E=       -0.024249334355 Rises=F Damp=F
 DIIS: error= 2.08D-03 at cycle   5 NSaved=   5.
 NSaved= 5 IEnMin= 5 EnMin= -2555.88090619005     IErMin= 5 ErrMin= 2.08D-03
 ErrMax= 2.08D-03  0.00D+00 EMaxC= 1.00D-01 BMatC= 1.52D-02 BMatP= 1.28D-01
 IDIUse=3 WtCom= 9.79D-01 WtEn= 2.08D-02
 Coeff-Com: -0.620D-02 0.907D-02 0.119D+00 0.322D+00 0.556D+00
 Coeff-En:   0.000D+00 0.000D+00 0.000D+00 0.000D+00 0.100D+01
 Coeff:     -0.607D-02 0.888D-02 0.117D+00 0.315D+00 0.565D+00
 Gap=     0.365 Goal=   None    Shift=    0.000
 Gap=     0.116 Goal=   None    Shift=    0.000
 RMSDP=9.34D-05 MaxDP=1.02D-02 DE=-2.42D-02 OVMax= 3.41D-02

 Cycle   6  Pass 1  IDiag  1:
 RMSU=  8.23D-05    CP:  9.96D-01  2.61D+00  8.70D-01  7.92D-01  9.07D-01
 E= -2555.88448811873     Delta-E=       -0.003581928680 Rises=F Damp=F
 DIIS: error= 4.03D-04 at cycle   6 NSaved=   6.
 NSaved= 6 IEnMin= 6 EnMin= -2555.88448811873     IErMin= 6 ErrMin= 4.03D-04
 ErrMax= 4.03D-04  0.00D+00 EMaxC= 1.00D-01 BMatC= 8.28D-04 BMatP= 1.52D-02
 IDIUse=3 WtCom= 9.96D-01 WtEn= 4.03D-03
 Coeff-Com: -0.555D-02 0.569D-02-0.329D-01-0.253D-01 0.107D+00 0.951D+00
 Coeff-En:   0.000D+00 0.000D+00 0.000D+00 0.000D+00 0.000D+00 0.100D+01
 Coeff:     -0.553D-02 0.567D-02-0.327D-01-0.252D-01 0.107D+00 0.951D+00
 Gap=     0.364 Goal=   None    Shift=    0.000
 Gap=     0.120 Goal=   None    Shift=    0.000
 RMSDP=6.02D-05 MaxDP=4.49D-03 DE=-3.58D-03 OVMax= 2.90D-02

 Cycle   7  Pass 1  IDiag  1:
 RMSU=  2.85D-05    CP:  9.96D-01  2.62D+00  8.76D-01  8.15D-01  1.09D+00
                    CP:  1.37D+00
 E= -2555.88525593059     Delta-E=       -0.000767811853 Rises=F Damp=F
 DIIS: error= 2.41D-04 at cycle   7 NSaved=   7.
 NSaved= 7 IEnMin= 7 EnMin= -2555.88525593059     IErMin= 7 ErrMin= 2.41D-04
 ErrMax= 2.41D-04  0.00D+00 EMaxC= 1.00D-01 BMatC= 2.89D-04 BMatP= 8.28D-04
 IDIUse=3 WtCom= 9.98D-01 WtEn= 2.41D-03
 Coeff-Com: -0.590D-02 0.766D-02-0.428D-01-0.782D-01-0.680D-01 0.397D+00
 Coeff-Com:  0.791D+00
 Coeff-En:   0.000D+00 0.000D+00 0.000D+00 0.000D+00 0.000D+00 0.000D+00
 Coeff-En:   0.100D+01
 Coeff:     -0.588D-02 0.764D-02-0.427D-01-0.781D-01-0.678D-01 0.396D+00
 Coeff:      0.791D+00
 Gap=     0.364 Goal=   None    Shift=    0.000
 Gap=     0.123 Goal=   None    Shift=    0.000
 RMSDP=3.40D-05 MaxDP=2.61D-03 DE=-7.68D-04 OVMax= 1.69D-02

 Cycle   8  Pass 1  IDiag  1:
 RMSU=  1.53D-05    CP:  9.96D-01  2.63D+00  8.76D-01  8.23D-01  1.17D+00
                    CP:  1.64D+00  1.20D+00
 E= -2555.88549572864     Delta-E=       -0.000239798057 Rises=F Damp=F
 DIIS: error= 1.34D-04 at cycle   8 NSaved=   8.
 NSaved= 8 IEnMin= 8 EnMin= -2555.88549572864     IErMin= 8 ErrMin= 1.34D-04
 ErrMax= 1.34D-04  0.00D+00 EMaxC= 1.00D-01 BMatC= 6.11D-05 BMatP= 2.89D-04
 IDIUse=3 WtCom= 9.99D-01 WtEn= 1.34D-03
 Coeff-Com: -0.250D-02 0.374D-02-0.471D-02-0.130D-01-0.404D-01-0.138D+00
 Coeff-Com:  0.241D+00 0.953D+00
 Coeff-En:   0.000D+00 0.000D+00 0.000D+00 0.000D+00 0.000D+00 0.000D+00
 Coeff-En:   0.000D+00 0.100D+01
 Coeff:     -0.249D-02 0.374D-02-0.470D-02-0.130D-01-0.403D-01-0.137D+00
 Coeff:      0.241D+00 0.954D+00
 Gap=     0.363 Goal=   None    Shift=    0.000
 Gap=     0.123 Goal=   None    Shift=    0.000
 RMSDP=2.00D-05 MaxDP=2.23D-03 DE=-2.40D-04 OVMax= 9.07D-03

 Cycle   9  Pass 1  IDiag  1:
 RMSU=  8.50D-06    CP:  9.96D-01  2.63D+00  8.76D-01  8.26D-01  1.21D+00
                    CP:  1.77D+00  1.57D+00  1.35D+00
 E= -2555.88556206711     Delta-E=       -0.000066338465 Rises=F Damp=F
 DIIS: error= 1.22D-04 at cycle   9 NSaved=   9.
 NSaved= 9 IEnMin= 9 EnMin= -2555.88556206711     IErMin= 9 ErrMin= 1.22D-04
 ErrMax= 1.22D-04  0.00D+00 EMaxC= 1.00D-01 BMatC= 2.77D-05 BMatP= 6.11D-05
 IDIUse=3 WtCom= 9.99D-01 WtEn= 1.22D-03
 Coeff-Com: -0.261D-03 0.535D-03 0.684D-02 0.106D-01-0.726D-02-0.172D+00
 Coeff-Com: -0.520D-01 0.555D+00 0.658D+00
 Coeff-En:   0.000D+00 0.000D+00 0.000D+00 0.000D+00 0.000D+00 0.000D+00
 Coeff-En:   0.000D+00 0.000D+00 0.100D+01
 Coeff:     -0.261D-03 0.534D-03 0.683D-02 0.106D-01-0.726D-02-0.172D+00
 Coeff:     -0.519D-01 0.555D+00 0.659D+00
 Gap=     0.363 Goal=   None    Shift=    0.000
 Gap=     0.124 Goal=   None    Shift=    0.000
 RMSDP=8.95D-06 MaxDP=9.86D-04 DE=-6.63D-05 OVMax= 3.59D-03

 Cycle  10  Pass 1  IDiag  1:
 RMSU=  4.56D-06    CP:  9.96D-01  2.63D+00  8.76D-01  8.27D-01  1.22D+00
                    CP:  1.82D+00  1.70D+00  1.66D+00  1.20D+00
 E= -2555.88557966449     Delta-E=       -0.000017597376 Rises=F Damp=F
 DIIS: error= 5.22D-05 at cycle  10 NSaved=  10.
 NSaved=10 IEnMin=10 EnMin= -2555.88557966449     IErMin=10 ErrMin= 5.22D-05
 ErrMax= 5.22D-05  0.00D+00 EMaxC= 1.00D-01 BMatC= 3.73D-06 BMatP= 2.77D-05
 IDIUse=1 WtCom= 1.00D+00 WtEn= 0.00D+00
 Coeff-Com:  0.279D-03-0.363D-03 0.327D-02 0.648D-02 0.623D-02-0.289D-01
 Coeff-Com: -0.719D-01 0.100D-01 0.169D+00 0.905D+00
 Coeff:      0.279D-03-0.363D-03 0.327D-02 0.648D-02 0.623D-02-0.289D-01
 Coeff:     -0.719D-01 0.100D-01 0.169D+00 0.905D+00
 Gap=     0.363 Goal=   None    Shift=    0.000
 Gap=     0.124 Goal=   None    Shift=    0.000
 RMSDP=6.69D-06 MaxDP=8.78D-04 DE=-1.76D-05 OVMax= 4.63D-03

 Cycle  11  Pass 1  IDiag  1:
 RMSU=  3.14D-06    CP:  9.96D-01  2.63D+00  8.76D-01  8.27D-01  1.22D+00
                    CP:  1.83D+00  1.77D+00  1.85D+00  1.66D+00  1.59D+00
 E= -2555.88558806799     Delta-E=       -0.000008403507 Rises=F Damp=F
 DIIS: error= 4.27D-05 at cycle  11 NSaved=  11.
 NSaved=11 IEnMin=11 EnMin= -2555.88558806799     IErMin=11 ErrMin= 4.27D-05
 ErrMax= 4.27D-05  0.00D+00 EMaxC= 1.00D-01 BMatC= 3.95D-06 BMatP= 3.73D-06
 IDIUse=1 WtCom= 1.00D+00 WtEn= 0.00D+00
 Coeff-Com:  0.240D-03-0.360D-03-0.893D-04 0.574D-03 0.500D-02 0.291D-01
 Coeff-Com: -0.263D-01-0.118D+00-0.135D+00 0.609D+00 0.636D+00
 Coeff:      0.240D-03-0.360D-03-0.893D-04 0.574D-03 0.500D-02 0.291D-01
 Coeff:     -0.263D-01-0.118D+00-0.135D+00 0.609D+00 0.636D+00
 Gap=     0.363 Goal=   None    Shift=    0.000
 Gap=     0.124 Goal=   None    Shift=    0.000
 RMSDP=4.84D-06 MaxDP=5.08D-04 DE=-8.40D-06 OVMax= 3.43D-03

 Cycle  12  Pass 1  IDiag  1:
 RMSU=  1.40D-06    CP:  9.96D-01  2.63D+00  8.76D-01  8.27D-01  1.22D+00
                    CP:  1.83D+00  1.80D+00  1.95D+00  1.95D+00  2.21D+00
                    CP:  1.62D+00
 E= -2555.88559382168     Delta-E=       -0.000005753686 Rises=F Damp=F
 DIIS: error= 4.75D-05 at cycle  12 NSaved=  12.
 NSaved=12 IEnMin=12 EnMin= -2555.88559382168     IErMin=11 ErrMin= 4.27D-05
 ErrMax= 4.75D-05  0.00D+00 EMaxC= 1.00D-01 BMatC= 1.96D-06 BMatP= 3.73D-06
 IDIUse=1 WtCom= 1.00D+00 WtEn= 0.00D+00
 Coeff-Com:  0.287D-04-0.478D-04-0.847D-03-0.172D-02-0.705D-03 0.113D-01
 Coeff-Com:  0.105D-01 0.681D-02-0.143D+00 0.400D-01-0.388D+00 0.147D+01
 Coeff:      0.287D-04-0.478D-04-0.847D-03-0.172D-02-0.705D-03 0.113D-01
 Coeff:      0.105D-01 0.681D-02-0.143D+00 0.400D-01-0.388D+00 0.147D+01
 Gap=     0.363 Goal=   None    Shift=    0.000
 Gap=     0.124 Goal=   None    Shift=    0.000
 RMSDP=7.80D-06 MaxDP=8.48D-04 DE=-5.75D-06 OVMax= 5.83D-03

 Cycle  13  Pass 1  IDiag  1:
 RMSU=  1.32D-06    CP:  9.96D-01  2.63D+00  8.75D-01  8.27D-01  1.22D+00
                    CP:  1.83D+00  1.84D+00  2.08D+00  2.38D+00  3.00D+00
                    CP:  2.98D+00  2.56D+00
 E= -2555.88560203567     Delta-E=       -0.000008213987 Rises=F Damp=F
 DIIS: error= 4.26D-05 at cycle  13 NSaved=  13.
 NSaved=13 IEnMin=13 EnMin= -2555.88560203567     IErMin=13 ErrMin= 4.26D-05
 ErrMax= 4.26D-05  0.00D+00 EMaxC= 1.00D-01 BMatC= 2.38D-06 BMatP= 1.96D-06
 IDIUse=1 WtCom= 1.00D+00 WtEn= 0.00D+00
 Coeff-Com: -0.505D-04 0.800D-04-0.441D-03-0.124D-02-0.181D-02-0.272D-02
 Coeff-Com:  0.115D-01 0.585D-01-0.894D-01-0.387D-01-0.737D+00 0.127D+01
 Coeff-Com:  0.526D+00
 Coeff:     -0.505D-04 0.800D-04-0.441D-03-0.124D-02-0.181D-02-0.272D-02
 Coeff:      0.115D-01 0.585D-01-0.894D-01-0.387D-01-0.737D+00 0.127D+01
 Coeff:      0.526D+00
 Gap=     0.363 Goal=   None    Shift=    0.000
 Gap=     0.124 Goal=   None    Shift=    0.000
 RMSDP=4.85D-06 MaxDP=5.06D-04 DE=-8.21D-06 OVMax= 3.61D-03

 Cycle  14  Pass 1  IDiag  1:
 RMSU=  3.39D-06    CP:  9.96D-01  2.63D+00  8.75D-01  8.26D-01  1.22D+00
                    CP:  1.84D+00  1.86D+00  2.16D+00  2.63D+00  3.00D+00
                    CP:  3.00D+00  3.00D+00  2.48D+00
 E= -2555.88560700831     Delta-E=       -0.000004972646 Rises=F Damp=F
 DIIS: error= 4.34D-05 at cycle  14 NSaved=  14.
 NSaved=14 IEnMin=14 EnMin= -2555.88560700831     IErMin=13 ErrMin= 4.26D-05
 ErrMax= 4.34D-05  0.00D+00 EMaxC= 1.00D-01 BMatC= 2.00D-06 BMatP= 1.96D-06
 IDIUse=1 WtCom= 1.00D+00 WtEn= 0.00D+00
 Coeff-Com: -0.240D-04 0.446D-04 0.510D-03 0.710D-03-0.186D-03-0.118D-01
 Coeff-Com: -0.802D-02 0.558D-01-0.129D-01 0.163D+00-0.600D+00 0.128D+00
 Coeff-Com: -0.134D+01 0.263D+01
 Coeff:     -0.240D-04 0.446D-04 0.510D-03 0.710D-03-0.186D-03-0.118D-01
 Coeff:     -0.802D-02 0.558D-01-0.129D-01 0.163D+00-0.600D+00 0.128D+00
 Coeff:     -0.134D+01 0.263D+01
 Gap=     0.363 Goal=   None    Shift=    0.000
 Gap=     0.124 Goal=   None    Shift=    0.000
 RMSDP=1.50D-05 MaxDP=1.54D-03 DE=-4.97D-06 OVMax= 1.13D-02

 Cycle  15  Pass 1  IDiag  1:
 RMSU=  8.23D-06    CP:  9.96D-01  2.63D+00  8.75D-01  8.25D-01  1.22D+00
                    CP:  1.85D+00  1.92D+00  2.38D+00  3.00D+00  3.00D+00
                    CP:  3.00D+00  3.00D+00  3.00D+00  3.00D+00
 E= -2555.88562143464     Delta-E=       -0.000014426332 Rises=F Damp=F
 DIIS: error= 3.88D-05 at cycle  15 NSaved=  15.
 NSaved=15 IEnMin=15 EnMin= -2555.88562143464     IErMin=15 ErrMin= 3.88D-05
 ErrMax= 3.88D-05  0.00D+00 EMaxC= 1.00D-01 BMatC= 2.09D-06 BMatP= 1.96D-06
 IDIUse=1 WtCom= 1.00D+00 WtEn= 0.00D+00
 Coeff-Com:  0.574D-04-0.840D-04 0.559D-03 0.155D-02 0.319D-02 0.519D-02
 Coeff-Com: -0.239D-01-0.303D-01-0.340D-01 0.427D+00 0.164D+00-0.501D+00
 Coeff-Com: -0.366D+01 0.334D+01 0.131D+01
 Coeff:      0.574D-04-0.840D-04 0.559D-03 0.155D-02 0.319D-02 0.519D-02
 Coeff:     -0.239D-01-0.303D-01-0.340D-01 0.427D+00 0.164D+00-0.501D+00
 Coeff:     -0.366D+01 0.334D+01 0.131D+01
 Gap=     0.363 Goal=   None    Shift=    0.000
 Gap=     0.124 Goal=   None    Shift=    0.000
 RMSDP=2.23D-05 MaxDP=2.22D-03 DE=-1.44D-05 OVMax= 1.67D-02

 Cycle  16  Pass 1  IDiag  1:
 RMSU=  8.62D-06    CP:  9.96D-01  2.63D+00  8.74D-01  8.24D-01  1.22D+00
                    CP:  1.87D+00  2.01D+00  2.69D+00  3.00D+00  3.00D+00
                    CP:  3.00D+00  3.00D+00  3.00D+00  3.00D+00  3.00D+00
 E= -2555.88564075037     Delta-E=       -0.000019315722 Rises=F Damp=F
 DIIS: error= 3.49D-05 at cycle  16 NSaved=  16.
 NSaved=16 IEnMin=16 EnMin= -2555.88564075037     IErMin=16 ErrMin= 3.49D-05
 ErrMax= 3.49D-05  0.00D+00 EMaxC= 1.00D-01 BMatC= 1.49D-06 BMatP= 1.96D-06
 IDIUse=1 WtCom= 1.00D+00 WtEn= 0.00D+00
 Coeff-Com:  0.113D-03-0.179D-03-0.670D-03-0.973D-03 0.268D-02 0.246D-01
 Coeff-Com: -0.102D-01-0.554D-01-0.120D+00 0.139D+00 0.593D+00 0.522D+00
 Coeff-Com: -0.233D+01 0.448D+00-0.870D+00 0.266D+01
 Coeff:      0.113D-03-0.179D-03-0.670D-03-0.973D-03 0.268D-02 0.246D-01
 Coeff:     -0.102D-01-0.554D-01-0.120D+00 0.139D+00 0.593D+00 0.522D+00
 Coeff:     -0.233D+01 0.448D+00-0.870D+00 0.266D+01
 Gap=     0.362 Goal=   None    Shift=    0.000
 Gap=     0.124 Goal=   None    Shift=    0.000
 RMSDP=4.73D-05 MaxDP=4.61D-03 DE=-1.93D-05 OVMax= 3.55D-02

 Cycle  17  Pass 1  IDiag  1:
 RMSU=  3.57D-05    CP:  9.96D-01  2.63D+00  8.72D-01  8.19D-01  1.23D+00
                    CP:  1.90D+00  2.20D+00  3.00D+00  3.00D+00  3.00D+00
                    CP:  3.00D+00  3.00D+00  3.00D+00  3.00D+00  3.00D+00
                    CP:  3.00D+00
 E= -2555.88567243236     Delta-E=       -0.000031681996 Rises=F Damp=F
 DIIS: error= 2.58D-05 at cycle  17 NSaved=  17.
 NSaved=17 IEnMin=17 EnMin= -2555.88567243236     IErMin=17 ErrMin= 2.58D-05
 ErrMax= 2.58D-05  0.00D+00 EMaxC= 1.00D-01 BMatC= 1.46D-06 BMatP= 1.49D-06
 IDIUse=1 WtCom= 1.00D+00 WtEn= 0.00D+00
 Coeff-Com:  0.687D-04-0.933D-04-0.357D-03-0.131D-02 0.144D-02 0.148D-01
 Coeff-Com: -0.800D-02 0.528D-02-0.742D-01-0.733D-01 0.326D+00 0.520D+00
 Coeff-Com: -0.117D+01 0.635D+00-0.169D+01 0.185D+01 0.671D+00
 Coeff:      0.687D-04-0.933D-04-0.357D-03-0.131D-02 0.144D-02 0.148D-01
 Coeff:     -0.800D-02 0.528D-02-0.742D-01-0.733D-01 0.326D+00 0.520D+00
 Coeff:     -0.117D+01 0.635D+00-0.169D+01 0.185D+01 0.671D+00
 Gap=     0.362 Goal=   None    Shift=    0.000
 Gap=     0.125 Goal=   None    Shift=    0.000
 RMSDP=1.46D-05 MaxDP=1.37D-03 DE=-3.17D-05 OVMax= 1.10D-02

 Cycle  18  Pass 1  IDiag  1:
 RMSU=  5.04D-06    CP:  9.96D-01  2.63D+00  8.71D-01  8.17D-01  1.23D+00
                    CP:  1.91D+00  2.25D+00  3.00D+00  3.00D+00  3.00D+00
                    CP:  3.00D+00  3.00D+00  3.00D+00  3.00D+00  3.00D+00
                    CP:  3.00D+00  1.38D+00
 E= -2555.88567988355     Delta-E=       -0.000007451185 Rises=F Damp=F
 DIIS: error= 2.24D-05 at cycle  18 NSaved=  18.
 NSaved=18 IEnMin=18 EnMin= -2555.88567988355     IErMin=18 ErrMin= 2.24D-05
 ErrMax= 2.24D-05  0.00D+00 EMaxC= 1.00D-01 BMatC= 9.04D-07 BMatP= 1.46D-06
 IDIUse=1 WtCom= 1.00D+00 WtEn= 0.00D+00
 Coeff-Com:  0.139D-03-0.180D-03 0.545D-03 0.261D-05 0.115D-02-0.245D-02
 Coeff-Com: -0.130D-01 0.448D-01 0.136D-01-0.800D-01-0.300D-02-0.387D-01
 Coeff-Com: -0.831D+00 0.173D+01-0.100D+01-0.169D+00-0.160D+00 0.151D+01
 Coeff:      0.139D-03-0.180D-03 0.545D-03 0.261D-05 0.115D-02-0.245D-02
 Coeff:     -0.130D-01 0.448D-01 0.136D-01-0.800D-01-0.300D-02-0.387D-01
 Coeff:     -0.831D+00 0.173D+01-0.100D+01-0.169D+00-0.160D+00 0.151D+01
 Gap=     0.362 Goal=   None    Shift=    0.000
 Gap=     0.124 Goal=   None    Shift=    0.000
 RMSDP=2.24D-05 MaxDP=2.08D-03 DE=-7.45D-06 OVMax= 1.70D-02

 Cycle  19  Pass 1  IDiag  1:
 RMSU=  8.58D-07    CP:  9.96D-01  2.63D+00  8.70D-01  8.13D-01  1.23D+00
                    CP:  1.92D+00  2.33D+00  3.00D+00  3.00D+00  3.00D+00
                    CP:  3.00D+00  3.00D+00  3.00D+00  3.00D+00  3.00D+00
                    CP:  3.00D+00  1.96D+00  2.54D+00
 E= -2555.88568885916     Delta-E=       -0.000008975610 Rises=F Damp=F
 DIIS: error= 1.81D-05 at cycle  19 NSaved=  19.
 NSaved=19 IEnMin=19 EnMin= -2555.88568885916     IErMin=19 ErrMin= 1.81D-05
 ErrMax= 1.81D-05  0.00D+00 EMaxC= 1.00D-01 BMatC= 5.06D-07 BMatP= 9.04D-07
 IDIUse=1 WtCom= 1.00D+00 WtEn= 0.00D+00
 Coeff-Com:  0.898D-04-0.119D-03 0.531D-03 0.954D-03 0.126D-02-0.512D-02
 Coeff-Com: -0.724D-02-0.183D-02 0.159D-01 0.147D+00-0.879D-01-0.286D+00
 Coeff-Com: -0.135D+01 0.159D+01 0.775D+00-0.894D+00-0.979D+00 0.450D+00
 Coeff-Com:  0.164D+01
 Coeff:      0.898D-04-0.119D-03 0.531D-03 0.954D-03 0.126D-02-0.512D-02
 Coeff:     -0.724D-02-0.183D-02 0.159D-01 0.147D+00-0.879D-01-0.286D+00
 Coeff:     -0.135D+01 0.159D+01 0.775D+00-0.894D+00-0.979D+00 0.450D+00
 Coeff:      0.164D+01
 Gap=     0.362 Goal=   None    Shift=    0.000
 Gap=     0.124 Goal=   None    Shift=    0.000
 RMSDP=2.67D-05 MaxDP=2.45D-03 DE=-8.98D-06 OVMax= 2.02D-02

 Cycle  20  Pass 1  IDiag  1:
 RMSU=  7.01D-06    CP:  9.96D-01  2.63D+00  8.68D-01  8.08D-01  1.23D+00
                    CP:  1.94D+00  2.41D+00  3.00D+00  3.00D+00  3.00D+00
                    CP:  3.00D+00  3.00D+00  3.00D+00  3.00D+00  3.00D+00
                    CP:  3.00D+00  2.65D+00  3.00D+00  3.00D+00
 E= -2555.88569585063     Delta-E=       -0.000006991471 Rises=F Damp=F
 DIIS: error= 1.17D-05 at cycle  20 NSaved=  20.
 NSaved=20 IEnMin=20 EnMin= -2555.88569585063     IErMin=20 ErrMin= 1.17D-05
 ErrMax= 1.17D-05  0.00D+00 EMaxC= 1.00D-01 BMatC= 4.03D-07 BMatP= 5.06D-07
 IDIUse=1 WtCom= 1.00D+00 WtEn= 0.00D+00
 Coeff-Com:  0.476D-04-0.622D-04 0.361D-03 0.832D-03 0.110D-02-0.361D-02
 Coeff-Com: -0.463D-02-0.112D-01 0.638D-02 0.175D+00-0.808D-01-0.253D+00
 Coeff-Com: -0.133D+01 0.139D+01 0.975D+00-0.804D+00-0.877D+00-0.220D-01
 Coeff-Com:  0.141D+01 0.425D+00
 Coeff:      0.476D-04-0.622D-04 0.361D-03 0.832D-03 0.110D-02-0.361D-02
 Coeff:     -0.463D-02-0.112D-01 0.638D-02 0.175D+00-0.808D-01-0.253D+00
 Coeff:     -0.133D+01 0.139D+01 0.975D+00-0.804D+00-0.877D+00-0.220D-01
 Coeff:      0.141D+01 0.425D+00
 Gap=     0.362 Goal=   None    Shift=    0.000
 Gap=     0.124 Goal=   None    Shift=    0.000
 RMSDP=2.79D-06 MaxDP=2.32D-04 DE=-6.99D-06 OVMax= 1.88D-03

 Cycle  21  Pass 1  IDiag  1:
 Restarting incremental Fock formation.
 E= -2555.88569652231     Delta-E=       -0.000000671685 Rises=F Damp=F
 DIIS: error= 1.23D-05 at cycle  21 NSaved=  20.
 NSaved=20 IEnMin=20 EnMin= -2555.88569652231     IErMin=19 ErrMin= 1.17D-05
 ErrMax= 1.23D-05  0.00D+00 EMaxC= 1.00D-01 BMatC= 1.97D-07 BMatP= 4.03D-07
 IDIUse=1 WtCom= 1.00D+00 WtEn= 0.00D+00
 Coeff-Com: -0.560D-05-0.189D-03-0.126D-03 0.463D-03 0.215D-02 0.238D-02
 Coeff-Com: -0.160D-01-0.278D-01 0.723D-01-0.279D-01 0.236D+00-0.685D+00
 Coeff-Com:  0.218D+00 0.576D-01 0.180D+00 0.165D+00-0.577D+00 0.418D+00
 Coeff-Com: -0.241D+00 0.122D+01
 Coeff:     -0.560D-05-0.189D-03-0.126D-03 0.463D-03 0.215D-02 0.238D-02
 Coeff:     -0.160D-01-0.278D-01 0.723D-01-0.279D-01 0.236D+00-0.685D+00
 Coeff:      0.218D+00 0.576D-01 0.180D+00 0.165D+00-0.577D+00 0.418D+00
 Coeff:     -0.241D+00 0.122D+01
 Gap=     0.362 Goal=   None    Shift=    0.000
 Gap=     0.125 Goal=   None    Shift=    0.000
 RMSDP=1.35D-05 MaxDP=1.22D-03 DE=-6.72D-07 OVMax= 1.01D-02

 Cycle  22  Pass 1  IDiag  1:
 RMSU=  1.35D-05    CP:  1.00D+00
 E= -2555.88569827197     Delta-E=       -0.000001749652 Rises=F Damp=F
 DIIS: error= 1.19D-05 at cycle  22 NSaved=  20.
 NSaved=20 IEnMin=20 EnMin= -2555.88569827197     IErMin=18 ErrMin= 1.17D-05
 ErrMax= 1.19D-05  0.00D+00 EMaxC= 1.00D-01 BMatC= 7.64D-07 BMatP= 1.97D-07
 IDIUse=1 WtCom= 1.00D+00 WtEn= 0.00D+00
 Coeff-Com: -0.667D-04-0.109D-03 0.338D-03 0.256D-03 0.125D-02-0.171D-02
 Coeff-Com: -0.149D-01 0.190D-01-0.603D-01 0.212D+00-0.457D+00 0.340D+00
 Coeff-Com: -0.211D+00 0.892D-01 0.371D+00-0.373D+00 0.105D+00-0.110D+01
 Coeff-Com:  0.160D+01 0.478D+00
 Coeff:     -0.667D-04-0.109D-03 0.338D-03 0.256D-03 0.125D-02-0.171D-02
 Coeff:     -0.149D-01 0.190D-01-0.603D-01 0.212D+00-0.457D+00 0.340D+00
 Coeff:     -0.211D+00 0.892D-01 0.371D+00-0.373D+00 0.105D+00-0.110D+01
 Coeff:      0.160D+01 0.478D+00
 Gap=     0.362 Goal=   None    Shift=    0.000
 Gap=     0.124 Goal=   None    Shift=    0.000
 RMSDP=1.48D-06 MaxDP=1.63D-04 DE=-1.75D-06 OVMax= 9.88D-04

 Cycle  23  Pass 1  IDiag  1:
 RMSU=  1.17D-06    CP:  1.00D+00  1.07D+00
 E= -2555.88569870523     Delta-E=       -0.000000433268 Rises=F Damp=F
 DIIS: error= 9.30D-06 at cycle  23 NSaved=  20.
 NSaved=20 IEnMin=20 EnMin= -2555.88569870523     IErMin=20 ErrMin= 9.30D-06
 ErrMax= 9.30D-06  0.00D+00 EMaxC= 1.00D-01 BMatC= 4.01D-07 BMatP= 1.97D-07
 IDIUse=1 WtCom= 1.00D+00 WtEn= 0.00D+00
 Coeff-Com: -0.208D-04 0.326D-03-0.746D-03 0.836D-03 0.147D-02-0.908D-02
 Coeff-Com:  0.154D-01-0.836D-01 0.187D+00-0.423D+00 0.410D+00-0.217D+00
 Coeff-Com: -0.152D-01 0.362D+00-0.281D+00 0.179D+00-0.117D+01 0.142D+01
 Coeff-Com:  0.175D+00 0.448D+00
 Coeff:     -0.208D-04 0.326D-03-0.746D-03 0.836D-03 0.147D-02-0.908D-02
 Coeff:      0.154D-01-0.836D-01 0.187D+00-0.423D+00 0.410D+00-0.217D+00
 Coeff:     -0.152D-01 0.362D+00-0.281D+00 0.179D+00-0.117D+01 0.142D+01
 Coeff:      0.175D+00 0.448D+00
 Gap=     0.362 Goal=   None    Shift=    0.000
 Gap=     0.124 Goal=   None    Shift=    0.000
 RMSDP=5.96D-07 MaxDP=7.12D-05 DE=-4.33D-07 OVMax= 4.25D-04

 Cycle  24  Pass 1  IDiag  1:
 RMSU=  1.39D-07    CP:  1.00D+00  1.09D+00  1.38D+00
 E= -2555.88569884829     Delta-E=       -0.000000143053 Rises=F Damp=F
 DIIS: error= 9.21D-06 at cycle  24 NSaved=  20.
 NSaved=20 IEnMin=20 EnMin= -2555.88569884829     IErMin=20 ErrMin= 9.21D-06
 ErrMax= 9.21D-06  0.00D+00 EMaxC= 1.00D-01 BMatC= 3.86D-07 BMatP= 1.97D-07
 IDIUse=1 WtCom= 1.00D+00 WtEn= 0.00D+00
 Coeff-Com:  0.245D-03-0.114D-02 0.133D-02 0.755D-03-0.782D-02 0.244D-01
 Coeff-Com: -0.106D+00 0.173D+00-0.427D+00 0.440D+00-0.133D+00-0.131D+00
 Coeff-Com:  0.304D+00-0.252D+00 0.348D+00-0.989D+00 0.108D+01-0.230D+00
 Coeff-Com: -0.136D+01 0.226D+01
 Coeff:      0.245D-03-0.114D-02 0.133D-02 0.755D-03-0.782D-02 0.244D-01
 Coeff:     -0.106D+00 0.173D+00-0.427D+00 0.440D+00-0.133D+00-0.131D+00
 Coeff:      0.304D+00-0.252D+00 0.348D+00-0.989D+00 0.108D+01-0.230D+00
 Coeff:     -0.136D+01 0.226D+01
 Gap=     0.362 Goal=   None    Shift=    0.000
 Gap=     0.124 Goal=   None    Shift=    0.000
 RMSDP=1.61D-06 MaxDP=1.96D-04 DE=-1.43D-07 OVMax= 1.17D-03

 Cycle  25  Pass 1  IDiag  1:
 RMSU=  1.92D-07    CP:  1.00D+00  1.17D+00  2.40D+00  3.00D+00
 E= -2555.88569921950     Delta-E=       -0.000000371212 Rises=F Damp=F
 DIIS: error= 9.31D-06 at cycle  25 NSaved=  20.
 NSaved=20 IEnMin=20 EnMin= -2555.88569921950     IErMin=19 ErrMin= 9.21D-06
 ErrMax= 9.31D-06  0.00D+00 EMaxC= 1.00D-01 BMatC= 4.08D-07 BMatP= 1.97D-07
 IDIUse=1 WtCom= 1.00D+00 WtEn= 0.00D+00
 Coeff-Com: -0.235D-02 0.218D-02 0.352D-02-0.562D-02 0.264D-01-0.131D+00
 Coeff-Com:  0.173D+00-0.425D+00 0.442D+00-0.638D-01-0.170D+00 0.258D+00
 Coeff-Com: -0.290D+00 0.412D+00-0.851D+00 0.102D+01-0.306D+00-0.262D+01
 Coeff-Com:  0.238D+01 0.114D+01
 Coeff:     -0.235D-02 0.218D-02 0.352D-02-0.562D-02 0.264D-01-0.131D+00
 Coeff:      0.173D+00-0.425D+00 0.442D+00-0.638D-01-0.170D+00 0.258D+00
 Coeff:     -0.290D+00 0.412D+00-0.851D+00 0.102D+01-0.306D+00-0.262D+01
 Coeff:      0.238D+01 0.114D+01
 Gap=     0.362 Goal=   None    Shift=    0.000
 Gap=     0.124 Goal=   None    Shift=    0.000
 RMSDP=2.22D-06 MaxDP=2.75D-04 DE=-3.71D-07 OVMax= 1.68D-03

 Cycle  26  Pass 1  IDiag  1:
 RMSU=  1.17D-06    CP:  1.00D+00  1.25D+00  3.00D+00  3.00D+00  3.00D+00
 E= -2555.88569975529     Delta-E=       -0.000000535789 Rises=F Damp=F
 DIIS: error= 9.19D-06 at cycle  26 NSaved=  20.
 NSaved=20 IEnMin=20 EnMin= -2555.88569975529     IErMin=20 ErrMin= 9.19D-06
 ErrMax= 9.19D-06  0.00D+00 EMaxC= 1.00D-01 BMatC= 3.88D-07 BMatP= 1.97D-07
 IDIUse=1 WtCom= 1.00D+00 WtEn= 0.00D+00
 Coeff-Com:  0.261D-02-0.152D-02-0.133D-01 0.169D-01-0.874D-01 0.226D+00
 Coeff-Com: -0.412D+00 0.333D+00-0.195D+00-0.577D-02 0.364D+00-0.325D+00
 Coeff-Com:  0.240D+00-0.948D+00 0.125D+01 0.198D+00-0.703D+00 0.310D+00
 Coeff-Com: -0.410D+01 0.485D+01
 Coeff:      0.261D-02-0.152D-02-0.133D-01 0.169D-01-0.874D-01 0.226D+00
 Coeff:     -0.412D+00 0.333D+00-0.195D+00-0.577D-02 0.364D+00-0.325D+00
 Coeff:      0.240D+00-0.948D+00 0.125D+01 0.198D+00-0.703D+00 0.310D+00
 Coeff:     -0.410D+01 0.485D+01
 Gap=     0.362 Goal=   None    Shift=    0.000
 Gap=     0.124 Goal=   None    Shift=    0.000
 RMSDP=8.20D-06 MaxDP=1.01D-03 DE=-5.36D-07 OVMax= 6.25D-03

 Cycle  27  Pass 1  IDiag  1:
 RMSU=  5.02D-06    CP:  1.00D+00  1.52D+00  3.00D+00  3.00D+00  3.00D+00
                    CP:  3.00D+00
 E= -2555.88570168868     Delta-E=       -0.000001933390 Rises=F Damp=F
 DIIS: error= 9.44D-06 at cycle  27 NSaved=  20.
 NSaved=20 IEnMin=20 EnMin= -2555.88570168868     IErMin=19 ErrMin= 9.19D-06
 ErrMax= 9.44D-06  0.00D+00 EMaxC= 1.00D-01 BMatC= 4.41D-07 BMatP= 1.97D-07
 IDIUse=1 WtCom= 1.00D+00 WtEn= 0.00D+00
 Coeff-Com: -0.349D-02-0.577D-02 0.318D-01-0.644D-01 0.173D+00-0.511D+00
 Coeff-Com:  0.433D+00-0.161D+00-0.181D-01 0.372D+00-0.323D+00 0.220D+00
 Coeff-Com: -0.107D+01 0.129D+01 0.153D+00 0.794D+00 0.786D+00-0.613D+01
 Coeff-Com:  0.389D+01 0.114D+01
 Coeff:     -0.349D-02-0.577D-02 0.318D-01-0.644D-01 0.173D+00-0.511D+00
 Coeff:      0.433D+00-0.161D+00-0.181D-01 0.372D+00-0.323D+00 0.220D+00
 Coeff:     -0.107D+01 0.129D+01 0.153D+00 0.794D+00 0.786D+00-0.613D+01
 Coeff:      0.389D+01 0.114D+01
 Gap=     0.362 Goal=   None    Shift=    0.000
 Gap=     0.124 Goal=   None    Shift=    0.000
 RMSDP=6.50D-06 MaxDP=8.00D-04 DE=-1.93D-06 OVMax= 5.01D-03

 Cycle  28  Pass 1  IDiag  1:
 RMSU=  4.31D-07    CP:  1.00D+00  1.69D+00  3.00D+00  3.00D+00  3.00D+00
                    CP:  3.00D+00  2.21D+00
 E= -2555.88570323149     Delta-E=       -0.000001542814 Rises=F Damp=F
 DIIS: error= 9.27D-06 at cycle  28 NSaved=  20.
 NSaved=20 IEnMin=20 EnMin= -2555.88570323149     IErMin=18 ErrMin= 9.19D-06
 ErrMax= 9.27D-06  0.00D+00 EMaxC= 1.00D-01 BMatC= 4.07D-07 BMatP= 1.97D-07
 IDIUse=1 WtCom= 1.00D+00 WtEn= 0.00D+00
 Coeff-Com: -0.282D-02 0.179D-01-0.863D-01 0.191D+00-0.459D+00 0.443D+00
 Coeff-Com: -0.192D+00-0.694D-01 0.377D+00-0.278D+00 0.248D+00-0.110D+01
 Coeff-Com:  0.120D+01 0.237D-01 0.888D+00 0.150D+01-0.594D+01 0.266D+01
 Coeff-Com:  0.817D+00 0.766D+00
 Coeff:     -0.282D-02 0.179D-01-0.863D-01 0.191D+00-0.459D+00 0.443D+00
 Coeff:     -0.192D+00-0.694D-01 0.377D+00-0.278D+00 0.248D+00-0.110D+01
 Coeff:      0.120D+01 0.237D-01 0.888D+00 0.150D+01-0.594D+01 0.266D+01
 Coeff:      0.817D+00 0.766D+00
 Gap=     0.362 Goal=   None    Shift=    0.000
 Gap=     0.124 Goal=   None    Shift=    0.000
 RMSDP=6.21D-06 MaxDP=7.61D-04 DE=-1.54D-06 OVMax= 4.79D-03

 Cycle  29  Pass 1  IDiag  1:
 RMSU=  1.80D-06    CP:  1.00D+00  1.85D+00  3.00D+00  3.00D+00  3.00D+00
                    CP:  3.00D+00  3.00D+00  1.92D+00
 E= -2555.88570469539     Delta-E=       -0.000001463899 Rises=F Damp=F
 DIIS: error= 9.22D-06 at cycle  29 NSaved=  20.
 NSaved=20 IEnMin=20 EnMin= -2555.88570469539     IErMin=17 ErrMin= 9.19D-06
 ErrMax= 9.22D-06  0.00D+00 EMaxC= 1.00D-01 BMatC= 3.91D-07 BMatP= 1.97D-07
 IDIUse=1 WtCom= 1.00D+00 WtEn= 0.00D+00
 Coeff-Com:  0.189D-01-0.911D-01 0.172D+00-0.462D+00 0.480D+00-0.174D+00
 Coeff-Com: -0.115D+00 0.356D+00-0.243D+00 0.278D+00-0.114D+01 0.118D+01
 Coeff-Com: -0.552D-01 0.110D+01 0.167D+01-0.638D+01 0.249D+01 0.113D+01
 Coeff-Com:  0.132D+01-0.529D+00
 Coeff:      0.189D-01-0.911D-01 0.172D+00-0.462D+00 0.480D+00-0.174D+00
 Coeff:     -0.115D+00 0.356D+00-0.243D+00 0.278D+00-0.114D+01 0.118D+01
 Coeff:     -0.552D-01 0.110D+01 0.167D+01-0.638D+01 0.249D+01 0.113D+01
 Coeff:      0.132D+01-0.529D+00
 Gap=     0.362 Goal=   None    Shift=    0.000
 Gap=     0.124 Goal=   None    Shift=    0.000
 RMSDP=3.94D-07 MaxDP=3.99D-05 DE=-1.46D-06 OVMax= 2.15D-04

 Cycle  30  Pass 1  IDiag  1:
 RMSU=  8.19D-08    CP:  1.00D+00  1.87D+00  3.00D+00  3.00D+00  3.00D+00
                    CP:  3.00D+00  3.00D+00  1.90D+00  8.11D-01
 E= -2555.88570463701     Delta-E=        0.000000058381 Rises=F Damp=F
 DIIS: error= 9.28D-06 at cycle  30 NSaved=  20.
 NSaved=20 IEnMin=19 EnMin= -2555.88570469539     IErMin=16 ErrMin= 9.19D-06
 ErrMax= 9.28D-06  0.00D+00 EMaxC= 1.00D-01 BMatC= 3.94D-07 BMatP= 1.97D-07
 IDIUse=1 WtCom= 1.00D+00 WtEn= 0.00D+00
 Coeff-Com: -0.974D-01 0.216D+00-0.372D+00 0.390D+00-0.257D+00-0.748D-01
 Coeff-Com:  0.409D+00-0.242D+00 0.233D+00-0.124D+01 0.124D+01-0.225D-01
 Coeff-Com:  0.174D+01 0.166D+01-0.732D+01 0.270D+01 0.120D+01 0.102D+01
 Coeff-Com:  0.431D+00-0.600D+00
 Coeff:     -0.974D-01 0.216D+00-0.372D+00 0.390D+00-0.257D+00-0.748D-01
 Coeff:      0.409D+00-0.242D+00 0.233D+00-0.124D+01 0.124D+01-0.225D-01
 Coeff:      0.174D+01 0.166D+01-0.732D+01 0.270D+01 0.120D+01 0.102D+01
 Coeff:      0.431D+00-0.600D+00
 Gap=     0.362 Goal=   None    Shift=    0.000
 Gap=     0.124 Goal=   None    Shift=    0.000
 RMSDP=4.58D-06 MaxDP=5.37D-04 DE= 5.84D-08 OVMax= 3.22D-03

 Cycle  31  Pass 1  IDiag  1:
 RMSU=  1.29D-07    CP:  1.00D+00  2.11D+00  3.00D+00  3.00D+00  3.00D+00
                    CP:  3.00D+00  3.00D+00  2.43D+00  2.61D+00  9.30D-01
 E= -2555.88570560539     Delta-E=       -0.000000968378 Rises=F Damp=F
 DIIS: error= 9.87D-06 at cycle  31 NSaved=  20.
 NSaved=20 IEnMin=20 EnMin= -2555.88570560539     IErMin=15 ErrMin= 9.19D-06
 ErrMax= 9.87D-06  0.00D+00 EMaxC= 1.00D-01 BMatC= 4.96D-07 BMatP= 1.97D-07
 IDIUse=1 WtCom= 1.00D+00 WtEn= 0.00D+00
 Coeff-Com:  0.168D+00-0.504D+00 0.417D+00-0.304D+00 0.147D+00 0.313D+00
 Coeff-Com: -0.219D+00 0.104D+00-0.122D+01 0.161D+01 0.106D+00 0.246D+00
 Coeff-Com:  0.685D-01-0.500D+01 0.499D+01 0.498D+00-0.214D+01 0.750D+01
 Coeff-Com: -0.872D+01 0.294D+01
 Coeff:      0.168D+00-0.504D+00 0.417D+00-0.304D+00 0.147D+00 0.313D+00
 Coeff:     -0.219D+00 0.104D+00-0.122D+01 0.161D+01 0.106D+00 0.246D+00
 Coeff:      0.685D-01-0.500D+01 0.499D+01 0.498D+00-0.214D+01 0.750D+01
 Coeff:     -0.872D+01 0.294D+01
 Gap=     0.362 Goal=   None    Shift=    0.000
 Gap=     0.124 Goal=   None    Shift=    0.000
 RMSDP=4.46D-06 MaxDP=4.03D-04 DE=-9.68D-07 OVMax= 3.01D-03

 Cycle  32  Pass 1  IDiag  1:
 RMSU=  3.62D-06    CP:  1.00D+00  2.04D+00  3.00D+00  3.00D+00  3.00D+00
                    CP:  3.00D+00  3.00D+00  3.00D+00  3.00D+00 -3.00D+00
                    CP:  5.39D-01
 E= -2555.88570652716     Delta-E=       -0.000000921774 Rises=F Damp=F
 DIIS: error= 8.85D-06 at cycle  32 NSaved=  20.
 NSaved=20 IEnMin=20 EnMin= -2555.88570652716     IErMin=20 ErrMin= 8.85D-06
 ErrMax= 8.85D-06  0.00D+00 EMaxC= 1.00D-01 BMatC= 3.26D-07 BMatP= 1.97D-07
 IDIUse=1 WtCom= 1.00D+00 WtEn= 0.00D+00
 Large coefficients: NSaved= 20 BigCof=   11.50 CofMax=   10.00 Det=-2.80D-11
 Inversion failed.  Reducing to 19 matrices.
 Large coefficients: NSaved= 19 BigCof=   13.47 CofMax=   10.00 Det=-2.81D-11
 Inversion failed.  Reducing to 18 matrices.
 Large coefficients: NSaved= 18 BigCof=   14.65 CofMax=   10.00 Det=-2.92D-11
 Inversion failed.  Reducing to 17 matrices.
 Large coefficients: NSaved= 17 BigCof=   16.33 CofMax=   10.00 Det=-2.93D-11
 Inversion failed.  Reducing to 16 matrices.
 Large coefficients: NSaved= 16 BigCof=   17.51 CofMax=   10.00 Det=-2.94D-11
 Inversion failed.  Reducing to 15 matrices.
 Large coefficients: NSaved= 15 BigCof=   18.35 CofMax=   10.00 Det=-3.29D-11
 Inversion failed.  Reducing to 14 matrices.
 Large coefficients: NSaved= 14 BigCof=   18.87 CofMax=   10.00 Det=-3.34D-11
 Inversion failed.  Reducing to 13 matrices.
 Large coefficients: NSaved= 13 BigCof=   18.42 CofMax=   10.00 Det=-3.35D-11
 Inversion failed.  Reducing to 12 matrices.
 Large coefficients: NSaved= 12 BigCof=   22.78 CofMax=   10.00 Det=-3.48D-11
 Inversion failed.  Reducing to 11 matrices.
 Large coefficients: NSaved= 11 BigCof=   18.98 CofMax=   10.00 Det=-3.53D-11
 Inversion failed.  Reducing to 10 matrices.
 Large coefficients: NSaved= 10 BigCof=   14.65 CofMax=   10.00 Det=-3.64D-11
 Inversion failed.  Reducing to  9 matrices.
 Large coefficients: NSaved=  9 BigCof=   12.21 CofMax=   10.00 Det=-3.99D-11
 Inversion failed.  Reducing to  8 matrices.
 Large coefficients: NSaved=  8 BigCof=   13.20 CofMax=   10.00 Det=-4.02D-11
 Inversion failed.  Reducing to  7 matrices.
 Large coefficients: NSaved=  7 BigCof=   16.40 CofMax=   10.00 Det=-4.27D-11
 Inversion failed.  Reducing to  6 matrices.
 Coeff-Com: -0.135D+01-0.186D+01 0.216D+01 0.151D+01-0.103D+01 0.157D+01
 Coeff:     -0.135D+01-0.186D+01 0.216D+01 0.151D+01-0.103D+01 0.157D+01
 Gap=     0.362 Goal=   None    Shift=    0.000
 Gap=     0.124 Goal=   None    Shift=    0.000
 RMSDP=2.95D-05 MaxDP=3.52D-03 DE=-9.22D-07 OVMax= 2.27D-02

 Cycle  33  Pass 1  IDiag  1:
 RMSU=  2.10D-05    CP:  1.00D+00  2.71D+00  3.00D+00  3.00D+00  3.00D+00
                    CP:  3.00D+00  3.00D+00  3.00D+00  3.00D+00 -3.00D+00
                    CP:  3.00D+00  3.00D+00
 E= -2555.88571341850     Delta-E=       -0.000006891341 Rises=F Damp=F
 DIIS: error= 1.44D-05 at cycle  33 NSaved=   7.
 NSaved= 7 IEnMin= 7 EnMin= -2555.88571341850     IErMin= 6 ErrMin= 8.85D-06
 ErrMax= 1.44D-05  0.00D+00 EMaxC= 1.00D-01 BMatC= 3.10D-07 BMatP= 3.26D-07
 IDIUse=1 WtCom= 1.00D+00 WtEn= 0.00D+00
 Coeff-Com:  0.322D+00 0.238D+00 0.369D+01-0.437D+01-0.969D+00 0.150D+01
 Coeff-Com:  0.586D+00
 Coeff:      0.322D+00 0.238D+00 0.369D+01-0.437D+01-0.969D+00 0.150D+01
 Coeff:      0.586D+00
 Gap=     0.362 Goal=   None    Shift=    0.000
 Gap=     0.124 Goal=   None    Shift=    0.000
 RMSDP=1.15D-05 MaxDP=1.37D-03 DE=-6.89D-06 OVMax= 8.20D-03

 Cycle  34  Pass 1  IDiag  1:
 RMSU=  1.20D-06    CP:  1.00D+00  2.23D+00  3.00D+00  3.00D+00  3.00D+00
                    CP:  3.00D+00  3.00D+00  3.00D+00  3.00D+00 -3.00D+00
                    CP:  2.00D+00  3.00D+00  5.50D-01
 E= -2555.88571084520     Delta-E=        0.000002573300 Rises=F Damp=F
 DIIS: error= 1.05D-05 at cycle  34 NSaved=   8.
 NSaved= 8 IEnMin= 7 EnMin= -2555.88571341850     IErMin= 6 ErrMin= 8.85D-06
 ErrMax= 1.05D-05  0.00D+00 EMaxC= 1.00D-01 BMatC= 2.14D-07 BMatP= 3.10D-07
 IDIUse=1 WtCom= 1.00D+00 WtEn= 0.00D+00
 Coeff-Com:  0.703D+00 0.305D+00 0.340D+01-0.502D+01-0.517D+00 0.129D+01
 Coeff-Com:  0.569D+00 0.266D+00
 Coeff:      0.703D+00 0.305D+00 0.340D+01-0.502D+01-0.517D+00 0.129D+01
 Coeff:      0.569D+00 0.266D+00
 Gap=     0.362 Goal=   None    Shift=    0.000
 Gap=     0.124 Goal=   None    Shift=    0.000
 RMSDP=1.57D-06 MaxDP=1.71D-04 DE= 2.57D-06 OVMax= 1.17D-03

 Cycle  35  Pass 1  IDiag  1:
 RMSU=  2.12D-07    CP:  1.00D+00  2.24D+00  3.00D+00  3.00D+00  3.00D+00
                    CP:  3.00D+00  3.00D+00  3.00D+00  3.00D+00 -3.00D+00
                    CP:  1.59D+00  3.00D+00  6.17D-01  1.53D+00
 E= -2555.88571119344     Delta-E=       -0.000000348234 Rises=F Damp=F
 DIIS: error= 1.06D-05 at cycle  35 NSaved=   9.
 NSaved= 9 IEnMin= 7 EnMin= -2555.88571341850     IErMin= 6 ErrMin= 8.85D-06
 ErrMax= 1.06D-05  0.00D+00 EMaxC= 1.00D-01 BMatC= 2.12D-07 BMatP= 2.14D-07
 IDIUse=1 WtCom= 1.00D+00 WtEn= 0.00D+00
 Coeff-Com:  0.394D+00 0.321D+00 0.408D+01-0.435D+01-0.180D+01 0.209D+01
 Coeff-Com:  0.611D+00 0.190D+01-0.225D+01
 Coeff:      0.394D+00 0.321D+00 0.408D+01-0.435D+01-0.180D+01 0.209D+01
 Coeff:      0.611D+00 0.190D+01-0.225D+01
 Gap=     0.362 Goal=   None    Shift=    0.000
 Gap=     0.124 Goal=   None    Shift=    0.000
 RMSDP=1.31D-05 MaxDP=1.51D-03 DE=-3.48D-07 OVMax= 1.03D-02

 Cycle  36  Pass 1  IDiag  1:
 RMSU=  2.33D-07    CP:  1.00D+00  1.95D+00  3.00D+00  3.00D+00  3.00D+00
                    CP:  3.00D+00  3.00D+00  3.00D+00  3.00D+00 -3.00D+00
                    CP:  1.50D+00  3.00D+00  3.54D-02 -7.30D-01 -2.70D+00
 E= -2555.88570806798     Delta-E=        0.000003125457 Rises=F Damp=F
 DIIS: error= 1.02D-05 at cycle  36 NSaved=  10.
 NSaved=10 IEnMin= 7 EnMin= -2555.88571341850     IErMin= 6 ErrMin= 8.85D-06
 ErrMax= 1.02D-05  0.00D+00 EMaxC= 1.00D-01 BMatC= 2.03D-07 BMatP= 2.12D-07
 IDIUse=1 WtCom= 1.00D+00 WtEn= 0.00D+00
 Large coefficients: NSaved= 10 BigCof=   10.35 CofMax=   10.00 Det=-7.84D-11
 Inversion failed.  Reducing to  9 matrices.
 Large coefficients: NSaved=  9 BigCof=   10.53 CofMax=   10.00 Det=-8.87D-11
 Inversion failed.  Reducing to  8 matrices.
 Large coefficients: NSaved=  8 BigCof=   10.19 CofMax=   10.00 Det=-1.05D-10
 Inversion failed.  Reducing to  7 matrices.
 Large coefficients: NSaved=  7 BigCof=   11.39 CofMax=   10.00 Det=-1.09D-10
 Inversion failed.  Reducing to  6 matrices.
 Coeff-Com: -0.280D+01 0.429D+01 0.567D+00 0.450D+01-0.949D+01 0.394D+01
 Coeff:     -0.280D+01 0.429D+01 0.567D+00 0.450D+01-0.949D+01 0.394D+01
 Gap=     0.362 Goal=   None    Shift=    0.000
 Gap=     0.124 Goal=   None    Shift=    0.000
 RMSDP=5.82D-05 MaxDP=6.60D-03 DE= 3.13D-06 OVMax= 4.54D-02

 Cycle  37  Pass 1  IDiag  1:
 RMSU=  8.43D-06    CP:  1.00D+00  8.53D-01 -3.00D+00 -3.00D+00 -3.00D+00
                    CP: -3.00D+00 -1.72D+00  6.81D-01 -2.58D-01  3.00D+00
                    CP:  3.00D+00 -4.84D-01  1.09D-01 -3.00D+00 -3.00D+00
                    CP: -5.08D-01
 E= -2555.88569422948     Delta-E=        0.000013838505 Rises=F Damp=F
 DIIS: error= 2.01D-05 at cycle  37 NSaved=   7.
 NSaved= 7 IEnMin= 3 EnMin= -2555.88571341850     IErMin= 2 ErrMin= 8.85D-06
 ErrMax= 2.01D-05  0.00D+00 EMaxC= 1.00D-01 BMatC= 9.82D-07 BMatP= 2.03D-07
 IDIUse=1 WtCom= 1.00D+00 WtEn= 0.00D+00
 Coeff-Com: -0.204D+01 0.326D+01 0.600D+00 0.412D+01-0.771D+01 0.295D+01
 Coeff-Com: -0.179D+00
 Coeff:     -0.204D+01 0.326D+01 0.600D+00 0.412D+01-0.771D+01 0.295D+01
 Coeff:     -0.179D+00
 Gap=     0.362 Goal=   None    Shift=    0.000
 Gap=     0.124 Goal=   None    Shift=    0.000
 RMSDP=2.88D-05 MaxDP=3.35D-03 DE= 1.38D-05 OVMax= 2.26D-02

 Cycle  38  Pass 1  IDiag  1:
 RMSU=  6.64D-07    CP:  1.00D+00  1.52D+00  3.00D+00  3.00D+00  3.00D+00
                    CP:  3.00D+00  8.05D-01 -2.34D-01 -1.31D-01  3.00D+00
                    CP:  3.00D+00 -2.30D-01  5.16D-02 -3.00D+00 -3.00D+00
                    CP: -4.43D-01  2.57D-01
 E= -2555.88570120487     Delta-E=       -0.000006975395 Rises=F Damp=F
 DIIS: error= 1.28D-05 at cycle  38 NSaved=   8.
 NSaved= 8 IEnMin= 3 EnMin= -2555.88571341850     IErMin= 2 ErrMin= 8.85D-06
 ErrMax= 1.28D-05  0.00D+00 EMaxC= 1.00D-01 BMatC= 4.74D-07 BMatP= 2.03D-07
 IDIUse=1 WtCom= 1.00D+00 WtEn= 0.00D+00
 Coeff-Com: -0.139D+01 0.239D+01 0.573D+00 0.522D+01-0.956D+01 0.342D+01
 Coeff-Com: -0.113D+01 0.148D+01
 Coeff:     -0.139D+01 0.239D+01 0.573D+00 0.522D+01-0.956D+01 0.342D+01
 Coeff:     -0.113D+01 0.148D+01
 Gap=     0.362 Goal=   None    Shift=    0.000
 Gap=     0.125 Goal=   None    Shift=    0.000
 RMSDP=3.21D-06 MaxDP=3.49D-04 DE=-6.98D-06 OVMax= 1.99D-03

 Cycle  39  Pass 1  IDiag  1:
 RMSU=  3.74D-07    CP:  1.00D+00  1.68D+00  3.00D+00  3.00D+00  3.00D+00
                    CP:  3.00D+00  5.30D-01 -6.73D-01 -1.70D-01  3.00D+00
                    CP:  3.00D+00 -3.00D-01  6.77D-02 -3.00D+00 -3.00D+00
                    CP: -4.09D-01  4.62D-01  6.32D-01
 E= -2555.88570079143     Delta-E=        0.000000413445 Rises=F Damp=F
 DIIS: error= 2.08D-05 at cycle  39 NSaved=   9.
 NSaved= 9 IEnMin= 3 EnMin= -2555.88571341850     IErMin= 2 ErrMin= 8.85D-06
 ErrMax= 2.08D-05  0.00D+00 EMaxC= 1.00D-01 BMatC= 1.08D-06 BMatP= 2.03D-07
 IDIUse=1 WtCom= 1.00D+00 WtEn= 0.00D+00
 Coeff-Com: -0.152D+01 0.256D+01 0.578D+00 0.520D+01-0.986D+01 0.362D+01
 Coeff-Com: -0.964D+00 0.156D+01-0.188D+00
 Coeff:     -0.152D+01 0.256D+01 0.578D+00 0.520D+01-0.986D+01 0.362D+01
 Coeff:     -0.964D+00 0.156D+01-0.188D+00
 Gap=     0.362 Goal=   None    Shift=    0.000
 Gap=     0.125 Goal=   None    Shift=    0.000
 RMSDP=1.02D-05 MaxDP=1.20D-03 DE= 4.13D-07 OVMax= 7.98D-03

 Cycle  40  Pass 1  IDiag  1:
 RMSU=  4.12D-07    CP:  1.00D+00  1.42D+00  1.21D+00 -3.00D+00 -3.00D+00
                    CP: -1.56D-01 -7.47D-02 -2.60D+00 -2.11D-01  3.00D+00
                    CP:  3.00D+00 -3.75D-01  8.49D-02 -3.00D+00 -3.00D+00
                    CP:  1.70D-01  6.80D-01  5.64D-01  1.07D+00
 E= -2555.88569834124     Delta-E=        0.000002450181 Rises=F Damp=F
 DIIS: error= 2.25D-05 at cycle  40 NSaved=  10.
 NSaved=10 IEnMin= 3 EnMin= -2555.88571341850     IErMin= 2 ErrMin= 8.85D-06
 ErrMax= 2.25D-05  0.00D+00 EMaxC= 1.00D-01 BMatC= 1.24D-06 BMatP= 2.03D-07
 IDIUse=1 WtCom= 1.00D+00 WtEn= 0.00D+00
 Large coefficients: NSaved= 10 BigCof=   10.74 CofMax=   10.00 Det=-7.73D-11
 Inversion failed.  Reducing to  9 matrices.
 Large coefficients: NSaved=  9 BigCof=   10.77 CofMax=   10.00 Det=-9.72D-11
 Inversion failed.  Reducing to  8 matrices.
 Large coefficients: NSaved=  8 BigCof=   10.77 CofMax=   10.00 Det=-9.72D-11
 Inversion failed.  Reducing to  7 matrices.
 Coeff-Com: -0.239D-01 0.482D+00-0.471D+00-0.300D+00 0.138D+01 0.124D+01
 Coeff-Com: -0.131D+01
 Coeff:     -0.239D-01 0.482D+00-0.471D+00-0.300D+00 0.138D+01 0.124D+01
 Coeff:     -0.131D+01
 Gap=     0.362 Goal=   None    Shift=    0.000
 Gap=     0.124 Goal=   None    Shift=    0.000
 RMSDP=5.86D-05 MaxDP=6.63D-03 DE= 2.45D-06 OVMax= 4.57D-02

 Cycle  41  Pass 1  IDiag  1:
 Restarting incremental Fock formation.
 E= -2555.88571245470     Delta-E=       -0.000014113461 Rises=F Damp=F
 DIIS: error= 1.02D-05 at cycle  41 NSaved=   8.
 NSaved= 8 IEnMin= 2 EnMin= -2555.88571341850     IErMin= 1 ErrMin= 8.85D-06
 ErrMax= 1.02D-05  0.00D+00 EMaxC= 1.00D-01 BMatC= 3.37D-07 BMatP= 2.03D-07
 IDIUse=1 WtCom= 1.00D+00 WtEn= 0.00D+00
 Coeff-Com: -0.235D-02 0.307D+00 0.215D+01-0.821D+01 0.556D+01 0.414D+01
 Coeff-Com: -0.454D+01 0.160D+01
 Coeff:     -0.235D-02 0.307D+00 0.215D+01-0.821D+01 0.556D+01 0.414D+01
 Coeff:     -0.454D+01 0.160D+01
 Gap=     0.362 Goal=   None    Shift=    0.000
 Gap=     0.125 Goal=   None    Shift=    0.000
 RMSDP=7.21D-06 MaxDP=7.02D-04 DE=-1.41D-05 OVMax= 4.45D-03

 Cycle  42  Pass 1  IDiag  1:
 RMSU=  7.21D-06    CP:  1.00D+00
 E= -2555.88571085276     Delta-E=        0.000001601949 Rises=F Damp=F
 DIIS: error= 2.11D-05 at cycle  42 NSaved=   9.
 NSaved= 9 IEnMin= 2 EnMin= -2555.88571341850     IErMin= 1 ErrMin= 8.85D-06
 ErrMax= 2.11D-05  0.00D+00 EMaxC= 1.00D-01 BMatC= 1.05D-06 BMatP= 2.03D-07
 IDIUse=1 WtCom= 1.00D+00 WtEn= 0.00D+00
 Coeff-Com:  0.179D-01 0.288D+00 0.220D+01-0.812D+01 0.540D+01 0.414D+01
 Coeff-Com: -0.473D+01 0.161D+01 0.203D+00
 Coeff:      0.179D-01 0.288D+00 0.220D+01-0.812D+01 0.540D+01 0.414D+01
 Coeff:     -0.473D+01 0.161D+01 0.203D+00
 Gap=     0.362 Goal=   None    Shift=    0.000
 Gap=     0.125 Goal=   None    Shift=    0.000
 RMSDP=1.14D-05 MaxDP=1.32D-03 DE= 1.60D-06 OVMax= 8.90D-03

 Cycle  43  Pass 1  IDiag  1:
 RMSU=  6.91D-06    CP:  1.00D+00 -2.51D-01
 E= -2555.88571353738     Delta-E=       -0.000002684627 Rises=F Damp=F
 DIIS: error= 2.35D-05 at cycle  43 NSaved=  10.
 NSaved=10 IEnMin=10 EnMin= -2555.88571353738     IErMin= 1 ErrMin= 8.85D-06
 ErrMax= 2.35D-05  0.00D+00 EMaxC= 1.00D-01 BMatC= 1.28D-06 BMatP= 2.03D-07
 IDIUse=1 WtCom= 1.00D+00 WtEn= 0.00D+00
 Coeff-Com:  0.203D-01 0.276D+00 0.223D+01-0.810D+01 0.537D+01 0.421D+01
 Coeff-Com: -0.480D+01 0.163D+01-0.147D+00 0.311D+00
 Coeff:      0.203D-01 0.276D+00 0.223D+01-0.810D+01 0.537D+01 0.421D+01
 Coeff:     -0.480D+01 0.163D+01-0.147D+00 0.311D+00
 Gap=     0.362 Goal=   None    Shift=    0.000
 Gap=     0.125 Goal=   None    Shift=    0.000
 RMSDP=4.60D-06 MaxDP=5.22D-04 DE=-2.68D-06 OVMax= 3.60D-03

 Cycle  44  Pass 1  IDiag  1:
 RMSU=  6.07D-08    CP:  1.00D+00 -7.78D-01  1.38D+00
 E= -2555.88571465099     Delta-E=       -0.000001113611 Rises=F Damp=F
 DIIS: error= 2.41D-05 at cycle  44 NSaved=  11.
 NSaved=11 IEnMin=11 EnMin= -2555.88571465099     IErMin= 1 ErrMin= 8.85D-06
 ErrMax= 2.41D-05  0.00D+00 EMaxC= 1.00D-01 BMatC= 1.34D-06 BMatP= 2.03D-07
 IDIUse=1 WtCom= 1.00D+00 WtEn= 0.00D+00
 Large coefficients: NSaved= 11 BigCof=   30.57 CofMax=   10.00 Det=-6.92D-12
 Inversion failed.  Reducing to 10 matrices.
 Large coefficients: NSaved= 10 BigCof=   11.42 CofMax=   10.00 Det=-8.53D-12
 Inversion failed.  Reducing to  9 matrices.
 Coeff-Com: -0.140D-01 0.473D+00 0.172D+01-0.658D+01 0.486D+01 0.124D+01
 Coeff-Com:  0.719D+00-0.801D+01 0.660D+01
 Coeff:     -0.140D-01 0.473D+00 0.172D+01-0.658D+01 0.486D+01 0.124D+01
 Coeff:      0.719D+00-0.801D+01 0.660D+01
 Gap=     0.362 Goal=   None    Shift=    0.000
 Gap=     0.124 Goal=   None    Shift=    0.000
 RMSDP=5.52D-05 MaxDP=6.61D-03 DE=-1.11D-06 OVMax= 4.31D-02

 Cycle  45  Pass 1  IDiag  1:
 RMSU=  1.52D-05    CP:  1.00D+00  3.00D+00 -3.00D+00  3.00D+00
 E= -2555.88570183014     Delta-E=        0.000012820850 Rises=F Damp=F
 DIIS: error= 9.01D-06 at cycle  45 NSaved=  10.
 NSaved=10 IEnMin= 9 EnMin= -2555.88571465099     IErMin= 1 ErrMin= 8.85D-06
 ErrMax= 9.01D-06  0.00D+00 EMaxC= 1.00D-01 BMatC= 2.43D-07 BMatP= 2.03D-07
 IDIUse=1 WtCom= 1.00D+00 WtEn= 0.00D+00
 Large coefficients: NSaved= 10 BigCof=   19.15 CofMax=   10.00 Det=-1.63D-11
 Inversion failed.  Reducing to  9 matrices.
 Large coefficients: NSaved=  9 BigCof=   18.92 CofMax=   10.00 Det=-1.72D-11
 Inversion failed.  Reducing to  8 matrices.
 Coeff-Com:  0.540D+00-0.937D+00 0.136D+01 0.291D+00-0.914D+00-0.280D+00
 Coeff-Com:  0.777D+00 0.162D+00
 Coeff:      0.540D+00-0.937D+00 0.136D+01 0.291D+00-0.914D+00-0.280D+00
 Coeff:      0.777D+00 0.162D+00
 Gap=     0.362 Goal=   None    Shift=    0.000
 Gap=     0.124 Goal=   None    Shift=    0.000
 RMSDP=5.18D-05 MaxDP=5.95D-03 DE= 1.28D-05 OVMax= 4.06D-02

 Cycle  46  Pass 1  IDiag  1:
 RMSU=  1.51D-07    CP:  1.00D+00 -9.55D-01  3.63D-01  9.32D-01  3.61D-05
 E= -2555.88571412891     Delta-E=       -0.000012298763 Rises=F Damp=F
 DIIS: error= 1.05D-05 at cycle  46 NSaved=   9.
 NSaved= 9 IEnMin= 7 EnMin= -2555.88571465099     IErMin= 8 ErrMin= 9.01D-06
 ErrMax= 1.05D-05  0.00D+00 EMaxC= 1.00D-01 BMatC= 2.38D-07 BMatP= 2.12D-07
 IDIUse=1 WtCom= 1.00D+00 WtEn= 0.00D+00
 Coeff-Com:  0.453D+00-0.283D+01 0.530D+01 0.694D+00 0.198D+01-0.903D+01
 Coeff-Com:  0.687D+01 0.251D+00-0.269D+01
 Coeff:      0.453D+00-0.283D+01 0.530D+01 0.694D+00 0.198D+01-0.903D+01
 Coeff:      0.687D+01 0.251D+00-0.269D+01
 Gap=     0.362 Goal=   None    Shift=    0.000
 Gap=     0.124 Goal=   None    Shift=    0.000
 RMSDP=3.42D-05 MaxDP=3.99D-03 DE=-1.23D-05 OVMax= 2.68D-02

 Cycle  47  Pass 1  IDiag  1:
 RMSU=  7.60D-07    CP:  1.00D+00  2.73D+00 -2.74D+00  3.00D+00  3.70D-03
                    CP: -2.47D+00
 E= -2555.88570591051     Delta-E=        0.000008218397 Rises=F Damp=F
 DIIS: error= 9.88D-06 at cycle  47 NSaved=  10.
 NSaved=10 IEnMin= 7 EnMin= -2555.88571465099     IErMin= 8 ErrMin= 9.01D-06
 ErrMax= 9.88D-06  0.00D+00 EMaxC= 1.00D-01 BMatC= 2.30D-07 BMatP= 2.12D-07
 IDIUse=1 WtCom= 1.00D+00 WtEn= 0.00D+00
 Coeff-Com:  0.462D+00-0.425D+01 0.759D+01 0.102D+01 0.446D+01-0.960D+01
 Coeff-Com:  0.524D+01 0.135D+00-0.598D+01 0.191D+01
 Coeff:      0.462D+00-0.425D+01 0.759D+01 0.102D+01 0.446D+01-0.960D+01
 Coeff:      0.524D+01 0.135D+00-0.598D+01 0.191D+01
 Gap=     0.361 Goal=   None    Shift=    0.000
 Gap=     0.125 Goal=   None    Shift=    0.000
 RMSDP=1.05D-04 MaxDP=1.22D-02 DE= 8.22D-06 OVMax= 8.16D-02

 Cycle  48  Pass 1  IDiag  1:
 RMSU=  5.76D-05    CP:  1.00D+00  3.00D+00 -3.00D+00  3.00D+00  3.00D+00
                    CP: -3.00D+00  7.92D-01
 E= -2555.88567699679     Delta-E=        0.000028913714 Rises=F Damp=F
 DIIS: error= 7.44D-05 at cycle  48 NSaved=  11.
 NSaved=11 IEnMin= 7 EnMin= -2555.88571465099     IErMin= 8 ErrMin= 9.01D-06
 ErrMax= 7.44D-05  0.00D+00 EMaxC= 1.00D-01 BMatC= 1.32D-05 BMatP= 2.12D-07
 IDIUse=1 WtCom= 1.00D+00 WtEn= 0.00D+00
 Coeff-Com:  0.172D-01-0.158D+01 0.437D+01 0.630D+00 0.313D+01-0.834D+01
 Coeff-Com:  0.638D+01 0.418D+00-0.551D+01 0.181D+01-0.328D+00
 Coeff:      0.172D-01-0.158D+01 0.437D+01 0.630D+00 0.313D+01-0.834D+01
 Coeff:      0.638D+01 0.418D+00-0.551D+01 0.181D+01-0.328D+00
 Gap=     0.362 Goal=   None    Shift=    0.000
 Gap=     0.125 Goal=   None    Shift=    0.000
 RMSDP=5.91D-05 MaxDP=7.11D-03 DE= 2.89D-05 OVMax= 4.59D-02

 Cycle  49  Pass 1  IDiag  1:
 RMSU=  2.28D-06    CP:  1.00D+00  3.00D+00 -3.00D+00  3.00D+00  2.87D+00
                    CP: -3.00D+00 -4.13D-01  8.98D-03
 E= -2555.88569403982     Delta-E=       -0.000017043029 Rises=F Damp=F
 DIIS: error= 4.14D-05 at cycle  49 NSaved=  12.
 NSaved=12 IEnMin= 7 EnMin= -2555.88571465099     IErMin= 8 ErrMin= 9.01D-06
 ErrMax= 4.14D-05  0.00D+00 EMaxC= 1.00D-01 BMatC= 3.99D-06 BMatP= 2.12D-07
 IDIUse=1 WtCom= 1.00D+00 WtEn= 0.00D+00
 Coeff-Com: -0.128D-01-0.414D+00 0.226D+01 0.345D+00 0.181D+01-0.683D+01
 Coeff-Com:  0.570D+01 0.356D+00-0.383D+01 0.152D+01-0.595D+00 0.699D+00
 Coeff:     -0.128D-01-0.414D+00 0.226D+01 0.345D+00 0.181D+01-0.683D+01
 Coeff:      0.570D+01 0.356D+00-0.383D+01 0.152D+01-0.595D+00 0.699D+00
 Gap=     0.362 Goal=   None    Shift=    0.000
 Gap=     0.125 Goal=   None    Shift=    0.000
 RMSDP=1.83D-05 MaxDP=2.17D-03 DE=-1.70D-05 OVMax= 1.43D-02

 Cycle  50  Pass 1  IDiag  1:
 RMSU=  2.98D-06    CP:  1.00D+00  3.00D+00 -3.00D+00  3.00D+00  1.70D+00
                    CP: -3.00D+00  4.69D-02 -1.26D-02 -8.07D-02
 E= -2555.88569858058     Delta-E=       -0.000004540755 Rises=F Damp=F
 DIIS: error= 3.63D-05 at cycle  50 NSaved=  13.
 NSaved=13 IEnMin= 7 EnMin= -2555.88571465099     IErMin= 8 ErrMin= 9.01D-06
 ErrMax= 3.63D-05  0.00D+00 EMaxC= 1.00D-01 BMatC= 3.10D-06 BMatP= 2.12D-07
 IDIUse=1 WtCom= 1.00D+00 WtEn= 0.00D+00
 Coeff-Com:  0.621D-01-0.117D+01 0.249D+01 0.474D+00 0.213D+01-0.630D+01
 Coeff-Com:  0.430D+01 0.879D-01-0.303D+01 0.136D+01-0.604D+00-0.168D+00
 Coeff-Com:  0.136D+01
 Coeff:      0.621D-01-0.117D+01 0.249D+01 0.474D+00 0.213D+01-0.630D+01
 Coeff:      0.430D+01 0.879D-01-0.303D+01 0.136D+01-0.604D+00-0.168D+00
 Coeff:      0.136D+01
 Gap=     0.362 Goal=   None    Shift=    0.000
 Gap=     0.125 Goal=   None    Shift=    0.000
 RMSDP=3.01D-06 MaxDP=3.77D-04 DE=-4.54D-06 OVMax= 2.30D-03

 Cycle  51  Pass 1  IDiag  1:
 RMSU=  1.28D-07    CP:  1.00D+00  3.00D+00 -3.00D+00  3.00D+00  1.52D+00
                    CP: -3.00D+00  1.76D-01 -1.85D-02 -2.48D-01  1.37D+00
 E= -2555.88569898307     Delta-E=       -0.000000402491 Rises=F Damp=F
 DIIS: error= 4.10D-05 at cycle  51 NSaved=  14.
 NSaved=14 IEnMin= 7 EnMin= -2555.88571465099     IErMin= 8 ErrMin= 9.01D-06
 ErrMax= 4.10D-05  0.00D+00 EMaxC= 1.00D-01 BMatC= 3.97D-06 BMatP= 2.12D-07
 IDIUse=1 WtCom= 1.00D+00 WtEn= 0.00D+00
 Coeff-Com:  0.462D-01-0.341D+01 0.577D+01 0.104D+01 0.587D+01-0.945D+01
 Coeff-Com:  0.389D+01 0.312D-01-0.456D+01 0.143D+01-0.540D+00-0.953D+00
 Coeff-Com: -0.114D+01 0.297D+01
 Coeff:      0.462D-01-0.341D+01 0.577D+01 0.104D+01 0.587D+01-0.945D+01
 Coeff:      0.389D+01 0.312D-01-0.456D+01 0.143D+01-0.540D+00-0.953D+00
 Coeff:     -0.114D+01 0.297D+01
 Gap=     0.361 Goal=   None    Shift=    0.000
 Gap=     0.125 Goal=   None    Shift=    0.000
 RMSDP=2.31D-05 MaxDP=2.60D-03 DE=-4.02D-07 OVMax= 1.79D-02

 Cycle  52  Pass 1  IDiag  1:
 RMSU=  2.15D-07    CP:  1.00D+00  3.00D+00 -3.00D+00  3.00D+00  3.00D+00
                    CP: -3.00D+00 -6.51D-01  1.00D-03  9.10D-01  1.13D+00
                    CP:  3.00D+00
 E= -2555.88569161226     Delta-E=        0.000007370812 Rises=F Damp=F
 DIIS: error= 6.46D-05 at cycle  52 NSaved=  15.
 NSaved=15 IEnMin= 7 EnMin= -2555.88571465099     IErMin= 8 ErrMin= 9.01D-06
 ErrMax= 6.46D-05  0.00D+00 EMaxC= 1.00D-01 BMatC= 1.01D-05 BMatP= 2.12D-07
 IDIUse=1 WtCom= 1.00D+00 WtEn= 0.00D+00
 Large coefficients: NSaved= 15 BigCof=   21.91 CofMax=   10.00 Det=-1.21D-11
 Inversion failed.  Reducing to 14 matrices.
 Large coefficients: NSaved= 14 BigCof=   10.12 CofMax=   10.00 Det=-1.38D-11
 Inversion failed.  Reducing to 13 matrices.
 Coeff-Com:  0.882D-01-0.291D+01 0.632D+01 0.985D+00 0.431D+01-0.840D+01
 Coeff-Com:  0.547D+01 0.296D+00-0.670D+01 0.195D+01-0.157D+01 0.184D+01
 Coeff-Com: -0.690D+00
 Coeff:      0.882D-01-0.291D+01 0.632D+01 0.985D+00 0.431D+01-0.840D+01
 Coeff:      0.547D+01 0.296D+00-0.670D+01 0.195D+01-0.157D+01 0.184D+01
 Coeff:     -0.690D+00
 Gap=     0.361 Goal=   None    Shift=    0.000
 Gap=     0.125 Goal=   None    Shift=    0.000
 RMSDP=2.33D-05 MaxDP=2.88D-03 DE= 7.37D-06 OVMax= 1.78D-02

 Cycle  53  Pass 1  IDiag  1:
 RMSU=  2.17D-07    CP:  1.00D+00  3.00D+00 -3.00D+00  3.00D+00  3.00D+00
                    CP: -3.00D+00 -3.02D-01  4.01D-01  3.91D-01  1.45D-01
                    CP: -2.63D+00 -1.05D+00
 E= -2555.88568747855     Delta-E=        0.000004133707 Rises=F Damp=F
 DIIS: error= 5.20D-05 at cycle  53 NSaved=  14.
 NSaved=14 IEnMin= 7 EnMin= -2555.88571465099     IErMin= 8 ErrMin= 9.01D-06
 ErrMax= 5.20D-05  0.00D+00 EMaxC= 1.00D-01 BMatC= 6.37D-06 BMatP= 2.12D-07
 IDIUse=1 WtCom= 1.00D+00 WtEn= 0.00D+00
 Large coefficients: NSaved= 14 BigCof=   14.59 CofMax=   10.00 Det=-1.33D-11
 Inversion failed.  Reducing to 13 matrices.
 Large coefficients: NSaved= 13 BigCof=   16.99 CofMax=   10.00 Det=-1.40D-11
 Inversion failed.  Reducing to 12 matrices.
 Large coefficients: NSaved= 12 BigCof=   15.36 CofMax=   10.00 Det=-1.62D-11
 Inversion failed.  Reducing to 11 matrices.
 Large coefficients: NSaved= 11 BigCof=   14.89 CofMax=   10.00 Det=-1.66D-11
 Inversion failed.  Reducing to 10 matrices.
 Large coefficients: NSaved= 10 BigCof=   13.38 CofMax=   10.00 Det=-1.66D-11
 Inversion failed.  Reducing to  9 matrices.
 Coeff-Com:  0.111D+00 0.174D+01 0.618D+00 0.189D+01-0.546D+01 0.455D+01
 Coeff-Com: -0.189D+01 0.389D+00-0.957D+00
 Coeff:      0.111D+00 0.174D+01 0.618D+00 0.189D+01-0.546D+01 0.455D+01
 Coeff:     -0.189D+01 0.389D+00-0.957D+00
 Gap=     0.362 Goal=   None    Shift=    0.000
 Gap=     0.123 Goal=   None    Shift=    0.000
 RMSDP=1.46D-04 MaxDP=1.70D-02 DE= 4.13D-06 OVMax= 1.14D-01

 Cycle  54  Pass 1  IDiag  1:
 RMSU=  2.13D-06    CP:  1.00D+00 -3.00D+00  3.00D+00  3.00D+00 -1.18D+00
                    CP:  9.23D-02  2.08D+00 -1.73D-02 -7.74D-01  1.06D+00
                    CP:  3.00D+00  3.00D+00 -3.00D+00
 E= -2555.88572367041     Delta-E=       -0.000036191862 Rises=F Damp=F
 DIIS: error= 3.86D-05 at cycle  54 NSaved=  10.
 NSaved=10 IEnMin=10 EnMin= -2555.88572367041     IErMin= 3 ErrMin= 1.02D-05
[...]
 DIIS: error= 2.67D-05 at cycle 110 NSaved=   9.
 NSaved= 9 IEnMin= 4 EnMin= -2555.88572961813     IErMin= 7 ErrMin= 8.99D-06
 ErrMax= 2.67D-05  0.00D+00 EMaxC= 1.00D-01 BMatC= 1.67D-06 BMatP= 1.55D-07
 IDIUse=1 WtCom= 1.00D+00 WtEn= 0.00D+00
 Coeff-Com: -0.110D+01 0.601D+00 0.618D+00-0.216D+01 0.136D+01-0.667D+01
 Coeff-Com:  0.168D+01 0.667D+01 0.181D-01
 Coeff:     -0.110D+01 0.601D+00 0.618D+00-0.216D+01 0.136D+01-0.667D+01
 Coeff:      0.168D+01 0.667D+01 0.181D-01
 Gap=     0.362 Goal=   None    Shift=    0.000
 Gap=     0.125 Goal=   None    Shift=    0.000
 RMSDP=6.12D-07 MaxDP=7.10D-05 DE= 1.68D-05 OVMax= 4.80D-04

 Cycle 111  Pass 1  IDiag  1:
 RMSU=  7.56D-08    CP:  1.00D+00 -3.00D+00 -3.00D+00  3.00D+00  3.00D+00
                    CP:  3.00D+00  3.00D+00  3.00D+00 -3.00D+00  1.01D+00
 E= -2555.88570445801     Delta-E=        0.000000137020 Rises=F Damp=F
 DIIS: error= 2.66D-05 at cycle 111 NSaved=  10.
 NSaved=10 IEnMin= 4 EnMin= -2555.88572961813     IErMin= 7 ErrMin= 8.99D-06
 ErrMax= 2.66D-05  0.00D+00 EMaxC= 1.00D-01 BMatC= 1.64D-06 BMatP= 1.55D-07
 IDIUse=1 WtCom= 1.00D+00 WtEn= 0.00D+00
 Coeff-Com: -0.703D+00 0.632D+00 0.761D+00-0.272D+01 0.166D+01-0.860D+01
 Coeff-Com:  0.205D+01 0.776D+01-0.742D+01 0.759D+01
 Coeff:     -0.703D+00 0.632D+00 0.761D+00-0.272D+01 0.166D+01-0.860D+01
 Coeff:      0.205D+01 0.776D+01-0.742D+01 0.759D+01
 Gap=     0.362 Goal=   None    Shift=    0.000
 Gap=     0.125 Goal=   None    Shift=    0.000
 RMSDP=1.89D-05 MaxDP=2.16D-03 DE= 1.37D-07 OVMax= 1.48D-02

 Cycle 112  Pass 1  IDiag  1:
 RMSU=  1.28D-06    CP:  1.00D+00 -3.00D+00 -3.00D+00  3.00D+00  3.00D+00
                    CP:  3.00D+00  3.00D+00  3.00D+00 -3.00D+00  1.43D+00
                    CP:  3.00D+00
 E= -2555.88569961670     Delta-E=        0.000004841318 Rises=F Damp=F
 DIIS: error= 3.36D-05 at cycle 112 NSaved=  11.
 NSaved=11 IEnMin= 4 EnMin= -2555.88572961813     IErMin= 7 ErrMin= 8.99D-06
 ErrMax= 3.36D-05  0.00D+00 EMaxC= 1.00D-01 BMatC= 2.63D-06 BMatP= 1.55D-07
 IDIUse=1 WtCom= 1.00D+00 WtEn= 0.00D+00
 Large coefficients: NSaved= 11 BigCof=   26.18 CofMax=   10.00 Det=-1.41D-11
 Inversion failed.  Reducing to 10 matrices.
 Large coefficients: NSaved= 10 BigCof=   25.22 CofMax=   10.00 Det=-3.06D-11
 Inversion failed.  Reducing to  9 matrices.
 Coeff-Com:  0.191D+01 0.493D+00 0.163D+01-0.397D+01 0.131D+01-0.345D+01
 Coeff-Com:  0.238D+01 0.272D+01-0.202D+01
 Coeff:      0.191D+01 0.493D+00 0.163D+01-0.397D+01 0.131D+01-0.345D+01
 Coeff:      0.238D+01 0.272D+01-0.202D+01
 Gap=     0.362 Goal=   None    Shift=    0.000
 Gap=     0.124 Goal=   None    Shift=    0.000
 RMSDP=8.68D-05 MaxDP=9.80D-03 DE= 4.84D-06 OVMax= 6.79D-02

 Cycle 113  Pass 1  IDiag  1:
 RMSU=  4.40D-07    CP:  1.00D+00 -3.00D+00 -3.00D+00  3.00D+00  1.52D+00
                    CP:  3.00D+00  6.09D-01 -6.97D-02 -3.00D+00  1.11D-04
                    CP: -3.00D+00  4.43D-02
 E= -2555.88572170256     Delta-E=       -0.000022085866 Rises=F Damp=F
 DIIS: error= 1.55D-05 at cycle 113 NSaved=  10.
 NSaved=10 IEnMin= 4 EnMin= -2555.88572961813     IErMin= 4 ErrMin= 9.03D-06
 ErrMax= 1.55D-05  0.00D+00 EMaxC= 1.00D-01 BMatC= 6.29D-07 BMatP= 1.55D-07
 IDIUse=1 WtCom= 1.00D+00 WtEn= 0.00D+00
 Coeff-Com:  0.409D+01 0.108D+00 0.131D+01-0.322D+01 0.725D+00-0.966D+01
 Coeff-Com:  0.455D+01 0.732D+01-0.592D+01 0.170D+01
 Coeff:      0.409D+01 0.108D+00 0.131D+01-0.322D+01 0.725D+00-0.966D+01
 Coeff:      0.455D+01 0.732D+01-0.592D+01 0.170D+01
 Gap=     0.362 Goal=   None    Shift=    0.000
 Gap=     0.125 Goal=   None    Shift=    0.000
 RMSDP=5.32D-05 MaxDP=5.96D-03 DE=-2.21D-05 OVMax= 4.15D-02

 Cycle 114  Pass 1  IDiag  1:
 RMSU=  2.94D-06    CP:  1.00D+00  3.00D+00  3.00D+00 -3.00D+00 -1.37D+00
                    CP: -3.00D+00 -3.00D+00 -1.76D+00 -3.00D+00  2.66D-03
                    CP: -3.00D+00 -8.51D-02  3.00D+00
 E= -2555.88573442576     Delta-E=       -0.000012723194 Rises=F Damp=F
 DIIS: error= 4.72D-05 at cycle 114 NSaved=  11.
 NSaved=11 IEnMin=11 EnMin= -2555.88573442576     IErMin= 4 ErrMin= 9.03D-06
 ErrMax= 4.72D-05  0.00D+00 EMaxC= 1.00D-01 BMatC= 6.20D-06 BMatP= 1.55D-07
 IDIUse=1 WtCom= 1.00D+00 WtEn= 0.00D+00
 Large coefficients: NSaved= 11 BigCof=   12.14 CofMax=   10.00 Det=-1.32D-10
 Inversion failed.  Reducing to 10 matrices.
 Coeff-Com: -0.256D+01 0.345D+00-0.390D+00 0.232D+00 0.636D+00 0.114D+01
 Coeff-Com:  0.219D+01-0.103D+01 0.106D+00 0.336D+00
 Coeff:     -0.256D+01 0.345D+00-0.390D+00 0.232D+00 0.636D+00 0.114D+01
 Coeff:      0.219D+01-0.103D+01 0.106D+00 0.336D+00
 Gap=     0.362 Goal=   None    Shift=    0.000
 Gap=     0.125 Goal=   None    Shift=    0.000
 RMSDP=7.71D-06 MaxDP=8.96D-04 DE=-1.27D-05 OVMax= 5.92D-03

 Cycle 115  Pass 1  IDiag  1:
 RMSU=  8.42D-07    CP:  1.00D+00  3.00D+00  3.00D+00 -3.00D+00 -8.71D-01
                    CP: -3.00D+00 -3.00D+00 -6.65D-01 -3.00D+00  1.56D-03
                    CP: -3.00D+00 -7.81D-02  3.00D+00  5.56D-01
 E= -2555.88573357515     Delta-E=        0.000000850610 Rises=F Damp=F
 DIIS: error= 2.91D-05 at cycle 115 NSaved=  11.
 NSaved=11 IEnMin=10 EnMin= -2555.88573442576     IErMin= 4 ErrMin= 9.03D-06
 ErrMax= 2.91D-05  0.00D+00 EMaxC= 1.00D-01 BMatC= 2.09D-06 BMatP= 1.55D-07
 IDIUse=1 WtCom= 1.00D+00 WtEn= 0.00D+00
 Coeff-Com: -0.251D+01 0.378D+00-0.349D+00 0.483D-01 0.759D+00 0.160D+01
 Coeff-Com:  0.176D+01-0.881D+00 0.137D+00 0.510D+00-0.453D+00
 Coeff:     -0.251D+01 0.378D+00-0.349D+00 0.483D-01 0.759D+00 0.160D+01
 Coeff:      0.176D+01-0.881D+00 0.137D+00 0.510D+00-0.453D+00
 Gap=     0.362 Goal=   None    Shift=    0.000
 Gap=     0.125 Goal=   None    Shift=    0.000
 RMSDP=1.94D-05 MaxDP=2.13D-03 DE= 8.51D-07 OVMax= 1.52D-02

 Cycle 116  Pass 1  IDiag  1:
 RMSU=  2.67D-07    CP:  1.00D+00  1.24D+00 -9.01D-01 -1.37D+00 -4.73D-04
                    CP: -1.28D+00 -6.09D-01 -2.42D-01 -3.00D+00  4.81D-04
                    CP: -3.00D+00 -2.88D-01  3.00D+00  2.65D-01  8.48D-01
 E= -2555.88572842470     Delta-E=        0.000005150451 Rises=F Damp=F
 DIIS: error= 2.40D-05 at cycle 116 NSaved=  12.
 NSaved=12 IEnMin=10 EnMin= -2555.88573442576     IErMin= 4 ErrMin= 9.03D-06
 ErrMax= 2.40D-05  0.00D+00 EMaxC= 1.00D-01 BMatC= 1.39D-06 BMatP= 1.55D-07
 IDIUse=1 WtCom= 1.00D+00 WtEn= 0.00D+00
 Coeff-Com: -0.270D+01 0.450D+00-0.794D+00 0.374D+00 0.110D+01 0.326D+01
 Coeff-Com:  0.431D+00-0.126D+01-0.314D+00 0.210D+01-0.689D+01 0.526D+01
 Coeff:     -0.270D+01 0.450D+00-0.794D+00 0.374D+00 0.110D+01 0.326D+01
 Coeff:      0.431D+00-0.126D+01-0.314D+00 0.210D+01-0.689D+01 0.526D+01
 Gap=     0.362 Goal=   None    Shift=    0.000
 Gap=     0.125 Goal=   None    Shift=    0.000
 RMSDP=3.79D-05 MaxDP=4.20D-03 DE= 5.15D-06 OVMax= 2.95D-02

 Cycle 117  Pass 1  IDiag  1:
 RMSU=  5.81D-07    CP:  1.00D+00 -3.00D+00 -3.00D+00  3.00D+00  2.31D+00
                    CP:  3.00D+00  2.79D+00 -2.76D-01 -3.00D+00  8.74D-04
                    CP: -3.00D+00 -3.21D-01  3.00D+00  3.54D-01 -1.17D+00
                    CP:  1.16D+00
 E= -2555.88571709121     Delta-E=        0.000011333484 Rises=F Damp=F
 DIIS: error= 4.71D-05 at cycle 117 NSaved=  13.
 NSaved=13 IEnMin=10 EnMin= -2555.88573442576     IErMin= 4 ErrMin= 9.03D-06
 ErrMax= 4.71D-05  0.00D+00 EMaxC= 1.00D-01 BMatC= 5.71D-06 BMatP= 1.55D-07
 IDIUse=1 WtCom= 1.00D+00 WtEn= 0.00D+00
 Coeff-Com: -0.216D+01 0.415D+00-0.669D+00 0.330D+00 0.916D+00 0.102D+01
 Coeff-Com:  0.147D+01-0.647D+00-0.682D-01 0.255D+01-0.749D+01 0.617D+01
 Coeff-Com: -0.843D+00
 Coeff:     -0.216D+01 0.415D+00-0.669D+00 0.330D+00 0.916D+00 0.102D+01
 Coeff:      0.147D+01-0.647D+00-0.682D-01 0.255D+01-0.749D+01 0.617D+01
 Coeff:     -0.843D+00
 Gap=     0.362 Goal=   None    Shift=    0.000
 Gap=     0.125 Goal=   None    Shift=    0.000
 RMSDP=6.69D-06 MaxDP=7.77D-04 DE= 1.13D-05 OVMax= 5.21D-03

 Cycle 118  Pass 1  IDiag  1:
 RMSU=  1.85D-07    CP:  1.00D+00 -3.00D+00 -3.00D+00  3.00D+00  2.75D+00
                    CP:  3.00D+00  3.00D+00  6.46D-01 -3.00D+00  7.27D-04
                    CP: -3.00D+00 -1.86D-01  3.00D+00  2.30D-01 -3.25D-01
                    CP:  2.21D-01  3.76D-01
 E= -2555.88571624072     Delta-E=        0.000000850490 Rises=F Damp=F
 DIIS: error= 3.52D-05 at cycle 118 NSaved=  14.
 NSaved=14 IEnMin=10 EnMin= -2555.88573442576     IErMin= 4 ErrMin= 9.03D-06
 ErrMax= 3.52D-05  0.00D+00 EMaxC= 1.00D-01 BMatC= 3.06D-06 BMatP= 1.55D-07
 IDIUse=1 WtCom= 1.00D+00 WtEn= 0.00D+00
 Coeff-Com: -0.152D+01 0.405D+00-0.503D+00 0.537D-01 0.843D+00-0.941D+00
 Coeff-Com:  0.230D+01-0.401D+00-0.269D-01 0.276D+01-0.742D+01 0.636D+01
 Coeff-Com: -0.213D+01 0.123D+01
 Coeff:     -0.152D+01 0.405D+00-0.503D+00 0.537D-01 0.843D+00-0.941D+00
 Coeff:      0.230D+01-0.401D+00-0.269D-01 0.276D+01-0.742D+01 0.636D+01
 Coeff:     -0.213D+01 0.123D+01
 Gap=     0.362 Goal=   None    Shift=    0.000
 Gap=     0.125 Goal=   None    Shift=    0.000
 RMSDP=8.58D-07 MaxDP=1.51D-04 DE= 8.50D-07 OVMax= 3.31D-04

 Cycle 119  Pass 1  IDiag  1:
 RMSU=  1.00D-07    CP:  1.00D+00 -3.00D+00 -3.00D+00  3.00D+00  2.75D+00
                    CP:  3.00D+00  3.00D+00  8.12D-01 -3.00D+00  5.53D-04
                    CP: -3.00D+00 -1.80D-01  3.00D+00  2.15D-01  2.89D-01
                    CP: -1.60D-01 -6.44D-01  2.19D+00
 E= -2555.88571663375     Delta-E=       -0.000000393031 Rises=F Damp=F
 DIIS: error= 2.65D-05 at cycle 119 NSaved=  15.
 NSaved=15 IEnMin=10 EnMin= -2555.88573442576     IErMin= 4 ErrMin= 9.03D-06
 ErrMax= 2.65D-05  0.00D+00 EMaxC= 1.00D-01 BMatC= 1.71D-06 BMatP= 1.55D-07
 IDIUse=1 WtCom= 1.00D+00 WtEn= 0.00D+00
 Large coefficients: NSaved= 15 BigCof=   15.94 CofMax=   10.00 Det=-3.96D-11
 Inversion failed.  Reducing to 14 matrices.
 Large coefficients: NSaved= 14 BigCof=   15.78 CofMax=   10.00 Det=-4.20D-11
 Inversion failed.  Reducing to 13 matrices.
 Large coefficients: NSaved= 13 BigCof=   12.88 CofMax=   10.00 Det=-4.47D-11
 Inversion failed.  Reducing to 12 matrices.
 Large coefficients: NSaved= 12 BigCof=   12.95 CofMax=   10.00 Det=-5.18D-11
 Inversion failed.  Reducing to 11 matrices.
 Large coefficients: NSaved= 11 BigCof=   12.89 CofMax=   10.00 Det=-5.20D-11
 Inversion failed.  Reducing to 10 matrices.
 Coeff-Com:  0.143D+01 0.659D+00 0.118D+01-0.381D+01 0.185D+01 0.219D+01
 Coeff-Com: -0.732D+01 0.592D+01-0.698D+00-0.410D+00
 Coeff:      0.143D+01 0.659D+00 0.118D+01-0.381D+01 0.185D+01 0.219D+01
 Coeff:     -0.732D+01 0.592D+01-0.698D+00-0.410D+00
 Gap=     0.362 Goal=   None    Shift=    0.000
 Gap=     0.125 Goal=   None    Shift=    0.000
 RMSDP=6.50D-06 MaxDP=7.62D-04 DE=-3.93D-07 OVMax= 4.86D-03

 Cycle 120  Pass 1  IDiag  1:
 RMSU=  1.99D-07    CP:  1.00D+00 -3.00D+00 -3.00D+00  3.00D+00  3.00D+00
                    CP:  3.00D+00  3.00D+00  1.81D+00 -3.00D+00  5.31D-02
                    CP: -3.00D+00 -2.24D-03  1.53D+00 -1.09D-01 -7.39D-01
                    CP: -8.63D-01  1.62D+00 -5.95D-01 -1.84D+00
 E= -2555.88571514439     Delta-E=        0.000001489363 Rises=F Damp=F
 DIIS: error= 2.75D-05 at cycle 120 NSaved=  11.
 NSaved=11 IEnMin= 6 EnMin= -2555.88573442576     IErMin= 4 ErrMin= 9.03D-06
 ErrMax= 2.75D-05  0.00D+00 EMaxC= 1.00D-01 BMatC= 1.82D-06 BMatP= 1.55D-07
 IDIUse=1 WtCom= 1.00D+00 WtEn= 0.00D+00
 Large coefficients: NSaved= 11 BigCof=   10.27 CofMax=   10.00 Det=-7.11D-11
 Inversion failed.  Reducing to 10 matrices.
 Large coefficients: NSaved= 10 BigCof=   11.24 CofMax=   10.00 Det=-7.19D-11
 Inversion failed.  Reducing to  9 matrices.
 Coeff-Com:  0.141D+01 0.596D+00 0.823D+00-0.130D+01 0.219D+01-0.759D+01
 Coeff-Com:  0.682D+01-0.223D+01 0.276D+00
 Coeff:      0.141D+01 0.596D+00 0.823D+00-0.130D+01 0.219D+01-0.759D+01
 Coeff:      0.682D+01-0.223D+01 0.276D+00
 Gap=     0.362 Goal=   None    Shift=    0.000
 Gap=     0.124 Goal=   None    Shift=    0.000
 RMSDP=4.42D-05 MaxDP=4.92D-03 DE= 1.49D-06 OVMax= 3.45D-02

 Cycle 121  Pass 1  IDiag  1:
 Restarting incremental Fock formation.
 E= -2555.88572672997     Delta-E=       -0.000011585579 Rises=F Damp=F
 DIIS: error= 2.25D-05 at cycle 121 NSaved=  10.
 NSaved=10 IEnMin= 5 EnMin= -2555.88573442576     IErMin= 4 ErrMin= 9.03D-06
 ErrMax= 2.25D-05  0.00D+00 EMaxC= 1.00D-01 BMatC= 1.30D-06 BMatP= 1.55D-07
 IDIUse=1 WtCom= 1.00D+00 WtEn= 0.00D+00
 Coeff-Com:  0.298D+01 0.680D+00 0.202D+01-0.478D+01 0.186D+01-0.799D+01
 Coeff-Com:  0.664D+01-0.104D+01-0.807D+00 0.144D+01
 Coeff:      0.298D+01 0.680D+00 0.202D+01-0.478D+01 0.186D+01-0.799D+01
 Coeff:      0.664D+01-0.104D+01-0.807D+00 0.144D+01
 Gap=     0.362 Goal=   None    Shift=    0.000
 Gap=     0.125 Goal=   None    Shift=    0.000
 RMSDP=3.61D-05 MaxDP=4.02D-03 DE=-1.16D-05 OVMax= 2.82D-02

 Cycle 122  Pass 1  IDiag  1:
 RMSU=  3.61D-05    CP:  1.00D+00
 E= -2555.88571694669     Delta-E=        0.000009783284 Rises=F Damp=F
 DIIS: error= 3.23D-05 at cycle 122 NSaved=  11.
 NSaved=11 IEnMin= 5 EnMin= -2555.88573442576     IErMin= 4 ErrMin= 9.03D-06
 ErrMax= 3.23D-05  0.00D+00 EMaxC= 1.00D-01 BMatC= 2.66D-06 BMatP= 1.55D-07
 IDIUse=1 WtCom= 1.00D+00 WtEn= 0.00D+00
 Coeff-Com:  0.283D+01 0.570D+00 0.173D+01-0.398D+01 0.259D+01-0.962D+01
 Coeff-Com:  0.820D+01-0.228D+01 0.261D+00 0.134D+01-0.647D+00
 Coeff:      0.283D+01 0.570D+00 0.173D+01-0.398D+01 0.259D+01-0.962D+01
 Coeff:      0.820D+01-0.228D+01 0.261D+00 0.134D+01-0.647D+00
 Gap=     0.362 Goal=   None    Shift=    0.000
 Gap=     0.125 Goal=   None    Shift=    0.000
 RMSDP=1.93D-05 MaxDP=2.19D-03 DE= 9.78D-06 OVMax= 1.51D-02

 Cycle 123  Pass 1  IDiag  1:
 RMSU=  5.43D-07    CP:  1.00D+00  4.64D-01
 E= -2555.88572197184     Delta-E=       -0.000005025156 Rises=F Damp=F
 DIIS: error= 3.07D-05 at cycle 123 NSaved=  12.
 NSaved=12 IEnMin= 5 EnMin= -2555.88573442576     IErMin= 4 ErrMin= 9.03D-06
 ErrMax= 3.07D-05  0.00D+00 EMaxC= 1.00D-01 BMatC= 2.42D-06 BMatP= 1.55D-07
 IDIUse=1 WtCom= 1.00D+00 WtEn= 0.00D+00
 Large coefficients: NSaved= 12 BigCof=   14.19 CofMax=   10.00 Det=-5.55D-11
 Inversion failed.  Reducing to 11 matrices.
 Coeff-Com:  0.305D+01 0.545D+00 0.192D+01-0.472D+01 0.243D+01-0.982D+01
 Coeff-Com:  0.798D+01-0.145D+01 0.170D+01-0.241D+01 0.177D+01
 Coeff:      0.305D+01 0.545D+00 0.192D+01-0.472D+01 0.243D+01-0.982D+01
 Coeff:      0.798D+01-0.145D+01 0.170D+01-0.241D+01 0.177D+01
 Gap=     0.362 Goal=   None    Shift=    0.000
 Gap=     0.125 Goal=   None    Shift=    0.000
 RMSDP=3.64D-06 MaxDP=4.74D-04 DE=-5.03D-06 OVMax= 2.28D-03

 Cycle 124  Pass 1  IDiag  1:
 RMSU=  1.70D-06    CP:  1.00D+00  5.44D-01  3.00D+00
 E= -2555.88572089648     Delta-E=        0.000001075359 Rises=F Damp=F
 DIIS: error= 3.70D-05 at cycle 124 NSaved=  12.
 NSaved=12 IEnMin= 5 EnMin= -2555.88573442576     IErMin= 4 ErrMin= 9.03D-06
 ErrMax= 3.70D-05  0.00D+00 EMaxC= 1.00D-01 BMatC= 3.47D-06 BMatP= 1.55D-07
 IDIUse=1 WtCom= 1.00D+00 WtEn= 0.00D+00
 Large coefficients: NSaved= 12 BigCof=   10.79 CofMax=   10.00 Det=-7.87D-11
 Inversion failed.  Reducing to 11 matrices.
 Coeff-Com:  0.311D+01 0.651D+00 0.223D+01-0.533D+01 0.206D+01-0.753D+01
 Coeff-Com:  0.527D+01 0.151D+01-0.563D+00 0.109D+01-0.150D+01
 Coeff:      0.311D+01 0.651D+00 0.223D+01-0.533D+01 0.206D+01-0.753D+01
 Coeff:      0.527D+01 0.151D+01-0.563D+00 0.109D+01-0.150D+01
 Gap=     0.362 Goal=   None    Shift=    0.000
 Gap=     0.125 Goal=   None    Shift=    0.000
 RMSDP=5.33D-05 MaxDP=6.05D-03 DE= 1.08D-06 OVMax= 4.17D-02

 Cycle 125  Pass 1  IDiag  1:
 RMSU=  1.20D-06    CP:  1.00D+00  2.02D+00  1.92D-03  2.07D+00
 E= -2555.88570749234     Delta-E=        0.000013404145 Rises=F Damp=F
 DIIS: error= 3.95D-05 at cycle 125 NSaved=  12.
 NSaved=12 IEnMin= 5 EnMin= -2555.88573442576     IErMin= 4 ErrMin= 9.03D-06
 ErrMax= 3.95D-05  0.00D+00 EMaxC= 1.00D-01 BMatC= 3.90D-06 BMatP= 1.55D-07
 IDIUse=1 WtCom= 1.00D+00 WtEn= 0.00D+00
 Coeff-Com:  0.235D+01 0.505D+00 0.152D+01-0.368D+01 0.216D+01-0.802D+01
 Coeff-Com:  0.602D+01 0.965D+00 0.487D+00 0.353D+00-0.708D+00-0.954D+00
 Coeff:      0.235D+01 0.505D+00 0.152D+01-0.368D+01 0.216D+01-0.802D+01
 Coeff:      0.602D+01 0.965D+00 0.487D+00 0.353D+00-0.708D+00-0.954D+00
 Gap=     0.362 Goal=   None    Shift=    0.000
 Gap=     0.125 Goal=   None    Shift=    0.000
 RMSDP=2.94D-05 MaxDP=3.37D-03 DE= 1.34D-05 OVMax= 2.30D-02

 Cycle 126  Pass 1  IDiag  1:
 RMSU=  2.71D-07    CP:  1.00D+00  1.21D+00  3.00D+00  1.43D+00  3.60D-01
 E= -2555.88571466957     Delta-E=       -0.000007177236 Rises=F Damp=F
 DIIS: error= 3.93D-05 at cycle 126 NSaved=  13.
 NSaved=13 IEnMin= 5 EnMin= -2555.88573442576     IErMin= 4 ErrMin= 9.03D-06
 ErrMax= 3.93D-05  0.00D+00 EMaxC= 1.00D-01 BMatC= 3.96D-06 BMatP= 1.55D-07
 IDIUse=1 WtCom= 1.00D+00 WtEn= 0.00D+00
 Large coefficients: NSaved= 13 BigCof=   12.89 CofMax=   10.00 Det=-7.91D-11
 Inversion failed.  Reducing to 12 matrices.
 Coeff-Com:  0.197D+01 0.261D+00 0.109D+01-0.281D+01 0.178D+01-0.862D+01
 Coeff-Com:  0.709D+01 0.455D+00 0.723D+00 0.427D+00-0.341D+01 0.203D+01
 Coeff:      0.197D+01 0.261D+00 0.109D+01-0.281D+01 0.178D+01-0.862D+01
 Coeff:      0.709D+01 0.455D+00 0.723D+00 0.427D+00-0.341D+01 0.203D+01
 Gap=     0.362 Goal=   None    Shift=    0.000
 Gap=     0.125 Goal=   None    Shift=    0.000
 RMSDP=5.94D-05 MaxDP=6.82D-03 DE=-7.18D-06 OVMax= 4.62D-02

 Cycle 127  Pass 1  IDiag  1:
 RMSU=  2.69D-06    CP:  1.00D+00 -4.38D-01  3.00D+00  2.04D+00 -8.17D-01
                    CP: -3.00D+00
 E= -2555.88572744151     Delta-E=       -0.000012771938 Rises=F Damp=F
 DIIS: error= 6.65D-05 at cycle 127 NSaved=  13.
 NSaved=13 IEnMin= 5 EnMin= -2555.88573442576     IErMin= 4 ErrMin= 9.03D-06
 ErrMax= 6.65D-05  0.00D+00 EMaxC= 1.00D-01 BMatC= 1.25D-05 BMatP= 1.55D-07
 IDIUse=1 WtCom= 1.00D+00 WtEn= 0.00D+00
 Coeff-Com:  0.196D+01 0.261D+00 0.109D+01-0.279D+01 0.179D+01-0.862D+01
 Coeff-Com:  0.709D+01 0.453D+00 0.715D+00 0.454D+00-0.342D+01 0.203D+01
 Coeff-Com: -0.116D-01
 Coeff:      0.196D+01 0.261D+00 0.109D+01-0.279D+01 0.179D+01-0.862D+01
 Coeff:      0.709D+01 0.453D+00 0.715D+00 0.454D+00-0.342D+01 0.203D+01
 Coeff:     -0.116D-01
 Gap=     0.362 Goal=   None    Shift=    0.000
 Gap=     0.126 Goal=   None    Shift=    0.000
 RMSDP=2.24D-07 MaxDP=2.48D-05 DE=-1.28D-05 OVMax= 1.74D-04

 Cycle 128  Pass 1  IDiag  1:
 RMSU=  3.65D-09    CP:  1.00D+00 -4.44D-01  3.00D+00  2.03D+00 -8.09D-01
                    CP: -3.00D+00  1.00D+00
 E= -2555.88572748611     Delta-E=       -0.000000044600 Rises=F Damp=F
 DIIS: error= 6.67D-05 at cycle 128 NSaved=  14.
 NSaved=14 IEnMin= 5 EnMin= -2555.88573442576     IErMin= 4 ErrMin= 9.03D-06
 ErrMax= 6.67D-05  0.00D+00 EMaxC= 1.00D-01 BMatC= 1.25D-05 BMatP= 1.55D-07
 IDIUse=1 WtCom= 1.00D+00 WtEn= 0.00D+00
 Large coefficients: NSaved= 14 BigCof=   16.88 CofMax=   10.00 Det=-2.22D-13
 Inversion failed.  Reducing to 13 matrices.
 Coeff-Com:  0.394D+01 0.643D+00 0.267D+01-0.617D+01 0.162D+01-0.785D+01
 Coeff-Com:  0.568D+01 0.143D+01 0.129D+01-0.336D+01 0.412D+00-0.663D+01
 Coeff-Com:  0.732D+01
 Coeff:      0.394D+01 0.643D+00 0.267D+01-0.617D+01 0.162D+01-0.785D+01
 Coeff:      0.568D+01 0.143D+01 0.129D+01-0.336D+01 0.412D+00-0.663D+01
 Coeff:      0.732D+01
 Gap=     0.362 Goal=   None    Shift=    0.000
 Gap=     0.124 Goal=   None    Shift=    0.000
 RMSDP=1.03D-04 MaxDP=1.18D-02 DE=-4.46D-08 OVMax= 8.03D-02

 >>>>>>>>>> Convergence criterion not met.
 Error on total polarization charges =  0.00298
 SCF Done:  E(UCAM-B3LYP) =  -2555.88572749     A.U. after  129 cycles
            NFock=128  Conv=0.10D-03     -V/T= 2.0077
 <Sx>= 0.0000 <Sy>= 0.0000 <Sz>= 0.5000 <S**2>= 0.7816 S= 0.5157
 <L.S>= 0.000000000000E+00
 KE= 2.536350890645D+03 PE=-1.541953050732D+04 EE= 5.614866215409D+03
 Annihilation of the first spin contaminant:
 S**2 before annihilation     0.7816,   after     0.7507
 Convergence failure -- run terminated.
 Error termination via Lnk1e in /home/k0335/k033513/app/g09/l502.exe at Thu Jan 30 16:31:24 2025.
 Job cpu time:       0 days  3 hours 51 minutes 59.4 seconds.
 File lengths (MBytes):  RWF=    673 Int=      0 D2E=      0 Chk=     10 Scr=      1
