 Entering Gaussian System, Link 0=g09
 Initial command:
 /home/k0335/k033513/app/g09/l1.exe "/home/k0335/k033513/app/g09/scratch/Gau-340294.inp" -scrdir="/home/k0335/k033513/app/g09/scratch/"
 Default is to use a total of  36 processors:
                               36 via shared-memory
                                1 via Linda
 Entering Link 1 = /home/k0335/k033513/app/g09/l1.exe PID=    340295.
  
 Copyright (c) 1988,1990,1992,1993,1995,1998,2003,2009,2013,
            Gaussian, Inc.  All Rights Reserved.
  
 This is part of the Gaussian(R) 09 program.  It is based on
 the Gaussian(R) 03 system (copyright 2003, Gaussian, Inc.),
 the Gaussian(R) 98 system (copyright 1998, Gaussian, Inc.),
 the Gaussian(R) 94 system (copyright 1995, Gaussian, Inc.),
 the Gaussian 92(TM) system (copyright 1992, Gaussian, Inc.),
 the Gaussian 90(TM) system (copyright 1990, Gaussian, Inc.),
 the Gaussian 88(TM) system (copyright 1988, Gaussian, Inc.),
 the Gaussian 86(TM) system (copyright 1986, Carnegie Mellon
 University), and the Gaussian 82(TM) system (copyright 1983,
 Carnegie Mellon University). Gaussian is a federally registered
 trademark of Gaussian, Inc.
  
 This software contains proprietary and confidential information,
 including trade secrets, belonging to Gaussian, Inc.
  
 This software is provided under written license and may be
 used, copied, transmitted, or stored only in accord with that
 written license.
  
 The following legend is applicable only to US Government
 contracts under FAR:
  
                    RESTRICTED RIGHTS LEGEND
  
 Use, reproduction and disclosure by the US Government is
 subject to restrictions as set forth in subparagraphs (a)
 and (c) of the Commercial Computer Software - Restricted
 Rights clause in FAR 52.227-19.
  
 Gaussian, Inc.
 340 Quinnipiac St., Bldg. 40, Wallingford CT 06492
  
  
 ---------------------------------------------------------------
 Warning -- This program may not be used in any manner that
 competes with the business of Gaussian, Inc. or will provide
 assistance to any competitor of Gaussian, Inc.  The licensee
 of this program is prohibited from giving any competitor of
 Gaussian, Inc. access to this program.  By using this program,
 the user acknowledges that Gaussian, Inc. is engaged in the
 business of creating and licensing software in the field of
 computational chemistry and represents and warrants to the
 licensee that it is not a competitor of Gaussian, Inc. and that
 it will not use this program in any manner prohibited above.
 ---------------------------------------------------------------
  

 Cite this work as:
 Gaussian 09, Revision D.01,
 M. J. Frisch, G. W. Trucks, H. B. Schlegel, G. E. Scuseria, 
 M. A. Robb, J. R. Cheeseman, G. Scalmani, V. Barone, B. Mennucci, 
 G. A. Petersson, H. Nakatsuji, M. Caricato, X. Li, H. P. Hratchian, 
 A. F. Izmaylov, J. Bloino, G. Zheng, J. L. Sonnenberg, M. Hada, 
 M. Ehara, K. Toyota, R. Fukuda, J. Hasegawa, M. Ishida, T. Nakajima, 
 Y. Honda, O. Kitao, H. Nakai, T. Vreven, J. A. Montgomery, Jr., 
 J. E. Peralta, F. Ogliaro, M. Bearpark, J. J. Heyd, E. Brothers, 
 K. N. Kudin, V. N. Staroverov, T. Keith, R. Kobayashi, J. Normand, 
 K. Raghavachari, A. Rendell, J. C. Burant, S. S. Iyengar, J. Tomasi, 
 M. Cossi, N. Rega, J. M. Millam, M. Klene, J. E. Knox, J. B. Cross, 
 V. Bakken, C. Adamo, J. Jaramillo, R. Gomperts, R. E. Stratmann, 
 O. Yazyev, A. J. Austin, R. Cammi, C. Pomelli, J. W. Ochterski, 
 R. L. Martin, K. Morokuma, V. G. Zakrzewski, G. A. Voth, 
 P. Salvador, J. J. Dannenberg, S. Dapprich, A. D. Daniels, 
 O. Farkas, J. B. Foresman, J. V. Ortiz, J. Cioslowski, 
 and D. J. Fox, Gaussian, Inc., Wallingford CT, 2013.
 
 ******************************************
 Gaussian 09:  ES64L-G09RevD.01 24-Apr-2013
                 3-Mar-2024 
 ******************************************
 %nprocshared=24
 Will use up to   24 processors via shared memory.
 %mem=40GB
 %rwf=A591161040/A591161040_p1.rwf
 %nosave
 %chk=A591161040/A591161040_p1.chk
 ----------------------------------------------------------------------
 #p CAM-B3LYP/6-31G(d,p) SCRF=(PCM,Solvent=Generic,Read) NoSymm out=wfn
 ----------------------------------------------------------------------
 1/38=1,40=2/1;
 2/12=2,15=1,17=6,18=5,40=1/2;
 3/5=1,6=6,7=101,11=2,16=1,25=1,30=1,70=2203,72=-2,74=-40/1,2,3;
 4//1;
 5/5=2,38=5/2;
 6/7=2,8=2,9=2,10=2,28=1/1;
 99/5=1,6=100,9=1/99;
 Leave Link    1 at Sun Mar  3 18:05:47 2024, MaxMem=  5368709120 cpu:         1.3
 (Enter /home/k0335/k033513/app/g09/l101.exe)
 -------------------
 Title A591161040_p1
 -------------------
 Symbolic Z-matrix:
 Charge =  1 Multiplicity = 2
 O                     2.17503  -1.90103   1.73579 
 C                     1.19873  -1.36726   1.22175 
 N                     0.10165  -1.14844   1.98475 
 C                    -0.82038  -0.13258   1.63246 
 N                    -1.06883  -0.13954   0.22536 
 C                    -2.14326   0.7146   -0.27656 
 F                    -1.69917   2.00134  -0.18132 
 F                    -2.3312    0.46484  -1.60032 
 C                    -3.54418   0.65602   0.3926 
 F                    -3.37769   0.87203   1.74479 
 O                    -4.46444   1.70096   0.0489 
 C                    -4.64606   1.91529  -1.32699 
 F                    -4.86647   0.75809  -1.96039 
 F                    -5.72115   2.70741  -1.49228 
 F                    -3.57317   2.53323  -1.83863 
 C                    -4.09723  -0.76244   0.21583 
 F                    -5.36788  -0.84674   0.68094 
 F                    -3.36792  -1.65901   0.92697 
 F                    -4.10733  -1.20134  -1.05604 
 C                     0.06583  -0.20809  -0.57504 
 O                     0.13325   0.36062  -1.65972 
 N                     1.12515  -0.94269  -0.07757 
 C                     2.3145   -1.11554  -0.89962 
 F                     1.99389  -1.1095   -2.22635 
 F                     2.75811  -2.39844  -0.714 
 C                     3.49742  -0.14482  -0.65567 
 F                     4.55612  -0.51458  -1.44356 
 O                     3.94445  -0.09748   0.70647 
 C                     5.04252  -0.9455    0.9331 
 F                     4.85722  -2.1596    0.39501 
 F                     6.15237  -0.38317   0.4183 
 F                     5.21529  -1.07423   2.26299 
 C                     3.07944   1.25852  -1.07127 
 F                     4.11211   2.12832  -0.90974 
 F                     2.07169   1.72874  -0.29516 
 F                     2.69861   1.34577  -2.35971 
 H                     0.23281  -1.38358   2.9624 
 H                    -1.72257  -0.34808   2.20243 
 H                    -0.40727   0.8379    1.92912 
 
 NAtoms=     39 NQM=       39 NQMF=       0 NMMI=      0 NMMIF=      0
                NMic=       0 NMicF=      0.
                    Isotopes and Nuclear Properties:
 (Nuclear quadrupole moments (NQMom) in fm**2, nuclear magnetic moments (NMagM)
  in nuclear magnetons)

  Atom         1           2           3           4           5           6           7           8           9          10
 IAtWgt=          16          12          14          12          14          12          19          19          12          19
 AtmWgt=  15.9949146  12.0000000  14.0030740  12.0000000  14.0030740  12.0000000  18.9984033  18.9984033  12.0000000  18.9984033
 NucSpn=           0           0           2           0           2           0           1           1           0           1
 AtZEff=   0.0000000   0.0000000   0.0000000   0.0000000   0.0000000   0.0000000   0.0000000   0.0000000   0.0000000   0.0000000
 NQMom=    0.0000000   0.0000000   2.0440000   0.0000000   2.0440000   0.0000000   0.0000000   0.0000000   0.0000000   0.0000000
 NMagM=    0.0000000   0.0000000   0.4037610   0.0000000   0.4037610   0.0000000   2.6288670   2.6288670   0.0000000   2.6288670
 AtZNuc=   8.0000000   6.0000000   7.0000000   6.0000000   7.0000000   6.0000000   9.0000000   9.0000000   6.0000000   9.0000000

  Atom        11          12          13          14          15          16          17          18          19          20
 IAtWgt=          16          12          19          19          19          12          19          19          19          12
 AtmWgt=  15.9949146  12.0000000  18.9984033  18.9984033  18.9984033  12.0000000  18.9984033  18.9984033  18.9984033  12.0000000
 NucSpn=           0           0           1           1           1           0           1           1           1           0
 AtZEff=   0.0000000   0.0000000   0.0000000   0.0000000   0.0000000   0.0000000   0.0000000   0.0000000   0.0000000   0.0000000
 NQMom=    0.0000000   0.0000000   0.0000000   0.0000000   0.0000000   0.0000000   0.0000000   0.0000000   0.0000000   0.0000000
 NMagM=    0.0000000   0.0000000   2.6288670   2.6288670   2.6288670   0.0000000   2.6288670   2.6288670   2.6288670   0.0000000
 AtZNuc=   8.0000000   6.0000000   9.0000000   9.0000000   9.0000000   6.0000000   9.0000000   9.0000000   9.0000000   6.0000000

  Atom        21          22          23          24          25          26          27          28          29          30
 IAtWgt=          16          14          12          19          19          12          19          16          12          19
 AtmWgt=  15.9949146  14.0030740  12.0000000  18.9984033  18.9984033  12.0000000  18.9984033  15.9949146  12.0000000  18.9984033
 NucSpn=           0           2           0           1           1           0           1           0           0           1
 AtZEff=   0.0000000   0.0000000   0.0000000   0.0000000   0.0000000   0.0000000   0.0000000   0.0000000   0.0000000   0.0000000
 NQMom=    0.0000000   2.0440000   0.0000000   0.0000000   0.0000000   0.0000000   0.0000000   0.0000000   0.0000000   0.0000000
 NMagM=    0.0000000   0.4037610   0.0000000   2.6288670   2.6288670   0.0000000   2.6288670   0.0000000   0.0000000   2.6288670
 AtZNuc=   8.0000000   7.0000000   6.0000000   9.0000000   9.0000000   6.0000000   9.0000000   8.0000000   6.0000000   9.0000000

  Atom        31          32          33          34          35          36          37          38          39
 IAtWgt=          19          19          12          19          19          19           1           1           1
 AtmWgt=  18.9984033  18.9984033  12.0000000  18.9984033  18.9984033  18.9984033   1.0078250   1.0078250   1.0078250
 NucSpn=           1           1           0           1           1           1           1           1           1
 AtZEff=   0.0000000   0.0000000   0.0000000   0.0000000   0.0000000   0.0000000   0.0000000   0.0000000   0.0000000
 NQMom=    0.0000000   0.0000000   0.0000000   0.0000000   0.0000000   0.0000000   0.0000000   0.0000000   0.0000000
 NMagM=    2.6288670   2.6288670   0.0000000   2.6288670   2.6288670   2.6288670   2.7928460   2.7928460   2.7928460
 AtZNuc=   9.0000000   9.0000000   6.0000000   9.0000000   9.0000000   9.0000000   1.0000000   1.0000000   1.0000000
 Leave Link  101 at Sun Mar  3 18:05:48 2024, MaxMem=  5368709120 cpu:         1.1
 (Enter /home/k0335/k033513/app/g09/l202.exe)
                          Input orientation:                          
 ---------------------------------------------------------------------
 Center     Atomic      Atomic             Coordinates (Angstroms)
 Number     Number       Type             X           Y           Z
 ---------------------------------------------------------------------
      1          8           0        2.175025   -1.901031    1.735791
      2          6           0        1.198726   -1.367255    1.221749
      3          7           0        0.101647   -1.148439    1.984750
      4          6           0       -0.820380   -0.132584    1.632457
      5          7           0       -1.068831   -0.139537    0.225355
      6          6           0       -2.143262    0.714599   -0.276559
      7          9           0       -1.699165    2.001342   -0.181323
      8          9           0       -2.331195    0.464839   -1.600322
      9          6           0       -3.544180    0.656019    0.392596
     10          9           0       -3.377686    0.872033    1.744789
     11          8           0       -4.464436    1.700956    0.048899
     12          6           0       -4.646061    1.915293   -1.326992
     13          9           0       -4.866468    0.758088   -1.960394
     14          9           0       -5.721149    2.707405   -1.492276
     15          9           0       -3.573171    2.533230   -1.838626
     16          6           0       -4.097227   -0.762435    0.215831
     17          9           0       -5.367884   -0.846743    0.680935
     18          9           0       -3.367918   -1.659013    0.926965
     19          9           0       -4.107326   -1.201338   -1.056037
     20          6           0        0.065829   -0.208086   -0.575043
     21          8           0        0.133246    0.360622   -1.659722
     22          7           0        1.125149   -0.942690   -0.077570
     23          6           0        2.314499   -1.115544   -0.899619
     24          9           0        1.993892   -1.109499   -2.226346
     25          9           0        2.758113   -2.398439   -0.714002
     26          6           0        3.497424   -0.144819   -0.655667
     27          9           0        4.556123   -0.514583   -1.443560
     28          8           0        3.944447   -0.097483    0.706473
     29          6           0        5.042519   -0.945497    0.933101
     30          9           0        4.857219   -2.159596    0.395007
     31          9           0        6.152373   -0.383166    0.418303
     32          9           0        5.215291   -1.074227    2.262987
     33          6           0        3.079438    1.258518   -1.071272
     34          9           0        4.112106    2.128316   -0.909740
     35          9           0        2.071694    1.728740   -0.295162
     36          9           0        2.698609    1.345768   -2.359711
     37          1           0        0.232807   -1.383584    2.962404
     38          1           0       -1.722565   -0.348084    2.202430
     39          1           0       -0.407271    0.837903    1.929121
 ---------------------------------------------------------------------
                    Distance matrix (angstroms):
                    1          2          3          4          5
     1  O    0.000000
     2  C    1.225690   0.000000
     3  N    2.219746   1.354117   0.000000
     4  C    3.480019   2.402058   1.416406   0.000000
     5  N    3.988343   2.764400   2.341660   1.428885   0.000000
     6  C    5.434949   4.212829   3.691076   2.472262   1.461461
     7  F    5.823503   4.659810   4.225626   2.935251   2.268495
     8  F    6.085475   4.876576   4.623216   3.618057   2.300419
     9  C    6.407182   5.222671   4.368418   3.094873   2.605423
    10  F    6.206655   5.121672   4.030589   2.749852   2.943258
    11  O    7.739661   6.546824   5.719763   4.375919   3.866353
    12  C    8.394771   7.171662   6.549414   5.252426   4.407798
    13  F    8.385423   7.171450   6.624287   5.483858   4.472726
    14  F    9.695755   8.476642   7.801423   6.468928   5.718339
    15  F    8.092026   6.881183   6.455786   5.170381   4.204215
    16  C    6.553459   5.424463   4.572594   3.625089   3.091808
    17  F    7.688935   6.609371   5.630872   4.700554   4.380588
    18  F    5.606870   4.585440   3.662987   3.052483   2.843741
    19  F    6.910268   5.776679   5.192749   4.378841   3.464367
    20  C    3.557348   2.419833   2.727286   2.379942   1.390248
    21  O    4.562175   3.524724   3.944672   3.462816   2.290996
    22  N    2.304113   1.368904   2.311504   2.713954   2.355922
    23  C    2.753512   2.410085   3.635572   4.147901   3.696631
    24  F    4.044485   3.547969   4.616864   4.874921   4.041279
    25  F    2.566884   2.691126   3.987803   4.842064   4.542084
    26  C    3.248398   3.209837   4.417053   4.886624   4.650474
    27  F    4.207153   4.370702   5.656628   6.206012   5.879289
    28  O    2.728211   3.068683   4.183971   4.854097   5.036487
    29  C    3.127280   3.877621   5.055627   5.960160   6.204762
    30  F    3.009771   3.833520   5.115192   6.154282   6.263185
    31  F    4.456342   5.113959   6.296879   7.082107   7.227888
    32  F    3.194489   4.159668   5.121746   6.141139   6.672015
    33  C    4.322073   3.961023   4.898975   4.945088   4.565516
    34  F    5.194878   5.024942   5.932873   5.991982   5.768337
    35  F    4.160611   3.556442   4.166202   3.942630   3.691110
    36  F    5.252521   4.736771   5.642661   5.523243   4.804404
    37  H    2.354685   1.990765   1.014053   2.107834   3.276179
    38  H    4.221446   3.245672   2.003922   1.088691   2.092770
    39  H    3.769269   2.818213   2.051255   1.095680   2.072648
                    6          7          8          9         10
     6  C    0.000000
     7  F    1.364551   0.000000
     8  F    1.360164   2.184917   0.000000
     9  C    1.553632   2.354434   2.340856   0.000000
    10  F    2.373697   2.793328   3.528557   1.379423   0.000000
    11  O    2.542965   2.791050   2.966249   1.434187   2.178114
    12  C    2.968009   3.162935   2.745384   2.399353   3.483246
    13  F    3.202037   3.839607   2.577451   2.701005   3.994726
    14  F    4.272063   4.288762   4.066026   3.535551   4.397613
    15  F    2.791435   2.557627   2.424363   2.916010   3.954574
    16  C    2.498411   3.680611   2.814868   1.532683   2.350944
    17  F    3.708473   4.723831   4.018191   2.380615   2.836700
    18  F    2.929554   4.172678   3.460162   2.382434   2.659911
    19  F    2.852358   4.101405   2.495402   2.421868   3.560319
    20  C    2.412576   2.855134   2.692536   3.836035   4.290230
    21  O    2.687178   2.869731   2.467359   4.221698   4.917202
    22  N    3.669975   4.081034   4.030661   4.957778   5.185531
    23  C    4.858936   5.132292   4.956921   6.255587   6.583641
    24  F    4.923926   5.243865   4.645086   6.375434   6.967800
    25  F    5.822872   6.285630   5.906351   7.090358   7.374935
    26  C    5.718362   5.642300   5.936064   7.164104   7.352776
    27  F    6.910466   6.859428   6.958376   8.387889   8.662194
    28  O    6.219809   6.086346   6.709783   7.532982   7.458666
    29  C    7.473596   7.441512   7.923316   8.751480   8.652289
    30  F    7.597285   7.786638   7.908369   8.860655   8.878420
    31  F    8.396754   8.227520   8.761557   9.752113   9.703459
    32  F    7.987333   7.952577   8.616457   9.122524   8.825855
    33  C    5.310745   4.917199   5.494067   6.810156   7.055071
    34  F    6.444311   5.858121   6.690305   7.904584   8.044983
    35  F    4.335283   3.782413   4.763016   5.758627   5.881419
    36  F    5.308636   4.951320   5.162522   6.857358   7.347973
    37  H    4.531993   5.007321   5.550607   5.002952   4.427872
    38  H    2.729774   3.347033   3.936013   2.757173   2.106548
    39  H    2.809607   2.734329   4.037032   3.497741   2.976325
                   11         12         13         14         15
    11  O    0.000000
    12  C    1.404281   0.000000
    13  F    2.255635   1.337498   0.000000
    14  F    2.228786   1.345576   2.179323   0.000000
    15  F    2.247172   1.339667   2.199676   2.182683   0.000000
    16  C    2.496198   3.138750   2.763997   4.194585   3.918780
    17  F    2.776051   3.490221   3.131057   4.180862   4.581856
    18  F    3.641805   4.414707   4.052761   5.518698   5.026482
    19  F    3.125975   3.174436   2.287686   4.251235   3.852891
    20  C    4.955507   5.222650   5.213467   6.544503   4.727978
    21  O    5.084738   5.036813   5.024492   6.309467   4.299972
    22  N    6.184523   6.560182   6.506700   7.886468   6.103896
    23  C    7.401778   7.603816   7.496801   8.918398   6.989989
    24  F    7.401716   7.351679   7.114995   8.638835   6.664232
    25  F    8.339800   8.591032   8.345741   9.928406   8.103783
    26  C    8.203323   8.426808   8.513063   9.685927   7.652755
    27  F    9.407791   9.518302   9.522186  10.770603   8.690838
    28  O    8.624158   9.054451   9.245345  10.301730   8.361385
    29  C    9.907962  10.351846  10.462435  11.622508   9.696088
    30  F   10.095390  10.482477  10.421655  11.796245   9.903697
    31  F   10.825740  11.177439  11.330292  12.417023  10.401216
    32  F   10.310235  10.911986  11.083149  12.165873  10.347659
    33  C    7.639409   7.757582   8.011142   8.928989   6.816959
    34  F    8.640526   8.770688   9.143095   9.867502   7.751791
    35  F    6.545238   6.799096   7.200920   7.944764   5.907113
    36  F    7.565499   7.438753   7.598369   8.573145   6.404438
    37  H    6.329849   7.285936   7.404276   8.487046   7.271643
    38  H    4.044022   5.111411   5.332621   6.243039   5.296871
    39  H    4.554194   5.452557   5.917697   6.590773   5.205091
                   16         17         18         19         20
    16  C    0.000000
    17  F    1.355728   0.000000
    18  F    1.357002   2.172597   0.000000
    19  F    1.345506   2.175274   2.165292   0.000000
    20  C    4.273619   5.613430   4.018935   4.316611   0.000000
    21  O    4.761917   6.099085   4.798752   4.559233   1.226582
    22  N    5.233716   6.537891   4.659384   5.329455   1.381767
    23  C    6.517603   7.847892   5.993466   6.424303   2.446497
    24  F    6.571637   7.919411   6.244545   6.213125   2.693840
    25  F    7.108923   8.389603   6.384965   6.977413   3.473521
    26  C    7.669399   8.992935   7.206277   7.688222   3.433125
    27  F    8.814504  10.154296   8.349822   8.699262   4.583776
    28  O    8.084022   9.342460   7.480486   8.316008   4.086342
    29  C    9.169675  10.413925   8.440651   9.367059   5.252211
    30  F    9.064561  10.313005   8.257508   9.131640   5.263726
    31  F   10.258613  11.532571   9.618860  10.397332   6.169555
    32  F    9.539971  10.703188   8.706228   9.896629   5.943196
    33  C    7.566069   8.880293   7.353458   7.596098   3.388069
    34  F    8.775904  10.062377   8.583013   8.869445   4.684352
    35  F    6.672530   7.933045   6.523791   6.880739   2.802342
    36  F    7.567121   8.894995   7.525536   7.382958   3.539920
    37  H    5.165141   6.071329   4.145370   5.917587   3.731382
    38  H    3.123665   3.981452   2.460189   4.127073   3.306404
    39  H    4.371752   5.385507   4.000542   5.173015   2.754769
                   21         22         23         24         25
    21  O    0.000000
    22  N    2.277213   0.000000
    23  C    2.741293   1.456089   0.000000
    24  F    2.438098   2.323742   1.364929   0.000000
    25  F    3.923867   2.278338   1.370061   2.128987   0.000000
    26  C    3.547012   2.568751   1.549558   2.378707   2.372506
    27  F    4.513818   3.717632   2.383674   2.744396   2.704442
    28  O    4.509323   3.045905   2.504538   3.664733   2.952886
    29  C    5.703476   4.045646   3.290877   4.393533   3.168990
    30  F    5.734922   3.953800   3.038343   4.021547   2.386041
    31  F    6.411029   5.082513   4.123418   4.981435   4.106634
    32  F    6.578269   4.714315   4.291664   5.525646   4.080898
    33  C    3.135688   3.106768   2.500153   2.849581   3.688391
    34  F    4.417979   4.364115   3.708655   4.087019   4.728966
    35  F    2.737033   2.842505   2.917923   3.433821   4.204784
    36  F    2.835769   3.594577   2.887467   2.557880   4.090353
    37  H    4.941277   3.198766   4.395510   5.486317   4.574173
    38  H    4.343100   3.696137   5.148746   5.831455   5.725907
    39  H    3.660567   3.089601   4.384719   5.179369   5.242105
                   26         27         28         29         30
    26  C    0.000000
    27  F    1.370527   0.000000
    28  O    1.434397   2.273931   0.000000
    29  C    2.356393   2.463896   1.405792   0.000000
    30  F    2.648072   2.485368   2.276505   1.340865   0.000000
    31  F    2.873843   2.455976   2.244904   1.346480   2.198561
    32  F    3.511895   3.806073   2.234236   1.347226   2.189884
    33  C    1.522102   2.337324   2.397365   3.567756   4.122376
    34  F    2.368445   2.732587   2.755800   3.702710   4.543539
    35  F    2.381784   3.538885   2.800994   4.181623   4.832664
    36  F    2.400775   2.783989   3.610619   4.646119   4.953347
    37  H    5.028191   6.233678   4.529851   5.238637   5.345924
    38  H    5.954689   7.262430   5.866491   6.909013   7.059880
    39  H    4.784717   6.151380   4.615979   5.820033   6.249269
                   31         32         33         34         35
    31  F    0.000000
    32  F    2.181409   0.000000
    33  C    3.789049   4.595743   0.000000
    34  F    3.497703   4.641066   1.359796   0.000000
    35  F    4.649852   4.927774   1.356099   2.168098   0.000000
    36  F    4.757632   5.793048   1.346372   2.170892   2.191359
    37  H    6.520318   5.040837   5.599514   6.509678   4.866190
    38  H    8.074589   6.976016   6.029720   7.061271   4.994754
    39  H    6.841236   5.948186   4.619136   5.490817   3.447650
                   36         37         38         39
    36  F    0.000000
    37  H    6.469502   0.000000
    38  H    6.574880   2.339509   0.000000
    39  H    5.319633   2.532267   1.791999   0.000000
 Symmetry turned off by external request.
 Stoichiometry    C11H3F18N3O4(1+,2)
 Framework group  C1[X(C11H3F18N3O4)]
 Deg. of freedom   111
 Full point group                 C1      NOp   1
 Rotational constants (GHZ):      0.2620329      0.0602165      0.0552703
 Leave Link  202 at Sun Mar  3 18:05:48 2024, MaxMem=  5368709120 cpu:         0.1
 (Enter /home/k0335/k033513/app/g09/l301.exe)
 Standard basis: 6-31G(d,p) (6D, 7F)
 Ernie: Thresh=  0.10000D-02 Tol=  0.10000D-05 Strict=F.
   555 basis functions,  1029 primitive gaussians,   555 cartesian basis functions
   142 alpha electrons      141 beta electrons
       nuclear repulsion energy      5193.0046697799 Hartrees.
 IExCor=20419 DFT=T Ex+Corr=CAM-B3LYP ExCW=0 ScaHFX=  1.000000
 ScaDFX=  1.000000  1.000000  1.000000  0.810000 ScalE2=  1.000000  1.000000
 IRadAn=      0 IRanWt=     -1 IRanGd=            0 ICorTp=0 IEmpDi=  4
  HFx wShort=  0.000000 wLong=  0.330000 cFull=  0.190000 cShort=  0.000000 cLong=  0.460000
  DFx wShort=  0.000000 wLong=  0.330000 cFull=  0.190000 cShort=  0.000000 cLong=  0.460000
 NAtoms=   39 NActive=   39 NUniq=   39 SFac= 1.00D+00 NAtFMM=   60 NAOKFM=F Big=F
 Integral buffers will be    131072 words long.
 Raffenetti 2 integral format.
 Two-electron integral symmetry is turned off.
 Using the following non-standard input for PCM:
 eps=4.9
 --- end of non-standard input.
 ------------------------------------------------------------------------------
 Polarizable Continuum Model (PCM)
 =================================
 Model                : PCM (using non-symmetric T matrix).
 Atomic radii         : UFF (Universal Force Field).
 Polarization charges : Total charges.
 Charge compensation  : None.
 Solution method      : On-the-fly selection.
 Cavity type          : Scaled VdW (van der Waals Surface) (Alpha=1.100).
 Cavity algorithm     : GePol (No added spheres)
                        Default sphere list used, NSphG=   39.
                        Lebedev-Laikov grids with approx.  5.0 points / Ang**2.
                        Smoothing algorithm: Karplus/York (Gamma=1.0000).
                        Polarization charges: spherical gaussians, with
                                              point-specific exponents (IZeta= 3).
                        Self-potential: point-specific (ISelfS= 7).
                        Self-field    : sphere-specific E.n sum rule (ISelfD= 2).
 Solvent              : Generic,
                        Eps                           =   4.900000
                        Eps(infinity)                 =   0.000000
                        RSolv                         =   0.000000 Ang.
                        Molar volume                  =   0.000000 cm**3/mol
                        Thermal expansion coefficient =   0.000000 K**-1
                        Absolute temperature          = 298.150000 K
                        Numeral density               =   0.000000 Ang**-3
                        Hydrogen bond acidity         =   0.000000
                        Hydrogen bond basicity        =   0.000000
                        Surface tension at interface  =   0.000000 (cal/mol)*Ang**-2
                        Carbon aromaticity            =   0.000000
                        Electronegative halogenicity  =   0.000000
 ------------------------------------------------------------------------------
 GePol: Number of generator spheres                  =      39
 GePol: Total number of spheres                      =      39
 GePol: Number of exposed spheres                    =      39 (100.00%)
 GePol: Number of points                             =    3247
 GePol: Average weight of points                     =       0.12
 GePol: Minimum weight of points                     =   0.26D-10
 GePol: Maximum weight of points                     =    0.20577
 GePol: Number of points with low weight             =     144
 GePol: Fraction of low-weight points (<1% of avg)   =       4.43%
 GePol: Cavity surface area                          =    402.607 Ang**2
 GePol: Cavity volume                                =    470.246 Ang**3
 Leave Link  301 at Sun Mar  3 18:05:48 2024, MaxMem=  5368709120 cpu:         0.9
 (Enter /home/k0335/k033513/app/g09/l302.exe)
 NPDir=0 NMtPBC=     1 NCelOv=     1 NCel=       1 NClECP=     1 NCelD=      1
         NCelK=      1 NCelE2=     1 NClLst=     1 CellRange=     0.0.
 One-electron integrals computed using PRISM.
 NBasis=   555 RedAO= T EigKep=  1.28D-03  NBF=   555
 NBsUse=   555 1.00D-06 EigRej= -1.00D+00 NBFU=   555
 Precomputing XC quadrature grid using
 IXCGrd= 4 IRadAn=           0 IRanWt=          -1 IRanGd=           0 AccXCQ= 0.00D+00.
 Generated NRdTot=       0 NPtTot=           0 NUsed=           0 NTot=          32
 NSgBfM=   539   542   542   542   542 MxSgAt=    39 MxSgA2=    39.
 Leave Link  302 at Sun Mar  3 18:05:48 2024, MaxMem=  5368709120 cpu:        11.6
 (Enter /home/k0335/k033513/app/g09/l303.exe)
 DipDrv:  MaxL=1.
 Leave Link  303 at Sun Mar  3 18:05:48 2024, MaxMem=  5368709120 cpu:         0.9
 (Enter /home/k0335/k033513/app/g09/l401.exe)
 ExpMin= 1.61D-01 ExpMax= 7.00D+03 ExpMxC= 1.05D+03 IAcc=1 IRadAn=         1 AccDes= 0.00D+00
 Harris functional with IExCor=20419 and IRadAn=       1 diagonalized for initial guess.
 HarFok:  IExCor=20419 AccDes= 0.00D+00 IRadAn=         1 IDoV= 1 UseB2=F ITyADJ=14
 ICtDFT=  3500011 ScaDFX=  1.000000  1.000000  1.000000  1.000000
 FoFCou: FMM=F IPFlag=           0 FMFlag=      100000 FMFlg1=           0
         NFxFlg=           0 DoJE=T BraDBF=F KetDBF=T FulRan=T
         wScrn=  0.000000 ICntrl=     500 IOpCl=  0 I1Cent=   200000004 NGrid=           0
         NMat0=    1 NMatS0=      1 NMatT0=    0 NMatD0=    1 NMtDS0=    0 NMtDT0=    0
 Symmetry not used in FoFCou.
 Harris En= -2602.91814076195    
 JPrj=0 DoOrth=F DoCkMO=F.
 Initial guess <Sx>= 0.0000 <Sy>= 0.0000 <Sz>= 0.5000 <S**2>= 0.7500 S= 0.5000
 Leave Link  401 at Sun Mar  3 18:05:49 2024, MaxMem=  5368709120 cpu:        14.0
 (Enter /home/k0335/k033513/app/g09/l502.exe)
 UHF open shell SCF:
 Using DIIS extrapolation, IDIIS=  1040.
 Two-electron integral symmetry not used.
 IVT=      959353 IEndB=      959353 NGot=  5368709120 MDV=  5368074988
 LenX=  5368074988 LenY=  5367766408
 Requested convergence on RMS density matrix=1.00D-08 within 128 cycles.
 Requested convergence on MAX density matrix=1.00D-06.
 Requested convergence on             energy=1.00D-06.
 No special actions if energy rises.
 Fock matrices will be formed incrementally for  20 cycles.

 Cycle   1  Pass 1  IDiag  1:
 FoFJK:  IHMeth= 1 ICntrl=       0 DoSepK=T KAlg= 0 I1Cent=   0 FoldK=F
 IRaf=         1 NMat=   1 IRICut=       1 DoRegI=T DoRafI=F ISym2E= 0.
 FoFCou: FMM=F IPFlag=           0 FMFlag=      100000 FMFlg1=           0
         NFxFlg=           0 DoJE=T BraDBF=F KetDBF=F FulRan=T
         wScrn=  0.000000 ICntrl=     500 IOpCl=  0 I1Cent=           0 NGrid=           0
         NMat0=    1 NMatS0=      1 NMatT0=    0 NMatD0=    1 NMtDS0=    0 NMtDT0=    0
 Symmetry not used in FoFCou.
 Inv3:  Mode=1 IEnd=    31629027.
 Iteration    1 A*A^-1 deviation from unit magnitude is 6.44D-15 for   3245.
 Iteration    1 A*A^-1 deviation from orthogonality  is 4.27D-15 for   3206   2845.
 Iteration    1 A^-1*A deviation from unit magnitude is 6.11D-15 for   3245.
 Iteration    1 A^-1*A deviation from orthogonality  is 2.40D-14 for   2126   2085.
 E= -2681.18624622085    
 DIIS: error= 5.77D-02 at cycle   1 NSaved=   1.
 NSaved= 1 IEnMin= 1 EnMin= -2681.18624622085     IErMin= 1 ErrMin= 5.77D-02
 ErrMax= 5.77D-02  0.00D+00 EMaxC= 1.00D-01 BMatC= 9.37D+00 BMatP= 9.37D+00
 IDIUse=3 WtCom= 4.23D-01 WtEn= 5.77D-01
 Coeff-Com:  0.100D+01
 Coeff-En:   0.100D+01
 Coeff:      0.100D+01
 Gap=     0.448 Goal=   None    Shift=    0.000
 Gap=     0.099 Goal=   None    Shift=    0.000
 GapD=    0.099 DampG=0.500 DampE=0.500 DampFc=0.2500 IDamp=-1.
 Damping current iteration by 2.50D-01
 RMSDP=3.51D-03 MaxDP=1.73D-01              OVMax= 5.17D-01

 Cycle   2  Pass 1  IDiag  1:
 RMSU=  8.77D-04    CP:  1.00D+00
 E= -2681.50825724154     Delta-E=       -0.322011020688 Rises=F Damp=T
 DIIS: error= 4.23D-02 at cycle   2 NSaved=   2.
 NSaved= 2 IEnMin= 2 EnMin= -2681.50825724154     IErMin= 2 ErrMin= 4.23D-02
 ErrMax= 4.23D-02  0.00D+00 EMaxC= 1.00D-01 BMatC= 3.91D+00 BMatP= 9.37D+00
 IDIUse=3 WtCom= 5.77D-01 WtEn= 4.23D-01
 Coeff-Com: -0.150D+01 0.250D+01
 Coeff-En:   0.000D+00 0.100D+01
 Coeff:     -0.865D+00 0.186D+01
 Gap=     0.504 Goal=   None    Shift=    0.000
 Gap=     0.079 Goal=   None    Shift=    0.000
 RMSDP=1.87D-03 MaxDP=6.92D-02 DE=-3.22D-01 OVMax= 4.48D-01

 Cycle   3  Pass 1  IDiag  1:
 RMSU=  1.09D-03    CP:  9.99D-01  2.73D+00
 E= -2682.09645717295     Delta-E=       -0.588199931412 Rises=F Damp=F
 DIIS: error= 8.37D-03 at cycle   3 NSaved=   3.
 NSaved= 3 IEnMin= 3 EnMin= -2682.09645717295     IErMin= 3 ErrMin= 8.37D-03
 ErrMax= 8.37D-03  0.00D+00 EMaxC= 1.00D-01 BMatC= 4.59D-01 BMatP= 3.91D+00
 IDIUse=3 WtCom= 9.16D-01 WtEn= 8.37D-02
 Coeff-Com: -0.565D+00 0.966D+00 0.599D+00
 Coeff-En:   0.000D+00 0.000D+00 0.100D+01
 Coeff:     -0.518D+00 0.885D+00 0.632D+00
 Gap=     0.401 Goal=   None    Shift=    0.000
 Gap=     0.077 Goal=   None    Shift=    0.000
 RMSDP=8.71D-04 MaxDP=1.36D-01 DE=-5.88D-01 OVMax= 3.52D-01

 Cycle   4  Pass 1  IDiag  1:
 RMSU=  5.98D-04    CP:  9.98D-01  2.86D+00  4.29D-01
 E= -2682.14586460863     Delta-E=       -0.049407435679 Rises=F Damp=F
 DIIS: error= 6.50D-03 at cycle   4 NSaved=   4.
 NSaved= 4 IEnMin= 4 EnMin= -2682.14586460863     IErMin= 4 ErrMin= 6.50D-03
 ErrMax= 6.50D-03  0.00D+00 EMaxC= 1.00D-01 BMatC= 2.16D-01 BMatP= 4.59D-01
 IDIUse=3 WtCom= 9.35D-01 WtEn= 6.50D-02
 Coeff-Com: -0.471D-01 0.976D-01 0.404D+00 0.546D+00
 Coeff-En:   0.000D+00 0.000D+00 0.327D+00 0.673D+00
 Coeff:     -0.440D-01 0.913D-01 0.399D+00 0.554D+00
 Gap=     0.402 Goal=   None    Shift=    0.000
 Gap=     0.109 Goal=   None    Shift=    0.000
 RMSDP=4.24D-04 MaxDP=6.64D-02 DE=-4.94D-02 OVMax= 1.31D-01

 Cycle   5  Pass 1  IDiag  1:
 RMSU=  2.26D-04    CP:  9.97D-01  2.80D+00  7.07D-01  6.95D-01
 E= -2682.18526637139     Delta-E=       -0.039401762755 Rises=F Damp=F
 DIIS: error= 1.54D-03 at cycle   5 NSaved=   5.
 NSaved= 5 IEnMin= 5 EnMin= -2682.18526637139     IErMin= 5 ErrMin= 1.54D-03
 ErrMax= 1.54D-03  0.00D+00 EMaxC= 1.00D-01 BMatC= 1.70D-02 BMatP= 2.16D-01
 IDIUse=3 WtCom= 9.85D-01 WtEn= 1.54D-02
 Coeff-Com:  0.393D-01-0.533D-01 0.166D+00 0.316D+00 0.532D+00
 Coeff-En:   0.000D+00 0.000D+00 0.000D+00 0.000D+00 0.100D+01
 Coeff:      0.387D-01-0.525D-01 0.164D+00 0.311D+00 0.539D+00
 Gap=     0.367 Goal=   None    Shift=    0.000
 Gap=     0.116 Goal=   None    Shift=    0.000
 RMSDP=1.29D-04 MaxDP=1.28D-02 DE=-3.94D-02 OVMax= 4.77D-02

 Cycle   6  Pass 1  IDiag  1:
 RMSU=  1.08D-04    CP:  9.97D-01  2.83D+00  6.88D-01  7.92D-01  9.14D-01
 E= -2682.18965448032     Delta-E=       -0.004388108930 Rises=F Damp=F
 DIIS: error= 6.80D-04 at cycle   6 NSaved=   6.
 NSaved= 6 IEnMin= 6 EnMin= -2682.18965448032     IErMin= 6 ErrMin= 6.80D-04
 ErrMax= 6.80D-04  0.00D+00 EMaxC= 1.00D-01 BMatC= 1.33D-03 BMatP= 1.70D-02
 IDIUse=3 WtCom= 9.93D-01 WtEn= 6.80D-03
 Coeff-Com:  0.230D-01-0.334D-01 0.168D-01 0.392D-01 0.166D+00 0.788D+00
 Coeff-En:   0.000D+00 0.000D+00 0.000D+00 0.000D+00 0.000D+00 0.100D+01
 Coeff:      0.228D-01-0.331D-01 0.167D-01 0.389D-01 0.165D+00 0.790D+00
 Gap=     0.361 Goal=   None    Shift=    0.000
 Gap=     0.121 Goal=   None    Shift=    0.000
 RMSDP=9.90D-05 MaxDP=9.27D-03 DE=-4.39D-03 OVMax= 3.69D-02

 Cycle   7  Pass 1  IDiag  1:
 RMSU=  5.22D-05    CP:  9.97D-01  2.84D+00  6.84D-01  8.26D-01  1.17D+00
                    CP:  1.51D+00
 E= -2682.19129565278     Delta-E=       -0.001641172464 Rises=F Damp=F
 DIIS: error= 5.76D-04 at cycle   7 NSaved=   7.
 NSaved= 7 IEnMin= 7 EnMin= -2682.19129565278     IErMin= 7 ErrMin= 5.76D-04
 ErrMax= 5.76D-04  0.00D+00 EMaxC= 1.00D-01 BMatC= 1.03D-03 BMatP= 1.33D-03
 IDIUse=3 WtCom= 9.94D-01 WtEn= 5.76D-03
 Coeff-Com:  0.848D-02-0.121D-01-0.364D-01-0.868D-01-0.826D-01 0.474D+00
 Coeff-Com:  0.736D+00
 Coeff-En:   0.000D+00 0.000D+00 0.000D+00 0.000D+00 0.000D+00 0.000D+00
 Coeff-En:   0.100D+01
 Coeff:      0.843D-02-0.120D-01-0.362D-01-0.863D-01-0.821D-01 0.471D+00
 Coeff:      0.737D+00
 Gap=     0.360 Goal=   None    Shift=    0.000
 Gap=     0.128 Goal=   None    Shift=    0.000
 RMSDP=9.90D-05 MaxDP=8.40D-03 DE=-1.64D-03 OVMax= 3.83D-02

 Cycle   8  Pass 1  IDiag  1:
 RMSU=  3.53D-05    CP:  9.97D-01  2.85D+00  6.79D-01  8.51D-01  1.39D+00
                    CP:  2.17D+00  1.53D+00
 E= -2682.19275747897     Delta-E=       -0.001461826184 Rises=F Damp=F
 DIIS: error= 4.30D-04 at cycle   8 NSaved=   8.
 NSaved= 8 IEnMin= 8 EnMin= -2682.19275747897     IErMin= 8 ErrMin= 4.30D-04
 ErrMax= 4.30D-04  0.00D+00 EMaxC= 1.00D-01 BMatC= 5.49D-04 BMatP= 1.03D-03
 IDIUse=3 WtCom= 9.96D-01 WtEn= 4.30D-03
 Coeff-Com:  0.949D-02-0.118D-01 0.683D-02-0.262D-01-0.611D-01-0.307D+00
 Coeff-Com:  0.592D-01 0.133D+01
 Coeff-En:   0.000D+00 0.000D+00 0.000D+00 0.000D+00 0.000D+00 0.000D+00
 Coeff-En:   0.000D+00 0.100D+01
 Coeff:      0.945D-02-0.118D-01 0.680D-02-0.261D-01-0.608D-01-0.305D+00
 Coeff:      0.590D-01 0.133D+01
 Gap=     0.355 Goal=   None    Shift=    0.000
 Gap=     0.132 Goal=   None    Shift=    0.000
 RMSDP=1.35D-04 MaxDP=1.21D-02 DE=-1.46D-03 OVMax= 5.59D-02

 Cycle   9  Pass 1  IDiag  1:
 RMSU=  2.22D-05    CP:  9.97D-01  2.85D+00  6.67D-01  8.59D-01  1.65D+00
                    CP:  2.98D+00  2.77D+00  2.34D+00
 E= -2682.19432083067     Delta-E=       -0.001563351705 Rises=F Damp=F
 DIIS: error= 3.40D-04 at cycle   9 NSaved=   9.
 NSaved= 9 IEnMin= 9 EnMin= -2682.19432083067     IErMin= 9 ErrMin= 3.40D-04
 ErrMax= 3.40D-04  0.00D+00 EMaxC= 1.00D-01 BMatC= 3.57D-04 BMatP= 5.49D-04
 IDIUse=3 WtCom= 9.97D-01 WtEn= 3.40D-03
 Coeff-Com:  0.111D-01-0.146D-01 0.341D-01 0.327D-01 0.440D-01-0.326D+00
 Coeff-Com: -0.403D+00 0.398D+00 0.122D+01
 Coeff-En:   0.000D+00 0.000D+00 0.000D+00 0.000D+00 0.000D+00 0.000D+00
 Coeff-En:   0.000D+00 0.000D+00 0.100D+01
 Coeff:      0.110D-01-0.146D-01 0.340D-01 0.325D-01 0.438D-01-0.324D+00
 Coeff:     -0.402D+00 0.396D+00 0.122D+01
 Gap=     0.350 Goal=   None    Shift=    0.000
 Gap=     0.137 Goal=   None    Shift=    0.000
 RMSDP=1.29D-04 MaxDP=1.31D-02 DE=-1.56D-03 OVMax= 5.78D-02

 Cycle  10  Pass 1  IDiag  1:
 RMSU=  9.94D-05    CP:  9.97D-01  2.85D+00  6.54D-01  8.54D-01  1.84D+00
                    CP:  3.00D+00  3.00D+00  3.00D+00  2.15D+00
 E= -2682.19539273057     Delta-E=       -0.001071899897 Rises=F Damp=F
 DIIS: error= 2.58D-04 at cycle  10 NSaved=  10.
 NSaved=10 IEnMin=10 EnMin= -2682.19539273057     IErMin=10 ErrMin= 2.58D-04
 ErrMax= 2.58D-04  0.00D+00 EMaxC= 1.00D-01 BMatC= 2.00D-04 BMatP= 3.57D-04
 IDIUse=3 WtCom= 9.97D-01 WtEn= 2.58D-03
 Coeff-Com:  0.634D-02-0.907D-02 0.941D-02 0.854D-02 0.644D-01 0.238D+00
 Coeff-Com: -0.411D-01-0.767D+00 0.155D+00 0.134D+01
 Coeff-En:   0.000D+00 0.000D+00 0.000D+00 0.000D+00 0.000D+00 0.000D+00
 Coeff-En:   0.000D+00 0.000D+00 0.000D+00 0.100D+01
 Coeff:      0.632D-02-0.904D-02 0.938D-02 0.852D-02 0.642D-01 0.237D+00
 Coeff:     -0.410D-01-0.765D+00 0.154D+00 0.134D+01
 Gap=     0.347 Goal=   None    Shift=    0.000
 Gap=     0.138 Goal=   None    Shift=    0.000
 RMSDP=8.33D-05 MaxDP=9.82D-03 DE=-1.07D-03 OVMax= 3.82D-02

 Cycle  11  Pass 1  IDiag  1:
 RMSU=  3.13D-05    CP:  9.97D-01  2.85D+00  6.43D-01  8.36D-01  1.91D+00
                    CP:  3.00D+00  3.00D+00  3.00D+00  3.00D+00  1.69D+00
 E= -2682.19588579486     Delta-E=       -0.000493064288 Rises=F Damp=F
 DIIS: error= 1.80D-04 at cycle  11 NSaved=  11.
 NSaved=11 IEnMin=11 EnMin= -2682.19588579486     IErMin=11 ErrMin= 1.80D-04
 ErrMax= 1.80D-04  0.00D+00 EMaxC= 1.00D-01 BMatC= 1.35D-04 BMatP= 2.00D-04
 IDIUse=3 WtCom= 9.98D-01 WtEn= 1.80D-03
 Coeff-Com:  0.333D-02-0.490D-02 0.696D-04-0.353D-02 0.402D-01 0.226D+00
 Coeff-Com:  0.649D-01-0.746D+00-0.255D+00 0.974D+00 0.701D+00
 Coeff-En:   0.000D+00 0.000D+00 0.000D+00 0.000D+00 0.000D+00 0.000D+00
 Coeff-En:   0.000D+00 0.000D+00 0.000D+00 0.000D+00 0.100D+01
 Coeff:      0.332D-02-0.489D-02 0.695D-04-0.352D-02 0.401D-01 0.225D+00
 Coeff:      0.648D-01-0.744D+00-0.254D+00 0.972D+00 0.701D+00
 Gap=     0.343 Goal=   None    Shift=    0.000
 Gap=     0.140 Goal=   None    Shift=    0.000
 RMSDP=7.76D-05 MaxDP=9.09D-03 DE=-4.93D-04 OVMax= 3.43D-02

 Cycle  12  Pass 1  IDiag  1:
 RMSU=  2.21D-05    CP:  9.97D-01  2.84D+00  6.35D-01  8.22D-01  1.99D+00
                    CP:  3.00D+00  3.00D+00  3.00D+00  3.00D+00  2.35D+00
                    CP:  1.85D+00
 E= -2682.19615483227     Delta-E=       -0.000269037414 Rises=F Damp=F
 DIIS: error= 1.59D-04 at cycle  12 NSaved=  12.
 NSaved=12 IEnMin=12 EnMin= -2682.19615483227     IErMin=12 ErrMin= 1.59D-04
 ErrMax= 1.59D-04  0.00D+00 EMaxC= 1.00D-01 BMatC= 5.31D-05 BMatP= 1.35D-04
 IDIUse=3 WtCom= 9.98D-01 WtEn= 1.59D-03
 Coeff-Com:  0.222D-02-0.307D-02-0.342D-02-0.110D-01 0.908D-03 0.448D-01
 Coeff-Com:  0.143D+00-0.554D-01-0.289D+00-0.951D-01 0.419D+00 0.846D+00
 Coeff-En:   0.000D+00 0.000D+00 0.000D+00 0.000D+00 0.000D+00 0.000D+00
 Coeff-En:   0.000D+00 0.000D+00 0.000D+00 0.000D+00 0.000D+00 0.100D+01
 Coeff:      0.222D-02-0.306D-02-0.342D-02-0.109D-01 0.907D-03 0.448D-01
 Coeff:      0.143D+00-0.553D-01-0.288D+00-0.949D-01 0.419D+00 0.846D+00
 Gap=     0.343 Goal=   None    Shift=    0.000
 Gap=     0.139 Goal=   None    Shift=    0.000
 RMSDP=2.14D-05 MaxDP=2.53D-03 DE=-2.69D-04 OVMax= 8.23D-03

 Cycle  13  Pass 1  IDiag  1:
 RMSU=  1.19D-05    CP:  9.96D-01  2.84D+00  6.32D-01  8.16D-01  1.99D+00
                    CP:  3.00D+00  3.00D+00  3.00D+00  3.00D+00  2.42D+00
                    CP:  2.33D+00  1.14D+00
 E= -2682.19621070508     Delta-E=       -0.000055872809 Rises=F Damp=F
 DIIS: error= 8.84D-05 at cycle  13 NSaved=  13.
 NSaved=13 IEnMin=13 EnMin= -2682.19621070508     IErMin=13 ErrMin= 8.84D-05
 ErrMax= 8.84D-05  0.00D+00 EMaxC= 1.00D-01 BMatC= 3.73D-05 BMatP= 5.31D-05
 IDIUse=1 WtCom= 1.00D+00 WtEn= 0.00D+00
 Coeff-Com:  0.162D-02-0.204D-02 0.250D-02-0.132D-02-0.104D-01-0.150D+00
 Coeff-Com:  0.211D-01 0.345D+00 0.358D-01-0.631D+00-0.163D+00 0.657D+00
 Coeff-Com:  0.896D+00
 Coeff:      0.162D-02-0.204D-02 0.250D-02-0.132D-02-0.104D-01-0.150D+00
 Coeff:      0.211D-01 0.345D+00 0.358D-01-0.631D+00-0.163D+00 0.657D+00
 Coeff:      0.896D+00
 Gap=     0.341 Goal=   None    Shift=    0.000
 Gap=     0.141 Goal=   None    Shift=    0.000
 RMSDP=4.33D-05 MaxDP=5.50D-03 DE=-5.59D-05 OVMax= 1.78D-02

 Cycle  14  Pass 1  IDiag  1:
 RMSU=  6.73D-06    CP:  9.96D-01  2.84D+00  6.27D-01  8.07D-01  2.03D+00
                    CP:  3.00D+00  3.00D+00  3.00D+00  3.00D+00  2.75D+00
                    CP:  2.93D+00  1.80D+00  1.60D+00
 E= -2682.19627450219     Delta-E=       -0.000063797107 Rises=F Damp=F
 DIIS: error= 6.66D-05 at cycle  14 NSaved=  14.
 NSaved=14 IEnMin=14 EnMin= -2682.19627450219     IErMin=14 ErrMin= 6.66D-05
 ErrMax= 6.66D-05  0.00D+00 EMaxC= 1.00D-01 BMatC= 1.01D-05 BMatP= 3.73D-05
 IDIUse=1 WtCom= 1.00D+00 WtEn= 0.00D+00
 Coeff-Com:  0.101D-02-0.134D-02 0.404D-02 0.319D-02 0.485D-02-0.544D-01
 Coeff-Com: -0.429D-01 0.104D+00 0.140D+00-0.159D+00-0.118D+00-0.252D+00
 Coeff-Com:  0.285D+00 0.108D+01
 Coeff:      0.101D-02-0.134D-02 0.404D-02 0.319D-02 0.485D-02-0.544D-01
 Coeff:     -0.429D-01 0.104D+00 0.140D+00-0.159D+00-0.118D+00-0.252D+00
 Coeff:      0.285D+00 0.108D+01
 Gap=     0.341 Goal=   None    Shift=    0.000
 Gap=     0.140 Goal=   None    Shift=    0.000
 RMSDP=1.27D-05 MaxDP=1.39D-03 DE=-6.38D-05 OVMax= 5.31D-03

 Cycle  15  Pass 1  IDiag  1:
 RMSU=  5.72D-06    CP:  9.96D-01  2.84D+00  6.25D-01  8.05D-01  2.03D+00
                    CP:  3.00D+00  3.00D+00  3.00D+00  3.00D+00  2.78D+00
                    CP:  3.00D+00  1.94D+00  2.27D+00  1.60D+00
 E= -2682.19628831415     Delta-E=       -0.000013811962 Rises=F Damp=F
 DIIS: error= 4.84D-05 at cycle  15 NSaved=  15.
 NSaved=15 IEnMin=15 EnMin= -2682.19628831415     IErMin=15 ErrMin= 4.84D-05
 ErrMax= 4.84D-05  0.00D+00 EMaxC= 1.00D-01 BMatC= 4.46D-06 BMatP= 1.01D-05
 IDIUse=1 WtCom= 1.00D+00 WtEn= 0.00D+00
 Coeff-Com:  0.882D-03-0.123D-02 0.185D-02 0.115D-02 0.103D-01 0.308D-01
 Coeff-Com: -0.189D-01-0.906D-01 0.252D-01 0.158D+00 0.535D-01-0.284D+00
 Coeff-Com: -0.248D+00 0.278D+00 0.108D+01
 Coeff:      0.882D-03-0.123D-02 0.185D-02 0.115D-02 0.103D-01 0.308D-01
 Coeff:     -0.189D-01-0.906D-01 0.252D-01 0.158D+00 0.535D-01-0.284D+00
 Coeff:     -0.248D+00 0.278D+00 0.108D+01
 Gap=     0.340 Goal=   None    Shift=    0.000
 Gap=     0.140 Goal=   None    Shift=    0.000
 RMSDP=8.64D-06 MaxDP=9.86D-04 DE=-1.38D-05 OVMax= 3.03D-03

 Cycle  16  Pass 1  IDiag  1:
 RMSU=  2.08D-06    CP:  9.96D-01  2.84D+00  6.23D-01  8.04D-01  2.03D+00
                    CP:  3.00D+00  3.00D+00  3.00D+00  3.00D+00  2.80D+00
                    CP:  3.00D+00  2.04D+00  2.65D+00  2.13D+00  1.89D+00
 E= -2682.19629497536     Delta-E=       -0.000006661217 Rises=F Damp=F
 DIIS: error= 3.87D-05 at cycle  16 NSaved=  16.
 NSaved=16 IEnMin=16 EnMin= -2682.19629497536     IErMin=16 ErrMin= 3.87D-05
 ErrMax= 3.87D-05  0.00D+00 EMaxC= 1.00D-01 BMatC= 2.70D-06 BMatP= 4.46D-06
 IDIUse=1 WtCom= 1.00D+00 WtEn= 0.00D+00
 Coeff-Com:  0.831D-03-0.116D-02 0.398D-03-0.698D-03 0.577D-02 0.243D-01
 Coeff-Com:  0.769D-02-0.701D-01-0.340D-01 0.125D+00 0.557D-01-0.149D-01
 Coeff-Com: -0.272D+00-0.258D+00 0.487D+00 0.945D+00
 Coeff:      0.831D-03-0.116D-02 0.398D-03-0.698D-03 0.577D-02 0.243D-01
 Coeff:      0.769D-02-0.701D-01-0.340D-01 0.125D+00 0.557D-01-0.149D-01
 Coeff:     -0.272D+00-0.258D+00 0.487D+00 0.945D+00
 Gap=     0.340 Goal=   None    Shift=    0.000
 Gap=     0.140 Goal=   None    Shift=    0.000
 RMSDP=7.14D-06 MaxDP=8.53D-04 DE=-6.66D-06 OVMax= 2.36D-03

 Cycle  17  Pass 1  IDiag  1:
 RMSU=  1.36D-06    CP:  9.96D-01  2.84D+00  6.22D-01  8.03D-01  2.03D+00
                    CP:  3.00D+00  3.00D+00  3.00D+00  3.00D+00  2.82D+00
                    CP:  3.00D+00  2.13D+00  2.89D+00  2.57D+00  2.62D+00
                    CP:  1.96D+00
 E= -2682.19629917114     Delta-E=       -0.000004195776 Rises=F Damp=F
 DIIS: error= 3.13D-05 at cycle  17 NSaved=  17.
 NSaved=17 IEnMin=17 EnMin= -2682.19629917114     IErMin=17 ErrMin= 3.13D-05
 ErrMax= 3.13D-05  0.00D+00 EMaxC= 1.00D-01 BMatC= 1.18D-06 BMatP= 2.70D-06
 IDIUse=1 WtCom= 1.00D+00 WtEn= 0.00D+00
 Coeff-Com:  0.450D-03-0.614D-03 0.602D-04-0.504D-03-0.974D-04-0.109D-01
 Coeff-Com:  0.143D-01 0.189D-01-0.163D-01-0.376D-01-0.156D-01 0.133D+00
 Coeff-Com:  0.126D-01-0.170D+00-0.465D+00 0.111D+00 0.143D+01
 Coeff:      0.450D-03-0.614D-03 0.602D-04-0.504D-03-0.974D-04-0.109D-01
 Coeff:      0.143D-01 0.189D-01-0.163D-01-0.376D-01-0.156D-01 0.133D+00
 Coeff:      0.126D-01-0.170D+00-0.465D+00 0.111D+00 0.143D+01
 Gap=     0.340 Goal=   None    Shift=    0.000
 Gap=     0.140 Goal=   None    Shift=    0.000
 RMSDP=8.37D-06 MaxDP=1.09D-03 DE=-4.20D-06 OVMax= 2.95D-03

 Cycle  18  Pass 1  IDiag  1:
 RMSU=  3.66D-06    CP:  9.96D-01  2.84D+00  6.21D-01  8.03D-01  2.03D+00
                    CP:  3.00D+00  3.00D+00  3.00D+00  3.00D+00  2.84D+00
                    CP:  3.00D+00  2.22D+00  3.00D+00  3.00D+00  3.00D+00
                    CP:  3.00D+00  2.52D+00
 E= -2682.19630265564     Delta-E=       -0.000003484500 Rises=F Damp=F
 DIIS: error= 2.16D-05 at cycle  18 NSaved=  18.
 NSaved=18 IEnMin=18 EnMin= -2682.19630265564     IErMin=18 ErrMin= 2.16D-05
 ErrMax= 2.16D-05  0.00D+00 EMaxC= 1.00D-01 BMatC= 3.87D-07 BMatP= 1.18D-06
 IDIUse=1 WtCom= 1.00D+00 WtEn= 0.00D+00
 Coeff-Com:  0.367D-04-0.363D-04 0.583D-03 0.682D-03-0.899D-03-0.181D-01
 Coeff-Com: -0.390D-02 0.399D-01 0.275D-01-0.752D-01-0.339D-01 0.327D-01
 Coeff-Com:  0.127D+00 0.130D+00-0.386D+00-0.492D+00 0.435D+00 0.122D+01
 Coeff:      0.367D-04-0.363D-04 0.583D-03 0.682D-03-0.899D-03-0.181D-01
 Coeff:     -0.390D-02 0.399D-01 0.275D-01-0.752D-01-0.339D-01 0.327D-01
 Coeff:      0.127D+00 0.130D+00-0.386D+00-0.492D+00 0.435D+00 0.122D+01
 Gap=     0.340 Goal=   None    Shift=    0.000
 Gap=     0.140 Goal=   None    Shift=    0.000
 RMSDP=6.08D-06 MaxDP=9.23D-04 DE=-3.48D-06 OVMax= 2.34D-03

 Cycle  19  Pass 1  IDiag  1:
 RMSU=  2.82D-06    CP:  9.96D-01  2.84D+00  6.19D-01  8.03D-01  2.02D+00
                    CP:  3.00D+00  3.00D+00  3.00D+00  3.00D+00  2.84D+00
                    CP:  3.00D+00  2.26D+00  3.00D+00  3.00D+00  3.00D+00
                    CP:  3.00D+00  3.00D+00  2.31D+00
 E= -2682.19630439968     Delta-E=       -0.000001744040 Rises=F Damp=F
 DIIS: error= 1.29D-05 at cycle  19 NSaved=  19.
 NSaved=19 IEnMin=19 EnMin= -2682.19630439968     IErMin=19 ErrMin= 1.29D-05
 ErrMax= 1.29D-05  0.00D+00 EMaxC= 1.00D-01 BMatC= 1.83D-07 BMatP= 3.87D-07
 IDIUse=1 WtCom= 1.00D+00 WtEn= 0.00D+00
 Coeff-Com: -0.708D-04 0.990D-04 0.388D-03 0.492D-03 0.432D-03 0.913D-03
 Coeff-Com: -0.908D-02 0.425D-02 0.205D-01-0.764D-02-0.846D-02-0.495D-01
 Coeff-Com:  0.100D-01 0.156D+00 0.952D-01-0.202D+00-0.611D+00 0.453D+00
 Coeff-Com:  0.115D+01
 Coeff:     -0.708D-04 0.990D-04 0.388D-03 0.492D-03 0.432D-03 0.913D-03
 Coeff:     -0.908D-02 0.425D-02 0.205D-01-0.764D-02-0.846D-02-0.495D-01
 Coeff:      0.100D-01 0.156D+00 0.952D-01-0.202D+00-0.611D+00 0.453D+00
 Coeff:      0.115D+01
 Gap=     0.340 Goal=   None    Shift=    0.000
 Gap=     0.140 Goal=   None    Shift=    0.000
 RMSDP=4.58D-06 MaxDP=7.31D-04 DE=-1.74D-06 OVMax= 1.90D-03

 Cycle  20  Pass 1  IDiag  1:
 RMSU=  1.43D-06    CP:  9.96D-01  2.84D+00  6.18D-01  8.03D-01  2.02D+00
                    CP:  3.00D+00  3.00D+00  3.00D+00  3.00D+00  2.84D+00
                    CP:  3.00D+00  2.29D+00  3.00D+00  3.00D+00  3.00D+00
                    CP:  3.00D+00  3.00D+00  3.00D+00  1.84D+00
 E= -2682.19630528490     Delta-E=       -0.000000885220 Rises=F Damp=F
 DIIS: error= 8.68D-06 at cycle  20 NSaved=  20.
 NSaved=20 IEnMin=20 EnMin= -2682.19630528490     IErMin=20 ErrMin= 8.68D-06
 ErrMax= 8.68D-06  0.00D+00 EMaxC= 1.00D-01 BMatC= 1.68D-07 BMatP= 1.83D-07
 IDIUse=1 WtCom= 1.00D+00 WtEn= 0.00D+00
 Coeff-Com:  0.506D-04-0.692D-04 0.117D-03 0.124D-04 0.230D-03 0.257D-02
 Coeff-Com: -0.340D-02-0.229D-02 0.357D-02 0.125D-01-0.109D-01-0.105D-03
 Coeff-Com: -0.581D-01 0.414D-01 0.152D+00 0.993D-01-0.415D+00-0.299D+00
 Coeff-Com:  0.337D+00 0.114D+01
 Coeff:      0.506D-04-0.692D-04 0.117D-03 0.124D-04 0.230D-03 0.257D-02
 Coeff:     -0.340D-02-0.229D-02 0.357D-02 0.125D-01-0.109D-01-0.105D-03
 Coeff:     -0.581D-01 0.414D-01 0.152D+00 0.993D-01-0.415D+00-0.299D+00
 Coeff:      0.337D+00 0.114D+01
 Gap=     0.340 Goal=   None    Shift=    0.000
 Gap=     0.140 Goal=   None    Shift=    0.000
 RMSDP=3.73D-06 MaxDP=5.39D-04 DE=-8.85D-07 OVMax= 1.79D-03

 Cycle  21  Pass 1  IDiag  1:
 Restarting incremental Fock formation.
 E= -2682.19630576951     Delta-E=       -0.000000484607 Rises=F Damp=F
 DIIS: error= 5.24D-06 at cycle  21 NSaved=  20.
 NSaved=20 IEnMin=20 EnMin= -2682.19630576951     IErMin=20 ErrMin= 5.24D-06
 ErrMax= 5.24D-06  0.00D+00 EMaxC= 1.00D-01 BMatC= 4.98D-08 BMatP= 1.68D-07
 IDIUse=1 WtCom= 1.00D+00 WtEn= 0.00D+00
 Coeff-Com:  0.138D-04-0.535D-04-0.220D-03-0.367D-03-0.634D-03 0.235D-02
 Coeff-Com:  0.207D-03-0.405D-02 0.449D-02-0.920D-02 0.324D-01-0.328D-01
 Coeff-Com: -0.310D-01-0.423D-02 0.107D+00 0.993D-01-0.269D+00-0.458D+00
 Coeff-Com:  0.402D+00 0.116D+01
 Coeff:      0.138D-04-0.535D-04-0.220D-03-0.367D-03-0.634D-03 0.235D-02
 Coeff:      0.207D-03-0.405D-02 0.449D-02-0.920D-02 0.324D-01-0.328D-01
 Coeff:     -0.310D-01-0.423D-02 0.107D+00 0.993D-01-0.269D+00-0.458D+00
 Coeff:      0.402D+00 0.116D+01
 Gap=     0.340 Goal=   None    Shift=    0.000
 Gap=     0.140 Goal=   None    Shift=    0.000
 RMSDP=2.97D-06 MaxDP=4.28D-04 DE=-4.85D-07 OVMax= 1.39D-03

 Cycle  22  Pass 1  IDiag  1:
 RMSU=  2.97D-06    CP:  1.00D+00
 E= -2682.19630597300     Delta-E=       -0.000000203489 Rises=F Damp=F
 DIIS: error= 3.70D-06 at cycle  22 NSaved=  20.
 NSaved=20 IEnMin=20 EnMin= -2682.19630597300     IErMin=20 ErrMin= 3.70D-06
 ErrMax= 3.70D-06  0.00D+00 EMaxC= 1.00D-01 BMatC= 1.22D-08 BMatP= 4.98D-08
 IDIUse=1 WtCom= 1.00D+00 WtEn= 0.00D+00
 Coeff-Com:  0.469D-05 0.383D-04-0.459D-04-0.167D-02 0.162D-02 0.209D-02
 Coeff-Com:  0.233D-03-0.473D-02 0.839D-03 0.122D-01 0.119D-01-0.269D-01
 Coeff-Com: -0.717D-01 0.135D-01 0.216D+00 0.795D-01-0.313D+00-0.428D+00
 Coeff-Com:  0.375D+00 0.113D+01
 Coeff:      0.469D-05 0.383D-04-0.459D-04-0.167D-02 0.162D-02 0.209D-02
 Coeff:      0.233D-03-0.473D-02 0.839D-03 0.122D-01 0.119D-01-0.269D-01
 Coeff:     -0.717D-01 0.135D-01 0.216D+00 0.795D-01-0.313D+00-0.428D+00
 Coeff:      0.375D+00 0.113D+01
 Gap=     0.340 Goal=   None    Shift=    0.000
 Gap=     0.140 Goal=   None    Shift=    0.000
 RMSDP=1.24D-06 MaxDP=1.93D-04 DE=-2.03D-07 OVMax= 5.80D-04

 Cycle  23  Pass 1  IDiag  1:
 RMSU=  9.97D-07    CP:  1.00D+00  1.25D+00
 E= -2682.19630602692     Delta-E=       -0.000000053922 Rises=F Damp=F
 DIIS: error= 1.37D-06 at cycle  23 NSaved=  20.
 NSaved=20 IEnMin=20 EnMin= -2682.19630602692     IErMin=20 ErrMin= 1.37D-06
 ErrMax= 1.37D-06  0.00D+00 EMaxC= 1.00D-01 BMatC= 8.00D-09 BMatP= 1.22D-08
 IDIUse=1 WtCom= 1.00D+00 WtEn= 0.00D+00
 Coeff-Com:  0.219D-04-0.160D-03-0.672D-03-0.202D-03 0.261D-02 0.174D-02
 Coeff-Com: -0.585D-02-0.226D-02 0.255D-02 0.951D-02 0.996D-02-0.291D-01
 Coeff-Com: -0.341D-01 0.999D-02 0.111D+00 0.687D-01-0.197D+00-0.256D+00
 Coeff-Com:  0.155D+00 0.115D+01
 Coeff:      0.219D-04-0.160D-03-0.672D-03-0.202D-03 0.261D-02 0.174D-02
 Coeff:     -0.585D-02-0.226D-02 0.255D-02 0.951D-02 0.996D-02-0.291D-01
 Coeff:     -0.341D-01 0.999D-02 0.111D+00 0.687D-01-0.197D+00-0.256D+00
 Coeff:      0.155D+00 0.115D+01
 Gap=     0.340 Goal=   None    Shift=    0.000
 Gap=     0.140 Goal=   None    Shift=    0.000
 RMSDP=6.77D-07 MaxDP=8.50D-05 DE=-5.39D-08 OVMax= 2.48D-04

 Cycle  24  Pass 1  IDiag  1:
 RMSU=  2.03D-07    CP:  1.00D+00  1.46D+00  1.15D+00
 E= -2682.19630604129     Delta-E=       -0.000000014368 Rises=F Damp=F
 DIIS: error= 4.94D-07 at cycle  24 NSaved=  20.
 NSaved=20 IEnMin=20 EnMin= -2682.19630604129     IErMin=20 ErrMin= 4.94D-07
 ErrMax= 4.94D-07  0.00D+00 EMaxC= 1.00D-01 BMatC= 1.73D-09 BMatP= 8.00D-09
 IDIUse=1 WtCom= 1.00D+00 WtEn= 0.00D+00
 Coeff-Com: -0.100D-03-0.387D-04-0.503D-03 0.107D-02 0.891D-03-0.203D-02
 Coeff-Com: -0.260D-02 0.637D-03 0.695D-03 0.130D-01 0.431D-03-0.202D-01
 Coeff-Com: -0.480D-01 0.289D-01 0.101D+00 0.274D-01-0.180D+00-0.218D+00
 Coeff-Com:  0.382D+00 0.915D+00
 Coeff:     -0.100D-03-0.387D-04-0.503D-03 0.107D-02 0.891D-03-0.203D-02
 Coeff:     -0.260D-02 0.637D-03 0.695D-03 0.130D-01 0.431D-03-0.202D-01
 Coeff:     -0.480D-01 0.289D-01 0.101D+00 0.274D-01-0.180D+00-0.218D+00
 Coeff:      0.382D+00 0.915D+00
 Gap=     0.340 Goal=   None    Shift=    0.000
 Gap=     0.140 Goal=   None    Shift=    0.000
 RMSDP=3.04D-07 MaxDP=3.39D-05 DE=-1.44D-08 OVMax= 1.24D-04

 Cycle  25  Pass 1  IDiag  1:
 RMSU=  3.73D-08    CP:  1.00D+00  1.55D+00  1.15D+00  1.57D+00
 E= -2682.19630604387     Delta-E=       -0.000000002588 Rises=F Damp=F
 DIIS: error= 2.62D-07 at cycle  25 NSaved=  20.
 NSaved=20 IEnMin=20 EnMin= -2682.19630604387     IErMin=20 ErrMin= 2.62D-07
 ErrMax= 2.62D-07  0.00D+00 EMaxC= 1.00D-01 BMatC= 2.96D-10 BMatP= 1.73D-09
 IDIUse=1 WtCom= 1.00D+00 WtEn= 0.00D+00
 Coeff-Com: -0.293D-05-0.462D-04 0.838D-04-0.201D-03 0.423D-03-0.382D-03
 Coeff-Com:  0.400D-03-0.199D-02 0.361D-03 0.702D-02 0.551D-02-0.155D-01
 Coeff-Com: -0.277D-01 0.777D-02 0.765D-01 0.279D-01-0.119D+00-0.299D+00
 Coeff-Com:  0.340D+00 0.998D+00
 Coeff:     -0.293D-05-0.462D-04 0.838D-04-0.201D-03 0.423D-03-0.382D-03
 Coeff:      0.400D-03-0.199D-02 0.361D-03 0.702D-02 0.551D-02-0.155D-01
 Coeff:     -0.277D-01 0.777D-02 0.765D-01 0.279D-01-0.119D+00-0.299D+00
 Coeff:      0.340D+00 0.998D+00
 Gap=     0.340 Goal=   None    Shift=    0.000
 Gap=     0.140 Goal=   None    Shift=    0.000
 RMSDP=1.11D-07 MaxDP=1.09D-05 DE=-2.59D-09 OVMax= 5.36D-05

 Cycle  26  Pass 1  IDiag  1:
 RMSU=  3.31D-08    CP:  1.00D+00  1.57D+00  1.22D+00  1.83D+00  1.42D+00
 E= -2682.19630604421     Delta-E=       -0.000000000337 Rises=F Damp=F
 DIIS: error= 1.38D-07 at cycle  26 NSaved=  20.
 NSaved=20 IEnMin=20 EnMin= -2682.19630604421     IErMin=20 ErrMin= 1.38D-07
 ErrMax= 1.38D-07  0.00D+00 EMaxC= 1.00D-01 BMatC= 6.76D-11 BMatP= 2.96D-10
 IDIUse=1 WtCom= 1.00D+00 WtEn= 0.00D+00
 Coeff-Com:  0.105D-03-0.133D-03-0.197D-03 0.464D-03 0.469D-03-0.805D-04
 Coeff-Com: -0.620D-03-0.251D-02 0.198D-02 0.623D-02 0.544D-02-0.127D-01
 Coeff-Com: -0.181D-01 0.146D-01 0.425D-01 0.170D-01-0.143D+00-0.135D+00
 Coeff-Com:  0.199D+00 0.102D+01
 Coeff:      0.105D-03-0.133D-03-0.197D-03 0.464D-03 0.469D-03-0.805D-04
 Coeff:     -0.620D-03-0.251D-02 0.198D-02 0.623D-02 0.544D-02-0.127D-01
 Coeff:     -0.181D-01 0.146D-01 0.425D-01 0.170D-01-0.143D+00-0.135D+00
 Coeff:      0.199D+00 0.102D+01
 Gap=     0.340 Goal=   None    Shift=    0.000
 Gap=     0.140 Goal=   None    Shift=    0.000
 RMSDP=5.49D-08 MaxDP=4.49D-06 DE=-3.37D-10 OVMax= 2.32D-05

 Cycle  27  Pass 1  IDiag  1:
 RMSU=  1.24D-08    CP:  1.00D+00  1.56D+00  1.26D+00  1.90D+00  1.67D+00
                    CP:  1.38D+00
 E= -2682.19630604430     Delta-E=       -0.000000000094 Rises=F Damp=F
 DIIS: error= 6.29D-08 at cycle  27 NSaved=  20.
 NSaved=20 IEnMin=20 EnMin= -2682.19630604430     IErMin=20 ErrMin= 6.29D-08
 ErrMax= 6.29D-08  0.00D+00 EMaxC= 1.00D-01 BMatC= 2.88D-11 BMatP= 6.76D-11
 IDIUse=1 WtCom= 1.00D+00 WtEn= 0.00D+00
 Coeff-Com: -0.876D-04 0.445D-04 0.960D-04 0.227D-03-0.261D-03 0.325D-03
 Coeff-Com: -0.621D-03-0.913D-03 0.776D-03 0.605D-02 0.237D-02-0.966D-02
 Coeff-Com: -0.145D-01 0.144D-01 0.413D-01-0.755D-02-0.144D+00-0.136D+00
 Coeff-Com:  0.399D+00 0.849D+00
 Coeff:     -0.876D-04 0.445D-04 0.960D-04 0.227D-03-0.261D-03 0.325D-03
 Coeff:     -0.621D-03-0.913D-03 0.776D-03 0.605D-02 0.237D-02-0.966D-02
 Coeff:     -0.145D-01 0.144D-01 0.413D-01-0.755D-02-0.144D+00-0.136D+00
 Coeff:      0.399D+00 0.849D+00
 Gap=     0.340 Goal=   None    Shift=    0.000
 Gap=     0.140 Goal=   None    Shift=    0.000
 RMSDP=2.19D-08 MaxDP=2.33D-06 DE=-9.37D-11 OVMax= 8.12D-06

 Cycle  28  Pass 1  IDiag  1:
 RMSU=  1.18D-08    CP:  1.00D+00  1.56D+00  1.26D+00  1.96D+00  1.78D+00
                    CP:  1.29D+00  1.78D+00
 E= -2682.19630604429     Delta-E=        0.000000000015 Rises=F Damp=F
 DIIS: error= 2.68D-08 at cycle  28 NSaved=  20.
 NSaved=20 IEnMin=19 EnMin= -2682.19630604430     IErMin=20 ErrMin= 2.68D-08
 ErrMax= 2.68D-08  0.00D+00 EMaxC= 1.00D-01 BMatC= 5.10D-12 BMatP= 2.88D-11
 IDIUse=1 WtCom= 1.00D+00 WtEn= 0.00D+00
 Coeff-Com:  0.512D-05-0.835D-04-0.210D-05 0.120D-03 0.241D-03-0.151D-03
 Coeff-Com: -0.127D-02-0.617D-03 0.226D-02 0.301D-02-0.143D-02-0.781D-02
 Coeff-Com: -0.288D-02 0.110D-01 0.348D-01-0.262D-01-0.111D+00-0.497D-01
 Coeff-Com:  0.303D+00 0.846D+00
 Coeff:      0.512D-05-0.835D-04-0.210D-05 0.120D-03 0.241D-03-0.151D-03
 Coeff:     -0.127D-02-0.617D-03 0.226D-02 0.301D-02-0.143D-02-0.781D-02
 Coeff:     -0.288D-02 0.110D-01 0.348D-01-0.262D-01-0.111D+00-0.497D-01
 Coeff:      0.303D+00 0.846D+00
 Gap=     0.340 Goal=   None    Shift=    0.000
 Gap=     0.140 Goal=   None    Shift=    0.000
 RMSDP=6.98D-09 MaxDP=7.22D-07 DE= 1.46D-11 OVMax= 2.85D-06

 Error on total polarization charges =  0.00093
 SCF Done:  E(UCAM-B3LYP) =  -2682.19630604     A.U. after   28 cycles
            NFock= 28  Conv=0.70D-08     -V/T= 2.0073
 <Sx>= 0.0000 <Sy>= 0.0000 <Sz>= 0.5000 <S**2>= 0.7800 S= 0.5149
 <L.S>= 0.000000000000E+00
 KE= 2.662802225933D+03 PE=-1.669277020142D+04 EE= 6.154766999665D+03
 Annihilation of the first spin contaminant:
 S**2 before annihilation     0.7800,   after     0.7502
 Leave Link  502 at Sun Mar  3 18:07:43 2024, MaxMem=  5368709120 cpu:      2675.1
 (Enter /home/k0335/k033513/app/g09/l601.exe)
 Copying SCF densities to generalized density rwf, IOpCl= 1 IROHF=0.

 **********************************************************************

            Population analysis using the SCF density.

 **********************************************************************

 Alpha  occ. eigenvalues --  -24.88008 -24.87244 -24.86893 -24.86863 -24.86862
 Alpha  occ. eigenvalues --  -24.86832 -24.86550 -24.86246 -24.86198 -24.86158
 Alpha  occ. eigenvalues --  -24.85973 -24.85927 -24.85664 -24.85636 -24.85593
 Alpha  occ. eigenvalues --  -24.85450 -24.85023 -24.84880 -19.38254 -19.36358
 Alpha  occ. eigenvalues --  -19.36021 -19.29642 -14.66369 -14.60032 -14.57406
 Alpha  occ. eigenvalues --  -10.62012 -10.61932 -10.58543 -10.58116 -10.57790
 Alpha  occ. eigenvalues --  -10.57223 -10.55627 -10.53178 -10.52519 -10.51956
 Alpha  occ. eigenvalues --  -10.47127  -1.45883  -1.45300  -1.44880  -1.44476
 Alpha  occ. eigenvalues --   -1.42931  -1.42725  -1.40034  -1.39046  -1.36603
 Alpha  occ. eigenvalues --   -1.36029  -1.35856  -1.35783  -1.35729  -1.35264
 Alpha  occ. eigenvalues --   -1.35217  -1.35111  -1.34762  -1.34468  -1.32609
 Alpha  occ. eigenvalues --   -1.25916  -1.23683  -1.23677  -1.21916  -1.16244
 Alpha  occ. eigenvalues --   -1.14152  -0.98064  -0.97244  -0.94519  -0.90360
 Alpha  occ. eigenvalues --   -0.88879  -0.85565  -0.85052  -0.83420  -0.82249
 Alpha  occ. eigenvalues --   -0.79878  -0.78575  -0.77787  -0.76576  -0.75884
 Alpha  occ. eigenvalues --   -0.74882  -0.74643  -0.74130  -0.73767  -0.73652
 Alpha  occ. eigenvalues --   -0.72355  -0.72184  -0.72011  -0.71900  -0.71572
 Alpha  occ. eigenvalues --   -0.70859  -0.70568  -0.70277  -0.69544  -0.69246
 Alpha  occ. eigenvalues --   -0.68368  -0.67907  -0.67447  -0.66059  -0.64080
 Alpha  occ. eigenvalues --   -0.63078  -0.62222  -0.61534  -0.60702  -0.60182
 Alpha  occ. eigenvalues --   -0.59871  -0.59717  -0.59443  -0.59231  -0.58893
 Alpha  occ. eigenvalues --   -0.58824  -0.58724  -0.58492  -0.58179  -0.57626
 Alpha  occ. eigenvalues --   -0.57461  -0.57091  -0.56696  -0.56650  -0.56143
 Alpha  occ. eigenvalues --   -0.55746  -0.55446  -0.55283  -0.55031  -0.54672
 Alpha  occ. eigenvalues --   -0.54401  -0.54300  -0.54161  -0.54067  -0.53602
 Alpha  occ. eigenvalues --   -0.53186  -0.52924  -0.52767  -0.52687  -0.52163
 Alpha  occ. eigenvalues --   -0.51987  -0.51949  -0.51840  -0.51588  -0.51434
 Alpha  occ. eigenvalues --   -0.51021  -0.50071  -0.47992  -0.46714  -0.45407
 Alpha  occ. eigenvalues --   -0.44478  -0.42228
 Alpha virt. eigenvalues --   -0.08265  -0.01594   0.00162   0.02233   0.02877
 Alpha virt. eigenvalues --    0.04470   0.05200   0.09281   0.10532   0.10819
 Alpha virt. eigenvalues --    0.11715   0.12643   0.13811   0.14246   0.15740
 Alpha virt. eigenvalues --    0.16367   0.16854   0.17037   0.18152   0.19119
 Alpha virt. eigenvalues --    0.19695   0.20391   0.20481   0.20617   0.20950
 Alpha virt. eigenvalues --    0.21234   0.21723   0.21935   0.22134   0.23678
 Alpha virt. eigenvalues --    0.24158   0.25924   0.26190   0.27061   0.27441
 Alpha virt. eigenvalues --    0.28985   0.30373   0.31318   0.32016   0.35894
 Alpha virt. eigenvalues --    0.40316   0.40838   0.42787   0.44415   0.45760
 Alpha virt. eigenvalues --    0.45842   0.47568   0.47821   0.48225   0.48945
 Alpha virt. eigenvalues --    0.49331   0.49938   0.50295   0.50841   0.51206
 Alpha virt. eigenvalues --    0.51980   0.52638   0.52898   0.53354   0.53990
 Alpha virt. eigenvalues --    0.55617   0.55757   0.56730   0.58484   0.59317
 Alpha virt. eigenvalues --    0.60105   0.61212   0.62780   0.63773   0.64637
 Alpha virt. eigenvalues --    0.65678   0.66886   0.67637   0.69113   0.72415
 Alpha virt. eigenvalues --    0.73582   0.75171   0.76254   0.77345   0.77844
 Alpha virt. eigenvalues --    0.78534   0.80081   0.81312   0.82266   0.83046
 Alpha virt. eigenvalues --    0.83779   0.85672   0.87693   0.89117   0.90592
 Alpha virt. eigenvalues --    0.91388   0.93346   0.94255   0.96868   0.98490
 Alpha virt. eigenvalues --    0.98969   1.00122   1.00457   1.01296   1.01801
 Alpha virt. eigenvalues --    1.03210   1.04246   1.05176   1.06288   1.06972
 Alpha virt. eigenvalues --    1.08596   1.09192   1.09625   1.09881   1.10387
 Alpha virt. eigenvalues --    1.11552   1.11889   1.12782   1.13725   1.13891
 Alpha virt. eigenvalues --    1.14470   1.15506   1.15683   1.16070   1.17575
 Alpha virt. eigenvalues --    1.17947   1.19503   1.19587   1.19994   1.20957
 Alpha virt. eigenvalues --    1.21723   1.22740   1.24485   1.24593   1.24787
 Alpha virt. eigenvalues --    1.25885   1.26792   1.27484   1.28165   1.28504
 Alpha virt. eigenvalues --    1.29908   1.30328   1.31885   1.32181   1.33002
 Alpha virt. eigenvalues --    1.33084   1.33246   1.33839   1.34932   1.35298
 Alpha virt. eigenvalues --    1.35642   1.36541   1.37070   1.37439   1.37749
 Alpha virt. eigenvalues --    1.37894   1.37987   1.38598   1.38787   1.39340
 Alpha virt. eigenvalues --    1.39722   1.39813   1.40675   1.41137   1.41693
 Alpha virt. eigenvalues --    1.41872   1.42453   1.42695   1.44220   1.45113
 Alpha virt. eigenvalues --    1.46107   1.47658   1.48335   1.48902   1.49744
 Alpha virt. eigenvalues --    1.50272   1.51236   1.52081   1.52934   1.53403
 Alpha virt. eigenvalues --    1.54358   1.54605   1.55312   1.56546   1.58148
 Alpha virt. eigenvalues --    1.58970   1.60525   1.60763   1.62281   1.62686
 Alpha virt. eigenvalues --    1.63628   1.64144   1.65050   1.65585   1.66106
 Alpha virt. eigenvalues --    1.67378   1.67510   1.68564   1.69080   1.69659
 Alpha virt. eigenvalues --    1.71270   1.71698   1.73077   1.73657   1.74610
 Alpha virt. eigenvalues --    1.74774   1.75801   1.76668   1.76974   1.77427
 Alpha virt. eigenvalues --    1.78246   1.79302   1.79430   1.79500   1.80334
 Alpha virt. eigenvalues --    1.80577   1.81242   1.82051   1.82376   1.82828
 Alpha virt. eigenvalues --    1.83561   1.83747   1.84035   1.84846   1.85548
 Alpha virt. eigenvalues --    1.86144   1.86484   1.86866   1.87267   1.87674
 Alpha virt. eigenvalues --    1.88160   1.88745   1.88757   1.88977   1.89800
 Alpha virt. eigenvalues --    1.90024   1.91295   1.91976   1.92693   1.93543
 Alpha virt. eigenvalues --    1.93931   1.94691   1.95247   1.95339   1.95724
 Alpha virt. eigenvalues --    1.96059   1.96801   1.97180   1.97630   1.98153
 Alpha virt. eigenvalues --    1.98547   1.99615   1.99867   1.99889   2.00576
 Alpha virt. eigenvalues --    2.00770   2.01306   2.01611   2.01767   2.02618
 Alpha virt. eigenvalues --    2.02684   2.02902   2.04086   2.04655   2.05527
 Alpha virt. eigenvalues --    2.06162   2.06840   2.07095   2.07417   2.08120
 Alpha virt. eigenvalues --    2.08309   2.08836   2.09534   2.10484   2.10701
 Alpha virt. eigenvalues --    2.11831   2.12653   2.13110   2.14190   2.14671
 Alpha virt. eigenvalues --    2.15929   2.16978   2.17905   2.18948   2.19665
 Alpha virt. eigenvalues --    2.20765   2.21104   2.21900   2.23255   2.23911
 Alpha virt. eigenvalues --    2.24561   2.25596   2.27464   2.28262   2.29608
 Alpha virt. eigenvalues --    2.31566   2.33210   2.34612   2.35436   2.36321
 Alpha virt. eigenvalues --    2.36648   2.37644   2.38418   2.40145   2.41235
 Alpha virt. eigenvalues --    2.41588   2.41937   2.43567   2.44187   2.44558
 Alpha virt. eigenvalues --    2.46039   2.47363   2.48402   2.50180   2.50509
 Alpha virt. eigenvalues --    2.51527   2.53523   2.55188   2.55603   2.56459
 Alpha virt. eigenvalues --    2.58090   2.59286   2.59725   2.61124   2.61968
 Alpha virt. eigenvalues --    2.63313   2.65280   2.66035   2.66814   2.68220
 Alpha virt. eigenvalues --    2.70641   2.73169   2.74305   2.75238   2.78059
 Alpha virt. eigenvalues --    2.78766   2.79296   2.81159   2.81818   2.81863
 Alpha virt. eigenvalues --    2.82910   2.83909   2.85426   2.85785   2.88118
 Alpha virt. eigenvalues --    2.88359   2.89216   2.89802   2.92011   2.92405
 Alpha virt. eigenvalues --    2.94502   2.95080   2.96431   2.96804   2.99561
 Alpha virt. eigenvalues --    3.00522   3.01837   3.03395   3.03743   3.04455
 Alpha virt. eigenvalues --    3.05080   3.06864   3.08073   3.09237   3.11234
 Alpha virt. eigenvalues --    3.11760   3.12628   3.12677   3.17459   3.17971
 Alpha virt. eigenvalues --    3.18691   3.20793   3.22195   3.22787   3.27325
 Alpha virt. eigenvalues --    3.27430   3.28801   3.30032   3.32781   3.35742
 Alpha virt. eigenvalues --    3.41280   3.46179   3.98555   4.02606   4.03984
 Alpha virt. eigenvalues --    4.08509   4.12210   4.18538   4.24869   4.30151
 Alpha virt. eigenvalues --    4.30937   4.34834   4.39499   4.44072   4.47926
 Alpha virt. eigenvalues --    4.49158   4.54360   4.55976   4.58325   4.65035
 Alpha virt. eigenvalues --    4.65912   4.76114   4.83119   4.88326   4.90589
 Alpha virt. eigenvalues --    4.91397   5.07767   5.17775   5.25906   5.32031
 Alpha virt. eigenvalues --    5.47383   5.50059   5.75472   6.06219   6.22215
 Alpha virt. eigenvalues --    6.27132   6.30293   6.76394
  Beta  occ. eigenvalues --  -24.88001 -24.87243 -24.86894 -24.86863 -24.86860
  Beta  occ. eigenvalues --  -24.86826 -24.86528 -24.86246 -24.86197 -24.86158
  Beta  occ. eigenvalues --  -24.85973 -24.85927 -24.85664 -24.85636 -24.85593
  Beta  occ. eigenvalues --  -24.85450 -24.85023 -24.84880 -19.37195 -19.36357
  Beta  occ. eigenvalues --  -19.36017 -19.29656 -14.65013 -14.60080 -14.57323
  Beta  occ. eigenvalues --  -10.62012 -10.61932 -10.58543 -10.58116 -10.57789
  Beta  occ. eigenvalues --  -10.57227 -10.55881 -10.53178 -10.52522 -10.51954
  Beta  occ. eigenvalues --  -10.47130  -1.45882  -1.45298  -1.44880  -1.44476
  Beta  occ. eigenvalues --   -1.42912  -1.42716  -1.40022  -1.39046  -1.36602
  Beta  occ. eigenvalues --   -1.36014  -1.35851  -1.35780  -1.35725  -1.35236
  Beta  occ. eigenvalues --   -1.35216  -1.35110  -1.34761  -1.34465  -1.31190
  Beta  occ. eigenvalues --   -1.25284  -1.23677  -1.23651  -1.20101  -1.16037
  Beta  occ. eigenvalues --   -1.13180  -0.98025  -0.97144  -0.94006  -0.90228
  Beta  occ. eigenvalues --   -0.88529  -0.85511  -0.85050  -0.83416  -0.82058
  Beta  occ. eigenvalues --   -0.79544  -0.78500  -0.77637  -0.76466  -0.75760
  Beta  occ. eigenvalues --   -0.74694  -0.74288  -0.73891  -0.73694  -0.72564
  Beta  occ. eigenvalues --   -0.72314  -0.72044  -0.71892  -0.71547  -0.71347
  Beta  occ. eigenvalues --   -0.70823  -0.70273  -0.70217  -0.69402  -0.68955
  Beta  occ. eigenvalues --   -0.68290  -0.67710  -0.67039  -0.64656  -0.63114
  Beta  occ. eigenvalues --   -0.62743  -0.61385  -0.61268  -0.60627  -0.60059
  Beta  occ. eigenvalues --   -0.59671  -0.59608  -0.59342  -0.59157  -0.58872
  Beta  occ. eigenvalues --   -0.58792  -0.58666  -0.58449  -0.58140  -0.57504
  Beta  occ. eigenvalues --   -0.57357  -0.57059  -0.56589  -0.56393  -0.56084
  Beta  occ. eigenvalues --   -0.55569  -0.55383  -0.55261  -0.54958  -0.54648
  Beta  occ. eigenvalues --   -0.54276  -0.54175  -0.54126  -0.53789  -0.53486
  Beta  occ. eigenvalues --   -0.53111  -0.52852  -0.52735  -0.52193  -0.51986
  Beta  occ. eigenvalues --   -0.51972  -0.51838  -0.51578  -0.51188  -0.51162
  Beta  occ. eigenvalues --   -0.48961  -0.47137  -0.46677  -0.44904  -0.44318
  Beta  occ. eigenvalues --   -0.41889
  Beta virt. eigenvalues --   -0.27860  -0.06780  -0.01086   0.00184   0.02394
  Beta virt. eigenvalues --    0.03048   0.04690   0.05298   0.09372   0.10779
  Beta virt. eigenvalues --    0.11342   0.12004   0.12840   0.13828   0.14701
  Beta virt. eigenvalues --    0.15801   0.16456   0.16955   0.17085   0.18206
  Beta virt. eigenvalues --    0.19136   0.19714   0.20402   0.20526   0.20655
  Beta virt. eigenvalues --    0.21007   0.21246   0.21744   0.21946   0.22152
  Beta virt. eigenvalues --    0.23696   0.24186   0.25958   0.26228   0.27144
  Beta virt. eigenvalues --    0.27488   0.29081   0.30419   0.31393   0.32166
  Beta virt. eigenvalues --    0.36019   0.40533   0.40936   0.42945   0.44473
  Beta virt. eigenvalues --    0.45782   0.46056   0.47587   0.48068   0.48330
  Beta virt. eigenvalues --    0.49101   0.49433   0.50176   0.50516   0.50925
  Beta virt. eigenvalues --    0.51365   0.52039   0.52671   0.53011   0.53434
  Beta virt. eigenvalues --    0.54066   0.55766   0.55878   0.56827   0.58730
  Beta virt. eigenvalues --    0.59622   0.60421   0.61314   0.62982   0.63896
  Beta virt. eigenvalues --    0.65468   0.65989   0.67117   0.67703   0.69848
  Beta virt. eigenvalues --    0.72579   0.74260   0.75425   0.76953   0.77582
  Beta virt. eigenvalues --    0.78066   0.78756   0.80297   0.81701   0.82599
  Beta virt. eigenvalues --    0.83721   0.84202   0.86085   0.87898   0.89341
  Beta virt. eigenvalues --    0.90758   0.91448   0.94094   0.94357   0.97008
  Beta virt. eigenvalues --    0.98654   0.99068   1.00411   1.00767   1.01463
  Beta virt. eigenvalues --    1.02082   1.03275   1.04269   1.05250   1.06440
  Beta virt. eigenvalues --    1.07059   1.08874   1.09306   1.09675   1.09938
  Beta virt. eigenvalues --    1.10434   1.11589   1.11943   1.12900   1.13756
  Beta virt. eigenvalues --    1.13955   1.14497   1.15555   1.15774   1.16106
  Beta virt. eigenvalues --    1.17648   1.18051   1.19571   1.19753   1.20103
  Beta virt. eigenvalues --    1.21460   1.21816   1.22898   1.24536   1.24850
  Beta virt. eigenvalues --    1.24928   1.26212   1.26806   1.27732   1.28209
  Beta virt. eigenvalues --    1.28634   1.29981   1.30428   1.32021   1.32277
  Beta virt. eigenvalues --    1.33075   1.33190   1.33352   1.33922   1.34950
  Beta virt. eigenvalues --    1.35327   1.35713   1.36581   1.37101   1.37454
  Beta virt. eigenvalues --    1.37786   1.37932   1.38020   1.38652   1.38820
  Beta virt. eigenvalues --    1.39370   1.39840   1.39875   1.40743   1.41231
  Beta virt. eigenvalues --    1.41819   1.41910   1.42567   1.42889   1.44235
  Beta virt. eigenvalues --    1.45171   1.46168   1.47773   1.48409   1.48944
  Beta virt. eigenvalues --    1.49829   1.50386   1.51418   1.52153   1.53016
  Beta virt. eigenvalues --    1.53716   1.54415   1.54630   1.55532   1.56648
  Beta virt. eigenvalues --    1.58261   1.59049   1.60645   1.60907   1.62337
  Beta virt. eigenvalues --    1.62738   1.63690   1.64384   1.65149   1.65716
  Beta virt. eigenvalues --    1.66219   1.67464   1.67789   1.68768   1.69268
  Beta virt. eigenvalues --    1.69815   1.71422   1.72109   1.73197   1.73853
  Beta virt. eigenvalues --    1.74821   1.75263   1.76111   1.76895   1.77119
  Beta virt. eigenvalues --    1.77592   1.78364   1.79450   1.79631   1.79904
  Beta virt. eigenvalues --    1.80482   1.80732   1.81358   1.82110   1.82467
  Beta virt. eigenvalues --    1.82898   1.83755   1.83916   1.84187   1.85125
  Beta virt. eigenvalues --    1.85646   1.86242   1.86613   1.86965   1.87324
  Beta virt. eigenvalues --    1.87881   1.88252   1.88834   1.88931   1.89084
  Beta virt. eigenvalues --    1.89851   1.90336   1.91482   1.92039   1.92767
  Beta virt. eigenvalues --    1.93644   1.94278   1.94737   1.95389   1.95594
  Beta virt. eigenvalues --    1.95844   1.96375   1.97017   1.97329   1.97773
  Beta virt. eigenvalues --    1.98196   1.98726   1.99621   1.99884   1.99982
  Beta virt. eigenvalues --    2.00607   2.00814   2.01394   2.01630   2.01848
  Beta virt. eigenvalues --    2.02698   2.02857   2.03067   2.04260   2.04691
  Beta virt. eigenvalues --    2.05613   2.06284   2.07020   2.07185   2.07446
  Beta virt. eigenvalues --    2.08183   2.08358   2.08869   2.09597   2.10627
  Beta virt. eigenvalues --    2.10791   2.11885   2.12796   2.13249   2.14262
  Beta virt. eigenvalues --    2.14751   2.16320   2.17146   2.17956   2.19079
  Beta virt. eigenvalues --    2.19720   2.20865   2.21184   2.21957   2.23383
  Beta virt. eigenvalues --    2.24035   2.24637   2.25709   2.27528   2.28305
  Beta virt. eigenvalues --    2.29652   2.32085   2.33371   2.34720   2.35495
  Beta virt. eigenvalues --    2.36424   2.36705   2.37754   2.38463   2.40255
  Beta virt. eigenvalues --    2.41315   2.41831   2.42019   2.43663   2.44222
  Beta virt. eigenvalues --    2.44616   2.46455   2.47750   2.48609   2.50367
  Beta virt. eigenvalues --    2.50660   2.51745   2.53579   2.55286   2.55912
  Beta virt. eigenvalues --    2.56580   2.58376   2.59436   2.59953   2.61220
  Beta virt. eigenvalues --    2.62045   2.63475   2.65669   2.66050   2.66994
  Beta virt. eigenvalues --    2.69120   2.70977   2.73360   2.74735   2.75321
  Beta virt. eigenvalues --    2.78084   2.78831   2.79544   2.81328   2.81925
  Beta virt. eigenvalues --    2.82032   2.83024   2.83977   2.85499   2.85835
  Beta virt. eigenvalues --    2.88291   2.88555   2.89454   2.89962   2.92037
  Beta virt. eigenvalues --    2.92418   2.94596   2.95225   2.96550   2.96821
  Beta virt. eigenvalues --    2.99890   3.00596   3.01876   3.03400   3.03762
  Beta virt. eigenvalues --    3.04466   3.05124   3.06882   3.08200   3.09308
  Beta virt. eigenvalues --    3.11301   3.11818   3.12648   3.12840   3.17481
  Beta virt. eigenvalues --    3.18018   3.18711   3.21002   3.22279   3.22796
  Beta virt. eigenvalues --    3.27381   3.28345   3.28851   3.30120   3.32848
  Beta virt. eigenvalues --    3.35801   3.41929   3.46772   3.99601   4.02524
  Beta virt. eigenvalues --    4.03997   4.08953   4.12720   4.18828   4.25125
  Beta virt. eigenvalues --    4.30171   4.30913   4.34854   4.39511   4.44131
  Beta virt. eigenvalues --    4.47938   4.49284   4.54387   4.56009   4.58434
  Beta virt. eigenvalues --    4.65093   4.66077   4.76189   4.83180   4.88349
  Beta virt. eigenvalues --    4.90596   4.91453   5.07769   5.17786   5.25914
  Beta virt. eigenvalues --    5.32034   5.47391   5.50063   5.75478   6.06227
  Beta virt. eigenvalues --    6.22220   6.27138   6.30297   6.76396
          Condensed to atoms (all electrons):
               1          2          3          4          5          6
     1  O    7.954862   0.510668  -0.072427   0.001669  -0.000002   0.000000
     2  C    0.510668   4.186641   0.254136  -0.026036  -0.008930   0.000284
     3  N   -0.072427   0.254136   6.856471   0.182224  -0.033484   0.001722
     4  C    0.001669  -0.026036   0.182224   4.899061   0.218419  -0.029009
     5  N   -0.000002  -0.008930  -0.033484   0.218419   7.412175   0.187233
     6  C    0.000000   0.000284   0.001722  -0.029009   0.187233   4.465883
     7  F    0.000000   0.000004   0.000042   0.003443  -0.076387   0.258493
     8  F    0.000000  -0.000002  -0.000013   0.002014  -0.033796   0.233437
[...]
     7  F(19)             -0.00105      -4.40073      -1.57029      -1.46792
     8  F(19)              0.00026       1.11432       0.39762       0.37170
     9  C(13)              0.00023       0.26336       0.09398       0.08785
    10  F(19)              0.00143       6.02847       2.15111       2.01088
    11  O(17)              0.00006      -0.03907      -0.01394      -0.01303
    12  C(13)              0.00000       0.00285       0.00102       0.00095
    13  F(19)              0.00000      -0.00483      -0.00172      -0.00161
    14  F(19)              0.00000      -0.00799      -0.00285      -0.00267
    15  F(19)              0.00000       0.00047       0.00017       0.00016
    16  C(13)             -0.00002      -0.02396      -0.00855      -0.00799
    17  F(19)             -0.00001      -0.02401      -0.00857      -0.00801
    18  F(19)              0.00001       0.03538       0.01263       0.01180
    19  F(19)             -0.00002      -0.07290      -0.02601      -0.02432
    20  C(13)              0.00104       1.17204       0.41821       0.39095
    21  O(17)             -0.00103       0.62150       0.22177       0.20731
    22  N(14)             -0.00774      -2.50005      -0.89208      -0.83393
    23  C(13)              0.00016       0.17984       0.06417       0.05999
    24  F(19)              0.00061       2.56848       0.91650       0.85675
    25  F(19)              0.00414      17.43933       6.22279       5.81714
    26  C(13)             -0.00149      -1.67696      -0.59838      -0.55938
    27  F(19)             -0.00023      -0.96239      -0.34341      -0.32102
    28  O(17)              0.00083      -0.50256      -0.17933      -0.16764
    29  C(13)             -0.00002      -0.02146      -0.00766      -0.00716
    30  F(19)              0.00001       0.04470       0.01595       0.01491
    31  F(19)              0.00000       0.00049       0.00018       0.00016
    32  F(19)             -0.00003      -0.10897      -0.03888      -0.03635
    33  C(13)              0.00004       0.04182       0.01492       0.01395
    34  F(19)              0.00001       0.02805       0.01001       0.00936
    35  F(19)              0.00008       0.33663       0.12012       0.11229
    36  F(19)              0.00000      -0.01299      -0.00464      -0.00433
    37  H(1)              -0.00973     -43.47748     -15.51385     -14.50253
    38  H(1)               0.02132      95.28596      34.00040      31.78398
    39  H(1)               0.05153     230.32254      82.18481      76.82733
 --------------------------------------------------------
       Center         ----  Spin Dipole Couplings  ----
                      3XX-RR        3YY-RR        3ZZ-RR
 --------------------------------------------------------
     1   Atom       -0.779362      0.669711      0.109652
     2   Atom        0.089706     -0.119628      0.029921
     3   Atom        0.057283      0.557183     -0.614467
     4   Atom        0.012703      0.035794     -0.048497
     5   Atom       -0.014813      0.023067     -0.008254
     6   Atom       -0.000658      0.000375      0.000283
     7   Atom       -0.001300      0.002012     -0.000712
     8   Atom       -0.003751     -0.002181      0.005932
     9   Atom        0.002077     -0.001110     -0.000967
    10   Atom        0.005997      0.002463     -0.008460
    11   Atom        0.001202     -0.000498     -0.000704
    12   Atom        0.000316     -0.000224     -0.000093
    13   Atom        0.000373     -0.000423      0.000050
    14   Atom        0.000157     -0.000128     -0.000029
    15   Atom       -0.000021      0.000052     -0.000031
    16   Atom        0.002170     -0.001362     -0.000808
    17   Atom        0.001385     -0.000726     -0.000658
    18   Atom        0.002695     -0.002463     -0.000232
    19   Atom        0.000954     -0.000974      0.000021
    20   Atom       -0.005717     -0.003111      0.008828
    21   Atom       -0.012212     -0.003005      0.015218
    22   Atom        0.012163     -0.066199      0.054036
    23   Atom       -0.002946     -0.001913      0.004859
    24   Atom       -0.002867     -0.002586      0.005452
    25   Atom       -0.010096     -0.027646      0.037742
    26   Atom       -0.000420     -0.001309      0.001729
    27   Atom       -0.001481      0.000138      0.001343
    28   Atom        0.003626     -0.002188     -0.001438
    29   Atom        0.003515     -0.001670     -0.001845
    30   Atom        0.004378     -0.002702     -0.001675
    31   Atom        0.001558     -0.000675     -0.000883
    32   Atom        0.004100     -0.002024     -0.002076
    33   Atom       -0.000356     -0.000008      0.000364
    34   Atom        0.000031      0.000102     -0.000133
    35   Atom       -0.000059      0.000259     -0.000200
    36   Atom       -0.000499     -0.000097      0.000596
    37   Atom       -0.043486     -0.024656      0.068141
    38   Atom        0.014668     -0.009934     -0.004734
    39   Atom       -0.009778      0.021100     -0.011322
 --------------------------------------------------------
                        XY            XZ            YZ
 --------------------------------------------------------
     1   Atom        0.006419      0.029945      1.162200
     2   Atom       -0.085769     -0.030541     -0.069961
     3   Atom        0.987492      0.284501      0.362168
     4   Atom        0.047828      0.007938     -0.009623
     5   Atom        0.047421      0.043172      0.050939
     6   Atom       -0.002750      0.002901     -0.002057
     7   Atom        0.002122      0.002343      0.000741
     8   Atom       -0.004519      0.007551     -0.008549
     9   Atom       -0.001583      0.001657     -0.000590
    10   Atom       -0.012455      0.001042     -0.000804
    11   Atom       -0.001145      0.000982     -0.000500
    12   Atom       -0.000508      0.000580     -0.000347
    13   Atom       -0.000300      0.000607     -0.000204
    14   Atom       -0.000332      0.000326     -0.000255
    15   Atom       -0.000639      0.000545     -0.000491
    16   Atom       -0.000082      0.001449     -0.000016
    17   Atom       -0.000020      0.000482     -0.000006
    18   Atom        0.000974      0.001510      0.002034
    19   Atom        0.000153      0.001207      0.000070
    20   Atom       -0.000178     -0.003354     -0.002061
    21   Atom       -0.018109     -0.010311     -0.005608
    22   Atom       -0.035012     -0.003992     -0.007770
    23   Atom        0.000247     -0.001217     -0.002121
    24   Atom        0.000412     -0.002533     -0.002505
    25   Atom       -0.001270     -0.032309      0.012221
    26   Atom        0.000144     -0.002636     -0.002198
    27   Atom        0.000254     -0.000071      0.000340
    28   Atom        0.005059     -0.006618     -0.003540
    29   Atom        0.001362     -0.001608     -0.000364
    30   Atom       -0.000218     -0.003036      0.000216
    31   Atom        0.000176     -0.000954     -0.000033
    32   Atom        0.001017      0.000437      0.000236
    33   Atom        0.000635     -0.001096     -0.001337
    34   Atom        0.000688     -0.000712     -0.000728
    35   Atom        0.001576     -0.001462     -0.002189
    36   Atom        0.000067     -0.000579     -0.000784
    37   Atom        0.013914      0.015953     -0.030107
    38   Atom       -0.007469     -0.011034     -0.000136
    39   Atom        0.003510      0.004863      0.009407
 --------------------------------------------------------


 ---------------------------------------------------------------------------------
              Anisotropic Spin Dipole Couplings in Principal Axis System
 ---------------------------------------------------------------------------------

       Atom             a.u.   MegaHertz   Gauss  10(-4) cm-1        Axes

              Baa    -0.8162    59.061    21.074    19.701 -0.4710 -0.5422  0.6958
     1 O(17)  Bbb    -0.7692    55.656    19.859    18.565  0.8821 -0.2984  0.3645
              Bcc     1.5854  -114.717   -40.934   -38.265  0.0100  0.7855  0.6188
 
              Baa    -0.1782   -23.908    -8.531    -7.975  0.3217  0.8822  0.3438
     2 C(13)  Bbb     0.0574     7.705     2.749     2.570 -0.0425 -0.3493  0.9360
              Bcc     0.1208    16.204     5.782     5.405  0.9459 -0.3157 -0.0749
 
              Baa    -0.7188   -27.721    -9.892    -9.247 -0.3359 -0.0074  0.9419
     3 N(14)  Bbb    -0.7109   -27.416    -9.783    -9.145  0.7266 -0.6384  0.2541
              Bcc     1.4296    55.138    19.674    18.392  0.5994  0.7697  0.2198
 
              Baa    -0.0537    -7.209    -2.572    -2.404 -0.2946  0.2564  0.9206
     4 C(13)  Bbb    -0.0198    -2.656    -0.948    -0.886  0.7303 -0.5609  0.3900
              Bcc     0.0735     9.864     3.520     3.290  0.6163  0.7872 -0.0220
 
              Baa    -0.0548    -2.115    -0.755    -0.705  0.7371 -0.0068 -0.6758
     5 N(14)  Bbb    -0.0423    -1.632    -0.582    -0.544 -0.4591  0.7288 -0.5081
              Bcc     0.0971     3.747     1.337     1.250  0.4959  0.6847  0.5341
 
              Baa    -0.0034    -0.459    -0.164    -0.153  0.8216  0.3527 -0.4478
     6 C(13)  Bbb    -0.0017    -0.231    -0.082    -0.077  0.0534  0.7344  0.6766
              Bcc     0.0051     0.690     0.246     0.230  0.5675 -0.5798  0.5846
 
              Baa    -0.0036    -1.817    -0.648    -0.606  0.7860 -0.2203 -0.5776
     7 F(19)  Bbb    -0.0002    -0.078    -0.028    -0.026  0.3594 -0.5973  0.7169
              Bcc     0.0038     1.894     0.676     0.632  0.5030  0.7711  0.3903
 
              Baa    -0.0079    -3.974    -1.418    -1.326  0.7794 -0.2453 -0.5765
     8 F(19)  Bbb    -0.0075    -3.751    -1.339    -1.251  0.4670  0.8410  0.2734
              Bcc     0.0154     7.726     2.757     2.577  0.4178 -0.4823  0.7700
 
              Baa    -0.0018    -0.243    -0.087    -0.081  0.4966  0.7342 -0.4631
     9 C(13)  Bbb    -0.0016    -0.218    -0.078    -0.073 -0.1111  0.5829  0.8049
              Bcc     0.0034     0.461     0.164     0.154  0.8609 -0.3482  0.3710
 
              Baa    -0.0086    -4.297    -1.533    -1.433 -0.2633 -0.2293  0.9371
    10 F(19)  Bbb    -0.0083    -4.179    -1.491    -1.394  0.6015  0.7204  0.3453
              Bcc     0.0169     8.476     3.025     2.827  0.7542 -0.6546  0.0518
 
              Baa    -0.0011     0.081     0.029     0.027 -0.2658  0.2567  0.9292
    11 O(17)  Bbb    -0.0011     0.078     0.028     0.026  0.4821  0.8701 -0.1024
              Bcc     0.0022    -0.159    -0.057    -0.053  0.8348 -0.4207  0.3550
 
              Baa    -0.0005    -0.071    -0.025    -0.024  0.5331  0.8452 -0.0368
    12 C(13)  Bbb    -0.0005    -0.067    -0.024    -0.022 -0.4200  0.3022  0.8558
              Bcc     0.0010     0.138     0.049     0.046  0.7345 -0.4407  0.5161
 
              Baa    -0.0005    -0.263    -0.094    -0.088  0.3127  0.9498  0.0072
    13 F(19)  Bbb    -0.0004    -0.207    -0.074    -0.069 -0.5582  0.1777  0.8104
              Bcc     0.0009     0.470     0.168     0.157  0.7685 -0.2574  0.5858
 
              Baa    -0.0004    -0.180    -0.064    -0.060  0.3587  0.8755  0.3239
    14 F(19)  Bbb    -0.0003    -0.138    -0.049    -0.046 -0.6193 -0.0364  0.7843
              Bcc     0.0006     0.318     0.114     0.106  0.6984 -0.4819  0.5291
 
              Baa    -0.0006    -0.322    -0.115    -0.108  0.7970  0.5347 -0.2809
    15 F(19)  Bbb    -0.0005    -0.240    -0.086    -0.080 -0.1182  0.5942  0.7956
              Bcc     0.0011     0.563     0.201     0.188 -0.5923  0.6009 -0.5367
 
              Baa    -0.0014    -0.188    -0.067    -0.063 -0.3562 -0.3721  0.8571
    16 C(13)  Bbb    -0.0014    -0.182    -0.065    -0.061 -0.1230  0.9280  0.3517
              Bcc     0.0028     0.370     0.132     0.124  0.9263 -0.0198  0.3763
 
              Baa    -0.0008    -0.385    -0.137    -0.128 -0.2179  0.0487  0.9748
    17 F(19)  Bbb    -0.0007    -0.365    -0.130    -0.122  0.0196  0.9988 -0.0455
              Bcc     0.0015     0.750     0.268     0.250  0.9758 -0.0092  0.2186
 
              Baa    -0.0037    -1.842    -0.657    -0.614 -0.0121  0.8628 -0.5054
    18 F(19)  Bbb    -0.0002    -0.079    -0.028    -0.026 -0.5325  0.4222  0.7336
              Bcc     0.0038     1.921     0.686     0.641  0.8463  0.2781  0.4544
 
              Baa    -0.0010    -0.497    -0.177    -0.166 -0.1372  0.9859  0.0960
    19 F(19)  Bbb    -0.0008    -0.403    -0.144    -0.134 -0.5503 -0.1564  0.8202
              Bcc     0.0018     0.900     0.321     0.300  0.8236  0.0597  0.5640
 
              Baa    -0.0066    -0.882    -0.315    -0.294  0.9542  0.1879  0.2330
    20 C(13)  Bbb    -0.0033    -0.442    -0.158    -0.147 -0.2168  0.9705  0.1050
              Bcc     0.0099     1.324     0.472     0.442 -0.2063 -0.1507  0.9668
 
              Baa    -0.0293     2.121     0.757     0.707  0.7711  0.5846  0.2522
    21 O(17)  Bbb     0.0106    -0.770    -0.275    -0.257 -0.5408  0.8105 -0.2251
              Bcc     0.0187    -1.351    -0.482    -0.451 -0.3360  0.0372  0.9411
 
              Baa    -0.0801    -3.090    -1.103    -1.031  0.3564  0.9321  0.0646
    22 N(14)  Bbb     0.0255     0.983     0.351     0.328  0.9328 -0.3589  0.0327
              Bcc     0.0546     2.107     0.752     0.703 -0.0537 -0.0486  0.9974
 
              Baa    -0.0031    -0.421    -0.150    -0.141  0.9778  0.1107  0.1781
    23 C(13)  Bbb    -0.0025    -0.336    -0.120    -0.112 -0.1537  0.9560  0.2499
              Bcc     0.0056     0.758     0.270     0.253 -0.1426 -0.2717  0.9518
 
              Baa    -0.0037    -1.875    -0.669    -0.625  0.8020  0.4822  0.3526
    24 F(19)  Bbb    -0.0031    -1.560    -0.557    -0.520 -0.5406  0.8370  0.0850
              Bcc     0.0068     3.435     1.226     1.146 -0.2542 -0.2588  0.9319
 
              Baa    -0.0324   -16.251    -5.799    -5.421 -0.4754  0.8032 -0.3591
    25 F(19)  Bbb    -0.0233   -11.678    -4.167    -3.895  0.7623  0.5798  0.2876
              Bcc     0.0556    27.930     9.966     9.316 -0.4392  0.1370  0.8879
 
              Baa    -0.0031    -0.422    -0.151    -0.141  0.5164  0.6405  0.5683
    26 C(13)  Bbb    -0.0010    -0.140    -0.050    -0.047  0.7121 -0.6898  0.1304
              Bcc     0.0042     0.562     0.200     0.187 -0.4756 -0.3374  0.8124
 
              Baa    -0.0015    -0.766    -0.273    -0.255  0.9862 -0.1596  0.0433
    27 F(19)  Bbb     0.0001     0.047     0.017     0.016  0.1653  0.9540 -0.2499
              Bcc     0.0014     0.719     0.257     0.240 -0.0015  0.2537  0.9673
 
              Baa    -0.0060     0.434     0.155     0.145  0.5505  0.0437  0.8337
    28 O(17)  Bbb    -0.0051     0.366     0.131     0.122 -0.3747  0.9053  0.2000
              Bcc     0.0111    -0.800    -0.286    -0.267  0.7460  0.4225 -0.5148
 
              Baa    -0.0023    -0.307    -0.110    -0.103  0.2759 -0.0424  0.9602
    29 C(13)  Bbb    -0.0020    -0.269    -0.096    -0.090 -0.2099  0.9723  0.1033
              Bcc     0.0043     0.576     0.206     0.192  0.9380  0.2300 -0.2594
 
              Baa    -0.0030    -1.499    -0.535    -0.500  0.3410 -0.3903  0.8552
    30 F(19)  Bbb    -0.0027    -1.337    -0.477    -0.446  0.1788  0.9201  0.3486
              Bcc     0.0056     2.836     1.012     0.946  0.9229 -0.0341 -0.3836
 
              Baa    -0.0012    -0.609    -0.217    -0.203  0.3279 -0.0485  0.9435
    31 F(19)  Bbb    -0.0007    -0.345    -0.123    -0.115 -0.0491  0.9965  0.0683
              Bcc     0.0019     0.953     0.340     0.318  0.9435  0.0687 -0.3243
 
              Baa    -0.0023    -1.164    -0.415    -0.388 -0.0820  0.7824 -0.6173
    32 F(19)  Bbb    -0.0020    -0.996    -0.355    -0.332 -0.1569  0.6015  0.7833
              Bcc     0.0043     2.159     0.770     0.720  0.9842  0.1611  0.0735
 
              Baa    -0.0013    -0.176    -0.063    -0.059  0.4933  0.4938  0.7161
    33 C(13)  Bbb    -0.0008    -0.112    -0.040    -0.037  0.7463 -0.6631 -0.0568
              Bcc     0.0021     0.288     0.103     0.096 -0.4469 -0.5625  0.6956
 
              Baa    -0.0008    -0.402    -0.143    -0.134  0.4259  0.3490  0.8348
    34 F(19)  Bbb    -0.0006    -0.312    -0.111    -0.104 -0.6952  0.7167  0.0551
              Bcc     0.0014     0.714     0.255     0.238  0.5790  0.6038 -0.5478
 
              Baa    -0.0022    -1.091    -0.389    -0.364  0.0298  0.6580  0.7524
    35 F(19)  Bbb    -0.0013    -0.677    -0.242    -0.226  0.8568 -0.4045  0.3198
              Bcc     0.0035     1.768     0.631     0.590  0.5148  0.6351 -0.5758
 
              Baa    -0.0009    -0.443    -0.158    -0.148  0.7132  0.4639  0.5255
    36 F(19)  Bbb    -0.0004    -0.192    -0.069    -0.064 -0.6387  0.7390  0.2145
              Bcc     0.0013     0.635     0.227     0.212 -0.2888 -0.4886  0.8233
 
              Baa    -0.0577   -30.777   -10.982   -10.266  0.8016 -0.5504 -0.2333
    37 H(1)   Bbb    -0.0205   -10.913    -3.894    -3.640  0.5902  0.7907  0.1624
              Bcc     0.0781    41.690    14.876    13.906  0.0951 -0.2679  0.9587
 
              Baa    -0.0138    -7.367    -2.629    -2.457  0.3940  0.7771  0.4908
    38 H(1)   Bbb    -0.0073    -3.913    -1.396    -1.305  0.1918 -0.5918  0.7830
              Bcc     0.0211    11.280     4.025     3.763  0.8989 -0.2144 -0.3822
 
              Baa    -0.0163    -8.677    -3.096    -2.894 -0.5361 -0.1584  0.8292
    39 H(1)   Bbb    -0.0080    -4.274    -1.525    -1.426  0.8330 -0.2585  0.4892
              Bcc     0.0243    12.952     4.621     4.320  0.1369  0.9529  0.2705
 

 ---------------------------------------------------------------------------------

 No NMR shielding tensors so no spin-rotation constants.
 Leave Link  601 at Sun Mar  3 18:07:44 2024, MaxMem=  5368709120 cpu:         5.1
 (Enter /home/k0335/k033513/app/g09/l9999.exe)
 1\1\GINC-C18U04N4\SP\UCAM-B3LYP\6-31G(d,p)\C11H3F18N3O4(1+,2)\K033513\
 03-Mar-2024\0\\#p CAM-B3LYP/6-31G(d,p) SCRF=(PCM,Solvent=Generic,Read)
  NoSymm out=wfn\\Title A591161040_p1\\1,2\O,0,2.175025,-1.901031,1.735
 791\C,0,1.198726,-1.367255,1.221749\N,0,0.101647,-1.148439,1.98475\C,0
 ,-0.82038,-0.132584,1.632457\N,0,-1.068831,-0.139537,0.225355\C,0,-2.1
 43262,0.714599,-0.276559\F,0,-1.699165,2.001342,-0.181323\F,0,-2.33119
 5,0.464839,-1.600322\C,0,-3.54418,0.656019,0.392596\F,0,-3.377686,0.87
 2033,1.744789\O,0,-4.464436,1.700956,0.048899\C,0,-4.646061,1.915293,-
 1.326992\F,0,-4.866468,0.758088,-1.960394\F,0,-5.721149,2.707405,-1.49
 2276\F,0,-3.573171,2.53323,-1.838626\C,0,-4.097227,-0.762435,0.215831\
 F,0,-5.367884,-0.846743,0.680935\F,0,-3.367918,-1.659013,0.926965\F,0,
 -4.107326,-1.201338,-1.056037\C,0,0.065829,-0.208086,-0.575043\O,0,0.1
 33246,0.360622,-1.659722\N,0,1.125149,-0.94269,-0.07757\C,0,2.314499,-
 1.115544,-0.899619\F,0,1.993892,-1.109499,-2.226346\F,0,2.758113,-2.39
 8439,-0.714002\C,0,3.497424,-0.144819,-0.655667\F,0,4.556123,-0.514583
 ,-1.44356\O,0,3.944447,-0.097483,0.706473\C,0,5.042519,-0.945497,0.933
 101\F,0,4.857219,-2.159596,0.395007\F,0,6.152373,-0.383166,0.418303\F,
 0,5.215291,-1.074227,2.262987\C,0,3.079438,1.258518,-1.071272\F,0,4.11
 2106,2.128316,-0.90974\F,0,2.071694,1.72874,-0.295162\F,0,2.698609,1.3
 45768,-2.359711\H,0,0.232807,-1.383584,2.962404\H,0,-1.722565,-0.34808
 4,2.20243\H,0,-0.407271,0.837903,1.929121\\Version=ES64L-G09RevD.01\HF
 =-2682.196306\S2=0.779964\S2-1=0.\S2A=0.750182\RMSD=6.978e-09\Dipole=-
 0.6770851,-1.4795287,4.3178299\Quadrupole=-1.9312865,-5.1383299,7.0696
 164,-1.0794876,-1.5864318,-4.237879\PG=C01 [X(C11H3F18N3O4)]\\@

 Writing a WFN file to "A591161040/A591161040_p1.wfn"


 Fatherhood is pretending the present you love most is soap-on-a-rope.
 -- Bill Cosby
 Job cpu time:       0 days  0 hours 45 minutes 17.5 seconds.
 File lengths (MBytes):  RWF=    463 Int=      0 D2E=      0 Chk=     16 Scr=      1
 Normal termination of Gaussian 09 at Sun Mar  3 18:07:44 2024.
