 Entering Gaussian System, Link 0=g09
 Initial command:
 /home/k0335/k033513/app/g09/l1.exe "/home/k0335/k033513/app/g09/scratch/Gau-412670.inp" -scrdir="/home/k0335/k033513/app/g09/scratch/"
 Default is to use a total of  36 processors:
                               36 via shared-memory
                                1 via Linda
 Entering Link 1 = /home/k0335/k033513/app/g09/l1.exe PID=    412671.
  
 Copyright (c) 1988,1990,1992,1993,1995,1998,2003,2009,2013,
            Gaussian, Inc.  All Rights Reserved.
  
 This is part of the Gaussian(R) 09 program.  It is based on
 the Gaussian(R) 03 system (copyright 2003, Gaussian, Inc.),
 the Gaussian(R) 98 system (copyright 1998, Gaussian, Inc.),
 the Gaussian(R) 94 system (copyright 1995, Gaussian, Inc.),
 the Gaussian 92(TM) system (copyright 1992, Gaussian, Inc.),
 the Gaussian 90(TM) system (copyright 1990, Gaussian, Inc.),
 the Gaussian 88(TM) system (copyright 1988, Gaussian, Inc.),
 the Gaussian 86(TM) system (copyright 1986, Carnegie Mellon
 University), and the Gaussian 82(TM) system (copyright 1983,
 Carnegie Mellon University). Gaussian is a federally registered
 trademark of Gaussian, Inc.
  
 This software contains proprietary and confidential information,
 including trade secrets, belonging to Gaussian, Inc.
  
 This software is provided under written license and may be
 used, copied, transmitted, or stored only in accord with that
 written license.
  
 The following legend is applicable only to US Government
 contracts under FAR:
  
                    RESTRICTED RIGHTS LEGEND
  
 Use, reproduction and disclosure by the US Government is
 subject to restrictions as set forth in subparagraphs (a)
 and (c) of the Commercial Computer Software - Restricted
 Rights clause in FAR 52.227-19.
  
 Gaussian, Inc.
 340 Quinnipiac St., Bldg. 40, Wallingford CT 06492
  
  
 ---------------------------------------------------------------
 Warning -- This program may not be used in any manner that
 competes with the business of Gaussian, Inc. or will provide
 assistance to any competitor of Gaussian, Inc.  The licensee
 of this program is prohibited from giving any competitor of
 Gaussian, Inc. access to this program.  By using this program,
 the user acknowledges that Gaussian, Inc. is engaged in the
 business of creating and licensing software in the field of
 computational chemistry and represents and warrants to the
 licensee that it is not a competitor of Gaussian, Inc. and that
 it will not use this program in any manner prohibited above.
 ---------------------------------------------------------------
  

 Cite this work as:
 Gaussian 09, Revision D.01,
 M. J. Frisch, G. W. Trucks, H. B. Schlegel, G. E. Scuseria, 
 M. A. Robb, J. R. Cheeseman, G. Scalmani, V. Barone, B. Mennucci, 
 G. A. Petersson, H. Nakatsuji, M. Caricato, X. Li, H. P. Hratchian, 
 A. F. Izmaylov, J. Bloino, G. Zheng, J. L. Sonnenberg, M. Hada, 
 M. Ehara, K. Toyota, R. Fukuda, J. Hasegawa, M. Ishida, T. Nakajima, 
 Y. Honda, O. Kitao, H. Nakai, T. Vreven, J. A. Montgomery, Jr., 
 J. E. Peralta, F. Ogliaro, M. Bearpark, J. J. Heyd, E. Brothers, 
 K. N. Kudin, V. N. Staroverov, T. Keith, R. Kobayashi, J. Normand, 
 K. Raghavachari, A. Rendell, J. C. Burant, S. S. Iyengar, J. Tomasi, 
 M. Cossi, N. Rega, J. M. Millam, M. Klene, J. E. Knox, J. B. Cross, 
 V. Bakken, C. Adamo, J. Jaramillo, R. Gomperts, R. E. Stratmann, 
 O. Yazyev, A. J. Austin, R. Cammi, C. Pomelli, J. W. Ochterski, 
 R. L. Martin, K. Morokuma, V. G. Zakrzewski, G. A. Voth, 
 P. Salvador, J. J. Dannenberg, S. Dapprich, A. D. Daniels, 
 O. Farkas, J. B. Foresman, J. V. Ortiz, J. Cioslowski, 
 and D. J. Fox, Gaussian, Inc., Wallingford CT, 2013.
 
 ******************************************
 Gaussian 09:  ES64L-G09RevD.01 24-Apr-2013
                 3-Mar-2024 
 ******************************************
 %nprocshared=24
 Will use up to   24 processors via shared memory.
 %mem=40GB
 %rwf=A591161040/A591161040_0.rwf
 %nosave
 %chk=A591161040/A591161040_0.chk
 ----------------------------------------------------------------------
 #p CAM-B3LYP/6-31G(d,p) SCRF=(PCM,Solvent=Generic,Read) NoSymm out=wfn
 ----------------------------------------------------------------------
 1/38=1,40=2/1;
 2/12=2,15=1,17=6,18=5,40=1/2;
 3/5=1,6=6,7=101,11=2,16=1,25=1,30=1,70=2203,72=-2,74=-40/1,2,3;
 4//1;
 5/5=2,38=5/2;
 6/7=2,8=2,9=2,10=2,28=1/1;
 99/5=1,6=100,9=1/99;
 Leave Link    1 at Sun Mar  3 18:05:47 2024, MaxMem=  5368709120 cpu:         1.1
 (Enter /home/k0335/k033513/app/g09/l101.exe)
 ------------------
 Title A591161040_0
 ------------------
 Symbolic Z-matrix:
 Charge =  0 Multiplicity = 1
 O                     2.17503  -1.90103   1.73579 
 C                     1.19873  -1.36726   1.22175 
 N                     0.10165  -1.14844   1.98475 
 C                    -0.82038  -0.13258   1.63246 
 N                    -1.06883  -0.13954   0.22536 
 C                    -2.14326   0.7146   -0.27656 
 F                    -1.69917   2.00134  -0.18132 
 F                    -2.3312    0.46484  -1.60032 
 C                    -3.54418   0.65602   0.3926 
 F                    -3.37769   0.87203   1.74479 
 O                    -4.46444   1.70096   0.0489 
 C                    -4.64606   1.91529  -1.32699 
 F                    -4.86647   0.75809  -1.96039 
 F                    -5.72115   2.70741  -1.49228 
 F                    -3.57317   2.53323  -1.83863 
 C                    -4.09723  -0.76244   0.21583 
 F                    -5.36788  -0.84674   0.68094 
 F                    -3.36792  -1.65901   0.92697 
 F                    -4.10733  -1.20134  -1.05604 
 C                     0.06583  -0.20809  -0.57504 
 O                     0.13325   0.36062  -1.65972 
 N                     1.12515  -0.94269  -0.07757 
 C                     2.3145   -1.11554  -0.89962 
 F                     1.99389  -1.1095   -2.22635 
 F                     2.75811  -2.39844  -0.714 
 C                     3.49742  -0.14482  -0.65567 
 F                     4.55612  -0.51458  -1.44356 
 O                     3.94445  -0.09748   0.70647 
 C                     5.04252  -0.9455    0.9331 
 F                     4.85722  -2.1596    0.39501 
 F                     6.15237  -0.38317   0.4183 
 F                     5.21529  -1.07423   2.26299 
 C                     3.07944   1.25852  -1.07127 
 F                     4.11211   2.12832  -0.90974 
 F                     2.07169   1.72874  -0.29516 
 F                     2.69861   1.34577  -2.35971 
 H                     0.23281  -1.38358   2.9624 
 H                    -1.72257  -0.34808   2.20243 
 H                    -0.40727   0.8379    1.92912 
 
 NAtoms=     39 NQM=       39 NQMF=       0 NMMI=      0 NMMIF=      0
                NMic=       0 NMicF=      0.
                    Isotopes and Nuclear Properties:
 (Nuclear quadrupole moments (NQMom) in fm**2, nuclear magnetic moments (NMagM)
  in nuclear magnetons)

  Atom         1           2           3           4           5           6           7           8           9          10
 IAtWgt=          16          12          14          12          14          12          19          19          12          19
 AtmWgt=  15.9949146  12.0000000  14.0030740  12.0000000  14.0030740  12.0000000  18.9984033  18.9984033  12.0000000  18.9984033
 NucSpn=           0           0           2           0           2           0           1           1           0           1
 AtZEff=   0.0000000   0.0000000   0.0000000   0.0000000   0.0000000   0.0000000   0.0000000   0.0000000   0.0000000   0.0000000
 NQMom=    0.0000000   0.0000000   2.0440000   0.0000000   2.0440000   0.0000000   0.0000000   0.0000000   0.0000000   0.0000000
 NMagM=    0.0000000   0.0000000   0.4037610   0.0000000   0.4037610   0.0000000   2.6288670   2.6288670   0.0000000   2.6288670
 AtZNuc=   8.0000000   6.0000000   7.0000000   6.0000000   7.0000000   6.0000000   9.0000000   9.0000000   6.0000000   9.0000000

  Atom        11          12          13          14          15          16          17          18          19          20
 IAtWgt=          16          12          19          19          19          12          19          19          19          12
 AtmWgt=  15.9949146  12.0000000  18.9984033  18.9984033  18.9984033  12.0000000  18.9984033  18.9984033  18.9984033  12.0000000
 NucSpn=           0           0           1           1           1           0           1           1           1           0
 AtZEff=   0.0000000   0.0000000   0.0000000   0.0000000   0.0000000   0.0000000   0.0000000   0.0000000   0.0000000   0.0000000
 NQMom=    0.0000000   0.0000000   0.0000000   0.0000000   0.0000000   0.0000000   0.0000000   0.0000000   0.0000000   0.0000000
 NMagM=    0.0000000   0.0000000   2.6288670   2.6288670   2.6288670   0.0000000   2.6288670   2.6288670   2.6288670   0.0000000
 AtZNuc=   8.0000000   6.0000000   9.0000000   9.0000000   9.0000000   6.0000000   9.0000000   9.0000000   9.0000000   6.0000000

  Atom        21          22          23          24          25          26          27          28          29          30
 IAtWgt=          16          14          12          19          19          12          19          16          12          19
 AtmWgt=  15.9949146  14.0030740  12.0000000  18.9984033  18.9984033  12.0000000  18.9984033  15.9949146  12.0000000  18.9984033
 NucSpn=           0           2           0           1           1           0           1           0           0           1
 AtZEff=   0.0000000   0.0000000   0.0000000   0.0000000   0.0000000   0.0000000   0.0000000   0.0000000   0.0000000   0.0000000
 NQMom=    0.0000000   2.0440000   0.0000000   0.0000000   0.0000000   0.0000000   0.0000000   0.0000000   0.0000000   0.0000000
 NMagM=    0.0000000   0.4037610   0.0000000   2.6288670   2.6288670   0.0000000   2.6288670   0.0000000   0.0000000   2.6288670
 AtZNuc=   8.0000000   7.0000000   6.0000000   9.0000000   9.0000000   6.0000000   9.0000000   8.0000000   6.0000000   9.0000000

  Atom        31          32          33          34          35          36          37          38          39
 IAtWgt=          19          19          12          19          19          19           1           1           1
 AtmWgt=  18.9984033  18.9984033  12.0000000  18.9984033  18.9984033  18.9984033   1.0078250   1.0078250   1.0078250
 NucSpn=           1           1           0           1           1           1           1           1           1
 AtZEff=   0.0000000   0.0000000   0.0000000   0.0000000   0.0000000   0.0000000   0.0000000   0.0000000   0.0000000
 NQMom=    0.0000000   0.0000000   0.0000000   0.0000000   0.0000000   0.0000000   0.0000000   0.0000000   0.0000000
 NMagM=    2.6288670   2.6288670   0.0000000   2.6288670   2.6288670   2.6288670   2.7928460   2.7928460   2.7928460
 AtZNuc=   9.0000000   9.0000000   6.0000000   9.0000000   9.0000000   9.0000000   1.0000000   1.0000000   1.0000000
 Leave Link  101 at Sun Mar  3 18:05:48 2024, MaxMem=  5368709120 cpu:         0.8
 (Enter /home/k0335/k033513/app/g09/l202.exe)
                          Input orientation:                          
 ---------------------------------------------------------------------
 Center     Atomic      Atomic             Coordinates (Angstroms)
 Number     Number       Type             X           Y           Z
 ---------------------------------------------------------------------
      1          8           0        2.175025   -1.901031    1.735791
      2          6           0        1.198726   -1.367255    1.221749
      3          7           0        0.101647   -1.148439    1.984750
      4          6           0       -0.820380   -0.132584    1.632457
      5          7           0       -1.068831   -0.139537    0.225355
      6          6           0       -2.143262    0.714599   -0.276559
      7          9           0       -1.699165    2.001342   -0.181323
      8          9           0       -2.331195    0.464839   -1.600322
      9          6           0       -3.544180    0.656019    0.392596
     10          9           0       -3.377686    0.872033    1.744789
     11          8           0       -4.464436    1.700956    0.048899
     12          6           0       -4.646061    1.915293   -1.326992
     13          9           0       -4.866468    0.758088   -1.960394
     14          9           0       -5.721149    2.707405   -1.492276
     15          9           0       -3.573171    2.533230   -1.838626
     16          6           0       -4.097227   -0.762435    0.215831
     17          9           0       -5.367884   -0.846743    0.680935
     18          9           0       -3.367918   -1.659013    0.926965
     19          9           0       -4.107326   -1.201338   -1.056037
     20          6           0        0.065829   -0.208086   -0.575043
     21          8           0        0.133246    0.360622   -1.659722
     22          7           0        1.125149   -0.942690   -0.077570
     23          6           0        2.314499   -1.115544   -0.899619
     24          9           0        1.993892   -1.109499   -2.226346
     25          9           0        2.758113   -2.398439   -0.714002
     26          6           0        3.497424   -0.144819   -0.655667
     27          9           0        4.556123   -0.514583   -1.443560
     28          8           0        3.944447   -0.097483    0.706473
     29          6           0        5.042519   -0.945497    0.933101
     30          9           0        4.857219   -2.159596    0.395007
     31          9           0        6.152373   -0.383166    0.418303
     32          9           0        5.215291   -1.074227    2.262987
     33          6           0        3.079438    1.258518   -1.071272
     34          9           0        4.112106    2.128316   -0.909740
     35          9           0        2.071694    1.728740   -0.295162
     36          9           0        2.698609    1.345768   -2.359711
     37          1           0        0.232807   -1.383584    2.962404
     38          1           0       -1.722565   -0.348084    2.202430
     39          1           0       -0.407271    0.837903    1.929121
 ---------------------------------------------------------------------
                    Distance matrix (angstroms):
                    1          2          3          4          5
     1  O    0.000000
     2  C    1.225690   0.000000
     3  N    2.219746   1.354117   0.000000
     4  C    3.480019   2.402058   1.416406   0.000000
     5  N    3.988343   2.764400   2.341660   1.428885   0.000000
     6  C    5.434949   4.212829   3.691076   2.472262   1.461461
     7  F    5.823503   4.659810   4.225626   2.935251   2.268495
     8  F    6.085475   4.876576   4.623216   3.618057   2.300419
     9  C    6.407182   5.222671   4.368418   3.094873   2.605423
    10  F    6.206655   5.121672   4.030589   2.749852   2.943258
    11  O    7.739661   6.546824   5.719763   4.375919   3.866353
    12  C    8.394771   7.171662   6.549414   5.252426   4.407798
    13  F    8.385423   7.171450   6.624287   5.483858   4.472726
    14  F    9.695755   8.476642   7.801423   6.468928   5.718339
    15  F    8.092026   6.881183   6.455786   5.170381   4.204215
    16  C    6.553459   5.424463   4.572594   3.625089   3.091808
    17  F    7.688935   6.609371   5.630872   4.700554   4.380588
    18  F    5.606870   4.585440   3.662987   3.052483   2.843741
    19  F    6.910268   5.776679   5.192749   4.378841   3.464367
    20  C    3.557348   2.419833   2.727286   2.379942   1.390248
    21  O    4.562175   3.524724   3.944672   3.462816   2.290996
    22  N    2.304113   1.368904   2.311504   2.713954   2.355922
    23  C    2.753512   2.410085   3.635572   4.147901   3.696631
    24  F    4.044485   3.547969   4.616864   4.874921   4.041279
    25  F    2.566884   2.691126   3.987803   4.842064   4.542084
    26  C    3.248398   3.209837   4.417053   4.886624   4.650474
    27  F    4.207153   4.370702   5.656628   6.206012   5.879289
    28  O    2.728211   3.068683   4.183971   4.854097   5.036487
    29  C    3.127280   3.877621   5.055627   5.960160   6.204762
    30  F    3.009771   3.833520   5.115192   6.154282   6.263185
    31  F    4.456342   5.113959   6.296879   7.082107   7.227888
    32  F    3.194489   4.159668   5.121746   6.141139   6.672015
    33  C    4.322073   3.961023   4.898975   4.945088   4.565516
    34  F    5.194878   5.024942   5.932873   5.991982   5.768337
    35  F    4.160611   3.556442   4.166202   3.942630   3.691110
    36  F    5.252521   4.736771   5.642661   5.523243   4.804404
    37  H    2.354685   1.990765   1.014053   2.107834   3.276179
    38  H    4.221446   3.245672   2.003922   1.088691   2.092770
    39  H    3.769269   2.818213   2.051255   1.095680   2.072648
                    6          7          8          9         10
     6  C    0.000000
     7  F    1.364551   0.000000
     8  F    1.360164   2.184917   0.000000
     9  C    1.553632   2.354434   2.340856   0.000000
    10  F    2.373697   2.793328   3.528557   1.379423   0.000000
    11  O    2.542965   2.791050   2.966249   1.434187   2.178114
    12  C    2.968009   3.162935   2.745384   2.399353   3.483246
    13  F    3.202037   3.839607   2.577451   2.701005   3.994726
    14  F    4.272063   4.288762   4.066026   3.535551   4.397613
    15  F    2.791435   2.557627   2.424363   2.916010   3.954574
    16  C    2.498411   3.680611   2.814868   1.532683   2.350944
    17  F    3.708473   4.723831   4.018191   2.380615   2.836700
    18  F    2.929554   4.172678   3.460162   2.382434   2.659911
    19  F    2.852358   4.101405   2.495402   2.421868   3.560319
    20  C    2.412576   2.855134   2.692536   3.836035   4.290230
    21  O    2.687178   2.869731   2.467359   4.221698   4.917202
    22  N    3.669975   4.081034   4.030661   4.957778   5.185531
    23  C    4.858936   5.132292   4.956921   6.255587   6.583641
    24  F    4.923926   5.243865   4.645086   6.375434   6.967800
    25  F    5.822872   6.285630   5.906351   7.090358   7.374935
    26  C    5.718362   5.642300   5.936064   7.164104   7.352776
    27  F    6.910466   6.859428   6.958376   8.387889   8.662194
    28  O    6.219809   6.086346   6.709783   7.532982   7.458666
    29  C    7.473596   7.441512   7.923316   8.751480   8.652289
    30  F    7.597285   7.786638   7.908369   8.860655   8.878420
    31  F    8.396754   8.227520   8.761557   9.752113   9.703459
    32  F    7.987333   7.952577   8.616457   9.122524   8.825855
    33  C    5.310745   4.917199   5.494067   6.810156   7.055071
    34  F    6.444311   5.858121   6.690305   7.904584   8.044983
    35  F    4.335283   3.782413   4.763016   5.758627   5.881419
    36  F    5.308636   4.951320   5.162522   6.857358   7.347973
    37  H    4.531993   5.007321   5.550607   5.002952   4.427872
    38  H    2.729774   3.347033   3.936013   2.757173   2.106548
    39  H    2.809607   2.734329   4.037032   3.497741   2.976325
                   11         12         13         14         15
    11  O    0.000000
    12  C    1.404281   0.000000
    13  F    2.255635   1.337498   0.000000
    14  F    2.228786   1.345576   2.179323   0.000000
    15  F    2.247172   1.339667   2.199676   2.182683   0.000000
    16  C    2.496198   3.138750   2.763997   4.194585   3.918780
    17  F    2.776051   3.490221   3.131057   4.180862   4.581856
    18  F    3.641805   4.414707   4.052761   5.518698   5.026482
    19  F    3.125975   3.174436   2.287686   4.251235   3.852891
    20  C    4.955507   5.222650   5.213467   6.544503   4.727978
    21  O    5.084738   5.036813   5.024492   6.309467   4.299972
    22  N    6.184523   6.560182   6.506700   7.886468   6.103896
    23  C    7.401778   7.603816   7.496801   8.918398   6.989989
    24  F    7.401716   7.351679   7.114995   8.638835   6.664232
    25  F    8.339800   8.591032   8.345741   9.928406   8.103783
    26  C    8.203323   8.426808   8.513063   9.685927   7.652755
    27  F    9.407791   9.518302   9.522186  10.770603   8.690838
    28  O    8.624158   9.054451   9.245345  10.301730   8.361385
    29  C    9.907962  10.351846  10.462435  11.622508   9.696088
    30  F   10.095390  10.482477  10.421655  11.796245   9.903697
    31  F   10.825740  11.177439  11.330292  12.417023  10.401216
    32  F   10.310235  10.911986  11.083149  12.165873  10.347659
    33  C    7.639409   7.757582   8.011142   8.928989   6.816959
    34  F    8.640526   8.770688   9.143095   9.867502   7.751791
    35  F    6.545238   6.799096   7.200920   7.944764   5.907113
    36  F    7.565499   7.438753   7.598369   8.573145   6.404438
    37  H    6.329849   7.285936   7.404276   8.487046   7.271643
    38  H    4.044022   5.111411   5.332621   6.243039   5.296871
    39  H    4.554194   5.452557   5.917697   6.590773   5.205091
                   16         17         18         19         20
    16  C    0.000000
    17  F    1.355728   0.000000
    18  F    1.357002   2.172597   0.000000
    19  F    1.345506   2.175274   2.165292   0.000000
    20  C    4.273619   5.613430   4.018935   4.316611   0.000000
    21  O    4.761917   6.099085   4.798752   4.559233   1.226582
    22  N    5.233716   6.537891   4.659384   5.329455   1.381767
    23  C    6.517603   7.847892   5.993466   6.424303   2.446497
    24  F    6.571637   7.919411   6.244545   6.213125   2.693840
    25  F    7.108923   8.389603   6.384965   6.977413   3.473521
    26  C    7.669399   8.992935   7.206277   7.688222   3.433125
    27  F    8.814504  10.154296   8.349822   8.699262   4.583776
    28  O    8.084022   9.342460   7.480486   8.316008   4.086342
    29  C    9.169675  10.413925   8.440651   9.367059   5.252211
    30  F    9.064561  10.313005   8.257508   9.131640   5.263726
    31  F   10.258613  11.532571   9.618860  10.397332   6.169555
    32  F    9.539971  10.703188   8.706228   9.896629   5.943196
    33  C    7.566069   8.880293   7.353458   7.596098   3.388069
    34  F    8.775904  10.062377   8.583013   8.869445   4.684352
    35  F    6.672530   7.933045   6.523791   6.880739   2.802342
    36  F    7.567121   8.894995   7.525536   7.382958   3.539920
    37  H    5.165141   6.071329   4.145370   5.917587   3.731382
    38  H    3.123665   3.981452   2.460189   4.127073   3.306404
    39  H    4.371752   5.385507   4.000542   5.173015   2.754769
                   21         22         23         24         25
    21  O    0.000000
    22  N    2.277213   0.000000
    23  C    2.741293   1.456089   0.000000
    24  F    2.438098   2.323742   1.364929   0.000000
    25  F    3.923867   2.278338   1.370061   2.128987   0.000000
    26  C    3.547012   2.568751   1.549558   2.378707   2.372506
    27  F    4.513818   3.717632   2.383674   2.744396   2.704442
    28  O    4.509323   3.045905   2.504538   3.664733   2.952886
    29  C    5.703476   4.045646   3.290877   4.393533   3.168990
    30  F    5.734922   3.953800   3.038343   4.021547   2.386041
    31  F    6.411029   5.082513   4.123418   4.981435   4.106634
    32  F    6.578269   4.714315   4.291664   5.525646   4.080898
    33  C    3.135688   3.106768   2.500153   2.849581   3.688391
    34  F    4.417979   4.364115   3.708655   4.087019   4.728966
    35  F    2.737033   2.842505   2.917923   3.433821   4.204784
    36  F    2.835769   3.594577   2.887467   2.557880   4.090353
    37  H    4.941277   3.198766   4.395510   5.486317   4.574173
    38  H    4.343100   3.696137   5.148746   5.831455   5.725907
    39  H    3.660567   3.089601   4.384719   5.179369   5.242105
                   26         27         28         29         30
    26  C    0.000000
    27  F    1.370527   0.000000
    28  O    1.434397   2.273931   0.000000
    29  C    2.356393   2.463896   1.405792   0.000000
    30  F    2.648072   2.485368   2.276505   1.340865   0.000000
    31  F    2.873843   2.455976   2.244904   1.346480   2.198561
    32  F    3.511895   3.806073   2.234236   1.347226   2.189884
    33  C    1.522102   2.337324   2.397365   3.567756   4.122376
    34  F    2.368445   2.732587   2.755800   3.702710   4.543539
    35  F    2.381784   3.538885   2.800994   4.181623   4.832664
    36  F    2.400775   2.783989   3.610619   4.646119   4.953347
    37  H    5.028191   6.233678   4.529851   5.238637   5.345924
    38  H    5.954689   7.262430   5.866491   6.909013   7.059880
    39  H    4.784717   6.151380   4.615979   5.820033   6.249269
                   31         32         33         34         35
    31  F    0.000000
    32  F    2.181409   0.000000
    33  C    3.789049   4.595743   0.000000
    34  F    3.497703   4.641066   1.359796   0.000000
    35  F    4.649852   4.927774   1.356099   2.168098   0.000000
    36  F    4.757632   5.793048   1.346372   2.170892   2.191359
    37  H    6.520318   5.040837   5.599514   6.509678   4.866190
    38  H    8.074589   6.976016   6.029720   7.061271   4.994754
    39  H    6.841236   5.948186   4.619136   5.490817   3.447650
                   36         37         38         39
    36  F    0.000000
    37  H    6.469502   0.000000
    38  H    6.574880   2.339509   0.000000
    39  H    5.319633   2.532267   1.791999   0.000000
 Symmetry turned off by external request.
 Stoichiometry    C11H3F18N3O4
 Framework group  C1[X(C11H3F18N3O4)]
 Deg. of freedom   111
 Full point group                 C1      NOp   1
 Rotational constants (GHZ):      0.2620329      0.0602165      0.0552703
 Leave Link  202 at Sun Mar  3 18:05:48 2024, MaxMem=  5368709120 cpu:         0.1
 (Enter /home/k0335/k033513/app/g09/l301.exe)
 Standard basis: 6-31G(d,p) (6D, 7F)
 Ernie: Thresh=  0.10000D-02 Tol=  0.10000D-05 Strict=F.
   555 basis functions,  1029 primitive gaussians,   555 cartesian basis functions
   142 alpha electrons      142 beta electrons
       nuclear repulsion energy      5193.0046697799 Hartrees.
 IExCor=20419 DFT=T Ex+Corr=CAM-B3LYP ExCW=0 ScaHFX=  1.000000
 ScaDFX=  1.000000  1.000000  1.000000  0.810000 ScalE2=  1.000000  1.000000
 IRadAn=      0 IRanWt=     -1 IRanGd=            0 ICorTp=0 IEmpDi=  4
  HFx wShort=  0.000000 wLong=  0.330000 cFull=  0.190000 cShort=  0.000000 cLong=  0.460000
  DFx wShort=  0.000000 wLong=  0.330000 cFull=  0.190000 cShort=  0.000000 cLong=  0.460000
 NAtoms=   39 NActive=   39 NUniq=   39 SFac= 1.00D+00 NAtFMM=   60 NAOKFM=F Big=F
 Integral buffers will be    131072 words long.
 Raffenetti 2 integral format.
 Two-electron integral symmetry is turned off.
 Using the following non-standard input for PCM:
 eps=4.9
 --- end of non-standard input.
 ------------------------------------------------------------------------------
 Polarizable Continuum Model (PCM)
 =================================
 Model                : PCM (using non-symmetric T matrix).
 Atomic radii         : UFF (Universal Force Field).
 Polarization charges : Total charges.
 Charge compensation  : None.
 Solution method      : On-the-fly selection.
 Cavity type          : Scaled VdW (van der Waals Surface) (Alpha=1.100).
 Cavity algorithm     : GePol (No added spheres)
                        Default sphere list used, NSphG=   39.
                        Lebedev-Laikov grids with approx.  5.0 points / Ang**2.
                        Smoothing algorithm: Karplus/York (Gamma=1.0000).
                        Polarization charges: spherical gaussians, with
                                              point-specific exponents (IZeta= 3).
                        Self-potential: point-specific (ISelfS= 7).
                        Self-field    : sphere-specific E.n sum rule (ISelfD= 2).
 Solvent              : Generic,
                        Eps                           =   4.900000
                        Eps(infinity)                 =   0.000000
                        RSolv                         =   0.000000 Ang.
                        Molar volume                  =   0.000000 cm**3/mol
                        Thermal expansion coefficient =   0.000000 K**-1
                        Absolute temperature          = 298.150000 K
                        Numeral density               =   0.000000 Ang**-3
                        Hydrogen bond acidity         =   0.000000
                        Hydrogen bond basicity        =   0.000000
                        Surface tension at interface  =   0.000000 (cal/mol)*Ang**-2
                        Carbon aromaticity            =   0.000000
                        Electronegative halogenicity  =   0.000000
 ------------------------------------------------------------------------------
 GePol: Number of generator spheres                  =      39
 GePol: Total number of spheres                      =      39
 GePol: Number of exposed spheres                    =      39 (100.00%)
 GePol: Number of points                             =    3247
 GePol: Average weight of points                     =       0.12
 GePol: Minimum weight of points                     =   0.26D-10
 GePol: Maximum weight of points                     =    0.20577
 GePol: Number of points with low weight             =     144
 GePol: Fraction of low-weight points (<1% of avg)   =       4.43%
 GePol: Cavity surface area                          =    402.607 Ang**2
 GePol: Cavity volume                                =    470.246 Ang**3
 Leave Link  301 at Sun Mar  3 18:05:48 2024, MaxMem=  5368709120 cpu:         0.7
 (Enter /home/k0335/k033513/app/g09/l302.exe)
 NPDir=0 NMtPBC=     1 NCelOv=     1 NCel=       1 NClECP=     1 NCelD=      1
         NCelK=      1 NCelE2=     1 NClLst=     1 CellRange=     0.0.
 One-electron integrals computed using PRISM.
 NBasis=   555 RedAO= T EigKep=  1.28D-03  NBF=   555
 NBsUse=   555 1.00D-06 EigRej= -1.00D+00 NBFU=   555
 Precomputing XC quadrature grid using
 IXCGrd= 4 IRadAn=           0 IRanWt=          -1 IRanGd=           0 AccXCQ= 0.00D+00.
 Generated NRdTot=       0 NPtTot=           0 NUsed=           0 NTot=          32
 NSgBfM=   539   542   542   542   542 MxSgAt=    39 MxSgA2=    39.
 Leave Link  302 at Sun Mar  3 18:05:48 2024, MaxMem=  5368709120 cpu:        10.0
 (Enter /home/k0335/k033513/app/g09/l303.exe)
 DipDrv:  MaxL=1.
 Leave Link  303 at Sun Mar  3 18:05:48 2024, MaxMem=  5368709120 cpu:         0.7
 (Enter /home/k0335/k033513/app/g09/l401.exe)
 ExpMin= 1.61D-01 ExpMax= 7.00D+03 ExpMxC= 1.05D+03 IAcc=1 IRadAn=         1 AccDes= 0.00D+00
 Harris functional with IExCor=20419 and IRadAn=       1 diagonalized for initial guess.
 HarFok:  IExCor=20419 AccDes= 0.00D+00 IRadAn=         1 IDoV= 1 UseB2=F ITyADJ=14
 ICtDFT=  3500011 ScaDFX=  1.000000  1.000000  1.000000  1.000000
 FoFCou: FMM=F IPFlag=           0 FMFlag=      100000 FMFlg1=           0
         NFxFlg=           0 DoJE=T BraDBF=F KetDBF=T FulRan=T
         wScrn=  0.000000 ICntrl=     500 IOpCl=  0 I1Cent=   200000004 NGrid=           0
         NMat0=    1 NMatS0=      1 NMatT0=    0 NMatD0=    1 NMtDS0=    0 NMtDT0=    0
 Symmetry not used in FoFCou.
 Harris En= -2603.00995875496    
 JPrj=0 DoOrth=F DoCkMO=F.
 Leave Link  401 at Sun Mar  3 18:05:49 2024, MaxMem=  5368709120 cpu:        11.7
 (Enter /home/k0335/k033513/app/g09/l502.exe)
 Closed shell SCF:
 Using DIIS extrapolation, IDIIS=  1040.
 Two-electron integral symmetry not used.
 IVT=      959353 IEndB=      959353 NGot=  5368709120 MDV=  5368074988
 LenX=  5368074988 LenY=  5367766408
 Requested convergence on RMS density matrix=1.00D-08 within 128 cycles.
 Requested convergence on MAX density matrix=1.00D-06.
 Requested convergence on             energy=1.00D-06.
 No special actions if energy rises.
 Fock matrices will be formed incrementally for  20 cycles.

 Cycle   1  Pass 1  IDiag  1:
 FoFJK:  IHMeth= 1 ICntrl=       0 DoSepK=T KAlg= 0 I1Cent=   0 FoldK=F
 IRaf=         1 NMat=   1 IRICut=       1 DoRegI=T DoRafI=F ISym2E= 0.
 FoFCou: FMM=F IPFlag=           0 FMFlag=      100000 FMFlg1=           0
         NFxFlg=           0 DoJE=T BraDBF=F KetDBF=F FulRan=T
         wScrn=  0.000000 ICntrl=     500 IOpCl=  0 I1Cent=           0 NGrid=           0
         NMat0=    1 NMatS0=      1 NMatT0=    0 NMatD0=    1 NMtDS0=    0 NMtDT0=    0
 Symmetry not used in FoFCou.
 Inv3:  Mode=1 IEnd=    31629027.
 Iteration    1 A*A^-1 deviation from unit magnitude is 6.66D-15 for   3245.
 Iteration    1 A*A^-1 deviation from orthogonality  is 4.39D-15 for   3233   2591.
 Iteration    1 A^-1*A deviation from unit magnitude is 6.55D-15 for   3245.
 Iteration    1 A^-1*A deviation from orthogonality  is 2.19D-14 for   2126   2085.
 E= -2681.65487119210    
 DIIS: error= 5.73D-02 at cycle   1 NSaved=   1.
 NSaved= 1 IEnMin= 1 EnMin= -2681.65487119210     IErMin= 1 ErrMin= 5.73D-02
 ErrMax= 5.73D-02  0.00D+00 EMaxC= 1.00D-01 BMatC= 2.20D+00 BMatP= 2.20D+00
 IDIUse=3 WtCom= 4.27D-01 WtEn= 5.73D-01
 Coeff-Com:  0.100D+01
 Coeff-En:   0.100D+01
 Coeff:      0.100D+01
 Gap=     0.441 Goal=   None    Shift=    0.000
 GapD=    0.441 DampG=2.000 DampE=0.500 DampFc=1.0000 IDamp=-1.
 RMSDP=3.09D-03 MaxDP=9.64D-02              OVMax= 1.80D-01

 Cycle   2  Pass 1  IDiag  1:
 RMSU=  3.09D-03    CP:  1.00D+00
 E= -2682.07465855037     Delta-E=       -0.419787358263 Rises=F Damp=F
 DIIS: error= 1.84D-02 at cycle   2 NSaved=   2.
 NSaved= 2 IEnMin= 2 EnMin= -2682.07465855037     IErMin= 2 ErrMin= 1.84D-02
 ErrMax= 1.84D-02  0.00D+00 EMaxC= 1.00D-01 BMatC= 7.27D-01 BMatP= 2.20D+00
 IDIUse=3 WtCom= 8.16D-01 WtEn= 1.84D-01
 Coeff-Com:  0.345D+00 0.655D+00
 Coeff-En:   0.277D+00 0.723D+00
 Coeff:      0.332D+00 0.668D+00
 Gap=     0.416 Goal=   None    Shift=    0.000
 RMSDP=1.42D-03 MaxDP=9.26D-02 DE=-4.20D-01 OVMax= 1.06D-01

 Cycle   3  Pass 1  IDiag  1:
 RMSU=  8.62D-04    CP:  1.00D+00  6.37D-01
 E= -2682.40931973274     Delta-E=       -0.334661182370 Rises=F Damp=F
 DIIS: error= 9.76D-03 at cycle   3 NSaved=   3.
 NSaved= 3 IEnMin= 3 EnMin= -2682.40931973274     IErMin= 3 ErrMin= 9.76D-03
 ErrMax= 9.76D-03  0.00D+00 EMaxC= 1.00D-01 BMatC= 1.46D-01 BMatP= 7.27D-01
 IDIUse=3 WtCom= 9.02D-01 WtEn= 9.76D-02
 Coeff-Com:  0.941D-01 0.338D+00 0.568D+00
 Coeff-En:   0.000D+00 0.126D+00 0.874D+00
 Coeff:      0.849D-01 0.317D+00 0.598D+00
 Gap=     0.367 Goal=   None    Shift=    0.000
 RMSDP=6.44D-04 MaxDP=5.91D-02 DE=-3.35D-01 OVMax= 8.13D-02

 Cycle   4  Pass 1  IDiag  1:
 RMSU=  3.28D-04    CP:  9.98D-01  7.24D-01  4.39D-01
 E= -2682.49403439587     Delta-E=       -0.084714663135 Rises=F Damp=F
 DIIS: error= 3.95D-03 at cycle   4 NSaved=   4.
 NSaved= 4 IEnMin= 4 EnMin= -2682.49403439587     IErMin= 4 ErrMin= 3.95D-03
 ErrMax= 3.95D-03  0.00D+00 EMaxC= 1.00D-01 BMatC= 1.65D-02 BMatP= 1.46D-01
 IDIUse=3 WtCom= 9.61D-01 WtEn= 3.95D-02
 Coeff-Com:  0.608D-02 0.874D-01 0.313D+00 0.594D+00
 Coeff-En:   0.000D+00 0.000D+00 0.720D-01 0.928D+00
 Coeff:      0.584D-02 0.839D-01 0.303D+00 0.607D+00
 Gap=     0.364 Goal=   None    Shift=    0.000
 RMSDP=2.19D-04 MaxDP=2.20D-02 DE=-8.47D-02 OVMax= 2.63D-02

 Cycle   5  Pass 1  IDiag  1:
 RMSU=  9.70D-05    CP:  9.98D-01  7.18D-01  6.20D-01  6.45D-01
 E= -2682.50509127724     Delta-E=       -0.011056881365 Rises=F Damp=F
 DIIS: error= 1.14D-03 at cycle   5 NSaved=   5.
 NSaved= 5 IEnMin= 5 EnMin= -2682.50509127724     IErMin= 5 ErrMin= 1.14D-03
 ErrMax= 1.14D-03  0.00D+00 EMaxC= 1.00D-01 BMatC= 1.09D-03 BMatP= 1.65D-02
 IDIUse=3 WtCom= 9.89D-01 WtEn= 1.14D-02
 Coeff-Com: -0.680D-03 0.324D-01 0.148D+00 0.351D+00 0.469D+00
 Coeff-En:   0.000D+00 0.000D+00 0.000D+00 0.000D+00 0.100D+01
 Coeff:     -0.672D-03 0.320D-01 0.146D+00 0.347D+00 0.475D+00
 Gap=     0.353 Goal=   None    Shift=    0.000
 RMSDP=5.05D-05 MaxDP=4.37D-03 DE=-1.11D-02 OVMax= 6.68D-03

 Cycle   6  Pass 1  IDiag  1:
 RMSU=  2.23D-05    CP:  9.98D-01  7.21D-01  6.05D-01  6.80D-01  5.84D-01
 E= -2682.50587769604     Delta-E=       -0.000786418800 Rises=F Damp=F
 DIIS: error= 8.55D-05 at cycle   6 NSaved=   6.
 NSaved= 6 IEnMin= 6 EnMin= -2682.50587769604     IErMin= 6 ErrMin= 8.55D-05
 ErrMax= 8.55D-05  0.00D+00 EMaxC= 1.00D-01 BMatC= 1.65D-05 BMatP= 1.09D-03
 IDIUse=1 WtCom= 1.00D+00 WtEn= 0.00D+00
 Coeff-Com: -0.579D-03-0.199D-03 0.692D-02 0.271D-01 0.120D+00 0.847D+00
 Coeff:     -0.579D-03-0.199D-03 0.692D-02 0.271D-01 0.120D+00 0.847D+00
 Gap=     0.353 Goal=   None    Shift=    0.000
 RMSDP=1.07D-05 MaxDP=9.49D-04 DE=-7.86D-04 OVMax= 6.89D-04

 Cycle   7  Pass 1  IDiag  1:
 RMSU=  7.41D-06    CP:  9.98D-01  7.21D-01  6.09D-01  6.89D-01  6.43D-01
                    CP:  1.01D+00
 E= -2682.50589079554     Delta-E=       -0.000013099504 Rises=F Damp=F
 DIIS: error= 4.31D-05 at cycle   7 NSaved=   7.
 NSaved= 7 IEnMin= 7 EnMin= -2682.50589079554     IErMin= 7 ErrMin= 4.31D-05
 ErrMax= 4.31D-05  0.00D+00 EMaxC= 1.00D-01 BMatC= 3.20D-06 BMatP= 1.65D-05
 IDIUse=1 WtCom= 1.00D+00 WtEn= 0.00D+00
 Coeff-Com: -0.173D-03-0.294D-02-0.944D-02-0.181D-01 0.168D-01 0.377D+00
 Coeff-Com:  0.637D+00
 Coeff:     -0.173D-03-0.294D-02-0.944D-02-0.181D-01 0.168D-01 0.377D+00
 Coeff:      0.637D+00
 Gap=     0.353 Goal=   None    Shift=    0.000
 RMSDP=3.26D-06 MaxDP=1.99D-04 DE=-1.31D-05 OVMax= 3.32D-04

 Cycle   8  Pass 1  IDiag  1:
 RMSU=  2.04D-06    CP:  9.98D-01  7.21D-01  6.10D-01  6.89D-01  6.54D-01
                    CP:  1.09D+00  7.93D-01
 E= -2682.50589342024     Delta-E=       -0.000002624702 Rises=F Damp=F
 DIIS: error= 8.78D-06 at cycle   8 NSaved=   8.
 NSaved= 8 IEnMin= 8 EnMin= -2682.50589342024     IErMin= 8 ErrMin= 8.78D-06
 ErrMax= 8.78D-06  0.00D+00 EMaxC= 1.00D-01 BMatC= 2.04D-07 BMatP= 3.20D-06
 IDIUse=1 WtCom= 1.00D+00 WtEn= 0.00D+00
 Coeff-Com: -0.945D-05-0.109D-02-0.406D-02-0.948D-02-0.396D-02 0.507D-01
 Coeff-Com:  0.222D+00 0.746D+00
 Coeff:     -0.945D-05-0.109D-02-0.406D-02-0.948D-02-0.396D-02 0.507D-01
 Coeff:      0.222D+00 0.746D+00
 Gap=     0.353 Goal=   None    Shift=    0.000
 RMSDP=1.13D-06 MaxDP=1.30D-04 DE=-2.62D-06 OVMax= 1.16D-04

 Cycle   9  Pass 1  IDiag  1:
 RMSU=  7.49D-07    CP:  9.98D-01  7.21D-01  6.10D-01  6.89D-01  6.59D-01
                    CP:  1.10D+00  8.55D-01  1.00D+00
 E= -2682.50589360977     Delta-E=       -0.000000189526 Rises=F Damp=F
 DIIS: error= 3.20D-06 at cycle   9 NSaved=   9.
 NSaved= 9 IEnMin= 9 EnMin= -2682.50589360977     IErMin= 9 ErrMin= 3.20D-06
 ErrMax= 3.20D-06  0.00D+00 EMaxC= 1.00D-01 BMatC= 3.06D-08 BMatP= 2.04D-07
 IDIUse=1 WtCom= 1.00D+00 WtEn= 0.00D+00
 Coeff-Com:  0.174D-04-0.617D-04-0.391D-03-0.158D-02-0.351D-02-0.324D-01
 Coeff-Com:  0.955D-02 0.307D+00 0.722D+00
 Coeff:      0.174D-04-0.617D-04-0.391D-03-0.158D-02-0.351D-02-0.324D-01
 Coeff:      0.955D-02 0.307D+00 0.722D+00
 Gap=     0.353 Goal=   None    Shift=    0.000
 RMSDP=4.75D-07 MaxDP=3.29D-05 DE=-1.90D-07 OVMax= 5.92D-05

 Cycle  10  Pass 1  IDiag  1:
 RMSU=  2.65D-07    CP:  9.98D-01  7.21D-01  6.10D-01  6.89D-01  6.61D-01
                    CP:  1.11D+00  8.79D-01  1.10D+00  9.23D-01
 E= -2682.50589363985     Delta-E=       -0.000000030082 Rises=F Damp=F
 DIIS: error= 1.31D-06 at cycle  10 NSaved=  10.
 NSaved=10 IEnMin=10 EnMin= -2682.50589363985     IErMin=10 ErrMin= 1.31D-06
 ErrMax= 1.31D-06  0.00D+00 EMaxC= 1.00D-01 BMatC= 2.20D-09 BMatP= 3.06D-08
 IDIUse=1 WtCom= 1.00D+00 WtEn= 0.00D+00
 Coeff-Com:  0.654D-05 0.965D-04 0.317D-03 0.478D-03-0.500D-03-0.165D-01
 Coeff-Com: -0.191D-01 0.227D-01 0.232D+00 0.781D+00
 Coeff:      0.654D-05 0.965D-04 0.317D-03 0.478D-03-0.500D-03-0.165D-01
 Coeff:     -0.191D-01 0.227D-01 0.232D+00 0.781D+00
 Gap=     0.353 Goal=   None    Shift=    0.000
 RMSDP=1.48D-07 MaxDP=1.38D-05 DE=-3.01D-08 OVMax= 2.26D-05

 Cycle  11  Pass 1  IDiag  1:
 RMSU=  8.63D-08    CP:  9.98D-01  7.21D-01  6.10D-01  6.89D-01  6.61D-01
                    CP:  1.11D+00  8.86D-01  1.13D+00  1.02D+00  1.00D+00
 E= -2682.50589364239     Delta-E=       -0.000000002536 Rises=F Damp=F
 DIIS: error= 6.03D-07 at cycle  11 NSaved=  11.
 NSaved=11 IEnMin=11 EnMin= -2682.50589364239     IErMin=11 ErrMin= 6.03D-07
 ErrMax= 6.03D-07  0.00D+00 EMaxC= 1.00D-01 BMatC= 5.06D-10 BMatP= 2.20D-09
 IDIUse=1 WtCom= 1.00D+00 WtEn= 0.00D+00
 Coeff-Com:  0.148D-05 0.522D-04 0.192D-03 0.376D-03 0.192D-03-0.473D-02
 Coeff-Com: -0.935D-02-0.169D-01 0.415D-01 0.377D+00 0.612D+00
 Coeff:      0.148D-05 0.522D-04 0.192D-03 0.376D-03 0.192D-03-0.473D-02
 Coeff:     -0.935D-02-0.169D-01 0.415D-01 0.377D+00 0.612D+00
 Gap=     0.353 Goal=   None    Shift=    0.000
 RMSDP=5.02D-08 MaxDP=4.14D-06 DE=-2.54D-09 OVMax= 9.43D-06

 Cycle  12  Pass 1  IDiag  1:
 RMSU=  3.44D-08    CP:  9.98D-01  7.21D-01  6.10D-01  6.89D-01  6.61D-01
                    CP:  1.11D+00  8.87D-01  1.14D+00  1.03D+00  1.09D+00
                    CP:  9.11D-01
 E= -2682.50589364298     Delta-E=       -0.000000000595 Rises=F Damp=F
 DIIS: error= 1.89D-07 at cycle  12 NSaved=  12.
 NSaved=12 IEnMin=12 EnMin= -2682.50589364298     IErMin=12 ErrMin= 1.89D-07
 ErrMax= 1.89D-07  0.00D+00 EMaxC= 1.00D-01 BMatC= 5.29D-11 BMatP= 5.06D-10
 IDIUse=1 WtCom= 1.00D+00 WtEn= 0.00D+00
 Coeff-Com: -0.575D-06 0.343D-05 0.212D-04 0.640D-04 0.221D-03 0.118D-02
 Coeff-Com: -0.667D-05-0.105D-01-0.292D-01-0.684D-02 0.217D+00 0.828D+00
 Coeff:     -0.575D-06 0.343D-05 0.212D-04 0.640D-04 0.221D-03 0.118D-02
 Coeff:     -0.667D-05-0.105D-01-0.292D-01-0.684D-02 0.217D+00 0.828D+00
 Gap=     0.353 Goal=   None    Shift=    0.000
 RMSDP=2.53D-08 MaxDP=2.34D-06 DE=-5.95D-10 OVMax= 5.29D-06

 Cycle  13  Pass 1  IDiag  1:
 RMSU=  1.31D-08    CP:  9.98D-01  7.21D-01  6.10D-01  6.89D-01  6.61D-01
                    CP:  1.11D+00  8.88D-01  1.14D+00  1.04D+00  1.13D+00
                    CP:  1.07D+00  1.01D+00
 E= -2682.50589364292     Delta-E=        0.000000000060 Rises=F Damp=F
 DIIS: error= 6.20D-08 at cycle  13 NSaved=  13.
 NSaved=13 IEnMin=12 EnMin= -2682.50589364298     IErMin=13 ErrMin= 6.20D-08
 ErrMax= 6.20D-08  0.00D+00 EMaxC= 1.00D-01 BMatC= 7.98D-12 BMatP= 5.29D-11
 IDIUse=1 WtCom= 1.00D+00 WtEn= 0.00D+00
 Coeff-Com: -0.396D-06-0.421D-05-0.115D-04-0.150D-04 0.751D-04 0.958D-03
 Coeff-Com:  0.966D-03-0.266D-02-0.173D-01-0.442D-01 0.208D-01 0.338D+00
 Coeff-Com:  0.703D+00
 Coeff:     -0.396D-06-0.421D-05-0.115D-04-0.150D-04 0.751D-04 0.958D-03
 Coeff:      0.966D-03-0.266D-02-0.173D-01-0.442D-01 0.208D-01 0.338D+00
 Coeff:      0.703D+00
 Gap=     0.353 Goal=   None    Shift=    0.000
 RMSDP=9.17D-09 MaxDP=6.38D-07 DE= 6.00D-11 OVMax= 2.30D-06

 Error on total polarization charges =  0.00134
 SCF Done:  E(RCAM-B3LYP) =  -2682.50589364     A.U. after   13 cycles
            NFock= 13  Conv=0.92D-08     -V/T= 2.0072
 KE= 2.663251136405D+03 PE=-1.673171484588D+04 EE= 6.192953146056D+03
 Leave Link  502 at Sun Mar  3 18:06:33 2024, MaxMem=  5368709120 cpu:       991.1
 (Enter /home/k0335/k033513/app/g09/l601.exe)
 Copying SCF densities to generalized density rwf, IOpCl= 0 IROHF=0.

 **********************************************************************

            Population analysis using the SCF density.

 **********************************************************************

 Alpha  occ. eigenvalues --  -24.84358 -24.84233 -24.84032 -24.83670 -24.83584
 Alpha  occ. eigenvalues --  -24.83566 -24.83557 -24.83528 -24.83213 -24.83146
 Alpha  occ. eigenvalues --  -24.82765 -24.82714 -24.82699 -24.82392 -24.82335
 Alpha  occ. eigenvalues --  -24.82327 -24.81987 -24.81298 -19.33696 -19.32173
 Alpha  occ. eigenvalues --  -19.23231 -19.21458 -14.51823 -14.49938 -14.46213
 Alpha  occ. eigenvalues --  -10.59906 -10.58872 -10.55691 -10.55010 -10.52522
 Alpha  occ. eigenvalues --  -10.52496 -10.49750 -10.48613 -10.45408 -10.43276
 Alpha  occ. eigenvalues --  -10.36505  -1.43657  -1.42259  -1.42233  -1.41502
 Alpha  occ. eigenvalues --   -1.38697  -1.38290  -1.36463  -1.35678  -1.34350
 Alpha  occ. eigenvalues --   -1.33387  -1.32984  -1.32819  -1.32715  -1.32649
 Alpha  occ. eigenvalues --   -1.32063  -1.31813  -1.31690  -1.30550  -1.21056
 Alpha  occ. eigenvalues --   -1.20702  -1.19803  -1.16148  -1.10113  -1.07672
 Alpha  occ. eigenvalues --   -1.02874  -0.93641  -0.93165  -0.85399  -0.84093
 Alpha  occ. eigenvalues --   -0.82487  -0.81210  -0.80357  -0.78935  -0.77157
 Alpha  occ. eigenvalues --   -0.75371  -0.73717  -0.73499  -0.71962  -0.71280
 Alpha  occ. eigenvalues --   -0.70969  -0.70336  -0.70201  -0.69800  -0.69303
 Alpha  occ. eigenvalues --   -0.69212  -0.68912  -0.68041  -0.67762  -0.67328
 Alpha  occ. eigenvalues --   -0.66280  -0.65951  -0.65504  -0.64604  -0.63424
 Alpha  occ. eigenvalues --   -0.62244  -0.60507  -0.59650  -0.59314  -0.58618
 Alpha  occ. eigenvalues --   -0.57583  -0.57261  -0.56811  -0.56476  -0.56436
 Alpha  occ. eigenvalues --   -0.56160  -0.56118  -0.55865  -0.55580  -0.55219
 Alpha  occ. eigenvalues --   -0.54999  -0.54721  -0.54396  -0.54311  -0.53642
 Alpha  occ. eigenvalues --   -0.53486  -0.53103  -0.52860  -0.52467  -0.52236
 Alpha  occ. eigenvalues --   -0.51947  -0.51769  -0.51620  -0.51410  -0.51282
 Alpha  occ. eigenvalues --   -0.50787  -0.50521  -0.50403  -0.50251  -0.50112
 Alpha  occ. eigenvalues --   -0.49919  -0.49529  -0.49363  -0.49248  -0.49003
 Alpha  occ. eigenvalues --   -0.48920  -0.48692  -0.48350  -0.47843  -0.47255
 Alpha  occ. eigenvalues --   -0.43703  -0.42882  -0.38884  -0.38165  -0.36927
 Alpha  occ. eigenvalues --   -0.35387  -0.33970
 Alpha virt. eigenvalues --    0.01361   0.04223   0.06294   0.07050   0.08325
 Alpha virt. eigenvalues --    0.09296   0.12127   0.14358   0.16423   0.16964
 Alpha virt. eigenvalues --    0.18805   0.19084   0.19576   0.20282   0.20466
 Alpha virt. eigenvalues --    0.20632   0.21709   0.22778   0.22789   0.22961
 Alpha virt. eigenvalues --    0.23283   0.23493   0.23760   0.24401   0.24865
 Alpha virt. eigenvalues --    0.25317   0.25426   0.26300   0.26654   0.28291
 Alpha virt. eigenvalues --    0.28877   0.29975   0.30368   0.31743   0.33347
 Alpha virt. eigenvalues --    0.33741   0.34574   0.38075   0.39878   0.42421
 Alpha virt. eigenvalues --    0.47137   0.48226   0.48558   0.49319   0.49638
 Alpha virt. eigenvalues --    0.50552   0.51177   0.51737   0.51924   0.53343
 Alpha virt. eigenvalues --    0.54091   0.54512   0.54959   0.55256   0.56404
 Alpha virt. eigenvalues --    0.56804   0.56955   0.57405   0.58760   0.59536
 Alpha virt. eigenvalues --    0.60449   0.61636   0.63198   0.64180   0.65402
 Alpha virt. eigenvalues --    0.65867   0.66125   0.67700   0.69276   0.71092
 Alpha virt. eigenvalues --    0.71495   0.72151   0.72946   0.76537   0.77741
 Alpha virt. eigenvalues --    0.80754   0.81715   0.82681   0.82857   0.84154
 Alpha virt. eigenvalues --    0.85192   0.86317   0.88482   0.89190   0.90776
 Alpha virt. eigenvalues --    0.91782   0.92695   0.93446   0.94800   0.95128
 Alpha virt. eigenvalues --    0.96481   0.99568   0.99580   1.01432   1.02512
 Alpha virt. eigenvalues --    1.02849   1.05104   1.05249   1.06586   1.06872
 Alpha virt. eigenvalues --    1.07858   1.07953   1.09078   1.10415   1.11043
 Alpha virt. eigenvalues --    1.12261   1.12844   1.13752   1.14003   1.14619
 Alpha virt. eigenvalues --    1.14943   1.15617   1.16955   1.17164   1.17869
 Alpha virt. eigenvalues --    1.18052   1.18740   1.19479   1.20005   1.21368
 Alpha virt. eigenvalues --    1.22329   1.22660   1.24197   1.25499   1.26201
 Alpha virt. eigenvalues --    1.26612   1.27436   1.28086   1.28603   1.29817
 Alpha virt. eigenvalues --    1.30253   1.31577   1.31978   1.32700   1.33567
 Alpha virt. eigenvalues --    1.34622   1.35289   1.35508   1.36333   1.36620
 Alpha virt. eigenvalues --    1.37459   1.37664   1.38002   1.38699   1.38988
 Alpha virt. eigenvalues --    1.39538   1.39727   1.40221   1.40675   1.40865
 Alpha virt. eigenvalues --    1.41193   1.41429   1.42073   1.42469   1.43039
 Alpha virt. eigenvalues --    1.43389   1.43968   1.44526   1.44981   1.45530
 Alpha virt. eigenvalues --    1.46143   1.47126   1.48141   1.48529   1.49008
 Alpha virt. eigenvalues --    1.50174   1.51559   1.52282   1.53135   1.53584
 Alpha virt. eigenvalues --    1.54110   1.55630   1.56489   1.57102   1.58183
 Alpha virt. eigenvalues --    1.58419   1.59798   1.60696   1.61327   1.62844
 Alpha virt. eigenvalues --    1.63538   1.64861   1.65444   1.66412   1.67265
 Alpha virt. eigenvalues --    1.67495   1.68999   1.69576   1.70102   1.70485
 Alpha virt. eigenvalues --    1.72060   1.72980   1.73514   1.74155   1.74954
 Alpha virt. eigenvalues --    1.75830   1.77418   1.77931   1.78530   1.79616
 Alpha virt. eigenvalues --    1.80168   1.80904   1.81327   1.81834   1.82340
 Alpha virt. eigenvalues --    1.82889   1.83713   1.84221   1.84412   1.84990
 Alpha virt. eigenvalues --    1.85376   1.86099   1.86153   1.86777   1.87093
 Alpha virt. eigenvalues --    1.88199   1.88215   1.88697   1.89091   1.89626
 Alpha virt. eigenvalues --    1.89909   1.90280   1.90737   1.91340   1.91408
 Alpha virt. eigenvalues --    1.92409   1.92540   1.93461   1.93921   1.95046
 Alpha virt. eigenvalues --    1.95898   1.96423   1.96769   1.96950   1.98057
 Alpha virt. eigenvalues --    1.98144   1.99234   1.99533   1.99858   2.00026
 Alpha virt. eigenvalues --    2.01016   2.01373   2.01682   2.02209   2.02779
 Alpha virt. eigenvalues --    2.03052   2.03431   2.03695   2.04200   2.04612
 Alpha virt. eigenvalues --    2.04741   2.05227   2.05426   2.05882   2.06382
 Alpha virt. eigenvalues --    2.07163   2.07772   2.08557   2.08904   2.09432
 Alpha virt. eigenvalues --    2.10110   2.10606   2.11380   2.11500   2.12139
 Alpha virt. eigenvalues --    2.12738   2.13735   2.14251   2.14759   2.15407
 Alpha virt. eigenvalues --    2.16511   2.17721   2.18171   2.18595   2.20087
 Alpha virt. eigenvalues --    2.21520   2.22141   2.23357   2.23565   2.24044
 Alpha virt. eigenvalues --    2.24798   2.25747   2.26468   2.27664   2.27959
 Alpha virt. eigenvalues --    2.30261   2.30586   2.32166   2.32485   2.33959
 Alpha virt. eigenvalues --    2.38350   2.39069   2.40039   2.40142   2.40545
 Alpha virt. eigenvalues --    2.41610   2.41724   2.42592   2.44796   2.45608
 Alpha virt. eigenvalues --    2.46935   2.47229   2.47961   2.48386   2.49211
 Alpha virt. eigenvalues --    2.53484   2.54063   2.54594   2.55379   2.57071
 Alpha virt. eigenvalues --    2.57590   2.58956   2.59889   2.61807   2.62580
 Alpha virt. eigenvalues --    2.64343   2.64703   2.65696   2.66930   2.67519
 Alpha virt. eigenvalues --    2.68216   2.70849   2.71668   2.72726   2.75184
 Alpha virt. eigenvalues --    2.78037   2.78871   2.79307   2.80876   2.81948
 Alpha virt. eigenvalues --    2.83125   2.84672   2.85846   2.86897   2.87068
 Alpha virt. eigenvalues --    2.88188   2.88453   2.89065   2.89530   2.92607
 Alpha virt. eigenvalues --    2.93943   2.95428   2.95685   2.96494   2.96906
 Alpha virt. eigenvalues --    2.98113   3.00270   3.01034   3.02529   3.05268
 Alpha virt. eigenvalues --    3.05918   3.06173   3.06480   3.07343   3.08318
 Alpha virt. eigenvalues --    3.09573   3.10410   3.12278   3.13771   3.14964
 Alpha virt. eigenvalues --    3.15123   3.16403   3.19922   3.21719   3.22011
 Alpha virt. eigenvalues --    3.22531   3.25988   3.26280   3.29872   3.31187
 Alpha virt. eigenvalues --    3.32662   3.36614   3.36807   3.38761   3.40545
 Alpha virt. eigenvalues --    3.51784   3.58038   4.07188   4.07652   4.09728
 Alpha virt. eigenvalues --    4.17710   4.20174   4.25482   4.30987   4.34204
 Alpha virt. eigenvalues --    4.36493   4.38887   4.43177   4.49387   4.51787
 Alpha virt. eigenvalues --    4.56235   4.58359   4.60474   4.63536   4.68566
 Alpha virt. eigenvalues --    4.74315   4.80446   4.87505   4.92089   4.94160
 Alpha virt. eigenvalues --    4.95875   5.10018   5.20953   5.29089   5.34895
 Alpha virt. eigenvalues --    5.50340   5.53339   5.79744   6.09805   6.25089
 Alpha virt. eigenvalues --    6.30907   6.33600   6.79524
          Condensed to atoms (all electrons):
               1          2          3          4          5          6
     1  O    8.095115   0.608695  -0.102823   0.002867  -0.000022   0.000001
     2  C    0.608695   4.162309   0.331199  -0.031135  -0.008120   0.000413
     3  N   -0.102823   0.331199   7.009637   0.218340  -0.028391   0.002601
     4  C    0.002867  -0.031135   0.218340   4.772438   0.223986  -0.029936
     5  N   -0.000022  -0.008120  -0.028391   0.223986   7.369037   0.214687
     6  C    0.000001   0.000413   0.002601  -0.029936   0.214687   4.453405
     7  F    0.000000   0.000004   0.000043   0.003494  -0.076864   0.251119
     8  F    0.000000  -0.000002  -0.000015   0.001828  -0.035228   0.225945
     9  C    0.000000  -0.000020  -0.000155  -0.003558  -0.031646   0.185190
    10  F    0.000000  -0.000004   0.000288  -0.000889  -0.002521  -0.022074
    11  O    0.000000   0.000000   0.000000  -0.000045   0.001443  -0.023938
    12  C    0.000000   0.000000   0.000000   0.000005   0.000329  -0.003029
    13  F    0.000000   0.000000   0.000000   0.000000  -0.000014  -0.005552
    14  F    0.000000   0.000000   0.000000   0.000000   0.000000  -0.000098
    15  F    0.000000   0.000000   0.000000   0.000002   0.000038   0.018204
    16  C    0.000000   0.000009   0.000103   0.000594  -0.001450  -0.053387
    17  F    0.000000   0.000000   0.000000   0.000005  -0.000001   0.002192
    18  F    0.000000   0.000000  -0.000354   0.000321   0.001923  -0.003096
    19  F    0.000000   0.000000   0.000000   0.000007  -0.001257   0.009590
    20  C    0.000117  -0.003102  -0.008569  -0.025850   0.235848  -0.005534
    21  O   -0.000028   0.000041   0.000139   0.000950  -0.091839   0.016089
    22  N   -0.088626   0.169919  -0.109664   0.009484  -0.097760   0.001971
    23  C    0.019268  -0.011413   0.002042   0.000171   0.000879  -0.000031
    24  F    0.000011   0.000423  -0.000024   0.000008  -0.000005   0.000013
    25  F   -0.009293   0.006999   0.000031   0.000017  -0.000029   0.000000
    26  C   -0.005687  -0.008119  -0.000236   0.000016  -0.000144   0.000004
    27  F   -0.000001   0.000054   0.000000   0.000000   0.000000   0.000000
    28  O   -0.007382   0.004845  -0.000162   0.000012   0.000002   0.000000
    29  C    0.008381   0.000547   0.000027  -0.000002   0.000000   0.000000
    30  F   -0.000072  -0.000194  -0.000001   0.000000   0.000000   0.000000
    31  F   -0.000001   0.000005   0.000000   0.000000   0.000000   0.000000
    32  F   -0.000173   0.000087   0.000000   0.000000   0.000000   0.000000
    33  C   -0.000088   0.000207   0.000006   0.000002  -0.000066  -0.000005
    34  F    0.000000   0.000001   0.000000   0.000000   0.000000   0.000000
    35  F    0.000003   0.000960  -0.000069   0.000081  -0.000600   0.000002
    36  F    0.000000   0.000009   0.000000   0.000000  -0.000003   0.000000
    37  H    0.005627  -0.014793   0.347117  -0.024657   0.002764  -0.000045
    38  H   -0.000111   0.002276  -0.029681   0.384283  -0.029032  -0.007090
    39  H    0.000308   0.000836  -0.063896   0.408313  -0.069306   0.003500
               7          8          9         10         11         12
     1  O    0.000000   0.000000   0.000000   0.000000   0.000000   0.000000
     2  C    0.000004  -0.000002  -0.000020  -0.000004   0.000000   0.000000
     3  N    0.000043  -0.000015  -0.000155   0.000288   0.000000   0.000000
     4  C    0.003494   0.001828  -0.003558  -0.000889  -0.000045   0.000005
     5  N   -0.076864  -0.035228  -0.031646  -0.002521   0.001443   0.000329
     6  C    0.251119   0.225945   0.185190  -0.022074  -0.023938  -0.003029
     7  F    9.141197  -0.034510  -0.017920  -0.000433  -0.001371   0.000186
     8  F   -0.034510   9.136179  -0.028243   0.000324  -0.002360   0.013650
     9  C   -0.017920  -0.028243   4.995855   0.230232   0.172323  -0.004054
    10  F   -0.000433   0.000324   0.230232   9.112125  -0.043150   0.000403
    11  O   -0.001371  -0.002360   0.172323  -0.043150   8.326659   0.234159
    12  C    0.000186   0.013650  -0.004054   0.000403   0.234159   3.835953
    13  F    0.000011  -0.000762   0.005173  -0.000002  -0.047695   0.296941
    14  F   -0.000001  -0.000001   0.001548  -0.000002  -0.038406   0.336120
    15  F   -0.001261  -0.006895  -0.009462  -0.000004  -0.046212   0.303876
    16  C    0.001875   0.005944   0.183322  -0.014073  -0.031106  -0.003822
    17  F   -0.000001  -0.000001  -0.024583  -0.000595  -0.000949   0.001193
    18  F    0.000000  -0.000130  -0.029203  -0.001024   0.000657   0.000090
    19  F   -0.000001  -0.001548  -0.040106   0.000287   0.000352   0.001904
    20  C    0.007429   0.003393   0.001949  -0.000014  -0.000016  -0.000007
    21  O   -0.002086  -0.011334   0.000218   0.000000   0.000000   0.000011
    22  N   -0.000006   0.000035  -0.000070   0.000000   0.000000   0.000000
    23  C    0.000001   0.000007   0.000001   0.000000   0.000000   0.000000
    24  F    0.000000   0.000000   0.000000   0.000000   0.000000   0.000000
    25  F    0.000000   0.000000   0.000000   0.000000   0.000000   0.000000
    26  C    0.000000   0.000000   0.000000   0.000000   0.000000   0.000000
    27  F    0.000000   0.000000   0.000000   0.000000   0.000000   0.000000
    28  O    0.000000   0.000000   0.000000   0.000000   0.000000   0.000000
    29  C    0.000000   0.000000   0.000000   0.000000   0.000000   0.000000
    30  F    0.000000   0.000000   0.000000   0.000000   0.000000   0.000000
    31  F    0.000000   0.000000   0.000000   0.000000   0.000000   0.000000
    32  F    0.000000   0.000000   0.000000   0.000000   0.000000   0.000000
    33  C   -0.000003   0.000000   0.000000   0.000000   0.000000   0.000000
    34  F    0.000000   0.000000   0.000000   0.000000   0.000000   0.000000
    35  F    0.000000   0.000000   0.000000   0.000000   0.000000   0.000000
    36  F    0.000000   0.000000   0.000000   0.000000   0.000000   0.000000
    37  H    0.000001   0.000000  -0.000003   0.000008   0.000000   0.000000
    38  H   -0.000167   0.000046   0.004537   0.011023   0.000157   0.000006
    39  H    0.004582  -0.000039  -0.001415   0.000048  -0.000001   0.000000
              13         14         15         16         17         18
     1  O    0.000000   0.000000   0.000000   0.000000   0.000000   0.000000
     2  C    0.000000   0.000000   0.000000   0.000009   0.000000   0.000000
     3  N    0.000000   0.000000   0.000000   0.000103   0.000000  -0.000354
     4  C    0.000000   0.000000   0.000002   0.000594   0.000005   0.000321
     5  N   -0.000014   0.000000   0.000038  -0.001450  -0.000001   0.001923
     6  C   -0.005552  -0.000098   0.018204  -0.053387   0.002192  -0.003096
     7  F    0.000011  -0.000001  -0.001261   0.001875  -0.000001   0.000000
     8  F   -0.000762  -0.000001  -0.006895   0.005944  -0.000001  -0.000130
     9  C    0.005173   0.001548  -0.009462   0.183322  -0.024583  -0.029203
    10  F   -0.000002  -0.000002  -0.000004  -0.014073  -0.000595  -0.001024
    11  O   -0.047695  -0.038406  -0.046212  -0.031106  -0.000949   0.000657
    12  C    0.296941   0.336120   0.303876  -0.003822   0.001193   0.000090
    13  F    9.056957  -0.037110  -0.033557   0.012108  -0.000577   0.000001
    14  F   -0.037110   9.014606  -0.037682  -0.000135  -0.000001   0.000000
    15  F   -0.033557  -0.037682   9.049155  -0.000117   0.000000   0.000000
    16  C    0.012108  -0.000135  -0.000117   4.244552   0.291994   0.282015
    17  F   -0.000577  -0.000001   0.000000   0.291994   9.059388  -0.040072
    18  F    0.000001   0.000000   0.000000   0.282015  -0.040072   9.064716
    19  F   -0.008082  -0.000001  -0.000007   0.278502  -0.039353  -0.039613
    20  C   -0.000001   0.000000   0.000010  -0.000294   0.000000   0.000297
    21  O    0.000000   0.000000  -0.000003  -0.000013   0.000000   0.000000
    22  N    0.000000   0.000000   0.000000  -0.000005   0.000000  -0.000003
    23  C    0.000000   0.000000   0.000000   0.000000   0.000000   0.000000
    24  F    0.000000   0.000000   0.000000   0.000000   0.000000   0.000000
    25  F    0.000000   0.000000   0.000000   0.000000   0.000000   0.000000
    26  C    0.000000   0.000000   0.000000   0.000000   0.000000   0.000000
    27  F    0.000000   0.000000   0.000000   0.000000   0.000000   0.000000
    28  O    0.000000   0.000000   0.000000   0.000000   0.000000   0.000000
    29  C    0.000000   0.000000   0.000000   0.000000   0.000000   0.000000
    30  F    0.000000   0.000000   0.000000   0.000000   0.000000   0.000000
    31  F    0.000000   0.000000   0.000000   0.000000   0.000000   0.000000
    32  F    0.000000   0.000000   0.000000   0.000000   0.000000   0.000000
    33  C    0.000000   0.000000   0.000000   0.000000   0.000000   0.000000
    34  F    0.000000   0.000000   0.000000   0.000000   0.000000   0.000000
    35  F    0.000000   0.000000   0.000000   0.000000   0.000000   0.000000
    36  F    0.000000   0.000000   0.000000   0.000000   0.000000   0.000000
    37  H    0.000000   0.000000   0.000000   0.000003   0.000000  -0.000010
    38  H    0.000000   0.000000   0.000000  -0.002511  -0.000006   0.007954
    39  H    0.000000   0.000000   0.000000   0.000217   0.000000   0.000108
              19         20         21         22         23         24
     1  O    0.000000   0.000117  -0.000028  -0.088626   0.019268   0.000011
     2  C    0.000000  -0.003102   0.000041   0.169919  -0.011413   0.000423
     3  N    0.000000  -0.008569   0.000139  -0.109664   0.002042  -0.000024
     4  C    0.000007  -0.025850   0.000950   0.009484   0.000171   0.000008
     5  N   -0.001257   0.235848  -0.091839  -0.097760   0.000879  -0.000005
     6  C    0.009590  -0.005534   0.016089   0.001971  -0.000031   0.000013
     7  F   -0.000001   0.007429  -0.002086  -0.000006   0.000001   0.000000
     8  F   -0.001548   0.003393  -0.011334   0.000035   0.000007   0.000000
     9  C   -0.040106   0.001949   0.000218  -0.000070   0.000001   0.000000
    10  F    0.000287  -0.000014   0.000000   0.000000   0.000000   0.000000
    11  O    0.000352  -0.000016   0.000000   0.000000   0.000000   0.000000
    12  C    0.001904  -0.000007   0.000011   0.000000   0.000000   0.000000
    13  F   -0.008082  -0.000001   0.000000   0.000000   0.000000   0.000000
    14  F   -0.000001   0.000000   0.000000   0.000000   0.000000   0.000000
    15  F   -0.000007   0.000010  -0.000003   0.000000   0.000000   0.000000
    16  C    0.278502  -0.000294  -0.000013  -0.000005   0.000000   0.000000
    17  F   -0.039353   0.000000   0.000000   0.000000   0.000000   0.000000
    18  F   -0.039613   0.000297   0.000000  -0.000003   0.000000   0.000000
    19  F    9.070552   0.000029   0.000000   0.000000   0.000000   0.000000
    20  C    0.000029   4.169861   0.554348   0.215106  -0.008366   0.007512
    21  O    0.000000   0.554348   8.115525  -0.082278   0.011884  -0.014923
    22  N    0.000000   0.215106  -0.082278   7.646103   0.117892  -0.040150
    23  C    0.000000  -0.008366   0.011884   0.117892   4.465260   0.282180
    24  F    0.000000   0.007512  -0.014923  -0.040150   0.282180   9.084743
    25  F    0.000000   0.000258   0.000011  -0.049855   0.281975  -0.044780
    26  C    0.000000  -0.001289  -0.004734  -0.067337   0.187351  -0.029291
    27  F    0.000000   0.000029   0.000001   0.001431  -0.013128  -0.000499
    28  O    0.000000  -0.000115   0.000008   0.002187  -0.035737   0.000633
    29  C    0.000000  -0.000006   0.000000   0.000022  -0.003121   0.000063
    30  F    0.000000  -0.000001   0.000000  -0.000059  -0.000781   0.000001
    31  F    0.000000   0.000000   0.000000  -0.000001   0.000118   0.000000
    32  F    0.000000   0.000000   0.000000   0.000004  -0.000018   0.000000
    33  C    0.000000   0.002103   0.007152   0.000637  -0.043598   0.003040
    34  F    0.000000   0.000009  -0.000001  -0.000019   0.001648   0.000000
    35  F    0.000000   0.014431  -0.004743  -0.002090  -0.001902  -0.000161
    36  F    0.000000  -0.000363  -0.000112  -0.000599   0.001847  -0.000095
    37  H    0.000000   0.000223   0.000005   0.005386  -0.000073   0.000000
    38  H    0.000060   0.002204  -0.000104  -0.000100   0.000010   0.000000
    39  H    0.000000   0.000330   0.000457  -0.000435  -0.000020   0.000000
              25         26         27         28         29         30
     1  O   -0.009293  -0.005687  -0.000001  -0.007382   0.008381  -0.000072
     2  C    0.006999  -0.008119   0.000054   0.004845   0.000547  -0.000194
     3  N    0.000031  -0.000236   0.000000  -0.000162   0.000027  -0.000001
     4  C    0.000017   0.000016   0.000000   0.000012  -0.000002   0.000000
     5  N   -0.000029  -0.000144   0.000000   0.000002   0.000000   0.000000
     6  C    0.000000   0.000004   0.000000   0.000000   0.000000   0.000000
     7  F    0.000000   0.000000   0.000000   0.000000   0.000000   0.000000
     8  F    0.000000   0.000000   0.000000   0.000000   0.000000   0.000000
     9  C    0.000000   0.000000   0.000000   0.000000   0.000000   0.000000
    10  F    0.000000   0.000000   0.000000   0.000000   0.000000   0.000000
    11  O    0.000000   0.000000   0.000000   0.000000   0.000000   0.000000
    12  C    0.000000   0.000000   0.000000   0.000000   0.000000   0.000000
    13  F    0.000000   0.000000   0.000000   0.000000   0.000000   0.000000
    14  F    0.000000   0.000000   0.000000   0.000000   0.000000   0.000000
    15  F    0.000000   0.000000   0.000000   0.000000   0.000000   0.000000
    16  C    0.000000   0.000000   0.000000   0.000000   0.000000   0.000000
    17  F    0.000000   0.000000   0.000000   0.000000   0.000000   0.000000
    18  F    0.000000   0.000000   0.000000   0.000000   0.000000   0.000000
    19  F    0.000000   0.000000   0.000000   0.000000   0.000000   0.000000
    20  C    0.000258  -0.001289   0.000029  -0.000115  -0.000006  -0.000001
    21  O    0.000011  -0.004734   0.000001   0.000008   0.000000   0.000000
    22  N   -0.049855  -0.067337   0.001431   0.002187   0.000022  -0.000059
    23  C    0.281975   0.187351  -0.013128  -0.035737  -0.003121  -0.000781
    24  F   -0.044780  -0.029291  -0.000499   0.000633   0.000063   0.000001
    25  F    9.101885  -0.026771  -0.000181   0.000581   0.000688  -0.002125
    26  C   -0.026771   5.058818   0.206350   0.143362  -0.010038   0.011073
    27  F   -0.000181   0.206350   9.124170  -0.040848   0.011334  -0.003875
    28  O    0.000581   0.143362  -0.040848   8.378470   0.229803  -0.042324
    29  C    0.000688  -0.010038   0.011334   0.229803   3.794734   0.292306
    30  F   -0.002125   0.011073  -0.003875  -0.042324   0.292306   9.061922
    31  F    0.000000   0.001326  -0.002616  -0.047382   0.312814  -0.033893
    32  F   -0.000005   0.000587  -0.000016  -0.037028   0.334205  -0.035077
    33  C    0.001519   0.203958  -0.008408  -0.020469   0.000778   0.000324
    34  F   -0.000001  -0.025700  -0.000715  -0.000381  -0.000099   0.000000
    35  F    0.000001  -0.033375   0.000305   0.000554   0.000149   0.000000
    36  F    0.000000  -0.031424  -0.000653   0.000611   0.000025   0.000000
    37  H    0.000005   0.000007   0.000000   0.000002  -0.000001   0.000000
    38  H    0.000000   0.000000   0.000000   0.000000   0.000000   0.000000
    39  H    0.000000  -0.000009   0.000000  -0.000002   0.000000   0.000000
              31         32         33         34         35         36
     1  O   -0.000001  -0.000173  -0.000088   0.000000   0.000003   0.000000
     2  C    0.000005   0.000087   0.000207   0.000001   0.000960   0.000009
     3  N    0.000000   0.000000   0.000006   0.000000  -0.000069   0.000000
     4  C    0.000000   0.000000   0.000002   0.000000   0.000081   0.000000
     5  N    0.000000   0.000000  -0.000066   0.000000  -0.000600  -0.000003
     6  C    0.000000   0.000000  -0.000005   0.000000   0.000002   0.000000
     7  F    0.000000   0.000000  -0.000003   0.000000   0.000000   0.000000
     8  F    0.000000   0.000000   0.000000   0.000000   0.000000   0.000000
     9  C    0.000000   0.000000   0.000000   0.000000   0.000000   0.000000
    10  F    0.000000   0.000000   0.000000   0.000000   0.000000   0.000000
    11  O    0.000000   0.000000   0.000000   0.000000   0.000000   0.000000
    12  C    0.000000   0.000000   0.000000   0.000000   0.000000   0.000000
    13  F    0.000000   0.000000   0.000000   0.000000   0.000000   0.000000
    14  F    0.000000   0.000000   0.000000   0.000000   0.000000   0.000000
    15  F    0.000000   0.000000   0.000000   0.000000   0.000000   0.000000
    16  C    0.000000   0.000000   0.000000   0.000000   0.000000   0.000000
    17  F    0.000000   0.000000   0.000000   0.000000   0.000000   0.000000
    18  F    0.000000   0.000000   0.000000   0.000000   0.000000   0.000000
    19  F    0.000000   0.000000   0.000000   0.000000   0.000000   0.000000
    20  C    0.000000   0.000000   0.002103   0.000009   0.014431  -0.000363
    21  O    0.000000   0.000000   0.007152  -0.000001  -0.004743  -0.000112
    22  N   -0.000001   0.000004   0.000637  -0.000019  -0.002090  -0.000599
    23  C    0.000118  -0.000018  -0.043598   0.001648  -0.001902   0.001847
    24  F    0.000000   0.000000   0.003040   0.000000  -0.000161  -0.000095
    25  F    0.000000  -0.000005   0.001519  -0.000001   0.000001   0.000000
    26  C    0.001326   0.000587   0.203958  -0.025700  -0.033375  -0.031424
    27  F   -0.002616  -0.000016  -0.008408  -0.000715   0.000305  -0.000653
    28  O   -0.047382  -0.037028  -0.020469  -0.000381   0.000554   0.000611
    29  C    0.312814   0.334205   0.000778  -0.000099   0.000149   0.000025
    30  F   -0.033893  -0.035077   0.000324   0.000000   0.000000   0.000000
    31  F    9.061679  -0.037965  -0.000951   0.000018   0.000000   0.000000
    32  F   -0.037965   9.023258  -0.000031   0.000000   0.000000   0.000000
    33  C   -0.000951  -0.000031   4.187126   0.297122   0.263061   0.292641
    34  F    0.000018   0.000000   0.297122   9.063832  -0.039727  -0.039832
    35  F    0.000000   0.000000   0.263061  -0.039727   9.090922  -0.035570
    36  F    0.000000   0.000000   0.292641  -0.039832  -0.035570   9.048342
    37  H    0.000000   0.000000   0.000000   0.000000  -0.000001   0.000000
    38  H    0.000000   0.000000   0.000000   0.000000   0.000000   0.000000
    39  H    0.000000   0.000000   0.000014   0.000000   0.000309   0.000000
              37         38         39
     1  O    0.005627  -0.000111   0.000308
     2  C   -0.014793   0.002276   0.000836
     3  N    0.347117  -0.029681  -0.063896
     4  C   -0.024657   0.384283   0.408313
     5  N    0.002764  -0.029032  -0.069306
     6  C   -0.000045  -0.007090   0.003500
     7  F    0.000001  -0.000167   0.004582
     8  F    0.000000   0.000046  -0.000039
     9  C   -0.000003   0.004537  -0.001415
    10  F    0.000008   0.011023   0.000048
    11  O    0.000000   0.000157  -0.000001
    12  C    0.000000   0.000006   0.000000
    13  F    0.000000   0.000000   0.000000
    14  F    0.000000   0.000000   0.000000
    15  F    0.000000   0.000000   0.000000
    16  C    0.000003  -0.002511   0.000217
    17  F    0.000000  -0.000006   0.000000
    18  F   -0.000010   0.007954   0.000108
    19  F    0.000000   0.000060   0.000000
    20  C    0.000223   0.002204   0.000330
    21  O    0.000005  -0.000104   0.000457
    22  N    0.005386  -0.000100  -0.000435
    23  C   -0.000073   0.000010  -0.000020
    24  F    0.000000   0.000000   0.000000
    25  F    0.000005   0.000000   0.000000
    26  C    0.000007   0.000000  -0.000009
    27  F    0.000000   0.000000   0.000000
    28  O    0.000002   0.000000  -0.000002
    29  C   -0.000001   0.000000   0.000000
    30  F    0.000000   0.000000   0.000000
    31  F    0.000000   0.000000   0.000000
    32  F    0.000000   0.000000   0.000000
    33  C    0.000000   0.000000   0.000014
    34  F    0.000000   0.000000   0.000000
    35  F   -0.000001   0.000000   0.000309
    36  F    0.000000   0.000000   0.000000
    37  H    0.361960  -0.004620   0.001401
    38  H   -0.004620   0.531593  -0.039141
    39  H    0.001401  -0.039141   0.596229
 Mulliken charges:
               1
     1  O   -0.526088
     2  C    0.787065
     3  N   -0.567533
     4  C    0.088846
     5  N   -0.576640
     6  C    0.768888
     7  F   -0.275320
     8  F   -0.266282
     9  C    0.410091
    10  F   -0.269952
    11  O   -0.500502
    12  C    0.986087
    13  F   -0.237840
    14  F   -0.238838
    15  F   -0.236085
    16  C    0.805676
    17  F   -0.248632
    18  F   -0.244578
    19  F   -0.231314
    20  C    0.838042
    21  O   -0.494642
    22  N   -0.631120
    23  C    0.745655
    24  F   -0.248698
    25  F   -0.260928
    26  C    0.431302
    27  F   -0.272736
    28  O   -0.529238
    29  C    1.027394
    30  F   -0.247224
    31  F   -0.253152
    32  F   -0.247828
    33  C    0.813926
    34  F   -0.256155
    35  F   -0.252538
    36  F   -0.234825
    37  H    0.319695
    38  H    0.168413
    39  H    0.157608
 Sum of Mulliken charges =   0.00000
 Mulliken charges with hydrogens summed into heavy atoms:
               1
     1  O   -0.526088
     2  C    0.787065
     3  N   -0.247839
     4  C    0.414868
     5  N   -0.576640
     6  C    0.768888
     7  F   -0.275320
     8  F   -0.266282
     9  C    0.410091
    10  F   -0.269952
    11  O   -0.500502
    12  C    0.986087
    13  F   -0.237840
    14  F   -0.238838
    15  F   -0.236085
    16  C    0.805676
    17  F   -0.248632
    18  F   -0.244578
    19  F   -0.231314
    20  C    0.838042
    21  O   -0.494642
    22  N   -0.631120
    23  C    0.745655
    24  F   -0.248698
    25  F   -0.260928
    26  C    0.431302
    27  F   -0.272736
    28  O   -0.529238
    29  C    1.027394
    30  F   -0.247224
    31  F   -0.253152
    32  F   -0.247828
    33  C    0.813926
    34  F   -0.256155
    35  F   -0.252538
    36  F   -0.234825
 Electronic spatial extent (au):  <R**2>=          17238.4733
 Charge=              0.0000 electrons
 Dipole moment (field-independent basis, Debye):
    X=             -3.7591    Y=              0.5524    Z=              3.9389  Tot=              5.4727
 Quadrupole moment (field-independent basis, Debye-Ang):
   XX=           -199.5568   YY=           -195.3816   ZZ=           -185.8813
   XY=              5.5284   XZ=             -4.9029   YZ=              2.4816
 Traceless Quadrupole moment (field-independent basis, Debye-Ang):
   XX=             -5.9502   YY=             -1.7750   ZZ=              7.7252
   XY=              5.5284   XZ=             -4.9029   YZ=              2.4816
 Octapole moment (field-independent basis, Debye-Ang**2):
  XXX=            -62.4023  YYY=             -1.3439  ZZZ=            125.4742  XYY=            -22.0411
  XXY=              9.5629  XXZ=              8.1077  XZZ=            -25.9579  YZZ=             -6.5157
  YYZ=             24.3168  XYZ=             13.1300
 Hexadecapole moment (field-independent basis, Debye-Ang**3):
 XXXX=         -14033.1293 YYYY=          -2142.6337 ZZZZ=          -1794.6759 XXXY=            978.0963
 XXXZ=           -290.0301 YYYX=            994.0268 YYYZ=            420.4952 ZZZX=           -316.0489
 ZZZY=            380.6668 XXYY=          -2718.0144 XXZZ=          -2641.1888 YYZZ=           -670.5494
 XXYZ=            148.0827 YYXZ=           -108.7659 ZZXY=            340.8992
 N-N= 5.193004669780D+03 E-N=-1.673171484034D+04  KE= 2.663251136405D+03
 No NMR shielding tensors so no spin-rotation constants.
 Leave Link  601 at Sun Mar  3 18:06:33 2024, MaxMem=  5368709120 cpu:         4.6
 (Enter /home/k0335/k033513/app/g09/l9999.exe)
 1\1\GINC-C18U03N3\SP\RCAM-B3LYP\6-31G(d,p)\C11H3F18N3O4\K033513\03-Mar
 -2024\0\\#p CAM-B3LYP/6-31G(d,p) SCRF=(PCM,Solvent=Generic,Read) NoSym
 m out=wfn\\Title A591161040_0\\0,1\O,0,2.175025,-1.901031,1.735791\C,0
 ,1.198726,-1.367255,1.221749\N,0,0.101647,-1.148439,1.98475\C,0,-0.820
 38,-0.132584,1.632457\N,0,-1.068831,-0.139537,0.225355\C,0,-2.143262,0
 .714599,-0.276559\F,0,-1.699165,2.001342,-0.181323\F,0,-2.331195,0.464
 839,-1.600322\C,0,-3.54418,0.656019,0.392596\F,0,-3.377686,0.872033,1.
 744789\O,0,-4.464436,1.700956,0.048899\C,0,-4.646061,1.915293,-1.32699
 2\F,0,-4.866468,0.758088,-1.960394\F,0,-5.721149,2.707405,-1.492276\F,
 0,-3.573171,2.53323,-1.838626\C,0,-4.097227,-0.762435,0.215831\F,0,-5.
 367884,-0.846743,0.680935\F,0,-3.367918,-1.659013,0.926965\F,0,-4.1073
 26,-1.201338,-1.056037\C,0,0.065829,-0.208086,-0.575043\O,0,0.133246,0
 .360622,-1.659722\N,0,1.125149,-0.94269,-0.07757\C,0,2.314499,-1.11554
 4,-0.899619\F,0,1.993892,-1.109499,-2.226346\F,0,2.758113,-2.398439,-0
 .714002\C,0,3.497424,-0.144819,-0.655667\F,0,4.556123,-0.514583,-1.443
 56\O,0,3.944447,-0.097483,0.706473\C,0,5.042519,-0.945497,0.933101\F,0
 ,4.857219,-2.159596,0.395007\F,0,6.152373,-0.383166,0.418303\F,0,5.215
 291,-1.074227,2.262987\C,0,3.079438,1.258518,-1.071272\F,0,4.112106,2.
 128316,-0.90974\F,0,2.071694,1.72874,-0.295162\F,0,2.698609,1.345768,-
 2.359711\H,0,0.232807,-1.383584,2.962404\H,0,-1.722565,-0.348084,2.202
 43\H,0,-0.407271,0.837903,1.929121\\Version=ES64L-G09RevD.01\HF=-2682.
 5058936\RMSD=9.167e-09\Dipole=-1.4789411,0.2173395,1.5496743\Quadrupol
 e=-4.423834,-1.3196838,5.7435178,4.1102496,-3.6452205,1.8449758\PG=C01
  [X(C11H3F18N3O4)]\\@

 Writing a WFN file to "A591161040/A591161040_0.wfn"



 IN THIS SHORT LIFE

 THAT ONLY LASTS AN HOUR

 HOW MUCH, HOW LITTLE, IS WITHIN OUR POWER....


 EMILY DICKINSON BOLTS OF MELODY NO. 521
 Job cpu time:       0 days  0 hours 17 minutes  5.2 seconds.
 File lengths (MBytes):  RWF=    338 Int=      0 D2E=      0 Chk=     13 Scr=      1
 Normal termination of Gaussian 09 at Sun Mar  3 18:06:33 2024.
