 Entering Gaussian System, Link 0=g09
 Initial command:
 /home/k0335/k033513/app/g09/l1.exe "/home/k0335/k033513/app/g09/scratch/Gau-575071.inp" -scrdir="/home/k0335/k033513/app/g09/scratch/"
 Default is to use a total of  36 processors:
                               36 via shared-memory
                                1 via Linda
 Entering Link 1 = /home/k0335/k033513/app/g09/l1.exe PID=    575072.
  
 Copyright (c) 1988,1990,1992,1993,1995,1998,2003,2009,2013,
            Gaussian, Inc.  All Rights Reserved.
  
 This is part of the Gaussian(R) 09 program.  It is based on
 the Gaussian(R) 03 system (copyright 2003, Gaussian, Inc.),
 the Gaussian(R) 98 system (copyright 1998, Gaussian, Inc.),
 the Gaussian(R) 94 system (copyright 1995, Gaussian, Inc.),
 the Gaussian 92(TM) system (copyright 1992, Gaussian, Inc.),
 the Gaussian 90(TM) system (copyright 1990, Gaussian, Inc.),
 the Gaussian 88(TM) system (copyright 1988, Gaussian, Inc.),
 the Gaussian 86(TM) system (copyright 1986, Carnegie Mellon
 University), and the Gaussian 82(TM) system (copyright 1983,
 Carnegie Mellon University). Gaussian is a federally registered
 trademark of Gaussian, Inc.
  
 This software contains proprietary and confidential information,
 including trade secrets, belonging to Gaussian, Inc.
  
 This software is provided under written license and may be
 used, copied, transmitted, or stored only in accord with that
 written license.
  
 The following legend is applicable only to US Government
 contracts under FAR:
  
                    RESTRICTED RIGHTS LEGEND
  
 Use, reproduction and disclosure by the US Government is
 subject to restrictions as set forth in subparagraphs (a)
 and (c) of the Commercial Computer Software - Restricted
 Rights clause in FAR 52.227-19.
  
 Gaussian, Inc.
 340 Quinnipiac St., Bldg. 40, Wallingford CT 06492
  
  
 ---------------------------------------------------------------
 Warning -- This program may not be used in any manner that
 competes with the business of Gaussian, Inc. or will provide
 assistance to any competitor of Gaussian, Inc.  The licensee
 of this program is prohibited from giving any competitor of
 Gaussian, Inc. access to this program.  By using this program,
 the user acknowledges that Gaussian, Inc. is engaged in the
 business of creating and licensing software in the field of
 computational chemistry and represents and warrants to the
 licensee that it is not a competitor of Gaussian, Inc. and that
 it will not use this program in any manner prohibited above.
 ---------------------------------------------------------------
  

 Cite this work as:
 Gaussian 09, Revision D.01,
 M. J. Frisch, G. W. Trucks, H. B. Schlegel, G. E. Scuseria, 
 M. A. Robb, J. R. Cheeseman, G. Scalmani, V. Barone, B. Mennucci, 
 G. A. Petersson, H. Nakatsuji, M. Caricato, X. Li, H. P. Hratchian, 
 A. F. Izmaylov, J. Bloino, G. Zheng, J. L. Sonnenberg, M. Hada, 
 M. Ehara, K. Toyota, R. Fukuda, J. Hasegawa, M. Ishida, T. Nakajima, 
 Y. Honda, O. Kitao, H. Nakai, T. Vreven, J. A. Montgomery, Jr., 
 J. E. Peralta, F. Ogliaro, M. Bearpark, J. J. Heyd, E. Brothers, 
 K. N. Kudin, V. N. Staroverov, T. Keith, R. Kobayashi, J. Normand, 
 K. Raghavachari, A. Rendell, J. C. Burant, S. S. Iyengar, J. Tomasi, 
 M. Cossi, N. Rega, J. M. Millam, M. Klene, J. E. Knox, J. B. Cross, 
 V. Bakken, C. Adamo, J. Jaramillo, R. Gomperts, R. E. Stratmann, 
 O. Yazyev, A. J. Austin, R. Cammi, C. Pomelli, J. W. Ochterski, 
 R. L. Martin, K. Morokuma, V. G. Zakrzewski, G. A. Voth, 
 P. Salvador, J. J. Dannenberg, S. Dapprich, A. D. Daniels, 
 O. Farkas, J. B. Foresman, J. V. Ortiz, J. Cioslowski, 
 and D. J. Fox, Gaussian, Inc., Wallingford CT, 2013.
 
 ******************************************
 Gaussian 09:  ES64L-G09RevD.01 24-Apr-2013
                 3-Mar-2024 
 ******************************************
 %nprocshared=24
 Will use up to   24 processors via shared memory.
 %mem=40GB
 %rwf=A902650421/A902650421_p1.rwf
 %nosave
 %chk=A902650421/A902650421_p1.chk
 ----------------------------------------------------------------------
 #p CAM-B3LYP/6-31G(d,p) SCRF=(PCM,Solvent=Generic,Read) NoSymm out=wfn
 ----------------------------------------------------------------------
 1/38=1,40=2/1;
 2/12=2,15=1,17=6,18=5,40=1/2;
 3/5=1,6=6,7=101,11=2,16=1,25=1,30=1,70=2203,72=-2,74=-40/1,2,3;
 4//1;
 5/5=2,38=5/2;
 6/7=2,8=2,9=2,10=2,28=1/1;
 99/5=1,6=100,9=1/99;
 Leave Link    1 at Sun Mar  3 17:58:30 2024, MaxMem=  5368709120 cpu:         1.3
 (Enter /home/k0335/k033513/app/g09/l101.exe)
 -------------------
 Title A902650421_p1
 -------------------
 Symbolic Z-matrix:
 Charge =  1 Multiplicity = 2
 C                    -3.73837  -1.38668  -2.23174 
 C                    -3.44311  -0.2023   -1.68287 
 N                    -2.35959   0.15122  -0.85921 
 C                    -2.35786   1.46182  -0.3646 
 O                    -3.32385   2.21896  -0.53097 
 N                    -1.21179   1.88028   0.32075 
 C                    -1.15889   3.23463   0.69108 
 C                    -0.23281   3.87114   1.41826 
 C                    -0.16925   1.00035   0.58379 
 O                     0.96072   1.35585   0.91885 
 N                    -0.4394   -0.33067   0.40651 
 C                     0.59239  -1.28362   0.80122 
 F                     1.04284  -0.93933   2.0408 
 F                    -0.01865  -2.48365   1.03381 
 C                     1.78676  -1.47336  -0.18376 
 F                     1.2885   -1.8341   -1.41435 
 O                     2.51112  -0.27845  -0.49847 
 C                     3.54595   0.04751   0.3986 
 F                     3.93797   1.31386   0.17039 
 F                     4.59279  -0.76652   0.18247 
 F                     3.15024  -0.0713    1.67138 
 C                     2.59914  -2.67338   0.32538 
 F                     1.87429  -3.81332   0.37304 
 F                     3.64834  -2.92598  -0.49707 
 F                     3.1076   -2.47726   1.56022 
 C                    -1.34514  -0.74791  -0.53831 
 O                    -1.21494  -1.85235  -1.0655 
 H                    -3.15112  -2.28853  -2.10908 
 H                    -4.62869  -1.48772  -2.84699 
 H                    -4.14487   0.60698  -1.89179 
 H                    -2.00194   3.83892   0.35195 
 H                    -0.34527   4.93257   1.62368 
 H                     0.64691   3.40235   1.84252 
 
 NAtoms=     33 NQM=       33 NQMF=       0 NMMI=      0 NMMIF=      0
                NMic=       0 NMicF=      0.
                    Isotopes and Nuclear Properties:
 (Nuclear quadrupole moments (NQMom) in fm**2, nuclear magnetic moments (NMagM)
  in nuclear magnetons)

  Atom         1           2           3           4           5           6           7           8           9          10
 IAtWgt=          12          12          14          12          16          14          12          12          12          16
 AtmWgt=  12.0000000  12.0000000  14.0030740  12.0000000  15.9949146  14.0030740  12.0000000  12.0000000  12.0000000  15.9949146
 NucSpn=           0           0           2           0           0           2           0           0           0           0
 AtZEff=   0.0000000   0.0000000   0.0000000   0.0000000   0.0000000   0.0000000   0.0000000   0.0000000   0.0000000   0.0000000
 NQMom=    0.0000000   0.0000000   2.0440000   0.0000000   0.0000000   2.0440000   0.0000000   0.0000000   0.0000000   0.0000000
 NMagM=    0.0000000   0.0000000   0.4037610   0.0000000   0.0000000   0.4037610   0.0000000   0.0000000   0.0000000   0.0000000
 AtZNuc=   6.0000000   6.0000000   7.0000000   6.0000000   8.0000000   7.0000000   6.0000000   6.0000000   6.0000000   8.0000000

  Atom        11          12          13          14          15          16          17          18          19          20
 IAtWgt=          14          12          19          19          12          19          16          12          19          19
 AtmWgt=  14.0030740  12.0000000  18.9984033  18.9984033  12.0000000  18.9984033  15.9949146  12.0000000  18.9984033  18.9984033
 NucSpn=           2           0           1           1           0           1           0           0           1           1
 AtZEff=   0.0000000   0.0000000   0.0000000   0.0000000   0.0000000   0.0000000   0.0000000   0.0000000   0.0000000   0.0000000
 NQMom=    2.0440000   0.0000000   0.0000000   0.0000000   0.0000000   0.0000000   0.0000000   0.0000000   0.0000000   0.0000000
 NMagM=    0.4037610   0.0000000   2.6288670   2.6288670   0.0000000   2.6288670   0.0000000   0.0000000   2.6288670   2.6288670
 AtZNuc=   7.0000000   6.0000000   9.0000000   9.0000000   6.0000000   9.0000000   8.0000000   6.0000000   9.0000000   9.0000000

  Atom        21          22          23          24          25          26          27          28          29          30
 IAtWgt=          19          12          19          19          19          12          16           1           1           1
 AtmWgt=  18.9984033  12.0000000  18.9984033  18.9984033  18.9984033  12.0000000  15.9949146   1.0078250   1.0078250   1.0078250
 NucSpn=           1           0           1           1           1           0           0           1           1           1
 AtZEff=   0.0000000   0.0000000   0.0000000   0.0000000   0.0000000   0.0000000   0.0000000   0.0000000   0.0000000   0.0000000
 NQMom=    0.0000000   0.0000000   0.0000000   0.0000000   0.0000000   0.0000000   0.0000000   0.0000000   0.0000000   0.0000000
 NMagM=    2.6288670   0.0000000   2.6288670   2.6288670   2.6288670   0.0000000   0.0000000   2.7928460   2.7928460   2.7928460
 AtZNuc=   9.0000000   6.0000000   9.0000000   9.0000000   9.0000000   6.0000000   8.0000000   1.0000000   1.0000000   1.0000000

  Atom        31          32          33
 IAtWgt=           1           1           1
 AtmWgt=   1.0078250   1.0078250   1.0078250
 NucSpn=           1           1           1
 AtZEff=   0.0000000   0.0000000   0.0000000
 NQMom=    0.0000000   0.0000000   0.0000000
 NMagM=    2.7928460   2.7928460   2.7928460
 AtZNuc=   1.0000000   1.0000000   1.0000000
 Leave Link  101 at Sun Mar  3 17:58:30 2024, MaxMem=  5368709120 cpu:         0.7
 (Enter /home/k0335/k033513/app/g09/l202.exe)
                          Input orientation:                          
 ---------------------------------------------------------------------
 Center     Atomic      Atomic             Coordinates (Angstroms)
 Number     Number       Type             X           Y           Z
 ---------------------------------------------------------------------
      1          6           0       -3.738372   -1.386680   -2.231744
      2          6           0       -3.443111   -0.202299   -1.682865
      3          7           0       -2.359588    0.151220   -0.859210
      4          6           0       -2.357860    1.461817   -0.364595
      5          8           0       -3.323852    2.218958   -0.530974
      6          7           0       -1.211794    1.880280    0.320751
      7          6           0       -1.158891    3.234631    0.691079
      8          6           0       -0.232809    3.871142    1.418262
      9          6           0       -0.169245    1.000346    0.583786
     10          8           0        0.960717    1.355845    0.918845
     11          7           0       -0.439401   -0.330672    0.406514
     12          6           0        0.592393   -1.283615    0.801218
     13          9           0        1.042838   -0.939333    2.040799
     14          9           0       -0.018654   -2.483654    1.033815
     15          6           0        1.786757   -1.473362   -0.183757
     16          9           0        1.288501   -1.834101   -1.414347
     17          8           0        2.511115   -0.278454   -0.498470
     18          6           0        3.545947    0.047508    0.398600
     19          9           0        3.937965    1.313859    0.170391
     20          9           0        4.592792   -0.766516    0.182468
     21          9           0        3.150237   -0.071301    1.671377
     22          6           0        2.599136   -2.673376    0.325380
     23          9           0        1.874287   -3.813324    0.373041
     24          9           0        3.648336   -2.925978   -0.497069
     25          9           0        3.107604   -2.477255    1.560219
     26          6           0       -1.345140   -0.747912   -0.538312
     27          8           0       -1.214935   -1.852349   -1.065495
     28          1           0       -3.151124   -2.288530   -2.109083
     29          1           0       -4.628686   -1.487716   -2.846985
     30          1           0       -4.144870    0.606984   -1.891786
     31          1           0       -2.001939    3.838923    0.351945
     32          1           0       -0.345267    4.932566    1.623676
     33          1           0        0.646914    3.402350    1.842523
 ---------------------------------------------------------------------
                    Distance matrix (angstroms):
                    1          2          3          4          5
     1  C    0.000000
     2  C    1.338359   0.000000
     3  N    2.479926   1.406202   0.000000
     4  C    3.675050   2.384300   1.400825   0.000000
     5  O    4.008126   2.683945   2.305013   1.238582   0.000000
     6  N    4.855085   3.651080   2.387339   1.399385   2.302374
     7  C    6.045919   4.760857   3.654106   2.386387   2.685528
     8  C    7.297685   6.042843   4.852617   3.674135   4.010459
     9  C    5.134566   4.159599   2.756965   2.429489   3.560794
    10  O    6.287217   5.347000   3.954368   3.559691   4.604831
    11  N    4.354167   3.661183   2.349765   2.736441   3.962266
    12  C    5.288195   4.860577   3.678310   4.195296   5.420307
    13  F    6.427652   5.876447   4.601724   4.807930   5.971332
    14  F    5.069865   4.930703   4.000760   4.795224   5.957135
    15  C    5.893116   5.586989   4.504185   5.081912   6.314437
    16  F    5.112512   5.012288   4.190254   5.026033   6.203341
    17  O    6.579399   6.071359   4.902907   5.172367   6.347044
    18  C    7.876351   7.296700   6.038889   6.118633   7.264533
    19  F    8.484652   7.759741   6.486215   6.320246   7.351537
    20  F    8.696052   8.268830   7.089635   7.319584   8.490896
    21  F    8.026052   7.398671   6.067253   6.069165   7.211759
    22  C    6.954026   6.829935   5.828425   6.492126   7.729816
    23  F    6.646461   6.748405   5.929734   6.803109   8.014132
    24  F    7.742221   7.688508   6.759841   7.439401   8.665040
    25  F    7.901628   7.655383   6.530904   7.006604   8.233537
    26  C    3.000549   2.451362   1.393025   2.436941   3.566185
    27  O    2.818638   2.840524   2.316694   3.575085   4.616144
    28  H    1.083162   2.149251   2.853260   4.211604   4.778882
    29  H    1.086917   2.100729   3.433099   4.474221   4.561352
    30  H    2.062888   1.091354   2.112147   2.501291   2.263701
    31  H    6.082563   4.748569   3.897943   2.508135   2.269645
    32  H    8.143113   6.848116   5.751824   4.477706   4.569262
    33  H    7.665846   6.492315   5.187317   4.203059   4.775027
                    6          7          8          9         10
     6  N    0.000000
     7  C    1.405065   0.000000
     8  C    2.475171   1.338495   0.000000
     9  C    1.389381   2.446005   2.990294   0.000000
    10  O    2.313558   2.841558   2.828540   1.231039   0.000000
    11  N    2.343556   3.648291   4.326841   1.369678   2.251034
    12  C    3.673713   4.847027   5.256731   2.417405   2.667630
    13  F    3.999018   4.908292   5.015526   2.711897   2.556045
    14  F    4.579952   5.840924   6.370015   3.516171   3.964106
    15  C    4.526892   5.622044   5.933703   3.245658   3.146821
    16  F    4.801944   6.009542   6.548882   3.761868   3.965726
    17  O    4.380788   5.217829   5.331241   3.160844   2.661475
    18  C    5.099138   5.690237   5.471644   3.839902   2.943776
    19  F    5.182997   5.471601   5.048983   4.139850   3.070171
    20  F    6.381056   7.024936   6.805989   5.095081   4.270672
    21  F    4.965901   5.518945   5.201146   3.653798   2.719751
    22  C    5.937928   7.011494   7.214223   4.607270   4.389902
    23  F    6.476400   7.679517   8.036377   5.233723   5.277577
    24  F    6.884026   7.904064   8.058078   5.581952   5.249963
    25  F    6.259520   7.182202   7.175002   4.876973   4.439948
    26  C    2.768242   4.172139   5.138202   2.387098   3.444717
    27  O    3.981734   5.382013   6.316009   3.457089   4.354719
    28  H    5.200391   6.505014   7.674652   5.192288   6.273520
    29  H    5.749182   6.845286   8.138392   6.152012   7.314967
    30  H    3.888385   4.742551   6.075802   4.699871   5.876007
    31  H    2.112246   1.091289   2.065887   3.386744   3.906966
    32  H    3.430005   2.101120   1.086951   4.071205   3.872378
    33  H    2.843815   2.148228   1.083363   2.831988   2.267121
                   11         12         13         14         15
    11  N    0.000000
    12  C    1.458935   0.000000
    13  F    2.288753   1.363082   0.000000
    14  F    2.281637   1.366592   2.127371   0.000000
    15  C    2.570980   1.559707   2.405671   2.400558   0.000000
    16  F    2.926000   2.386698   3.577568   2.850276   1.375770
    17  O    3.086627   2.526070   3.006740   3.689246   1.432321
    18  C    4.003259   3.264578   3.152178   4.417766   2.397277
    19  F    4.682048   4.282250   4.117895   5.551706   3.538604
    20  F    5.055999   4.080862   4.010665   4.993875   2.916776
    21  F    3.814794   2.961325   2.308914   4.033336   2.695621
    22  C    3.837649   2.486941   2.893377   2.718584   1.535973
    23  F    4.181284   2.868103   3.425281   2.405799   2.406888
    24  F    4.925614   3.704280   4.144412   3.998259   2.381960
    25  F    4.303498   2.885679   2.619049   3.170273   2.407050
    26  C    1.373735   2.415647   3.520070   2.691458   3.234311
    27  O    2.254720   2.659795   3.947176   2.497346   3.151388
    28  H    4.185078   4.847022   6.052369   4.441649   5.362280
    29  H    5.429007   6.372653   7.507153   6.107773   6.946287
    30  H    4.460032   5.767868   6.690937   5.927634   6.513785
    31  H    4.453092   5.759583   5.912244   6.661332   6.546875
    32  H    5.402964   6.340075   6.048142   7.446807   6.989153
    33  H    4.144594   4.800579   4.364204   5.978464   5.401631
                   16         17         18         19         20
    16  F    0.000000
    17  O    2.180287   0.000000
    18  C    3.453012   1.407787   0.000000
    19  F    4.409162   2.240254   1.345140   0.000000
    20  F    3.822028   2.243939   1.343589   2.181033   0.000000
    21  F    4.011885   2.271481   1.338157   2.189096   2.186582
    22  C    2.334266   2.534192   2.881844   4.208863   2.762463
    23  F    2.730426   3.695996   4.207270   5.530627   4.087741
    24  F    2.757248   2.881433   3.107141   4.301814   2.452966
    25  F    3.545536   3.070623   2.813527   4.122338   2.651530
    26  C    2.980488   3.884930   5.043137   5.715274   5.981547
    27  O    2.527691   4.084374   5.330950   6.172898   6.038720
    28  H    4.516573   6.220565   7.523052   8.272145   8.218027
    29  H    6.097994   7.612792   8.928346   9.504782   9.733107
    30  H    5.975648   6.857657   8.044100   8.371647   9.084920
    31  H    6.791906   6.167954   6.719825   6.456885   8.045450
    32  H    7.595167   6.310083   6.364444   5.792508   7.677307
    33  H    6.199940   4.743818   4.663075   4.241325   5.975381
                   21         22         23         24         25
    21  F    0.000000
    22  C    2.980975   0.000000
    23  F    4.161305   1.351724   0.000000
    24  F    3.619315   1.356853   2.166039   0.000000
    25  F    2.408898   1.349752   2.171530   2.173977   0.000000
    26  C    5.054596   4.473331   4.537844   5.447979   5.217412
    27  O    5.451360   4.141951   3.931679   5.012703   5.096001
    28  H    7.675619   6.256213   5.808674   7.016950   7.257484
    29  H    9.106782   7.981923   7.620084   8.723520   8.958394
    30  H    8.147072   7.820371   7.803769   8.669551   8.603909
    31  H    6.601187   7.973747   8.578022   8.854960   8.213493
    32  H    6.104057   8.258658   9.109396   9.066595   8.175071
    33  H    4.285110   6.559523   7.465372   7.384440   6.380004
                   26         27         28         29         30
    26  C    0.000000
    27  O    1.230714   0.000000
    28  H    2.846472   2.242355   0.000000
    29  H    4.081538   3.867862   1.835481   0.000000
    30  H    3.392068   3.913514   3.068998   2.352499   0.000000
    31  H    4.718368   5.917693   6.702460   6.745816   4.480169
    32  H    6.159689   7.350036   8.599451   8.919333   6.745822
    33  H    5.182792   6.287679   7.901038   8.586978   6.687326
                   31         32         33
    31  H    0.000000
    32  H    2.357523   0.000000
    33  H    3.070642   1.836812   0.000000
 Symmetry turned off by external request.
 Stoichiometry    C11H6F9N3O4(1+,2)
 Framework group  C1[X(C11H6F9N3O4)]
 Deg. of freedom    93
 Full point group                 C1      NOp   1
 Rotational constants (GHZ):      0.3221440      0.1646800      0.1252010
 Leave Link  202 at Sun Mar  3 17:58:30 2024, MaxMem=  5368709120 cpu:         0.0
 (Enter /home/k0335/k033513/app/g09/l301.exe)
 Standard basis: 6-31G(d,p) (6D, 7F)
 Ernie: Thresh=  0.10000D-02 Tol=  0.10000D-05 Strict=F.
   435 basis functions,   798 primitive gaussians,   435 cartesian basis functions
   103 alpha electrons      102 beta electrons
       nuclear repulsion energy      3112.0232441316 Hartrees.
 IExCor=20419 DFT=T Ex+Corr=CAM-B3LYP ExCW=0 ScaHFX=  1.000000
 ScaDFX=  1.000000  1.000000  1.000000  0.810000 ScalE2=  1.000000  1.000000
 IRadAn=      0 IRanWt=     -1 IRanGd=            0 ICorTp=0 IEmpDi=  4
  HFx wShort=  0.000000 wLong=  0.330000 cFull=  0.190000 cShort=  0.000000 cLong=  0.460000
  DFx wShort=  0.000000 wLong=  0.330000 cFull=  0.190000 cShort=  0.000000 cLong=  0.460000
 NAtoms=   33 NActive=   33 NUniq=   33 SFac= 1.00D+00 NAtFMM=   60 NAOKFM=F Big=F
 Integral buffers will be    131072 words long.
 Raffenetti 2 integral format.
 Two-electron integral symmetry is turned off.
 Using the following non-standard input for PCM:
 eps=4.9
 --- end of non-standard input.
 ------------------------------------------------------------------------------
 Polarizable Continuum Model (PCM)
 =================================
 Model                : PCM (using non-symmetric T matrix).
 Atomic radii         : UFF (Universal Force Field).
 Polarization charges : Total charges.
 Charge compensation  : None.
 Solution method      : On-the-fly selection.
 Cavity type          : Scaled VdW (van der Waals Surface) (Alpha=1.100).
 Cavity algorithm     : GePol (No added spheres)
                        Default sphere list used, NSphG=   33.
                        Lebedev-Laikov grids with approx.  5.0 points / Ang**2.
                        Smoothing algorithm: Karplus/York (Gamma=1.0000).
                        Polarization charges: spherical gaussians, with
                                              point-specific exponents (IZeta= 3).
                        Self-potential: point-specific (ISelfS= 7).
                        Self-field    : sphere-specific E.n sum rule (ISelfD= 2).
 Solvent              : Generic,
                        Eps                           =   4.900000
                        Eps(infinity)                 =   0.000000
                        RSolv                         =   0.000000 Ang.
                        Molar volume                  =   0.000000 cm**3/mol
                        Thermal expansion coefficient =   0.000000 K**-1
                        Absolute temperature          = 298.150000 K
                        Numeral density               =   0.000000 Ang**-3
                        Hydrogen bond acidity         =   0.000000
                        Hydrogen bond basicity        =   0.000000
                        Surface tension at interface  =   0.000000 (cal/mol)*Ang**-2
                        Carbon aromaticity            =   0.000000
                        Electronegative halogenicity  =   0.000000
 ------------------------------------------------------------------------------
 GePol: Number of generator spheres                  =      33
 GePol: Total number of spheres                      =      33
 GePol: Number of exposed spheres                    =      33 (100.00%)
 GePol: Number of points                             =    2671
 GePol: Average weight of points                     =       0.13
 GePol: Minimum weight of points                     =   0.11D-08
 GePol: Maximum weight of points                     =    0.20577
 GePol: Number of points with low weight             =     117
 GePol: Fraction of low-weight points (<1% of avg)   =       4.38%
 GePol: Cavity surface area                          =    340.757 Ang**2
 GePol: Cavity volume                                =    388.835 Ang**3
 Leave Link  301 at Sun Mar  3 17:58:30 2024, MaxMem=  5368709120 cpu:         0.7
 (Enter /home/k0335/k033513/app/g09/l302.exe)
 NPDir=0 NMtPBC=     1 NCelOv=     1 NCel=       1 NClECP=     1 NCelD=      1
         NCelK=      1 NCelE2=     1 NClLst=     1 CellRange=     0.0.
 One-electron integrals computed using PRISM.
 NBasis=   435 RedAO= T EigKep=  1.16D-03  NBF=   435
 NBsUse=   435 1.00D-06 EigRej= -1.00D+00 NBFU=   435
 Precomputing XC quadrature grid using
 IXCGrd= 4 IRadAn=           0 IRanWt=          -1 IRanGd=           0 AccXCQ= 0.00D+00.
 Generated NRdTot=       0 NPtTot=           0 NUsed=           0 NTot=          32
 NSgBfM=   429   429   429   429   429 MxSgAt=    33 MxSgA2=    33.
 Leave Link  302 at Sun Mar  3 17:58:30 2024, MaxMem=  5368709120 cpu:         6.2
 (Enter /home/k0335/k033513/app/g09/l303.exe)
 DipDrv:  MaxL=1.
 Leave Link  303 at Sun Mar  3 17:58:30 2024, MaxMem=  5368709120 cpu:         0.7
 (Enter /home/k0335/k033513/app/g09/l401.exe)
 ExpMin= 1.61D-01 ExpMax= 7.00D+03 ExpMxC= 1.05D+03 IAcc=1 IRadAn=         1 AccDes= 0.00D+00
 Harris functional with IExCor=20419 and IRadAn=       1 diagonalized for initial guess.
 HarFok:  IExCor=20419 AccDes= 0.00D+00 IRadAn=         1 IDoV= 1 UseB2=F ITyADJ=14
 ICtDFT=  3500011 ScaDFX=  1.000000  1.000000  1.000000  1.000000
 FoFCou: FMM=F IPFlag=           0 FMFlag=      100000 FMFlg1=           0
         NFxFlg=           0 DoJE=T BraDBF=F KetDBF=T FulRan=T
         wScrn=  0.000000 ICntrl=     500 IOpCl=  0 I1Cent=   200000004 NGrid=           0
         NMat0=    1 NMatS0=      1 NMatT0=    0 NMatD0=    1 NMtDS0=    0 NMtDT0=    0
 Symmetry not used in FoFCou.
 Harris En= -1730.14235839263    
 JPrj=0 DoOrth=F DoCkMO=F.
 Initial guess <Sx>= 0.0000 <Sy>= 0.0000 <Sz>= 0.5000 <S**2>= 0.7500 S= 0.5000
 Leave Link  401 at Sun Mar  3 17:58:31 2024, MaxMem=  5368709120 cpu:         8.5
 (Enter /home/k0335/k033513/app/g09/l502.exe)
 UHF open shell SCF:
 Using DIIS extrapolation, IDIIS=  1040.
 Two-electron integral symmetry not used.
 IVT=      599341 IEndB=      599341 NGot=  5368709120 MDV=  5368316080
 LenX=  5368316080 LenY=  5368126414
 Requested convergence on RMS density matrix=1.00D-08 within 128 cycles.
 Requested convergence on MAX density matrix=1.00D-06.
 Requested convergence on             energy=1.00D-06.
 No special actions if energy rises.
 Fock matrices will be formed incrementally for  20 cycles.

 Cycle   1  Pass 1  IDiag  1:
 FoFJK:  IHMeth= 1 ICntrl=       0 DoSepK=T KAlg= 0 I1Cent=   0 FoldK=F
 IRaf=         1 NMat=   1 IRICut=       1 DoRegI=T DoRafI=F ISym2E= 0.
 FoFCou: FMM=F IPFlag=           0 FMFlag=      100000 FMFlg1=           0
         NFxFlg=           0 DoJE=T BraDBF=F KetDBF=F FulRan=T
         wScrn=  0.000000 ICntrl=     500 IOpCl=  0 I1Cent=           0 NGrid=           0
         NMat0=    1 NMatS0=      1 NMatT0=    0 NMatD0=    1 NMtDS0=    0 NMtDT0=    0
 Symmetry not used in FoFCou.
 Inv3:  Mode=1 IEnd=    21402723.
 Iteration    1 A*A^-1 deviation from unit magnitude is 5.77D-15 for   2671.
 Iteration    1 A*A^-1 deviation from orthogonality  is 3.82D-15 for   2641     36.
 Iteration    1 A^-1*A deviation from unit magnitude is 5.55D-15 for   2671.
 Iteration    1 A^-1*A deviation from orthogonality  is 2.93D-13 for   2196   2181.
 E= -1784.71127225602    
 DIIS: error= 4.31D-02 at cycle   1 NSaved=   1.
 NSaved= 1 IEnMin= 1 EnMin= -1784.71127225602     IErMin= 1 ErrMin= 4.31D-02
 ErrMax= 4.31D-02  0.00D+00 EMaxC= 1.00D-01 BMatC= 6.90D+00 BMatP= 6.90D+00
 IDIUse=3 WtCom= 5.69D-01 WtEn= 4.31D-01
 Coeff-Com:  0.100D+01
 Coeff-En:   0.100D+01
 Coeff:      0.100D+01
 Gap=     0.673 Goal=   None    Shift=    0.000
 Gap=    -0.059 Goal=   None    Shift=    0.000
 GapD=   -0.059 DampG=0.250 DampE=0.500 DampFc=0.2500 IDamp=-1.
 Damping current iteration by 2.50D-01
 RMSDP=4.43D-03 MaxDP=1.70D-01              OVMax= 6.62D-01

 Cycle   2  Pass 1  IDiag  1:
 RMSU=  1.11D-03    CP:  1.00D+00
 E= -1785.01659277168     Delta-E=       -0.305320515664 Rises=F Damp=T
 DIIS: error= 3.26D-02 at cycle   2 NSaved=   2.
 NSaved= 2 IEnMin= 2 EnMin= -1785.01659277168     IErMin= 2 ErrMin= 3.26D-02
 ErrMax= 3.26D-02  0.00D+00 EMaxC= 1.00D-01 BMatC= 2.74D+00 BMatP= 6.90D+00
 IDIUse=3 WtCom= 6.74D-01 WtEn= 3.26D-01
 Coeff-Com: -0.130D+01 0.230D+01
 Coeff-En:   0.000D+00 0.100D+01
 Coeff:     -0.879D+00 0.188D+01
 Gap=     0.353 Goal=   None    Shift=    0.000
 Gap=     0.040 Goal=   None    Shift=    0.000
 RMSDP=2.26D-03 MaxDP=5.83D-02 DE=-3.05D-01 OVMax= 2.17D-01

 Cycle   3  Pass 1  IDiag  1:
 RMSU=  1.45D-03    CP:  1.00D+00  2.56D+00
 E= -1785.54945841843     Delta-E=       -0.532865646752 Rises=F Damp=F
 DIIS: error= 1.08D-02 at cycle   3 NSaved=   3.
 NSaved= 3 IEnMin= 3 EnMin= -1785.54945841843     IErMin= 3 ErrMin= 1.08D-02
 ErrMax= 1.08D-02  0.00D+00 EMaxC= 1.00D-01 BMatC= 3.89D-01 BMatP= 2.74D+00
 IDIUse=3 WtCom= 8.92D-01 WtEn= 1.08D-01
 Coeff-Com: -0.487D+00 0.870D+00 0.617D+00
 Coeff-En:   0.000D+00 0.000D+00 0.100D+01
 Coeff:     -0.435D+00 0.777D+00 0.658D+00
 Gap=     0.338 Goal=   None    Shift=    0.000
 Gap=     0.071 Goal=   None    Shift=    0.000
 RMSDP=8.89D-04 MaxDP=5.23D-02 DE=-5.33D-01 OVMax= 7.91D-02

 Cycle   4  Pass 1  IDiag  1:
 RMSU=  7.90D-04    CP:  1.00D+00  2.62D+00  7.24D-01
 E= -1785.59959348003     Delta-E=       -0.050135061596 Rises=F Damp=F
 DIIS: error= 6.64D-03 at cycle   4 NSaved=   4.
 NSaved= 4 IEnMin= 4 EnMin= -1785.59959348003     IErMin= 4 ErrMin= 6.64D-03
 ErrMax= 6.64D-03  0.00D+00 EMaxC= 1.00D-01 BMatC= 1.31D-01 BMatP= 3.89D-01
 IDIUse=3 WtCom= 9.34D-01 WtEn= 6.64D-02
 Coeff-Com:  0.167D-01-0.331D-02 0.362D+00 0.625D+00
 Coeff-En:   0.000D+00 0.000D+00 0.248D+00 0.752D+00
 Coeff:      0.156D-01-0.309D-02 0.354D+00 0.633D+00
 Gap=     0.356 Goal=   None    Shift=    0.000
 Gap=     0.086 Goal=   None    Shift=    0.000
 RMSDP=3.65D-04 MaxDP=2.41D-02 DE=-5.01D-02 OVMax= 4.17D-02

 Cycle   5  Pass 1  IDiag  1:
 RMSU=  1.89D-04    CP:  1.00D+00  2.56D+00  8.63D-01  7.10D-01
 E= -1785.62302149784     Delta-E=       -0.023428017807 Rises=F Damp=F
 DIIS: error= 1.20D-03 at cycle   5 NSaved=   5.
 NSaved= 5 IEnMin= 5 EnMin= -1785.62302149784     IErMin= 5 ErrMin= 1.20D-03
 ErrMax= 1.20D-03  0.00D+00 EMaxC= 1.00D-01 BMatC= 4.24D-03 BMatP= 1.31D-01
 IDIUse=3 WtCom= 9.88D-01 WtEn= 1.20D-02
 Coeff-Com:  0.201D-01-0.268D-01 0.124D+00 0.272D+00 0.611D+00
 Coeff-En:   0.000D+00 0.000D+00 0.000D+00 0.000D+00 0.100D+01
 Coeff:      0.198D-01-0.265D-01 0.123D+00 0.269D+00 0.615D+00
 Gap=     0.333 Goal=   None    Shift=    0.000
 Gap=     0.087 Goal=   None    Shift=    0.000
 RMSDP=7.90D-05 MaxDP=5.21D-03 DE=-2.34D-02 OVMax= 1.63D-02

 Cycle   6  Pass 1  IDiag  1:
 RMSU=  7.17D-05    CP:  1.00D+00  2.56D+00  8.64D-01  7.43D-01  8.95D-01
 E= -1785.62421764972     Delta-E=       -0.001196151886 Rises=F Damp=F
 DIIS: error= 5.83D-04 at cycle   6 NSaved=   6.
 NSaved= 6 IEnMin= 6 EnMin= -1785.62421764972     IErMin= 6 ErrMin= 5.83D-04
 ErrMax= 5.83D-04  0.00D+00 EMaxC= 1.00D-01 BMatC= 5.08D-04 BMatP= 4.24D-03
 IDIUse=3 WtCom= 9.94D-01 WtEn= 5.83D-03
 Coeff-Com: -0.868D-02 0.103D-01-0.204D-01-0.301D-01 0.165D+00 0.884D+00
 Coeff-En:   0.000D+00 0.000D+00 0.000D+00 0.000D+00 0.000D+00 0.100D+01
 Coeff:     -0.863D-02 0.103D-01-0.202D-01-0.299D-01 0.164D+00 0.885D+00
 Gap=     0.332 Goal=   None    Shift=    0.000
 Gap=     0.090 Goal=   None    Shift=    0.000
 RMSDP=5.10D-05 MaxDP=3.62D-03 DE=-1.20D-03 OVMax= 1.58D-02

 Cycle   7  Pass 1  IDiag  1:
 RMSU=  3.26D-05    CP:  1.00D+00  2.57D+00  8.67D-01  7.54D-01  1.07D+00
                    CP:  1.28D+00
 E= -1785.62462975278     Delta-E=       -0.000412103058 Rises=F Damp=F
 DIIS: error= 4.58D-04 at cycle   7 NSaved=   7.
 NSaved= 7 IEnMin= 7 EnMin= -1785.62462975278     IErMin= 7 ErrMin= 4.58D-04
 ErrMax= 4.58D-04  0.00D+00 EMaxC= 1.00D-01 BMatC= 1.70D-04 BMatP= 5.08D-04
 IDIUse=3 WtCom= 9.95D-01 WtEn= 4.58D-03
 Coeff-Com: -0.108D-01 0.148D-01-0.324D-01-0.652D-01-0.399D-01 0.306D+00
 Coeff-Com:  0.827D+00
 Coeff-En:   0.000D+00 0.000D+00 0.000D+00 0.000D+00 0.000D+00 0.000D+00
 Coeff-En:   0.100D+01
 Coeff:     -0.107D-01 0.147D-01-0.323D-01-0.649D-01-0.397D-01 0.305D+00
 Coeff:      0.828D+00
 Gap=     0.332 Goal=   None    Shift=    0.000
 Gap=     0.091 Goal=   None    Shift=    0.000
 RMSDP=3.66D-05 MaxDP=2.96D-03 DE=-4.12D-04 OVMax= 1.32D-02

 Cycle   8  Pass 1  IDiag  1:
 RMSU=  1.96D-05    CP:  1.00D+00  2.57D+00  8.66D-01  7.55D-01  1.16D+00
                    CP:  1.58D+00  1.41D+00
 E= -1785.62482269266     Delta-E=       -0.000192939883 Rises=F Damp=F
 DIIS: error= 2.51D-04 at cycle   8 NSaved=   8.
 NSaved= 8 IEnMin= 8 EnMin= -1785.62482269266     IErMin= 8 ErrMin= 2.51D-04
 ErrMax= 2.51D-04  0.00D+00 EMaxC= 1.00D-01 BMatC= 7.91D-05 BMatP= 1.70D-04
 IDIUse=3 WtCom= 9.97D-01 WtEn= 2.51D-03
 Coeff-Com: -0.131D-02 0.248D-02-0.279D-02-0.871D-02-0.760D-01-0.353D+00
 Coeff-Com:  0.347D+00 0.109D+01
 Coeff-En:   0.000D+00 0.000D+00 0.000D+00 0.000D+00 0.000D+00 0.000D+00
 Coeff-En:   0.000D+00 0.100D+01
 Coeff:     -0.130D-02 0.247D-02-0.278D-02-0.869D-02-0.758D-01-0.352D+00
 Coeff:      0.346D+00 0.109D+01
 Gap=     0.330 Goal=   None    Shift=    0.000
 Gap=     0.093 Goal=   None    Shift=    0.000
 RMSDP=4.05D-05 MaxDP=2.95D-03 DE=-1.93D-04 OVMax= 1.42D-02

 Cycle   9  Pass 1  IDiag  1:
 RMSU=  1.23D-05    CP:  1.00D+00  2.57D+00  8.66D-01  7.60D-01  1.24D+00
                    CP:  1.88D+00  2.20D+00  1.56D+00
 E= -1785.62495165656     Delta-E=       -0.000128963898 Rises=F Damp=F
 DIIS: error= 1.10D-04 at cycle   9 NSaved=   9.
 NSaved= 9 IEnMin= 9 EnMin= -1785.62495165656     IErMin= 9 ErrMin= 1.10D-04
 ErrMax= 1.10D-04  0.00D+00 EMaxC= 1.00D-01 BMatC= 2.69D-05 BMatP= 7.91D-05
 IDIUse=3 WtCom= 9.99D-01 WtEn= 1.10D-03
 Coeff-Com:  0.296D-02-0.378D-02 0.107D-01 0.207D-01-0.141D-01-0.305D+00
 Coeff-Com: -0.707D-01 0.560D+00 0.800D+00
 Coeff-En:   0.000D+00 0.000D+00 0.000D+00 0.000D+00 0.000D+00 0.000D+00
 Coeff-En:   0.000D+00 0.000D+00 0.100D+01
 Coeff:      0.295D-02-0.378D-02 0.107D-01 0.207D-01-0.141D-01-0.305D+00
 Coeff:     -0.707D-01 0.559D+00 0.800D+00
 Gap=     0.330 Goal=   None    Shift=    0.000
 Gap=     0.094 Goal=   None    Shift=    0.000
 RMSDP=2.32D-05 MaxDP=2.00D-03 DE=-1.29D-04 OVMax= 1.05D-02

 Cycle  10  Pass 1  IDiag  1:
 RMSU=  9.14D-06    CP:  1.00D+00  2.57D+00  8.65D-01  7.62D-01  1.27D+00
                    CP:  2.01D+00  2.58D+00  2.15D+00  1.44D+00
 E= -1785.62499108704     Delta-E=       -0.000039430479 Rises=F Damp=F
 DIIS: error= 5.75D-05 at cycle  10 NSaved=  10.
 NSaved=10 IEnMin=10 EnMin= -1785.62499108704     IErMin=10 ErrMin= 5.75D-05
 ErrMax= 5.75D-05  0.00D+00 EMaxC= 1.00D-01 BMatC= 1.06D-05 BMatP= 2.69D-05
 IDIUse=1 WtCom= 1.00D+00 WtEn= 0.00D+00
 Coeff-Com:  0.130D-02-0.180D-02 0.469D-02 0.920D-02 0.159D-01-0.467D-01
 Coeff-Com: -0.833D-01-0.570D-01 0.374D+00 0.784D+00
 Coeff:      0.130D-02-0.180D-02 0.469D-02 0.920D-02 0.159D-01-0.467D-01
 Coeff:     -0.833D-01-0.570D-01 0.374D+00 0.784D+00
 Gap=     0.329 Goal=   None    Shift=    0.000
 Gap=     0.094 Goal=   None    Shift=    0.000
 RMSDP=1.39D-05 MaxDP=8.13D-04 DE=-3.94D-05 OVMax= 7.38D-03

 Cycle  11  Pass 1  IDiag  1:
 RMSU=  4.49D-06    CP:  1.00D+00  2.57D+00  8.64D-01  7.63D-01  1.28D+00
                    CP:  2.06D+00  2.75D+00  2.45D+00  2.05D+00  1.67D+00
 E= -1785.62500938815     Delta-E=       -0.000018301110 Rises=F Damp=F
 DIIS: error= 6.01D-05 at cycle  11 NSaved=  11.
 NSaved=11 IEnMin=11 EnMin= -1785.62500938815     IErMin=10 ErrMin= 5.75D-05
 ErrMax= 6.01D-05  0.00D+00 EMaxC= 1.00D-01 BMatC= 6.51D-06 BMatP= 1.06D-05
 IDIUse=1 WtCom= 1.00D+00 WtEn= 0.00D+00
 Coeff-Com:  0.604D-04-0.127D-03 0.374D-03-0.551D-04 0.123D-01 0.331D-01
 Coeff-Com: -0.923D-02-0.171D+00 0.885D-01 0.287D+00 0.759D+00
 Coeff:      0.604D-04-0.127D-03 0.374D-03-0.551D-04 0.123D-01 0.331D-01
 Coeff:     -0.923D-02-0.171D+00 0.885D-01 0.287D+00 0.759D+00
 Gap=     0.328 Goal=   None    Shift=    0.000
 Gap=     0.094 Goal=   None    Shift=    0.000
 RMSDP=1.18D-05 MaxDP=5.71D-04 DE=-1.83D-05 OVMax= 6.76D-03

 Cycle  12  Pass 1  IDiag  1:
 RMSU=  2.51D-06    CP:  1.00D+00  2.57D+00  8.64D-01  7.63D-01  1.28D+00
                    CP:  2.08D+00  2.83D+00  2.67D+00  2.55D+00  2.44D+00
                    CP:  1.89D+00
 E= -1785.62502411287     Delta-E=       -0.000014724716 Rises=F Damp=F
 DIIS: error= 6.43D-05 at cycle  12 NSaved=  12.
 NSaved=12 IEnMin=12 EnMin= -1785.62502411287     IErMin=10 ErrMin= 5.75D-05
 ErrMax= 6.43D-05  0.00D+00 EMaxC= 1.00D-01 BMatC= 6.52D-06 BMatP= 6.51D-06
 IDIUse=1 WtCom= 1.00D+00 WtEn= 0.00D+00
 Coeff-Com:  0.932D-04-0.154D-03 0.240D-03-0.338D-03 0.864D-02 0.212D-01
 Coeff-Com:  0.537D-02-0.131D+00 0.821D-01 0.116D+00 0.567D+00 0.331D+00
 Coeff:      0.932D-04-0.154D-03 0.240D-03-0.338D-03 0.864D-02 0.212D-01
 Coeff:      0.537D-02-0.131D+00 0.821D-01 0.116D+00 0.567D+00 0.331D+00
 Gap=     0.328 Goal=   None    Shift=    0.000
 Gap=     0.094 Goal=   None    Shift=    0.000
 RMSDP=4.83D-06 MaxDP=2.37D-04 DE=-1.47D-05 OVMax= 2.81D-03

 Cycle  13  Pass 1  IDiag  1:
 RMSU=  4.02D-07    CP:  1.00D+00  2.57D+00  8.64D-01  7.63D-01  1.28D+00
                    CP:  2.09D+00  2.86D+00  2.75D+00  2.75D+00  2.75D+00
                    CP:  2.36D+00  1.39D+00
 E= -1785.62503022109     Delta-E=       -0.000006108225 Rises=F Damp=F
 DIIS: error= 6.56D-05 at cycle  13 NSaved=  13.
 NSaved=13 IEnMin=13 EnMin= -1785.62503022109     IErMin=10 ErrMin= 5.75D-05
 ErrMax= 6.56D-05  0.00D+00 EMaxC= 1.00D-01 BMatC= 6.57D-06 BMatP= 6.51D-06
 IDIUse=1 WtCom= 1.00D+00 WtEn= 0.00D+00
 Coeff-Com: -0.218D-03 0.271D-03-0.672D-03-0.238D-02 0.101D-01 0.488D-01
 Coeff-Com:  0.133D-01-0.182D+00 0.113D-01 0.106D+00 0.856D+00 0.301D+01
 Coeff-Com: -0.287D+01
 Coeff:     -0.218D-03 0.271D-03-0.672D-03-0.238D-02 0.101D-01 0.488D-01
 Coeff:      0.133D-01-0.182D+00 0.113D-01 0.106D+00 0.856D+00 0.301D+01
 Coeff:     -0.287D+01
 Gap=     0.329 Goal=   None    Shift=    0.000
 Gap=     0.094 Goal=   None    Shift=    0.000
 RMSDP=1.45D-05 MaxDP=7.08D-04 DE=-6.11D-06 OVMax= 8.45D-03

 Cycle  14  Pass 1  IDiag  1:
 RMSU=  7.51D-07    CP:  1.00D+00  2.57D+00  8.64D-01  7.63D-01  1.28D+00
                    CP:  2.07D+00  2.78D+00  2.52D+00  2.18D+00  1.81D+00
                    CP:  9.04D-01  1.45D-03 -2.30D+00
 E= -1785.62501238507     Delta-E=        0.000017836015 Rises=F Damp=F
 DIIS: error= 6.23D-05 at cycle  14 NSaved=  14.
 NSaved=14 IEnMin=13 EnMin= -1785.62503022109     IErMin=10 ErrMin= 5.75D-05
 ErrMax= 6.23D-05  0.00D+00 EMaxC= 1.00D-01 BMatC= 5.99D-06 BMatP= 6.51D-06
 IDIUse=1 WtCom= 1.00D+00 WtEn= 0.00D+00
 Large coefficients: NSaved= 14 BigCof=   13.07 CofMax=   10.00 Det=-1.00D-08
 Inversion failed.  Reducing to 13 matrices.
 Large coefficients: NSaved= 13 BigCof=   12.78 CofMax=   10.00 Det=-7.18D-09
 Inversion failed.  Reducing to 12 matrices.
 Large coefficients: NSaved= 12 BigCof=   12.78 CofMax=   10.00 Det=-7.18D-09
 Inversion failed.  Reducing to 11 matrices.
 Large coefficients: NSaved= 11 BigCof=   11.50 CofMax=   10.00 Det=-7.87D-09
 Inversion failed.  Reducing to 10 matrices.
 Large coefficients: NSaved= 10 BigCof=   10.86 CofMax=   10.00 Det=-8.04D-09
 Inversion failed.  Reducing to  9 matrices.
 Large coefficients: NSaved=  9 BigCof=   10.93 CofMax=   10.00 Det=-8.07D-09
 Inversion failed.  Reducing to  8 matrices.
 Large coefficients: NSaved=  8 BigCof=   10.58 CofMax=   10.00 Det=-8.84D-09
 Inversion failed.  Reducing to  7 matrices.
 Coeff-Com: -0.207D-01 0.336D-01-0.346D+00 0.270D+00 0.698D+01-0.961D+01
 Coeff-Com:  0.370D+01
 Coeff:     -0.207D-01 0.336D-01-0.346D+00 0.270D+00 0.698D+01-0.961D+01
 Coeff:      0.370D+01
 Gap=     0.333 Goal=   None    Shift=    0.000
 Gap=     0.094 Goal=   None    Shift=    0.000
 RMSDP=5.77D-05 MaxDP=2.83D-03 DE= 1.78D-05 OVMax= 3.37D-02

 Cycle  15  Pass 1  IDiag  1:
 RMSU=  1.35D-05    CP:  1.00D+00  2.57D+00  8.66D-01  7.61D-01  1.28D+00
                    CP:  1.99D+00  2.52D+00  1.63D+00 -6.85D-02 -1.91D+00
                    CP: -3.00D+00 -3.00D+00 -3.00D+00  3.00D+00
 E= -1785.62495097383     Delta-E=        0.000061411245 Rises=F Damp=F
 DIIS: error= 4.86D-05 at cycle  15 NSaved=   8.
 NSaved= 8 IEnMin= 6 EnMin= -1785.62503022109     IErMin= 8 ErrMin= 4.86D-05
 ErrMax= 4.86D-05  0.00D+00 EMaxC= 1.00D-01 BMatC= 4.44D-06 BMatP= 5.99D-06
 IDIUse=1 WtCom= 1.00D+00 WtEn= 0.00D+00
 Coeff-Com:  0.506D-01-0.623D-02-0.502D+00-0.226D+00 0.391D+01-0.725D+01
 Coeff-Com:  0.403D+01 0.991D+00
 Coeff:      0.506D-01-0.623D-02-0.502D+00-0.226D+00 0.391D+01-0.725D+01
 Coeff:      0.403D+01 0.991D+00
 Gap=     0.336 Goal=   None    Shift=    0.000
 Gap=     0.094 Goal=   None    Shift=    0.000
 RMSDP=5.40D-05 MaxDP=2.71D-03 DE= 6.14D-05 OVMax= 3.15D-02

 Cycle  16  Pass 1  IDiag  1:
 RMSU=  2.31D-05    CP:  1.00D+00  2.57D+00  8.67D-01  7.61D-01  1.27D+00
                    CP:  1.90D+00  2.25D+00  8.10D-01 -2.14D+00 -3.00D+00
                    CP: -3.00D+00 -3.00D+00 -3.00D+00  3.00D+00  3.00D+00
 E= -1785.62490920160     Delta-E=        0.000041772228 Rises=F Damp=F
 DIIS: error= 3.81D-05 at cycle  16 NSaved=   9.
 NSaved= 9 IEnMin= 6 EnMin= -1785.62503022109     IErMin= 9 ErrMin= 3.81D-05
 ErrMax= 3.81D-05  0.00D+00 EMaxC= 1.00D-01 BMatC= 3.47D-06 BMatP= 4.44D-06
 IDIUse=1 WtCom= 1.00D+00 WtEn= 0.00D+00
 Coeff-Com:  0.141D+00-0.127D-01-0.485D+00-0.894D+00-0.307D+01 0.884D+00
 Coeff-Com:  0.227D+01 0.107D+01 0.109D+01
 Coeff:      0.141D+00-0.127D-01-0.485D+00-0.894D+00-0.307D+01 0.884D+00
 Coeff:      0.227D+01 0.107D+01 0.109D+01
 Gap=     0.341 Goal=   None    Shift=    0.000
 Gap=     0.094 Goal=   None    Shift=    0.000
 RMSDP=8.34D-05 MaxDP=4.24D-03 DE= 4.18D-05 OVMax= 4.86D-02

 Cycle  17  Pass 1  IDiag  1:
 RMSU=  5.11D-05    CP:  1.00D+00  2.57D+00  8.68D-01  7.56D-01  1.25D+00
                    CP:  1.75D+00  1.79D+00 -4.84D-01 -3.00D+00 -3.00D+00
                    CP: -3.00D+00 -3.00D+00 -3.00D+00  3.00D+00  3.00D+00
                    CP:  3.00D+00
 E= -1785.62487636117     Delta-E=        0.000032840429 Rises=F Damp=F
 DIIS: error= 2.32D-05 at cycle  17 NSaved=  10.
 NSaved=10 IEnMin= 6 EnMin= -1785.62503022109     IErMin=10 ErrMin= 2.32D-05
 ErrMax= 2.32D-05  0.00D+00 EMaxC= 1.00D-01 BMatC= 5.42D-07 BMatP= 3.47D-06
 IDIUse=1 WtCom= 1.00D+00 WtEn= 0.00D+00
 Coeff-Com:  0.554D-01-0.175D-01-0.687D-02-0.158D+00-0.222D+01 0.212D+01
 Coeff-Com: -0.107D+00 0.369D-01 0.246D+00 0.105D+01
 Coeff:      0.554D-01-0.175D-01-0.687D-02-0.158D+00-0.222D+01 0.212D+01
 Coeff:     -0.107D+00 0.369D-01 0.246D+00 0.105D+01
 Gap=     0.338 Goal=   None    Shift=    0.000
 Gap=     0.094 Goal=   None    Shift=    0.000
 RMSDP=3.14D-05 MaxDP=1.64D-03 DE= 3.28D-05 OVMax= 1.84D-02

 Cycle  18  Pass 1  IDiag  1:
 RMSU=  1.68D-05    CP:  1.00D+00  2.57D+00  8.68D-01  7.54D-01  1.24D+00
                    CP:  1.68D+00  1.59D+00 -9.87D-01 -3.00D+00 -3.00D+00
                    CP: -3.00D+00 -3.00D+00 -3.00D+00  3.00D+00  3.00D+00
                    CP:  3.00D+00  1.45D+00
 E= -1785.62487416790     Delta-E=        0.000002193277 Rises=F Damp=F
 DIIS: error= 8.24D-06 at cycle  18 NSaved=  11.
 NSaved=11 IEnMin= 6 EnMin= -1785.62503022109     IErMin=11 ErrMin= 8.24D-06
 ErrMax= 8.24D-06  0.00D+00 EMaxC= 1.00D-01 BMatC= 1.99D-07 BMatP= 5.42D-07
 IDIUse=1 WtCom= 1.00D+00 WtEn= 0.00D+00
 Coeff-Com: -0.942D-02 0.780D-02 0.130D+00 0.172D+00-0.119D+00 0.551D+00
 Coeff-Com: -0.456D+00-0.234D+00-0.241D+00 0.331D+00 0.868D+00
 Coeff:     -0.942D-02 0.780D-02 0.130D+00 0.172D+00-0.119D+00 0.551D+00
 Coeff:     -0.456D+00-0.234D+00-0.241D+00 0.331D+00 0.868D+00
 Gap=     0.338 Goal=   None    Shift=    0.000
 Gap=     0.093 Goal=   None    Shift=    0.000
 RMSDP=1.11D-05 MaxDP=5.63D-04 DE= 2.19D-06 OVMax= 6.49D-03

 Cycle  19  Pass 1  IDiag  1:
 RMSU=  1.88D-06    CP:  1.00D+00  2.57D+00  8.68D-01  7.54D-01  1.24D+00
                    CP:  1.69D+00  1.62D+00 -8.29D-01 -3.00D+00 -3.00D+00
                    CP: -3.00D+00 -3.00D+00 -3.00D+00  3.00D+00  3.00D+00
                    CP:  3.00D+00  1.29D+00  6.24D-01
 E= -1785.62487461480     Delta-E=       -0.000000446906 Rises=F Damp=F
 DIIS: error= 5.44D-06 at cycle  19 NSaved=  12.
 NSaved=12 IEnMin= 6 EnMin= -1785.62503022109     IErMin=12 ErrMin= 5.44D-06
 ErrMax= 5.44D-06  0.00D+00 EMaxC= 1.00D-01 BMatC= 1.32D-07 BMatP= 1.99D-07
 IDIUse=1 WtCom= 1.00D+00 WtEn= 0.00D+00
 Coeff-Com: -0.954D-02 0.889D-02 0.349D-01 0.266D-01-0.650D-01 0.256D+00
 Coeff-Com: -0.250D+00 0.424D-03-0.375D-01-0.529D-01 0.420D+00 0.668D+00
 Coeff:     -0.954D-02 0.889D-02 0.349D-01 0.266D-01-0.650D-01 0.256D+00
 Coeff:     -0.250D+00 0.424D-03-0.375D-01-0.529D-01 0.420D+00 0.668D+00
 Gap=     0.338 Goal=   None    Shift=    0.000
 Gap=     0.094 Goal=   None    Shift=    0.000
 RMSDP=6.07D-06 MaxDP=3.08D-04 DE=-4.47D-07 OVMax= 3.55D-03

 Cycle  20  Pass 1  IDiag  1:
 RMSU=  4.90D-07    CP:  1.00D+00  2.57D+00  8.68D-01  7.54D-01  1.24D+00
                    CP:  1.68D+00  1.60D+00 -9.21D-01 -3.00D+00 -3.00D+00
                    CP: -3.00D+00 -3.00D+00 -3.00D+00  3.00D+00  3.00D+00
                    CP:  3.00D+00  1.38D+00  8.24D-01  9.48D-01
 E= -1785.62487445012     Delta-E=        0.000000164685 Rises=F Damp=F
 DIIS: error= 3.45D-06 at cycle  20 NSaved=  13.
 NSaved=13 IEnMin= 6 EnMin= -1785.62503022109     IErMin=13 ErrMin= 3.45D-06
 ErrMax= 3.45D-06  0.00D+00 EMaxC= 1.00D-01 BMatC= 3.07D-08 BMatP= 1.32D-07
 IDIUse=1 WtCom= 1.00D+00 WtEn= 0.00D+00
 Coeff-Com: -0.980D-02 0.273D-02-0.131D-01-0.892D-02 0.376D+00-0.363D+00
 Coeff-Com: -0.103D-01 0.412D-01-0.576D-02-0.210D+00 0.367D-01 0.331D+00
 Coeff-Com:  0.833D+00
 Coeff:     -0.980D-02 0.273D-02-0.131D-01-0.892D-02 0.376D+00-0.363D+00
 Coeff:     -0.103D-01 0.412D-01-0.576D-02-0.210D+00 0.367D-01 0.331D+00
 Coeff:      0.833D+00
 Gap=     0.337 Goal=   None    Shift=    0.000
 Gap=     0.094 Goal=   None    Shift=    0.000
 RMSDP=4.47D-06 MaxDP=2.30D-04 DE= 1.65D-07 OVMax= 2.61D-03

 Cycle  21  Pass 1  IDiag  1:
 Restarting incremental Fock formation.
 E= -1785.62487445080     Delta-E=       -0.000000000685 Rises=F Damp=F
 DIIS: error= 1.71D-06 at cycle  21 NSaved=  14.
 NSaved=14 IEnMin= 6 EnMin= -1785.62503022109     IErMin=14 ErrMin= 1.71D-06
 ErrMax= 1.71D-06  0.00D+00 EMaxC= 1.00D-01 BMatC= 7.48D-09 BMatP= 3.07D-08
 IDIUse=1 WtCom= 1.00D+00 WtEn= 0.00D+00
 Coeff-Com:  0.724D-02-0.650D-02-0.203D-01-0.144D-01 0.837D-01-0.152D+00
 Coeff-Com:  0.115D+00 0.482D-02 0.101D-01-0.208D-01-0.102D+00-0.111D+00
 Coeff-Com: -0.148D+00 0.135D+01
 Coeff:      0.724D-02-0.650D-02-0.203D-01-0.144D-01 0.837D-01-0.152D+00
 Coeff:      0.115D+00 0.482D-02 0.101D-01-0.208D-01-0.102D+00-0.111D+00
 Coeff:     -0.148D+00 0.135D+01
 Gap=     0.337 Goal=   None    Shift=    0.000
 Gap=     0.094 Goal=   None    Shift=    0.000
 RMSDP=1.34D-06 MaxDP=6.07D-05 DE=-6.85D-10 OVMax= 7.19D-04

 Cycle  22  Pass 1  IDiag  1:
 RMSU=  1.34D-06    CP:  1.00D+00
 E= -1785.62487446374     Delta-E=       -0.000000012944 Rises=F Damp=F
 DIIS: error= 9.93D-07 at cycle  22 NSaved=  15.
 NSaved=15 IEnMin= 6 EnMin= -1785.62503022109     IErMin=15 ErrMin= 9.93D-07
 ErrMax= 9.93D-07  0.00D+00 EMaxC= 1.00D-01 BMatC= 2.63D-09 BMatP= 7.48D-09
 IDIUse=1 WtCom= 1.00D+00 WtEn= 0.00D+00
 Coeff-Com:  0.611D-02-0.387D-02-0.634D-02-0.116D-01-0.103D+00 0.665D-01
 Coeff-Com:  0.514D-01-0.223D-02 0.188D-01 0.515D-01-0.719D-01-0.171D+00
 Coeff-Com: -0.246D+00 0.600D+00 0.822D+00
 Coeff:      0.611D-02-0.387D-02-0.634D-02-0.116D-01-0.103D+00 0.665D-01
 Coeff:      0.514D-01-0.223D-02 0.188D-01 0.515D-01-0.719D-01-0.171D+00
 Coeff:     -0.246D+00 0.600D+00 0.822D+00
 Gap=     0.337 Goal=   None    Shift=    0.000
 Gap=     0.094 Goal=   None    Shift=    0.000
 RMSDP=2.19D-07 MaxDP=1.71D-05 DE=-1.29D-08 OVMax= 6.80D-05

 Cycle  23  Pass 1  IDiag  1:
 RMSU=  2.17D-07    CP:  1.00D+00  1.03D+00
 E= -1785.62487446676     Delta-E=       -0.000000003016 Rises=F Damp=F
 DIIS: error= 5.38D-07 at cycle  23 NSaved=  16.
 NSaved=16 IEnMin= 6 EnMin= -1785.62503022109     IErMin=16 ErrMin= 5.38D-07
 ErrMax= 5.38D-07  0.00D+00 EMaxC= 1.00D-01 BMatC= 6.29D-10 BMatP= 2.63D-09
 IDIUse=1 WtCom= 1.00D+00 WtEn= 0.00D+00
 Coeff-Com: -0.261D-02 0.167D-02 0.105D-01 0.617D-02-0.450D-01 0.705D-01
 Coeff-Com: -0.438D-01-0.514D-02-0.121D-02 0.216D-01 0.191D-01-0.302D-01
 Coeff-Com:  0.432D-01-0.301D+00 0.867D-01 0.117D+01
 Coeff:     -0.261D-02 0.167D-02 0.105D-01 0.617D-02-0.450D-01 0.705D-01
 Coeff:     -0.438D-01-0.514D-02-0.121D-02 0.216D-01 0.191D-01-0.302D-01
 Coeff:      0.432D-01-0.301D+00 0.867D-01 0.117D+01
 Gap=     0.337 Goal=   None    Shift=    0.000
 Gap=     0.094 Goal=   None    Shift=    0.000
 RMSDP=3.04D-07 MaxDP=1.55D-05 DE=-3.02D-09 OVMax= 1.62D-04

 Cycle  24  Pass 1  IDiag  1:
 RMSU=  5.77D-08    CP:  1.00D+00  8.58D-01  1.91D+00
 E= -1785.62487446749     Delta-E=       -0.000000000729 Rises=F Damp=F
 DIIS: error= 2.11D-07 at cycle  24 NSaved=  17.
 NSaved=17 IEnMin= 6 EnMin= -1785.62503022109     IErMin=17 ErrMin= 2.11D-07
 ErrMax= 2.11D-07  0.00D+00 EMaxC= 1.00D-01 BMatC= 7.96D-11 BMatP= 6.29D-10
 IDIUse=1 WtCom= 1.00D+00 WtEn= 0.00D+00
 Coeff-Com: -0.516D-03 0.603D-03 0.165D-02 0.533D-03 0.103D-02 0.865D-02
 Coeff-Com: -0.127D-01-0.319D-04-0.216D-02-0.298D-02 0.107D-01 0.181D-01
 Coeff-Com:  0.333D-01-0.114D+00-0.919D-01 0.177D+00 0.973D+00
 Coeff:     -0.516D-03 0.603D-03 0.165D-02 0.533D-03 0.103D-02 0.865D-02
 Coeff:     -0.127D-01-0.319D-04-0.216D-02-0.298D-02 0.107D-01 0.181D-01
 Coeff:      0.333D-01-0.114D+00-0.919D-01 0.177D+00 0.973D+00
 Gap=     0.337 Goal=   None    Shift=    0.000
 Gap=     0.094 Goal=   None    Shift=    0.000
 RMSDP=3.40D-08 MaxDP=3.08D-06 DE=-7.29D-10 OVMax= 8.56D-06

 Cycle  25  Pass 1  IDiag  1:
 RMSU=  2.77D-08    CP:  1.00D+00  8.58D-01  1.99D+00  1.13D+00
 E= -1785.62487446766     Delta-E=       -0.000000000171 Rises=F Damp=F
 DIIS: error= 1.25D-07 at cycle  25 NSaved=  18.
 NSaved=18 IEnMin= 6 EnMin= -1785.62503022109     IErMin=18 ErrMin= 1.25D-07
 ErrMax= 1.25D-07  0.00D+00 EMaxC= 1.00D-01 BMatC= 3.05D-11 BMatP= 7.96D-11
 IDIUse=1 WtCom= 1.00D+00 WtEn= 0.00D+00
 Coeff-Com:  0.498D-03-0.337D-03-0.268D-02-0.211D-02 0.137D-01-0.175D-01
 Coeff-Com:  0.831D-02 0.231D-02 0.659D-04-0.845D-02-0.182D-02 0.186D-01
 Coeff-Com:  0.374D-02 0.310D-01-0.592D-01-0.241D+00 0.388D+00 0.867D+00
 Coeff:      0.498D-03-0.337D-03-0.268D-02-0.211D-02 0.137D-01-0.175D-01
 Coeff:      0.831D-02 0.231D-02 0.659D-04-0.845D-02-0.182D-02 0.186D-01
 Coeff:      0.374D-02 0.310D-01-0.592D-01-0.241D+00 0.388D+00 0.867D+00
 Gap=     0.337 Goal=   None    Shift=    0.000
 Gap=     0.094 Goal=   None    Shift=    0.000
 RMSDP=1.05D-07 MaxDP=5.21D-06 DE=-1.71D-10 OVMax= 6.10D-05

 Cycle  26  Pass 1  IDiag  1:
 RMSU=  3.03D-08    CP:  1.00D+00  9.31D-01  1.87D+00  1.12D+00  1.09D+00
 E= -1785.62487446765     Delta-E=        0.000000000012 Rises=F Damp=F
 DIIS: error= 8.55D-08 at cycle  26 NSaved=  19.
 NSaved=19 IEnMin= 6 EnMin= -1785.62503022109     IErMin=19 ErrMin= 8.55D-08
 ErrMax= 8.55D-08  0.00D+00 EMaxC= 1.00D-01 BMatC= 7.99D-12 BMatP= 3.05D-11
 IDIUse=1 WtCom= 1.00D+00 WtEn= 0.00D+00
 Coeff-Com:  0.186D-03-0.340D-03-0.241D-03 0.351D-03 0.377D-02-0.756D-02
 Coeff-Com:  0.488D-02-0.716D-03-0.815D-04 0.109D-02-0.318D-02-0.597D-02
 Coeff-Com: -0.128D-01 0.483D-01 0.276D-01-0.101D+00-0.322D+00 0.150D+00
 Coeff-Com:  0.122D+01
 Coeff:      0.186D-03-0.340D-03-0.241D-03 0.351D-03 0.377D-02-0.756D-02
 Coeff:      0.488D-02-0.716D-03-0.815D-04 0.109D-02-0.318D-02-0.597D-02
 Coeff:     -0.128D-01 0.483D-01 0.276D-01-0.101D+00-0.322D+00 0.150D+00
 Coeff:      0.122D+01
 Gap=     0.337 Goal=   None    Shift=    0.000
 Gap=     0.094 Goal=   None    Shift=    0.000
 RMSDP=7.58D-08 MaxDP=3.82D-06 DE= 1.18D-11 OVMax= 4.39D-05

 Cycle  27  Pass 1  IDiag  1:
 RMSU=  1.00D-08    CP:  1.00D+00  8.80D-01  1.99D+00  1.29D+00  1.67D+00
                    CP:  7.61D-01
 E= -1785.62487446773     Delta-E=       -0.000000000086 Rises=F Damp=F
 DIIS: error= 3.57D-08 at cycle  27 NSaved=  20.
 NSaved=20 IEnMin= 6 EnMin= -1785.62503022109     IErMin=20 ErrMin= 3.57D-08
 ErrMax= 3.57D-08  0.00D+00 EMaxC= 1.00D-01 BMatC= 2.07D-12 BMatP= 7.99D-12
 IDIUse=1 WtCom= 1.00D+00 WtEn= 0.00D+00
 Coeff-Com: -0.163D-03 0.145D-03 0.649D-03 0.340D-03-0.415D-02 0.727D-02
 Coeff-Com: -0.415D-02-0.350D-03-0.376D-04 0.186D-02 0.768D-03-0.310D-02
 Coeff-Com:  0.375D-02-0.204D-01 0.106D-01 0.786D-01-0.571D-01-0.250D+00
 Coeff-Com: -0.933D-01 0.133D+01
 Coeff:     -0.163D-03 0.145D-03 0.649D-03 0.340D-03-0.415D-02 0.727D-02
 Coeff:     -0.415D-02-0.350D-03-0.376D-04 0.186D-02 0.768D-03-0.310D-02
 Coeff:      0.375D-02-0.204D-01 0.106D-01 0.786D-01-0.571D-01-0.250D+00
 Coeff:     -0.933D-01 0.133D+01
 Gap=     0.337 Goal=   None    Shift=    0.000
 Gap=     0.094 Goal=   None    Shift=    0.000
 RMSDP=6.81D-08 MaxDP=3.42D-06 DE=-8.64D-11 OVMax= 3.98D-05

 Cycle  28  Pass 1  IDiag  1:
 RMSU=  4.10D-09    CP:  1.00D+00  9.27D-01  1.89D+00  1.25D+00  1.64D+00
                    CP:  1.33D+00  1.08D+00
 E= -1785.62487446764     Delta-E=        0.000000000096 Rises=F Damp=F
 DIIS: error= 1.97D-08 at cycle  28 NSaved=  20.
 NSaved=20 IEnMin= 5 EnMin= -1785.62503022109     IErMin=20 ErrMin= 1.97D-08
 ErrMax= 1.97D-08  0.00D+00 EMaxC= 1.00D-01 BMatC= 1.39D-12 BMatP= 2.07D-12
 IDIUse=1 WtCom= 1.00D+00 WtEn= 0.00D+00
 Coeff-Com:  0.449D-04 0.132D-03-0.130D-03-0.242D-02 0.358D-02-0.152D-02
 Coeff-Com: -0.246D-07 0.194D-03 0.924D-03 0.195D-03-0.202D-02 0.158D-02
 Coeff-Com: -0.703D-02 0.176D-02 0.313D-01 0.180D-01-0.122D+00-0.209D+00
 Coeff-Com:  0.636D+00 0.650D+00
 Coeff:      0.449D-04 0.132D-03-0.130D-03-0.242D-02 0.358D-02-0.152D-02
 Coeff:     -0.246D-07 0.194D-03 0.924D-03 0.195D-03-0.202D-02 0.158D-02
 Coeff:     -0.703D-02 0.176D-02 0.313D-01 0.180D-01-0.122D+00-0.209D+00
 Coeff:      0.636D+00 0.650D+00
 Gap=     0.337 Goal=   None    Shift=    0.000
 Gap=     0.094 Goal=   None    Shift=    0.000
 RMSDP=3.06D-08 MaxDP=1.56D-06 DE= 9.64D-11 OVMax= 1.80D-05

 Cycle  29  Pass 1  IDiag  1:
 RMSU=  1.21D-09    CP:  1.00D+00  9.06D-01  1.94D+00  1.29D+00  1.75D+00
                    CP:  1.17D+00  1.32D+00  9.51D-01
 E= -1785.62487446755     Delta-E=        0.000000000090 Rises=F Damp=F
 DIIS: error= 7.07D-09 at cycle  29 NSaved=  20.
 NSaved=20 IEnMin= 5 EnMin= -1785.62503022109     IErMin=20 ErrMin= 7.07D-09
 ErrMax= 7.07D-09  0.00D+00 EMaxC= 1.00D-01 BMatC= 1.13D-13 BMatP= 1.39D-12
 IDIUse=1 WtCom= 1.00D+00 WtEn= 0.00D+00
 Coeff-Com: -0.263D-04-0.127D-04 0.351D-04 0.871D-03-0.119D-02 0.397D-03
 Coeff-Com: -0.225D-04-0.482D-04-0.214D-03-0.159D-03-0.197D-03 0.251D-02
 Coeff-Com: -0.199D-02-0.710D-02 0.180D-01 0.290D-01-0.611D-01-0.170D+00
 Coeff-Com:  0.184D+00 0.101D+01
 Coeff:     -0.263D-04-0.127D-04 0.351D-04 0.871D-03-0.119D-02 0.397D-03
 Coeff:     -0.225D-04-0.482D-04-0.214D-03-0.159D-03-0.197D-03 0.251D-02
 Coeff:     -0.199D-02-0.710D-02 0.180D-01 0.290D-01-0.611D-01-0.170D+00
 Coeff:      0.184D+00 0.101D+01
 Gap=     0.337 Goal=   None    Shift=    0.000
 Gap=     0.094 Goal=   None    Shift=    0.000
 RMSDP=6.26D-09 MaxDP=3.25D-07 DE= 9.00D-11 OVMax= 3.56D-06

 Error on total polarization charges =  0.00266
 SCF Done:  E(UCAM-B3LYP) =  -1785.62487447     A.U. after   29 cycles
            NFock= 29  Conv=0.63D-08     -V/T= 2.0078
 <Sx>= 0.0000 <Sy>= 0.0000 <Sz>= 0.5000 <S**2>= 0.7852 S= 0.5174
 <L.S>= 0.000000000000E+00
 KE= 1.771816559570D+03 PE=-1.040567666517D+04 EE= 3.736211986998D+03
 Annihilation of the first spin contaminant:
 S**2 before annihilation     0.7852,   after     0.7506
 Leave Link  502 at Sun Mar  3 17:59:43 2024, MaxMem=  5368709120 cpu:      1678.2
 (Enter /home/k0335/k033513/app/g09/l601.exe)
 Copying SCF densities to generalized density rwf, IOpCl= 1 IROHF=0.

 **********************************************************************

            Population analysis using the SCF density.

 **********************************************************************

 Alpha  occ. eigenvalues --  -24.85831 -24.85818 -24.85383 -24.85321 -24.85193
 Alpha  occ. eigenvalues --  -24.85073 -24.84877 -24.84853 -24.84243 -19.35232
 Alpha  occ. eigenvalues --  -19.31130 -19.30651 -19.29990 -14.61146 -14.60833
 Alpha  occ. eigenvalues --  -14.57681 -10.61342 -10.57199 -10.56573 -10.52355
 Alpha  occ. eigenvalues --  -10.52080 -10.51895 -10.51680 -10.41240 -10.40637
 Alpha  occ. eigenvalues --  -10.36849 -10.36195  -1.45013  -1.43497  -1.42030
 Alpha  occ. eigenvalues --   -1.37753  -1.35637  -1.34936  -1.34616  -1.34160
 Alpha  occ. eigenvalues --   -1.33609  -1.29190  -1.24179  -1.23518  -1.22543
 Alpha  occ. eigenvalues --   -1.15771  -1.14930  -1.13532  -0.97263  -0.95186
 Alpha  occ. eigenvalues --   -0.94779  -0.89293  -0.87091  -0.84423  -0.84285
 Alpha  occ. eigenvalues --   -0.81578  -0.80807  -0.77795  -0.75991  -0.74297
 Alpha  occ. eigenvalues --   -0.74089  -0.72978  -0.71746  -0.71297  -0.70140
 Alpha  occ. eigenvalues --   -0.69504  -0.68780  -0.68161  -0.66690  -0.66364
 Alpha  occ. eigenvalues --   -0.65620  -0.62578  -0.61722  -0.61497  -0.60682
 Alpha  occ. eigenvalues --   -0.60099  -0.59749  -0.59522  -0.58730  -0.58445
 Alpha  occ. eigenvalues --   -0.58316  -0.57880  -0.57720  -0.57327  -0.56698
 Alpha  occ. eigenvalues --   -0.55991  -0.55599  -0.55137  -0.54492  -0.53830
 Alpha  occ. eigenvalues --   -0.53237  -0.52949  -0.52597  -0.52377  -0.52002
 Alpha  occ. eigenvalues --   -0.51579  -0.51288  -0.50535  -0.50101  -0.49522
 Alpha  occ. eigenvalues --   -0.48548  -0.46474  -0.45503  -0.44556  -0.43014
 Alpha  occ. eigenvalues --   -0.42212  -0.41131  -0.40370
 Alpha virt. eigenvalues --   -0.06632  -0.06117  -0.03995   0.00742   0.02491
 Alpha virt. eigenvalues --    0.05983   0.06764   0.08894   0.09730   0.11863
 Alpha virt. eigenvalues --    0.12379   0.14893   0.15144   0.15619   0.16008
 Alpha virt. eigenvalues --    0.16616   0.17143   0.17915   0.19211   0.19439
 Alpha virt. eigenvalues --    0.20340   0.21367   0.22613   0.23146   0.23483
 Alpha virt. eigenvalues --    0.24436   0.25030   0.27443   0.28295   0.29199
 Alpha virt. eigenvalues --    0.30214   0.31770   0.32937   0.33804   0.34965
 Alpha virt. eigenvalues --    0.35634   0.37039   0.40946   0.42978   0.44889
 Alpha virt. eigenvalues --    0.46390   0.46899   0.47317   0.48353   0.48766
 Alpha virt. eigenvalues --    0.49368   0.51759   0.51965   0.52976   0.53517
 Alpha virt. eigenvalues --    0.53777   0.54532   0.55182   0.56641   0.57456
 Alpha virt. eigenvalues --    0.57875   0.59019   0.59533   0.60103   0.60989
 Alpha virt. eigenvalues --    0.62142   0.63648   0.65321   0.66236   0.66552
 Alpha virt. eigenvalues --    0.67231   0.71458   0.73393   0.75655   0.76748
 Alpha virt. eigenvalues --    0.77932   0.78492   0.79160   0.80373   0.81227
 Alpha virt. eigenvalues --    0.82504   0.83122   0.83486   0.83981   0.85660
 Alpha virt. eigenvalues --    0.87462   0.88883   0.89252   0.91050   0.92194
 Alpha virt. eigenvalues --    0.93161   0.94497   0.95196   0.97289   0.98040
 Alpha virt. eigenvalues --    0.99879   1.00966   1.02022   1.02494   1.03702
 Alpha virt. eigenvalues --    1.05502   1.05891   1.06928   1.08836   1.09126
 Alpha virt. eigenvalues --    1.10138   1.10788   1.11424   1.12558   1.13964
 Alpha virt. eigenvalues --    1.15101   1.15869   1.16496   1.18346   1.19049
 Alpha virt. eigenvalues --    1.19741   1.20652   1.21872   1.23300   1.24130
 Alpha virt. eigenvalues --    1.25372   1.26113   1.27132   1.27595   1.28980
 Alpha virt. eigenvalues --    1.30600   1.31330   1.32649   1.33601   1.33951
 Alpha virt. eigenvalues --    1.34678   1.35641   1.35891   1.36680   1.37359
 Alpha virt. eigenvalues --    1.37915   1.38615   1.38816   1.39483   1.39986
 Alpha virt. eigenvalues --    1.41107   1.41865   1.42511   1.44400   1.44587
 Alpha virt. eigenvalues --    1.45519   1.45947   1.47924   1.48478   1.49559
 Alpha virt. eigenvalues --    1.50592   1.51938   1.52450   1.53494   1.54269
 Alpha virt. eigenvalues --    1.57104   1.58250   1.59149   1.59961   1.61630
 Alpha virt. eigenvalues --    1.63283   1.64361   1.67277   1.69759   1.70166
 Alpha virt. eigenvalues --    1.71407   1.72333   1.72494   1.73102   1.73965
 Alpha virt. eigenvalues --    1.75139   1.75670   1.76975   1.77439   1.78190
 Alpha virt. eigenvalues --    1.79437   1.80285   1.80987   1.81692   1.82346
 Alpha virt. eigenvalues --    1.82888   1.83879   1.84042   1.84322   1.85169
 Alpha virt. eigenvalues --    1.86293   1.86865   1.87331   1.88474   1.89082
 Alpha virt. eigenvalues --    1.90001   1.90400   1.91154   1.92151   1.92485
 Alpha virt. eigenvalues --    1.92741   1.94003   1.94855   1.95229   1.97177
 Alpha virt. eigenvalues --    1.97363   1.98038   1.98431   1.99667   1.99889
 Alpha virt. eigenvalues --    2.00660   2.01498   2.01901   2.02104   2.03530
 Alpha virt. eigenvalues --    2.03754   2.03992   2.04397   2.05516   2.05798
 Alpha virt. eigenvalues --    2.07261   2.07716   2.08332   2.09305   2.10341
 Alpha virt. eigenvalues --    2.10832   2.11715   2.13121   2.14154   2.15494
 Alpha virt. eigenvalues --    2.16852   2.18011   2.19243   2.20807   2.22759
 Alpha virt. eigenvalues --    2.23251   2.23372   2.25244   2.25700   2.27845
 Alpha virt. eigenvalues --    2.27904   2.29159   2.31124   2.32627   2.32882
 Alpha virt. eigenvalues --    2.34306   2.37036   2.38668   2.39671   2.40678
 Alpha virt. eigenvalues --    2.41424   2.42131   2.43031   2.44835   2.45904
 Alpha virt. eigenvalues --    2.46446   2.48156   2.48878   2.50946   2.52471
 Alpha virt. eigenvalues --    2.54983   2.55432   2.55925   2.57055   2.58627
 Alpha virt. eigenvalues --    2.60887   2.61883   2.63237   2.64517   2.65129
 Alpha virt. eigenvalues --    2.66731   2.68056   2.68966   2.69843   2.72027
 Alpha virt. eigenvalues --    2.72463   2.74469   2.77204   2.77938   2.80031
 Alpha virt. eigenvalues --    2.80409   2.83479   2.85034   2.86555   2.87989
 Alpha virt. eigenvalues --    2.89741   2.90501   2.91099   2.92401   2.94156
 Alpha virt. eigenvalues --    2.95812   2.97134   2.98532   3.00900   3.02130
 Alpha virt. eigenvalues --    3.05371   3.06217   3.06801   3.09557   3.11942
 Alpha virt. eigenvalues --    3.12820   3.15213   3.18687   3.19056   3.25468
 Alpha virt. eigenvalues --    3.26594   3.27666   3.30952   3.33401   3.34864
 Alpha virt. eigenvalues --    3.40912   3.47511   3.48253   3.69237   3.71050
 Alpha virt. eigenvalues --    4.08061   4.09743   4.13530   4.14755   4.17592
 Alpha virt. eigenvalues --    4.19942   4.25700   4.26578   4.29448   4.34354
 Alpha virt. eigenvalues --    4.38306   4.44518   4.45556   4.48570   4.63021
 Alpha virt. eigenvalues --    4.64263   4.66974   4.73124   4.78781   4.99530
 Alpha virt. eigenvalues --    5.05612   5.26949   5.40316   5.53430   5.71777
 Alpha virt. eigenvalues --    6.32457   6.65069
  Beta  occ. eigenvalues --  -24.85831 -24.85818 -24.85381 -24.85321 -24.85193
  Beta  occ. eigenvalues --  -24.85073 -24.84877 -24.84853 -24.84243 -19.35230
  Beta  occ. eigenvalues --  -19.30973 -19.30498 -19.30115 -14.60731 -14.60439
  Beta  occ. eigenvalues --  -14.57700 -10.61342 -10.57200 -10.56573 -10.52409
  Beta  occ. eigenvalues --  -10.52132 -10.51968 -10.51681 -10.41213 -10.40624
  Beta  occ. eigenvalues --  -10.36343 -10.35722  -1.45013  -1.43497  -1.42031
  Beta  occ. eigenvalues --   -1.37750  -1.35637  -1.34936  -1.34616  -1.34160
  Beta  occ. eigenvalues --   -1.33609  -1.28919  -1.23883  -1.23468  -1.22530
  Beta  occ. eigenvalues --   -1.15510  -1.14223  -1.13376  -0.96649  -0.94917
  Beta  occ. eigenvalues --   -0.93636  -0.89211  -0.86635  -0.84397  -0.83828
  Beta  occ. eigenvalues --   -0.81258  -0.80705  -0.77732  -0.75975  -0.74080
  Beta  occ. eigenvalues --   -0.73812  -0.72957  -0.71693  -0.71284  -0.70122
  Beta  occ. eigenvalues --   -0.69390  -0.68750  -0.67453  -0.66516  -0.66150
  Beta  occ. eigenvalues --   -0.65377  -0.62404  -0.61626  -0.60778  -0.60347
  Beta  occ. eigenvalues --   -0.59715  -0.59482  -0.59283  -0.58701  -0.58335
  Beta  occ. eigenvalues --   -0.58057  -0.57712  -0.57676  -0.57300  -0.56655
  Beta  occ. eigenvalues --   -0.55959  -0.55587  -0.55097  -0.54378  -0.53670
  Beta  occ. eigenvalues --   -0.53058  -0.52918  -0.52464  -0.52315  -0.51886
  Beta  occ. eigenvalues --   -0.51525  -0.51039  -0.50523  -0.50019  -0.48318
  Beta  occ. eigenvalues --   -0.47718  -0.46044  -0.45222  -0.44521  -0.42387
  Beta  occ. eigenvalues --   -0.42069  -0.34715
  Beta virt. eigenvalues --   -0.25346  -0.06078  -0.05399  -0.02309   0.02444
  Beta virt. eigenvalues --    0.03139   0.06155   0.07779   0.09161   0.09808
  Beta virt. eigenvalues --    0.12026   0.12548   0.14952   0.15367   0.15953
  Beta virt. eigenvalues --    0.16105   0.16885   0.17228   0.18031   0.19351
  Beta virt. eigenvalues --    0.19565   0.20376   0.21374   0.22639   0.23159
  Beta virt. eigenvalues --    0.23520   0.24465   0.25062   0.27457   0.28412
  Beta virt. eigenvalues --    0.29247   0.30402   0.31829   0.33056   0.33966
  Beta virt. eigenvalues --    0.35182   0.35695   0.37186   0.40996   0.43068
  Beta virt. eigenvalues --    0.44952   0.46575   0.46938   0.47517   0.48401
  Beta virt. eigenvalues --    0.49000   0.49828   0.51895   0.52004   0.53306
  Beta virt. eigenvalues --    0.53781   0.54576   0.54711   0.55659   0.56677
  Beta virt. eigenvalues --    0.57728   0.58255   0.59202   0.59716   0.60249
  Beta virt. eigenvalues --    0.62054   0.62409   0.63804   0.65855   0.66722
  Beta virt. eigenvalues --    0.67092   0.67596   0.71588   0.73475   0.75652
  Beta virt. eigenvalues --    0.76856   0.78146   0.78598   0.79456   0.80681
  Beta virt. eigenvalues --    0.81690   0.82722   0.83220   0.83630   0.84170
  Beta virt. eigenvalues --    0.85881   0.87903   0.89064   0.89345   0.91195
  Beta virt. eigenvalues --    0.92512   0.93272   0.94638   0.95296   0.97421
  Beta virt. eigenvalues --    0.98320   1.00015   1.00955   1.02105   1.02581
  Beta virt. eigenvalues --    1.03820   1.05539   1.05968   1.07134   1.08948
  Beta virt. eigenvalues --    1.09280   1.10384   1.10958   1.11686   1.12591
  Beta virt. eigenvalues --    1.14002   1.15197   1.16005   1.16641   1.18479
  Beta virt. eigenvalues --    1.19100   1.19881   1.20959   1.21992   1.23420
  Beta virt. eigenvalues --    1.24417   1.25446   1.26211   1.27288   1.27816
  Beta virt. eigenvalues --    1.29030   1.30609   1.31344   1.32795   1.33701
  Beta virt. eigenvalues --    1.34075   1.35437   1.35740   1.36651   1.36871
  Beta virt. eigenvalues --    1.37558   1.38003   1.38728   1.38933   1.39538
  Beta virt. eigenvalues --    1.40201   1.41205   1.41915   1.42796   1.44531
  Beta virt. eigenvalues --    1.45259   1.45992   1.47131   1.48153   1.48597
  Beta virt. eigenvalues --    1.49635   1.50717   1.52121   1.52598   1.53581
  Beta virt. eigenvalues --    1.54309   1.57135   1.58606   1.59246   1.60059
  Beta virt. eigenvalues --    1.61692   1.63340   1.64374   1.67380   1.69848
  Beta virt. eigenvalues --    1.70199   1.71457   1.72350   1.72525   1.73141
  Beta virt. eigenvalues --    1.74028   1.75194   1.75774   1.77117   1.77515
  Beta virt. eigenvalues --    1.78328   1.79608   1.80411   1.81099   1.81829
  Beta virt. eigenvalues --    1.82457   1.82951   1.83949   1.84156   1.84467
  Beta virt. eigenvalues --    1.85277   1.86361   1.87011   1.87508   1.88542
  Beta virt. eigenvalues --    1.89122   1.90477   1.90499   1.91229   1.92182
  Beta virt. eigenvalues --    1.92767   1.93698   1.94104   1.94962   1.95362
  Beta virt. eigenvalues --    1.97332   1.97614   1.98422   1.98642   1.99696
  Beta virt. eigenvalues --    1.99912   2.00714   2.02093   2.02134   2.02503
  Beta virt. eigenvalues --    2.03616   2.03804   2.04076   2.04744   2.05771
  Beta virt. eigenvalues --    2.05807   2.07375   2.07719   2.08390   2.09432
  Beta virt. eigenvalues --    2.10394   2.10833   2.11767   2.13158   2.14165
  Beta virt. eigenvalues --    2.15533   2.16932   2.18332   2.19401   2.20953
  Beta virt. eigenvalues --    2.22879   2.23393   2.23657   2.25291   2.26039
  Beta virt. eigenvalues --    2.27941   2.27997   2.29218   2.31251   2.32730
  Beta virt. eigenvalues --    2.32941   2.34386   2.37167   2.38840   2.39790
  Beta virt. eigenvalues --    2.40856   2.41522   2.42255   2.43228   2.44993
  Beta virt. eigenvalues --    2.46310   2.46471   2.48415   2.48946   2.51180
  Beta virt. eigenvalues --    2.52728   2.55256   2.55653   2.56346   2.57226
  Beta virt. eigenvalues --    2.58862   2.61241   2.62271   2.63504   2.64648
  Beta virt. eigenvalues --    2.65731   2.66768   2.68498   2.69188   2.70086
  Beta virt. eigenvalues --    2.72242   2.72629   2.74601   2.77257   2.78109
  Beta virt. eigenvalues --    2.80132   2.80713   2.83505   2.85072   2.86564
  Beta virt. eigenvalues --    2.88002   2.89786   2.90504   2.91140   2.92505
  Beta virt. eigenvalues --    2.94128   2.95918   2.97149   2.98593   3.00943
  Beta virt. eigenvalues --    3.02182   3.05375   3.06237   3.06810   3.09646
  Beta virt. eigenvalues --    3.11965   3.12840   3.15232   3.18719   3.19103
  Beta virt. eigenvalues --    3.25612   3.26686   3.27758   3.30961   3.33456
  Beta virt. eigenvalues --    3.34883   3.41028   3.47742   3.48488   3.69470
  Beta virt. eigenvalues --    3.71266   4.08260   4.09881   4.13851   4.15025
  Beta virt. eigenvalues --    4.18281   4.20218   4.25815   4.26787   4.29638
  Beta virt. eigenvalues --    4.34728   4.38422   4.44608   4.45794   4.48697
  Beta virt. eigenvalues --    4.63305   4.64300   4.67013   4.73394   4.78805
  Beta virt. eigenvalues --    4.99532   5.05621   5.26959   5.40321   5.53434
  Beta virt. eigenvalues --    5.71783   6.32459   6.65070
          Condensed to atoms (all electrons):
               1          2          3          4          5          6
     1  C    4.932672   0.570786  -0.043667   0.002746   0.001331  -0.000148
     2  C    0.570786   4.657591   0.314616  -0.022510   0.002445   0.002468
     3  N   -0.043667   0.314616   7.256850   0.224845  -0.089651  -0.077771
     4  C    0.002746  -0.022510   0.224845   4.174241   0.582576   0.222083
     5  O    0.001331   0.002445  -0.089651   0.582576   8.033423  -0.090252
     6  N   -0.000148   0.002468  -0.077771   0.222083  -0.090252   7.258384
     7  C    0.000000   0.000032   0.002545  -0.022032   0.002634   0.317454
     8  C    0.000000   0.000000  -0.000144   0.002821   0.001327  -0.043525
     9  C   -0.000014   0.000082   0.000782  -0.021531   0.000252   0.202710
    10  O    0.000000   0.000003   0.000047   0.000012  -0.000019  -0.071190
    11  N    0.000137   0.002551  -0.093553   0.005112  -0.000003  -0.092721
    12  C    0.000011   0.000004   0.001633   0.000189   0.000000   0.001827
    13  F    0.000000   0.000000  -0.000022  -0.000001   0.000000  -0.000006
    14  F    0.000000   0.000006   0.000010  -0.000001   0.000000  -0.000025
    15  C   -0.000001   0.000000  -0.000182   0.000043   0.000000  -0.000237
    16  F    0.000001   0.000001  -0.000011   0.000008   0.000000   0.000001
    17  O    0.000000   0.000000   0.000002   0.000008   0.000000  -0.000055
    18  C    0.000000   0.000000   0.000000   0.000000   0.000000   0.000017
    19  F    0.000000   0.000000   0.000000   0.000000   0.000000   0.000000
    20  F    0.000000   0.000000   0.000000   0.000000   0.000000   0.000000
    21  F    0.000000   0.000000   0.000000   0.000000   0.000000  -0.000003
    22  C    0.000000   0.000000  -0.000001   0.000000   0.000000   0.000001
    23  F    0.000000   0.000000   0.000000   0.000000   0.000000   0.000000
    24  F    0.000000   0.000000   0.000000   0.000000   0.000000   0.000000
    25  F    0.000000   0.000000   0.000000   0.000000   0.000000   0.000000
    26  C   -0.000632  -0.025522   0.210405  -0.020289   0.000185  -0.000239
    27  O   -0.008843  -0.002541  -0.071181   0.000004  -0.000019   0.000068
    28  H    0.377669  -0.025218  -0.007531  -0.000101  -0.000007   0.000001
    29  H    0.379361  -0.024449   0.002697  -0.000016  -0.000005   0.000001
    30  H   -0.036735   0.391882  -0.039780  -0.001750   0.012461   0.000692
    31  H    0.000000   0.000008   0.000676  -0.001649   0.012794  -0.039242
    32  H    0.000000   0.000000   0.000001  -0.000016  -0.000005   0.002658
    33  H    0.000000   0.000000   0.000001  -0.000099  -0.000006  -0.007466
               7          8          9         10         11         12
     1  C    0.000000   0.000000  -0.000014   0.000000   0.000137   0.000011
     2  C    0.000032   0.000000   0.000082   0.000003   0.002551   0.000004
     3  N    0.002545  -0.000144   0.000782   0.000047  -0.093553   0.001633
     4  C   -0.022032   0.002821  -0.021531   0.000012   0.005112   0.000189
     5  O    0.002634   0.001327   0.000252  -0.000019  -0.000003   0.000000
     6  N    0.317454  -0.043525   0.202710  -0.071190  -0.092721   0.001827
     7  C    4.655172   0.562249  -0.024722  -0.002126   0.002683   0.000013
     8  C    0.562249   4.932874  -0.000357  -0.008259   0.000113   0.000009
     9  C   -0.024722  -0.000357   4.207011   0.553681   0.219576  -0.005285
    10  O   -0.002126  -0.008259   0.553681   8.054089  -0.094374   0.016940
    11  N    0.002683   0.000113   0.219576  -0.094374   7.545492   0.147361
    12  C    0.000013   0.000009  -0.005285   0.016940   0.147361   4.447747
    13  F    0.000007  -0.000002   0.007651  -0.008939  -0.040400   0.272631
    14  F    0.000000   0.000000   0.001337   0.000019  -0.038145   0.265370
    15  C    0.000000   0.000000  -0.003611  -0.004046  -0.064493   0.167166
    16  F    0.000000   0.000000  -0.000406   0.000002  -0.000535  -0.025928
    17  O   -0.000001   0.000001   0.005433  -0.008936   0.001298  -0.037907
    18  C    0.000000  -0.000003   0.000182   0.004826   0.000201  -0.004123
    19  F    0.000000  -0.000002   0.000174   0.000044   0.000001  -0.000051
    20  F    0.000000   0.000000   0.000008  -0.000005  -0.000001  -0.000028
    21  F    0.000000   0.000000  -0.000300  -0.000006  -0.000144   0.001536
    22  C    0.000000   0.000000   0.000109  -0.000003   0.002997  -0.037520
    23  F    0.000000   0.000000   0.000001   0.000000  -0.000017  -0.000100
    24  F    0.000000   0.000000   0.000000   0.000000  -0.000011   0.001673
    25  F    0.000000   0.000000  -0.000002   0.000000   0.000025   0.010006
    26  C    0.000089  -0.000013  -0.012833   0.000267   0.219840  -0.012782
    27  O    0.000003   0.000000   0.000311  -0.000015  -0.092254   0.013997
    28  H    0.000000   0.000000   0.000000   0.000000   0.000104   0.000003
    29  H    0.000000   0.000000   0.000000   0.000000   0.000003   0.000000
    30  H    0.000008   0.000000  -0.000021   0.000000  -0.000112   0.000001
    31  H    0.390611  -0.036074   0.002441   0.000062  -0.000111   0.000001
    32  H   -0.024020   0.379952   0.000188   0.000427   0.000003   0.000000
    33  H   -0.025904   0.377728   0.001453   0.010390   0.000073   0.000004
              13         14         15         16         17         18
     1  C    0.000000   0.000000  -0.000001   0.000001   0.000000   0.000000
     2  C    0.000000   0.000006   0.000000   0.000001   0.000000   0.000000
     3  N   -0.000022   0.000010  -0.000182  -0.000011   0.000002   0.000000
     4  C   -0.000001  -0.000001   0.000043   0.000008   0.000008   0.000000
     5  O    0.000000   0.000000   0.000000   0.000000   0.000000   0.000000
     6  N   -0.000006  -0.000025  -0.000237   0.000001  -0.000055   0.000017
     7  C    0.000007   0.000000   0.000000   0.000000  -0.000001   0.000000
     8  C   -0.000002   0.000000   0.000000   0.000000   0.000001  -0.000003
     9  C    0.007651   0.001337  -0.003611  -0.000406   0.005433   0.000182
    10  O   -0.008939   0.000019  -0.004046   0.000002  -0.008936   0.004826
    11  N   -0.040400  -0.038145  -0.064493  -0.000535   0.001298   0.000201
    12  C    0.272631   0.265370   0.167166  -0.025928  -0.037907  -0.004123
    13  F    9.090548  -0.043408  -0.031361   0.000292   0.000822   0.001399
    14  F   -0.043408   9.093917  -0.024420  -0.000103   0.000580   0.000062
    15  C   -0.031361  -0.024420   4.982817   0.244227   0.162328  -0.002758
    16  F    0.000292  -0.000103   0.244227   9.097706  -0.046715   0.000176
    17  O    0.000822   0.000580   0.162328  -0.046715   8.360950   0.222462
    18  C    0.001399   0.000062  -0.002758   0.000176   0.222462   3.829706
    19  F   -0.000002   0.000000   0.000821  -0.000002  -0.037083   0.332627
    20  F   -0.000001   0.000000  -0.006475  -0.000007  -0.046185   0.304566
    21  F   -0.004972   0.000000   0.009349  -0.000002  -0.044615   0.285605
    22  C    0.002320   0.005156   0.218506  -0.011001  -0.024223  -0.001603
    23  F   -0.000156  -0.002986  -0.025459  -0.000802   0.000523   0.000038
    24  F   -0.000001   0.000000  -0.023063  -0.000833  -0.001140   0.000836
    25  F   -0.000226  -0.000716  -0.043989   0.000309  -0.000857   0.010739
    26  C    0.000995   0.006571   0.000294   0.010044  -0.000366   0.000015
    27  O    0.000013  -0.010270  -0.002400  -0.006922  -0.000012   0.000001
    28  H    0.000000  -0.000001   0.000000   0.000001   0.000000   0.000000
    29  H    0.000000   0.000000   0.000000   0.000000   0.000000   0.000000
    30  H    0.000000   0.000000   0.000000   0.000000   0.000000   0.000000
    31  H    0.000000   0.000000   0.000000   0.000000   0.000000   0.000000
    32  H    0.000000   0.000000   0.000000   0.000000   0.000000   0.000000
    33  H   -0.000002   0.000000  -0.000001   0.000000   0.000002   0.000019
              19         20         21         22         23         24
     1  C    0.000000   0.000000   0.000000   0.000000   0.000000   0.000000
     2  C    0.000000   0.000000   0.000000   0.000000   0.000000   0.000000
     3  N    0.000000   0.000000   0.000000  -0.000001   0.000000   0.000000
     4  C    0.000000   0.000000   0.000000   0.000000   0.000000   0.000000
     5  O    0.000000   0.000000   0.000000   0.000000   0.000000   0.000000
     6  N    0.000000   0.000000  -0.000003   0.000001   0.000000   0.000000
     7  C    0.000000   0.000000   0.000000   0.000000   0.000000   0.000000
     8  C   -0.000002   0.000000   0.000000   0.000000   0.000000   0.000000
     9  C    0.000174   0.000008  -0.000300   0.000109   0.000001   0.000000
    10  O    0.000044  -0.000005  -0.000006  -0.000003   0.000000   0.000000
    11  N    0.000001  -0.000001  -0.000144   0.002997  -0.000017  -0.000011
    12  C   -0.000051  -0.000028   0.001536  -0.037520  -0.000100   0.001673
    13  F   -0.000002  -0.000001  -0.004972   0.002320  -0.000156  -0.000001
    14  F    0.000000   0.000000   0.000000   0.005156  -0.002986   0.000000
[...]
    25  F   -0.244247   0.000001
    26  C    0.865952  -0.029270
    27  O   -0.436023   0.060467
 Electronic spatial extent (au):  <R**2>=           8559.6945
 Charge=              1.0000 electrons
 Dipole moment (field-independent basis, Debye):
    X=             -9.9530    Y=              6.9446    Z=             -1.2718  Tot=             12.2028
 Quadrupole moment (field-independent basis, Debye-Ang):
   XX=           -114.9838   YY=           -112.0557   ZZ=           -129.9176
   XY=              4.5265   XZ=             15.4690   YZ=             13.7394
 Traceless Quadrupole moment (field-independent basis, Debye-Ang):
   XX=              4.0019   YY=              6.9300   ZZ=            -10.9319
   XY=              4.5265   XZ=             15.4690   YZ=             13.7394
 Octapole moment (field-independent basis, Debye-Ang**2):
  XXX=           -285.6100  YYY=            262.3617  ZZZ=            -55.4231  XYY=            -84.1083
  XXY=              0.3025  XXZ=            -80.9448  XZZ=           -104.0041  YZZ=             46.6853
  YYZ=             28.1574  XYZ=            -23.6126
 Hexadecapole moment (field-independent basis, Debye-Ang**3):
 XXXX=          -4718.5633 YYYY=          -2640.0335 ZZZZ=           -964.6397 XXXY=            902.3438
 XXXZ=           -210.3551 YYYX=            658.7003 YYYZ=             72.2165 ZZZX=           -426.2953
 ZZZY=            -94.7089 XXYY=          -1382.1986 XXZZ=           -839.6830 YYZZ=           -631.0727
 XXYZ=             43.8323 YYXZ=           -160.0364 ZZXY=            284.3837
 N-N= 3.112023244132D+03 E-N=-1.040567666294D+04  KE= 1.771816559570D+03
                          Isotropic Fermi Contact Couplings
        Atom                 a.u.       MegaHertz       Gauss      10(-4) cm-1
     1  C(13)              0.02902      32.61908      11.63930      10.88055
     2  C(13)             -0.00921     -10.35380      -3.69449      -3.45365
     3  N(14)              0.03365      10.87220       3.87947       3.62658
     4  C(13)             -0.01070     -12.03301      -4.29368      -4.01378
     5  O(17)             -0.00744       4.50876       1.60884       1.50396
     6  N(14)              0.03520      11.37418       4.05859       3.79402
     7  C(13)             -0.00893     -10.03706      -3.58147      -3.34800
     8  C(13)              0.03071      34.52641      12.31988      11.51677
     9  C(13)             -0.00767      -8.61761      -3.07498      -2.87452
    10  O(17)              0.00679      -4.11338      -1.46776      -1.37208
    11  N(14)             -0.00295      -0.95377      -0.34033      -0.31814
    12  C(13)             -0.00007      -0.07679      -0.02740      -0.02561
    13  F(19)             -0.00013      -0.53769      -0.19186      -0.17936
    14  F(19)             -0.00012      -0.49038      -0.17498      -0.16357
    15  C(13)             -0.00029      -0.33122      -0.11819      -0.11048
    16  F(19)              0.00035       1.48917       0.53137       0.49674
    17  O(17)              0.00023      -0.13997      -0.04994      -0.04669
    18  C(13)             -0.00001      -0.01642      -0.00586      -0.00548
    19  F(19)             -0.00001      -0.04873      -0.01739      -0.01626
    20  F(19)              0.00000      -0.01318      -0.00470      -0.00440
    21  F(19)             -0.00004      -0.16228      -0.05791      -0.05413
    22  C(13)             -0.00012      -0.13214      -0.04715      -0.04408
    23  F(19)              0.00000      -0.00524      -0.00187      -0.00175
    24  F(19)             -0.00002      -0.07429      -0.02651      -0.02478
    25  F(19)              0.00000      -0.00324      -0.00116      -0.00108
    26  C(13)             -0.00738      -8.29258      -2.95900      -2.76611
    27  O(17)              0.00637      -3.86117      -1.37776      -1.28795
    28  H(1)              -0.00509     -22.76023      -8.12141      -7.59199
    29  H(1)              -0.00530     -23.69370      -8.45450      -7.90337
    30  H(1)              -0.00020      -0.90267      -0.32210      -0.30110
    31  H(1)              -0.00029      -1.28363      -0.45803      -0.42817
    32  H(1)              -0.00564     -25.22147      -8.99965      -8.41298
    33  H(1)              -0.00536     -23.98064      -8.55689      -7.99908
 --------------------------------------------------------
       Center         ----  Spin Dipole Couplings  ----
                      3XX-RR        3YY-RR        3ZZ-RR
 --------------------------------------------------------
     1   Atom       -0.015129     -0.155326      0.170454
     2   Atom       -0.014500     -0.006787      0.021287
     3   Atom       -0.052687     -0.149245      0.201933
     4   Atom        0.008604      0.015835     -0.024439
     5   Atom        0.049416      0.058493     -0.107909
     6   Atom       -0.104981     -0.175437      0.280419
     7   Atom       -0.017245     -0.018427      0.035672
     8   Atom       -0.016538     -0.170813      0.187352
     9   Atom        0.014727      0.013004     -0.027731
    10   Atom       -0.097732     -0.110555      0.208287
    11   Atom        0.001307      0.014245     -0.015552
    12   Atom       -0.000173      0.000831     -0.000658
    13   Atom       -0.001324      0.002629     -0.001306
    14   Atom        0.000520     -0.001377      0.000857
    15   Atom        0.000469      0.000490     -0.000960
    16   Atom        0.004732     -0.002059     -0.002672
    17   Atom        0.000908      0.000957     -0.001865
    18   Atom        0.001067     -0.000239     -0.000828
    19   Atom        0.001408     -0.000552     -0.000856
    20   Atom        0.000596     -0.000192     -0.000404
    21   Atom        0.000790     -0.000030     -0.000760
    22   Atom        0.000360      0.000108     -0.000468
    23   Atom        0.000177      0.000238     -0.000415
    24   Atom        0.000266      0.000008     -0.000275
    25   Atom        0.000183      0.000149     -0.000332
    26   Atom       -0.000276      0.013661     -0.013385
    27   Atom        0.045013     -0.047092      0.002078
    28   Atom       -0.005966      0.015319     -0.009353
    29   Atom        0.014277     -0.021487      0.007210
    30   Atom       -0.002311      0.007971     -0.005660
    31   Atom        0.008629     -0.005722     -0.002907
    32   Atom       -0.019039      0.027786     -0.008747
    33   Atom        0.013819     -0.014019      0.000199
 --------------------------------------------------------
                        XY            XZ            YZ
 --------------------------------------------------------
     1   Atom        0.063141     -0.240706     -0.089758
     2   Atom        0.019429     -0.018431     -0.008361
     3   Atom        0.098890     -0.249511     -0.148887
     4   Atom        0.000539      0.023278      0.023920
     5   Atom       -0.039836      0.088458      0.071981
     6   Atom        0.073036     -0.239130     -0.138077
     7   Atom        0.020913     -0.020369     -0.011704
     8   Atom        0.063351     -0.256877     -0.090347
     9   Atom       -0.004061      0.018108      0.003570
    10   Atom       -0.010095     -0.071313      0.042080
    11   Atom       -0.002765      0.019257      0.008099
    12   Atom        0.000023      0.001060      0.000328
    13   Atom       -0.001209      0.000178     -0.001505
    14   Atom       -0.001106      0.002188     -0.001047
    15   Atom       -0.000557      0.000698      0.000305
    16   Atom       -0.000591     -0.000498      0.000439
    17   Atom       -0.003161     -0.001435      0.002026
    18   Atom       -0.000881     -0.000018      0.000195
    19   Atom       -0.000511     -0.000265      0.000159
    20   Atom       -0.000457      0.000114      0.000057
    21   Atom       -0.001080      0.000566     -0.000210
    22   Atom       -0.000503      0.000219      0.000063
    23   Atom       -0.000551      0.000287     -0.000135
    24   Atom       -0.000276      0.000056      0.000060
    25   Atom       -0.000480      0.000291     -0.000118
    26   Atom       -0.013094      0.019580      0.012769
    27   Atom        0.099302     -0.134572     -0.085543
    28   Atom       -0.017381     -0.004408     -0.008033
    29   Atom        0.008785      0.015006      0.001259
    30   Atom       -0.005287     -0.000724      0.001837
    31   Atom       -0.002982      0.006076     -0.000539
    32   Atom        0.000915     -0.009692      0.007608
    33   Atom       -0.013614      0.011163     -0.012461
 --------------------------------------------------------


 ---------------------------------------------------------------------------------
              Anisotropic Spin Dipole Couplings in Principal Axis System
 ---------------------------------------------------------------------------------

       Atom             a.u.   MegaHertz   Gauss  10(-4) cm-1        Axes

              Baa    -0.1810   -24.288    -8.667    -8.102  0.7788 -0.4724  0.4127
     1 C(13)  Bbb    -0.1780   -23.892    -8.525    -7.970  0.2947  0.8563  0.4241
              Bcc     0.3590    48.180    17.192    16.071 -0.5538 -0.2086  0.8061
 
              Baa    -0.0322    -4.322    -1.542    -1.442  0.8092 -0.5553  0.1920
     2 C(13)  Bbb    -0.0030    -0.399    -0.142    -0.133  0.3817  0.7452  0.5468
              Bcc     0.0352     4.721     1.684     1.575 -0.4467 -0.3692  0.8149
 
              Baa    -0.2121    -8.180    -2.919    -2.728  0.7014 -0.6912  0.1742
     3 N(14)  Bbb    -0.1995    -7.696    -2.746    -2.567  0.5076  0.6559  0.5587
              Bcc     0.4116    15.875     5.665     5.295 -0.5004 -0.3035  0.8109
 
              Baa    -0.0441    -5.916    -2.111    -1.973 -0.3771 -0.3405  0.8613
     4 C(13)  Bbb     0.0112     1.501     0.536     0.501  0.7841 -0.6123  0.1012
              Bcc     0.0329     4.414     1.575     1.472  0.4929  0.7136  0.4978
 
              Baa    -0.1763    12.755     4.551     4.255 -0.3944 -0.3299  0.8577
     5 O(17)  Bbb     0.0816    -5.903    -2.106    -1.969  0.4884  0.7154  0.4997
              Bcc     0.0947    -6.852    -2.445    -2.286  0.7784 -0.6160  0.1210
 
              Baa    -0.2238    -8.631    -3.080    -2.879  0.7931 -0.5678  0.2206
     6 N(14)  Bbb    -0.2110    -8.136    -2.903    -2.714  0.4409  0.7850  0.4352
              Bcc     0.4348    16.768     5.983     5.593 -0.4203 -0.2478  0.8729
 
              Baa    -0.0393    -5.273    -1.882    -1.759  0.7287 -0.6786  0.0920
     7 C(13)  Bbb    -0.0084    -1.125    -0.402    -0.375  0.5782  0.6816  0.4484
              Bcc     0.0477     6.398     2.283     2.134 -0.3670 -0.2735  0.8891
 
              Baa    -0.1937   -25.996    -9.276    -8.671 -0.5141  0.8452 -0.1461
     8 C(13)  Bbb    -0.1900   -25.497    -9.098    -8.505  0.6570  0.4975  0.5664
              Bcc     0.3837    51.492    18.374    17.176 -0.5514 -0.1951  0.8111
 
              Baa    -0.0349    -4.680    -1.670    -1.561 -0.3484 -0.0990  0.9321
     9 C(13)  Bbb     0.0127     1.707     0.609     0.569  0.2323  0.9543  0.1882
              Bcc     0.0222     2.974     1.061     0.992  0.9081 -0.2821  0.3094
 
              Baa    -0.1163     8.413     3.002     2.806  0.2839  0.9569 -0.0617
    10 O(17)  Bbb    -0.1133     8.200     2.926     2.735  0.9345 -0.2617  0.2414
              Bcc     0.2296   -16.613    -5.928    -5.542 -0.2149  0.1262  0.9685
 
              Baa    -0.0297    -1.146    -0.409    -0.382 -0.5302 -0.1858  0.8273
    11 N(14)  Bbb     0.0126     0.485     0.173     0.162  0.7633 -0.5294  0.3703
              Bcc     0.0171     0.661     0.236     0.221  0.3691  0.8278  0.4225
 
              Baa    -0.0015    -0.205    -0.073    -0.068 -0.6118 -0.1032  0.7842
    12 C(13)  Bbb     0.0005     0.070     0.025     0.023  0.6912 -0.5517  0.4667
              Bcc     0.0010     0.135     0.048     0.045  0.3845  0.8276  0.4089
 
              Baa    -0.0020    -0.982    -0.350    -0.327  0.5304  0.3875  0.7540
    13 F(19)  Bbb    -0.0015    -0.748    -0.267    -0.249  0.8116  0.0249 -0.5837
              Bcc     0.0034     1.729     0.617     0.577 -0.2450  0.9215 -0.3013
 
              Baa    -0.0019    -0.948    -0.338    -0.316  0.3782  0.9243  0.0510
    14 F(19)  Bbb    -0.0015    -0.745    -0.266    -0.248 -0.6575  0.2294  0.7177
              Bcc     0.0034     1.693     0.604     0.565  0.6517 -0.3049  0.6945
 
              Baa    -0.0014    -0.185    -0.066    -0.062 -0.4094 -0.2647  0.8731
    15 C(13)  Bbb     0.0003     0.040     0.014     0.013  0.5054  0.7310  0.4585
              Bcc     0.0011     0.145     0.052     0.048  0.7596 -0.6290  0.1654
 
              Baa    -0.0029    -1.459    -0.521    -0.487  0.0237 -0.4472  0.8941
    16 F(19)  Bbb    -0.0019    -0.962    -0.343    -0.321  0.1123  0.8899  0.4421
              Bcc     0.0048     2.421     0.864     0.808  0.9934 -0.0899 -0.0713
 
              Baa    -0.0029     0.213     0.076     0.071 -0.1315 -0.5383  0.8324
    17 O(17)  Bbb    -0.0020     0.147     0.052     0.049  0.7492  0.4959  0.4390
              Bcc     0.0050    -0.360    -0.128    -0.120 -0.6492  0.6814  0.3381
 
              Baa    -0.0009    -0.126    -0.045    -0.042 -0.2120 -0.5000  0.8397
    18 C(13)  Bbb    -0.0006    -0.077    -0.028    -0.026  0.4021  0.7385  0.5413
              Bcc     0.0015     0.203     0.073     0.068  0.8907 -0.4524 -0.0445
 
              Baa    -0.0009    -0.465    -0.166    -0.155  0.0273 -0.3592  0.9329
    19 F(19)  Bbb    -0.0006    -0.324    -0.115    -0.108  0.2684  0.9016  0.3393
              Bcc     0.0016     0.788     0.281     0.263  0.9629 -0.2411 -0.1210
 
              Baa    -0.0005    -0.253    -0.090    -0.084 -0.3281 -0.6108  0.7206
    20 F(19)  Bbb    -0.0003    -0.154    -0.055    -0.051  0.2555  0.6770  0.6902
              Bcc     0.0008     0.407     0.145     0.136  0.9094 -0.4106  0.0661
 
              Baa    -0.0010    -0.500    -0.178    -0.167 -0.4669 -0.3453  0.8141
    21 F(19)  Bbb    -0.0007    -0.342    -0.122    -0.114  0.3590  0.7673  0.5314
              Bcc     0.0017     0.842     0.300     0.281  0.8081 -0.5404  0.2342
 
              Baa    -0.0006    -0.079    -0.028    -0.026 -0.3826 -0.3515  0.8545
    22 C(13)  Bbb    -0.0002    -0.024    -0.008    -0.008  0.4702  0.7220  0.5075
              Bcc     0.0008     0.103     0.037     0.034  0.7953 -0.5960  0.1110
 
              Baa    -0.0005    -0.275    -0.098    -0.092 -0.4846 -0.1924  0.8533
    23 F(19)  Bbb    -0.0003    -0.142    -0.051    -0.047  0.5445  0.6971  0.4665
              Bcc     0.0008     0.417     0.149     0.139 -0.6846  0.6907 -0.2331
 
              Baa    -0.0003    -0.160    -0.057    -0.053 -0.2681 -0.3894  0.8812
    24 F(19)  Bbb    -0.0001    -0.062    -0.022    -0.021  0.4629  0.7501  0.4723
              Bcc     0.0004     0.222     0.079     0.074  0.8449 -0.5345  0.0209
 
              Baa    -0.0005    -0.244    -0.087    -0.082 -0.5311 -0.2499  0.8096
    25 F(19)  Bbb    -0.0002    -0.121    -0.043    -0.040  0.4567  0.7203  0.5220
              Bcc     0.0007     0.365     0.130     0.122  0.7136 -0.6471  0.2684
 
              Baa    -0.0343    -4.599    -1.641    -1.534 -0.5653 -0.3530  0.7456
    26 C(13)  Bbb     0.0127     1.705     0.608     0.569  0.6718  0.3275  0.6644
              Bcc     0.0216     2.894     1.033     0.965 -0.4787  0.8765  0.0520
 
              Baa    -0.1129     8.167     2.914     2.724  0.5494  0.2191  0.8063
    27 O(17)  Bbb    -0.1105     7.994     2.852     2.666 -0.4798  0.8728  0.0897
              Bcc     0.2233   -16.161    -5.767    -5.391  0.6841  0.4361 -0.5847
 
              Baa    -0.0211   -11.250    -4.014    -3.753  0.6867  0.4533  0.5683
    28 H(1)   Bbb    -0.0047    -2.492    -0.889    -0.831 -0.5627 -0.1636  0.8103
              Bcc     0.0258    13.743     4.904     4.584 -0.4603  0.8762 -0.1427
 
              Baa    -0.0237   -12.653    -4.515    -4.220 -0.2563  0.9628  0.0852
    29 H(1)   Bbb    -0.0037    -1.956    -0.698    -0.652 -0.5603 -0.2198  0.7986
              Bcc     0.0274    14.608     5.213     4.873  0.7876  0.1570  0.5958
 
              Baa    -0.0059    -3.150    -1.124    -1.051  0.0147 -0.1258  0.9920
    30 H(1)   Bbb    -0.0045    -2.424    -0.865    -0.808  0.9224  0.3846  0.0351
              Bcc     0.0104     5.574     1.989     1.859 -0.3859  0.9145  0.1217
 
              Baa    -0.0066    -3.536    -1.262    -1.179  0.3325  0.8441 -0.4207
    31 H(1)   Bbb    -0.0051    -2.727    -0.973    -0.910 -0.2531  0.5096  0.8224
              Bcc     0.0117     6.263     2.235     2.089  0.9085 -0.1670  0.3831
 
              Baa    -0.0253   -13.497    -4.816    -4.502  0.8405 -0.0910  0.5341
    32 H(1)   Bbb    -0.0040    -2.151    -0.768    -0.718 -0.5413 -0.1808  0.8211
              Bcc     0.0293    15.648     5.584     5.220 -0.0218  0.9793  0.2012
 
              Baa    -0.0226   -12.081    -4.311    -4.030  0.2178  0.8976  0.3832
    33 H(1)   Bbb    -0.0052    -2.799    -0.999    -0.934 -0.5935 -0.1899  0.7821
              Bcc     0.0279    14.880     5.310     4.963  0.7748 -0.3978  0.4914
 

 ---------------------------------------------------------------------------------

 No NMR shielding tensors so no spin-rotation constants.
 Leave Link  601 at Sun Mar  3 17:59:43 2024, MaxMem=  5368709120 cpu:         5.0
 (Enter /home/k0335/k033513/app/g09/l9999.exe)
 1\1\GINC-C24U18N1\SP\UCAM-B3LYP\6-31G(d,p)\C11H6F9N3O4(1+,2)\K033513\0
 3-Mar-2024\0\\#p CAM-B3LYP/6-31G(d,p) SCRF=(PCM,Solvent=Generic,Read) 
 NoSymm out=wfn\\Title A902650421_p1\\1,2\C,0,-3.738372,-1.38668,-2.231
 744\C,0,-3.443111,-0.202299,-1.682865\N,0,-2.359588,0.15122,-0.85921\C
 ,0,-2.35786,1.461817,-0.364595\O,0,-3.323852,2.218958,-0.530974\N,0,-1
 .211794,1.88028,0.320751\C,0,-1.158891,3.234631,0.691079\C,0,-0.232809
 ,3.871142,1.418262\C,0,-0.169245,1.000346,0.583786\O,0,0.960717,1.3558
 45,0.918845\N,0,-0.439401,-0.330672,0.406514\C,0,0.592393,-1.283615,0.
 801218\F,0,1.042838,-0.939333,2.040799\F,0,-0.018654,-2.483654,1.03381
 5\C,0,1.786757,-1.473362,-0.183757\F,0,1.288501,-1.834101,-1.414347\O,
 0,2.511115,-0.278454,-0.49847\C,0,3.545947,0.047508,0.3986\F,0,3.93796
 5,1.313859,0.170391\F,0,4.592792,-0.766516,0.182468\F,0,3.150237,-0.07
 1301,1.671377\C,0,2.599136,-2.673376,0.32538\F,0,1.874287,-3.813324,0.
 373041\F,0,3.648336,-2.925978,-0.497069\F,0,3.107604,-2.477255,1.56021
 9\C,0,-1.34514,-0.747912,-0.538312\O,0,-1.214935,-1.852349,-1.065495\H
 ,0,-3.151124,-2.28853,-2.109083\H,0,-4.628686,-1.487716,-2.846985\H,0,
 -4.14487,0.606984,-1.891786\H,0,-2.001939,3.838923,0.351945\H,0,-0.345
 267,4.932566,1.623676\H,0,0.646914,3.40235,1.842523\\Version=ES64L-G09
 RevD.01\HF=-1785.6248745\S2=0.785154\S2-1=0.\S2A=0.750579\RMSD=6.265e-
 09\Dipole=-5.1070111,3.48834,-0.7574572\Quadrupole=2.9752884,5.1523033
 ,-8.1275917,3.3653074,11.5007998,10.2149031\PG=C01 [X(C11H6F9N3O4)]\\@

 Writing a WFN file to "A902650421/A902650421_p1.wfn"


 10 WHATSOEVER THY HAND FINDETH TO DO, DO IT WITH THY  
 MIGHT. FOR THERE IS NO WORK, NOR DEVICE, NOR KNOWLEDGE, NOR  
 WISDOM, IN THE GRAVE, WHITHER THOU GOEST.                    
 11 I RETURNED AND SAW UNDER THE SUN, THAT THE RACE IS NOT TO 
 THE SWIFT, NOR THE BATTLE TO THE STRONG, NEITHER YET BREAD TO
 THE WISE, NOR YET RICHES TO MEN OF UNDERSTANDING, NOR YET    
 FAVOR TO MEN OF SKILL. BUT TIME AND CHANCE HAPPEN TO THEM ALL.
 12 FOR MAN ALSO KNOWETH NOT HIS TIME. AS THE FISHES   
 THAT ARE TAKEN IN AN EVIL NET, AND AS THE BIRDS THAT ARE     
 CAUGHT IN THE SNARE. SO ARE THE SONS OF MEN SNARED IN AN EVIL
 TIME, WHEN IT FALLETH SUDDENLY UPON THEM.
                                         ECCLESIASTES 9
 Job cpu time:       0 days  0 hours 28 minutes 25.8 seconds.
 File lengths (MBytes):  RWF=    297 Int=      0 D2E=      0 Chk=     11 Scr=      1
 Normal termination of Gaussian 09 at Sun Mar  3 17:59:43 2024.
