 Entering Gaussian System, Link 0=g09
 Initial command:
 /home/k0335/k033513/app/g09/l1.exe "/home/k0335/k033513/app/g09/scratch/Gau-581167.inp" -scrdir="/home/k0335/k033513/app/g09/scratch/"
 Default is to use a total of  36 processors:
                               36 via shared-memory
                                1 via Linda
 Entering Link 1 = /home/k0335/k033513/app/g09/l1.exe PID=    581168.
  
 Copyright (c) 1988,1990,1992,1993,1995,1998,2003,2009,2013,
            Gaussian, Inc.  All Rights Reserved.
  
 This is part of the Gaussian(R) 09 program.  It is based on
 the Gaussian(R) 03 system (copyright 2003, Gaussian, Inc.),
 the Gaussian(R) 98 system (copyright 1998, Gaussian, Inc.),
 the Gaussian(R) 94 system (copyright 1995, Gaussian, Inc.),
 the Gaussian 92(TM) system (copyright 1992, Gaussian, Inc.),
 the Gaussian 90(TM) system (copyright 1990, Gaussian, Inc.),
 the Gaussian 88(TM) system (copyright 1988, Gaussian, Inc.),
 the Gaussian 86(TM) system (copyright 1986, Carnegie Mellon
 University), and the Gaussian 82(TM) system (copyright 1983,
 Carnegie Mellon University). Gaussian is a federally registered
 trademark of Gaussian, Inc.
  
 This software contains proprietary and confidential information,
 including trade secrets, belonging to Gaussian, Inc.
  
 This software is provided under written license and may be
 used, copied, transmitted, or stored only in accord with that
 written license.
  
 The following legend is applicable only to US Government
 contracts under FAR:
  
                    RESTRICTED RIGHTS LEGEND
  
 Use, reproduction and disclosure by the US Government is
 subject to restrictions as set forth in subparagraphs (a)
 and (c) of the Commercial Computer Software - Restricted
 Rights clause in FAR 52.227-19.
  
 Gaussian, Inc.
 340 Quinnipiac St., Bldg. 40, Wallingford CT 06492
  
  
 ---------------------------------------------------------------
 Warning -- This program may not be used in any manner that
 competes with the business of Gaussian, Inc. or will provide
 assistance to any competitor of Gaussian, Inc.  The licensee
 of this program is prohibited from giving any competitor of
 Gaussian, Inc. access to this program.  By using this program,
 the user acknowledges that Gaussian, Inc. is engaged in the
 business of creating and licensing software in the field of
 computational chemistry and represents and warrants to the
 licensee that it is not a competitor of Gaussian, Inc. and that
 it will not use this program in any manner prohibited above.
 ---------------------------------------------------------------
  

 Cite this work as:
 Gaussian 09, Revision D.01,
 M. J. Frisch, G. W. Trucks, H. B. Schlegel, G. E. Scuseria, 
 M. A. Robb, J. R. Cheeseman, G. Scalmani, V. Barone, B. Mennucci, 
 G. A. Petersson, H. Nakatsuji, M. Caricato, X. Li, H. P. Hratchian, 
 A. F. Izmaylov, J. Bloino, G. Zheng, J. L. Sonnenberg, M. Hada, 
 M. Ehara, K. Toyota, R. Fukuda, J. Hasegawa, M. Ishida, T. Nakajima, 
 Y. Honda, O. Kitao, H. Nakai, T. Vreven, J. A. Montgomery, Jr., 
 J. E. Peralta, F. Ogliaro, M. Bearpark, J. J. Heyd, E. Brothers, 
 K. N. Kudin, V. N. Staroverov, T. Keith, R. Kobayashi, J. Normand, 
 K. Raghavachari, A. Rendell, J. C. Burant, S. S. Iyengar, J. Tomasi, 
 M. Cossi, N. Rega, J. M. Millam, M. Klene, J. E. Knox, J. B. Cross, 
 V. Bakken, C. Adamo, J. Jaramillo, R. Gomperts, R. E. Stratmann, 
 O. Yazyev, A. J. Austin, R. Cammi, C. Pomelli, J. W. Ochterski, 
 R. L. Martin, K. Morokuma, V. G. Zakrzewski, G. A. Voth, 
 P. Salvador, J. J. Dannenberg, S. Dapprich, A. D. Daniels, 
 O. Farkas, J. B. Foresman, J. V. Ortiz, J. Cioslowski, 
 and D. J. Fox, Gaussian, Inc., Wallingford CT, 2013.
 
 ******************************************
 Gaussian 09:  ES64L-G09RevD.01 24-Apr-2013
                 3-Mar-2024 
 ******************************************
 %nprocshared=24
 Will use up to   24 processors via shared memory.
 %mem=40GB
 %rwf=A1671897792/A1671897792_p1.rwf
 %nosave
 %chk=A1671897792/A1671897792_p1.chk
 ----------------------------------------------------------------------
 #p CAM-B3LYP/6-31G(d,p) SCRF=(PCM,Solvent=Generic,Read) NoSymm out=wfn
 ----------------------------------------------------------------------
 1/38=1,40=2/1;
 2/12=2,15=1,17=6,18=5,40=1/2;
 3/5=1,6=6,7=101,11=2,16=1,25=1,30=1,70=2203,72=-2,74=-40/1,2,3;
 4//1;
 5/5=2,38=5/2;
 6/7=2,8=2,9=2,10=2,28=1/1;
 99/5=1,6=100,9=1/99;
 Leave Link    1 at Sun Mar  3 17:31:00 2024, MaxMem=  5368709120 cpu:         0.8
 (Enter /home/k0335/k033513/app/g09/l101.exe)
 --------------------
 Title A1671897792_p1
 --------------------
 Symbolic Z-matrix:
 Charge =  1 Multiplicity = 2
 O                     2.30371   1.40791  -2.29493 
 C                     1.30995   1.29153  -1.58306 
 N                     0.28651   2.20995  -1.56066 
 O                     0.31156   3.20852  -2.55818 
 C                    -0.90635   2.02925  -0.90935 
 O                    -1.90877   2.65478  -1.25117 
 N                    -0.88839   1.08463   0.08538 
 C                    -2.04686   0.95557   0.95696 
 F                    -1.57086   0.83175   2.23825 
 F                    -2.73413   2.13432   1.01015 
 C                    -3.04801  -0.20238   0.69479 
 F                    -2.37078  -1.38764   0.67116 
 O                    -3.9383   -0.26987   1.82007 
 C                    -4.9947   -1.17477   1.64151 
 F                    -5.94195  -0.59323   0.88681 
 F                    -4.5763   -2.30949   1.06101 
 F                    -5.52102  -1.46582   2.84468 
 C                    -3.68877   0.03665  -0.67391 
 F                    -2.74808   0.0954   -1.6487 
 F                    -4.40463   1.1769   -0.71567 
 F                    -4.52092  -0.96968  -1.02705 
 C                     0.11572   0.1466    0.18803 
 O                     0.11655  -0.69252   1.08193 
 N                     1.12622   0.20431  -0.74763 
 C                     2.18214  -0.80205  -0.73455 
 F                     1.71287  -1.9768   -0.22171 
 F                     2.42139  -1.12712  -2.0416 
 C                     3.53424  -0.46268  -0.0364 
 F                     4.1272    0.62613  -0.60548 
 O                     4.52676  -1.50144  -0.02618 
 C                     4.84016  -1.99415  -1.30159 
 F                     3.93185  -2.92158  -1.64837 
 F                     4.87846  -1.01579  -2.21699 
 F                     6.04972  -2.58291  -1.24392 
 C                     3.23343  -0.1127    1.41698 
 F                     2.66833  -1.1354    2.09047 
 F                     2.40448   0.9563    1.5119 
 F                     4.36457   0.22099   2.08768 
 H                    -0.637     3.42653  -2.67067 
 
 NAtoms=     39 NQM=       39 NQMF=       0 NMMI=      0 NMMIF=      0
                NMic=       0 NMicF=      0.
                    Isotopes and Nuclear Properties:
 (Nuclear quadrupole moments (NQMom) in fm**2, nuclear magnetic moments (NMagM)
  in nuclear magnetons)

  Atom         1           2           3           4           5           6           7           8           9          10
 IAtWgt=          16          12          14          16          12          16          14          12          19          19
 AtmWgt=  15.9949146  12.0000000  14.0030740  15.9949146  12.0000000  15.9949146  14.0030740  12.0000000  18.9984033  18.9984033
 NucSpn=           0           0           2           0           0           0           2           0           1           1
 AtZEff=   0.0000000   0.0000000   0.0000000   0.0000000   0.0000000   0.0000000   0.0000000   0.0000000   0.0000000   0.0000000
 NQMom=    0.0000000   0.0000000   2.0440000   0.0000000   0.0000000   0.0000000   2.0440000   0.0000000   0.0000000   0.0000000
 NMagM=    0.0000000   0.0000000   0.4037610   0.0000000   0.0000000   0.0000000   0.4037610   0.0000000   2.6288670   2.6288670
 AtZNuc=   8.0000000   6.0000000   7.0000000   8.0000000   6.0000000   8.0000000   7.0000000   6.0000000   9.0000000   9.0000000

  Atom        11          12          13          14          15          16          17          18          19          20
 IAtWgt=          12          19          16          12          19          19          19          12          19          19
 AtmWgt=  12.0000000  18.9984033  15.9949146  12.0000000  18.9984033  18.9984033  18.9984033  12.0000000  18.9984033  18.9984033
 NucSpn=           0           1           0           0           1           1           1           0           1           1
 AtZEff=   0.0000000   0.0000000   0.0000000   0.0000000   0.0000000   0.0000000   0.0000000   0.0000000   0.0000000   0.0000000
 NQMom=    0.0000000   0.0000000   0.0000000   0.0000000   0.0000000   0.0000000   0.0000000   0.0000000   0.0000000   0.0000000
 NMagM=    0.0000000   2.6288670   0.0000000   0.0000000   2.6288670   2.6288670   2.6288670   0.0000000   2.6288670   2.6288670
 AtZNuc=   6.0000000   9.0000000   8.0000000   6.0000000   9.0000000   9.0000000   9.0000000   6.0000000   9.0000000   9.0000000

  Atom        21          22          23          24          25          26          27          28          29          30
 IAtWgt=          19          12          16          14          12          19          19          12          19          16
 AtmWgt=  18.9984033  12.0000000  15.9949146  14.0030740  12.0000000  18.9984033  18.9984033  12.0000000  18.9984033  15.9949146
 NucSpn=           1           0           0           2           0           1           1           0           1           0
 AtZEff=   0.0000000   0.0000000   0.0000000   0.0000000   0.0000000   0.0000000   0.0000000   0.0000000   0.0000000   0.0000000
 NQMom=    0.0000000   0.0000000   0.0000000   2.0440000   0.0000000   0.0000000   0.0000000   0.0000000   0.0000000   0.0000000
 NMagM=    2.6288670   0.0000000   0.0000000   0.4037610   0.0000000   2.6288670   2.6288670   0.0000000   2.6288670   0.0000000
 AtZNuc=   9.0000000   6.0000000   8.0000000   7.0000000   6.0000000   9.0000000   9.0000000   6.0000000   9.0000000   8.0000000

  Atom        31          32          33          34          35          36          37          38          39
 IAtWgt=          12          19          19          19          12          19          19          19           1
 AtmWgt=  12.0000000  18.9984033  18.9984033  18.9984033  12.0000000  18.9984033  18.9984033  18.9984033   1.0078250
 NucSpn=           0           1           1           1           0           1           1           1           1
 AtZEff=   0.0000000   0.0000000   0.0000000   0.0000000   0.0000000   0.0000000   0.0000000   0.0000000   0.0000000
 NQMom=    0.0000000   0.0000000   0.0000000   0.0000000   0.0000000   0.0000000   0.0000000   0.0000000   0.0000000
 NMagM=    0.0000000   2.6288670   2.6288670   2.6288670   0.0000000   2.6288670   2.6288670   2.6288670   2.7928460
 AtZNuc=   6.0000000   9.0000000   9.0000000   9.0000000   6.0000000   9.0000000   9.0000000   9.0000000   1.0000000
 Leave Link  101 at Sun Mar  3 17:31:00 2024, MaxMem=  5368709120 cpu:         0.8
 (Enter /home/k0335/k033513/app/g09/l202.exe)
                          Input orientation:                          
 ---------------------------------------------------------------------
 Center     Atomic      Atomic             Coordinates (Angstroms)
 Number     Number       Type             X           Y           Z
 ---------------------------------------------------------------------
      1          8           0        2.303708    1.407910   -2.294926
      2          6           0        1.309950    1.291531   -1.583063
      3          7           0        0.286511    2.209949   -1.560656
      4          8           0        0.311557    3.208525   -2.558175
      5          6           0       -0.906346    2.029247   -0.909348
      6          8           0       -1.908768    2.654776   -1.251171
      7          7           0       -0.888392    1.084628    0.085377
      8          6           0       -2.046865    0.955569    0.956963
      9          9           0       -1.570856    0.831750    2.238246
     10          9           0       -2.734125    2.134320    1.010145
     11          6           0       -3.048014   -0.202379    0.694789
     12          9           0       -2.370780   -1.387637    0.671164
     13          8           0       -3.938297   -0.269867    1.820071
     14          6           0       -4.994704   -1.174768    1.641510
     15          9           0       -5.941945   -0.593225    0.886807
     16          9           0       -4.576303   -2.309491    1.061009
     17          9           0       -5.521023   -1.465823    2.844683
     18          6           0       -3.688772    0.036650   -0.673914
     19          9           0       -2.748075    0.095401   -1.648703
     20          9           0       -4.404630    1.176897   -0.715665
     21          9           0       -4.520918   -0.969677   -1.027051
     22          6           0        0.115718    0.146597    0.188027
     23          8           0        0.116554   -0.692522    1.081931
     24          7           0        1.126221    0.204306   -0.747629
     25          6           0        2.182137   -0.802053   -0.734552
     26          9           0        1.712871   -1.976795   -0.221706
     27          9           0        2.421385   -1.127115   -2.041603
     28          6           0        3.534242   -0.462675   -0.036400
     29          9           0        4.127196    0.626125   -0.605477
     30          8           0        4.526760   -1.501438   -0.026181
     31          6           0        4.840161   -1.994152   -1.301590
     32          9           0        3.931845   -2.921580   -1.648365
     33          9           0        4.878456   -1.015794   -2.216993
     34          9           0        6.049722   -2.582910   -1.243920
     35          6           0        3.233430   -0.112696    1.416979
     36          9           0        2.668330   -1.135405    2.090469
     37          9           0        2.404481    0.956298    1.511900
     38          9           0        4.364572    0.220991    2.087682
     39          1           0       -0.636996    3.426531   -2.670674
 ---------------------------------------------------------------------
                    Distance matrix (angstroms):
                    1          2          3          4          5
     1  O    0.000000
     2  C    1.227945   0.000000
     3  N    2.291616   1.375289   0.000000
     4  O    2.698181   2.371181   1.411675   0.000000
     5  C    3.551103   2.431067   1.371045   2.364871   0.000000
     6  O    4.515424   3.511230   2.261173   2.635288   1.230032
     7  N    3.994979   2.767527   2.314340   3.597108   1.371898
     8  C    5.450402   4.222891   3.654657   4.795223   2.436531
     9  F    5.991148   4.807582   4.447572   5.674345   3.432626
    10  F    6.068849   4.877455   3.967238   4.812796   2.652597
    11  C    6.338167   5.139283   4.693124   5.788157   3.484272
    12  F    6.201904   5.080084   4.998484   6.224811   4.039515
    13  O    7.662295   6.446967   5.952126   7.023497   4.682775
    14  C    8.685193   7.498611   7.042827   8.062693   5.786818
    15  F    9.061940   7.889394   7.255448   8.088726   5.954896
    16  F    8.509754   7.389618   7.137606   8.212075   6.014610
    17  F    9.792872   8.594773   8.163686   9.222765   6.899529
    18  C    6.357503   5.233402   4.616537   5.441862   3.430418
    19  F    5.259353   4.231147   3.699700   4.458703   2.770988
    20  F    6.895595   5.781172   4.877295   5.455710   3.605829
    21  F    7.337298   6.278633   5.788448   6.569211   4.698141
    22  C    3.541647   2.423597   2.710071   4.117691   2.406910
    23  O    4.538570   3.530277   3.928930   5.339154   3.524137
    24  N    2.286759   1.383389   2.321364   3.600984   2.736401
    25  C    2.708040   2.421523   3.653492   4.786377   4.193512
    26  F    4.012924   3.563368   4.621268   5.857500   4.835444
    27  F    2.550367   2.700999   3.990613   4.849329   4.724237
    28  C    3.180290   3.227519   4.473705   5.497523   5.166288
    29  F    2.605865   3.055375   4.262831   5.004090   5.234275
    30  O    4.307374   4.535683   5.840267   6.809015   6.539447
    31  C    4.358249   4.830873   6.203008   7.011070   7.025947
    32  F    4.670477   4.962751   6.295136   7.177216   6.961676
    33  F    3.536911   4.296493   5.649969   6.230397   6.666794
    34  F    5.573498   6.131211   7.502428   8.257998   8.352892
    35  C    4.117628   3.830389   4.790128   5.947243   5.209363
    36  F    5.082626   4.607608   5.495013   6.784836   5.638460
    37  F    3.834845   3.299875   3.936755   5.100820   4.239721
    38  F    4.986300   4.893990   5.822105   6.851006   6.327287
    39  H    3.586608   3.087349   1.888141   0.979763   2.264337
                    6          7          8          9         10
     6  O    0.000000
     7  N    2.300629   0.000000
     8  C    2.789665   1.455465   0.000000
     9  F    3.951410   2.272564   1.372444   0.000000
    10  F    2.462852   2.315983   1.365507   2.134974   0.000000
    11  C    3.639777   2.586839   1.553022   2.373537   2.378684
    12  F    4.499992   2.941550   2.382691   2.832191   3.556840
    13  O    4.701601   3.761082   2.413330   2.644467   2.808225
    14  C    5.705788   4.938443   3.700905   4.013096   4.056957
    15  F    5.602408   5.384782   4.192294   4.792010   4.212460
    16  F    6.091458   5.106133   4.131525   4.503998   4.810786
    17  F    6.841326   5.964884   4.636421   4.609819   4.908499
    18  C    3.218109   3.084949   2.489986   3.687605   2.854404
    19  F    2.722658   2.728374   2.832151   4.127521   3.350650
    20  F    2.949614   3.607508   2.899263   4.107918   2.585665
    21  F    4.473278   4.318902   3.709963   4.755015   4.120388
    22  C    3.529985   1.377925   2.433611   2.741781   3.570508
    23  O    4.555184   2.271849   2.722536   2.551043   4.015291
    24  N    3.933131   2.351070   3.679471   4.072267   4.660150
    25  C    5.380712   3.695943   4.882102   5.058834   5.986308
    26  F    5.968879   4.029042   4.911582   4.972138   6.180170
    27  F    5.803250   4.513366   5.770115   6.171892   6.821247
    28  C    6.389094   4.687075   5.843538   5.736861   6.865280
    29  F    6.400407   5.083663   6.377208   6.371565   7.208510
    30  O    7.758269   6.002004   7.086325   6.910305   8.186157
    31  C    8.195311   6.649728   7.825154   7.849669   8.930745
    32  F    8.084941   6.503095   7.587160   7.711871   8.778665
    33  F    7.776394   6.555091   7.868948   8.053335   8.848109
    34  F    9.527380   7.959604   9.106011   9.047574  10.221988
    35  C    6.420290   4.494014   5.406877   4.964637   6.389547
    36  F    6.817760   4.647495   5.281105   4.675707   6.406615
    37  F    5.396620   3.590884   4.485804   4.043068   5.295731
    38  F    7.511727   5.687594   6.551691   5.968668   7.430573
    39  H    2.056210   3.625400   4.610112   5.630495   4.429017
                   11         12         13         14         15
    11  C    0.000000
    12  F    1.365299   0.000000
    13  O    1.436460   2.241987   0.000000
    14  C    2.373062   2.805684   1.402400   0.000000
    15  F    2.926511   3.664807   2.233864   1.343516   0.000000
    16  F    2.628632   2.422009   2.267883   1.341506   2.200203
    17  F    3.511995   3.828097   2.232748   1.345121   2.184464
    18  C    1.530050   2.361129   2.525109   2.921332   2.812362
    19  F    2.381300   2.779125   3.685436   4.181647   4.135677
    20  F    2.394199   3.554810   2.956442   3.381537   2.839821
    21  F    2.392264   2.771591   2.989195   2.718042   2.413273
    22  C    3.223010   2.961413   4.389994   5.474946   6.142549
    23  O    3.225618   2.615099   4.143103   5.164363   6.062454
    24  N    4.435110   4.095885   5.698005   6.713833   7.298384
    25  C    5.455007   4.800833   6.653498   7.569124   8.286925
    26  F    5.162804   4.221437   6.246451   7.007595   7.857434
    27  F    6.185249   5.512878   7.489523   8.280457   8.877269
    28  C    6.627857   6.018761   7.702110   8.721547   9.521947
    29  F    7.338988   6.921614   8.469844   9.565627  10.251894
    30  O    7.719103   6.933635   8.751149   9.671928  10.547615
    31  C    8.331824   7.500486   9.475191  10.298437  11.090784
    32  F    7.848749   6.888852   9.000043   9.672534  10.456580
    33  F    8.483457   7.812243   9.725710  10.601538  11.264689
    34  F    9.601787   8.717860  10.700408  11.501648  12.340945
    35  C    6.323460   5.795592   7.184765   8.299434   9.203233
    36  F    5.957772   5.241248   6.668567   7.676275   8.710890
    37  F    5.633818   5.385535   6.467556   7.701051   8.512026
    38  F    7.554192   7.068180   8.321670   9.473292  10.408138
    39  H    5.505301   6.111473   6.687955   7.665279   7.546959
                   16         17         18         19         20
    16  F    0.000000
    17  F    2.187639   0.000000
    18  C    3.049926   4.242062   0.000000
    19  F    4.058135   5.506104   1.355941   0.000000
    20  F    3.916752   4.572350   1.346981   2.187320   0.000000
    21  F    2.481565   4.029478   1.352726   2.159587   2.172157
    22  C    5.367451   6.436658   3.902458   3.402574   4.723529
    23  O    4.963661   5.957144   4.253844   4.035255   5.212215
    24  N    6.489155   7.738210   4.818475   3.979191   5.615805
    25  C    7.153525   8.519988   5.930824   5.093926   6.877652
    26  F    6.427266   7.873567   5.782404   5.121558   6.900260
    27  F    7.745441   9.331257   6.368590   5.326559   7.325371
    28  C    8.390231   9.555353   7.268265   6.509875   8.134819
    29  F    9.335197  10.457915   7.838464   6.974191   8.550295
    30  O    9.203298  10.449932   8.383331   7.622709   9.349791
    31  C    9.713450  11.172504   8.789814   7.878328   9.791068
    32  F    8.950081  10.567091   8.232526   7.329632   9.336180
    33  F   10.090164  11.574638   8.768473   7.727981   9.655960
    34  F   10.876574  12.322609  10.100756   9.205348  11.122440
    35  C    8.120625   8.972722   7.232636   6.724590   8.034375
    36  F    7.411004   8.230645   7.030524   6.695800   7.952854
    37  F    7.720105   8.393843   6.538445   6.105685   7.167615
    38  F    9.348617  10.057007   8.515676   8.035303   9.255885
    39  H    7.895920   8.843529   4.979124   4.074004   4.803955
                   21         22         23         24         25
    21  F    0.000000
    22  C    4.921471   0.000000
    23  O    5.102036   1.226045   0.000000
    24  N    5.774642   1.378368   2.273987   0.000000
    25  C    6.711527   2.453809   2.752860   1.458728   0.000000
    26  F    6.365767   2.688414   2.428385   2.319042   1.365006
    27  F    7.017811   3.451042   3.906095   2.263736   1.367950
    28  C    8.131669   3.479639   3.603344   2.597937   1.559096
    29  F    8.804214   4.117226   4.546584   3.033808   2.416528
    30  O    9.118387   4.713724   4.618677   3.872172   2.547192
    31  C    9.420972   5.396492   5.448658   4.351257   2.967781
    32  F    8.697423   5.229615   5.194195   4.295814   2.896364
    33  F    9.474509   5.460673   5.801992   4.210338   3.084389
    34  F   10.695232   6.686784   6.647227   5.679414   4.288254
    35  C    8.175427   3.361203   3.188004   3.037490   2.491890
    36  F    7.837837   3.432003   2.779362   3.496817   2.885871
    37  F    7.623438   2.765265   2.852734   2.702760   2.861430
    38  F    9.490584   4.654781   4.460011   4.304205   3.711421
    39  H    6.092043   4.415509   5.622853   4.146055   5.438474
                   26         27         28         29         30
    26  F    0.000000
    27  F    2.129782   0.000000
    28  C    2.375771   2.387629   0.000000
    29  F    3.570916   2.836565   1.364159   0.000000
    30  O    2.860448   2.938477   1.436741   2.240928   0.000000
    31  C    3.308533   2.673920   2.377299   2.803345   1.402731
    32  F    2.802110   2.378283   2.966940   3.702970   2.236562
    33  F    3.863369   2.465837   2.620656   2.420180   2.271387
    34  F    4.496729   3.990046   3.504446   3.794947   2.229772
    35  C    2.910714   3.694625   1.524888   2.331309   2.384118
    36  F    2.639506   4.139453   2.392894   3.535449   2.840414
    37  F    3.476600   4.119257   2.384759   2.749554   3.593081
    38  F    4.146692   4.758609   2.380876   2.733786   2.731572
    39  H    6.380850   5.521333   6.282082   5.899563   7.612004
                   31         32         33         34         35
    31  C    0.000000
    32  F    1.343657   0.000000
    33  F    1.340378   2.202596   0.000000
    34  F    1.346477   2.182585   2.185083   0.000000
    35  C    3.675878   4.215916   4.089920   4.594980   0.000000
    36  F    4.118296   4.331948   4.842850   4.964598   1.348651
    37  F    4.749044   5.230493   4.890229   5.779993   1.356066
    38  F    4.076789   4.901128   4.508208   4.669172   1.356714
    39  H    7.826713   7.887835   7.096498   9.102813   6.649454
                   36         37         38         39
    36  F    0.000000
    37  F    2.186225   0.000000
    38  F    2.171878   2.171211   0.000000
    39  H    7.375969   5.731192   7.611381   0.000000
 Symmetry turned off by external request.
 Stoichiometry    C11HF18N3O6(1+,2)
 Framework group  C1[X(C11HF18N3O6)]
 Deg. of freedom   111
 Full point group                 C1      NOp   1
 Rotational constants (GHZ):      0.2016700      0.0588729      0.0551489
 Leave Link  202 at Sun Mar  3 17:31:00 2024, MaxMem=  5368709120 cpu:         0.1
 (Enter /home/k0335/k033513/app/g09/l301.exe)
 Standard basis: 6-31G(d,p) (6D, 7F)
 Ernie: Thresh=  0.10000D-02 Tol=  0.10000D-05 Strict=F.
   575 basis functions,  1071 primitive gaussians,   575 cartesian basis functions
   149 alpha electrons      148 beta electrons
       nuclear repulsion energy      5652.4598340524 Hartrees.
 IExCor=20419 DFT=T Ex+Corr=CAM-B3LYP ExCW=0 ScaHFX=  1.000000
 ScaDFX=  1.000000  1.000000  1.000000  0.810000 ScalE2=  1.000000  1.000000
 IRadAn=      0 IRanWt=     -1 IRanGd=            0 ICorTp=0 IEmpDi=  4
  HFx wShort=  0.000000 wLong=  0.330000 cFull=  0.190000 cShort=  0.000000 cLong=  0.460000
  DFx wShort=  0.000000 wLong=  0.330000 cFull=  0.190000 cShort=  0.000000 cLong=  0.460000
 NAtoms=   39 NActive=   39 NUniq=   39 SFac= 1.00D+00 NAtFMM=   60 NAOKFM=F Big=F
 Integral buffers will be    131072 words long.
 Raffenetti 2 integral format.
 Two-electron integral symmetry is turned off.
 Using the following non-standard input for PCM:
 eps=4.9
 --- end of non-standard input.
 ------------------------------------------------------------------------------
 Polarizable Continuum Model (PCM)
 =================================
 Model                : PCM (using non-symmetric T matrix).
 Atomic radii         : UFF (Universal Force Field).
 Polarization charges : Total charges.
 Charge compensation  : None.
 Solution method      : On-the-fly selection.
 Cavity type          : Scaled VdW (van der Waals Surface) (Alpha=1.100).
 Cavity algorithm     : GePol (No added spheres)
                        Default sphere list used, NSphG=   39.
                        Lebedev-Laikov grids with approx.  5.0 points / Ang**2.
                        Smoothing algorithm: Karplus/York (Gamma=1.0000).
                        Polarization charges: spherical gaussians, with
                                              point-specific exponents (IZeta= 3).
                        Self-potential: point-specific (ISelfS= 7).
                        Self-field    : sphere-specific E.n sum rule (ISelfD= 2).
 Solvent              : Generic,
                        Eps                           =   4.900000
                        Eps(infinity)                 =   0.000000
                        RSolv                         =   0.000000 Ang.
                        Molar volume                  =   0.000000 cm**3/mol
                        Thermal expansion coefficient =   0.000000 K**-1
                        Absolute temperature          = 298.150000 K
                        Numeral density               =   0.000000 Ang**-3
                        Hydrogen bond acidity         =   0.000000
                        Hydrogen bond basicity        =   0.000000
                        Surface tension at interface  =   0.000000 (cal/mol)*Ang**-2
                        Carbon aromaticity            =   0.000000
                        Electronegative halogenicity  =   0.000000
 ------------------------------------------------------------------------------
 GePol: Number of generator spheres                  =      39
 GePol: Total number of spheres                      =      39
 GePol: Number of exposed spheres                    =      39 (100.00%)
 GePol: Number of points                             =    3321
 GePol: Average weight of points                     =       0.12
 GePol: Minimum weight of points                     =   0.11D-09
 GePol: Maximum weight of points                     =    0.20577
 GePol: Number of points with low weight             =     141
 GePol: Fraction of low-weight points (<1% of avg)   =       4.25%
 GePol: Cavity surface area                          =    414.458 Ang**2
 GePol: Cavity volume                                =    486.242 Ang**3
 Leave Link  301 at Sun Mar  3 17:31:00 2024, MaxMem=  5368709120 cpu:         0.7
 (Enter /home/k0335/k033513/app/g09/l302.exe)
 NPDir=0 NMtPBC=     1 NCelOv=     1 NCel=       1 NClECP=     1 NCelD=      1
         NCelK=      1 NCelE2=     1 NClLst=     1 CellRange=     0.0.
 One-electron integrals computed using PRISM.
 NBasis=   575 RedAO= T EigKep=  1.24D-03  NBF=   575
 NBsUse=   575 1.00D-06 EigRej= -1.00D+00 NBFU=   575
 Precomputing XC quadrature grid using
 IXCGrd= 4 IRadAn=           0 IRanWt=          -1 IRanGd=           0 AccXCQ= 0.00D+00.
 Generated NRdTot=       0 NPtTot=           0 NUsed=           0 NTot=          32
 NSgBfM=   559   559   559   559   559 MxSgAt=    39 MxSgA2=    39.
 Leave Link  302 at Sun Mar  3 17:31:01 2024, MaxMem=  5368709120 cpu:        10.4
 (Enter /home/k0335/k033513/app/g09/l303.exe)
 DipDrv:  MaxL=1.
 Leave Link  303 at Sun Mar  3 17:31:01 2024, MaxMem=  5368709120 cpu:         0.8
 (Enter /home/k0335/k033513/app/g09/l401.exe)
 ExpMin= 1.61D-01 ExpMax= 7.00D+03 ExpMxC= 1.05D+03 IAcc=1 IRadAn=         1 AccDes= 0.00D+00
 Harris functional with IExCor=20419 and IRadAn=       1 diagonalized for initial guess.
 HarFok:  IExCor=20419 AccDes= 0.00D+00 IRadAn=         1 IDoV= 1 UseB2=F ITyADJ=14
 ICtDFT=  3500011 ScaDFX=  1.000000  1.000000  1.000000  1.000000
 FoFCou: FMM=F IPFlag=           0 FMFlag=      100000 FMFlg1=           0
         NFxFlg=           0 DoJE=T BraDBF=F KetDBF=T FulRan=T
         wScrn=  0.000000 ICntrl=     500 IOpCl=  0 I1Cent=   200000004 NGrid=           0
         NMat0=    1 NMatS0=      1 NMatT0=    0 NMatD0=    1 NMtDS0=    0 NMtDT0=    0
 Symmetry not used in FoFCou.
 Harris En= -2747.94009825001    
 JPrj=0 DoOrth=F DoCkMO=F.
 Initial guess <Sx>= 0.0000 <Sy>= 0.0000 <Sz>= 0.5000 <S**2>= 0.7500 S= 0.5000
 Leave Link  401 at Sun Mar  3 17:31:02 2024, MaxMem=  5368709120 cpu:        13.7
 (Enter /home/k0335/k033513/app/g09/l502.exe)
 UHF open shell SCF:
 Using DIIS extrapolation, IDIIS=  1040.
 Two-electron integral symmetry not used.
 IVT=     1027753 IEndB=     1027753 NGot=  5368709120 MDV=  5368029208
 LenX=  5368029208 LenY=  5367698008
 Requested convergence on RMS density matrix=1.00D-08 within 128 cycles.
 Requested convergence on MAX density matrix=1.00D-06.
 Requested convergence on             energy=1.00D-06.
 No special actions if energy rises.
 Fock matrices will be formed incrementally for  20 cycles.

 Cycle   1  Pass 1  IDiag  1:
 FoFJK:  IHMeth= 1 ICntrl=       0 DoSepK=T KAlg= 0 I1Cent=   0 FoldK=F
 IRaf=         1 NMat=   1 IRICut=       1 DoRegI=T DoRafI=F ISym2E= 0.
 FoFCou: FMM=F IPFlag=           0 FMFlag=      100000 FMFlg1=           0
         NFxFlg=           0 DoJE=T BraDBF=F KetDBF=F FulRan=T
         wScrn=  0.000000 ICntrl=     500 IOpCl=  0 I1Cent=           0 NGrid=           0
         NMat0=    1 NMatS0=      1 NMatT0=    0 NMatD0=    1 NMtDS0=    0 NMtDT0=    0
 Symmetry not used in FoFCou.
 Inv3:  Mode=1 IEnd=    33087123.
 Iteration    1 A*A^-1 deviation from unit magnitude is 6.88D-15 for    125.
 Iteration    1 A*A^-1 deviation from orthogonality  is 7.33D-15 for   3317   2829.
 Iteration    1 A^-1*A deviation from unit magnitude is 6.00D-15 for   1238.
 Iteration    1 A^-1*A deviation from orthogonality  is 4.21D-15 for   2573   2367.
 E= -2830.23351815809    
 DIIS: error= 4.61D-02 at cycle   1 NSaved=   1.
 NSaved= 1 IEnMin= 1 EnMin= -2830.23351815809     IErMin= 1 ErrMin= 4.61D-02
 ErrMax= 4.61D-02  0.00D+00 EMaxC= 1.00D-01 BMatC= 1.00D+01 BMatP= 1.00D+01
 IDIUse=3 WtCom= 5.39D-01 WtEn= 4.61D-01
 Coeff-Com:  0.100D+01
 Coeff-En:   0.100D+01
 Coeff:      0.100D+01
 Gap=     0.440 Goal=   None    Shift=    0.000
 Gap=     0.096 Goal=   None    Shift=    0.000
 GapD=    0.096 DampG=0.500 DampE=0.500 DampFc=0.2500 IDamp=-1.
 Damping current iteration by 2.50D-01
 RMSDP=3.79D-03 MaxDP=2.56D-01              OVMax= 7.16D-01

 Cycle   2  Pass 1  IDiag  1:
 RMSU=  9.47D-04    CP:  1.00D+00
 E= -2830.57377258595     Delta-E=       -0.340254427862 Rises=F Damp=T
 DIIS: error= 3.33D-02 at cycle   2 NSaved=   2.
 NSaved= 2 IEnMin= 2 EnMin= -2830.57377258595     IErMin= 2 ErrMin= 3.33D-02
 ErrMax= 3.33D-02  0.00D+00 EMaxC= 1.00D-01 BMatC= 4.12D+00 BMatP= 1.00D+01
 IDIUse=3 WtCom= 6.67D-01 WtEn= 3.33D-01
 Coeff-Com: -0.126D+01 0.226D+01
 Coeff-En:   0.000D+00 0.100D+01
 Coeff:     -0.840D+00 0.184D+01
 Gap=     0.638 Goal=   None    Shift=    0.000
 Gap=    -0.044 Goal=   None    Shift=    0.000
 RMSDP=1.86D-03 MaxDP=1.49D-01 DE=-3.40D-01 OVMax= 7.78D-01

 Cycle   3  Pass 1  IDiag  1:
 RMSU=  1.56D-03    CP:  1.00D+00  2.07D+00
 E= -2831.03057673848     Delta-E=       -0.456804152536 Rises=F Damp=F
 DIIS: error= 1.96D-02 at cycle   3 NSaved=   3.
 NSaved= 3 IEnMin= 3 EnMin= -2831.03057673848     IErMin= 3 ErrMin= 1.96D-02
 ErrMax= 1.96D-02  0.00D+00 EMaxC= 1.00D-01 BMatC= 1.52D+00 BMatP= 4.12D+00
 IDIUse=3 WtCom= 8.04D-01 WtEn= 1.96D-01
 Coeff-Com: -0.768D+00 0.126D+01 0.507D+00
 Coeff-En:   0.000D+00 0.000D+00 0.100D+01
 Coeff:     -0.617D+00 0.101D+01 0.604D+00
 Gap=     0.436 Goal=   None    Shift=    0.000
 Gap=     0.056 Goal=   None    Shift=    0.000
 RMSDP=1.71D-03 MaxDP=3.62D-01 DE=-4.57D-01 OVMax= 9.70D-01

 Cycle   4  Pass 1  IDiag  1:
 RMSU=  8.54D-04    CP:  1.00D+00  2.79D+00  1.58D-01
 E= -2831.07853245319     Delta-E=       -0.047955714710 Rises=F Damp=F
 DIIS: error= 1.43D-02 at cycle   4 NSaved=   4.
 NSaved= 4 IEnMin= 4 EnMin= -2831.07853245319     IErMin= 4 ErrMin= 1.43D-02
 ErrMax= 1.43D-02  0.00D+00 EMaxC= 1.00D-01 BMatC= 1.02D+00 BMatP= 1.52D+00
 IDIUse=3 WtCom= 8.57D-01 WtEn= 1.43D-01
 Coeff-Com: -0.274D+00 0.458D+00 0.443D+00 0.373D+00
 Coeff-En:   0.000D+00 0.000D+00 0.464D+00 0.536D+00
 Coeff:     -0.235D+00 0.393D+00 0.446D+00 0.396D+00
 Gap=     0.454 Goal=   None    Shift=    0.000
 Gap=    -0.053 Goal=   None    Shift=    0.000
 RMSDP=1.48D-03 MaxDP=2.98D-01 DE=-4.80D-02 OVMax= 8.88D-01

 Cycle   5  Pass 1  IDiag  1:
 RMSU=  5.49D-04    CP:  1.00D+00  2.21D+00  7.30D-01 -3.38D-02
 E= -2831.26537615660     Delta-E=       -0.186843703408 Rises=F Damp=F
 DIIS: error= 8.09D-03 at cycle   5 NSaved=   5.
 NSaved= 5 IEnMin= 5 EnMin= -2831.26537615660     IErMin= 5 ErrMin= 8.09D-03
 ErrMax= 8.09D-03  0.00D+00 EMaxC= 1.00D-01 BMatC= 2.58D-01 BMatP= 1.02D+00
 IDIUse=3 WtCom= 9.19D-01 WtEn= 8.09D-02
 Coeff-Com: -0.100D+00 0.159D+00 0.234D+00 0.344D+00 0.363D+00
 Coeff-En:   0.000D+00 0.000D+00 0.000D+00 0.201D+00 0.799D+00
 Coeff:     -0.919D-01 0.146D+00 0.215D+00 0.332D+00 0.399D+00
 Gap=     0.382 Goal=   None    Shift=    0.000
 Gap=     0.056 Goal=   None    Shift=    0.000
 RMSDP=3.01D-04 MaxDP=2.90D-02 DE=-1.87D-01 OVMax= 9.51D-02

 Cycle   6  Pass 1  IDiag  1:
 RMSU=  2.82D-04    CP:  1.00D+00  2.21D+00  7.25D-01  5.79D-02  8.77D-01
 E= -2831.30673246697     Delta-E=       -0.041356310367 Rises=F Damp=F
 DIIS: error= 3.51D-03 at cycle   6 NSaved=   6.
 NSaved= 6 IEnMin= 6 EnMin= -2831.30673246697     IErMin= 6 ErrMin= 3.51D-03
 ErrMax= 3.51D-03  0.00D+00 EMaxC= 1.00D-01 BMatC= 6.79D-02 BMatP= 2.58D-01
 IDIUse=3 WtCom= 9.65D-01 WtEn= 3.51D-02
 Coeff-Com: -0.517D-01 0.676D-01-0.322D-01 0.150D+00-0.254D-01 0.892D+00
 Coeff-En:   0.000D+00 0.000D+00 0.000D+00 0.000D+00 0.000D+00 0.100D+01
 Coeff:     -0.499D-01 0.652D-01-0.311D-01 0.145D+00-0.245D-01 0.895D+00
 Gap=     0.365 Goal=   None    Shift=    0.000
 Gap=     0.089 Goal=   None    Shift=    0.000
 RMSDP=1.75D-04 MaxDP=1.47D-02 DE=-4.14D-02 OVMax= 2.31D-02

 Cycle   7  Pass 1  IDiag  1:
 RMSU=  1.14D-04    CP:  1.00D+00  2.27D+00  6.77D-01  4.71D-02  9.69D-01
                    CP:  1.27D+00
 E= -2831.32032251634     Delta-E=       -0.013590049373 Rises=F Damp=F
 DIIS: error= 1.92D-03 at cycle   7 NSaved=   7.
 NSaved= 7 IEnMin= 7 EnMin= -2831.32032251634     IErMin= 7 ErrMin= 1.92D-03
 ErrMax= 1.92D-03  0.00D+00 EMaxC= 1.00D-01 BMatC= 1.49D-02 BMatP= 6.79D-02
 IDIUse=3 WtCom= 9.81D-01 WtEn= 1.92D-02
 Coeff-Com: -0.430D-01 0.592D-01-0.423D-01 0.472D-01-0.165D+00 0.454D+00
 Coeff-Com:  0.690D+00
 Coeff-En:   0.000D+00 0.000D+00 0.000D+00 0.000D+00 0.000D+00 0.000D+00
 Coeff-En:   0.100D+01
 Coeff:     -0.421D-01 0.581D-01-0.415D-01 0.463D-01-0.162D+00 0.445D+00
 Coeff:      0.696D+00
 Gap=     0.351 Goal=   None    Shift=    0.000
 Gap=     0.115 Goal=   None    Shift=    0.000
 RMSDP=9.48D-05 MaxDP=8.07D-03 DE=-1.36D-02 OVMax= 2.36D-02

 Cycle   8  Pass 1  IDiag  1:
 RMSU=  7.41D-05    CP:  1.00D+00  2.28D+00  6.63D-01  2.87D-02  9.69D-01
                    CP:  1.42D+00  1.24D+00
 E= -2831.32387002164     Delta-E=       -0.003547505303 Rises=F Damp=F
 DIIS: error= 7.62D-04 at cycle   8 NSaved=   8.
 NSaved= 8 IEnMin= 8 EnMin= -2831.32387002164     IErMin= 8 ErrMin= 7.62D-04
 ErrMax= 7.62D-04  0.00D+00 EMaxC= 1.00D-01 BMatC= 2.97D-03 BMatP= 1.49D-02
 IDIUse=3 WtCom= 9.92D-01 WtEn= 7.62D-03
 Coeff-Com: -0.129D-01 0.193D-01-0.227D-02 0.161D-01-0.840D-01-0.268D-01
 Coeff-Com:  0.292D+00 0.798D+00
 Coeff-En:   0.000D+00 0.000D+00 0.000D+00 0.000D+00 0.000D+00 0.000D+00
 Coeff-En:   0.000D+00 0.100D+01
 Coeff:     -0.128D-01 0.192D-01-0.225D-02 0.160D-01-0.833D-01-0.266D-01
 Coeff:      0.290D+00 0.800D+00
 Gap=     0.344 Goal=   None    Shift=    0.000
 Gap=     0.129 Goal=   None    Shift=    0.000
 RMSDP=7.12D-05 MaxDP=5.13D-03 DE=-3.55D-03 OVMax= 3.32D-02

 Cycle   9  Pass 1  IDiag  1:
 RMSU=  3.16D-05    CP:  1.00D+00  2.29D+00  6.57D-01  6.15D-03  9.57D-01
                    CP:  1.45D+00  1.63D+00  1.53D+00
 E= -2831.32506003956     Delta-E=       -0.001190017920 Rises=F Damp=F
 DIIS: error= 4.25D-04 at cycle   9 NSaved=   9.
 NSaved= 9 IEnMin= 9 EnMin= -2831.32506003956     IErMin= 9 ErrMin= 4.25D-04
 ErrMax= 4.25D-04  0.00D+00 EMaxC= 1.00D-01 BMatC= 7.87D-04 BMatP= 2.97D-03
 IDIUse=3 WtCom= 9.96D-01 WtEn= 4.25D-03
 Coeff-Com:  0.328D-02-0.409D-02 0.808D-02 0.889D-02-0.194D-01-0.108D+00
 Coeff-Com: -0.857D-03 0.343D+00 0.769D+00
 Coeff-En:   0.000D+00 0.000D+00 0.000D+00 0.000D+00 0.000D+00 0.000D+00
 Coeff-En:   0.000D+00 0.000D+00 0.100D+01
 Coeff:      0.326D-02-0.407D-02 0.805D-02 0.885D-02-0.193D-01-0.108D+00
 Coeff:     -0.853D-03 0.341D+00 0.770D+00
 Gap=     0.340 Goal=   None    Shift=    0.000
 Gap=     0.135 Goal=   None    Shift=    0.000
 RMSDP=5.46D-05 MaxDP=4.75D-03 DE=-1.19D-03 OVMax= 3.08D-02

 Cycle  10  Pass 1  IDiag  1:
 RMSU=  1.72D-05    CP:  1.00D+00  2.29D+00  6.54D-01 -1.07D-02  9.46D-01
                    CP:  1.42D+00  1.89D+00  2.02D+00  1.42D+00
 E= -2831.32558616709     Delta-E=       -0.000526127531 Rises=F Damp=F
 DIIS: error= 2.36D-04 at cycle  10 NSaved=  10.
 NSaved=10 IEnMin=10 EnMin= -2831.32558616709     IErMin=10 ErrMin= 2.36D-04
 ErrMax= 2.36D-04  0.00D+00 EMaxC= 1.00D-01 BMatC= 2.63D-04 BMatP= 7.87D-04
 IDIUse=3 WtCom= 9.98D-01 WtEn= 2.36D-03
 Coeff-Com:  0.921D-03-0.156D-02-0.447D-03 0.338D-02 0.810D-03 0.333D-01
 Coeff-Com: -0.701D-01-0.359D+00 0.290D+00 0.110D+01
 Coeff-En:   0.000D+00 0.000D+00 0.000D+00 0.000D+00 0.000D+00 0.000D+00
 Coeff-En:   0.000D+00 0.000D+00 0.000D+00 0.100D+01
 Coeff:      0.919D-03-0.155D-02-0.446D-03 0.337D-02 0.808D-03 0.332D-01
 Coeff:     -0.699D-01-0.358D+00 0.289D+00 0.110D+01
 Gap=     0.336 Goal=   None    Shift=    0.000
 Gap=     0.140 Goal=   None    Shift=    0.000
 RMSDP=6.10D-05 MaxDP=5.40D-03 DE=-5.26D-04 OVMax= 3.70D-02

 Cycle  11  Pass 1  IDiag  1:
 RMSU=  1.33D-05    CP:  1.00D+00  2.29D+00  6.52D-01 -2.78D-02  9.28D-01
                    CP:  1.38D+00  2.13D+00  2.55D+00  2.20D+00  1.78D+00
 E= -2831.32593519423     Delta-E=       -0.000349027134 Rises=F Damp=F
 DIIS: error= 1.70D-04 at cycle  11 NSaved=  11.
 NSaved=11 IEnMin=11 EnMin= -2831.32593519423     IErMin=11 ErrMin= 1.70D-04
 ErrMax= 1.70D-04  0.00D+00 EMaxC= 1.00D-01 BMatC= 4.69D-05 BMatP= 2.63D-04
 IDIUse=3 WtCom= 9.98D-01 WtEn= 1.70D-03
 Coeff-Com: -0.201D-02 0.275D-02-0.345D-02-0.774D-03-0.184D-02 0.625D-01
 Coeff-Com: -0.103D-01-0.300D+00-0.686D-01 0.413D+00 0.909D+00
 Coeff-En:   0.000D+00 0.000D+00 0.000D+00 0.000D+00 0.000D+00 0.000D+00
 Coeff-En:   0.000D+00 0.000D+00 0.000D+00 0.000D+00 0.100D+01
 Coeff:     -0.201D-02 0.275D-02-0.344D-02-0.773D-03-0.183D-02 0.623D-01
 Coeff:     -0.103D-01-0.299D+00-0.684D-01 0.412D+00 0.909D+00
 Gap=     0.335 Goal=   None    Shift=    0.000
 Gap=     0.142 Goal=   None    Shift=    0.000
 RMSDP=3.78D-05 MaxDP=3.28D-03 DE=-3.49D-04 OVMax= 2.36D-02

 Cycle  12  Pass 1  IDiag  1:
 RMSU=  8.17D-06    CP:  1.00D+00  2.29D+00  6.51D-01 -3.64D-02  9.16D-01
                    CP:  1.34D+00  2.25D+00  2.84D+00  2.68D+00  2.56D+00
                    CP:  1.70D+00
 E= -2831.32606196881     Delta-E=       -0.000126774579 Rises=F Damp=F
 DIIS: error= 1.62D-04 at cycle  12 NSaved=  12.
 NSaved=12 IEnMin=12 EnMin= -2831.32606196881     IErMin=12 ErrMin= 1.62D-04
 ErrMax= 1.62D-04  0.00D+00 EMaxC= 1.00D-01 BMatC= 2.52D-05 BMatP= 4.69D-05
 IDIUse=3 WtCom= 9.98D-01 WtEn= 1.62D-03
 Coeff-Com: -0.105D-04 0.323D-04-0.958D-03-0.501D-03-0.585D-02 0.396D-02
 Coeff-Com:  0.516D-01 0.920D-01-0.539D-01-0.492D+00 0.267D+00 0.114D+01
 Coeff-En:   0.000D+00 0.000D+00 0.000D+00 0.000D+00 0.000D+00 0.000D+00
 Coeff-En:   0.000D+00 0.000D+00 0.000D+00 0.000D+00 0.000D+00 0.100D+01
 Coeff:     -0.105D-04 0.323D-04-0.957D-03-0.500D-03-0.584D-02 0.395D-02
 Coeff:      0.515D-01 0.919D-01-0.538D-01-0.491D+00 0.266D+00 0.114D+01
 Gap=     0.335 Goal=   None    Shift=    0.000
 Gap=     0.142 Goal=   None    Shift=    0.000
 RMSDP=2.69D-05 MaxDP=2.11D-03 DE=-1.27D-04 OVMax= 1.49D-02

 Cycle  13  Pass 1  IDiag  1:
 RMSU=  6.91D-06    CP:  1.00D+00  2.29D+00  6.52D-01 -4.03D-02  9.11D-01
                    CP:  1.32D+00  2.29D+00  2.98D+00  2.97D+00  3.00D+00
                    CP:  2.76D+00  1.90D+00
 E= -2831.32613272771     Delta-E=       -0.000070758899 Rises=F Damp=F
 DIIS: error= 9.85D-05 at cycle  13 NSaved=  13.
 NSaved=13 IEnMin=13 EnMin= -2831.32613272771     IErMin=13 ErrMin= 9.85D-05
 ErrMax= 9.85D-05  0.00D+00 EMaxC= 1.00D-01 BMatC= 1.29D-05 BMatP= 2.52D-05
 IDIUse=1 WtCom= 1.00D+00 WtEn= 0.00D+00
 Coeff-Com:  0.140D-02-0.186D-02 0.135D-02-0.405D-03-0.511D-02-0.264D-01
 Coeff-Com:  0.365D-01 0.175D+00 0.400D-01-0.529D+00-0.181D+00 0.389D+00
 Coeff-Com:  0.110D+01
 Coeff:      0.140D-02-0.186D-02 0.135D-02-0.405D-03-0.511D-02-0.264D-01
 Coeff:      0.365D-01 0.175D+00 0.400D-01-0.529D+00-0.181D+00 0.389D+00
 Coeff:      0.110D+01
 Gap=     0.334 Goal=   None    Shift=    0.000
 Gap=     0.142 Goal=   None    Shift=    0.000
 RMSDP=2.63D-05 MaxDP=2.20D-03 DE=-7.08D-05 OVMax= 1.31D-02

 Cycle  14  Pass 1  IDiag  1:
 RMSU=  1.71D-05    CP:  1.00D+00  2.29D+00  6.52D-01 -4.26D-02  9.06D-01
                    CP:  1.29D+00  2.33D+00  3.00D+00  3.00D+00  3.00D+00
                    CP:  3.00D+00  3.00D+00  2.61D+00
 E= -2831.32618084432     Delta-E=       -0.000048116613 Rises=F Damp=F
 DIIS: error= 6.36D-05 at cycle  14 NSaved=  14.
 NSaved=14 IEnMin=14 EnMin= -2831.32618084432     IErMin=14 ErrMin= 6.36D-05
 ErrMax= 6.36D-05  0.00D+00 EMaxC= 1.00D-01 BMatC= 6.46D-06 BMatP= 1.29D-05
 IDIUse=1 WtCom= 1.00D+00 WtEn= 0.00D+00
 Coeff-Com:  0.114D-02-0.154D-02 0.123D-02 0.277D-03-0.145D-02-0.863D-02
 Coeff-Com: -0.133D-01-0.117D-03 0.710D-01 0.322D-01-0.117D+00-0.648D+00
 Coeff-Com:  0.409D+00 0.128D+01
 Coeff:      0.114D-02-0.154D-02 0.123D-02 0.277D-03-0.145D-02-0.863D-02
 Coeff:     -0.133D-01-0.117D-03 0.710D-01 0.322D-01-0.117D+00-0.648D+00
 Coeff:      0.409D+00 0.128D+01
 Gap=     0.334 Goal=   None    Shift=    0.000
 Gap=     0.142 Goal=   None    Shift=    0.000
 RMSDP=2.56D-05 MaxDP=2.43D-03 DE=-4.81D-05 OVMax= 1.09D-02

 Cycle  15  Pass 1  IDiag  1:
 RMSU=  1.49D-05    CP:  1.00D+00  2.29D+00  6.53D-01 -4.38D-02  9.02D-01
                    CP:  1.28D+00  2.36D+00  3.00D+00  3.00D+00  3.00D+00
                    CP:  3.00D+00  3.00D+00  3.00D+00  2.07D+00
 E= -2831.32620920465     Delta-E=       -0.000028360335 Rises=F Damp=F
 DIIS: error= 3.81D-05 at cycle  15 NSaved=  15.
 NSaved=15 IEnMin=15 EnMin= -2831.32620920465     IErMin=15 ErrMin= 3.81D-05
 ErrMax= 3.81D-05  0.00D+00 EMaxC= 1.00D-01 BMatC= 2.08D-06 BMatP= 6.46D-06
 IDIUse=1 WtCom= 1.00D+00 WtEn= 0.00D+00
 Coeff-Com: -0.989D-05 0.178D-04 0.108D-03 0.274D-03 0.662D-03 0.910D-02
 Coeff-Com: -0.176D-01-0.710D-01 0.169D-01 0.207D+00 0.769D-01-0.372D+00
 Coeff-Com: -0.292D+00 0.349D+00 0.109D+01
 Coeff:     -0.989D-05 0.178D-04 0.108D-03 0.274D-03 0.662D-03 0.910D-02
 Coeff:     -0.176D-01-0.710D-01 0.169D-01 0.207D+00 0.769D-01-0.372D+00
 Coeff:     -0.292D+00 0.349D+00 0.109D+01
 Gap=     0.334 Goal=   None    Shift=    0.000
 Gap=     0.142 Goal=   None    Shift=    0.000
 RMSDP=1.20D-05 MaxDP=1.43D-03 DE=-2.84D-05 OVMax= 6.03D-03

 Cycle  16  Pass 1  IDiag  1:
 RMSU=  3.05D-06    CP:  1.00D+00  2.29D+00  6.53D-01 -4.34D-02  9.00D-01
                    CP:  1.28D+00  2.36D+00  3.00D+00  3.00D+00  3.00D+00
                    CP:  3.00D+00  3.00D+00  3.00D+00  2.48D+00  1.61D+00
 E= -2831.32621710792     Delta-E=       -0.000007903262 Rises=F Damp=F
 DIIS: error= 2.56D-05 at cycle  16 NSaved=  16.
 NSaved=16 IEnMin=16 EnMin= -2831.32621710792     IErMin=16 ErrMin= 2.56D-05
 ErrMax= 2.56D-05  0.00D+00 EMaxC= 1.00D-01 BMatC= 7.01D-07 BMatP= 2.08D-06
 IDIUse=1 WtCom= 1.00D+00 WtEn= 0.00D+00
 Coeff-Com: -0.552D-03 0.741D-03-0.485D-03 0.180D-03 0.954D-03 0.836D-02
 Coeff-Com: -0.152D-02-0.315D-01-0.219D-01 0.823D-01 0.851D-01 0.133D+00
 Coeff-Com: -0.319D+00-0.425D+00 0.462D+00 0.103D+01
 Coeff:     -0.552D-03 0.741D-03-0.485D-03 0.180D-03 0.954D-03 0.836D-02
 Coeff:     -0.152D-02-0.315D-01-0.219D-01 0.823D-01 0.851D-01 0.133D+00
 Coeff:     -0.319D+00-0.425D+00 0.462D+00 0.103D+01
 Gap=     0.334 Goal=   None    Shift=    0.000
 Gap=     0.142 Goal=   None    Shift=    0.000
 RMSDP=7.38D-06 MaxDP=9.30D-04 DE=-7.90D-06 OVMax= 4.09D-03

 Cycle  17  Pass 1  IDiag  1:
 RMSU=  1.45D-06    CP:  1.00D+00  2.29D+00  6.53D-01 -4.31D-02  8.99D-01
                    CP:  1.27D+00  2.35D+00  3.00D+00  3.00D+00  3.00D+00
                    CP:  3.00D+00  3.00D+00  3.00D+00  2.67D+00  1.99D+00
                    CP:  1.99D+00
 E= -2831.32621996306     Delta-E=       -0.000002855140 Rises=F Damp=F
 DIIS: error= 1.63D-05 at cycle  17 NSaved=  17.
 NSaved=17 IEnMin=17 EnMin= -2831.32621996306     IErMin=17 ErrMin= 1.63D-05
 ErrMax= 1.63D-05  0.00D+00 EMaxC= 1.00D-01 BMatC= 3.77D-07 BMatP= 7.01D-07
 IDIUse=1 WtCom= 1.00D+00 WtEn= 0.00D+00
 Coeff-Com: -0.285D-03 0.378D-03-0.298D-03 0.946D-04 0.488D-04-0.681D-03
 Coeff-Com:  0.674D-02 0.176D-01-0.158D-01-0.516D-01-0.117D-01 0.211D+00
 Coeff-Com: -0.128D-01-0.278D+00-0.214D+00 0.391D+00 0.959D+00
 Coeff:     -0.285D-03 0.378D-03-0.298D-03 0.946D-04 0.488D-04-0.681D-03
 Coeff:      0.674D-02 0.176D-01-0.158D-01-0.516D-01-0.117D-01 0.211D+00
 Coeff:     -0.128D-01-0.278D+00-0.214D+00 0.391D+00 0.959D+00
 Gap=     0.334 Goal=   None    Shift=    0.000
 Gap=     0.142 Goal=   None    Shift=    0.000
 RMSDP=3.57D-06 MaxDP=5.04D-04 DE=-2.86D-06 OVMax= 1.88D-03

 Cycle  18  Pass 1  IDiag  1:
 RMSU=  1.03D-06    CP:  1.00D+00  2.29D+00  6.53D-01 -4.33D-02  8.99D-01
                    CP:  1.27D+00  2.35D+00  3.00D+00  3.00D+00  3.00D+00
                    CP:  3.00D+00  3.00D+00  3.00D+00  2.76D+00  2.14D+00
                    CP:  2.55D+00  1.67D+00
 E= -2831.32622090296     Delta-E=       -0.000000939906 Rises=F Damp=F
 DIIS: error= 1.01D-05 at cycle  18 NSaved=  18.
 NSaved=18 IEnMin=18 EnMin= -2831.32622090296     IErMin=18 ErrMin= 1.01D-05
 ErrMax= 1.01D-05  0.00D+00 EMaxC= 1.00D-01 BMatC= 1.93D-07 BMatP= 3.77D-07
 IDIUse=1 WtCom= 1.00D+00 WtEn= 0.00D+00
 Coeff-Com: -0.114D-03 0.154D-03-0.147D-03 0.134D-04-0.436D-03-0.231D-02
 Coeff-Com:  0.511D-02 0.193D-01-0.608D-02-0.551D-01-0.328D-01 0.100D+00
 Coeff-Com:  0.737D-01-0.554D-01-0.244D+00-0.643D-01 0.457D+00 0.804D+00
 Coeff:     -0.114D-03 0.154D-03-0.147D-03 0.134D-04-0.436D-03-0.231D-02
 Coeff:      0.511D-02 0.193D-01-0.608D-02-0.551D-01-0.328D-01 0.100D+00
 Coeff:      0.737D-01-0.554D-01-0.244D+00-0.643D-01 0.457D+00 0.804D+00
 Gap=     0.334 Goal=   None    Shift=    0.000
 Gap=     0.142 Goal=   None    Shift=    0.000
 RMSDP=2.45D-06 MaxDP=2.93D-04 DE=-9.40D-07 OVMax= 1.11D-03

 Cycle  19  Pass 1  IDiag  1:
 RMSU=  4.91D-07    CP:  1.00D+00  2.29D+00  6.53D-01 -4.37D-02  8.98D-01
                    CP:  1.27D+00  2.36D+00  3.00D+00  3.00D+00  3.00D+00
                    CP:  3.00D+00  3.00D+00  3.00D+00  2.83D+00  2.22D+00
                    CP:  2.84D+00  2.21D+00  1.78D+00
 E= -2831.32622138530     Delta-E=       -0.000000482334 Rises=F Damp=F
 DIIS: error= 7.64D-06 at cycle  19 NSaved=  19.
 NSaved=19 IEnMin=19 EnMin= -2831.32622138530     IErMin=19 ErrMin= 7.64D-06
 ErrMax= 7.64D-06  0.00D+00 EMaxC= 1.00D-01 BMatC= 7.26D-08 BMatP= 1.93D-07
 IDIUse=1 WtCom= 1.00D+00 WtEn= 0.00D+00
 Coeff-Com: -0.553D-04 0.776D-04-0.760D-04-0.308D-05-0.374D-03-0.473D-04
 Coeff-Com:  0.967D-03 0.298D-02-0.175D-03-0.677D-02-0.909D-02-0.100D-01
 Coeff-Com:  0.245D-01 0.400D-01-0.130D-01-0.131D+00-0.230D+00 0.341D+00
 Coeff-Com:  0.991D+00
 Coeff:     -0.553D-04 0.776D-04-0.760D-04-0.308D-05-0.374D-03-0.473D-04
 Coeff:      0.967D-03 0.298D-02-0.175D-03-0.677D-02-0.909D-02-0.100D-01
 Coeff:      0.245D-01 0.400D-01-0.130D-01-0.131D+00-0.230D+00 0.341D+00
 Coeff:      0.991D+00
 Gap=     0.334 Goal=   None    Shift=    0.000
 Gap=     0.142 Goal=   None    Shift=    0.000
 RMSDP=2.02D-06 MaxDP=2.48D-04 DE=-4.82D-07 OVMax= 8.73D-04

 Cycle  20  Pass 1  IDiag  1:
 RMSU=  4.67D-07    CP:  1.00D+00  2.29D+00  6.53D-01 -4.41D-02  8.97D-01
                    CP:  1.27D+00  2.36D+00  3.00D+00  3.00D+00  3.00D+00
                    CP:  3.00D+00  3.00D+00  3.00D+00  2.88D+00  2.28D+00
                    CP:  3.00D+00  2.72D+00  2.66D+00  1.74D+00
 E= -2831.32622169455     Delta-E=       -0.000000309257 Rises=F Damp=F
 DIIS: error= 5.78D-06 at cycle  20 NSaved=  20.
 NSaved=20 IEnMin=20 EnMin= -2831.32622169455     IErMin=20 ErrMin= 5.78D-06
 ErrMax= 5.78D-06  0.00D+00 EMaxC= 1.00D-01 BMatC= 3.82D-08 BMatP= 7.26D-08
 IDIUse=1 WtCom= 1.00D+00 WtEn= 0.00D+00
 Coeff-Com: -0.602D-04 0.816D-04-0.326D-04 0.300D-04 0.122D-03 0.207D-02
 Coeff-Com: -0.174D-02-0.941D-02 0.301D-03 0.314D-01 0.160D-01-0.393D-01
 Coeff-Com: -0.499D-01 0.518D-02 0.162D+00 0.525D-01-0.442D+00-0.422D+00
 Coeff-Com:  0.395D+00 0.130D+01
 Coeff:     -0.602D-04 0.816D-04-0.326D-04 0.300D-04 0.122D-03 0.207D-02
 Coeff:     -0.174D-02-0.941D-02 0.301D-03 0.314D-01 0.160D-01-0.393D-01
 Coeff:     -0.499D-01 0.518D-02 0.162D+00 0.525D-01-0.442D+00-0.422D+00
 Coeff:      0.395D+00 0.130D+01
 Gap=     0.334 Goal=   None    Shift=    0.000
 Gap=     0.142 Goal=   None    Shift=    0.000
 RMSDP=2.35D-06 MaxDP=2.54D-04 DE=-3.09D-07 OVMax= 9.48D-04

 Cycle  21  Pass 1  IDiag  1:
 Restarting incremental Fock formation.
 E= -2831.32622194234     Delta-E=       -0.000000247788 Rises=F Damp=F
 DIIS: error= 3.48D-06 at cycle  21 NSaved=  20.
 NSaved=20 IEnMin=20 EnMin= -2831.32622194234     IErMin=20 ErrMin= 3.48D-06
 ErrMax= 3.48D-06  0.00D+00 EMaxC= 1.00D-01 BMatC= 1.83D-08 BMatP= 3.82D-08
 IDIUse=1 WtCom= 1.00D+00 WtEn= 0.00D+00
 Coeff-Com: -0.746D-05-0.753D-05 0.366D-04 0.250D-03 0.354D-03-0.572D-03
 Coeff-Com: -0.159D-02-0.130D-02 0.934D-02 0.103D-02 0.126D-01-0.281D-01
 Coeff-Com: -0.327D-01 0.410D-01 0.107D+00-0.134D-02-0.244D+00-0.506D+00
 Coeff-Com:  0.335D+00 0.131D+01
 Coeff:     -0.746D-05-0.753D-05 0.366D-04 0.250D-03 0.354D-03-0.572D-03
 Coeff:     -0.159D-02-0.130D-02 0.934D-02 0.103D-02 0.126D-01-0.281D-01
 Coeff:     -0.327D-01 0.410D-01 0.107D+00-0.134D-02-0.244D+00-0.506D+00
 Coeff:      0.335D+00 0.131D+01
 Gap=     0.334 Goal=   None    Shift=    0.000
 Gap=     0.142 Goal=   None    Shift=    0.000
 RMSDP=1.89D-06 MaxDP=1.98D-04 DE=-2.48D-07 OVMax= 7.62D-04

 Cycle  22  Pass 1  IDiag  1:
 RMSU=  1.89D-06    CP:  1.00D+00
 E= -2831.32622204778     Delta-E=       -0.000000105434 Rises=F Damp=F
 DIIS: error= 1.66D-06 at cycle  22 NSaved=  20.
 NSaved=20 IEnMin=20 EnMin= -2831.32622204778     IErMin=20 ErrMin= 1.66D-06
 ErrMax= 1.66D-06  0.00D+00 EMaxC= 1.00D-01 BMatC= 5.56D-09 BMatP= 1.83D-08
 IDIUse=1 WtCom= 1.00D+00 WtEn= 0.00D+00
 Coeff-Com: -0.689D-05 0.280D-04 0.163D-04-0.520D-03 0.665D-03 0.339D-02
 Coeff-Com: -0.177D-02-0.867D-02-0.659D-02 0.286D-01 0.359D-02-0.241D-01
 Coeff-Com: -0.506D-01 0.374D-01 0.168D+00 0.959D-01-0.359D+00-0.366D+00
 Coeff-Com:  0.435D+00 0.104D+01
 Coeff:     -0.689D-05 0.280D-04 0.163D-04-0.520D-03 0.665D-03 0.339D-02
 Coeff:     -0.177D-02-0.867D-02-0.659D-02 0.286D-01 0.359D-02-0.241D-01
 Coeff:     -0.506D-01 0.374D-01 0.168D+00 0.959D-01-0.359D+00-0.366D+00
 Coeff:      0.435D+00 0.104D+01
 Gap=     0.334 Goal=   None    Shift=    0.000
 Gap=     0.142 Goal=   None    Shift=    0.000
 RMSDP=8.67D-07 MaxDP=9.27D-05 DE=-1.05D-07 OVMax= 3.51D-04

 Cycle  23  Pass 1  IDiag  1:
 RMSU=  1.30D-07    CP:  1.00D+00  1.45D+00
 E= -2831.32622206827     Delta-E=       -0.000000020493 Rises=F Damp=F
 DIIS: error= 6.87D-07 at cycle  23 NSaved=  20.
 NSaved=20 IEnMin=20 EnMin= -2831.32622206827     IErMin=20 ErrMin= 6.87D-07
 ErrMax= 6.87D-07  0.00D+00 EMaxC= 1.00D-01 BMatC= 2.01D-09 BMatP= 5.56D-09
 IDIUse=1 WtCom= 1.00D+00 WtEn= 0.00D+00
 Coeff-Com:  0.170D-04-0.721D-04-0.286D-03 0.389D-03 0.175D-02-0.354D-03
 Coeff-Com: -0.580D-02-0.273D-02 0.881D-02 0.826D-02-0.248D-02-0.309D-01
 Coeff-Com: -0.107D-01 0.575D-01 0.112D+00 0.142D-02-0.209D+00-0.247D+00
 Coeff-Com:  0.423D+00 0.896D+00
 Coeff:      0.170D-04-0.721D-04-0.286D-03 0.389D-03 0.175D-02-0.354D-03
 Coeff:     -0.580D-02-0.273D-02 0.881D-02 0.826D-02-0.248D-02-0.309D-01
 Coeff:     -0.107D-01 0.575D-01 0.112D+00 0.142D-02-0.209D+00-0.247D+00
 Coeff:      0.423D+00 0.896D+00
 Gap=     0.334 Goal=   None    Shift=    0.000
 Gap=     0.142 Goal=   None    Shift=    0.000
 RMSDP=2.84D-07 MaxDP=3.15D-05 DE=-2.05D-08 OVMax= 1.01D-04

 Cycle  24  Pass 1  IDiag  1:
 RMSU=  5.92D-08    CP:  1.00D+00  1.60D+00  1.63D+00
 E= -2831.32622207179     Delta-E=       -0.000000003522 Rises=F Damp=F
 DIIS: error= 3.22D-07 at cycle  24 NSaved=  20.
 NSaved=20 IEnMin=20 EnMin= -2831.32622207179     IErMin=20 ErrMin= 3.22D-07
 ErrMax= 3.22D-07  0.00D+00 EMaxC= 1.00D-01 BMatC= 5.87D-10 BMatP= 2.01D-09
 IDIUse=1 WtCom= 1.00D+00 WtEn= 0.00D+00
 Coeff-Com: -0.395D-04 0.909D-05-0.448D-04-0.188D-03 0.460D-03 0.251D-03
 Coeff-Com:  0.562D-03-0.458D-02 0.248D-02 0.557D-02 0.318D-02-0.122D-01
 Coeff-Com: -0.330D-01 0.148D-01 0.808D-01 0.614D-01-0.196D+00-0.163D+00
 Coeff-Com:  0.225D+00 0.101D+01
 Coeff:     -0.395D-04 0.909D-05-0.448D-04-0.188D-03 0.460D-03 0.251D-03
 Coeff:      0.562D-03-0.458D-02 0.248D-02 0.557D-02 0.318D-02-0.122D-01
 Coeff:     -0.330D-01 0.148D-01 0.808D-01 0.614D-01-0.196D+00-0.163D+00
 Coeff:      0.225D+00 0.101D+01
 Gap=     0.334 Goal=   None    Shift=    0.000
 Gap=     0.142 Goal=   None    Shift=    0.000
 RMSDP=1.05D-07 MaxDP=1.03D-05 DE=-3.52D-09 OVMax= 3.83D-05

 Cycle  25  Pass 1  IDiag  1:
 RMSU=  3.75D-08    CP:  1.00D+00  1.63D+00  2.04D+00  1.78D+00
 E= -2831.32622207273     Delta-E=       -0.000000000942 Rises=F Damp=F
 DIIS: error= 2.00D-07 at cycle  25 NSaved=  20.
 NSaved=20 IEnMin=20 EnMin= -2831.32622207273     IErMin=20 ErrMin= 2.00D-07
 ErrMax= 2.00D-07  0.00D+00 EMaxC= 1.00D-01 BMatC= 1.34D-10 BMatP= 5.87D-10
 IDIUse=1 WtCom= 1.00D+00 WtEn= 0.00D+00
 Coeff-Com:  0.355D-04-0.371D-04-0.158D-03 0.180D-03 0.842D-03 0.544D-04
 Coeff-Com: -0.202D-02-0.562D-03 0.191D-02 0.500D-02 0.604D-03-0.208D-01
 Coeff-Com: -0.776D-02 0.291D-02 0.609D-01 0.882D-02-0.102D+00-0.176D+00
 Coeff-Com:  0.903D-01 0.114D+01
 Coeff:      0.355D-04-0.371D-04-0.158D-03 0.180D-03 0.842D-03 0.544D-04
 Coeff:     -0.202D-02-0.562D-03 0.191D-02 0.500D-02 0.604D-03-0.208D-01
 Coeff:     -0.776D-02 0.291D-02 0.609D-01 0.882D-02-0.102D+00-0.176D+00
 Coeff:      0.903D-01 0.114D+01
 Gap=     0.334 Goal=   None    Shift=    0.000
 Gap=     0.142 Goal=   None    Shift=    0.000
 RMSDP=5.85D-08 MaxDP=6.70D-06 DE=-9.42D-10 OVMax= 2.45D-05

 Cycle  26  Pass 1  IDiag  1:
 RMSU=  2.15D-08    CP:  1.00D+00  1.64D+00  2.28D+00  2.37D+00  1.72D+00
 E= -2831.32622207310     Delta-E=       -0.000000000362 Rises=F Damp=F
 DIIS: error= 1.49D-07 at cycle  26 NSaved=  20.
 NSaved=20 IEnMin=20 EnMin= -2831.32622207310     IErMin=20 ErrMin= 1.49D-07
 ErrMax= 1.49D-07  0.00D+00 EMaxC= 1.00D-01 BMatC= 6.76D-11 BMatP= 1.34D-10
 IDIUse=1 WtCom= 1.00D+00 WtEn= 0.00D+00
 Coeff-Com:  0.348D-04 0.864D-04-0.856D-04-0.134D-03-0.271D-03 0.705D-03
 Coeff-Com: -0.496D-03-0.573D-03-0.248D-03 0.322D-02 0.101D-02 0.197D-02
 Coeff-Com: -0.263D-01 0.240D-02 0.457D-01 0.306D-01-0.116D+00-0.335D+00
 Coeff-Com:  0.294D+00 0.110D+01
 Coeff:      0.348D-04 0.864D-04-0.856D-04-0.134D-03-0.271D-03 0.705D-03
 Coeff:     -0.496D-03-0.573D-03-0.248D-03 0.322D-02 0.101D-02 0.197D-02
 Coeff:     -0.263D-01 0.240D-02 0.457D-01 0.306D-01-0.116D+00-0.335D+00
 Coeff:      0.294D+00 0.110D+01
 Gap=     0.334 Goal=   None    Shift=    0.000
 Gap=     0.142 Goal=   None    Shift=    0.000
 RMSDP=4.80D-08 MaxDP=7.33D-06 DE=-3.62D-10 OVMax= 2.10D-05

 Cycle  27  Pass 1  IDiag  1:
 RMSU=  2.37D-08    CP:  1.00D+00  1.65D+00  2.45D+00  2.69D+00  2.12D+00
                    CP:  1.62D+00
 E= -2831.32622207305     Delta-E=        0.000000000045 Rises=F Damp=F
 DIIS: error= 9.51D-08 at cycle  27 NSaved=  20.
 NSaved=20 IEnMin=19 EnMin= -2831.32622207310     IErMin=20 ErrMin= 9.51D-08
 ErrMax= 9.51D-08  0.00D+00 EMaxC= 1.00D-01 BMatC= 2.43D-11 BMatP= 6.76D-11
 IDIUse=1 WtCom= 1.00D+00 WtEn= 0.00D+00
 Coeff-Com: -0.209D-04-0.713D-04-0.169D-03-0.178D-04 0.532D-03-0.871D-04
 Coeff-Com: -0.655D-03-0.225D-02 0.111D-02 0.886D-02 0.830D-02-0.182D-01
 Coeff-Com: -0.236D-01 0.137D-01 0.649D-01 0.259D-01-0.191D+00-0.382D+00
 Coeff-Com:  0.481D+00 0.101D+01
 Coeff:     -0.209D-04-0.713D-04-0.169D-03-0.178D-04 0.532D-03-0.871D-04
 Coeff:     -0.655D-03-0.225D-02 0.111D-02 0.886D-02 0.830D-02-0.182D-01
 Coeff:     -0.236D-01 0.137D-01 0.649D-01 0.259D-01-0.191D+00-0.382D+00
 Coeff:      0.481D+00 0.101D+01
 Gap=     0.334 Goal=   None    Shift=    0.000
 Gap=     0.142 Goal=   None    Shift=    0.000
 RMSDP=3.93D-08 MaxDP=6.17D-06 DE= 4.55D-11 OVMax= 1.57D-05

 Cycle  28  Pass 1  IDiag  1:
 RMSU=  7.34D-09    CP:  1.00D+00  1.66D+00  2.56D+00  2.84D+00  2.27D+00
                    CP:  2.12D+00  2.06D+00
 E= -2831.32622207310     Delta-E=       -0.000000000049 Rises=F Damp=F
 DIIS: error= 3.85D-08 at cycle  28 NSaved=  20.
 NSaved=20 IEnMin=20 EnMin= -2831.32622207310     IErMin=20 ErrMin= 3.85D-08
 ErrMax= 3.85D-08  0.00D+00 EMaxC= 1.00D-01 BMatC= 9.55D-12 BMatP= 2.43D-11
 IDIUse=1 WtCom= 1.00D+00 WtEn= 0.00D+00
 Coeff-Com:  0.155D-04-0.155D-03 0.628D-04-0.620D-04 0.549D-03 0.172D-03
 Coeff-Com: -0.133D-02-0.103D-02 0.253D-02 0.470D-02-0.567D-03-0.831D-02
 Coeff-Com: -0.107D-01 0.156D-01 0.388D-01 0.227D-01-0.192D+00-0.144D+00
 Coeff-Com:  0.294D+00 0.979D+00
 Coeff:      0.155D-04-0.155D-03 0.628D-04-0.620D-04 0.549D-03 0.172D-03
 Coeff:     -0.133D-02-0.103D-02 0.253D-02 0.470D-02-0.567D-03-0.831D-02
 Coeff:     -0.107D-01 0.156D-01 0.388D-01 0.227D-01-0.192D+00-0.144D+00
 Coeff:      0.294D+00 0.979D+00
 Gap=     0.334 Goal=   None    Shift=    0.000
 Gap=     0.142 Goal=   None    Shift=    0.000
 RMSDP=1.59D-08 MaxDP=1.70D-06 DE=-4.91D-11 OVMax= 5.44D-06

 Cycle  29  Pass 1  IDiag  1:
 RMSU=  5.15D-09    CP:  1.00D+00  1.66D+00  2.60D+00  2.95D+00  2.47D+00
                    CP:  2.46D+00  2.15D+00  9.61D-01
 E= -2831.32622207305     Delta-E=        0.000000000045 Rises=F Damp=F
 DIIS: error= 1.70D-08 at cycle  29 NSaved=  20.
 NSaved=20 IEnMin=19 EnMin= -2831.32622207310     IErMin=20 ErrMin= 1.70D-08
 ErrMax= 1.70D-08  0.00D+00 EMaxC= 1.00D-01 BMatC= 2.01D-12 BMatP= 9.55D-12
 IDIUse=1 WtCom= 1.00D+00 WtEn= 0.00D+00
 Coeff-Com: -0.404D-04 0.417D-04-0.160D-03 0.244D-03 0.319D-03-0.413D-03
 Coeff-Com: -0.794D-03-0.140D-03 0.257D-02 0.187D-02-0.192D-02-0.875D-02
 Coeff-Com:  0.235D-02 0.196D-01 0.342D-01-0.394D-01-0.128D+00-0.363D-01
 Coeff-Com:  0.331D+00 0.824D+00
 Coeff:     -0.404D-04 0.417D-04-0.160D-03 0.244D-03 0.319D-03-0.413D-03
 Coeff:     -0.794D-03-0.140D-03 0.257D-02 0.187D-02-0.192D-02-0.875D-02
 Coeff:      0.235D-02 0.196D-01 0.342D-01-0.394D-01-0.128D+00-0.363D-01
 Coeff:      0.331D+00 0.824D+00
 Gap=     0.334 Goal=   None    Shift=    0.000
 Gap=     0.142 Goal=   None    Shift=    0.000
 RMSDP=5.89D-09 MaxDP=8.04D-07 DE= 4.55D-11 OVMax= 2.18D-06

 Error on total polarization charges =  0.00095
 SCF Done:  E(UCAM-B3LYP) =  -2831.32622207     A.U. after   29 cycles
            NFock= 29  Conv=0.59D-08     -V/T= 2.0074
 <Sx>= 0.0000 <Sy>= 0.0000 <Sz>= 0.5000 <S**2>= 0.7716 S= 0.5108
 <L.S>= 0.000000000000E+00
 KE= 2.810449114506D+03 PE=-1.795984063406D+04 EE= 6.665605463424D+03
 Annihilation of the first spin contaminant:
 S**2 before annihilation     0.7716,   after     0.7503
 Leave Link  502 at Sun Mar  3 17:33:03 2024, MaxMem=  5368709120 cpu:      2829.4
 (Enter /home/k0335/k033513/app/g09/l601.exe)
 Copying SCF densities to generalized density rwf, IOpCl= 1 IROHF=0.

 **********************************************************************

            Population analysis using the SCF density.

 **********************************************************************

 Alpha  occ. eigenvalues --  -24.88222 -24.88148 -24.87640 -24.87521 -24.87028
 Alpha  occ. eigenvalues --  -24.86896 -24.86588 -24.86572 -24.86517 -24.86086
 Alpha  occ. eigenvalues --  -24.86065 -24.85871 -24.85740 -24.85446 -24.85399
 Alpha  occ. eigenvalues --  -24.85283 -24.85212 -24.85146 -19.51082 -19.37750
 Alpha  occ. eigenvalues --  -19.36855 -19.35869 -19.35833 -19.31472 -14.75278
 Alpha  occ. eigenvalues --  -14.62078 -14.61435 -10.61759 -10.61669 -10.59205
 Alpha  occ. eigenvalues --  -10.58844 -10.58804 -10.58490 -10.57889 -10.57213
 Alpha  occ. eigenvalues --  -10.54118 -10.52989 -10.52767  -1.46143  -1.45499
 Alpha  occ. eigenvalues --   -1.44829  -1.44813  -1.43651  -1.43433  -1.41544
 Alpha  occ. eigenvalues --   -1.39264  -1.39258  -1.37065  -1.36393  -1.36150
 Alpha  occ. eigenvalues --   -1.36055  -1.35821  -1.35602  -1.35532  -1.34904
 Alpha  occ. eigenvalues --   -1.34878  -1.34787  -1.30960  -1.29616  -1.26338
 Alpha  occ. eigenvalues --   -1.23301  -1.23254  -1.20575  -1.17341  -1.15066
 Alpha  occ. eigenvalues --   -0.98471  -0.97988  -0.95245  -0.91841  -0.89431
 Alpha  occ. eigenvalues --   -0.87347  -0.85535  -0.85086  -0.83485  -0.82099
 Alpha  occ. eigenvalues --   -0.79898  -0.79665  -0.77486  -0.76968  -0.76374
 Alpha  occ. eigenvalues --   -0.75304  -0.75133  -0.74238  -0.73655  -0.73175
 Alpha  occ. eigenvalues --   -0.72408  -0.71989  -0.71837  -0.71700  -0.71273
 Alpha  occ. eigenvalues --   -0.70780  -0.70596  -0.69972  -0.69251  -0.68836
 Alpha  occ. eigenvalues --   -0.68640  -0.67730  -0.66956  -0.65990  -0.64576
 Alpha  occ. eigenvalues --   -0.64340  -0.63404  -0.62825  -0.61721  -0.60950
 Alpha  occ. eigenvalues --   -0.60518  -0.60328  -0.60180  -0.59896  -0.59771
 Alpha  occ. eigenvalues --   -0.59478  -0.59341  -0.58730  -0.58363  -0.58337
 Alpha  occ. eigenvalues --   -0.58090  -0.57760  -0.57520  -0.57166  -0.57089
 Alpha  occ. eigenvalues --   -0.56195  -0.55914  -0.55595  -0.55438  -0.55282
 Alpha  occ. eigenvalues --   -0.55100  -0.54717  -0.54500  -0.54030  -0.53839
 Alpha  occ. eigenvalues --   -0.53745  -0.53683  -0.53466  -0.53094  -0.52633
 Alpha  occ. eigenvalues --   -0.52442  -0.52259  -0.52048  -0.51743  -0.51674
 Alpha  occ. eigenvalues --   -0.51364  -0.50241  -0.49511  -0.49220  -0.48319
 Alpha  occ. eigenvalues --   -0.47805  -0.47111  -0.45796  -0.44279
 Alpha virt. eigenvalues --   -0.10907  -0.08743  -0.07410  -0.00385   0.00935
 Alpha virt. eigenvalues --    0.01869   0.03691   0.04830   0.05850   0.08680
 Alpha virt. eigenvalues --    0.10759   0.11257   0.12356   0.12743   0.15703
 Alpha virt. eigenvalues --    0.16022   0.16254   0.17209   0.17314   0.18014
 Alpha virt. eigenvalues --    0.19458   0.20152   0.20547   0.20677   0.20972
 Alpha virt. eigenvalues --    0.21215   0.21398   0.21813   0.22506   0.23410
 Alpha virt. eigenvalues --    0.23755   0.24694   0.25117   0.26901   0.27868
 Alpha virt. eigenvalues --    0.28740   0.29447   0.30132   0.30342   0.31635
 Alpha virt. eigenvalues --    0.33489   0.39002   0.40698   0.43325   0.44718
 Alpha virt. eigenvalues --    0.45273   0.46353   0.47013   0.47283   0.48224
 Alpha virt. eigenvalues --    0.48784   0.48952   0.49953   0.50465   0.51165
 Alpha virt. eigenvalues --    0.52033   0.52198   0.52290   0.52802   0.53214
 Alpha virt. eigenvalues --    0.54224   0.55227   0.55699   0.56107   0.56591
 Alpha virt. eigenvalues --    0.57740   0.58737   0.59549   0.61359   0.62092
 Alpha virt. eigenvalues --    0.64625   0.65139   0.67379   0.67941   0.68733
 Alpha virt. eigenvalues --    0.69484   0.70923   0.73244   0.73757   0.75016
 Alpha virt. eigenvalues --    0.76341   0.77003   0.78877   0.79739   0.80568
 Alpha virt. eigenvalues --    0.81056   0.84177   0.85277   0.85674   0.86447
 Alpha virt. eigenvalues --    0.87920   0.89002   0.90028   0.92461   0.94034
 Alpha virt. eigenvalues --    0.94983   0.95843   0.97734   0.97896   0.98611
 Alpha virt. eigenvalues --    1.00305   1.00505   1.01301   1.01973   1.03169
 Alpha virt. eigenvalues --    1.04004   1.05282   1.05838   1.06387   1.07902
 Alpha virt. eigenvalues --    1.08188   1.08210   1.09068   1.10328   1.10548
 Alpha virt. eigenvalues --    1.11293   1.11692   1.12407   1.13095   1.14126
 Alpha virt. eigenvalues --    1.14369   1.15346   1.15773   1.16134   1.16658
 Alpha virt. eigenvalues --    1.17545   1.18205   1.18949   1.19065   1.19495
 Alpha virt. eigenvalues --    1.20114   1.22008   1.22370   1.24170   1.24966
 Alpha virt. eigenvalues --    1.25613   1.26541   1.27258   1.27609   1.28010
 Alpha virt. eigenvalues --    1.28521   1.29068   1.29482   1.30493   1.30667
 Alpha virt. eigenvalues --    1.31418   1.31955   1.32634   1.33114   1.33382
 Alpha virt. eigenvalues --    1.34729   1.34942   1.35347   1.35966   1.36404
 Alpha virt. eigenvalues --    1.36512   1.37036   1.37583   1.38051   1.38512
 Alpha virt. eigenvalues --    1.38592   1.39167   1.40082   1.40367   1.41438
 Alpha virt. eigenvalues --    1.41952   1.42684   1.43109   1.43537   1.44472
 Alpha virt. eigenvalues --    1.45197   1.45520   1.45939   1.47338   1.48253
 Alpha virt. eigenvalues --    1.48488   1.49648   1.50301   1.50444   1.50979
 Alpha virt. eigenvalues --    1.51434   1.52426   1.52689   1.53193   1.55005
 Alpha virt. eigenvalues --    1.55564   1.55667   1.56812   1.58281   1.58548
 Alpha virt. eigenvalues --    1.60127   1.61431   1.62473   1.63078   1.63727
 Alpha virt. eigenvalues --    1.64648   1.65481   1.66801   1.66977   1.67441
 Alpha virt. eigenvalues --    1.67933   1.68325   1.69009   1.69875   1.70324
 Alpha virt. eigenvalues --    1.70727   1.72165   1.72715   1.73277   1.73848
 Alpha virt. eigenvalues --    1.74819   1.75388   1.76064   1.76989   1.78103
 Alpha virt. eigenvalues --    1.78470   1.79495   1.79942   1.80493   1.80752
 Alpha virt. eigenvalues --    1.81302   1.81948   1.82489   1.82554   1.83266
 Alpha virt. eigenvalues --    1.83587   1.84015   1.84341   1.85112   1.85573
 Alpha virt. eigenvalues --    1.85844   1.86332   1.86802   1.87310   1.87617
 Alpha virt. eigenvalues --    1.87799   1.88180   1.88850   1.89473   1.89733
 Alpha virt. eigenvalues --    1.89961   1.90661   1.91385   1.91667   1.92866
 Alpha virt. eigenvalues --    1.93101   1.93383   1.94566   1.95325   1.95728
 Alpha virt. eigenvalues --    1.95838   1.96565   1.96721   1.96976   1.97350
 Alpha virt. eigenvalues --    1.97844   1.98575   1.99293   1.99642   1.99918
 Alpha virt. eigenvalues --    2.00212   2.00479   2.00960   2.01252   2.01566
 Alpha virt. eigenvalues --    2.02020   2.03166   2.03353   2.04338   2.04927
 Alpha virt. eigenvalues --    2.05547   2.06265   2.06602   2.07211   2.07410
 Alpha virt. eigenvalues --    2.07981   2.08339   2.09269   2.10076   2.10956
 Alpha virt. eigenvalues --    2.11418   2.11828   2.12675   2.14862   2.15738
 Alpha virt. eigenvalues --    2.16086   2.16419   2.17071   2.17765   2.18472
 Alpha virt. eigenvalues --    2.19676   2.20056   2.21974   2.22419   2.23748
 Alpha virt. eigenvalues --    2.25023   2.25134   2.26470   2.26597   2.26728
 Alpha virt. eigenvalues --    2.27819   2.29033   2.29587   2.31723   2.33050
 Alpha virt. eigenvalues --    2.34562   2.36814   2.37240   2.38087   2.38379
 Alpha virt. eigenvalues --    2.40022   2.40569   2.41771   2.43295   2.43755
 Alpha virt. eigenvalues --    2.44311   2.45143   2.47338   2.48095   2.48706
 Alpha virt. eigenvalues --    2.50275   2.51969   2.52593   2.53883   2.54971
 Alpha virt. eigenvalues --    2.55907   2.57387   2.58990   2.59750   2.61526
 Alpha virt. eigenvalues --    2.61823   2.62351   2.63455   2.65097   2.66030
 Alpha virt. eigenvalues --    2.66502   2.70082   2.71563   2.72923   2.75191
 Alpha virt. eigenvalues --    2.75493   2.76263   2.76926   2.78809   2.79800
 Alpha virt. eigenvalues --    2.80371   2.82039   2.82778   2.84821   2.85089
 Alpha virt. eigenvalues --    2.85568   2.87936   2.88130   2.88445   2.88941
 Alpha virt. eigenvalues --    2.89313   2.90708   2.91731   2.93272   2.94970
 Alpha virt. eigenvalues --    2.96353   2.96820   2.97930   3.02124   3.02435
 Alpha virt. eigenvalues --    3.03989   3.04539   3.04843   3.06250   3.07330
 Alpha virt. eigenvalues --    3.08579   3.08818   3.09493   3.12180   3.12645
 Alpha virt. eigenvalues --    3.15226   3.17145   3.19963   3.21997   3.24191
 Alpha virt. eigenvalues --    3.25811   3.27348   3.28226   3.31448   3.32382
 Alpha virt. eigenvalues --    3.34048   3.36039   3.44546   3.71587   3.97094
 Alpha virt. eigenvalues --    3.99678   4.01962   4.09548   4.16408   4.20189
 Alpha virt. eigenvalues --    4.23594   4.27509   4.29788   4.33507   4.37354
 Alpha virt. eigenvalues --    4.39476   4.42116   4.43813   4.50246   4.52014
 Alpha virt. eigenvalues --    4.55779   4.59011   4.62941   4.65189   4.68006
 Alpha virt. eigenvalues --    4.82577   4.84046   4.94558   5.00220   5.12492
 Alpha virt. eigenvalues --    5.21542   5.32846   5.42947   5.50526   5.57108
 Alpha virt. eigenvalues --    5.61261   5.84066   6.21675   6.26533   6.35004
 Alpha virt. eigenvalues --    6.39974
  Beta  occ. eigenvalues --  -24.88218 -24.88142 -24.87640 -24.87520 -24.87024
  Beta  occ. eigenvalues --  -24.86896 -24.86587 -24.86567 -24.86516 -24.86086
  Beta  occ. eigenvalues --  -24.86065 -24.85871 -24.85740 -24.85446 -24.85399
  Beta  occ. eigenvalues --  -24.85283 -24.85212 -24.85146 -19.50093 -19.37332
  Beta  occ. eigenvalues --  -19.36301 -19.35868 -19.35833 -19.31449 -14.74121
  Beta  occ. eigenvalues --  -14.62060 -14.61463 -10.61758 -10.61669 -10.59205
  Beta  occ. eigenvalues --  -10.58846 -10.58804 -10.58490 -10.58058 -10.57415
  Beta  occ. eigenvalues --  -10.54130 -10.52988 -10.52768  -1.46140  -1.45497
  Beta  occ. eigenvalues --   -1.44829  -1.44812  -1.43622  -1.43426  -1.39705
  Beta  occ. eigenvalues --   -1.39255  -1.39251  -1.37056  -1.36389  -1.36144
  Beta  occ. eigenvalues --   -1.36049  -1.35816  -1.35602  -1.35532  -1.34903
  Beta  occ. eigenvalues --   -1.34877  -1.34785  -1.30285  -1.28933  -1.25779
  Beta  occ. eigenvalues --   -1.23299  -1.23251  -1.19604  -1.17137  -1.13597
  Beta  occ. eigenvalues --   -0.98389  -0.97895  -0.94862  -0.91806  -0.89050
  Beta  occ. eigenvalues --   -0.87216  -0.85481  -0.85022  -0.83483  -0.81836
  Beta  occ. eigenvalues --   -0.79811  -0.79323  -0.77088  -0.76661  -0.75750
  Beta  occ. eigenvalues --   -0.75225  -0.74253  -0.73849  -0.73336  -0.72692
  Beta  occ. eigenvalues --   -0.72314  -0.71908  -0.71795  -0.71607  -0.71251
  Beta  occ. eigenvalues --   -0.70714  -0.70560  -0.69757  -0.69182  -0.68790
  Beta  occ. eigenvalues --   -0.68556  -0.66823  -0.66476  -0.64340  -0.63860
  Beta  occ. eigenvalues --   -0.63694  -0.63201  -0.62657  -0.61631  -0.60551
  Beta  occ. eigenvalues --   -0.60402  -0.60122  -0.59952  -0.59851  -0.59456
  Beta  occ. eigenvalues --   -0.59289  -0.58879  -0.58336  -0.58275  -0.58084
  Beta  occ. eigenvalues --   -0.58009  -0.57571  -0.57210  -0.57101  -0.56147
  Beta  occ. eigenvalues --   -0.55989  -0.55722  -0.55534  -0.55297  -0.55120
  Beta  occ. eigenvalues --   -0.54958  -0.54703  -0.54305  -0.53848  -0.53790
  Beta  occ. eigenvalues --   -0.53714  -0.53579  -0.53418  -0.53009  -0.52518
  Beta  occ. eigenvalues --   -0.52255  -0.52034  -0.51809  -0.51698  -0.50801
  Beta  occ. eigenvalues --   -0.49778  -0.49129  -0.49022  -0.48005  -0.47703
  Beta  occ. eigenvalues --   -0.46698  -0.45134  -0.44173
  Beta virt. eigenvalues --   -0.29973  -0.09857  -0.07327  -0.06089   0.00396
  Beta virt. eigenvalues --    0.00979   0.01884   0.03763   0.04925   0.06266
  Beta virt. eigenvalues --    0.08715   0.10830   0.11619   0.12366   0.12815
  Beta virt. eigenvalues --    0.15687   0.16124   0.16287   0.17225   0.17322
  Beta virt. eigenvalues --    0.18072   0.19470   0.20174   0.20552   0.20681
  Beta virt. eigenvalues --    0.20991   0.21218   0.21400   0.21818   0.22516
  Beta virt. eigenvalues --    0.23422   0.23778   0.24732   0.25130   0.26937
  Beta virt. eigenvalues --    0.27936   0.28837   0.29524   0.30153   0.30354
  Beta virt. eigenvalues --    0.31671   0.33618   0.38943   0.40771   0.43413
  Beta virt. eigenvalues --    0.44723   0.45333   0.46446   0.47095   0.47462
  Beta virt. eigenvalues --    0.48229   0.48793   0.49057   0.49973   0.50496
  Beta virt. eigenvalues --    0.51200   0.52040   0.52210   0.52317   0.52861
  Beta virt. eigenvalues --    0.53246   0.54245   0.55227   0.55701   0.56193
  Beta virt. eigenvalues --    0.56733   0.57748   0.58807   0.59598   0.61389
  Beta virt. eigenvalues --    0.62185   0.65253   0.65765   0.67579   0.68128
  Beta virt. eigenvalues --    0.68842   0.69561   0.71015   0.73393   0.74172
  Beta virt. eigenvalues --    0.75367   0.76765   0.77226   0.79279   0.79995
  Beta virt. eigenvalues --    0.80798   0.81725   0.84307   0.85665   0.86449
  Beta virt. eigenvalues --    0.86679   0.88827   0.89186   0.90310   0.92861
  Beta virt. eigenvalues --    0.94244   0.95287   0.96253   0.97900   0.98071
  Beta virt. eigenvalues --    0.98720   1.00499   1.00750   1.01321   1.02139
  Beta virt. eigenvalues --    1.03402   1.04135   1.05431   1.05907   1.06493
  Beta virt. eigenvalues --    1.07975   1.08282   1.08303   1.09165   1.10378
  Beta virt. eigenvalues --    1.10588   1.11389   1.11898   1.12456   1.13259
  Beta virt. eigenvalues --    1.14164   1.14456   1.15555   1.15810   1.16232
  Beta virt. eigenvalues --    1.16706   1.17606   1.18336   1.19020   1.19248
  Beta virt. eigenvalues --    1.19699   1.20526   1.22122   1.22498   1.24428
  Beta virt. eigenvalues --    1.25074   1.25677   1.26681   1.27429   1.27716
  Beta virt. eigenvalues --    1.28203   1.28589   1.29173   1.29518   1.30522
  Beta virt. eigenvalues --    1.30722   1.31459   1.32036   1.32682   1.33193
  Beta virt. eigenvalues --    1.33437   1.34767   1.34975   1.35441   1.36045
  Beta virt. eigenvalues --    1.36459   1.36665   1.37092   1.37713   1.38119
  Beta virt. eigenvalues --    1.38541   1.38671   1.39212   1.40119   1.40443
  Beta virt. eigenvalues --    1.41461   1.42013   1.42803   1.43286   1.43775
  Beta virt. eigenvalues --    1.44580   1.45451   1.45624   1.46123   1.47473
  Beta virt. eigenvalues --    1.48275   1.48562   1.49822   1.50358   1.50553
  Beta virt. eigenvalues --    1.51031   1.51665   1.52640   1.52756   1.53463
  Beta virt. eigenvalues --    1.55047   1.55735   1.55990   1.56851   1.58341
  Beta virt. eigenvalues --    1.58643   1.60156   1.61646   1.62619   1.63140
  Beta virt. eigenvalues --    1.63835   1.64710   1.65532   1.66869   1.67054
  Beta virt. eigenvalues --    1.67553   1.68093   1.68398   1.69179   1.69937
  Beta virt. eigenvalues --    1.70584   1.70787   1.72315   1.72914   1.73360
  Beta virt. eigenvalues --    1.74062   1.74985   1.75642   1.76155   1.77174
  Beta virt. eigenvalues --    1.78280   1.78934   1.79599   1.79987   1.80631
  Beta virt. eigenvalues --    1.80914   1.81476   1.82035   1.82513   1.82835
  Beta virt. eigenvalues --    1.83325   1.83653   1.84180   1.84639   1.85241
  Beta virt. eigenvalues --    1.85948   1.85994   1.86648   1.86916   1.87482
  Beta virt. eigenvalues --    1.87689   1.87929   1.88263   1.88876   1.89599
  Beta virt. eigenvalues --    1.89878   1.90042   1.90735   1.91508   1.91718
  Beta virt. eigenvalues --    1.92983   1.93263   1.93496   1.94615   1.95382
  Beta virt. eigenvalues --    1.95809   1.95873   1.96606   1.96742   1.97154
  Beta virt. eigenvalues --    1.97386   1.97854   1.98590   1.99333   1.99663
  Beta virt. eigenvalues --    1.99956   2.00221   2.00627   2.00967   2.01263
  Beta virt. eigenvalues --    2.01592   2.02024   2.03332   2.03384   2.04351
  Beta virt. eigenvalues --    2.04945   2.05597   2.06360   2.06658   2.07220
  Beta virt. eigenvalues --    2.07418   2.08000   2.08355   2.09370   2.10175
  Beta virt. eigenvalues --    2.10978   2.11540   2.11867   2.12799   2.14861
  Beta virt. eigenvalues --    2.15798   2.16414   2.16955   2.17677   2.17893
  Beta virt. eigenvalues --    2.18478   2.19886   2.20071   2.22042   2.22589
  Beta virt. eigenvalues --    2.23811   2.25039   2.25233   2.26509   2.26650
  Beta virt. eigenvalues --    2.27136   2.27874   2.29204   2.29648   2.31812
  Beta virt. eigenvalues --    2.33072   2.34600   2.36835   2.37246   2.38232
  Beta virt. eigenvalues --    2.38484   2.40107   2.40895   2.41835   2.43328
  Beta virt. eigenvalues --    2.43786   2.44379   2.45252   2.47397   2.48128
  Beta virt. eigenvalues --    2.48754   2.50467   2.52096   2.52611   2.54021
  Beta virt. eigenvalues --    2.55484   2.56065   2.57452   2.59024   2.59848
  Beta virt. eigenvalues --    2.61555   2.62072   2.62516   2.63672   2.65143
  Beta virt. eigenvalues --    2.66063   2.66759   2.70172   2.71686   2.72988
  Beta virt. eigenvalues --    2.75310   2.75770   2.76885   2.76973   2.78917
  Beta virt. eigenvalues --    2.79933   2.80415   2.82139   2.82795   2.84893
  Beta virt. eigenvalues --    2.85303   2.85889   2.88002   2.88222   2.88451
  Beta virt. eigenvalues --    2.89008   2.89423   2.90730   2.91879   2.93291
  Beta virt. eigenvalues --    2.95026   2.96424   2.96880   2.98004   3.02148
[...]
     7  N(14)             -0.00063      -0.20257      -0.07228      -0.06757
     8  C(13)             -0.00079      -0.88640      -0.31629      -0.29567
     9  F(19)             -0.00003      -0.14080      -0.05024      -0.04697
    10  F(19)              0.00189       7.95525       2.83863       2.65359
    11  C(13)              0.00000       0.00422       0.00150       0.00141
    12  F(19)              0.00009       0.39586       0.14125       0.13204
    13  O(17)              0.00026      -0.15735      -0.05615      -0.05249
    14  C(13)              0.00003       0.03183       0.01136       0.01062
    15  F(19)              0.00000      -0.00507      -0.00181      -0.00169
    16  F(19)              0.00001       0.02214       0.00790       0.00739
    17  F(19)              0.00000       0.00544       0.00194       0.00181
    18  C(13)              0.00001       0.00935       0.00334       0.00312
    19  F(19)              0.00077       3.24533       1.15802       1.08253
    20  F(19)             -0.00004      -0.18657      -0.06657      -0.06223
    21  F(19)              0.00001       0.04299       0.01534       0.01434
    22  C(13)             -0.00140      -1.57923      -0.56351      -0.52677
    23  O(17)              0.00078      -0.47424      -0.16922      -0.15819
    24  N(14)             -0.00363      -1.17264      -0.41843      -0.39115
    25  C(13)             -0.00004      -0.04281      -0.01527      -0.01428
    26  F(19)             -0.00009      -0.35894      -0.12808      -0.11973
    27  F(19)              0.00067       2.80520       1.00097       0.93572
    28  C(13)             -0.00057      -0.64483      -0.23009      -0.21509
    29  F(19)              0.00078       3.29611       1.17613       1.09946
    30  O(17)             -0.00002       0.01324       0.00472       0.00442
    31  C(13)             -0.00001      -0.00644      -0.00230      -0.00215
    32  F(19)             -0.00001      -0.04952      -0.01767      -0.01652
    33  F(19)             -0.00001      -0.03599      -0.01284      -0.01201
    34  F(19)             -0.00001      -0.03220      -0.01149      -0.01074
    35  C(13)              0.00000      -0.00297      -0.00106      -0.00099
    36  F(19)              0.00001       0.05582       0.01992       0.01862
    37  F(19)             -0.00005      -0.19087      -0.06811      -0.06367
    38  F(19)              0.00001       0.02827       0.01009       0.00943
    39  H(1)              -0.00328     -14.68354      -5.23945      -4.89790
 --------------------------------------------------------
       Center         ----  Spin Dipole Couplings  ----
                      3XX-RR        3YY-RR        3ZZ-RR
 --------------------------------------------------------
     1   Atom       -0.135621     -0.114519      0.250141
     2   Atom        0.039898      0.011204     -0.051102
     3   Atom       -0.304327      0.066624      0.237704
     4   Atom       -0.666750      0.280700      0.386050
     5   Atom        0.061976     -0.033017     -0.028959
     6   Atom       -0.302776      0.030953      0.271824
     7   Atom       -0.002715     -0.007672      0.010387
     8   Atom       -0.000761     -0.000354      0.001114
     9   Atom       -0.002526     -0.001260      0.003786
    10   Atom        0.001971     -0.007886      0.005915
    11   Atom        0.000181      0.000214     -0.000395
    12   Atom        0.000844     -0.000068     -0.000776
    13   Atom        0.000205      0.000028     -0.000233
    14   Atom        0.000195     -0.000036     -0.000159
    15   Atom        0.000337     -0.000146     -0.000192
    16   Atom        0.000116      0.000127     -0.000243
    17   Atom        0.000179     -0.000078     -0.000101
    18   Atom        0.000820      0.000363     -0.001183
    19   Atom       -0.000482      0.005334     -0.004851
    20   Atom        0.001899     -0.000755     -0.001144
    21   Atom        0.000942      0.000102     -0.001044
    22   Atom       -0.004904      0.004083      0.000820
    23   Atom       -0.008741      0.010653     -0.001912
    24   Atom       -0.000162     -0.002296      0.002458
    25   Atom       -0.001555      0.002297     -0.000742
    26   Atom        0.001304     -0.000804     -0.000500
    27   Atom       -0.003410      0.014919     -0.011509
    28   Atom       -0.000054      0.000309     -0.000255
    29   Atom        0.002876     -0.000398     -0.002478
    30   Atom        0.001044      0.000183     -0.001227
    31   Atom        0.000147      0.000446     -0.000592
    32   Atom       -0.000090      0.000503     -0.000413
    33   Atom        0.000723      0.000349     -0.001072
    34   Atom        0.000185      0.000187     -0.000372
    35   Atom       -0.000276     -0.000270      0.000546
    36   Atom       -0.000119     -0.000089      0.000207
    37   Atom       -0.000862     -0.001287      0.002149
    38   Atom        0.000005     -0.000441      0.000436
    39   Atom        0.056969     -0.026094     -0.030876
 --------------------------------------------------------
                        XY            XZ            YZ
 --------------------------------------------------------
     1   Atom        0.274189      0.413931      0.440134
     2   Atom       -0.061735     -0.073977     -0.064624
     3   Atom        0.463262      0.514378      0.765142
     4   Atom        0.265164      0.305771      1.124440
     5   Atom       -0.023780     -0.033744     -0.070207
     6   Atom        0.014949      0.029132      0.451673
     7   Atom        0.009639      0.008156      0.006914
     8   Atom        0.000948     -0.001768     -0.002431
     9   Atom       -0.000851      0.003268     -0.003087
    10   Atom        0.003279     -0.011904     -0.002465
    11   Atom        0.001380     -0.000875     -0.001014
    12   Atom        0.001666      0.000930     -0.000258
    13   Atom        0.000940     -0.000772     -0.000732
    14   Atom        0.000470     -0.000360     -0.000292
    15   Atom        0.000420     -0.000291     -0.000164
    16   Atom        0.000517     -0.000191     -0.000238
    17   Atom        0.000348     -0.000302     -0.000223
    18   Atom        0.001798     -0.000737     -0.000659
    19   Atom        0.007700      0.002061      0.003769
    20   Atom        0.001485     -0.000939     -0.000433
    21   Atom        0.001351     -0.000096     -0.000141
    22   Atom       -0.003175     -0.004108     -0.009691
    23   Atom        0.016675      0.010783      0.017907
    24   Atom       -0.021634     -0.013728     -0.025338
    25   Atom       -0.001064      0.000505     -0.002820
    26   Atom       -0.000092     -0.002583      0.000288
    27   Atom       -0.007874      0.001755     -0.000706
    28   Atom       -0.001451      0.001229     -0.001629
    29   Atom       -0.008503      0.006133     -0.004974
    30   Atom        0.001407      0.000648     -0.000129
    31   Atom       -0.000965      0.000197     -0.000235
    32   Atom       -0.000777      0.000451     -0.000244
    33   Atom       -0.001571     -0.000009      0.000007
    34   Atom       -0.000573      0.000107     -0.000096
    35   Atom       -0.000745      0.000828     -0.001091
    36   Atom       -0.000457      0.000637     -0.000834
    37   Atom       -0.001209      0.000905     -0.001957
    38   Atom       -0.000413      0.000745     -0.000509
    39   Atom       -0.031321      0.011796      0.004723
 --------------------------------------------------------


 ---------------------------------------------------------------------------------
              Anisotropic Spin Dipole Couplings in Principal Axis System
 ---------------------------------------------------------------------------------

       Atom             a.u.   MegaHertz   Gauss  10(-4) cm-1        Axes

              Baa    -0.4089    29.585    10.557     9.868  0.1340  0.7831 -0.6072
     1 O(17)  Bbb    -0.3971    28.737    10.254     9.586  0.8744 -0.3819 -0.2995
              Bcc     0.8060   -58.322   -20.811   -19.454  0.4664  0.4908  0.7359
 
              Baa    -0.1420   -19.060    -6.801    -6.358  0.4662  0.4966  0.7322
     2 C(13)  Bbb     0.0488     6.549     2.337     2.185  0.2225  0.7352 -0.6403
              Bcc     0.0932    12.511     4.464     4.173  0.8562 -0.4614 -0.2323
 
              Baa    -0.6192   -23.880    -8.521    -7.966 -0.5030  0.7724 -0.3878
     3 N(14)  Bbb    -0.6145   -23.699    -8.456    -7.905  0.7606  0.1825 -0.6230
              Bcc     1.2336    47.579    16.977    15.871  0.4104  0.6083  0.6793
 
              Baa    -0.7985    57.782    20.618    19.274 -0.3079 -0.6491  0.6956
     4 O(17)  Bbb    -0.7348    53.170    18.972    17.735  0.9341 -0.3452  0.0914
              Bcc     1.5333  -110.951   -39.590   -37.009  0.1807  0.6779  0.7126
 
              Baa    -0.1108   -14.865    -5.304    -4.958  0.2291  0.6900  0.6866
     5 C(13)  Bbb     0.0376     5.051     1.802     1.685 -0.2060  0.7237 -0.6586
              Bcc     0.0731     9.814     3.502     3.274  0.9514 -0.0095 -0.3079
 
              Baa    -0.3185    23.043     8.222     7.686  0.3750  0.7272 -0.5749
     6 O(17)  Bbb    -0.3015    21.817     7.785     7.278  0.9264 -0.3173  0.2029
              Bcc     0.6200   -44.860   -16.007   -14.964  0.0349  0.6087  0.7926
 
              Baa    -0.0152    -0.585    -0.209    -0.195 -0.6026  0.7977 -0.0235
     7 N(14)  Bbb    -0.0035    -0.134    -0.048    -0.045  0.6409  0.4661 -0.6099
              Bcc     0.0186     0.718     0.256     0.240  0.4756  0.3826  0.7921
 
              Baa    -0.0023    -0.305    -0.109    -0.102  0.3591  0.6593  0.6606
     8 C(13)  Bbb    -0.0015    -0.203    -0.073    -0.068  0.8428 -0.5331  0.0739
              Bcc     0.0038     0.508     0.181     0.170 -0.4009 -0.5302  0.7471
 
              Baa    -0.0040    -2.019    -0.721    -0.674  0.8558 -0.2455 -0.4553
     9 F(19)  Bbb    -0.0025    -1.234    -0.440    -0.412  0.3836  0.8917  0.2402
              Bcc     0.0065     3.254     1.161     1.085  0.3471 -0.3802  0.8573
 
              Baa    -0.0092    -4.645    -1.658    -1.549 -0.5538  0.7732 -0.3090
    10 F(19)  Bbb    -0.0074    -3.723    -1.328    -1.242  0.5293  0.6134  0.5862
              Bcc     0.0167     8.368     2.986     2.791 -0.6428 -0.1611  0.7489
 
              Baa    -0.0012    -0.164    -0.059    -0.055 -0.4917  0.7649  0.4161
    11 C(13)  Bbb    -0.0010    -0.138    -0.049    -0.046  0.6125 -0.0358  0.7896
              Bcc     0.0023     0.302     0.108     0.101  0.6189  0.6432 -0.4509
 
              Baa    -0.0019    -0.957    -0.342    -0.319 -0.5549  0.5860  0.5905
    12 F(19)  Bbb    -0.0003    -0.165    -0.059    -0.055  0.2128 -0.5862  0.7817
              Bcc     0.0022     1.123     0.401     0.374  0.8043  0.5594  0.2006
 
              Baa    -0.0008     0.061     0.022     0.020 -0.1832  0.7384  0.6490
    13 O(17)  Bbb    -0.0008     0.059     0.021     0.020  0.7448 -0.3266  0.5818
              Bcc     0.0017    -0.120    -0.043    -0.040  0.6416  0.5900 -0.4901
 
              Baa    -0.0004    -0.055    -0.019    -0.018 -0.4773  0.8309  0.2861
    14 C(13)  Bbb    -0.0004    -0.051    -0.018    -0.017  0.5240  0.0078  0.8517
              Bcc     0.0008     0.106     0.038     0.035  0.7054  0.5564 -0.4391
 
              Baa    -0.0004    -0.195    -0.070    -0.065 -0.5145  0.8562 -0.0476
    15 F(19)  Bbb    -0.0003    -0.159    -0.057    -0.053  0.2768  0.2184  0.9358
              Bcc     0.0007     0.354     0.126     0.118  0.8116  0.4683 -0.3494
 
              Baa    -0.0004    -0.205    -0.073    -0.068 -0.5767  0.7243  0.3779
    16 F(19)  Bbb    -0.0003    -0.163    -0.058    -0.054  0.4743 -0.0799  0.8767
              Bcc     0.0007     0.368     0.131     0.123  0.6652  0.6848 -0.2975
 
              Baa    -0.0003    -0.162    -0.058    -0.054 -0.4194  0.8595  0.2920
    17 F(19)  Bbb    -0.0003    -0.148    -0.053    -0.049  0.5475 -0.0171  0.8366
              Bcc     0.0006     0.310     0.111     0.103  0.7241  0.5108 -0.4634
 
              Baa    -0.0014    -0.193    -0.069    -0.064  0.1658  0.1885  0.9680
    18 C(13)  Bbb    -0.0012    -0.164    -0.058    -0.055 -0.6670  0.7444 -0.0307
              Bcc     0.0027     0.357     0.127     0.119  0.7263  0.6406 -0.2491
 
              Baa    -0.0063    -3.173    -1.132    -1.059  0.4259 -0.5208  0.7399
    19 F(19)  Bbb    -0.0054    -2.731    -0.975    -0.911  0.7219 -0.2974 -0.6248
              Bcc     0.0118     5.904     2.107     1.970  0.5454  0.8002  0.2493
 
              Baa    -0.0014    -0.717    -0.256    -0.239 -0.1874  0.7895  0.5844
    20 F(19)  Bbb    -0.0014    -0.705    -0.252    -0.235  0.4300 -0.4689  0.7715
              Bcc     0.0028     1.422     0.508     0.474  0.8832  0.3959 -0.2516
 
              Baa    -0.0011    -0.537    -0.192    -0.179 -0.1390  0.2744  0.9515
    21 F(19)  Bbb    -0.0009    -0.440    -0.157    -0.147 -0.5790  0.7570 -0.3029
              Bcc     0.0019     0.977     0.349     0.326  0.8034  0.5930 -0.0536
 
              Baa    -0.0115    -1.539    -0.549    -0.514  0.6199  0.5022  0.6030
    22 C(13)  Bbb    -0.0008    -0.109    -0.039    -0.036  0.7846 -0.4108 -0.4644
              Bcc     0.0123     1.648     0.588     0.550  0.0145  0.7610 -0.6486
 
              Baa    -0.0184     1.329     0.474     0.443  0.8850 -0.4586 -0.0808
    23 O(17)  Bbb    -0.0145     1.046     0.373     0.349 -0.1766 -0.4911  0.8530
              Bcc     0.0328    -2.375    -0.847    -0.792  0.4309  0.7406  0.5156
 
              Baa    -0.0411    -1.583    -0.565    -0.528  0.5276  0.6511  0.5456
    24 N(14)  Bbb     0.0142     0.548     0.196     0.183  0.8009 -0.1673 -0.5749
              Bcc     0.0268     1.035     0.369     0.345 -0.2831  0.7403 -0.6098
 
              Baa    -0.0024    -0.328    -0.117    -0.109  0.1638  0.5312  0.8313
    25 C(13)  Bbb    -0.0018    -0.238    -0.085    -0.079  0.9662  0.0837 -0.2439
              Bcc     0.0042     0.566     0.202     0.189 -0.1991  0.8431 -0.4995
 
              Baa    -0.0024    -1.183    -0.422    -0.395  0.5708 -0.1173  0.8127
    26 F(19)  Bbb    -0.0008    -0.400    -0.143    -0.134  0.1177  0.9912  0.0605
              Bcc     0.0032     1.583     0.565     0.528  0.8126 -0.0611 -0.5796
 
              Baa    -0.0119    -5.984    -2.135    -1.996 -0.2422 -0.0456  0.9692
    27 F(19)  Bbb    -0.0060    -3.002    -1.071    -1.001  0.9051  0.3492  0.2426
              Bcc     0.0179     8.986     3.206     2.997 -0.3495  0.9359 -0.0433
 
              Baa    -0.0016    -0.218    -0.078    -0.073 -0.0129  0.6383  0.7697
    28 C(13)  Bbb    -0.0013    -0.171    -0.061    -0.057  0.8410  0.4233 -0.3370
              Bcc     0.0029     0.390     0.139     0.130 -0.5409  0.6429 -0.5423
 
              Baa    -0.0074    -3.728    -1.330    -1.244  0.6540  0.7547 -0.0518
    29 F(19)  Bbb    -0.0063    -3.173    -1.132    -1.058 -0.3007  0.3222  0.8976
              Bcc     0.0137     6.902     2.463     2.302  0.6942 -0.5714  0.4377
 
              Baa    -0.0016     0.116     0.041     0.039 -0.4056  0.3801  0.8313
    30 O(17)  Bbb    -0.0005     0.039     0.014     0.013 -0.4245  0.7270 -0.5396
              Bcc     0.0021    -0.155    -0.055    -0.052  0.8095  0.5718  0.1335
 
              Baa    -0.0007    -0.091    -0.033    -0.030  0.7478  0.6585  0.0847
    31 C(13)  Bbb    -0.0006    -0.086    -0.031    -0.029 -0.1678  0.0640  0.9838
              Bcc     0.0013     0.177     0.063     0.059 -0.6424  0.7499 -0.1583
 
              Baa    -0.0008    -0.409    -0.146    -0.136  0.7192  0.3093 -0.6221
    32 F(19)  Bbb    -0.0004    -0.180    -0.064    -0.060  0.3913  0.5597  0.7305
              Bcc     0.0012     0.589     0.210     0.196 -0.5742  0.7688 -0.2815
 
              Baa    -0.0011    -0.538    -0.192    -0.180  0.0212  0.0182  0.9996
    33 F(19)  Bbb    -0.0010    -0.526    -0.188    -0.175  0.6637  0.7475 -0.0277
              Bcc     0.0021     1.064     0.380     0.355  0.7477 -0.6641 -0.0038
 
              Baa    -0.0004    -0.199    -0.071    -0.066 -0.5153 -0.3794  0.7684
    34 F(19)  Bbb    -0.0004    -0.191    -0.068    -0.064  0.4922  0.6030  0.6278
              Bcc     0.0008     0.390     0.139     0.130 -0.7015  0.7018 -0.1240
 
              Baa    -0.0011    -0.146    -0.052    -0.049  0.4100  0.8410  0.3530
    35 C(13)  Bbb    -0.0008    -0.105    -0.037    -0.035  0.7885 -0.1323 -0.6006
              Bcc     0.0019     0.251     0.090     0.084  0.4584 -0.5246  0.7174
 
              Baa    -0.0008    -0.401    -0.143    -0.134 -0.1796  0.6985  0.6927
    36 F(19)  Bbb    -0.0005    -0.266    -0.095    -0.089  0.8613  0.4519 -0.2324
              Bcc     0.0013     0.667     0.238     0.223  0.4754 -0.5549  0.6827
 
              Baa    -0.0026    -1.284    -0.458    -0.428  0.4633  0.8463  0.2629
    37 F(19)  Bbb    -0.0009    -0.448    -0.160    -0.150  0.8342 -0.3164 -0.4517
              Bcc     0.0035     1.733     0.618     0.578  0.2991 -0.4286  0.8526
 
              Baa    -0.0007    -0.351    -0.125    -0.117  0.3402  0.9211  0.1895
    38 F(19)  Bbb    -0.0006    -0.277    -0.099    -0.092  0.7523 -0.1457 -0.6425
              Bcc     0.0012     0.628     0.224     0.209  0.5642 -0.3611  0.7425
 
              Baa    -0.0427   -22.798    -8.135    -7.604  0.3038  0.7418 -0.5979
    39 H(1)   Bbb    -0.0257   -13.701    -4.889    -4.570  0.1121  0.5954  0.7956
              Bcc     0.0684    36.499    13.024    12.175  0.9461 -0.3087  0.0977
 

 ---------------------------------------------------------------------------------

 No NMR shielding tensors so no spin-rotation constants.
 Leave Link  601 at Sun Mar  3 17:33:03 2024, MaxMem=  5368709120 cpu:         6.0
 (Enter /home/k0335/k033513/app/g09/l9999.exe)
 1\1\GINC-C24U17N3\SP\UCAM-B3LYP\6-31G(d,p)\C11H1F18N3O6(1+,2)\K033513\
 03-Mar-2024\0\\#p CAM-B3LYP/6-31G(d,p) SCRF=(PCM,Solvent=Generic,Read)
  NoSymm out=wfn\\Title A1671897792_p1\\1,2\O,0,2.303708,1.40791,-2.294
 926\C,0,1.30995,1.291531,-1.583063\N,0,0.286511,2.209949,-1.560656\O,0
 ,0.311557,3.208525,-2.558175\C,0,-0.906346,2.029247,-0.909348\O,0,-1.9
 08768,2.654776,-1.251171\N,0,-0.888392,1.084628,0.085377\C,0,-2.046865
 ,0.955569,0.956963\F,0,-1.570856,0.83175,2.238246\F,0,-2.734125,2.1343
 2,1.010145\C,0,-3.048014,-0.202379,0.694789\F,0,-2.37078,-1.387637,0.6
 71164\O,0,-3.938297,-0.269867,1.820071\C,0,-4.994704,-1.174768,1.64151
 \F,0,-5.941945,-0.593225,0.886807\F,0,-4.576303,-2.309491,1.061009\F,0
 ,-5.521023,-1.465823,2.844683\C,0,-3.688772,0.03665,-0.673914\F,0,-2.7
 48075,0.095401,-1.648703\F,0,-4.40463,1.176897,-0.715665\F,0,-4.520918
 ,-0.969677,-1.027051\C,0,0.115718,0.146597,0.188027\O,0,0.116554,-0.69
 2522,1.081931\N,0,1.126221,0.204306,-0.747629\C,0,2.182137,-0.802053,-
 0.734552\F,0,1.712871,-1.976795,-0.221706\F,0,2.421385,-1.127115,-2.04
 1603\C,0,3.534242,-0.462675,-0.0364\F,0,4.127196,0.626125,-0.605477\O,
 0,4.52676,-1.501438,-0.026181\C,0,4.840161,-1.994152,-1.30159\F,0,3.93
 1845,-2.92158,-1.648365\F,0,4.878456,-1.015794,-2.216993\F,0,6.049722,
 -2.58291,-1.24392\C,0,3.23343,-0.112696,1.416979\F,0,2.66833,-1.135405
 ,2.090469\F,0,2.404481,0.956298,1.5119\F,0,4.364572,0.220991,2.087682\
 H,0,-0.636996,3.426531,-2.670674\\Version=ES64L-G09RevD.01\HF=-2831.32
 62221\S2=0.771647\S2-1=0.\S2A=0.750301\RMSD=5.891e-09\Dipole=-0.409151
 9,4.1040113,-2.8390351\Quadrupole=-6.3713694,8.4003233,-2.0289539,-1.3
 539163,1.861189,-12.5862744\PG=C01 [X(C11H1F18N3O6)]\\@

 Writing a WFN file to "A1671897792/A1671897792_p1.wfn"


 THE LENGTH OF A MEETING IS PROPORTIONAL TO THE
 SQUARE OF THE PARTICIPANTS.
 Job cpu time:       0 days  0 hours 47 minutes 49.4 seconds.
 File lengths (MBytes):  RWF=    492 Int=      0 D2E=      0 Chk=     17 Scr=      1
 Normal termination of Gaussian 09 at Sun Mar  3 17:33:03 2024.
