 Entering Gaussian System, Link 0=g09
 Initial command:
 /home/k0335/k033513/app/g09/l1.exe "/home/k0335/k033513/app/g09/scratch/Gau-620586.inp" -scrdir="/home/k0335/k033513/app/g09/scratch/"
 Default is to use a total of  36 processors:
                               36 via shared-memory
                                1 via Linda
 Entering Link 1 = /home/k0335/k033513/app/g09/l1.exe PID=    620587.
  
 Copyright (c) 1988,1990,1992,1993,1995,1998,2003,2009,2013,
            Gaussian, Inc.  All Rights Reserved.
  
 This is part of the Gaussian(R) 09 program.  It is based on
 the Gaussian(R) 03 system (copyright 2003, Gaussian, Inc.),
 the Gaussian(R) 98 system (copyright 1998, Gaussian, Inc.),
 the Gaussian(R) 94 system (copyright 1995, Gaussian, Inc.),
 the Gaussian 92(TM) system (copyright 1992, Gaussian, Inc.),
 the Gaussian 90(TM) system (copyright 1990, Gaussian, Inc.),
 the Gaussian 88(TM) system (copyright 1988, Gaussian, Inc.),
 the Gaussian 86(TM) system (copyright 1986, Carnegie Mellon
 University), and the Gaussian 82(TM) system (copyright 1983,
 Carnegie Mellon University). Gaussian is a federally registered
 trademark of Gaussian, Inc.
  
 This software contains proprietary and confidential information,
 including trade secrets, belonging to Gaussian, Inc.
  
 This software is provided under written license and may be
 used, copied, transmitted, or stored only in accord with that
 written license.
  
 The following legend is applicable only to US Government
 contracts under FAR:
  
                    RESTRICTED RIGHTS LEGEND
  
 Use, reproduction and disclosure by the US Government is
 subject to restrictions as set forth in subparagraphs (a)
 and (c) of the Commercial Computer Software - Restricted
 Rights clause in FAR 52.227-19.
  
 Gaussian, Inc.
 340 Quinnipiac St., Bldg. 40, Wallingford CT 06492
  
  
 ---------------------------------------------------------------
 Warning -- This program may not be used in any manner that
 competes with the business of Gaussian, Inc. or will provide
 assistance to any competitor of Gaussian, Inc.  The licensee
 of this program is prohibited from giving any competitor of
 Gaussian, Inc. access to this program.  By using this program,
 the user acknowledges that Gaussian, Inc. is engaged in the
 business of creating and licensing software in the field of
 computational chemistry and represents and warrants to the
 licensee that it is not a competitor of Gaussian, Inc. and that
 it will not use this program in any manner prohibited above.
 ---------------------------------------------------------------
  

 Cite this work as:
 Gaussian 09, Revision D.01,
 M. J. Frisch, G. W. Trucks, H. B. Schlegel, G. E. Scuseria, 
 M. A. Robb, J. R. Cheeseman, G. Scalmani, V. Barone, B. Mennucci, 
 G. A. Petersson, H. Nakatsuji, M. Caricato, X. Li, H. P. Hratchian, 
 A. F. Izmaylov, J. Bloino, G. Zheng, J. L. Sonnenberg, M. Hada, 
 M. Ehara, K. Toyota, R. Fukuda, J. Hasegawa, M. Ishida, T. Nakajima, 
 Y. Honda, O. Kitao, H. Nakai, T. Vreven, J. A. Montgomery, Jr., 
 J. E. Peralta, F. Ogliaro, M. Bearpark, J. J. Heyd, E. Brothers, 
 K. N. Kudin, V. N. Staroverov, T. Keith, R. Kobayashi, J. Normand, 
 K. Raghavachari, A. Rendell, J. C. Burant, S. S. Iyengar, J. Tomasi, 
 M. Cossi, N. Rega, J. M. Millam, M. Klene, J. E. Knox, J. B. Cross, 
 V. Bakken, C. Adamo, J. Jaramillo, R. Gomperts, R. E. Stratmann, 
 O. Yazyev, A. J. Austin, R. Cammi, C. Pomelli, J. W. Ochterski, 
 R. L. Martin, K. Morokuma, V. G. Zakrzewski, G. A. Voth, 
 P. Salvador, J. J. Dannenberg, S. Dapprich, A. D. Daniels, 
 O. Farkas, J. B. Foresman, J. V. Ortiz, J. Cioslowski, 
 and D. J. Fox, Gaussian, Inc., Wallingford CT, 2013.
 
 ******************************************
 Gaussian 09:  ES64L-G09RevD.01 24-Apr-2013
                 3-Mar-2024 
 ******************************************
 %nprocshared=24
 Will use up to   24 processors via shared memory.
 %mem=40GB
 %rwf=A1557670722/A1557670722_0.rwf
 %nosave
 %chk=A1557670722/A1557670722_0.chk
 ----------------------------------------------------------------------
 #p CAM-B3LYP/6-31G(d,p) SCRF=(PCM,Solvent=Generic,Read) NoSymm out=wfn
 ----------------------------------------------------------------------
 1/38=1,40=2/1;
 2/12=2,15=1,17=6,18=5,40=1/2;
 3/5=1,6=6,7=101,11=2,16=1,25=1,30=1,70=2203,72=-2,74=-40/1,2,3;
 4//1;
 5/5=2,38=5/2;
 6/7=2,8=2,9=2,10=2,28=1/1;
 99/5=1,6=100,9=1/99;
 Leave Link    1 at Sun Mar  3 17:35:07 2024, MaxMem=  5368709120 cpu:         1.1
 (Enter /home/k0335/k033513/app/g09/l101.exe)
 -------------------
 Title A1557670722_0
 -------------------
 Symbolic Z-matrix:
 Charge =  0 Multiplicity = 1
 C                    -2.30384   5.60321  -0.65753 
 C                    -1.62334   4.87845   0.49268 
 C                    -1.18659   3.4715    0.08756 
 C                    -0.50213   2.74569   1.25036 
 N                    -0.07561   1.39738   0.87538 
 C                    -1.00437   0.38137   0.94202 
 O                    -2.14111   0.55883   1.38213 
 N                    -0.59451  -0.83508   0.43856 
 C                    -1.58614  -1.9079    0.34134 
 C                    -2.42196  -1.79432  -0.93858 
 C                    -3.39029  -2.96217  -1.13301 
 C                    -4.48269  -3.02537  -0.07683 
 C                     0.6425   -1.02629  -0.14092 
 O                     0.86545  -2.01249  -0.8378 
 N                     1.5792   -0.05708   0.08335 
 C                     2.93606  -0.21421  -0.43425 
 F                     3.73336   0.6317    0.29137 
 F                     2.9735    0.24047  -1.71667 
 C                     3.61512  -1.60972  -0.356 
 F                     3.14971  -2.41736  -1.35234 
 O                     3.2661   -2.22524   0.89491 
 C                     3.96242  -3.42438   1.12065 
 F                     4.02577  -4.18222   0.01702 
 F                     3.32062  -4.10916   2.08599 
 F                     5.20033  -3.13514   1.55466 
 C                     5.11101  -1.36087  -0.60265 
 F                     5.34564  -0.63893  -1.71947 
 F                     5.69771  -0.71842   0.43317 
 F                     5.78355  -2.52901  -0.75454 
 C                     1.17136   1.23828   0.30248 
 O                     1.85017   2.21554  -0.01346 
 H                    -3.19797   5.0642   -0.9867 
 H                    -1.62809   5.70307  -1.51294 
 H                    -2.60801   6.60733  -0.34587 
 H                    -2.31407   4.82379   1.34213 
 H                    -0.75266   5.45919   0.81873 
 H                    -0.50344   3.52935  -0.76861 
 H                    -2.05876   2.89681  -0.24757 
 H                    -1.18792   2.68053   2.10356 
 H                     0.3707    3.31844   1.58621 
 H                    -1.07107  -2.87563   0.36617 
 H                    -2.23355  -1.86724   1.22414 
 H                    -2.97903  -0.84939  -0.93963 
 H                    -1.75261  -1.7545   -1.80696 
 H                    -2.83694  -3.90836  -1.14338 
 H                    -3.86312  -2.86096  -2.1172 
 H                    -4.07207  -3.24644   0.91263 
 H                    -5.03116  -2.07977  -0.02141 
 H                    -5.19721  -3.8175   -0.32287 
 
 NAtoms=     49 NQM=       49 NQMF=       0 NMMI=      0 NMMIF=      0
                NMic=       0 NMicF=      0.
                    Isotopes and Nuclear Properties:
 (Nuclear quadrupole moments (NQMom) in fm**2, nuclear magnetic moments (NMagM)
  in nuclear magnetons)

  Atom         1           2           3           4           5           6           7           8           9          10
 IAtWgt=          12          12          12          12          14          12          16          14          12          12
 AtmWgt=  12.0000000  12.0000000  12.0000000  12.0000000  14.0030740  12.0000000  15.9949146  14.0030740  12.0000000  12.0000000
 NucSpn=           0           0           0           0           2           0           0           2           0           0
 AtZEff=   0.0000000   0.0000000   0.0000000   0.0000000   0.0000000   0.0000000   0.0000000   0.0000000   0.0000000   0.0000000
 NQMom=    0.0000000   0.0000000   0.0000000   0.0000000   2.0440000   0.0000000   0.0000000   2.0440000   0.0000000   0.0000000
 NMagM=    0.0000000   0.0000000   0.0000000   0.0000000   0.4037610   0.0000000   0.0000000   0.4037610   0.0000000   0.0000000
 AtZNuc=   6.0000000   6.0000000   6.0000000   6.0000000   7.0000000   6.0000000   8.0000000   7.0000000   6.0000000   6.0000000

  Atom        11          12          13          14          15          16          17          18          19          20
 IAtWgt=          12          12          12          16          14          12          19          19          12          19
 AtmWgt=  12.0000000  12.0000000  12.0000000  15.9949146  14.0030740  12.0000000  18.9984033  18.9984033  12.0000000  18.9984033
 NucSpn=           0           0           0           0           2           0           1           1           0           1
 AtZEff=   0.0000000   0.0000000   0.0000000   0.0000000   0.0000000   0.0000000   0.0000000   0.0000000   0.0000000   0.0000000
 NQMom=    0.0000000   0.0000000   0.0000000   0.0000000   2.0440000   0.0000000   0.0000000   0.0000000   0.0000000   0.0000000
 NMagM=    0.0000000   0.0000000   0.0000000   0.0000000   0.4037610   0.0000000   2.6288670   2.6288670   0.0000000   2.6288670
 AtZNuc=   6.0000000   6.0000000   6.0000000   8.0000000   7.0000000   6.0000000   9.0000000   9.0000000   6.0000000   9.0000000

  Atom        21          22          23          24          25          26          27          28          29          30
 IAtWgt=          16          12          19          19          19          12          19          19          19          12
 AtmWgt=  15.9949146  12.0000000  18.9984033  18.9984033  18.9984033  12.0000000  18.9984033  18.9984033  18.9984033  12.0000000
 NucSpn=           0           0           1           1           1           0           1           1           1           0
 AtZEff=   0.0000000   0.0000000   0.0000000   0.0000000   0.0000000   0.0000000   0.0000000   0.0000000   0.0000000   0.0000000
 NQMom=    0.0000000   0.0000000   0.0000000   0.0000000   0.0000000   0.0000000   0.0000000   0.0000000   0.0000000   0.0000000
 NMagM=    0.0000000   0.0000000   2.6288670   2.6288670   2.6288670   0.0000000   2.6288670   2.6288670   2.6288670   0.0000000
 AtZNuc=   8.0000000   6.0000000   9.0000000   9.0000000   9.0000000   6.0000000   9.0000000   9.0000000   9.0000000   6.0000000

  Atom        31          32          33          34          35          36          37          38          39          40
 IAtWgt=          16           1           1           1           1           1           1           1           1           1
 AtmWgt=  15.9949146   1.0078250   1.0078250   1.0078250   1.0078250   1.0078250   1.0078250   1.0078250   1.0078250   1.0078250
 NucSpn=           0           1           1           1           1           1           1           1           1           1
 AtZEff=   0.0000000   0.0000000   0.0000000   0.0000000   0.0000000   0.0000000   0.0000000   0.0000000   0.0000000   0.0000000
 NQMom=    0.0000000   0.0000000   0.0000000   0.0000000   0.0000000   0.0000000   0.0000000   0.0000000   0.0000000   0.0000000
 NMagM=    0.0000000   2.7928460   2.7928460   2.7928460   2.7928460   2.7928460   2.7928460   2.7928460   2.7928460   2.7928460
 AtZNuc=   8.0000000   1.0000000   1.0000000   1.0000000   1.0000000   1.0000000   1.0000000   1.0000000   1.0000000   1.0000000

  Atom        41          42          43          44          45          46          47          48          49
 IAtWgt=           1           1           1           1           1           1           1           1           1
 AtmWgt=   1.0078250   1.0078250   1.0078250   1.0078250   1.0078250   1.0078250   1.0078250   1.0078250   1.0078250
 NucSpn=           1           1           1           1           1           1           1           1           1
 AtZEff=   0.0000000   0.0000000   0.0000000   0.0000000   0.0000000   0.0000000   0.0000000   0.0000000   0.0000000
 NQMom=    0.0000000   0.0000000   0.0000000   0.0000000   0.0000000   0.0000000   0.0000000   0.0000000   0.0000000
 NMagM=    2.7928460   2.7928460   2.7928460   2.7928460   2.7928460   2.7928460   2.7928460   2.7928460   2.7928460
 AtZNuc=   1.0000000   1.0000000   1.0000000   1.0000000   1.0000000   1.0000000   1.0000000   1.0000000   1.0000000
 Leave Link  101 at Sun Mar  3 17:35:07 2024, MaxMem=  5368709120 cpu:         0.9
 (Enter /home/k0335/k033513/app/g09/l202.exe)
                          Input orientation:                          
 ---------------------------------------------------------------------
 Center     Atomic      Atomic             Coordinates (Angstroms)
 Number     Number       Type             X           Y           Z
 ---------------------------------------------------------------------
      1          6           0       -2.303845    5.603212   -0.657529
      2          6           0       -1.623341    4.878449    0.492678
      3          6           0       -1.186591    3.471499    0.087556
      4          6           0       -0.502129    2.745690    1.250355
      5          7           0       -0.075609    1.397383    0.875382
      6          6           0       -1.004371    0.381368    0.942021
      7          8           0       -2.141107    0.558829    1.382130
      8          7           0       -0.594513   -0.835075    0.438555
      9          6           0       -1.586139   -1.907903    0.341338
     10          6           0       -2.421957   -1.794316   -0.938582
     11          6           0       -3.390289   -2.962166   -1.133009
     12          6           0       -4.482693   -3.025375   -0.076833
     13          6           0        0.642501   -1.026287   -0.140920
     14          8           0        0.865454   -2.012494   -0.837799
     15          7           0        1.579195   -0.057081    0.083354
     16          6           0        2.936064   -0.214205   -0.434246
     17          9           0        3.733355    0.631697    0.291370
     18          9           0        2.973496    0.240474   -1.716671
     19          6           0        3.615120   -1.609722   -0.356003
     20          9           0        3.149714   -2.417362   -1.352335
     21          8           0        3.266099   -2.225240    0.894913
     22          6           0        3.962416   -3.424376    1.120645
     23          9           0        4.025766   -4.182215    0.017020
     24          9           0        3.320617   -4.109161    2.085991
     25          9           0        5.200330   -3.135142    1.554659
     26          6           0        5.111011   -1.360871   -0.602648
     27          9           0        5.345640   -0.638927   -1.719465
     28          9           0        5.697705   -0.718420    0.433169
     29          9           0        5.783549   -2.529010   -0.754541
     30          6           0        1.171364    1.238279    0.302479
     31          8           0        1.850169    2.215538   -0.013455
     32          1           0       -3.197967    5.064199   -0.986703
     33          1           0       -1.628087    5.703073   -1.512936
     34          1           0       -2.608009    6.607329   -0.345872
     35          1           0       -2.314067    4.823789    1.342128
     36          1           0       -0.752663    5.459193    0.818730
     37          1           0       -0.503435    3.529353   -0.768612
     38          1           0       -2.058759    2.896808   -0.247569
     39          1           0       -1.187922    2.680530    2.103559
     40          1           0        0.370700    3.318439    1.586212
     41          1           0       -1.071069   -2.875629    0.366168
     42          1           0       -2.233554   -1.867238    1.224136
     43          1           0       -2.979028   -0.849393   -0.939631
     44          1           0       -1.752614   -1.754495   -1.806960
     45          1           0       -2.836939   -3.908364   -1.143376
     46          1           0       -3.863120   -2.860956   -2.117196
     47          1           0       -4.072075   -3.246439    0.912629
     48          1           0       -5.031165   -2.079771   -0.021412
     49          1           0       -5.197210   -3.817500   -0.322871
 ---------------------------------------------------------------------
                    Distance matrix (angstroms):
                    1          2          3          4          5
     1  C    0.000000
     2  C    1.520310   0.000000
     3  C    2.519446   1.527869   0.000000
     4  C    3.879644   2.525837   1.532119   0.000000
     5  N    5.000385   3.828806   2.481312   1.463030   0.000000
     6  C    5.613809   4.561663   3.211265   2.436665   1.378160
     7  O    5.443573   4.440532   3.327262   2.736051   2.286099
     8  N    6.750908   5.805667   4.361231   3.672796   2.333227
     9  C    7.611155   6.788141   5.400186   4.863879   3.673121
    10  C    7.403807   6.871105   5.505261   5.393407   4.356921
    11  C    8.647089   8.200013   6.909277   6.826530   5.833216
    12  C    8.918357   8.424409   7.287022   7.135230   6.315844
    13  C    7.273108   6.356209   4.860849   4.180148   2.724468
    14  O    8.250814   7.446433   5.928014   5.373173   3.930375
    15  N    6.904044   5.897732   4.483354   3.680941   2.341186
    16  C    7.832550   6.898006   5.554545   4.839425   3.658212
    17  F    7.878081   6.838832   5.684354   4.829901   3.928810
    18  F    7.598096   6.893689   5.567861   5.211460   4.165839
    19  C    9.335496   8.382010   7.005140   6.204977   4.917364
    20  F    9.723871   8.911509   7.453557   6.838644   5.469708
    21  O    9.732369   8.633123   7.275377   6.247882   4.928569
    22  C   11.132173  10.026561   8.667909   7.617001   6.294057
    23  F   11.673627  10.688044   9.260290   8.367725   6.977820
    24  F   11.553859  10.380679   9.042957   7.893077   6.581941
    25  F   11.728821  10.578654   9.305528   8.197245   6.988614
    26  C   10.172588   9.245558   7.967934   7.197555   6.057521
    27  F    9.930087   9.159788   7.926599   7.380506   6.345844
    28  F   10.255606   9.215541   8.066499   7.148832   6.164684
    29  F   11.469455  10.549314   9.235696   8.447000   7.238988
    30  C    5.661390   4.593189   3.254753   2.443632   1.381475
    31  O    5.398796   4.405966   3.287788   2.722422   2.273330
    32  H    1.094689   2.168529   2.781431   4.200887   5.163528
    33  H    1.094688   2.168528   2.781441   4.201151   5.162675
    34  H    1.094485   2.159112   3.470118   4.679202   5.920139
    35  H    2.146214   1.096200   2.161907   2.758630   4.119321
    36  H    2.146217   1.096200   2.161906   2.759015   4.118241
    37  H    2.748583   2.159885   1.096847   2.165723   2.725995
    38  H    2.748228   2.159735   1.096930   2.165574   2.728036
    39  H    4.172644   2.759597   2.165618   1.096592   2.095740
    40  H    4.172260   2.757834   2.166692   1.096664   2.096408
    41  H    8.628930   7.774750   6.354290   5.718803   4.416885
    42  H    7.704105   6.812612   5.557883   4.927233   3.928881
    43  H    6.493964   6.057852   4.789369   4.884229   4.095377
    44  H    7.467322   7.021467   5.587538   5.582343   4.465606
    45  H    9.538884   9.019843   7.661672   7.446994   6.312787
    46  H    8.729496   8.469146   7.219746   7.353308   6.436941
    47  H    9.160150   8.496262   7.357816   6.983136   6.126843
    48  H    8.177478   7.764945   6.753460   6.739038   6.119835
    49  H    9.860698   9.437012   8.329647   8.221575   7.406862
                    6          7          8          9         10
     6  C    0.000000
     7  O    1.231810   0.000000
     8  N    1.378838   2.285882   0.000000
     9  C    2.437219   2.734228   1.464149   0.000000
    10  C    3.206216   3.316907   2.481169   1.532870   0.000000
    11  C    4.601910   4.503752   3.848466   2.557367   1.529491
    12  C    4.974202   4.523065   4.492325   3.132672   2.550441
    13  C    2.422074   3.546935   1.379332   2.444720   3.258379
    14  O    3.520594   4.536430   2.268678   2.722428   3.296184
    15  N    2.757600   3.988334   2.335904   3.675791   4.480129
    16  C    4.216141   5.447428   3.689476   4.890855   5.608876
    17  F    4.788743   5.975313   4.572037   5.894835   6.729501
    18  F    4.786640   5.988579   4.304938   5.444373   5.818652
    19  C    5.195094   6.392016   4.353437   5.256262   6.067930
    20  F    5.509390   6.657912   4.441864   5.055332   5.621645
    21  O    5.003353   6.101336   4.128577   4.894013   5.991776
    22  C    6.259758   7.292962   5.285388   5.804608   6.903458
    23  F    6.854502   7.897553   5.720840   6.063922   6.941784
    24  F    6.338694   7.219140   5.363015   5.653813   6.890842
    25  F    7.158176   8.220212   6.333735   7.002458   8.131010
    26  C    6.543645   7.760013   5.823536   6.785438   7.552902
    27  F    6.960399   8.191819   6.323048   7.342123   7.891785
    28  F    6.810748   7.998679   6.293302   7.380900   8.304707
    29  F    7.577894   8.769281   6.706159   7.476565   8.240387
    30  C    2.424280   3.549614   2.726836   4.183754   4.863005
    31  O    3.524984   4.541214   3.935355   5.379299   5.931766
    32  H    5.519125   5.198719   6.603845   7.278179   6.902444
    33  H    5.893758   5.925187   6.901012   7.833712   7.561148
    34  H    6.556898   6.307800   7.749766   8.603816   8.424581
    35  H    4.648709   4.268653   5.982980   6.844497   7.000899
    36  H    5.085554   5.124331   6.307722   7.429447   7.647750
    37  H    3.617598   4.016425   4.529214   5.654024   5.661366
    38  H    2.975617   2.851113   4.067153   4.863685   4.755634
    39  H    2.582442   2.435290   3.934952   4.931300   5.549929
    40  H    3.306386   3.737147   4.415929   5.717830   6.349313
    41  H    3.308185   3.738002   2.096713   1.096543   2.167143
    42  H    2.578121   2.432963   2.090204   1.095505   2.172133
    43  H    2.992433   2.841791   2.754181   2.168286   1.096909
    44  H    3.560713   3.958875   2.688656   2.160193   1.097126
    45  H    5.109695   5.178627   4.120205   2.787601   2.164105
    46  H    5.295651   5.187055   4.617342   3.483869   2.145647
    47  H    4.751069   4.292917   4.258270   2.880613   2.873766
    48  H    4.816687   4.157472   4.630844   3.468332   2.780405
    49  H    6.067153   5.603485   5.537097   4.138547   3.489184
                   11         12         13         14         15
    11  C    0.000000
    12  C    1.520806   0.000000
    13  C    4.582059   5.501643   0.000000
    14  O    4.370398   5.496151   1.227987   0.000000
    15  N    5.883437   6.751512   1.366402   2.276310   0.000000
    16  C    6.932698   7.941560   2.450704   2.772025   1.460716
    17  F    8.104999   9.000733   3.534001   4.060988   2.271143
    18  F    7.148099   8.303589   3.085646   3.208134   2.296237
    19  C    7.176949   8.225362   3.036959   2.820464   2.597830
    20  F    6.566320   7.762102   3.112673   2.376238   3.177839
    21  O    6.997359   7.850368   3.064915   2.968274   2.864470
    22  C    7.704211   8.538912   4.285349   3.926842   4.253750
    23  F    7.603220   8.587256   4.629396   3.927592   4.796545
    24  F    7.530858   8.169703   4.651403   4.355730   4.843806
    25  F    9.002900   9.820120   5.300572   5.076942   4.975120
    26  C    8.667037   9.751216   4.504744   4.301705   3.826773
    27  F    9.058577  10.246439   4.976080   4.768237   4.216018
    28  F    9.490993  10.450964   5.097004   5.161457   4.185913
    29  F    9.191853  10.300553   5.391204   4.945845   4.948646
    30  C    6.364986   7.091614   2.367395   3.458517   1.375609
    31  O    7.451471   8.220482   3.461811   4.418762   2.290763
    32  H    8.030002   8.241334   7.249728   8.161688   7.084759
    33  H    8.850766   9.294997   7.233414   8.136555   6.783375
    34  H    9.633628   9.817118   8.299392   9.306357   7.882339
    35  H    8.240489   8.265940   6.720425   7.848325   6.369057
    36  H    9.038011   9.311447   6.702899   7.822308   6.033873
    37  H    7.113827   7.699189   4.739306   5.708828   4.233876
    38  H    6.073265   6.401317   4.764331   5.744618   4.697838
    39  H    6.867737   6.940243   4.704107   5.906980   4.385508
    40  H    7.809302   8.158745   4.683322   5.877028   3.887567
    41  H    2.762934   3.443523   2.571678   2.438167   3.879188
    42  H    2.844826   2.844719   3.292760   3.725121   4.372083
    43  H    2.161097   2.782144   3.712776   4.017862   4.738318
    44  H    2.143515   3.473011   3.007084   2.803590   4.189923
    45  H    1.096173   2.150742   4.627936   4.170781   5.986609
    46  H    1.096557   2.138688   5.250933   4.971535   6.505607
    47  H    2.174920   1.093852   5.316603   5.381990   6.541908
    48  H    2.169503   1.094559   5.771880   5.953245   6.913690
    49  H    2.157054   1.094775   6.475044   6.346581   7.760505
                   16         17         18         19         20
    16  C    0.000000
    17  F    1.370307   0.000000
    18  F    1.361157   2.182354   0.000000
    19  C    1.553933   2.336029   2.384601   0.000000
    20  F    2.396338   3.512715   2.688473   1.364391   0.000000
    21  O    2.433074   2.957141   3.603572   1.437174   2.258446
    22  C    3.711641   4.146311   4.739140   2.365179   2.791092
    23  F    4.139589   4.830582   4.865505   2.631634   2.399439
    24  F    4.655122   5.085937   5.787923   3.506745   3.835815
    25  F    4.196965   4.235208   5.201459   2.913834   3.629166
    26  C    2.464467   2.582156   2.893842   1.536376   2.350508
    27  F    2.763735   2.873570   2.529905   2.407524   2.849510
    28  F    2.938248   2.387801   3.600362   2.398827   3.544952
    29  F    3.683623   3.909897   4.061051   2.388725   2.703130
    30  C    2.401383   2.632843   2.884486   3.810072   4.473923
    31  O    2.694417   2.479488   2.839663   4.226701   4.994515
    32  H    8.111294   8.326090   7.866901   9.558094   9.818375
    33  H    7.550445   7.597331   7.145352   9.072303   9.423091
    34  H    8.790784   8.736541   8.577245  10.307636  10.752181
    35  H    7.490044   7.432970   7.636842   8.912293   9.462944
    36  H    6.882158   6.611141   6.895473   8.392085   9.054402
    37  H    5.094721   5.241218   4.878995   6.598699   7.003545
    38  H    5.887402   6.242577   5.876901   7.246618   7.522573
    39  H    5.641561   5.630339   6.153489   6.893832   7.533047
    40  H    4.810709   4.494735   5.211281   6.211701   7.018361
    41  H    4.876572   5.948901   5.514238   4.907588   4.580204
    42  H    5.675183   6.535957   6.340675   6.063839   5.993364
    43  H    5.970527   6.983200   6.101159   6.663446   6.339584
    44  H    5.122552   6.339776   5.130708   5.562266   4.967786
    45  H    6.890373   8.114149   7.162589   6.894402   6.173068
    46  H    7.487758   8.700934   7.517886   7.784052   7.068354
    47  H    7.753872   8.737885   8.289261   7.961233   7.613913
    48  H    8.193138   9.179690   8.504824   8.665514   8.295306
    49  H    8.896420   9.996381   9.228774   9.084742   8.525921
                   21         22         23         24         25
    21  O    0.000000
    22  C    1.404898   0.000000
    23  F    2.275421   1.340269   0.000000
    24  F    2.229529   1.346376   2.187056   0.000000
    25  F    2.237060   1.343300   2.200067   2.182739   0.000000
    26  C    2.528542   2.923536   3.085730   4.241154   2.794636
    27  F    3.698088   4.211681   4.160810   5.533962   4.119720
    28  F    2.897658   3.287256   3.868648   4.458642   2.710289
    29  F    3.024984   2.763065   2.533416   4.078178   2.457630
    30  C    4.090826   5.495427   6.132769   6.032853   6.076786
    31  O    4.748737   6.128328   6.757618   6.824347   6.504793
    32  H    9.922729  11.303447  11.776500  11.665501  12.009126
    33  H    9.623354  11.022695  11.490245  11.563818  11.582377
    34  H   10.679839  12.081236  12.670948  12.486221  12.629248
    35  H    9.001503  10.367040  11.093129  10.587757  10.947873
    36  H    8.672183  10.061855  10.790406  10.476209  10.480568
    37  H    7.077573   8.477468   8.977704   9.006610   9.074471
    38  H    7.476279   8.836511   9.338309   9.136016   9.608685
    39  H    6.735407   8.047483   8.867551   8.150284   8.656390
    40  H    6.292345   7.653936   8.490093   8.007561   8.060709
    41  H    4.417420   5.119212   5.273215   4.875069   6.388294
    42  H    5.521117   6.389478   6.781986   6.051267   7.548474
    43  H    6.652828   7.684980   7.816011   7.711420   8.851442
    44  H    5.719196   6.634828   6.527664   6.814484   7.845387
    45  H    6.650910   7.182706   6.965503   6.955906   8.513223
    46  H    7.765481   8.487642   8.278594   8.416108   9.782833
    47  H    7.408911   8.039153   8.200782   7.534784   9.295272
    48  H    8.348976   9.164974   9.297836   8.849397  10.405830
    49  H    8.697465   9.281004   9.236440   8.856696  10.587708
                   26         27         28         29         30
    26  C    0.000000
    27  F    1.350383   0.000000
    28  F    1.352727   2.182682   0.000000
    29  F    1.356439   2.166854   2.167086   0.000000
    30  C    4.805794   5.003673   4.932901   6.048306   0.000000
    31  O    4.875545   4.824599   4.859127   6.207368   1.231107
    32  H   10.510382  10.298340  10.704564  11.763433   5.949009
    33  H    9.805273   9.428493   9.934290  11.102914   5.573782
    34  H   11.096910  10.846913  11.102179  12.412008   6.597781
    35  H    9.857178   9.893722   9.784211  11.136923   5.107346
    36  H    9.105837   8.989928   8.939732  10.440720   4.667388
    37  H    7.447405   7.245023   7.611964   8.730987   3.033349
    38  H    8.346227   8.336248   8.584638   9.549781   3.672460
    39  H    7.958206   8.265697   7.858430   9.160210   3.300031
    40  H    7.011248   7.165073   6.782531   8.304861   2.572178
    41  H    6.438261   7.108224   7.104530   6.954274   4.685808
    42  H    7.585261   8.222999   8.052967   8.284144   4.699697
    43  H    8.113193   8.363763   8.785638   8.924020   4.809050
    44  H    6.979588   7.185914   7.848496   7.648609   4.685731
    45  H    8.363732   8.830385   9.246696   8.738800   6.681686
    46  H    9.223835   9.481396  10.124436   9.748089   6.928534
    47  H    9.496341  10.120296  10.102938  10.021351   6.926661
    48  H   10.184222  10.613081  10.824443  10.848840   7.041713
    49  H   10.600600  11.099797  11.352315  11.064520   8.155409
                   31         32         33         34         35
    31  O    0.000000
    32  H    5.877564   0.000000
    33  H    5.148748   1.774712   0.000000
    34  H    6.266872   1.771995   1.771994   0.000000
    35  H    5.097199   2.502505   3.065143   2.473209   0.000000
    36  H    4.241293   3.065146   2.502501   2.473221   1.765125
    37  H    2.799254   3.108668   2.558108   3.752583   3.067438
    38  H    3.974752   2.557674   3.108336   3.752240   2.511090
    39  H    3.732019   4.389975   4.733767   4.841086   2.538019
    40  H    2.442162   4.733176   4.391622   4.839675   3.087658
    41  H    5.881983   8.330356   8.799740   9.633051   7.859935
    42  H    5.905716   7.339123   8.072655   8.626901   6.692552
    43  H    5.794199   5.917831   6.714799   7.489520   6.150902
    44  H    5.653129   7.018294   7.464401   8.531505   7.314766
    45  H    7.794093   8.981190   9.694205  10.548375   9.094043
    46  H    7.927054   8.032965   8.871477   9.713975   8.568652
    47  H    8.109488   8.569611   9.589067  10.041118   8.270649
    48  H    8.111874   7.438327   8.624282   9.024559   7.543275
    49  H    9.282178   9.128101  10.237002  10.741580   9.260487
                   36         37         38         39         40
    36  H    0.000000
    37  H    2.511185   0.000000
    38  H    3.067360   1.758019   0.000000
    39  H    3.092120   3.072196   2.516533   0.000000
    40  H    2.536494   2.520673   3.072913   1.761783   0.000000
    41  H    8.353170   6.529451   5.888398   5.822636   6.475622
    42  H    7.485585   6.007291   4.989249   4.748571   5.814162
    43  H    6.917138   5.033013   3.919167   4.992937   5.913661
    44  H    7.741540   5.527899   4.915287   5.939738   6.461945
    45  H    9.795162   7.804186   6.907851   7.528304   8.364585
    46  H    9.355185   7.344536   6.316888   7.461871   8.356159
    47  H    9.317475   7.840480   6.568027   6.698180   7.955475
    48  H    8.709041   7.247132   5.801093   6.476611   7.804183
    49  H   10.349603   8.729631   7.411982   8.011638   9.250289
                   41         42         43         44         45
    41  H    0.000000
    42  H    1.761912   0.000000
    43  H    3.074256   2.504721   0.000000
    44  H    2.538490   3.071084   1.753728   0.000000
    45  H    2.542354   3.183611   3.069040   2.501051   0.000000
    46  H    3.736691   3.848046   2.492923   2.403068   1.760238
    47  H    3.072809   2.319352   3.220473   3.873236   2.488144
    48  H    4.057828   3.069721   2.562854   3.747383   3.068743
    49  H    4.287999   3.870402   3.756379   4.280625   2.500473
                   46         47         48         49
    46  H    0.000000
    47  H    3.061388   0.000000
    48  H    2.523270   1.775782   0.000000
    49  H    2.431949   1.765927   1.771483   0.000000
 Symmetry turned off by external request.
 Stoichiometry    C15H18F9N3O4
 Framework group  C1[X(C15H18F9N3O4)]
 Deg. of freedom   141
 Full point group                 C1      NOp   1
 Rotational constants (GHZ):      0.1977015      0.0945548      0.0726293
 Leave Link  202 at Sun Mar  3 17:35:07 2024, MaxMem=  5368709120 cpu:         0.1
 (Enter /home/k0335/k033513/app/g09/l301.exe)
 Standard basis: 6-31G(d,p) (6D, 7F)
 Ernie: Thresh=  0.10000D-02 Tol=  0.10000D-05 Strict=F.
   555 basis functions,   994 primitive gaussians,   555 cartesian basis functions
   121 alpha electrons      121 beta electrons
       nuclear repulsion energy      3784.2954748588 Hartrees.
 IExCor=20419 DFT=T Ex+Corr=CAM-B3LYP ExCW=0 ScaHFX=  1.000000
 ScaDFX=  1.000000  1.000000  1.000000  0.810000 ScalE2=  1.000000  1.000000
 IRadAn=      0 IRanWt=     -1 IRanGd=            0 ICorTp=0 IEmpDi=  4
  HFx wShort=  0.000000 wLong=  0.330000 cFull=  0.190000 cShort=  0.000000 cLong=  0.460000
  DFx wShort=  0.000000 wLong=  0.330000 cFull=  0.190000 cShort=  0.000000 cLong=  0.460000
 NAtoms=   49 NActive=   49 NUniq=   49 SFac= 1.00D+00 NAtFMM=   60 NAOKFM=F Big=F
 Integral buffers will be    131072 words long.
 Raffenetti 2 integral format.
 Two-electron integral symmetry is turned off.
 Using the following non-standard input for PCM:
 eps=4.9
 --- end of non-standard input.
 ------------------------------------------------------------------------------
 Polarizable Continuum Model (PCM)
 =================================
 Model                : PCM (using non-symmetric T matrix).
 Atomic radii         : UFF (Universal Force Field).
 Polarization charges : Total charges.
 Charge compensation  : None.
 Solution method      : On-the-fly selection.
 Cavity type          : Scaled VdW (van der Waals Surface) (Alpha=1.100).
 Cavity algorithm     : GePol (No added spheres)
                        Default sphere list used, NSphG=   49.
                        Lebedev-Laikov grids with approx.  5.0 points / Ang**2.
                        Smoothing algorithm: Karplus/York (Gamma=1.0000).
                        Polarization charges: spherical gaussians, with
                                              point-specific exponents (IZeta= 3).
                        Self-potential: point-specific (ISelfS= 7).
                        Self-field    : sphere-specific E.n sum rule (ISelfD= 2).
 Solvent              : Generic,
                        Eps                           =   4.900000
                        Eps(infinity)                 =   0.000000
                        RSolv                         =   0.000000 Ang.
                        Molar volume                  =   0.000000 cm**3/mol
                        Thermal expansion coefficient =   0.000000 K**-1
                        Absolute temperature          = 298.150000 K
                        Numeral density               =   0.000000 Ang**-3
                        Hydrogen bond acidity         =   0.000000
                        Hydrogen bond basicity        =   0.000000
                        Surface tension at interface  =   0.000000 (cal/mol)*Ang**-2
                        Carbon aromaticity            =   0.000000
                        Electronegative halogenicity  =   0.000000
 ------------------------------------------------------------------------------
 GePol: Number of generator spheres                  =      49
 GePol: Total number of spheres                      =      49
 GePol: Number of exposed spheres                    =      48 ( 97.96%)
 GePol: Number of points                             =    3631
 GePol: Average weight of points                     =       0.13
 GePol: Minimum weight of points                     =   0.26D-10
 GePol: Maximum weight of points                     =    0.20577
 GePol: Number of points with low weight             =     180
 GePol: Fraction of low-weight points (<1% of avg)   =       4.96%
 GePol: Cavity surface area                          =    462.677 Ang**2
 GePol: Cavity volume                                =    514.745 Ang**3
 Leave Link  301 at Sun Mar  3 17:35:07 2024, MaxMem=  5368709120 cpu:         0.8
 (Enter /home/k0335/k033513/app/g09/l302.exe)
 NPDir=0 NMtPBC=     1 NCelOv=     1 NCel=       1 NClECP=     1 NCelD=      1
         NCelK=      1 NCelE2=     1 NClLst=     1 CellRange=     0.0.
 One-electron integrals computed using PRISM.
 NBasis=   555 RedAO= T EigKep=  1.14D-03  NBF=   555
 NBsUse=   555 1.00D-06 EigRej= -1.00D+00 NBFU=   555
 Precomputing XC quadrature grid using
 IXCGrd= 4 IRadAn=           0 IRanWt=          -1 IRanGd=           0 AccXCQ= 0.00D+00.
 Generated NRdTot=       0 NPtTot=           0 NUsed=           0 NTot=          32
 NSgBfM=   530   531   531   531   531 MxSgAt=    49 MxSgA2=    49.
 Leave Link  302 at Sun Mar  3 17:35:08 2024, MaxMem=  5368709120 cpu:        10.6
 (Enter /home/k0335/k033513/app/g09/l303.exe)
 DipDrv:  MaxL=1.
 Leave Link  303 at Sun Mar  3 17:35:08 2024, MaxMem=  5368709120 cpu:         0.9
 (Enter /home/k0335/k033513/app/g09/l401.exe)
 ExpMin= 1.61D-01 ExpMax= 7.00D+03 ExpMxC= 1.05D+03 IAcc=1 IRadAn=         1 AccDes= 0.00D+00
 Harris functional with IExCor=20419 and IRadAn=       1 diagonalized for initial guess.
 HarFok:  IExCor=20419 AccDes= 0.00D+00 IRadAn=         1 IDoV= 1 UseB2=F ITyADJ=14
 ICtDFT=  3500011 ScaDFX=  1.000000  1.000000  1.000000  1.000000
 FoFCou: FMM=F IPFlag=           0 FMFlag=      100000 FMFlg1=           0
         NFxFlg=           0 DoJE=T BraDBF=F KetDBF=T FulRan=T
         wScrn=  0.000000 ICntrl=     500 IOpCl=  0 I1Cent=   200000004 NGrid=           0
         NMat0=    1 NMatS0=      1 NMatT0=    0 NMatD0=    1 NMtDS0=    0 NMtDT0=    0
 Symmetry not used in FoFCou.
 Harris En= -1882.28300581230    
 JPrj=0 DoOrth=F DoCkMO=F.
 Leave Link  401 at Sun Mar  3 17:35:09 2024, MaxMem=  5368709120 cpu:        12.3
 (Enter /home/k0335/k033513/app/g09/l502.exe)
 Closed shell SCF:
 Using DIIS extrapolation, IDIIS=  1040.
 Two-electron integral symmetry not used.
 IVT=      959373 IEndB=      959373 NGot=  5368709120 MDV=  5368074968
 LenX=  5368074968 LenY=  5367766388
 Requested convergence on RMS density matrix=1.00D-08 within 128 cycles.
 Requested convergence on MAX density matrix=1.00D-06.
 Requested convergence on             energy=1.00D-06.
 No special actions if energy rises.
 Fock matrices will be formed incrementally for  20 cycles.

 Cycle   1  Pass 1  IDiag  1:
 FoFJK:  IHMeth= 1 ICntrl=       0 DoSepK=T KAlg= 0 I1Cent=   0 FoldK=F
 IRaf=         1 NMat=   1 IRICut=       1 DoRegI=T DoRafI=F ISym2E= 0.
 FoFCou: FMM=F IPFlag=           0 FMFlag=      100000 FMFlg1=           0
         NFxFlg=           0 DoJE=T BraDBF=F KetDBF=F FulRan=T
         wScrn=  0.000000 ICntrl=     500 IOpCl=  0 I1Cent=           0 NGrid=           0
         NMat0=    1 NMatS0=      1 NMatT0=    0 NMatD0=    1 NMtDS0=    0 NMtDT0=    0
 Symmetry not used in FoFCou.
 Inv3:  Mode=1 IEnd=    39552483.
 Iteration    1 A*A^-1 deviation from unit magnitude is 5.11D-15 for   3624.
 Iteration    1 A*A^-1 deviation from orthogonality  is 4.95D-15 for   3620    566.
 Iteration    1 A^-1*A deviation from unit magnitude is 5.11D-15 for   3624.
 Iteration    1 A^-1*A deviation from orthogonality  is 4.56D-10 for   3617   3566.
 Iteration    2 A*A^-1 deviation from unit magnitude is 4.22D-15 for      4.
 Iteration    2 A*A^-1 deviation from orthogonality  is 1.42D-14 for   3631    888.
 Iteration    2 A^-1*A deviation from unit magnitude is 1.11D-15 for   1651.
 Iteration    2 A^-1*A deviation from orthogonality  is 1.15D-15 for   3601    198.
 E= -1944.92457400140    
 DIIS: error= 5.15D-02 at cycle   1 NSaved=   1.
 NSaved= 1 IEnMin= 1 EnMin= -1944.92457400140     IErMin= 1 ErrMin= 5.15D-02
 ErrMax= 5.15D-02  0.00D+00 EMaxC= 1.00D-01 BMatC= 1.60D+00 BMatP= 1.60D+00
 IDIUse=3 WtCom= 4.85D-01 WtEn= 5.15D-01
 Coeff-Com:  0.100D+01
 Coeff-En:   0.100D+01
 Coeff:      0.100D+01
 Gap=     0.437 Goal=   None    Shift=    0.000
 GapD=    0.437 DampG=2.000 DampE=0.500 DampFc=1.0000 IDamp=-1.
 RMSDP=2.81D-03 MaxDP=1.39D-01              OVMax= 1.74D-01

 Cycle   2  Pass 1  IDiag  1:
 RMSU=  2.81D-03    CP:  1.01D+00
 E= -1945.12910233490     Delta-E=       -0.204528333500 Rises=F Damp=F
 DIIS: error= 1.55D-02 at cycle   2 NSaved=   2.
 NSaved= 2 IEnMin= 2 EnMin= -1945.12910233490     IErMin= 2 ErrMin= 1.55D-02
 ErrMax= 1.55D-02  0.00D+00 EMaxC= 1.00D-01 BMatC= 6.18D-01 BMatP= 1.60D+00
 IDIUse=3 WtCom= 8.45D-01 WtEn= 1.55D-01
 Coeff-Com:  0.357D+00 0.643D+00
 Coeff-En:   0.380D+00 0.620D+00
 Coeff:      0.361D+00 0.639D+00
 Gap=     0.432 Goal=   None    Shift=    0.000
 RMSDP=1.62D-03 MaxDP=1.25D-01 DE=-2.05D-01 OVMax= 1.21D-01

 Cycle   3  Pass 1  IDiag  1:
 RMSU=  1.00D-03    CP:  1.00D+00  5.47D-01
 E= -1945.43214711909     Delta-E=       -0.303044784189 Rises=F Damp=F
 DIIS: error= 1.34D-02 at cycle   3 NSaved=   3.
 NSaved= 3 IEnMin= 3 EnMin= -1945.43214711909     IErMin= 3 ErrMin= 1.34D-02
 ErrMax= 1.34D-02  0.00D+00 EMaxC= 1.00D-01 BMatC= 1.82D-01 BMatP= 6.18D-01
 IDIUse=3 WtCom= 8.66D-01 WtEn= 1.34D-01
 Coeff-Com:  0.100D+00 0.359D+00 0.540D+00
 Coeff-En:   0.000D+00 0.226D+00 0.774D+00
 Coeff:      0.866D-01 0.342D+00 0.572D+00
 Gap=     0.373 Goal=   None    Shift=    0.000
 RMSDP=7.66D-04 MaxDP=6.13D-02 DE=-3.03D-01 OVMax= 8.46D-02

 Cycle   4  Pass 1  IDiag  1:
 RMSU=  3.40D-04    CP:  1.00D+00  6.79D-01  4.25D-01
 E= -1945.55097085424     Delta-E=       -0.118823735153 Rises=F Damp=F
 DIIS: error= 5.09D-03 at cycle   4 NSaved=   4.
 NSaved= 4 IEnMin= 4 EnMin= -1945.55097085424     IErMin= 4 ErrMin= 5.09D-03
 ErrMax= 5.09D-03  0.00D+00 EMaxC= 1.00D-01 BMatC= 1.95D-02 BMatP= 1.82D-01
 IDIUse=3 WtCom= 9.49D-01 WtEn= 5.09D-02
 Coeff-Com:  0.684D-02 0.102D+00 0.303D+00 0.588D+00
 Coeff-En:   0.000D+00 0.000D+00 0.581D-01 0.942D+00
 Coeff:      0.649D-02 0.972D-01 0.290D+00 0.606D+00
 Gap=     0.364 Goal=   None    Shift=    0.000
 RMSDP=2.30D-04 MaxDP=1.81D-02 DE=-1.19D-01 OVMax= 1.97D-02

 Cycle   5  Pass 1  IDiag  1:
 RMSU=  9.27D-05    CP:  1.00D+00  6.68D-01  5.91D-01  6.30D-01
 E= -1945.56411057868     Delta-E=       -0.013139724446 Rises=F Damp=F
 DIIS: error= 6.91D-04 at cycle   5 NSaved=   5.
 NSaved= 5 IEnMin= 5 EnMin= -1945.56411057868     IErMin= 5 ErrMin= 6.91D-04
 ErrMax= 6.91D-04  0.00D+00 EMaxC= 1.00D-01 BMatC= 9.07D-04 BMatP= 1.95D-02
 IDIUse=3 WtCom= 9.93D-01 WtEn= 6.91D-03
 Coeff-Com: -0.109D-02 0.305D-01 0.114D+00 0.307D+00 0.550D+00
 Coeff-En:   0.000D+00 0.000D+00 0.000D+00 0.000D+00 0.100D+01
 Coeff:     -0.109D-02 0.303D-01 0.114D+00 0.304D+00 0.553D+00
 Gap=     0.356 Goal=   None    Shift=    0.000
 RMSDP=4.67D-05 MaxDP=2.91D-03 DE=-1.31D-02 OVMax= 3.99D-03

 Cycle   6  Pass 1  IDiag  1:
 RMSU=  2.59D-05    CP:  1.00D+00  6.72D-01  5.80D-01  6.76D-01  6.59D-01
 E= -1945.56476258801     Delta-E=       -0.000652009323 Rises=F Damp=F
 DIIS: error= 1.57D-04 at cycle   6 NSaved=   6.
 NSaved= 6 IEnMin= 6 EnMin= -1945.56476258801     IErMin= 6 ErrMin= 1.57D-04
 ErrMax= 1.57D-04  0.00D+00 EMaxC= 1.00D-01 BMatC= 3.19D-05 BMatP= 9.07D-04
 IDIUse=3 WtCom= 9.98D-01 WtEn= 1.57D-03
 Coeff-Com: -0.867D-03-0.248D-03 0.660D-02 0.385D-01 0.190D+00 0.766D+00
 Coeff-En:   0.000D+00 0.000D+00 0.000D+00 0.000D+00 0.000D+00 0.100D+01
 Coeff:     -0.866D-03-0.248D-03 0.659D-02 0.384D-01 0.190D+00 0.766D+00
 Gap=     0.356 Goal=   None    Shift=    0.000
 RMSDP=1.20D-05 MaxDP=8.65D-04 DE=-6.52D-04 OVMax= 8.95D-04

 Cycle   7  Pass 1  IDiag  1:
 RMSU=  8.30D-06    CP:  1.00D+00  6.72D-01  5.84D-01  6.89D-01  7.25D-01
                    CP:  9.22D-01
 E= -1945.56478652019     Delta-E=       -0.000023932183 Rises=F Damp=F
 DIIS: error= 6.23D-05 at cycle   7 NSaved=   7.
 NSaved= 7 IEnMin= 7 EnMin= -1945.56478652019     IErMin= 7 ErrMin= 6.23D-05
 ErrMax= 6.23D-05  0.00D+00 EMaxC= 1.00D-01 BMatC= 5.04D-06 BMatP= 3.19D-05
 IDIUse=1 WtCom= 1.00D+00 WtEn= 0.00D+00
 Coeff-Com: -0.155D-03-0.331D-02-0.875D-02-0.142D-01 0.330D-01 0.348D+00
 Coeff-Com:  0.645D+00
 Coeff:     -0.155D-03-0.331D-02-0.875D-02-0.142D-01 0.330D-01 0.348D+00
 Coeff:      0.645D+00
 Gap=     0.356 Goal=   None    Shift=    0.000
 RMSDP=3.97D-06 MaxDP=2.52D-04 DE=-2.39D-05 OVMax= 3.49D-04

 Cycle   8  Pass 1  IDiag  1:
 RMSU=  2.33D-06    CP:  1.00D+00  6.72D-01  5.84D-01  6.88D-01  7.42D-01
                    CP:  1.00D+00  7.94D-01
 E= -1945.56479116783     Delta-E=       -0.000004647643 Rises=F Damp=F
 DIIS: error= 9.80D-06 at cycle   8 NSaved=   8.
 NSaved= 8 IEnMin= 8 EnMin= -1945.56479116783     IErMin= 8 ErrMin= 9.80D-06
 ErrMax= 9.80D-06  0.00D+00 EMaxC= 1.00D-01 BMatC= 1.55D-07 BMatP= 5.04D-06
 IDIUse=1 WtCom= 1.00D+00 WtEn= 0.00D+00
 Coeff-Com:  0.692D-05-0.832D-03-0.243D-02-0.632D-02-0.562D-02 0.228D-01
 Coeff-Com:  0.130D+00 0.863D+00
 Coeff:      0.692D-05-0.832D-03-0.243D-02-0.632D-02-0.562D-02 0.228D-01
 Coeff:      0.130D+00 0.863D+00
 Gap=     0.356 Goal=   None    Shift=    0.000
 RMSDP=1.31D-06 MaxDP=1.27D-04 DE=-4.65D-06 OVMax= 1.72D-04

 Cycle   9  Pass 1  IDiag  1:
 RMSU=  8.12D-07    CP:  1.00D+00  6.72D-01  5.85D-01  6.88D-01  7.47D-01
                    CP:  1.02D+00  8.65D-01  1.13D+00
 E= -1945.56479135833     Delta-E=       -0.000000190502 Rises=F Damp=F
 DIIS: error= 4.88D-06 at cycle   9 NSaved=   9.
 NSaved= 9 IEnMin= 9 EnMin= -1945.56479135833     IErMin= 9 ErrMin= 4.88D-06
 ErrMax= 4.88D-06  0.00D+00 EMaxC= 1.00D-01 BMatC= 5.65D-08 BMatP= 1.55D-07
 IDIUse=1 WtCom= 1.00D+00 WtEn= 0.00D+00
 Coeff-Com:  0.221D-04 0.119D-03 0.284D-03-0.842D-03-0.791D-02-0.451D-01
 Coeff-Com: -0.384D-01 0.438D+00 0.654D+00
 Coeff:      0.221D-04 0.119D-03 0.284D-03-0.842D-03-0.791D-02-0.451D-01
 Coeff:     -0.384D-01 0.438D+00 0.654D+00
 Gap=     0.356 Goal=   None    Shift=    0.000
 RMSDP=5.29D-07 MaxDP=4.53D-05 DE=-1.91D-07 OVMax= 6.82D-05

 Cycle  10  Pass 1  IDiag  1:
 RMSU=  2.91D-07    CP:  1.00D+00  6.72D-01  5.85D-01  6.89D-01  7.48D-01
                    CP:  1.03D+00  8.85D-01  1.26D+00  8.61D-01
 E= -1945.56479140971     Delta-E=       -0.000000051375 Rises=F Damp=F
 DIIS: error= 1.86D-06 at cycle  10 NSaved=  10.
 NSaved=10 IEnMin=10 EnMin= -1945.56479140971     IErMin=10 ErrMin= 1.86D-06
 ErrMax= 1.86D-06  0.00D+00 EMaxC= 1.00D-01 BMatC= 3.22D-09 BMatP= 5.65D-08
 IDIUse=1 WtCom= 1.00D+00 WtEn= 0.00D+00
 Coeff-Com:  0.766D-05 0.120D-03 0.350D-03 0.267D-03-0.211D-02-0.182D-01
 Coeff-Com: -0.254D-01 0.831D-01 0.233D+00 0.728D+00
 Coeff:      0.766D-05 0.120D-03 0.350D-03 0.267D-03-0.211D-02-0.182D-01
 Coeff:     -0.254D-01 0.831D-01 0.233D+00 0.728D+00
 Gap=     0.356 Goal=   None    Shift=    0.000
 RMSDP=1.53D-07 MaxDP=1.25D-05 DE=-5.14D-08 OVMax= 2.58D-05

 Cycle  11  Pass 1  IDiag  1:
 RMSU=  1.04D-07    CP:  1.00D+00  6.72D-01  5.85D-01  6.88D-01  7.48D-01
                    CP:  1.03D+00  8.90D-01  1.28D+00  9.45D-01  9.66D-01
 E= -1945.56479141261     Delta-E=       -0.000000002901 Rises=F Damp=F
 DIIS: error= 7.88D-07 at cycle  11 NSaved=  11.
 NSaved=11 IEnMin=11 EnMin= -1945.56479141261     IErMin=11 ErrMin= 7.88D-07
 ErrMax= 7.88D-07  0.00D+00 EMaxC= 1.00D-01 BMatC= 8.40D-10 BMatP= 3.22D-09
 IDIUse=1 WtCom= 1.00D+00 WtEn= 0.00D+00
 Coeff-Com:  0.160D-05 0.480D-04 0.154D-03 0.236D-03-0.466D-05-0.377D-02
 Coeff-Com: -0.850D-02-0.147D-01 0.344D-01 0.376D+00 0.616D+00
 Coeff:      0.160D-05 0.480D-04 0.154D-03 0.236D-03-0.466D-05-0.377D-02
 Coeff:     -0.850D-02-0.147D-01 0.344D-01 0.376D+00 0.616D+00
 Gap=     0.356 Goal=   None    Shift=    0.000
 RMSDP=5.92D-08 MaxDP=5.58D-06 DE=-2.90D-09 OVMax= 6.69D-06

 Cycle  12  Pass 1  IDiag  1:
 RMSU=  3.16D-08    CP:  1.00D+00  6.72D-01  5.85D-01  6.88D-01  7.48D-01
                    CP:  1.03D+00  8.91D-01  1.29D+00  9.58D-01  1.07D+00
                    CP:  8.30D-01
 E= -1945.56479141334     Delta-E=       -0.000000000733 Rises=F Damp=F
 DIIS: error= 2.89D-07 at cycle  12 NSaved=  12.
 NSaved=12 IEnMin=12 EnMin= -1945.56479141334     IErMin=12 ErrMin= 2.89D-07
 ErrMax= 2.89D-07  0.00D+00 EMaxC= 1.00D-01 BMatC= 6.35D-11 BMatP= 8.40D-10
 IDIUse=1 WtCom= 1.00D+00 WtEn= 0.00D+00
 Coeff-Com: -0.302D-06 0.342D-05 0.199D-04 0.537D-04 0.317D-03 0.877D-03
 Coeff-Com:  0.117D-03-0.151D-01-0.166D-01 0.395D-01 0.209D+00 0.782D+00
 Coeff:     -0.302D-06 0.342D-05 0.199D-04 0.537D-04 0.317D-03 0.877D-03
 Coeff:      0.117D-03-0.151D-01-0.166D-01 0.395D-01 0.209D+00 0.782D+00
 Gap=     0.356 Goal=   None    Shift=    0.000
 RMSDP=2.09D-08 MaxDP=1.67D-06 DE=-7.33D-10 OVMax= 2.53D-06

 Cycle  13  Pass 1  IDiag  1:
 RMSU=  1.08D-08    CP:  1.00D+00  6.72D-01  5.85D-01  6.88D-01  7.48D-01
                    CP:  1.03D+00  8.91D-01  1.30D+00  9.69D-01  1.10D+00
                    CP:  9.04D-01  9.50D-01
 E= -1945.56479141330     Delta-E=        0.000000000046 Rises=F Damp=F
 DIIS: error= 7.25D-08 at cycle  13 NSaved=  13.
 NSaved=13 IEnMin=12 EnMin= -1945.56479141334     IErMin=13 ErrMin= 7.25D-08
 ErrMax= 7.25D-08  0.00D+00 EMaxC= 1.00D-01 BMatC= 8.07D-12 BMatP= 6.35D-11
 IDIUse=1 WtCom= 1.00D+00 WtEn= 0.00D+00
 Coeff-Com: -0.315D-06-0.362D-05-0.602D-05-0.130D-05 0.149D-03 0.769D-03
 Coeff-Com:  0.960D-03-0.479D-02-0.107D-01-0.247D-01 0.214D-01 0.332D+00
 Coeff-Com:  0.685D+00
 Coeff:     -0.315D-06-0.362D-05-0.602D-05-0.130D-05 0.149D-03 0.769D-03
 Coeff:      0.960D-03-0.479D-02-0.107D-01-0.247D-01 0.214D-01 0.332D+00
 Coeff:      0.685D+00
 Gap=     0.356 Goal=   None    Shift=    0.000
 RMSDP=6.24D-09 MaxDP=3.66D-07 DE= 4.64D-11 OVMax= 6.49D-07

 Error on total polarization charges =  0.00673
 SCF Done:  E(RCAM-B3LYP) =  -1945.56479141     A.U. after   13 cycles
            NFock= 13  Conv=0.62D-08     -V/T= 2.0079
 KE= 1.930362324683D+03 PE=-1.214643713632D+04 EE= 4.486214545361D+03
 Leave Link  502 at Sun Mar  3 17:35:54 2024, MaxMem=  5368709120 cpu:      1024.1
 (Enter /home/k0335/k033513/app/g09/l601.exe)
 Copying SCF densities to generalized density rwf, IOpCl= 0 IROHF=0.

 **********************************************************************

            Population analysis using the SCF density.

 **********************************************************************

 Alpha  occ. eigenvalues --  -24.83695 -24.83465 -24.83371 -24.83312 -24.82677
 Alpha  occ. eigenvalues --  -24.82627 -24.82506 -24.82421 -24.81770 -19.33061
 Alpha  occ. eigenvalues --  -19.23106 -19.23071 -19.22364 -14.51735 -14.49118
 Alpha  occ. eigenvalues --  -14.49098 -10.59544 -10.55245 -10.52863 -10.48868
 Alpha  occ. eigenvalues --  -10.44748 -10.44710 -10.43495 -10.30841 -10.30784
 Alpha  occ. eigenvalues --  -10.25920 -10.25866 -10.25522 -10.25481 -10.24475
 Alpha  occ. eigenvalues --  -10.24449  -1.43158  -1.41585  -1.38470  -1.34924
 Alpha  occ. eigenvalues --   -1.33428  -1.33205  -1.32584  -1.32021  -1.31394
 Alpha  occ. eigenvalues --   -1.21497  -1.20413  -1.16589  -1.16041  -1.08521
 Alpha  occ. eigenvalues --   -1.05998  -1.04566  -0.93149  -0.89336  -0.88394
 Alpha  occ. eigenvalues --   -0.84759  -0.82682  -0.82455  -0.81444  -0.78184
 Alpha  occ. eigenvalues --   -0.77207  -0.75618  -0.74094  -0.73219  -0.72531
 Alpha  occ. eigenvalues --   -0.71160  -0.70483  -0.70318  -0.69337  -0.68514
 Alpha  occ. eigenvalues --   -0.67393  -0.66904  -0.66265  -0.65663  -0.65416
 Alpha  occ. eigenvalues --   -0.64848  -0.60813  -0.59960  -0.58949  -0.57353
 Alpha  occ. eigenvalues --   -0.57070  -0.56160  -0.56000  -0.55690  -0.55478
 Alpha  occ. eigenvalues --   -0.55114  -0.54721  -0.54351  -0.54041  -0.54020
 Alpha  occ. eigenvalues --   -0.53364  -0.53141  -0.52799  -0.52522  -0.51928
 Alpha  occ. eigenvalues --   -0.51648  -0.51450  -0.51032  -0.50393  -0.50190
 Alpha  occ. eigenvalues --   -0.50164  -0.49679  -0.49572  -0.48950  -0.48703
 Alpha  occ. eigenvalues --   -0.48383  -0.48256  -0.47703  -0.46197  -0.45741
 Alpha  occ. eigenvalues --   -0.45424  -0.44058  -0.43595  -0.42150  -0.41600
 Alpha  occ. eigenvalues --   -0.40767  -0.40313  -0.39586  -0.39426  -0.39093
 Alpha  occ. eigenvalues --   -0.38669  -0.38230  -0.37588  -0.35242  -0.34895
 Alpha  occ. eigenvalues --   -0.34256
 Alpha virt. eigenvalues --    0.01378   0.02910   0.07309   0.08104   0.11384
 Alpha virt. eigenvalues --    0.13579   0.14389   0.16400   0.16636   0.17088
 Alpha virt. eigenvalues --    0.17413   0.17730   0.18087   0.18565   0.18591
 Alpha virt. eigenvalues --    0.19439   0.20011   0.20843   0.20993   0.21831
 Alpha virt. eigenvalues --    0.21915   0.22524   0.22731   0.22867   0.23144
 Alpha virt. eigenvalues --    0.23458   0.23858   0.24390   0.24701   0.24949
 Alpha virt. eigenvalues --    0.25286   0.25866   0.26273   0.27096   0.27461
 Alpha virt. eigenvalues --    0.28104   0.28346   0.29059   0.29454   0.30207
 Alpha virt. eigenvalues --    0.30613   0.31021   0.31684   0.32118   0.32806
 Alpha virt. eigenvalues --    0.33685   0.37468   0.39411   0.40925   0.41250
 Alpha virt. eigenvalues --    0.42384   0.48599   0.48901   0.50975   0.51380
 Alpha virt. eigenvalues --    0.52285   0.53211   0.54488   0.54771   0.55335
 Alpha virt. eigenvalues --    0.55608   0.56045   0.56562   0.56671   0.57701
 Alpha virt. eigenvalues --    0.57762   0.58897   0.59247   0.59585   0.60337
 Alpha virt. eigenvalues --    0.60742   0.61675   0.62281   0.63169   0.64681
 Alpha virt. eigenvalues --    0.65349   0.66043   0.66987   0.67864   0.68851
 Alpha virt. eigenvalues --    0.70081   0.70300   0.70773   0.72009   0.72690
 Alpha virt. eigenvalues --    0.73694   0.74081   0.76305   0.77044   0.79021
 Alpha virt. eigenvalues --    0.79316   0.80861   0.82352   0.83397   0.84074
 Alpha virt. eigenvalues --    0.84799   0.85492   0.86653   0.87118   0.88022
 Alpha virt. eigenvalues --    0.88633   0.89197   0.89801   0.90479   0.91644
 Alpha virt. eigenvalues --    0.92183   0.92715   0.93461   0.93564   0.94106
 Alpha virt. eigenvalues --    0.94930   0.95256   0.96006   0.96162   0.96670
 Alpha virt. eigenvalues --    0.97095   0.97701   0.98693   0.99309   0.99814
 Alpha virt. eigenvalues --    1.00111   1.00936   1.01282   1.01995   1.02168
 Alpha virt. eigenvalues --    1.02686   1.03924   1.05476   1.06241   1.06821
 Alpha virt. eigenvalues --    1.07417   1.08510   1.09268   1.09822   1.10777
 Alpha virt. eigenvalues --    1.11849   1.12616   1.13668   1.14405   1.15656
 Alpha virt. eigenvalues --    1.16958   1.17840   1.18401   1.18908   1.20565
 Alpha virt. eigenvalues --    1.21580   1.22849   1.23332   1.23561   1.24245
 Alpha virt. eigenvalues --    1.25905   1.26565   1.27977   1.28150   1.29813
 Alpha virt. eigenvalues --    1.30227   1.31906   1.33414   1.33819   1.34201
 Alpha virt. eigenvalues --    1.34286   1.35131   1.35777   1.36168   1.38533
 Alpha virt. eigenvalues --    1.39077   1.40050   1.40739   1.41373   1.41938
 Alpha virt. eigenvalues --    1.42485   1.43254   1.43906   1.44416   1.45357
 Alpha virt. eigenvalues --    1.45508   1.46844   1.48242   1.48968   1.49975
 Alpha virt. eigenvalues --    1.51304   1.52678   1.54001   1.54114   1.54682
 Alpha virt. eigenvalues --    1.55989   1.56211   1.58293   1.59139   1.59807
 Alpha virt. eigenvalues --    1.60293   1.60984   1.61841   1.62588   1.63293
 Alpha virt. eigenvalues --    1.64912   1.67276   1.67970   1.69041   1.70015
 Alpha virt. eigenvalues --    1.70577   1.71433   1.71920   1.74067   1.75309
 Alpha virt. eigenvalues --    1.75965   1.76162   1.76730   1.77682   1.78165
 Alpha virt. eigenvalues --    1.78468   1.80071   1.80268   1.81458   1.82233
 Alpha virt. eigenvalues --    1.83007   1.83398   1.84002   1.85737   1.85815
 Alpha virt. eigenvalues --    1.86527   1.87402   1.87576   1.88045   1.89423
 Alpha virt. eigenvalues --    1.89640   1.89985   1.91091   1.91374   1.91915
 Alpha virt. eigenvalues --    1.92329   1.92629   1.92772   1.93749   1.93970
 Alpha virt. eigenvalues --    1.94335   1.94775   1.95300   1.95882   1.97226
 Alpha virt. eigenvalues --    1.97811   1.98269   1.98651   1.99463   1.99820
 Alpha virt. eigenvalues --    2.00219   2.00626   2.00853   2.01853   2.02091
 Alpha virt. eigenvalues --    2.02594   2.02926   2.03118   2.04093   2.04329
 Alpha virt. eigenvalues --    2.04417   2.04935   2.05764   2.06382   2.07685
 Alpha virt. eigenvalues --    2.09030   2.09529   2.10489   2.12230   2.12567
 Alpha virt. eigenvalues --    2.12808   2.13147   2.14055   2.15037   2.15497
 Alpha virt. eigenvalues --    2.16141   2.16400   2.17487   2.18110   2.18378
 Alpha virt. eigenvalues --    2.18556   2.19349   2.19978   2.20283   2.21183
 Alpha virt. eigenvalues --    2.22244   2.22810   2.25453   2.26049   2.26897
 Alpha virt. eigenvalues --    2.27761   2.28500   2.29100   2.29960   2.31099
 Alpha virt. eigenvalues --    2.31776   2.32097   2.32844   2.34312   2.35030
 Alpha virt. eigenvalues --    2.35402   2.36157   2.36955   2.38074   2.38762
 Alpha virt. eigenvalues --    2.39331   2.41106   2.41501   2.42369   2.42878
 Alpha virt. eigenvalues --    2.44082   2.45061   2.46254   2.46440   2.47326
 Alpha virt. eigenvalues --    2.47522   2.48260   2.50630   2.52194   2.53519
 Alpha virt. eigenvalues --    2.54807   2.55156   2.55505   2.56137   2.58374
 Alpha virt. eigenvalues --    2.59146   2.61305   2.62619   2.63139   2.63819
 Alpha virt. eigenvalues --    2.64589   2.66373   2.68470   2.68981   2.70261
 Alpha virt. eigenvalues --    2.70809   2.71753   2.73340   2.74066   2.74850
 Alpha virt. eigenvalues --    2.76526   2.76839   2.78326   2.78686   2.79261
 Alpha virt. eigenvalues --    2.80778   2.81133   2.81747   2.83022   2.83727
 Alpha virt. eigenvalues --    2.84275   2.85120   2.86447   2.88752   2.90425
 Alpha virt. eigenvalues --    2.90653   2.91056   2.91804   2.92513   2.94115
 Alpha virt. eigenvalues --    2.94656   2.95411   2.96383   2.97371   2.97945
 Alpha virt. eigenvalues --    2.98260   2.98693   2.99026   2.99243   2.99992
 Alpha virt. eigenvalues --    3.00856   3.01488   3.04120   3.05263   3.06242
 Alpha virt. eigenvalues --    3.06878   3.06975   3.08252   3.09867   3.14844
 Alpha virt. eigenvalues --    3.15681   3.18805   3.20521   3.22008   3.23460
 Alpha virt. eigenvalues --    3.26645   3.27305   3.27580   3.30419   3.32931
 Alpha virt. eigenvalues --    3.33029   3.34194   3.37513   3.38442   3.39714
 Alpha virt. eigenvalues --    3.40316   3.43634   3.44224   3.47532   3.52210
 Alpha virt. eigenvalues --    3.52688   3.54863   3.55621   3.56408   3.61485
 Alpha virt. eigenvalues --    3.62395   3.65262   3.65758   4.05416   4.13789
 Alpha virt. eigenvalues --    4.16769   4.21368   4.28529   4.31171   4.34077
 Alpha virt. eigenvalues --    4.35411   4.39476   4.43453   4.44146   4.48433
 Alpha virt. eigenvalues --    4.51115   4.52832   4.55349   4.62879   4.65516
 Alpha virt. eigenvalues --    4.67244   4.70851   4.71635   4.79672   4.81985
 Alpha virt. eigenvalues --    4.84992   4.90907   5.07403   5.21967   5.39709
 Alpha virt. eigenvalues --    5.47681   5.79443   6.28173   6.38721
          Condensed to atoms (all electrons):
               1          2          3          4          5          6
     1  C    4.907696   0.371477  -0.045108   0.003771  -0.000107  -0.000003
     2  C    0.371477   4.853032   0.376950  -0.037035   0.003267  -0.000083
     3  C   -0.045108   0.376950   4.935684   0.362250  -0.046676  -0.002341
     4  C    0.003771  -0.037035   0.362250   4.834704   0.238404  -0.023499
     5  N   -0.000107   0.003267  -0.046676   0.238404   7.293655   0.260554
     6  C   -0.000003  -0.000083  -0.002341  -0.023499   0.260554   4.151891
     7  O    0.000001  -0.000038  -0.003330   0.001183  -0.089657   0.590241
     8  N    0.000000   0.000000  -0.000208   0.003340  -0.099771   0.259394
     9  C    0.000000   0.000000   0.000008  -0.000055   0.003415  -0.023559
    10  C    0.000000   0.000000  -0.000008   0.000009  -0.000250  -0.002332
    11  C    0.000000   0.000000   0.000000   0.000000   0.000000  -0.000026
    12  C    0.000000   0.000000   0.000000   0.000000   0.000000  -0.000041
    13  C    0.000000   0.000000  -0.000030   0.000016  -0.004737  -0.021747
    14  O    0.000000   0.000000   0.000000   0.000001   0.000097   0.000284
    15  N    0.000000   0.000000  -0.000201   0.002958  -0.094600  -0.000955
    16  C    0.000000   0.000000   0.000011  -0.000031   0.002941   0.000417
    17  F    0.000000   0.000000   0.000000   0.000010  -0.000084   0.000000
    18  F    0.000000   0.000000   0.000000   0.000001   0.000018   0.000012
    19  C    0.000000   0.000000   0.000000   0.000001  -0.000077  -0.000014
    20  F    0.000000   0.000000   0.000000   0.000000   0.000000   0.000000
    21  O    0.000000   0.000000   0.000000   0.000000  -0.000004   0.000006
    22  C    0.000000   0.000000   0.000000   0.000000   0.000000   0.000000
    23  F    0.000000   0.000000   0.000000   0.000000   0.000000   0.000000
    24  F    0.000000   0.000000   0.000000   0.000000   0.000000   0.000000
    25  F    0.000000   0.000000   0.000000   0.000000   0.000000   0.000000
    26  C    0.000000   0.000000   0.000000   0.000000   0.000000   0.000000
    27  F    0.000000   0.000000   0.000000   0.000000   0.000000   0.000000
    28  F    0.000000   0.000000   0.000000   0.000000   0.000000   0.000000
    29  F    0.000000   0.000000   0.000000   0.000000   0.000000   0.000000
    30  C   -0.000004  -0.000030  -0.003411  -0.024509   0.278583  -0.022415
    31  O    0.000001  -0.000036  -0.003282   0.001574  -0.090456   0.000453
    32  H    0.391149  -0.035297  -0.005458   0.000067   0.000001  -0.000002
    33  H    0.391347  -0.035266  -0.005393   0.000070   0.000001   0.000000
    34  H    0.384315  -0.029231   0.004414  -0.000149   0.000001   0.000000
    35  H   -0.037518   0.393506  -0.040771  -0.003851   0.000055  -0.000026
    36  H   -0.037470   0.393824  -0.040543  -0.004122   0.000056   0.000008
    37  H   -0.003392  -0.033689   0.387536  -0.035732  -0.005424  -0.000182
    38  H   -0.003378  -0.033931   0.385965  -0.035803  -0.005674   0.004918
    39  H   -0.000032  -0.001742  -0.037848   0.386981  -0.033522  -0.004893
    40  H   -0.000026  -0.001791  -0.038002   0.387183  -0.033263   0.004282
    41  H    0.000000   0.000000   0.000000   0.000001  -0.000111   0.004300
    42  H    0.000000   0.000000   0.000001  -0.000008   0.000389  -0.004857
    43  H    0.000000   0.000000   0.000002   0.000002  -0.000118   0.004781
    44  H    0.000000   0.000000   0.000000  -0.000001  -0.000001  -0.000213
    45  H    0.000000   0.000000   0.000000   0.000000   0.000000   0.000006
    46  H    0.000000   0.000000   0.000000   0.000000   0.000000  -0.000003
    47  H    0.000000   0.000000   0.000000   0.000000   0.000000  -0.000014
    48  H    0.000000   0.000000   0.000000   0.000000   0.000000   0.000000
    49  H    0.000000   0.000000   0.000000   0.000000   0.000000   0.000000
               7          8          9         10         11         12
     1  C    0.000001   0.000000   0.000000   0.000000   0.000000   0.000000
     2  C   -0.000038   0.000000   0.000000   0.000000   0.000000   0.000000
     3  C   -0.003330  -0.000208   0.000008  -0.000008   0.000000   0.000000
     4  C    0.001183   0.003340  -0.000055   0.000009   0.000000   0.000000
     5  N   -0.089657  -0.099771   0.003415  -0.000250   0.000000   0.000000
     6  C    0.590241   0.259394  -0.023559  -0.002332  -0.000026  -0.000041
     7  O    8.095417  -0.089966   0.000958  -0.003526   0.000000  -0.000004
     8  N   -0.089966   7.315061   0.248735  -0.046470   0.003215   0.000090
     9  C    0.000958   0.248735   4.827434   0.365020  -0.040496  -0.004104
    10  C   -0.003526  -0.046470   0.365020   4.939353   0.375712  -0.052189
    11  C    0.000000   0.003215  -0.040496   0.375712   4.859318   0.371920
    12  C   -0.000004   0.000090  -0.004104  -0.052189   0.371920   4.918130
    13  C    0.000234   0.255816  -0.026247  -0.003268  -0.000074   0.000011
    14  O   -0.000026  -0.093851   0.000295  -0.002838  -0.000097  -0.000001
    15  N    0.000025  -0.101360   0.002888  -0.000186   0.000000   0.000000
    16  C    0.000002   0.003397  -0.000018   0.000008   0.000000   0.000000
    17  F    0.000000  -0.000022   0.000000   0.000000   0.000000   0.000000
    18  F    0.000000  -0.000005   0.000000   0.000000   0.000000   0.000000
    19  C    0.000000  -0.000276  -0.000015   0.000000   0.000000   0.000000
    20  F    0.000000  -0.000003   0.000003   0.000000   0.000000   0.000000
    21  O    0.000000  -0.000230   0.000002   0.000000   0.000000   0.000000
    22  C    0.000000  -0.000007   0.000000   0.000000   0.000000   0.000000
    23  F    0.000000   0.000000   0.000000   0.000000   0.000000   0.000000
    24  F    0.000000   0.000000   0.000000   0.000000   0.000000   0.000000
    25  F    0.000000   0.000000   0.000000   0.000000   0.000000   0.000000
    26  C    0.000000   0.000000   0.000000   0.000000   0.000000   0.000000
    27  F    0.000000   0.000000   0.000000   0.000000   0.000000   0.000000
    28  F    0.000000   0.000000   0.000000   0.000000   0.000000   0.000000
    29  F    0.000000   0.000000   0.000000   0.000000   0.000000   0.000000
    30  C    0.000387  -0.002044  -0.000086  -0.000021   0.000000   0.000000
    31  O   -0.000026   0.000117   0.000001   0.000000   0.000000   0.000000
    32  H   -0.000001   0.000000   0.000000   0.000000   0.000000   0.000000
    33  H    0.000000   0.000000   0.000000   0.000000   0.000000   0.000000
    34  H    0.000000   0.000000   0.000000   0.000000   0.000000   0.000000
    35  H    0.000015   0.000000   0.000000   0.000000   0.000000   0.000000
    36  H   -0.000002   0.000000   0.000000   0.000000   0.000000   0.000000
    37  H    0.000075   0.000004   0.000000   0.000000   0.000000   0.000000
    38  H    0.004208  -0.000141   0.000001   0.000004   0.000000   0.000000
    39  H    0.008833   0.000387  -0.000007   0.000001   0.000000   0.000000
    40  H    0.000503  -0.000114   0.000001   0.000000   0.000000   0.000000
    41  H    0.000506  -0.033524   0.387691  -0.039974  -0.001072  -0.000689
    42  H    0.009370  -0.033357   0.387059  -0.037171  -0.002471   0.003338
    43  H    0.004228  -0.005273  -0.037321   0.384419  -0.032179  -0.006831
    44  H    0.000075  -0.006362  -0.037888   0.386152  -0.028981   0.004899
    45  H   -0.000002   0.000045  -0.007495  -0.039314   0.392723  -0.041010
    46  H    0.000000  -0.000108   0.004601  -0.032489   0.391657  -0.039250
    47  H   -0.000026  -0.000012   0.002358  -0.005475  -0.035952   0.391832
    48  H    0.000020  -0.000014  -0.000883  -0.004739  -0.036711   0.391269
    49  H    0.000000   0.000000   0.000088   0.004754  -0.029539   0.385969
              13         14         15         16         17         18
     1  C    0.000000   0.000000   0.000000   0.000000   0.000000   0.000000
     2  C    0.000000   0.000000   0.000000   0.000000   0.000000   0.000000
     3  C   -0.000030   0.000000  -0.000201   0.000011   0.000000   0.000000
     4  C    0.000016   0.000001   0.002958  -0.000031   0.000010   0.000001
     5  N   -0.004737   0.000097  -0.094600   0.002941  -0.000084   0.000018
     6  C   -0.021747   0.000284  -0.000955   0.000417   0.000000   0.000012
     7  O    0.000234  -0.000026   0.000025   0.000002   0.000000   0.000000
     8  N    0.255816  -0.093851  -0.101360   0.003397  -0.000022  -0.000005
     9  C   -0.026247   0.000295   0.002888  -0.000018   0.000000   0.000000
    10  C   -0.003268  -0.002838  -0.000186   0.000008   0.000000   0.000000
    11  C   -0.000074  -0.000097   0.000000   0.000000   0.000000   0.000000
    12  C    0.000011  -0.000001   0.000000   0.000000   0.000000   0.000000
    13  C    4.193399   0.586260   0.205845  -0.008703   0.001971   0.005542
    14  O    0.586260   8.095824  -0.094328   0.012174   0.000023  -0.000899
    15  N    0.205845  -0.094328   7.580011   0.164927  -0.037919  -0.067379
    16  C   -0.008703   0.012174   0.164927   4.292730   0.253050   0.284169
    17  F    0.001971   0.000023  -0.037919   0.253050   9.127421  -0.036223
    18  F    0.005542  -0.000899  -0.067379   0.284169  -0.036223   9.097391
    19  C   -0.008959   0.009562  -0.029536   0.244440  -0.035726  -0.025401
    20  F    0.003454  -0.014278  -0.001178  -0.021824   0.000328   0.000218
    21  O    0.004771  -0.003932  -0.001848  -0.026624   0.000651   0.000548
    22  C    0.000099   0.000332  -0.000037   0.000868  -0.000035   0.000004
    23  F    0.000004  -0.000018  -0.000002   0.000232   0.000000   0.000000
    24  F   -0.000007  -0.000003   0.000000  -0.000045   0.000000   0.000000
    25  F    0.000002   0.000000   0.000001  -0.000133   0.000001   0.000000
    26  C    0.000294   0.000350   0.002409  -0.026013   0.012608  -0.004539
    27  F   -0.000001   0.000000   0.000046   0.010232  -0.001920  -0.000365
    28  F    0.000000   0.000000  -0.000055  -0.002337  -0.003054  -0.000012
    29  F   -0.000001   0.000000  -0.000008   0.001402   0.000004  -0.000002
    30  C   -0.014563   0.000008   0.195509  -0.001657   0.004442   0.006156
    31  O   -0.000270  -0.000021  -0.089051   0.018511  -0.011283  -0.002779
    32  H    0.000000   0.000000   0.000000   0.000000   0.000000   0.000000
    33  H    0.000000   0.000000   0.000000   0.000000   0.000000   0.000000
    34  H    0.000000   0.000000   0.000000   0.000000   0.000000   0.000000
    35  H    0.000000   0.000000   0.000000   0.000000   0.000000   0.000000
    36  H    0.000000   0.000000   0.000000   0.000000   0.000000   0.000000
    37  H    0.000002   0.000000   0.000004  -0.000001   0.000000   0.000000
    38  H    0.000002   0.000000   0.000005   0.000000   0.000000   0.000000
    39  H    0.000013   0.000000  -0.000104  -0.000001   0.000000   0.000000
    40  H    0.000017   0.000000   0.000320  -0.000007  -0.000004   0.000000
    41  H   -0.003753   0.007228   0.000322  -0.000010   0.000000   0.000000
    42  H    0.004948   0.000484  -0.000112  -0.000001   0.000000   0.000000
    43  H   -0.000151   0.000091   0.000006   0.000000   0.000000   0.000000
    44  H    0.004700   0.004292  -0.000032   0.000001   0.000000   0.000000
    45  H   -0.000024   0.000031   0.000000   0.000000   0.000000   0.000000
    46  H   -0.000008  -0.000001   0.000000   0.000000   0.000000   0.000000
    47  H   -0.000003   0.000000   0.000000   0.000000   0.000000   0.000000
    48  H    0.000000   0.000000   0.000000   0.000000   0.000000   0.000000
    49  H    0.000000   0.000000   0.000000   0.000000   0.000000   0.000000
              19         20         21         22         23         24
     1  C    0.000000   0.000000   0.000000   0.000000   0.000000   0.000000
     2  C    0.000000   0.000000   0.000000   0.000000   0.000000   0.000000
     3  C    0.000000   0.000000   0.000000   0.000000   0.000000   0.000000
     4  C    0.000001   0.000000   0.000000   0.000000   0.000000   0.000000
     5  N   -0.000077   0.000000  -0.000004   0.000000   0.000000   0.000000
     6  C   -0.000014   0.000000   0.000006   0.000000   0.000000   0.000000
     7  O    0.000000   0.000000   0.000000   0.000000   0.000000   0.000000
     8  N   -0.000276  -0.000003  -0.000230  -0.000007   0.000000   0.000000
     9  C   -0.000015   0.000003   0.000002   0.000000   0.000000   0.000000
    10  C    0.000000   0.000000   0.000000   0.000000   0.000000   0.000000
    11  C    0.000000   0.000000   0.000000   0.000000   0.000000   0.000000
    12  C    0.000000   0.000000   0.000000   0.000000   0.000000   0.000000
    13  C   -0.008959   0.003454   0.004771   0.000099   0.000004  -0.000007
    14  O    0.009562  -0.014278  -0.003932   0.000332  -0.000018  -0.000003
    15  N   -0.029536  -0.001178  -0.001848  -0.000037  -0.000002   0.000000
    16  C    0.244440  -0.021824  -0.026624   0.000868   0.000232  -0.000045
    17  F   -0.035726   0.000328   0.000651  -0.000035   0.000000   0.000000
    18  F   -0.025401   0.000218   0.000548   0.000004   0.000000   0.000000
    19  C    4.967997   0.203554   0.133279  -0.000210   0.012558   0.000576
    20  F    0.203554   9.142507  -0.044231  -0.001066  -0.002915  -0.000021
    21  O    0.133279  -0.044231   8.378176   0.236102  -0.044400  -0.039735
    22  C   -0.000210  -0.001066   0.236102   3.819596   0.299373   0.338151
    23  F    0.012558  -0.002915  -0.044400   0.299373   9.049793  -0.036407
    24  F    0.000576  -0.000021  -0.039735   0.338151  -0.036407   9.016422
    25  F   -0.008966  -0.000021  -0.048184   0.303240  -0.034319  -0.037888
    26  C    0.220506  -0.010907  -0.025473  -0.002552  -0.004709  -0.000035
    27  F   -0.033878  -0.000287   0.000547   0.000063   0.000000   0.000000
    28  F   -0.034211   0.000317   0.000389  -0.000293   0.000013   0.000000
    29  F   -0.031741  -0.000369  -0.001410   0.011407  -0.001088  -0.000002
    30  C    0.003851  -0.000055  -0.000064   0.000002   0.000000   0.000000
    31  O    0.000288   0.000000   0.000000   0.000000   0.000000   0.000000
    32  H    0.000000   0.000000   0.000000   0.000000   0.000000   0.000000
    33  H    0.000000   0.000000   0.000000   0.000000   0.000000   0.000000
    34  H    0.000000   0.000000   0.000000   0.000000   0.000000   0.000000
    35  H    0.000000   0.000000   0.000000   0.000000   0.000000   0.000000
    36  H    0.000000   0.000000   0.000000   0.000000   0.000000   0.000000
    37  H    0.000000   0.000000   0.000000   0.000000   0.000000   0.000000
    38  H    0.000000   0.000000   0.000000   0.000000   0.000000   0.000000
    39  H    0.000000   0.000000   0.000000   0.000000   0.000000   0.000000
    40  H    0.000000   0.000000   0.000000   0.000000   0.000000   0.000000
    41  H    0.000006  -0.000001  -0.000003   0.000005   0.000000   0.000000
    42  H    0.000000   0.000000   0.000000   0.000000   0.000000   0.000000
    43  H    0.000000   0.000000   0.000000   0.000000   0.000000   0.000000
    44  H    0.000000   0.000000   0.000000   0.000000   0.000000   0.000000
    45  H    0.000000   0.000000   0.000000   0.000000   0.000000   0.000000
    46  H    0.000000   0.000000   0.000000   0.000000   0.000000   0.000000
    47  H    0.000000   0.000000   0.000000   0.000000   0.000000   0.000000
    48  H    0.000000   0.000000   0.000000   0.000000   0.000000   0.000000
    49  H    0.000000   0.000000   0.000000   0.000000   0.000000   0.000000
              25         26         27         28         29         30
     1  C    0.000000   0.000000   0.000000   0.000000   0.000000  -0.000004
     2  C    0.000000   0.000000   0.000000   0.000000   0.000000  -0.000030
     3  C    0.000000   0.000000   0.000000   0.000000   0.000000  -0.003411
     4  C    0.000000   0.000000   0.000000   0.000000   0.000000  -0.024509
     5  N    0.000000   0.000000   0.000000   0.000000   0.000000   0.278583
     6  C    0.000000   0.000000   0.000000   0.000000   0.000000  -0.022415
     7  O    0.000000   0.000000   0.000000   0.000000   0.000000   0.000387
     8  N    0.000000   0.000000   0.000000   0.000000   0.000000  -0.002044
     9  C    0.000000   0.000000   0.000000   0.000000   0.000000  -0.000086
    10  C    0.000000   0.000000   0.000000   0.000000   0.000000  -0.000021
    11  C    0.000000   0.000000   0.000000   0.000000   0.000000   0.000000
    12  C    0.000000   0.000000   0.000000   0.000000   0.000000   0.000000
    13  C    0.000002   0.000294  -0.000001   0.000000  -0.000001  -0.014563
    14  O    0.000000   0.000350   0.000000   0.000000   0.000000   0.000008
    15  N    0.000001   0.002409   0.000046  -0.000055  -0.000008   0.195509
    16  C   -0.000133  -0.026013   0.010232  -0.002337   0.001402  -0.001657
    17  F    0.000001   0.012608  -0.001920  -0.003054   0.000004   0.004442
    18  F    0.000000  -0.004539  -0.000365  -0.000012  -0.000002   0.006156
    19  C   -0.008966   0.220506  -0.033878  -0.034211  -0.031741   0.003851
    20  F   -0.000021  -0.010907  -0.000287   0.000317  -0.000369  -0.000055
    21  O   -0.048184  -0.025473   0.000547   0.000389  -0.001410  -0.000064
    22  C    0.303240  -0.002552   0.000063  -0.000293   0.011407   0.000002
    23  F   -0.034319  -0.004709   0.000000   0.000013  -0.001088   0.000000
    24  F   -0.037888  -0.000035   0.000000   0.000000  -0.000002   0.000000
    25  F    9.060234   0.017236   0.000000  -0.000488  -0.005935   0.000000
    26  C    0.017236   4.163272   0.289939   0.270724   0.282460  -0.000068
    27  F    0.000000   0.289939   9.053899  -0.037051  -0.038684   0.000006
    28  F   -0.000488   0.270724  -0.037051   9.093032  -0.039142   0.000002
    29  F   -0.005935   0.282460  -0.038684  -0.039142   9.083424   0.000000
    30  C    0.000000  -0.000068   0.000006   0.000002   0.000000   4.166133
    31  O    0.000000   0.000000   0.000000   0.000000   0.000000   0.583404
    32  H    0.000000   0.000000   0.000000   0.000000   0.000000   0.000000
    33  H    0.000000   0.000000   0.000000   0.000000   0.000000  -0.000001
    34  H    0.000000   0.000000   0.000000   0.000000   0.000000   0.000000
    35  H    0.000000   0.000000   0.000000   0.000000   0.000000   0.000008
    36  H    0.000000   0.000000   0.000000   0.000000   0.000000  -0.000021
    37  H    0.000000   0.000000   0.000000   0.000000   0.000000   0.004354
    38  H    0.000000   0.000000   0.000000   0.000000   0.000000  -0.000107
    39  H    0.000000   0.000000   0.000000   0.000000   0.000000   0.004686
    40  H    0.000000   0.000000   0.000000   0.000000   0.000000  -0.003450
    41  H    0.000000   0.000000   0.000000   0.000000   0.000000   0.000017
    42  H    0.000000   0.000000   0.000000   0.000000   0.000000   0.000014
    43  H    0.000000   0.000000   0.000000   0.000000   0.000000  -0.000001
    44  H    0.000000   0.000000   0.000000   0.000000   0.000000   0.000003
    45  H    0.000000   0.000000   0.000000   0.000000   0.000000   0.000000
    46  H    0.000000   0.000000   0.000000   0.000000   0.000000   0.000000
    47  H    0.000000   0.000000   0.000000   0.000000   0.000000   0.000000
    48  H    0.000000   0.000000   0.000000   0.000000   0.000000   0.000000
    49  H    0.000000   0.000000   0.000000   0.000000   0.000000   0.000000
              31         32         33         34         35         36
     1  C    0.000001   0.391149   0.391347   0.384315  -0.037518  -0.037470
     2  C   -0.000036  -0.035297  -0.035266  -0.029231   0.393506   0.393824
     3  C   -0.003282  -0.005458  -0.005393   0.004414  -0.040771  -0.040543
     4  C    0.001574   0.000067   0.000070  -0.000149  -0.003851  -0.004122
     5  N   -0.090456   0.000001   0.000001   0.000001   0.000055   0.000056
     6  C    0.000453  -0.000002   0.000000   0.000000  -0.000026   0.000008
     7  O   -0.000026  -0.000001   0.000000   0.000000   0.000015  -0.000002
     8  N    0.000117   0.000000   0.000000   0.000000   0.000000   0.000000
     9  C    0.000001   0.000000   0.000000   0.000000   0.000000   0.000000
    10  C    0.000000   0.000000   0.000000   0.000000   0.000000   0.000000
    11  C    0.000000   0.000000   0.000000   0.000000   0.000000   0.000000
    12  C    0.000000   0.000000   0.000000   0.000000   0.000000   0.000000
    13  C   -0.000270   0.000000   0.000000   0.000000   0.000000   0.000000
    14  O   -0.000021   0.000000   0.000000   0.000000   0.000000   0.000000
    15  N   -0.089051   0.000000   0.000000   0.000000   0.000000   0.000000
    16  C    0.018511   0.000000   0.000000   0.000000   0.000000   0.000000
    17  F   -0.011283   0.000000   0.000000   0.000000   0.000000   0.000000
    18  F   -0.002779   0.000000   0.000000   0.000000   0.000000   0.000000
    19  C    0.000288   0.000000   0.000000   0.000000   0.000000   0.000000
    20  F    0.000000   0.000000   0.000000   0.000000   0.000000   0.000000
    21  O    0.000000   0.000000   0.000000   0.000000   0.000000   0.000000
    22  C    0.000000   0.000000   0.000000   0.000000   0.000000   0.000000
    23  F    0.000000   0.000000   0.000000   0.000000   0.000000   0.000000
    24  F    0.000000   0.000000   0.000000   0.000000   0.000000   0.000000
    25  F    0.000000   0.000000   0.000000   0.000000   0.000000   0.000000
    26  C    0.000000   0.000000   0.000000   0.000000   0.000000   0.000000
    27  F    0.000000   0.000000   0.000000   0.000000   0.000000   0.000000
    28  F    0.000000   0.000000   0.000000   0.000000   0.000000   0.000000
    29  F    0.000000   0.000000   0.000000   0.000000   0.000000   0.000000
    30  C    0.583404   0.000000  -0.000001   0.000000   0.000008  -0.000021
    31  O    8.083509   0.000000  -0.000002   0.000000  -0.000003   0.000022
    32  H    0.000000   0.599177  -0.031643  -0.029841  -0.004962   0.005241
    33  H   -0.000002  -0.031643   0.597997  -0.029795   0.005244  -0.004961
    34  H    0.000000  -0.029841  -0.029795   0.601589  -0.003243  -0.003232
    35  H   -0.000003  -0.004962   0.005244  -0.003243   0.621889  -0.037515
    36  H    0.000022   0.005241  -0.004961  -0.003232  -0.037515   0.620750
    37  H    0.004660  -0.000451   0.004436  -0.000003   0.005329  -0.005431
    38  H    0.000093   0.004464  -0.000453  -0.000006  -0.005462   0.005354
    39  H    0.000490   0.000001   0.000005   0.000003   0.004212  -0.000451
    40  H    0.007045   0.000005   0.000001   0.000003  -0.000452   0.004205
    41  H    0.000000   0.000000   0.000000   0.000000   0.000000   0.000000
    42  H    0.000000   0.000000   0.000000   0.000000   0.000000   0.000000
    43  H    0.000000   0.000000   0.000000   0.000000   0.000000   0.000000
    44  H    0.000000   0.000000   0.000000   0.000000   0.000000   0.000000
    45  H    0.000000   0.000000   0.000000   0.000000   0.000000   0.000000
    46  H    0.000000   0.000000   0.000000   0.000000   0.000000   0.000000
    47  H    0.000000   0.000000   0.000000   0.000000   0.000000   0.000000
    48  H    0.000000   0.000000   0.000000   0.000000   0.000000   0.000000
    49  H    0.000000   0.000000   0.000000   0.000000   0.000000   0.000000
              37         38         39         40         41         42
     1  C   -0.003392  -0.003378  -0.000032  -0.000026   0.000000   0.000000
     2  C   -0.033689  -0.033931  -0.001742  -0.001791   0.000000   0.000000
     3  C    0.387536   0.385965  -0.037848  -0.038002   0.000000   0.000001
     4  C   -0.035732  -0.035803   0.386981   0.387183   0.000001  -0.000008
     5  N   -0.005424  -0.005674  -0.033522  -0.033263  -0.000111   0.000389
     6  C   -0.000182   0.004918  -0.004893   0.004282   0.004300  -0.004857
     7  O    0.000075   0.004208   0.008833   0.000503   0.000506   0.009370
     8  N    0.000004  -0.000141   0.000387  -0.000114  -0.033524  -0.033357
     9  C    0.000000   0.000001  -0.000007   0.000001   0.387691   0.387059
    10  C    0.000000   0.000004   0.000001   0.000000  -0.039974  -0.037171
    11  C    0.000000   0.000000   0.000000   0.000000  -0.001072  -0.002471
    12  C    0.000000   0.000000   0.000000   0.000000  -0.000689   0.003338
    13  C    0.000002   0.000002   0.000013   0.000017  -0.003753   0.004948
    14  O    0.000000   0.000000   0.000000   0.000000   0.007228   0.000484
    15  N    0.000004   0.000005  -0.000104   0.000320   0.000322  -0.000112
    16  C   -0.000001   0.000000  -0.000001  -0.000007  -0.000010  -0.000001
    17  F    0.000000   0.000000   0.000000  -0.000004   0.000000   0.000000
    18  F    0.000000   0.000000   0.000000   0.000000   0.000000   0.000000
    19  C    0.000000   0.000000   0.000000   0.000000   0.000006   0.000000
    20  F    0.000000   0.000000   0.000000   0.000000  -0.000001   0.000000
    21  O    0.000000   0.000000   0.000000   0.000000  -0.000003   0.000000
    22  C    0.000000   0.000000   0.000000   0.000000   0.000005   0.000000
    23  F    0.000000   0.000000   0.000000   0.000000   0.000000   0.000000
    24  F    0.000000   0.000000   0.000000   0.000000   0.000000   0.000000
    25  F    0.000000   0.000000   0.000000   0.000000   0.000000   0.000000
    26  C    0.000000   0.000000   0.000000   0.000000   0.000000   0.000000
    27  F    0.000000   0.000000   0.000000   0.000000   0.000000   0.000000
    28  F    0.000000   0.000000   0.000000   0.000000   0.000000   0.000000
    29  F    0.000000   0.000000   0.000000   0.000000   0.000000   0.000000
    30  C    0.004354  -0.000107   0.004686  -0.003450   0.000017   0.000014
    31  O    0.004660   0.000093   0.000490   0.007045   0.000000   0.000000
    32  H   -0.000451   0.004464   0.000001   0.000005   0.000000   0.000000
    33  H    0.004436  -0.000453   0.000005   0.000001   0.000000   0.000000
    34  H   -0.000003  -0.000006   0.000003   0.000003   0.000000   0.000000
    35  H    0.005329  -0.005462   0.004212  -0.000452   0.000000   0.000000
    36  H   -0.005431   0.005354  -0.000451   0.004205   0.000000   0.000000
    37  H    0.600185  -0.037264   0.004841  -0.005557   0.000000   0.000000
    38  H   -0.037264   0.605644  -0.005631   0.004938   0.000000  -0.000002
    39  H    0.004841  -0.005631   0.555904  -0.029949   0.000000   0.000001
    40  H   -0.005557   0.004938  -0.029949   0.559019   0.000000   0.000000
    41  H    0.000000   0.000000   0.000000   0.000000   0.559600  -0.030160
    42  H    0.000000  -0.000002   0.000001   0.000000  -0.030160   0.553443
    43  H    0.000000   0.000097  -0.000002   0.000000   0.005005  -0.005873
    44  H    0.000000   0.000000   0.000000   0.000000  -0.005036   0.004831
    45  H    0.000000   0.000000   0.000000   0.000000   0.004825  -0.000135
    46  H    0.000000   0.000000   0.000000   0.000000  -0.000033  -0.000077
    47  H    0.000000   0.000000   0.000000   0.000000   0.000368   0.000759
    48  H    0.000000   0.000000   0.000000   0.000000   0.000081   0.000393
    49  H    0.000000   0.000000   0.000000   0.000000  -0.000018  -0.000128
              43         44         45         46         47         48
     1  C    0.000000   0.000000   0.000000   0.000000   0.000000   0.000000
     2  C    0.000000   0.000000   0.000000   0.000000   0.000000   0.000000
     3  C    0.000002   0.000000   0.000000   0.000000   0.000000   0.000000
     4  C    0.000002  -0.000001   0.000000   0.000000   0.000000   0.000000
     5  N   -0.000118  -0.000001   0.000000   0.000000   0.000000   0.000000
     6  C    0.004781  -0.000213   0.000006  -0.000003  -0.000014   0.000000
     7  O    0.004228   0.000075  -0.000002   0.000000  -0.000026   0.000020
     8  N   -0.005273  -0.006362   0.000045  -0.000108  -0.000012  -0.000014
     9  C   -0.037321  -0.037888  -0.007495   0.004601   0.002358  -0.000883
    10  C    0.384419   0.386152  -0.039314  -0.032489  -0.005475  -0.004739
    11  C   -0.032179  -0.028981   0.392723   0.391657  -0.035952  -0.036711
    12  C   -0.006831   0.004899  -0.041010  -0.039250   0.391832   0.391269
    13  C   -0.000151   0.004700  -0.000024  -0.000008  -0.000003   0.000000
    14  O    0.000091   0.004292   0.000031  -0.000001   0.000000   0.000000
    15  N    0.000006  -0.000032   0.000000   0.000000   0.000000   0.000000
    16  C    0.000000   0.000001   0.000000   0.000000   0.000000   0.000000
    17  F    0.000000   0.000000   0.000000   0.000000   0.000000   0.000000
    18  F    0.000000   0.000000   0.000000   0.000000   0.000000   0.000000
    19  C    0.000000   0.000000   0.000000   0.000000   0.000000   0.000000
    20  F    0.000000   0.000000   0.000000   0.000000   0.000000   0.000000
    21  O    0.000000   0.000000   0.000000   0.000000   0.000000   0.000000
    22  C    0.000000   0.000000   0.000000   0.000000   0.000000   0.000000
    23  F    0.000000   0.000000   0.000000   0.000000   0.000000   0.000000
    24  F    0.000000   0.000000   0.000000   0.000000   0.000000   0.000000
    25  F    0.000000   0.000000   0.000000   0.000000   0.000000   0.000000
    26  C    0.000000   0.000000   0.000000   0.000000   0.000000   0.000000
    27  F    0.000000   0.000000   0.000000   0.000000   0.000000   0.000000
    28  F    0.000000   0.000000   0.000000   0.000000   0.000000   0.000000
    29  F    0.000000   0.000000   0.000000   0.000000   0.000000   0.000000
    30  C   -0.000001   0.000003   0.000000   0.000000   0.000000   0.000000
    31  O    0.000000   0.000000   0.000000   0.000000   0.000000   0.000000
    32  H    0.000000   0.000000   0.000000   0.000000   0.000000   0.000000
    33  H    0.000000   0.000000   0.000000   0.000000   0.000000   0.000000
    34  H    0.000000   0.000000   0.000000   0.000000   0.000000   0.000000
    35  H    0.000000   0.000000   0.000000   0.000000   0.000000   0.000000
    36  H    0.000000   0.000000   0.000000   0.000000   0.000000   0.000000
    37  H    0.000000   0.000000   0.000000   0.000000   0.000000   0.000000
    38  H    0.000097   0.000000   0.000000   0.000000   0.000000   0.000000
    39  H   -0.000002   0.000000   0.000000   0.000000   0.000000   0.000000
    40  H    0.000000   0.000000   0.000000   0.000000   0.000000   0.000000
    41  H    0.005005  -0.005036   0.004825  -0.000033   0.000368   0.000081
    42  H   -0.005873   0.004831  -0.000135  -0.000077   0.000759   0.000393
    43  H    0.604740  -0.035426   0.005348  -0.003291  -0.000129   0.005070
    44  H   -0.035426   0.603653  -0.003050  -0.004783  -0.000064   0.000045
    45  H    0.005348  -0.003050   0.621343  -0.034286  -0.005300   0.005285
    46  H   -0.003291  -0.004783  -0.034286   0.616922   0.005221  -0.004042
    47  H   -0.000129  -0.000064  -0.005300   0.005221   0.600182  -0.031747
    48  H    0.005070   0.000045   0.005285  -0.004042  -0.031747   0.594637
    49  H    0.000014  -0.000168  -0.002560  -0.004646  -0.029396  -0.029573
              49
     1  C    0.000000
     2  C    0.000000
     3  C    0.000000
     4  C    0.000000
     5  N    0.000000
     6  C    0.000000
     7  O    0.000000
     8  N    0.000000
     9  C    0.000088
    10  C    0.004754
    11  C   -0.029539
    12  C    0.385969
    13  C    0.000000
    14  O    0.000000
    15  N    0.000000
    16  C    0.000000
    17  F    0.000000
    18  F    0.000000
    19  C    0.000000
    20  F    0.000000
    21  O    0.000000
    22  C    0.000000
    23  F    0.000000
    24  F    0.000000
    25  F    0.000000
    26  C    0.000000
    27  F    0.000000
    28  F    0.000000
    29  F    0.000000
    30  C    0.000000
    31  O    0.000000
    32  H    0.000000
    33  H    0.000000
    34  H    0.000000
    35  H    0.000000
    36  H    0.000000
    37  H    0.000000
    38  H    0.000000
    39  H    0.000000
    40  H    0.000000
    41  H   -0.000018
    42  H   -0.000128
    43  H    0.000014
    44  H   -0.000168
    45  H   -0.002560
    46  H   -0.004646
    47  H   -0.029396
    48  H   -0.029573
    49  H    0.598126
 Mulliken charges:
               1
     1  C   -0.322718
     2  C   -0.183886
     3  C   -0.180210
     4  C   -0.057731
     5  N   -0.576905
     6  C    0.825657
     7  O   -0.529677
     8  N   -0.576480
     9  C   -0.052385
    10  C   -0.185181
    11  C   -0.186946
    12  C   -0.323338
    13  C    0.825148
    14  O   -0.507042
    15  N   -0.636382
    16  C    0.797891
    17  F   -0.274238
    18  F   -0.256457
    19  C    0.412394
    20  F   -0.253227
    21  O   -0.518334
    22  C    0.994959
    23  F   -0.238116
    24  F   -0.241007
    25  F   -0.244779
    26  C    0.814496
    27  F   -0.242546
    28  F   -0.247835
    29  F   -0.260313
    30  C    0.824942
    31  O   -0.502960
    32  H    0.107551
    33  H    0.108412
    34  H    0.105176
    35  H    0.103544
    36  H    0.104289
    37  H    0.115698
    38  H    0.112157
    39  H    0.147824
    40  H    0.145093
    41  H    0.144430
    42  H    0.149320
    43  H    0.112791
    44  H    0.113353
    45  H    0.103570
    46  H    0.104615
    47  H    0.107397
    48  H    0.110909
    49  H    0.107077
 Sum of Mulliken charges =   0.00000
 Mulliken charges with hydrogens summed into heavy atoms:
               1
     1  C   -0.001580
     2  C    0.023947
     3  C    0.047645
     4  C    0.235187
     5  N   -0.576905
     6  C    0.825657
     7  O   -0.529677
     8  N   -0.576480
     9  C    0.241364
    10  C    0.040963
    11  C    0.021239
    12  C    0.002045
    13  C    0.825148
    14  O   -0.507042
    15  N   -0.636382
    16  C    0.797891
    17  F   -0.274238
    18  F   -0.256457
    19  C    0.412394
    20  F   -0.253227
    21  O   -0.518334
    22  C    0.994959
    23  F   -0.238116
    24  F   -0.241007
    25  F   -0.244779
    26  C    0.814496
    27  F   -0.242546
    28  F   -0.247835
    29  F   -0.260313
    30  C    0.824942
    31  O   -0.502960
 Electronic spatial extent (au):  <R**2>=          16516.6896
 Charge=              0.0000 electrons
 Dipole moment (field-independent basis, Debye):
    X=             -2.8002    Y=              0.0185    Z=              1.1959  Tot=              3.0450
 Quadrupole moment (field-independent basis, Debye-Ang):
   XX=           -185.2535   YY=           -170.9759   ZZ=           -174.5130
   XY=             -0.0849   XZ=              6.5978   YZ=             -0.2374
 Traceless Quadrupole moment (field-independent basis, Debye-Ang):
   XX=             -8.3394   YY=              5.9383   ZZ=              2.4011
   XY=             -0.0849   XZ=              6.5978   YZ=             -0.2374
 Octapole moment (field-independent basis, Debye-Ang**2):
  XXX=           -600.4095  YYY=            237.4881  ZZZ=            -23.9757  XYY=           -225.4576
  XXY=             53.7407  XXZ=            -18.8499  XZZ=           -187.5389  YZZ=             79.4099
  YYZ=             11.5816  XYZ=             -3.7303
 Hexadecapole moment (field-independent basis, Debye-Ang**3):
 XXXX=         -10740.3303 YYYY=          -7047.5342 ZZZZ=          -1058.6190 XXXY=           1553.1980
 XXXZ=             36.5471 YYYX=           1487.2371 YYYZ=             15.1150 ZZZX=             -0.6750
 ZZZY=             -5.6006 XXYY=          -2954.3044 XXZZ=          -1952.3172 YYZZ=          -1370.8569
 XXYZ=             -0.0812 YYXZ=              3.7816 ZZXY=            520.8521
 N-N= 3.784295474859D+03 E-N=-1.214643713610D+04  KE= 1.930362324683D+03
 No NMR shielding tensors so no spin-rotation constants.
 Leave Link  601 at Sun Mar  3 17:35:55 2024, MaxMem=  5368709120 cpu:         3.5
 (Enter /home/k0335/k033513/app/g09/l9999.exe)
 1\1\GINC-C24U18N2\SP\RCAM-B3LYP\6-31G(d,p)\C15H18F9N3O4\K033513\03-Mar
 -2024\0\\#p CAM-B3LYP/6-31G(d,p) SCRF=(PCM,Solvent=Generic,Read) NoSym
 m out=wfn\\Title A1557670722_0\\0,1\C,0,-2.303845,5.603212,-0.657529\C
 ,0,-1.623341,4.878449,0.492678\C,0,-1.186591,3.471499,0.087556\C,0,-0.
 502129,2.74569,1.250355\N,0,-0.075609,1.397383,0.875382\C,0,-1.004371,
 0.381368,0.942021\O,0,-2.141107,0.558829,1.38213\N,0,-0.594513,-0.8350
 75,0.438555\C,0,-1.586139,-1.907903,0.341338\C,0,-2.421957,-1.794316,-
 0.938582\C,0,-3.390289,-2.962166,-1.133009\C,0,-4.482693,-3.025375,-0.
 076833\C,0,0.642501,-1.026287,-0.14092\O,0,0.865454,-2.012494,-0.83779
 9\N,0,1.579195,-0.057081,0.083354\C,0,2.936064,-0.214205,-0.434246\F,0
 ,3.733355,0.631697,0.29137\F,0,2.973496,0.240474,-1.716671\C,0,3.61512
 ,-1.609722,-0.356003\F,0,3.149714,-2.417362,-1.352335\O,0,3.266099,-2.
 22524,0.894913\C,0,3.962416,-3.424376,1.120645\F,0,4.025766,-4.182215,
 0.01702\F,0,3.320617,-4.109161,2.085991\F,0,5.20033,-3.135142,1.554659
 \C,0,5.111011,-1.360871,-0.602648\F,0,5.34564,-0.638927,-1.719465\F,0,
 5.697705,-0.71842,0.433169\F,0,5.783549,-2.52901,-0.754541\C,0,1.17136
 4,1.238279,0.302479\O,0,1.850169,2.215538,-0.013455\H,0,-3.197967,5.06
 4199,-0.986703\H,0,-1.628087,5.703073,-1.512936\H,0,-2.608009,6.607329
 ,-0.345872\H,0,-2.314067,4.823789,1.342128\H,0,-0.752663,5.459193,0.81
 873\H,0,-0.503435,3.529353,-0.768612\H,0,-2.058759,2.896808,-0.247569\
 H,0,-1.187922,2.68053,2.103559\H,0,0.3707,3.318439,1.586212\H,0,-1.071
 069,-2.875629,0.366168\H,0,-2.233554,-1.867238,1.224136\H,0,-2.979028,
 -0.849393,-0.939631\H,0,-1.752614,-1.754495,-1.80696\H,0,-2.836939,-3.
 908364,-1.143376\H,0,-3.86312,-2.860956,-2.117196\H,0,-4.072075,-3.246
 439,0.912629\H,0,-5.031165,-2.079771,-0.021412\H,0,-5.19721,-3.8175,-0
 .322871\\Version=ES64L-G09RevD.01\HF=-1945.5647914\RMSD=6.237e-09\Dipo
 le=-1.1016912,0.0072813,0.4705054\Quadrupole=-6.2001367,4.4149446,1.78
 51922,-0.0631071,4.9053167,-0.1764797\PG=C01 [X(C15H18F9N3O4)]\\@

 Writing a WFN file to "A1557670722/A1557670722_0.wfn"


 JUST WHEN YOU THINK YOU'VE GOT THE WORLD ON A STRING,
 YOU FIND OUT IT'S YOUR LEASH.
 Job cpu time:       0 days  0 hours 17 minutes 38.0 seconds.
 File lengths (MBytes):  RWF=    383 Int=      0 D2E=      0 Chk=     13 Scr=      1
 Normal termination of Gaussian 09 at Sun Mar  3 17:35:55 2024.
