 Entering Gaussian System, Link 0=g09
 Initial command:
 /home/k0335/k033513/app/g09/l1.exe "/home/k0335/k033513/app/g09/scratch/Gau-624508.inp" -scrdir="/home/k0335/k033513/app/g09/scratch/"
 Default is to use a total of  36 processors:
                               36 via shared-memory
                                1 via Linda
 Entering Link 1 = /home/k0335/k033513/app/g09/l1.exe PID=    624509.
  
 Copyright (c) 1988,1990,1992,1993,1995,1998,2003,2009,2013,
            Gaussian, Inc.  All Rights Reserved.
  
 This is part of the Gaussian(R) 09 program.  It is based on
 the Gaussian(R) 03 system (copyright 2003, Gaussian, Inc.),
 the Gaussian(R) 98 system (copyright 1998, Gaussian, Inc.),
 the Gaussian(R) 94 system (copyright 1995, Gaussian, Inc.),
 the Gaussian 92(TM) system (copyright 1992, Gaussian, Inc.),
 the Gaussian 90(TM) system (copyright 1990, Gaussian, Inc.),
 the Gaussian 88(TM) system (copyright 1988, Gaussian, Inc.),
 the Gaussian 86(TM) system (copyright 1986, Carnegie Mellon
 University), and the Gaussian 82(TM) system (copyright 1983,
 Carnegie Mellon University). Gaussian is a federally registered
 trademark of Gaussian, Inc.
  
 This software contains proprietary and confidential information,
 including trade secrets, belonging to Gaussian, Inc.
  
 This software is provided under written license and may be
 used, copied, transmitted, or stored only in accord with that
 written license.
  
 The following legend is applicable only to US Government
 contracts under FAR:
  
                    RESTRICTED RIGHTS LEGEND
  
 Use, reproduction and disclosure by the US Government is
 subject to restrictions as set forth in subparagraphs (a)
 and (c) of the Commercial Computer Software - Restricted
 Rights clause in FAR 52.227-19.
  
 Gaussian, Inc.
 340 Quinnipiac St., Bldg. 40, Wallingford CT 06492
  
  
 ---------------------------------------------------------------
 Warning -- This program may not be used in any manner that
 competes with the business of Gaussian, Inc. or will provide
 assistance to any competitor of Gaussian, Inc.  The licensee
 of this program is prohibited from giving any competitor of
 Gaussian, Inc. access to this program.  By using this program,
 the user acknowledges that Gaussian, Inc. is engaged in the
 business of creating and licensing software in the field of
 computational chemistry and represents and warrants to the
 licensee that it is not a competitor of Gaussian, Inc. and that
 it will not use this program in any manner prohibited above.
 ---------------------------------------------------------------
  

 Cite this work as:
 Gaussian 09, Revision D.01,
 M. J. Frisch, G. W. Trucks, H. B. Schlegel, G. E. Scuseria, 
 M. A. Robb, J. R. Cheeseman, G. Scalmani, V. Barone, B. Mennucci, 
 G. A. Petersson, H. Nakatsuji, M. Caricato, X. Li, H. P. Hratchian, 
 A. F. Izmaylov, J. Bloino, G. Zheng, J. L. Sonnenberg, M. Hada, 
 M. Ehara, K. Toyota, R. Fukuda, J. Hasegawa, M. Ishida, T. Nakajima, 
 Y. Honda, O. Kitao, H. Nakai, T. Vreven, J. A. Montgomery, Jr., 
 J. E. Peralta, F. Ogliaro, M. Bearpark, J. J. Heyd, E. Brothers, 
 K. N. Kudin, V. N. Staroverov, T. Keith, R. Kobayashi, J. Normand, 
 K. Raghavachari, A. Rendell, J. C. Burant, S. S. Iyengar, J. Tomasi, 
 M. Cossi, N. Rega, J. M. Millam, M. Klene, J. E. Knox, J. B. Cross, 
 V. Bakken, C. Adamo, J. Jaramillo, R. Gomperts, R. E. Stratmann, 
 O. Yazyev, A. J. Austin, R. Cammi, C. Pomelli, J. W. Ochterski, 
 R. L. Martin, K. Morokuma, V. G. Zakrzewski, G. A. Voth, 
 P. Salvador, J. J. Dannenberg, S. Dapprich, A. D. Daniels, 
 O. Farkas, J. B. Foresman, J. V. Ortiz, J. Cioslowski, 
 and D. J. Fox, Gaussian, Inc., Wallingford CT, 2013.
 
 ******************************************
 Gaussian 09:  ES64L-G09RevD.01 24-Apr-2013
                 2-Feb-2025 
 ******************************************
 %nprocshared=24
 Will use up to   24 processors via shared memory.
 %mem=40GB
 %rwf=wang5/LDAI1C2/LDAI1C2_pos.rwf
 %nosave
 %chk=wang5/LDAI1C2/LDAI1C2_pos.chk
 ----------------------------------------------------------------------
 #p CAM-B3LYP/6-31G(d,p) SCRF=(PCM,Solvent=Generic,Read) NoSymm out=wfn
 ----------------------------------------------------------------------
 1/38=1,40=2/1;
 2/12=2,15=1,17=6,18=5,40=1/2;
 3/5=1,6=6,7=101,11=2,16=1,25=1,30=1,70=2203,72=-2,74=-40/1,2,3;
 4//1;
 5/5=2,38=5/2;
 6/7=2,8=2,9=2,10=2,28=1/1;
 99/5=1,6=100,9=1/99;
 Leave Link    1 at Sun Feb  2 11:43:01 2025, MaxMem=  5368709120 cpu:         4.5
 (Enter /home/k0335/k033513/app/g09/l101.exe)
 -----------------
 Title LDAI1C2_pos
 -----------------
 Symbolic Z-matrix:
 Charge =  1 Multiplicity = 2
 C                    -0.05721  -4.40883   2.0911 
 N                     0.04269  -2.98545   1.81806 
 C                     1.11748  -2.29647   2.33496 
 O                     2.00797  -2.86      2.97469 
 N                     1.14667  -0.9378    2.09245 
 C                     2.21984  -0.15436   2.70446 
 C                     3.53016  -0.19194   1.90673 
 C                     3.43836   0.52853   0.55634 
 C                     4.78965   0.57143  -0.15306 
 F                     5.68401   1.18895   0.66464 
 F                     5.24129  -0.70162  -0.32245 
 C                     4.70731   1.28844  -1.52378 
 F                     3.72069   0.69151  -2.25935 
 F                     4.29896   2.57666  -1.3765 
 O                     5.83424   1.28416  -2.36424 
 C                     6.95972   1.77584  -1.69937 
 F                     6.66728   2.84308  -0.93684 
 F                     7.87093   2.1492   -2.62067 
 F                     7.50081   0.80456  -0.94372 
 C                     0.23643  -0.29432   1.28138 
 O                     0.28129   0.92403   1.09327 
 N                    -0.71946  -1.08544   0.68077 
 C                    -1.67905  -0.44553  -0.21983 
 C                    -2.90905   0.06239   0.54134 
 C                    -3.80075   1.01628  -0.26448 
 C                    -4.39024   0.40322  -1.53382 
 F                    -3.37389   0.08652  -2.38331 
 F                    -4.99812  -0.77161  -1.20908 
 C                    -5.39226   1.33768  -2.2418 
 F                    -4.76464   2.48824  -2.5986 
 F                    -5.85545   0.75987  -3.37594 
 O                    -6.47041   1.68631  -1.40488 
 C                    -7.51435   2.1982   -2.18249 
 F                    -7.08008   3.08619  -3.09393 
 F                    -8.17727   1.19741  -2.79033 
 F                    -8.37636   2.8303   -1.35776 
 C                    -0.87779  -2.42742   0.95782 
 O                    -1.79151  -3.09038   0.46295 
 H                     0.41313  -4.66508   3.04492 
 H                    -1.10361  -4.72731   2.12195 
 H                     0.45255  -4.94835   1.28652 
 H                     2.41013  -0.55372   3.70835 
 H                     1.8981    0.88452   2.84107 
 H                     3.84358  -1.23022   1.7465 
 H                     4.30876   0.28489   2.51458 
 H                     2.71567   0.00848  -0.08139 
 H                     3.08029   1.5517    0.71829 
 H                    -1.18723   0.38693  -0.73649 
 H                    -1.9804   -1.16743  -0.98649 
 H                    -2.58492   0.59347   1.44554 
 H                    -3.50246  -0.79186   0.88994 
 H                    -4.61284   1.33848   0.39789 
 H                    -3.21868   1.90767  -0.52706 
 
 NAtoms=     53 NQM=       53 NQMF=       0 NMMI=      0 NMMIF=      0
                NMic=       0 NMicF=      0.
                    Isotopes and Nuclear Properties:
 (Nuclear quadrupole moments (NQMom) in fm**2, nuclear magnetic moments (NMagM)
  in nuclear magnetons)

  Atom         1           2           3           4           5           6           7           8           9          10
 IAtWgt=          12          14          12          16          14          12          12          12          12          19
 AtmWgt=  12.0000000  14.0030740  12.0000000  15.9949146  14.0030740  12.0000000  12.0000000  12.0000000  12.0000000  18.9984033
 NucSpn=           0           2           0           0           2           0           0           0           0           1
 AtZEff=   0.0000000   0.0000000   0.0000000   0.0000000   0.0000000   0.0000000   0.0000000   0.0000000   0.0000000   0.0000000
 NQMom=    0.0000000   2.0440000   0.0000000   0.0000000   2.0440000   0.0000000   0.0000000   0.0000000   0.0000000   0.0000000
 NMagM=    0.0000000   0.4037610   0.0000000   0.0000000   0.4037610   0.0000000   0.0000000   0.0000000   0.0000000   2.6288670
 AtZNuc=   6.0000000   7.0000000   6.0000000   8.0000000   7.0000000   6.0000000   6.0000000   6.0000000   6.0000000   9.0000000

  Atom        11          12          13          14          15          16          17          18          19          20
 IAtWgt=          19          12          19          19          16          12          19          19          19          12
 AtmWgt=  18.9984033  12.0000000  18.9984033  18.9984033  15.9949146  12.0000000  18.9984033  18.9984033  18.9984033  12.0000000
 NucSpn=           1           0           1           1           0           0           1           1           1           0
 AtZEff=   0.0000000   0.0000000   0.0000000   0.0000000   0.0000000   0.0000000   0.0000000   0.0000000   0.0000000   0.0000000
 NQMom=    0.0000000   0.0000000   0.0000000   0.0000000   0.0000000   0.0000000   0.0000000   0.0000000   0.0000000   0.0000000
 NMagM=    2.6288670   0.0000000   2.6288670   2.6288670   0.0000000   0.0000000   2.6288670   2.6288670   2.6288670   0.0000000
 AtZNuc=   9.0000000   6.0000000   9.0000000   9.0000000   8.0000000   6.0000000   9.0000000   9.0000000   9.0000000   6.0000000

  Atom        21          22          23          24          25          26          27          28          29          30
 IAtWgt=          16          14          12          12          12          12          19          19          12          19
 AtmWgt=  15.9949146  14.0030740  12.0000000  12.0000000  12.0000000  12.0000000  18.9984033  18.9984033  12.0000000  18.9984033
 NucSpn=           0           2           0           0           0           0           1           1           0           1
 AtZEff=   0.0000000   0.0000000   0.0000000   0.0000000   0.0000000   0.0000000   0.0000000   0.0000000   0.0000000   0.0000000
 NQMom=    0.0000000   2.0440000   0.0000000   0.0000000   0.0000000   0.0000000   0.0000000   0.0000000   0.0000000   0.0000000
 NMagM=    0.0000000   0.4037610   0.0000000   0.0000000   0.0000000   0.0000000   2.6288670   2.6288670   0.0000000   2.6288670
 AtZNuc=   8.0000000   7.0000000   6.0000000   6.0000000   6.0000000   6.0000000   9.0000000   9.0000000   6.0000000   9.0000000

  Atom        31          32          33          34          35          36          37          38          39          40
 IAtWgt=          19          16          12          19          19          19          12          16           1           1
 AtmWgt=  18.9984033  15.9949146  12.0000000  18.9984033  18.9984033  18.9984033  12.0000000  15.9949146   1.0078250   1.0078250
 NucSpn=           1           0           0           1           1           1           0           0           1           1
 AtZEff=   0.0000000   0.0000000   0.0000000   0.0000000   0.0000000   0.0000000   0.0000000   0.0000000   0.0000000   0.0000000
 NQMom=    0.0000000   0.0000000   0.0000000   0.0000000   0.0000000   0.0000000   0.0000000   0.0000000   0.0000000   0.0000000
 NMagM=    2.6288670   0.0000000   0.0000000   2.6288670   2.6288670   2.6288670   0.0000000   0.0000000   2.7928460   2.7928460
 AtZNuc=   9.0000000   8.0000000   6.0000000   9.0000000   9.0000000   9.0000000   6.0000000   8.0000000   1.0000000   1.0000000

  Atom        41          42          43          44          45          46          47          48          49          50
 IAtWgt=           1           1           1           1           1           1           1           1           1           1
 AtmWgt=   1.0078250   1.0078250   1.0078250   1.0078250   1.0078250   1.0078250   1.0078250   1.0078250   1.0078250   1.0078250
 NucSpn=           1           1           1           1           1           1           1           1           1           1
 AtZEff=   0.0000000   0.0000000   0.0000000   0.0000000   0.0000000   0.0000000   0.0000000   0.0000000   0.0000000   0.0000000
 NQMom=    0.0000000   0.0000000   0.0000000   0.0000000   0.0000000   0.0000000   0.0000000   0.0000000   0.0000000   0.0000000
 NMagM=    2.7928460   2.7928460   2.7928460   2.7928460   2.7928460   2.7928460   2.7928460   2.7928460   2.7928460   2.7928460
 AtZNuc=   1.0000000   1.0000000   1.0000000   1.0000000   1.0000000   1.0000000   1.0000000   1.0000000   1.0000000   1.0000000

  Atom        51          52          53
 IAtWgt=           1           1           1
 AtmWgt=   1.0078250   1.0078250   1.0078250
 NucSpn=           1           1           1
 AtZEff=   0.0000000   0.0000000   0.0000000
 NQMom=    0.0000000   0.0000000   0.0000000
 NMagM=    2.7928460   2.7928460   2.7928460
 AtZNuc=   1.0000000   1.0000000   1.0000000
 Leave Link  101 at Sun Feb  2 11:43:01 2025, MaxMem=  5368709120 cpu:         0.8
 (Enter /home/k0335/k033513/app/g09/l202.exe)
 Symmetry turned off by external request.
 Stoichiometry    C16H15F14N3O5(1+,2)
 Framework group  C1[X(C16H15F14N3O5)]
 Deg. of freedom   153
 Full point group                 C1      NOp   1
                          Input orientation:                          
 ---------------------------------------------------------------------
 Center     Atomic      Atomic             Coordinates (Angstroms)
 Number     Number       Type             X           Y           Z
 ---------------------------------------------------------------------
      1          6           0       -0.057206   -4.408830    2.091100
      2          7           0        0.042689   -2.985446    1.818055
      3          6           0        1.117482   -2.296471    2.334962
      4          8           0        2.007966   -2.860004    2.974686
      5          7           0        1.146673   -0.937803    2.092447
      6          6           0        2.219842   -0.154356    2.704457
      7          6           0        3.530162   -0.191940    1.906732
      8          6           0        3.438364    0.528529    0.556336
      9          6           0        4.789652    0.571431   -0.153062
     10          9           0        5.684014    1.188953    0.664639
     11          9           0        5.241287   -0.701616   -0.322454
     12          6           0        4.707310    1.288437   -1.523780
     13          9           0        3.720694    0.691512   -2.259348
     14          9           0        4.298961    2.576661   -1.376497
     15          8           0        5.834244    1.284159   -2.364244
     16          6           0        6.959715    1.775843   -1.699371
     17          9           0        6.667282    2.843084   -0.936837
     18          9           0        7.870930    2.149201   -2.620672
     19          9           0        7.500812    0.804558   -0.943722
     20          6           0        0.236431   -0.294315    1.281379
     21          8           0        0.281288    0.924033    1.093275
     22          7           0       -0.719464   -1.085443    0.680772
     23          6           0       -1.679047   -0.445532   -0.219828
     24          6           0       -2.909054    0.062388    0.541338
     25          6           0       -3.800749    1.016276   -0.264477
     26          6           0       -4.390235    0.403222   -1.533816
     27          9           0       -3.373891    0.086517   -2.383310
     28          9           0       -4.998123   -0.771609   -1.209085
     29          6           0       -5.392263    1.337684   -2.241797
     30          9           0       -4.764635    2.488237   -2.598601
     31          9           0       -5.855449    0.759871   -3.375941
     32          8           0       -6.470406    1.686314   -1.404881
     33          6           0       -7.514349    2.198203   -2.182488
     34          9           0       -7.080080    3.086189   -3.093926
     35          9           0       -8.177271    1.197409   -2.790332
     36          9           0       -8.376360    2.830296   -1.357761
     37          6           0       -0.877791   -2.427420    0.957819
     38          8           0       -1.791514   -3.090385    0.462954
     39          1           0        0.413128   -4.665079    3.044918
     40          1           0       -1.103608   -4.727305    2.121948
     41          1           0        0.452553   -4.948352    1.286517
     42          1           0        2.410134   -0.553718    3.708346
     43          1           0        1.898101    0.884522    2.841069
     44          1           0        3.843583   -1.230219    1.746500
     45          1           0        4.308764    0.284885    2.514582
     46          1           0        2.715667    0.008483   -0.081387
     47          1           0        3.080290    1.551696    0.718292
     48          1           0       -1.187233    0.386925   -0.736489
     49          1           0       -1.980401   -1.167425   -0.986491
     50          1           0       -2.584915    0.593466    1.445544
     51          1           0       -3.502463   -0.791864    0.889935
     52          1           0       -4.612837    1.338476    0.397885
     53          1           0       -3.218677    1.907671   -0.527062
 ---------------------------------------------------------------------
 Rotational constants (GHZ):      0.1374147      0.0327246      0.0280217
 Leave Link  202 at Sun Feb  2 11:43:01 2025, MaxMem=  5368709120 cpu:         0.1
 (Enter /home/k0335/k033513/app/g09/l301.exe)
 Standard basis: 6-31G(d,p) (6D, 7F)
 Ernie: Thresh=  0.10000D-02 Tol=  0.10000D-05 Strict=F.
   645 basis functions,  1169 primitive gaussians,   645 cartesian basis functions
   149 alpha electrons      148 beta electrons
       nuclear repulsion energy      4797.4527298511 Hartrees.
 IExCor=20419 DFT=T Ex+Corr=CAM-B3LYP ExCW=0 ScaHFX=  1.000000
 ScaDFX=  1.000000  1.000000  1.000000  0.810000 ScalE2=  1.000000  1.000000
 IRadAn=      0 IRanWt=     -1 IRanGd=            0 ICorTp=0 IEmpDi=  4
  HFx wShort=  0.000000 wLong=  0.330000 cFull=  0.190000 cShort=  0.000000 cLong=  0.460000
  DFx wShort=  0.000000 wLong=  0.330000 cFull=  0.190000 cShort=  0.000000 cLong=  0.460000
 NAtoms=   53 NActive=   53 NUniq=   53 SFac= 1.00D+00 NAtFMM=   60 NAOKFM=F Big=F
 Integral buffers will be    131072 words long.
 Raffenetti 2 integral format.
 Two-electron integral symmetry is turned off.
 Using the following non-standard input for PCM:
 eps=4.9
 --- end of non-standard input.
 ------------------------------------------------------------------------------
 Polarizable Continuum Model (PCM)
 =================================
 Model                : PCM (using non-symmetric T matrix).
 Atomic radii         : UFF (Universal Force Field).
 Polarization charges : Total charges.
 Charge compensation  : None.
 Solution method      : On-the-fly selection.
 Cavity type          : Scaled VdW (van der Waals Surface) (Alpha=1.100).
 Cavity algorithm     : GePol (No added spheres)
                        Default sphere list used, NSphG=   53.
                        Lebedev-Laikov grids with approx.  5.0 points / Ang**2.
                        Smoothing algorithm: Karplus/York (Gamma=1.0000).
                        Polarization charges: spherical gaussians, with
                                              point-specific exponents (IZeta= 3).
                        Self-potential: point-specific (ISelfS= 7).
                        Self-field    : sphere-specific E.n sum rule (ISelfD= 2).
 Solvent              : Generic,
                        Eps                           =   4.900000
                        Eps(infinity)                 =   0.000000
                        RSolv                         =   0.000000 Ang.
                        Molar volume                  =   0.000000 cm**3/mol
                        Thermal expansion coefficient =   0.000000 K**-1
                        Absolute temperature          = 298.150000 K
                        Numeral density               =   0.000000 Ang**-3
                        Hydrogen bond acidity         =   0.000000
                        Hydrogen bond basicity        =   0.000000
                        Surface tension at interface  =   0.000000 (cal/mol)*Ang**-2
                        Carbon aromaticity            =   0.000000
                        Electronegative halogenicity  =   0.000000
 ------------------------------------------------------------------------------
 GePol: Number of generator spheres                  =      53
 GePol: Total number of spheres                      =      53
 GePol: Number of exposed spheres                    =      53 (100.00%)
 GePol: Number of points                             =    4156
 GePol: Average weight of points                     =       0.13
 GePol: Minimum weight of points                     =   0.49D-09
 GePol: Maximum weight of points                     =    0.20577
 GePol: Number of points with low weight             =     214
 GePol: Fraction of low-weight points (<1% of avg)   =       5.15%
 GePol: Cavity surface area                          =    526.969 Ang**2
 GePol: Cavity volume                                =    588.121 Ang**3
 Leave Link  301 at Sun Feb  2 11:43:01 2025, MaxMem=  5368709120 cpu:         0.7
 (Enter /home/k0335/k033513/app/g09/l302.exe)
 NPDir=0 NMtPBC=     1 NCelOv=     1 NCel=       1 NClECP=     1 NCelD=      1
         NCelK=      1 NCelE2=     1 NClLst=     1 CellRange=     0.0.
 One-electron integrals computed using PRISM.
 NBasis=   645 RedAO= T EigKep=  1.39D-03  NBF=   645
 NBsUse=   645 1.00D-06 EigRej= -1.00D+00 NBFU=   645
 Precomputing XC quadrature grid using
 IXCGrd= 4 IRadAn=           0 IRanWt=          -1 IRanGd=           0 AccXCQ= 0.00D+00.
 Generated NRdTot=       0 NPtTot=           0 NUsed=           0 NTot=          32
 NSgBfM=   597   597   597   597   598 MxSgAt=    53 MxSgA2=    53.
 Leave Link  302 at Sun Feb  2 11:43:02 2025, MaxMem=  5368709120 cpu:        13.9
 (Enter /home/k0335/k033513/app/g09/l303.exe)
 DipDrv:  MaxL=1.
 Leave Link  303 at Sun Feb  2 11:43:02 2025, MaxMem=  5368709120 cpu:         0.9
 (Enter /home/k0335/k033513/app/g09/l401.exe)
 ExpMin= 1.61D-01 ExpMax= 7.00D+03 ExpMxC= 1.05D+03 IAcc=1 IRadAn=         1 AccDes= 0.00D+00
 Harris functional with IExCor=20419 and IRadAn=       1 diagonalized for initial guess.
 HarFok:  IExCor=20419 AccDes= 0.00D+00 IRadAn=         1 IDoV= 1 UseB2=F ITyADJ=14
 ICtDFT=  3500011 ScaDFX=  1.000000  1.000000  1.000000  1.000000
 FoFCou: FMM=F IPFlag=           0 FMFlag=      100000 FMFlg1=           0
         NFxFlg=           0 DoJE=T BraDBF=F KetDBF=T FulRan=T
         wScrn=  0.000000 ICntrl=     500 IOpCl=  0 I1Cent=   200000004 NGrid=           0
         NMat0=    1 NMatS0=      1 NMatT0=    0 NMatD0=    1 NMtDS0=    0 NMtDT0=    0
 Symmetry not used in FoFCou.
 Harris En= -2476.04274518967    
 JPrj=0 DoOrth=F DoCkMO=F.
 Initial guess <Sx>= 0.0000 <Sy>= 0.0000 <Sz>= 0.5000 <S**2>= 0.7500 S= 0.5000
 Leave Link  401 at Sun Feb  2 11:43:03 2025, MaxMem=  5368709120 cpu:        18.4
 (Enter /home/k0335/k033513/app/g09/l502.exe)
 UHF open shell SCF:
 Using DIIS extrapolation, IDIIS=  1040.
 Two-electron integral symmetry not used.
 IVT=     1286081 IEndB=     1286081 NGot=  5368709120 MDV=  5367856350
 LenX=  5367856350 LenY=  5367439680
 Requested convergence on RMS density matrix=1.00D-08 within 128 cycles.
 Requested convergence on MAX density matrix=1.00D-06.
 Requested convergence on             energy=1.00D-06.
 No special actions if energy rises.
 Fock matrices will be formed incrementally for  20 cycles.

 Cycle   1  Pass 1  IDiag  1:
 FoFJK:  IHMeth= 1 ICntrl=       0 DoSepK=T KAlg= 0 I1Cent=   0 FoldK=F
 IRaf=         1 NMat=   1 IRICut=       1 DoRegI=T DoRafI=F ISym2E= 0.
 FoFCou: FMM=F IPFlag=           0 FMFlag=      100000 FMFlg1=           0
         NFxFlg=           0 DoJE=T BraDBF=F KetDBF=F FulRan=T
         wScrn=  0.000000 ICntrl=     500 IOpCl=  0 I1Cent=           0 NGrid=           0
         NMat0=    1 NMatS0=      1 NMatT0=    0 NMatD0=    1 NMtDS0=    0 NMtDT0=    0
 Symmetry not used in FoFCou.
 Inv3:  Mode=1 IEnd=    51817008.
 Iteration    1 A*A^-1 deviation from unit magnitude is 5.33D-15 for   4146.
 Iteration    1 A*A^-1 deviation from orthogonality  is 5.20D-15 for   2660   2405.
 Iteration    1 A^-1*A deviation from unit magnitude is 5.33D-15 for   4136.
 Iteration    1 A^-1*A deviation from orthogonality  is 7.71D-12 for   4040   4038.
 E= -2554.84312568838    
 DIIS: error= 5.80D-02 at cycle   1 NSaved=   1.
 NSaved= 1 IEnMin= 1 EnMin= -2554.84312568838     IErMin= 1 ErrMin= 5.80D-02
 ErrMax= 5.80D-02  0.00D+00 EMaxC= 1.00D-01 BMatC= 9.27D+00 BMatP= 9.27D+00
 IDIUse=3 WtCom= 4.20D-01 WtEn= 5.80D-01
 Coeff-Com:  0.100D+01
 Coeff-En:   0.100D+01
 Coeff:      0.100D+01
 Gap=     0.498 Goal=   None    Shift=    0.000
 Gap=     0.032 Goal=   None    Shift=    0.000
 GapD=    0.032 DampG=0.250 DampE=0.500 DampFc=0.2500 IDamp=-1.
 Damping current iteration by 2.50D-01
 RMSDP=3.18D-03 MaxDP=1.58D-01              OVMax= 5.15D-01

 Cycle   2  Pass 1  IDiag  1:
 RMSU=  7.95D-04    CP:  1.00D+00
 E= -2555.18212601229     Delta-E=       -0.339000323906 Rises=F Damp=T
 DIIS: error= 4.19D-02 at cycle   2 NSaved=   2.
 NSaved= 2 IEnMin= 2 EnMin= -2555.18212601229     IErMin= 2 ErrMin= 4.19D-02
 ErrMax= 4.19D-02  0.00D+00 EMaxC= 1.00D-01 BMatC= 3.74D+00 BMatP= 9.27D+00
 IDIUse=3 WtCom= 5.81D-01 WtEn= 4.19D-01
 Coeff-Com: -0.137D+01 0.237D+01
 Coeff-En:   0.000D+00 0.100D+01
 Coeff:     -0.797D+00 0.180D+01
 Gap=     0.535 Goal=   None    Shift=    0.000
 Gap=     0.057 Goal=   None    Shift=    0.000
 RMSDP=1.62D-03 MaxDP=7.18D-02 DE=-3.39D-01 OVMax= 4.74D-01

 Cycle   3  Pass 1  IDiag  1:
 RMSU=  1.06D-03    CP:  9.99D-01  2.55D+00
 E= -2555.80397172699     Delta-E=       -0.621845714701 Rises=F Damp=F
 DIIS: error= 1.02D-02 at cycle   3 NSaved=   3.
 NSaved= 3 IEnMin= 3 EnMin= -2555.80397172699     IErMin= 3 ErrMin= 1.02D-02
 ErrMax= 1.02D-02  0.00D+00 EMaxC= 1.00D-01 BMatC= 3.88D-01 BMatP= 3.74D+00
 IDIUse=3 WtCom= 8.98D-01 WtEn= 1.02D-01
 Coeff-Com: -0.455D+00 0.802D+00 0.653D+00
 Coeff-En:   0.000D+00 0.000D+00 0.100D+01
 Coeff:     -0.409D+00 0.720D+00 0.689D+00
 Gap=     0.405 Goal=   None    Shift=    0.000
 Gap=     0.076 Goal=   None    Shift=    0.000
 RMSDP=6.43D-04 MaxDP=6.96D-02 DE=-6.22D-01 OVMax= 9.60D-02

 Cycle   4  Pass 1  IDiag  1:
 RMSU=  5.64D-04    CP:  9.98D-01  2.62D+00  7.15D-01
 E= -2555.85813613696     Delta-E=       -0.054164409971 Rises=F Damp=F
 DIIS: error= 5.78D-03 at cycle   4 NSaved=   4.
 NSaved= 4 IEnMin= 4 EnMin= -2555.85813613696     IErMin= 4 ErrMin= 5.78D-03
 ErrMax= 5.78D-03  0.00D+00 EMaxC= 1.00D-01 BMatC= 1.46D-01 BMatP= 3.88D-01
 IDIUse=3 WtCom= 9.42D-01 WtEn= 5.78D-02
 Coeff-Com: -0.544D-01 0.981D-01 0.374D+00 0.583D+00
 Coeff-En:   0.000D+00 0.000D+00 0.242D+00 0.758D+00
 Coeff:     -0.513D-01 0.925D-01 0.366D+00 0.593D+00
 Gap=     0.375 Goal=   None    Shift=    0.000
 Gap=     0.118 Goal=   None    Shift=    0.000
 RMSDP=3.17D-04 MaxDP=3.92D-02 DE=-5.42D-02 OVMax= 8.16D-02

 Cycle   5  Pass 1  IDiag  1:
 RMSU=  2.19D-04    CP:  9.97D-01  2.62D+00  8.66D-01  7.11D-01
 E= -2555.88619671000     Delta-E=       -0.028060573044 Rises=F Damp=F
 DIIS: error= 1.99D-03 at cycle   5 NSaved=   5.
 NSaved= 5 IEnMin= 5 EnMin= -2555.88619671000     IErMin= 5 ErrMin= 1.99D-03
 ErrMax= 1.99D-03  0.00D+00 EMaxC= 1.00D-01 BMatC= 1.54D-02 BMatP= 1.46D-01
 IDIUse=3 WtCom= 9.80D-01 WtEn= 1.99D-02
 Coeff-Com: -0.647D-02 0.889D-02 0.127D+00 0.316D+00 0.554D+00
 Coeff-En:   0.000D+00 0.000D+00 0.000D+00 0.000D+00 0.100D+01
 Coeff:     -0.634D-02 0.872D-02 0.125D+00 0.310D+00 0.563D+00
 Gap=     0.364 Goal=   None    Shift=    0.000
 Gap=     0.112 Goal=   None    Shift=    0.000
 RMSDP=9.48D-05 MaxDP=8.92D-03 DE=-2.81D-02 OVMax= 3.20D-02

 Cycle   6  Pass 1  IDiag  1:
 RMSU=  8.52D-05    CP:  9.97D-01  2.64D+00  8.68D-01  7.72D-01  9.37D-01
 E= -2555.89002406825     Delta-E=       -0.003827358246 Rises=F Damp=F
 DIIS: error= 3.99D-04 at cycle   6 NSaved=   6.
 NSaved= 6 IEnMin= 6 EnMin= -2555.89002406825     IErMin= 6 ErrMin= 3.99D-04
 ErrMax= 3.99D-04  0.00D+00 EMaxC= 1.00D-01 BMatC= 9.08D-04 BMatP= 1.54D-02
 IDIUse=3 WtCom= 9.96D-01 WtEn= 3.99D-03
 Coeff-Com: -0.410D-02 0.357D-02-0.391D-01-0.304D-01 0.946D-01 0.975D+00
 Coeff-En:   0.000D+00 0.000D+00 0.000D+00 0.000D+00 0.000D+00 0.100D+01
 Coeff:     -0.409D-02 0.355D-02-0.390D-01-0.303D-01 0.943D-01 0.976D+00
 Gap=     0.363 Goal=   None    Shift=    0.000
 Gap=     0.118 Goal=   None    Shift=    0.000
 RMSDP=6.97D-05 MaxDP=5.33D-03 DE=-3.83D-03 OVMax= 3.42D-02

 Cycle   7  Pass 1  IDiag  1:
 RMSU=  3.06D-05    CP:  9.97D-01  2.65D+00  8.77D-01  7.96D-01  1.16D+00
                    CP:  1.42D+00
 E= -2555.89099202752     Delta-E=       -0.000967959275 Rises=F Damp=F
 DIIS: error= 2.66D-04 at cycle   7 NSaved=   7.
 NSaved= 7 IEnMin= 7 EnMin= -2555.89099202752     IErMin= 7 ErrMin= 2.66D-04
 ErrMax= 2.66D-04  0.00D+00 EMaxC= 1.00D-01 BMatC= 3.68D-04 BMatP= 9.08D-04
 IDIUse=3 WtCom= 9.97D-01 WtEn= 2.66D-03
 Coeff-Com: -0.564D-02 0.735D-02-0.512D-01-0.856D-01-0.851D-01 0.448D+00
 Coeff-Com:  0.772D+00
 Coeff-En:   0.000D+00 0.000D+00 0.000D+00 0.000D+00 0.000D+00 0.000D+00
 Coeff-En:   0.100D+01
 Coeff:     -0.562D-02 0.733D-02-0.510D-01-0.854D-01-0.849D-01 0.447D+00
 Coeff:      0.773D+00
 Gap=     0.363 Goal=   None    Shift=    0.000
 Gap=     0.121 Goal=   None    Shift=    0.000
 RMSDP=4.02D-05 MaxDP=3.49D-03 DE=-9.68D-04 OVMax= 1.73D-02

 Cycle   8  Pass 1  IDiag  1:
 RMSU=  1.76D-05    CP:  9.97D-01  2.66D+00  8.78D-01  8.03D-01  1.26D+00
                    CP:  1.72D+00  1.23D+00
 E= -2555.89130758009     Delta-E=       -0.000315552568 Rises=F Damp=F
 DIIS: error= 1.87D-04 at cycle   8 NSaved=   8.
 NSaved= 8 IEnMin= 8 EnMin= -2555.89130758009     IErMin= 8 ErrMin= 1.87D-04
 ErrMax= 1.87D-04  0.00D+00 EMaxC= 1.00D-01 BMatC= 9.36D-05 BMatP= 3.68D-04
 IDIUse=3 WtCom= 9.98D-01 WtEn= 1.87D-03
 Coeff-Com: -0.353D-02 0.523D-02-0.974D-02-0.199D-01-0.551D-01-0.878D-01
 Coeff-Com:  0.315D+00 0.856D+00
 Coeff-En:   0.000D+00 0.000D+00 0.000D+00 0.000D+00 0.000D+00 0.000D+00
 Coeff-En:   0.000D+00 0.100D+01
 Coeff:     -0.353D-02 0.522D-02-0.972D-02-0.199D-01-0.550D-01-0.876D-01
 Coeff:      0.314D+00 0.857D+00
 Gap=     0.363 Goal=   None    Shift=    0.000
 Gap=     0.122 Goal=   None    Shift=    0.000
 RMSDP=2.34D-05 MaxDP=2.02D-03 DE=-3.16D-04 OVMax= 7.83D-03

 Cycle   9  Pass 1  IDiag  1:
 RMSU=  1.00D-05    CP:  9.97D-01  2.66D+00  8.79D-01  8.04D-01  1.31D+00
                    CP:  1.87D+00  1.64D+00  1.30D+00
 E= -2555.89139940942     Delta-E=       -0.000091829327 Rises=F Damp=F
 DIIS: error= 9.65D-05 at cycle   9 NSaved=   9.
 NSaved= 9 IEnMin= 9 EnMin= -2555.89139940942     IErMin= 9 ErrMin= 9.65D-05
 ErrMax= 9.65D-05  0.00D+00 EMaxC= 1.00D-01 BMatC= 3.87D-05 BMatP= 9.36D-05
 IDIUse=1 WtCom= 1.00D+00 WtEn= 0.00D+00
 Coeff-Com: -0.859D-03 0.136D-02 0.896D-02 0.151D-01-0.957D-02-0.181D+00
 Coeff-Com: -0.527D-01 0.502D+00 0.717D+00
 Coeff:     -0.859D-03 0.136D-02 0.896D-02 0.151D-01-0.957D-02-0.181D+00
 Coeff:     -0.527D-01 0.502D+00 0.717D+00
 Gap=     0.363 Goal=   None    Shift=    0.000
 Gap=     0.122 Goal=   None    Shift=    0.000
 RMSDP=1.36D-05 MaxDP=1.40D-03 DE=-9.18D-05 OVMax= 6.10D-03

 Cycle  10  Pass 1  IDiag  1:
 RMSU=  6.11D-06    CP:  9.97D-01  2.66D+00  8.79D-01  8.04D-01  1.33D+00
                    CP:  1.94D+00  1.84D+00  1.71D+00  1.29D+00
 E= -2555.89143184684     Delta-E=       -0.000032437420 Rises=F Damp=F
 DIIS: error= 7.22D-05 at cycle  10 NSaved=  10.
 NSaved=10 IEnMin=10 EnMin= -2555.89143184684     IErMin=10 ErrMin= 7.22D-05
 ErrMax= 7.22D-05  0.00D+00 EMaxC= 1.00D-01 BMatC= 8.12D-06 BMatP= 3.87D-05
 IDIUse=1 WtCom= 1.00D+00 WtEn= 0.00D+00
 Coeff-Com: -0.207D-04 0.134D-04 0.395D-02 0.877D-02 0.166D-02-0.452D-01
 Coeff-Com: -0.701D-01 0.565D-01 0.236D+00 0.808D+00
 Coeff:     -0.207D-04 0.134D-04 0.395D-02 0.877D-02 0.166D-02-0.452D-01
 Coeff:     -0.701D-01 0.565D-01 0.236D+00 0.808D+00
 Gap=     0.363 Goal=   None    Shift=    0.000
 Gap=     0.122 Goal=   None    Shift=    0.000
 RMSDP=8.30D-06 MaxDP=7.88D-04 DE=-3.24D-05 OVMax= 4.65D-03

 Cycle  11  Pass 1  IDiag  1:
 RMSU=  3.22D-06    CP:  9.97D-01  2.66D+00  8.79D-01  8.03D-01  1.33D+00
                    CP:  1.95D+00  1.93D+00  1.91D+00  1.75D+00  1.59D+00
 E= -2555.89144618629     Delta-E=       -0.000014339457 Rises=F Damp=F
 DIIS: error= 6.82D-05 at cycle  11 NSaved=  11.
 NSaved=11 IEnMin=11 EnMin= -2555.89144618629     IErMin=11 ErrMin= 6.82D-05
 ErrMax= 6.82D-05  0.00D+00 EMaxC= 1.00D-01 BMatC= 5.61D-06 BMatP= 8.12D-06
 IDIUse=1 WtCom= 1.00D+00 WtEn= 0.00D+00
 Coeff-Com:  0.187D-04-0.838D-04-0.139D-02-0.263D-03-0.217D-03 0.345D-01
 Coeff-Com: -0.140D-01-0.912D-01-0.132D+00 0.374D+00 0.831D+00
 Coeff:      0.187D-04-0.838D-04-0.139D-02-0.263D-03-0.217D-03 0.345D-01
 Coeff:     -0.140D-01-0.912D-01-0.132D+00 0.374D+00 0.831D+00
 Gap=     0.363 Goal=   None    Shift=    0.000
 Gap=     0.122 Goal=   None    Shift=    0.000
 RMSDP=8.24D-06 MaxDP=7.37D-04 DE=-1.43D-05 OVMax= 4.52D-03

 Cycle  12  Pass 1  IDiag  1:
 RMSU=  1.80D-06    CP:  9.97D-01  2.66D+00  8.79D-01  8.01D-01  1.33D+00
                    CP:  1.96D+00  1.99D+00  2.09D+00  2.17D+00  2.39D+00
                    CP:  1.86D+00
 E= -2555.89145959312     Delta-E=       -0.000013406830 Rises=F Damp=F
 DIIS: error= 6.46D-05 at cycle  12 NSaved=  12.
 NSaved=12 IEnMin=12 EnMin= -2555.89145959312     IErMin=12 ErrMin= 6.46D-05
 ErrMax= 6.46D-05  0.00D+00 EMaxC= 1.00D-01 BMatC= 4.28D-06 BMatP= 5.61D-06
 IDIUse=1 WtCom= 1.00D+00 WtEn= 0.00D+00
 Coeff-Com: -0.162D-03 0.196D-03-0.165D-02-0.152D-02-0.319D-02 0.233D-01
 Coeff-Com:  0.759D-02-0.224D-01-0.116D+00 0.205D-01 0.233D+00 0.860D+00
 Coeff:     -0.162D-03 0.196D-03-0.165D-02-0.152D-02-0.319D-02 0.233D-01
 Coeff:      0.759D-02-0.224D-01-0.116D+00 0.205D-01 0.233D+00 0.860D+00
 Gap=     0.363 Goal=   None    Shift=    0.000
 Gap=     0.122 Goal=   None    Shift=    0.000
 RMSDP=7.27D-06 MaxDP=5.93D-04 DE=-1.34D-05 OVMax= 4.19D-03

 Cycle  13  Pass 1  IDiag  1:
 RMSU=  9.37D-07    CP:  9.97D-01  2.66D+00  8.79D-01  8.00D-01  1.33D+00
                    CP:  1.96D+00  2.04D+00  2.23D+00  2.52D+00  3.00D+00
                    CP:  2.87D+00  1.96D+00
 E= -2555.89147107927     Delta-E=       -0.000011486142 Rises=F Damp=F
 DIIS: error= 6.42D-05 at cycle  13 NSaved=  13.
 NSaved=13 IEnMin=13 EnMin= -2555.89147107927     IErMin=13 ErrMin= 6.42D-05
 ErrMax= 6.42D-05  0.00D+00 EMaxC= 1.00D-01 BMatC= 3.95D-06 BMatP= 4.28D-06
 IDIUse=1 WtCom= 1.00D+00 WtEn= 0.00D+00
 Coeff-Com: -0.254D-03 0.349D-03 0.232D-04 0.576D-03-0.420D-02-0.112D-01
 Coeff-Com:  0.171D-02 0.696D-01 0.212D-01-0.467D-01-0.408D+00-0.416D+00
 Coeff-Com:  0.179D+01
 Coeff:     -0.254D-03 0.349D-03 0.232D-04 0.576D-03-0.420D-02-0.112D-01
 Coeff:      0.171D-02 0.696D-01 0.212D-01-0.467D-01-0.408D+00-0.416D+00
 Coeff:      0.179D+01
 Gap=     0.363 Goal=   None    Shift=    0.000
 Gap=     0.123 Goal=   None    Shift=    0.000
 RMSDP=1.43D-05 MaxDP=1.30D-03 DE=-1.15D-05 OVMax= 8.32D-03

 Cycle  14  Pass 1  IDiag  1:
 RMSU=  9.85D-06    CP:  9.97D-01  2.66D+00  8.79D-01  7.97D-01  1.34D+00
                    CP:  1.97D+00  2.13D+00  2.48D+00  3.00D+00  3.00D+00
                    CP:  3.00D+00  3.00D+00  3.00D+00
 E= -2555.89149316246     Delta-E=       -0.000022083194 Rises=F Damp=F
 DIIS: error= 6.16D-05 at cycle  14 NSaved=  14.
 NSaved=14 IEnMin=14 EnMin= -2555.89149316246     IErMin=14 ErrMin= 6.16D-05
 ErrMax= 6.16D-05  0.00D+00 EMaxC= 1.00D-01 BMatC= 3.96D-06 BMatP= 3.95D-06
 IDIUse=1 WtCom= 1.00D+00 WtEn= 0.00D+00
 Coeff-Com: -0.247D-03 0.340D-03 0.727D-04 0.669D-03-0.405D-02-0.114D-01
 Coeff-Com:  0.754D-03 0.684D-01 0.231D-01-0.344D-01-0.395D+00-0.475D+00
 Coeff-Com:  0.174D+01 0.861D-01
 Coeff:     -0.247D-03 0.340D-03 0.727D-04 0.669D-03-0.405D-02-0.114D-01
 Coeff:      0.754D-03 0.684D-01 0.231D-01-0.344D-01-0.395D+00-0.475D+00
 Coeff:      0.174D+01 0.861D-01
 Gap=     0.363 Goal=   None    Shift=    0.000
 Gap=     0.123 Goal=   None    Shift=    0.000
 RMSDP=1.19D-06 MaxDP=1.14D-04 DE=-2.21D-05 OVMax= 6.93D-04

 Cycle  15  Pass 1  IDiag  1:
 RMSU=  4.20D-07    CP:  9.97D-01  2.66D+00  8.79D-01  7.97D-01  1.34D+00
                    CP:  1.97D+00  2.13D+00  2.50D+00  3.00D+00  3.00D+00
                    CP:  3.00D+00  3.00D+00  3.00D+00  1.10D+00
 E= -2555.89149498707     Delta-E=       -0.000001824608 Rises=F Damp=F
 DIIS: error= 6.16D-05 at cycle  15 NSaved=  15.
 NSaved=15 IEnMin=15 EnMin= -2555.89149498707     IErMin=15 ErrMin= 6.16D-05
 ErrMax= 6.16D-05  0.00D+00 EMaxC= 1.00D-01 BMatC= 3.91D-06 BMatP= 3.95D-06
 IDIUse=1 WtCom= 1.00D+00 WtEn= 0.00D+00
 Large coefficients: NSaved= 15 BigCof=   52.63 CofMax=   10.00 Det=-3.02D-10
 Inversion failed.  Reducing to 14 matrices.
 Large coefficients: NSaved= 14 BigCof=   51.26 CofMax=   10.00 Det=-3.20D-10
 Inversion failed.  Reducing to 13 matrices.
 Large coefficients: NSaved= 13 BigCof=   51.33 CofMax=   10.00 Det=-3.22D-10
 Inversion failed.  Reducing to 12 matrices.
 Large coefficients: NSaved= 12 BigCof=   50.22 CofMax=   10.00 Det=-3.32D-10
 Inversion failed.  Reducing to 11 matrices.
 Large coefficients: NSaved= 11 BigCof=   46.24 CofMax=   10.00 Det=-3.46D-10
 Inversion failed.  Reducing to 10 matrices.
 Large coefficients: NSaved= 10 BigCof=   49.78 CofMax=   10.00 Det=-3.74D-10
 Inversion failed.  Reducing to  9 matrices.
 Large coefficients: NSaved=  9 BigCof=   48.53 CofMax=   10.00 Det=-3.78D-10
 Inversion failed.  Reducing to  8 matrices.
 Large coefficients: NSaved=  8 BigCof=   48.51 CofMax=   10.00 Det=-3.78D-10
 Inversion failed.  Reducing to  7 matrices.
 Large coefficients: NSaved=  7 BigCof=   48.28 CofMax=   10.00 Det=-3.96D-10
 Inversion failed.  Reducing to  6 matrices.
 Large coefficients: NSaved=  6 BigCof=   48.30 CofMax=   10.00 Det=-3.96D-10
 Inversion failed.  Reducing to  5 matrices.
 Large coefficients: NSaved=  5 BigCof=   47.07 CofMax=   10.00 Det=-3.99D-10
 Inversion failed.  Reducing to  4 matrices.
 Large coefficients: NSaved=  4 BigCof=   44.01 CofMax=   10.00 Det=-4.89D-10
 Inversion failed.  Reducing to  3 matrices.
 Large coefficients: NSaved=  3 BigCof=   42.74 CofMax=   10.00 Det=-5.79D-10
 Inversion failed.  Reducing to  2 matrices.
 Large coefficients: NSaved=  2 BigCof=   40.47 CofMax=   10.00 Det=-6.34D-10
 Coeff-Com: -0.395D+02 0.405D+02
 Coeff:     -0.395D+02 0.405D+02
 Gap=     0.363 Goal=   None    Shift=    0.000
 Gap=     0.123 Goal=   None    Shift=    0.000
 RMSDP=5.30D-05 MaxDP=5.19D-03 DE=-1.82D-06 OVMax= 3.10D-02

 Cycle  16  Pass 1  IDiag  1:
 RMSU=  3.28D-05    CP:  9.97D-01  2.66D+00  8.78D-01  7.86D-01  1.36D+00
                    CP:  2.01D+00  2.46D+00  3.00D+00  3.00D+00  3.00D+00
                    CP:  3.00D+00  3.00D+00  3.00D+00  3.00D+00  3.00D+00
 E= -2555.89157198761     Delta-E=       -0.000077000544 Rises=F Damp=F
 DIIS: error= 4.84D-05 at cycle  16 NSaved=   3.
 NSaved= 3 IEnMin= 3 EnMin= -2555.89157198761     IErMin= 3 ErrMin= 4.84D-05
 ErrMax= 4.84D-05  0.00D+00 EMaxC= 1.00D-01 BMatC= 5.52D-06 BMatP= 3.91D-06
 IDIUse=1 WtCom= 1.00D+00 WtEn= 0.00D+00
 Large coefficients: NSaved=  3 BigCof=   42.39 CofMax=   10.00 Det=-6.24D-10
 Inversion failed.  Reducing to  2 matrices.
 Coeff-Com:  0.804D+00 0.196D+00
 Coeff:      0.804D+00 0.196D+00
 Gap=     0.363 Goal=   None    Shift=    0.000
 Gap=     0.122 Goal=   None    Shift=    0.000
 RMSDP=3.62D-05 MaxDP=3.58D-03 DE=-7.70D-05 OVMax= 2.14D-02

 Cycle  17  Pass 1  IDiag  1:
 RMSU=  4.37D-06    CP:  9.97D-01  2.66D+00  8.78D-01  7.94D-01  1.34D+00
                    CP:  1.99D+00  2.23D+00  2.80D+00  3.00D+00  3.00D+00
                    CP:  3.00D+00  3.00D+00  3.00D+00  2.55D+00  3.00D+00
                    CP:  8.62D-02
 E= -2555.89152048566     Delta-E=        0.000051501954 Rises=F Damp=F
 DIIS: error= 6.29D-05 at cycle  17 NSaved=   3.
 NSaved= 3 IEnMin= 2 EnMin= -2555.89157198761     IErMin= 2 ErrMin= 4.84D-05
 ErrMax= 6.29D-05  0.00D+00 EMaxC= 1.00D-01 BMatC= 2.85D-06 BMatP= 3.91D-06
 IDIUse=1 WtCom= 1.00D+00 WtEn= 0.00D+00
 Coeff-Com: -0.246D-01-0.742D-02 0.103D+01
 Coeff:     -0.246D-01-0.742D-02 0.103D+01
 Gap=     0.363 Goal=   None    Shift=    0.000
 Gap=     0.123 Goal=   None    Shift=    0.000
 RMSDP=6.76D-06 MaxDP=7.60D-04 DE= 5.15D-05 OVMax= 4.09D-03

 Cycle  18  Pass 1  IDiag  1:
 RMSU=  9.43D-07    CP:  9.97D-01  2.66D+00  8.78D-01  7.92D-01  1.35D+00
                    CP:  1.99D+00  2.28D+00  2.90D+00  3.00D+00  3.00D+00
                    CP:  3.00D+00  3.00D+00  3.00D+00  3.00D+00  3.00D+00
                    CP:  1.60D-01  1.33D+00
 E= -2555.89153016198     Delta-E=       -0.000009676321 Rises=F Damp=F
 DIIS: error= 5.39D-05 at cycle  18 NSaved=   4.
 NSaved= 4 IEnMin= 2 EnMin= -2555.89157198761     IErMin= 2 ErrMin= 4.84D-05
 ErrMax= 5.39D-05  0.00D+00 EMaxC= 1.00D-01 BMatC= 5.11D-06 BMatP= 2.85D-06
 IDIUse=1 WtCom= 1.00D+00 WtEn= 0.00D+00
 Coeff-Com:  0.572D-01 0.138D-01 0.996D+00-0.674D-01
 Coeff:      0.572D-01 0.138D-01 0.996D+00-0.674D-01
 Gap=     0.363 Goal=   None    Shift=    0.000
 Gap=     0.123 Goal=   None    Shift=    0.000
 RMSDP=1.05D-06 MaxDP=1.04D-04 DE=-9.68D-06 OVMax= 6.13D-04

 Cycle  19  Pass 1  IDiag  1:
 RMSU=  2.36D-07    CP:  9.97D-01  2.66D+00  8.78D-01  7.92D-01  1.35D+00
                    CP:  1.99D+00  2.28D+00  2.88D+00  3.00D+00  3.00D+00
                    CP:  3.00D+00  3.00D+00  3.00D+00  3.00D+00  3.00D+00
                    CP:  1.32D-01  1.36D+00  9.23D-01
 E= -2555.89152860384     Delta-E=        0.000001558141 Rises=F Damp=F
 DIIS: error= 5.39D-05 at cycle  19 NSaved=   5.
 NSaved= 5 IEnMin= 2 EnMin= -2555.89157198761     IErMin= 2 ErrMin= 4.84D-05
 ErrMax= 5.39D-05  0.00D+00 EMaxC= 1.00D-01 BMatC= 5.17D-06 BMatP= 2.85D-06
 IDIUse=1 WtCom= 1.00D+00 WtEn= 0.00D+00
 Large coefficients: NSaved=  5 BigCof=   73.84 CofMax=   10.00 Det=-1.52D-10
 Inversion failed.  Reducing to  4 matrices.
 Large coefficients: NSaved=  4 BigCof=   35.40 CofMax=   10.00 Det=-3.39D-10
 Inversion failed.  Reducing to  3 matrices.
 Large coefficients: NSaved=  3 BigCof=   53.33 CofMax=   10.00 Det=-3.69D-10
 Inversion failed.  Reducing to  2 matrices.
 Large coefficients: NSaved=  2 BigCof=   46.58 CofMax=   10.00 Det=-6.21D-10
 Coeff-Com:  0.466D+02-0.456D+02
 Coeff:      0.466D+02-0.456D+02
 Gap=     0.363 Goal=   None    Shift=    0.000
 Gap=     0.123 Goal=   None    Shift=    0.000
 RMSDP=5.47D-05 MaxDP=5.47D-03 DE= 1.56D-06 OVMax= 3.15D-02

 Cycle  20  Pass 1  IDiag  1:
 RMSU=  4.98D-06    CP:  9.97D-01  2.66D+00  8.77D-01  7.80D-01  1.36D+00
                    CP:  2.03D+00  2.59D+00  3.00D+00  3.00D+00  3.00D+00
                    CP:  3.00D+00  3.00D+00  3.00D+00  3.00D+00  3.00D+00
                    CP:  1.70D+00 -7.23D-01 -8.67D-01 -8.23D-01
 E= -2555.89160609796     Delta-E=       -0.000077494121 Rises=F Damp=F
 DIIS: error= 5.58D-05 at cycle  20 NSaved=   3.
 NSaved= 3 IEnMin= 3 EnMin= -2555.89160609796     IErMin= 1 ErrMin= 5.39D-05
 ErrMax= 5.58D-05  0.00D+00 EMaxC= 1.00D-01 BMatC= 3.72D-06 BMatP= 5.11D-06
 IDIUse=1 WtCom= 1.00D+00 WtEn= 0.00D+00
 Large coefficients: NSaved=  3 BigCof=   43.13 CofMax=   10.00 Det=-6.18D-10
 Inversion failed.  Reducing to  2 matrices.
 Coeff-Com:  0.311D+00 0.689D+00
 Coeff:      0.311D+00 0.689D+00
 Gap=     0.363 Goal=   None    Shift=    0.000
 Gap=     0.123 Goal=   None    Shift=    0.000
 RMSDP=1.11D-05 MaxDP=1.17D-03 DE=-7.75D-05 OVMax= 6.75D-03

 Cycle  21  Pass 1  IDiag  1:
 Restarting incremental Fock formation.
 E= -2555.89159117752     Delta-E=        0.000014920436 Rises=F Damp=F
 DIIS: error= 5.28D-05 at cycle  21 NSaved=   3.
 NSaved= 3 IEnMin= 2 EnMin= -2555.89160609796     IErMin= 3 ErrMin= 5.28D-05
 ErrMax= 5.28D-05  0.00D+00 EMaxC= 1.00D-01 BMatC= 3.89D-06 BMatP= 3.72D-06
 IDIUse=1 WtCom= 1.00D+00 WtEn= 0.00D+00
 Coeff-Com: -0.335D+00 0.620D+00 0.715D+00
 Coeff:     -0.335D+00 0.620D+00 0.715D+00
 Gap=     0.363 Goal=   None    Shift=    0.000
 Gap=     0.123 Goal=   None    Shift=    0.000
 RMSDP=2.72D-05 MaxDP=2.82D-03 DE= 1.49D-05 OVMax= 1.60D-02

 Cycle  22  Pass 1  IDiag  1:
 RMSU=  2.72D-05    CP:  1.00D+00
 E= -2555.89162784936     Delta-E=       -0.000036671835 Rises=F Damp=F
 DIIS: error= 4.72D-05 at cycle  22 NSaved=   4.
 NSaved= 4 IEnMin= 4 EnMin= -2555.89162784936     IErMin= 4 ErrMin= 4.72D-05
 ErrMax= 4.72D-05  0.00D+00 EMaxC= 1.00D-01 BMatC= 4.35D-06 BMatP= 3.72D-06
 IDIUse=1 WtCom= 1.00D+00 WtEn= 0.00D+00
 Coeff-Com: -0.147D+01 0.447D+00 0.817D+00 0.121D+01
 Coeff:     -0.147D+01 0.447D+00 0.817D+00 0.121D+01
 Gap=     0.363 Goal=   None    Shift=    0.000
 Gap=     0.124 Goal=   None    Shift=    0.000
 RMSDP=7.84D-05 MaxDP=7.62D-03 DE=-3.67D-05 OVMax= 4.44D-02

 Cycle  23  Pass 1  IDiag  1:
 RMSU=  2.46D-05    CP:  1.00D+00  3.00D+00
 E= -2555.89172014485     Delta-E=       -0.000092295490 Rises=F Damp=F
 DIIS: error= 5.61D-05 at cycle  23 NSaved=   5.
 NSaved= 5 IEnMin= 5 EnMin= -2555.89172014485     IErMin= 4 ErrMin= 4.72D-05
 ErrMax= 5.61D-05  0.00D+00 EMaxC= 1.00D-01 BMatC= 5.00D-06 BMatP= 3.72D-06
 IDIUse=1 WtCom= 1.00D+00 WtEn= 0.00D+00
 Coeff-Com: -0.187D+01 0.457D+00 0.914D+00 0.160D+01-0.997D-01
 Coeff:     -0.187D+01 0.457D+00 0.914D+00 0.160D+01-0.997D-01
 Gap=     0.362 Goal=   None    Shift=    0.000
 Gap=     0.125 Goal=   None    Shift=    0.000
 RMSDP=1.68D-05 MaxDP=1.57D-03 DE=-9.23D-05 OVMax= 9.91D-03

 Cycle  24  Pass 1  IDiag  1:
 RMSU=  2.28D-06    CP:  1.00D+00  3.00D+00  1.68D+00
 E= -2555.89173513173     Delta-E=       -0.000014986877 Rises=F Damp=F
 DIIS: error= 7.57D-05 at cycle  24 NSaved=   6.
 NSaved= 6 IEnMin= 6 EnMin= -2555.89173513173     IErMin= 4 ErrMin= 4.72D-05
 ErrMax= 7.57D-05  0.00D+00 EMaxC= 1.00D-01 BMatC= 1.11D-05 BMatP= 3.72D-06
 IDIUse=1 WtCom= 1.00D+00 WtEn= 0.00D+00
 Coeff-Com: -0.162D+01 0.388D+00 0.787D+00 0.109D+01 0.104D+01-0.677D+00
 Coeff:     -0.162D+01 0.388D+00 0.787D+00 0.109D+01 0.104D+01-0.677D+00
 Gap=     0.362 Goal=   None    Shift=    0.000
 Gap=     0.126 Goal=   None    Shift=    0.000
 RMSDP=1.16D-05 MaxDP=1.09D-03 DE=-1.50D-05 OVMax= 7.16D-03

 Cycle  25  Pass 1  IDiag  1:
 RMSU=  8.45D-07    CP:  1.00D+00  3.00D+00  2.15D+00  1.52D+00
 E= -2555.89174577933     Delta-E=       -0.000010647601 Rises=F Damp=F
 DIIS: error= 7.91D-05 at cycle  25 NSaved=   7.
 NSaved= 7 IEnMin= 7 EnMin= -2555.89174577933     IErMin= 4 ErrMin= 4.72D-05
 ErrMax= 7.91D-05  0.00D+00 EMaxC= 1.00D-01 BMatC= 1.26D-05 BMatP= 3.72D-06
 IDIUse=1 WtCom= 1.00D+00 WtEn= 0.00D+00
 Coeff-Com:  0.982D+00 0.694D-01-0.802D-01-0.172D+01 0.485D+01-0.823D+01
 Coeff-Com:  0.513D+01
 Coeff:      0.982D+00 0.694D-01-0.802D-01-0.172D+01 0.485D+01-0.823D+01
 Coeff:      0.513D+01
 Gap=     0.362 Goal=   None    Shift=    0.000
 Gap=     0.122 Goal=   None    Shift=    0.000
 RMSDP=2.67D-05 MaxDP=2.27D-03 DE=-1.06D-05 OVMax= 1.61D-02

 Cycle  26  Pass 1  IDiag  1:
 RMSU=  4.56D-06    CP:  1.00D+00  3.00D+00  1.11D+00 -6.19D-01  3.00D+00
 E= -2555.89172345791     Delta-E=        0.000022321415 Rises=F Damp=F
 DIIS: error= 6.83D-05 at cycle  26 NSaved=   8.
 NSaved= 8 IEnMin= 7 EnMin= -2555.89174577933     IErMin= 4 ErrMin= 4.72D-05
 ErrMax= 6.83D-05  0.00D+00 EMaxC= 1.00D-01 BMatC= 1.52D-05 BMatP= 3.72D-06
 IDIUse=1 WtCom= 1.00D+00 WtEn= 0.00D+00
 Coeff-Com:  0.232D+01-0.771D-01-0.698D+00-0.148D+01-0.479D+01-0.471D+01
 Coeff-Com:  0.877D+01 0.166D+01
 Coeff:      0.232D+01-0.771D-01-0.698D+00-0.148D+01-0.479D+01-0.471D+01
 Coeff:      0.877D+01 0.166D+01
 Gap=     0.362 Goal=   None    Shift=    0.000
 Gap=     0.119 Goal=   None    Shift=    0.000
 RMSDP=3.13D-05 MaxDP=2.74D-03 DE= 2.23D-05 OVMax= 1.91D-02

 Cycle  27  Pass 1  IDiag  1:
 RMSU=  3.92D-06    CP:  1.00D+00  3.00D+00  2.28D+00 -3.59D-01  3.00D+00
                    CP:  3.00D+00
 E= -2555.89173573653     Delta-E=       -0.000012278617 Rises=F Damp=F
 DIIS: error= 1.31D-04 at cycle  27 NSaved=   9.
 NSaved= 9 IEnMin= 7 EnMin= -2555.89174577933     IErMin= 4 ErrMin= 4.72D-05
 ErrMax= 1.31D-04  0.00D+00 EMaxC= 1.00D-01 BMatC= 8.93D-05 BMatP= 3.72D-06
 IDIUse=1 WtCom= 1.00D+00 WtEn= 0.00D+00
 Coeff-Com:  0.134D+01 0.301D-01-0.450D+00-0.507D+00-0.850D+01 0.211D+01
 Coeff-Com:  0.550D+01 0.676D+00 0.796D+00
 Coeff:      0.134D+01 0.301D-01-0.450D+00-0.507D+00-0.850D+01 0.211D+01
 Coeff:      0.550D+01 0.676D+00 0.796D+00
 Gap=     0.361 Goal=   None    Shift=    0.000
 Gap=     0.122 Goal=   None    Shift=    0.000
 RMSDP=7.63D-05 MaxDP=6.86D-03 DE=-1.23D-05 OVMax= 4.18D-02

 Cycle  28  Pass 1  IDiag  1:
 RMSU=  5.84D-05    CP:  1.00D+00  3.00D+00  3.00D+00  1.47D+00  3.00D+00
                    CP:  3.00D+00  2.29D+00
 E= -2555.89180660454     Delta-E=       -0.000070868009 Rises=F Damp=F
 DIIS: error= 7.21D-05 at cycle  28 NSaved=  10.
 NSaved=10 IEnMin=10 EnMin= -2555.89180660454     IErMin= 4 ErrMin= 4.72D-05
 ErrMax= 7.21D-05  0.00D+00 EMaxC= 1.00D-01 BMatC= 1.95D-05 BMatP= 3.72D-06
 IDIUse=1 WtCom= 1.00D+00 WtEn= 0.00D+00
 Coeff-Com:  0.254D+01-0.608D-01-0.685D+00-0.217D+01-0.459D+01 0.366D+00
 Coeff-Com:  0.443D+01 0.322D-01 0.448D+00 0.698D+00
 Coeff:      0.254D+01-0.608D-01-0.685D+00-0.217D+01-0.459D+01 0.366D+00
 Coeff:      0.443D+01 0.322D-01 0.448D+00 0.698D+00
 Gap=     0.361 Goal=   None    Shift=    0.000
 Gap=     0.120 Goal=   None    Shift=    0.000
 RMSDP=1.21D-05 MaxDP=1.03D-03 DE=-7.09D-05 OVMax= 7.22D-03

 Cycle  29  Pass 1  IDiag  1:
 RMSU=  4.51D-06    CP:  1.00D+00  3.00D+00  3.00D+00  5.98D-01  3.00D+00
                    CP:  3.00D+00  3.00D+00  8.26D-01
 E= -2555.89178488530     Delta-E=        0.000021719234 Rises=F Damp=F
 DIIS: error= 1.35D-04 at cycle  29 NSaved=  11.
 NSaved=11 IEnMin=10 EnMin= -2555.89180660454     IErMin= 4 ErrMin= 4.72D-05
 ErrMax= 1.35D-04  0.00D+00 EMaxC= 1.00D-01 BMatC= 8.97D-05 BMatP= 3.72D-06
 IDIUse=1 WtCom= 1.00D+00 WtEn= 0.00D+00
 Coeff-Com:  0.223D+01-0.916D-02-0.566D+00-0.204D+01-0.389D+01 0.275D+00
 Coeff-Com:  0.409D+01-0.224D+00 0.138D+00 0.514D+00 0.481D+00
 Coeff:      0.223D+01-0.916D-02-0.566D+00-0.204D+01-0.389D+01 0.275D+00
 Coeff:      0.409D+01-0.224D+00 0.138D+00 0.514D+00 0.481D+00
 Gap=     0.360 Goal=   None    Shift=    0.000
 Gap=     0.121 Goal=   None    Shift=    0.000
 RMSDP=2.36D-05 MaxDP=2.00D-03 DE= 2.17D-05 OVMax= 1.39D-02

 Cycle  30  Pass 1  IDiag  1:
 RMSU=  2.12D-06    CP:  1.00D+00  3.00D+00  3.00D+00  6.43D-01  3.00D+00
                    CP:  3.00D+00  3.00D+00  1.23D+00  1.19D+00
 E= -2555.89180316685     Delta-E=       -0.000018281541 Rises=F Damp=F
 DIIS: error= 1.10D-04 at cycle  30 NSaved=  12.
 NSaved=12 IEnMin=10 EnMin= -2555.89180660454     IErMin= 4 ErrMin= 4.72D-05
 ErrMax= 1.10D-04  0.00D+00 EMaxC= 1.00D-01 BMatC= 5.85D-05 BMatP= 3.72D-06
 IDIUse=1 WtCom= 1.00D+00 WtEn= 0.00D+00
 Coeff-Com:  0.188D+01-0.999D-02-0.532D+00-0.145D+01-0.288D+01-0.116D+01
 Coeff-Com:  0.419D+01 0.234D+00-0.530D-01-0.310D+00-0.134D+01 0.244D+01
 Coeff:      0.188D+01-0.999D-02-0.532D+00-0.145D+01-0.288D+01-0.116D+01
 Coeff:      0.419D+01 0.234D+00-0.530D-01-0.310D+00-0.134D+01 0.244D+01
 Gap=     0.360 Goal=   None    Shift=    0.000
 Gap=     0.121 Goal=   None    Shift=    0.000
 RMSDP=5.28D-06 MaxDP=6.29D-04 DE=-1.83D-05 OVMax= 3.94D-03

 Cycle  31  Pass 1  IDiag  1:
 RMSU=  1.48D-06    CP:  1.00D+00  3.00D+00  3.00D+00  2.76D-01  3.00D+00
                    CP:  3.00D+00  3.00D+00  1.29D+00  1.83D+00  1.97D+00
 E= -2555.89180161693     Delta-E=        0.000001549917 Rises=F Damp=F
 DIIS: error= 1.19D-04 at cycle  31 NSaved=  13.
 NSaved=13 IEnMin=10 EnMin= -2555.89180660454     IErMin= 4 ErrMin= 4.72D-05
 ErrMax= 1.19D-04  0.00D+00 EMaxC= 1.00D-01 BMatC= 7.17D-05 BMatP= 3.72D-06
 IDIUse=1 WtCom= 1.00D+00 WtEn= 0.00D+00
 Coeff-Com:  0.204D+01-0.272D-02-0.619D+00-0.157D+01-0.265D+01-0.158D+01
 Coeff-Com:  0.437D+01 0.249D+00 0.389D-01-0.127D+00-0.176D+01 0.206D+01
 Coeff-Com:  0.561D+00
 Coeff:      0.204D+01-0.272D-02-0.619D+00-0.157D+01-0.265D+01-0.158D+01
 Coeff:      0.437D+01 0.249D+00 0.389D-01-0.127D+00-0.176D+01 0.206D+01
 Coeff:      0.561D+00
 Gap=     0.360 Goal=   None    Shift=    0.000
 Gap=     0.120 Goal=   None    Shift=    0.000
 RMSDP=2.20D-06 MaxDP=1.87D-04 DE= 1.55D-06 OVMax= 1.13D-03

 Cycle  32  Pass 1  IDiag  1:
 RMSU=  2.05D-07    CP:  1.00D+00  3.00D+00  3.00D+00  7.17D-02  3.00D+00
                    CP:  3.00D+00  3.00D+00  1.28D+00  2.19D+00  2.42D+00
                    CP:  1.50D+00
 E= -2555.89179810032     Delta-E=        0.000003516607 Rises=F Damp=F
 DIIS: error= 1.31D-04 at cycle  32 NSaved=  14.
 NSaved=14 IEnMin=10 EnMin= -2555.89180660454     IErMin= 4 ErrMin= 4.72D-05
 ErrMax= 1.31D-04  0.00D+00 EMaxC= 1.00D-01 BMatC= 8.62D-05 BMatP= 3.72D-06
 IDIUse=1 WtCom= 1.00D+00 WtEn= 0.00D+00
 Coeff-Com:  0.228D+01 0.241D-01-0.664D+00-0.188D+01-0.343D+01-0.743D+00
 Coeff-Com:  0.445D+01-0.408D-01 0.213D+00 0.425D+00-0.139D+01 0.904D+00
 Coeff-Com: -0.792D+00 0.165D+01
 Coeff:      0.228D+01 0.241D-01-0.664D+00-0.188D+01-0.343D+01-0.743D+00
 Coeff:      0.445D+01-0.408D-01 0.213D+00 0.425D+00-0.139D+01 0.904D+00
 Coeff:     -0.792D+00 0.165D+01
 Gap=     0.360 Goal=   None    Shift=    0.000
 Gap=     0.120 Goal=   None    Shift=    0.000
 RMSDP=4.27D-06 MaxDP=4.56D-04 DE= 3.52D-06 OVMax= 2.95D-03

 Cycle  33  Pass 1  IDiag  1:
 RMSU=  2.54D-07    CP:  1.00D+00  3.00D+00  3.00D+00 -1.13D-01  3.00D+00
                    CP:  3.00D+00  3.00D+00  1.34D+00  2.51D+00  3.00D+00
                    CP:  2.26D+00  3.00D+00
 E= -2555.89179947447     Delta-E=       -0.000001374146 Rises=F Damp=F
 DIIS: error= 1.31D-04 at cycle  33 NSaved=  15.
 NSaved=15 IEnMin=10 EnMin= -2555.89180660454     IErMin= 4 ErrMin= 4.72D-05
 ErrMax= 1.31D-04  0.00D+00 EMaxC= 1.00D-01 BMatC= 8.69D-05 BMatP= 3.72D-06
 IDIUse=1 WtCom= 1.00D+00 WtEn= 0.00D+00
 Coeff-Com:  0.195D+01 0.629D-01-0.612D+00-0.148D+01-0.266D+01-0.147D+01
 Coeff-Com:  0.420D+01 0.846D-01 0.155D+00 0.232D+00-0.195D+01 0.159D+01
 Coeff-Com:  0.496D+00 0.158D+01-0.119D+01
 Coeff:      0.195D+01 0.629D-01-0.612D+00-0.148D+01-0.266D+01-0.147D+01
 Coeff:      0.420D+01 0.846D-01 0.155D+00 0.232D+00-0.195D+01 0.159D+01
 Coeff:      0.496D+00 0.158D+01-0.119D+01
 Gap=     0.360 Goal=   None    Shift=    0.000
 Gap=     0.120 Goal=   None    Shift=    0.000
 RMSDP=4.92D-06 MaxDP=5.56D-04 DE=-1.37D-06 OVMax= 3.77D-03

 Cycle  34  Pass 1  IDiag  1:
 RMSU=  1.67D-07    CP:  1.00D+00  3.00D+00  3.00D+00  1.86D-01  3.00D+00
                    CP:  3.00D+00  3.00D+00  1.29D+00  1.99D+00  2.14D+00
                    CP:  9.57D-01 -6.02D-01 -4.86D-01
 E= -2555.89179926374     Delta-E=        0.000000210724 Rises=F Damp=F
 DIIS: error= 1.26D-04 at cycle  34 NSaved=  16.
 NSaved=16 IEnMin=10 EnMin= -2555.89180660454     IErMin= 4 ErrMin= 4.72D-05
 ErrMax= 1.26D-04  0.00D+00 EMaxC= 1.00D-01 BMatC= 8.06D-05 BMatP= 3.72D-06
 IDIUse=1 WtCom= 1.00D+00 WtEn= 0.00D+00
 Coeff-Com:  0.178D+01 0.115D+00-0.591D+00-0.134D+01-0.214D+01-0.188D+01
 Coeff-Com:  0.406D+01-0.198D-01 0.171D+00 0.379D+00-0.214D+01 0.161D+01
 Coeff-Com:  0.344D+00 0.235D+01-0.311D+01 0.141D+01
 Coeff:      0.178D+01 0.115D+00-0.591D+00-0.134D+01-0.214D+01-0.188D+01
 Coeff:      0.406D+01-0.198D-01 0.171D+00 0.379D+00-0.214D+01 0.161D+01
 Coeff:      0.344D+00 0.235D+01-0.311D+01 0.141D+01
 Gap=     0.360 Goal=   None    Shift=    0.000
 Gap=     0.121 Goal=   None    Shift=    0.000
 RMSDP=5.26D-06 MaxDP=4.68D-04 DE= 2.11D-07 OVMax= 3.44D-03

 Cycle  35  Pass 1  IDiag  1:
 RMSU=  6.59D-07    CP:  1.00D+00  3.00D+00  3.00D+00  5.64D-01  3.00D+00
                    CP:  3.00D+00  3.00D+00  1.29D+00  1.31D+00  1.08D+00
                    CP: -1.23D+00 -3.00D+00 -3.00D+00  2.81D+00
 E= -2555.89180045168     Delta-E=       -0.000001187941 Rises=F Damp=F
 DIIS: error= 1.18D-04 at cycle  35 NSaved=  17.
 NSaved=17 IEnMin=10 EnMin= -2555.89180660454     IErMin= 4 ErrMin= 4.72D-05
 ErrMax= 1.18D-04  0.00D+00 EMaxC= 1.00D-01 BMatC= 7.07D-05 BMatP= 3.72D-06
 IDIUse=1 WtCom= 1.00D+00 WtEn= 0.00D+00
 Coeff-Com:  0.192D+01 0.338D-03-0.594D+00-0.156D+01-0.214D+01-0.157D+01
 Coeff-Com:  0.398D+01-0.151D-01 0.176D+00 0.104D+00-0.144D+01 0.119D+01
 Coeff-Com: -0.795D+00 0.142D+01-0.143D+01-0.205D+01 0.379D+01
 Coeff:      0.192D+01 0.338D-03-0.594D+00-0.156D+01-0.214D+01-0.157D+01
 Coeff:      0.398D+01-0.151D-01 0.176D+00 0.104D+00-0.144D+01 0.119D+01
 Coeff:     -0.795D+00 0.142D+01-0.143D+01-0.205D+01 0.379D+01
 Gap=     0.360 Goal=   None    Shift=    0.000
 Gap=     0.121 Goal=   None    Shift=    0.000
 RMSDP=1.46D-05 MaxDP=1.23D-03 DE=-1.19D-06 OVMax= 9.48D-03

 Cycle  36  Pass 1  IDiag  1:
 RMSU=  8.34D-06    CP:  1.00D+00  3.00D+00  3.00D+00  1.44D+00  3.00D+00
                    CP:  3.00D+00  2.70D+00  1.29D+00 -2.32D-01 -1.23D+00
                    CP: -3.00D+00 -3.00D+00 -3.00D+00  3.00D+00  3.00D+00
 E= -2555.89179736295     Delta-E=        0.000003088730 Rises=F Damp=F
 DIIS: error= 1.14D-04 at cycle  36 NSaved=  18.
 NSaved=18 IEnMin=10 EnMin= -2555.89180660454     IErMin= 4 ErrMin= 4.72D-05
 ErrMax= 1.14D-04  0.00D+00 EMaxC= 1.00D-01 BMatC= 6.54D-05 BMatP= 3.72D-06
 IDIUse=1 WtCom= 1.00D+00 WtEn= 0.00D+00
 Coeff-Com:  0.192D+01 0.180D-03-0.594D+00-0.156D+01-0.214D+01-0.156D+01
 Coeff-Com:  0.397D+01-0.148D-01 0.176D+00 0.103D+00-0.144D+01 0.119D+01
 Coeff-Com: -0.793D+00 0.142D+01-0.142D+01-0.205D+01 0.378D+01 0.555D-02
 Coeff:      0.192D+01 0.180D-03-0.594D+00-0.156D+01-0.214D+01-0.156D+01
 Coeff:      0.397D+01-0.148D-01 0.176D+00 0.103D+00-0.144D+01 0.119D+01
 Coeff:     -0.793D+00 0.142D+01-0.142D+01-0.205D+01 0.378D+01 0.555D-02
 Gap=     0.360 Goal=   None    Shift=    0.000
 Gap=     0.121 Goal=   None    Shift=    0.000
 RMSDP=6.79D-08 MaxDP=5.99D-06 DE= 3.09D-06 OVMax= 4.54D-05

 Cycle  37  Pass 1  IDiag  1:
 RMSU=  5.63D-09    CP:  1.00D+00  3.00D+00  3.00D+00  1.44D+00  3.00D+00
                    CP:  3.00D+00  2.70D+00  1.29D+00 -2.36D-01 -1.23D+00
                    CP: -3.00D+00 -3.00D+00 -3.00D+00  3.00D+00  3.00D+00
                    CP:  1.01D+00
 E= -2555.89179734853     Delta-E=        0.000000014420 Rises=F Damp=F
 DIIS: error= 1.14D-04 at cycle  37 NSaved=  19.
 NSaved=19 IEnMin=10 EnMin= -2555.89180660454     IErMin= 4 ErrMin= 4.72D-05
 ErrMax= 1.14D-04  0.00D+00 EMaxC= 1.00D-01 BMatC= 6.53D-05 BMatP= 3.72D-06
 IDIUse=1 WtCom= 1.00D+00 WtEn= 0.00D+00
 Large coefficients: NSaved= 19 BigCof=   56.70 CofMax=   10.00 Det=-6.10D-14
 Inversion failed.  Reducing to 18 matrices.
 Large coefficients: NSaved= 18 BigCof=   73.24 CofMax=   10.00 Det=-6.29D-14
 Inversion failed.  Reducing to 17 matrices.
 Large coefficients: NSaved= 17 BigCof=  101.63 CofMax=   10.00 Det=-6.32D-14
 Inversion failed.  Reducing to 16 matrices.
 Large coefficients: NSaved= 16 BigCof=   24.16 CofMax=   10.00 Det=-7.16D-14
 Inversion failed.  Reducing to 15 matrices.
 Large coefficients: NSaved= 15 BigCof=   40.23 CofMax=   10.00 Det=-7.17D-14
 Inversion failed.  Reducing to 14 matrices.
 Large coefficients: NSaved= 14 BigCof=   27.05 CofMax=   10.00 Det=-7.27D-14
 Inversion failed.  Reducing to 13 matrices.
 Coeff-Com: -0.179D+01 0.215D+01-0.204D+00-0.104D+01-0.113D+01 0.281D+01
 Coeff-Com:  0.532D+00-0.936D+00-0.120D+01-0.373D+01 0.449D+01 0.325D+01
 Coeff-Com: -0.220D+01
 Coeff:     -0.179D+01 0.215D+01-0.204D+00-0.104D+01-0.113D+01 0.281D+01
 Coeff:      0.532D+00-0.936D+00-0.120D+01-0.373D+01 0.449D+01 0.325D+01
 Coeff:     -0.220D+01
 Gap=     0.358 Goal=   None    Shift=    0.000
 Gap=     0.125 Goal=   None    Shift=    0.000
 RMSDP=4.91D-05 MaxDP=4.28D-03 DE= 1.44D-08 OVMax= 3.33D-02

 Cycle  38  Pass 1  IDiag  1:
 RMSU=  5.93D-06    CP:  1.00D+00  3.00D+00  3.00D+00  2.99D+00  3.00D+00
                    CP:  1.32D+00  5.35D-01  1.98D+00 -2.09D+00 -1.65D+00
                    CP: -3.00D+00 -3.00D+00 -3.00D+00  3.00D+00  3.00D+00
                    CP:  3.00D+00  3.00D+00
 E= -2555.89180573110     Delta-E=       -0.000008382569 Rises=F Damp=F
 DIIS: error= 2.49D-05 at cycle  38 NSaved=  14.
 NSaved=14 IEnMin= 4 EnMin= -2555.89180660454     IErMin=14 ErrMin= 2.49D-05
 ErrMax= 2.49D-05  0.00D+00 EMaxC= 1.00D-01 BMatC= 4.13D-06 BMatP= 1.11D-05
 IDIUse=1 WtCom= 1.00D+00 WtEn= 0.00D+00
 Large coefficients: NSaved= 14 BigCof=  120.55 CofMax=   10.00 Det=-7.34D-14
 Inversion failed.  Reducing to 13 matrices.
 Large coefficients: NSaved= 13 BigCof=   90.44 CofMax=   10.00 Det=-7.38D-14
 Inversion failed.  Reducing to 12 matrices.
 Large coefficients: NSaved= 12 BigCof=  101.78 CofMax=   10.00 Det=-7.48D-14
 Inversion failed.  Reducing to 11 matrices.
 Large coefficients: NSaved= 11 BigCof=  170.43 CofMax=   10.00 Det=-7.94D-14
 Inversion failed.  Reducing to 10 matrices.
 Large coefficients: NSaved= 10 BigCof=   94.15 CofMax=   10.00 Det=-8.65D-14
 Inversion failed.  Reducing to  9 matrices.
 Coeff-Com: -0.325D+00 0.131D+01 0.247D+01-0.343D+01-0.319D+00-0.185D+01
 Coeff-Com:  0.152D+01 0.123D+01 0.403D+00
 Coeff:     -0.325D+00 0.131D+01 0.247D+01-0.343D+01-0.319D+00-0.185D+01
 Coeff:      0.152D+01 0.123D+01 0.403D+00
 Gap=     0.359 Goal=   None    Shift=    0.000
 Gap=     0.125 Goal=   None    Shift=    0.000
 RMSDP=2.38D-05 MaxDP=2.24D-03 DE=-8.38D-06 OVMax= 1.76D-02

 Cycle  39  Pass 1  IDiag  1:
 RMSU=  4.99D-06    CP:  1.00D+00  3.00D+00  3.00D+00  3.00D+00  3.00D+00
                    CP:  2.33D-01 -1.92D-01  1.62D+00 -2.06D+00 -2.87D+00
                    CP: -3.00D+00 -3.00D+00 -3.00D+00  3.00D+00  3.00D+00
                    CP:  3.00D+00  3.00D+00  2.30D+00
 E= -2555.89180201937     Delta-E=        0.000003711728 Rises=F Damp=F
 DIIS: error= 2.23D-05 at cycle  39 NSaved=  10.
 NSaved=10 IEnMin= 1 EnMin= -2555.89180660454     IErMin=10 ErrMin= 2.23D-05
 ErrMax= 2.23D-05  0.00D+00 EMaxC= 1.00D-01 BMatC= 3.85D-07 BMatP= 4.13D-06
 IDIUse=1 WtCom= 1.00D+00 WtEn= 0.00D+00
 Coeff-Com: -0.298D+00 0.611D+00 0.157D+01-0.273D+01 0.825D+00-0.126D+01
 Coeff-Com:  0.132D+01 0.191D+00 0.116D+00 0.658D+00
 Coeff:     -0.298D+00 0.611D+00 0.157D+01-0.273D+01 0.825D+00-0.126D+01
 Coeff:      0.132D+01 0.191D+00 0.116D+00 0.658D+00
 Gap=     0.359 Goal=   None    Shift=    0.000
 Gap=     0.125 Goal=   None    Shift=    0.000
 RMSDP=7.36D-06 MaxDP=7.84D-04 DE= 3.71D-06 OVMax= 5.57D-03

 Cycle  40  Pass 1  IDiag  1:
 RMSU=  4.62D-07    CP:  1.00D+00  3.00D+00  3.00D+00  3.00D+00  3.00D+00
                    CP:  7.91D-01  7.80D-02  1.71D+00 -2.05D+00 -2.40D+00
                    CP: -3.00D+00 -3.00D+00 -3.00D+00  3.00D+00  3.00D+00
                    CP:  3.00D+00  3.00D+00  1.75D+00  5.95D-01
 E= -2555.89180456292     Delta-E=       -0.000002543544 Rises=F Damp=F
 DIIS: error= 2.03D-05 at cycle  40 NSaved=  11.
 NSaved=11 IEnMin= 1 EnMin= -2555.89180660454     IErMin=11 ErrMin= 2.03D-05
 ErrMax= 2.03D-05  0.00D+00 EMaxC= 1.00D-01 BMatC= 3.54D-07 BMatP= 3.85D-07
 IDIUse=1 WtCom= 1.00D+00 WtEn= 0.00D+00
 Coeff-Com:  0.847D-01-0.139D+00-0.829D+00-0.344D-01 0.147D+01-0.335D+01
 Coeff-Com:  0.344D+01-0.595D+00-0.177D+00 0.982D-01 0.103D+01
 Coeff:      0.847D-01-0.139D+00-0.829D+00-0.344D-01 0.147D+01-0.335D+01
 Coeff:      0.344D+01-0.595D+00-0.177D+00 0.982D-01 0.103D+01
 Gap=     0.359 Goal=   None    Shift=    0.000
 Gap=     0.124 Goal=   None    Shift=    0.000
 RMSDP=2.47D-06 MaxDP=2.04D-04 DE=-2.54D-06 OVMax= 1.71D-03

 Cycle  41  Pass 1  IDiag  1:
 Restarting incremental Fock formation.
 E= -2555.89180572016     Delta-E=       -0.000001157246 Rises=F Damp=F
 DIIS: error= 1.93D-05 at cycle  41 NSaved=  12.
 NSaved=12 IEnMin= 1 EnMin= -2555.89180660454     IErMin=12 ErrMin= 1.93D-05
 ErrMax= 1.93D-05  0.00D+00 EMaxC= 1.00D-01 BMatC= 3.45D-07 BMatP= 3.54D-07
 IDIUse=1 WtCom= 1.00D+00 WtEn= 0.00D+00
 Coeff-Com:  0.232D+00-0.868D-01-0.184D+01 0.213D+01 0.105D+01-0.511D+01
 Coeff-Com:  0.442D+01-0.813D+00-0.360D+00-0.468D+00 0.784D-01 0.176D+01
 Coeff:      0.232D+00-0.868D-01-0.184D+01 0.213D+01 0.105D+01-0.511D+01
 Coeff:      0.442D+01-0.813D+00-0.360D+00-0.468D+00 0.784D-01 0.176D+01
 Gap=     0.359 Goal=   None    Shift=    0.000
 Gap=     0.124 Goal=   None    Shift=    0.000
 RMSDP=4.36D-06 MaxDP=4.04D-04 DE=-1.16D-06 OVMax= 3.06D-03

 Cycle  42  Pass 1  IDiag  1:
 RMSU=  4.36D-06    CP:  1.00D+00
 E= -2555.89180655057     Delta-E=       -0.000000830405 Rises=F Damp=F
 DIIS: error= 1.81D-05 at cycle  42 NSaved=  13.
 NSaved=13 IEnMin= 1 EnMin= -2555.89180660454     IErMin=13 ErrMin= 1.81D-05
 ErrMax= 1.81D-05  0.00D+00 EMaxC= 1.00D-01 BMatC= 3.69D-07 BMatP= 3.45D-07
 IDIUse=1 WtCom= 1.00D+00 WtEn= 0.00D+00
 Coeff-Com:  0.806D+00-0.846D+00-0.313D+01 0.282D+01 0.174D+01-0.571D+01
 Coeff-Com:  0.594D+01-0.154D+01-0.337D+00-0.587D+00 0.103D+01 0.222D+01
 Coeff-Com: -0.141D+01
 Coeff:      0.806D+00-0.846D+00-0.313D+01 0.282D+01 0.174D+01-0.571D+01
 Coeff:      0.594D+01-0.154D+01-0.337D+00-0.587D+00 0.103D+01 0.222D+01
 Coeff:     -0.141D+01
 Gap=     0.359 Goal=   None    Shift=    0.000
 Gap=     0.124 Goal=   None    Shift=    0.000
 RMSDP=9.21D-06 MaxDP=7.60D-04 DE=-8.30D-07 OVMax= 6.52D-03

 Cycle  43  Pass 1  IDiag  1:
 RMSU=  7.27D-06    CP:  1.00D+00  2.30D+00
 E= -2555.89181026768     Delta-E=       -0.000003717109 Rises=F Damp=F
 DIIS: error= 1.60D-05 at cycle  43 NSaved=  14.
 NSaved=14 IEnMin=14 EnMin= -2555.89181026768     IErMin=14 ErrMin= 1.60D-05
 ErrMax= 1.60D-05  0.00D+00 EMaxC= 1.00D-01 BMatC= 5.79D-07 BMatP= 3.45D-07
 IDIUse=1 WtCom= 1.00D+00 WtEn= 0.00D+00
 Coeff-Com:  0.937D+00-0.101D+01-0.334D+01 0.320D+01 0.166D+01-0.597D+01
 Coeff-Com:  0.628D+01-0.162D+01-0.273D+00-0.550D+00 0.101D+01 0.244D+01
 Coeff-Com: -0.219D+01 0.438D+00
 Coeff:      0.937D+00-0.101D+01-0.334D+01 0.320D+01 0.166D+01-0.597D+01
 Coeff:      0.628D+01-0.162D+01-0.273D+00-0.550D+00 0.101D+01 0.244D+01
 Coeff:     -0.219D+01 0.438D+00
 Gap=     0.359 Goal=   None    Shift=    0.000
 Gap=     0.124 Goal=   None    Shift=    0.000
 RMSDP=4.86D-06 MaxDP=4.26D-04 DE=-3.72D-06 OVMax= 3.62D-03

 Cycle  44  Pass 1  IDiag  1:
 RMSU=  5.24D-07    CP:  1.00D+00  3.00D+00  1.46D+00
 E= -2555.89181196230     Delta-E=       -0.000001694621 Rises=F Damp=F
 DIIS: error= 1.56D-05 at cycle  44 NSaved=  15.
 NSaved=15 IEnMin=15 EnMin= -2555.89181196230     IErMin=15 ErrMin= 1.56D-05
 ErrMax= 1.56D-05  0.00D+00 EMaxC= 1.00D-01 BMatC= 5.79D-07 BMatP= 3.45D-07
 IDIUse=1 WtCom= 1.00D+00 WtEn= 0.00D+00
 Coeff-Com: -0.633D+00 0.591D+00 0.544D-03 0.141D+01 0.123D+01-0.401D+01
 Coeff-Com:  0.127D+01-0.273D+00-0.899D-01-0.249D+00-0.931D+00 0.109D+01
 Coeff-Com:  0.368D+00-0.518D+01 0.641D+01
 Coeff:     -0.633D+00 0.591D+00 0.544D-03 0.141D+01 0.123D+01-0.401D+01
 Coeff:      0.127D+01-0.273D+00-0.899D-01-0.249D+00-0.931D+00 0.109D+01
 Coeff:      0.368D+00-0.518D+01 0.641D+01
 Gap=     0.359 Goal=   None    Shift=    0.000
 Gap=     0.125 Goal=   None    Shift=    0.000
 RMSDP=2.37D-05 MaxDP=2.51D-03 DE=-1.69D-06 OVMax= 1.60D-02

 Cycle  45  Pass 1  IDiag  1:
 RMSU=  1.29D-05    CP:  1.00D+00  3.00D+00  3.00D+00 -1.90D+00
 E= -2555.89182049707     Delta-E=       -0.000008534766 Rises=F Damp=F
 DIIS: error= 1.46D-05 at cycle  45 NSaved=  16.
 NSaved=16 IEnMin=16 EnMin= -2555.89182049707     IErMin=16 ErrMin= 1.46D-05
 ErrMax= 1.46D-05  0.00D+00 EMaxC= 1.00D-01 BMatC= 3.39D-07 BMatP= 3.45D-07
 IDIUse=1 WtCom= 1.00D+00 WtEn= 0.00D+00
 Coeff-Com: -0.855D-01 0.788D+00-0.186D+01 0.147D+00 0.557D+00-0.234D+01
 Coeff-Com:  0.355D+01-0.675D+00-0.921D+00-0.920D+00-0.779D-01 0.141D+01
 Coeff-Com: -0.246D+00 0.925D+00-0.257D+01 0.332D+01
 Coeff:     -0.855D-01 0.788D+00-0.186D+01 0.147D+00 0.557D+00-0.234D+01
 Coeff:      0.355D+01-0.675D+00-0.921D+00-0.920D+00-0.779D-01 0.141D+01
 Coeff:     -0.246D+00 0.925D+00-0.257D+01 0.332D+01
 Gap=     0.359 Goal=   None    Shift=    0.000
 Gap=     0.125 Goal=   None    Shift=    0.000
 RMSDP=5.89D-05 MaxDP=6.06D-03 DE=-8.53D-06 OVMax= 3.44D-02

 Cycle  46  Pass 1  IDiag  1:
 RMSU=  3.39D-05    CP:  1.00D+00  3.00D+00  3.00D+00  3.00D+00  3.00D+00
 E= -2555.89183485647     Delta-E=       -0.000014359405 Rises=F Damp=F
 DIIS: error= 2.25D-05 at cycle  46 NSaved=  17.
 NSaved=17 IEnMin=17 EnMin= -2555.89183485647     IErMin=16 ErrMin= 1.46D-05
 ErrMax= 2.25D-05  0.00D+00 EMaxC= 1.00D-01 BMatC= 2.34D-06 BMatP= 3.39D-07
 IDIUse=1 WtCom= 1.00D+00 WtEn= 0.00D+00
 Coeff-Com:  0.950D-01-0.337D+00-0.358D+00 0.795D+00-0.290D+01 0.272D+01
 Coeff-Com:  0.141D+01-0.147D+01-0.134D+01-0.131D+01 0.153D+01 0.581D+00
 Coeff-Com:  0.288D+00 0.167D+01-0.343D+01 0.240D+01 0.659D+00
 Coeff:      0.950D-01-0.337D+00-0.358D+00 0.795D+00-0.290D+01 0.272D+01
 Coeff:      0.141D+01-0.147D+01-0.134D+01-0.131D+01 0.153D+01 0.581D+00
 Coeff:      0.288D+00 0.167D+01-0.343D+01 0.240D+01 0.659D+00
 Gap=     0.360 Goal=   None    Shift=    0.000
 Gap=     0.125 Goal=   None    Shift=    0.000
 RMSDP=3.22D-05 MaxDP=2.66D-03 DE=-1.44D-05 OVMax= 2.18D-02

 Cycle  47  Pass 1  IDiag  1:
 RMSU=  1.01D-05    CP:  1.00D+00  3.00D+00  3.00D+00  3.00D+00  3.00D+00
                    CP:  1.90D+00
 E= -2555.89183856735     Delta-E=       -0.000003710876 Rises=F Damp=F
 DIIS: error= 2.68D-05 at cycle  47 NSaved=  18.
 NSaved=18 IEnMin=18 EnMin= -2555.89183856735     IErMin=16 ErrMin= 1.46D-05
 ErrMax= 2.68D-05  0.00D+00 EMaxC= 1.00D-01 BMatC= 3.32D-06 BMatP= 3.39D-07
 IDIUse=1 WtCom= 1.00D+00 WtEn= 0.00D+00
 Coeff-Com: -0.807D-01-0.270D+00 0.153D+00 0.711D+00-0.272D+01 0.283D+01
 Coeff-Com:  0.655D+00-0.144D+01-0.109D+01-0.135D+01 0.149D+01 0.461D+00
 Coeff-Com:  0.160D+00 0.125D+01-0.215D+01 0.175D+01 0.239D+00 0.399D+00
 Coeff:     -0.807D-01-0.270D+00 0.153D+00 0.711D+00-0.272D+01 0.283D+01
 Coeff:      0.655D+00-0.144D+01-0.109D+01-0.135D+01 0.149D+01 0.461D+00
 Coeff:      0.160D+00 0.125D+01-0.215D+01 0.175D+01 0.239D+00 0.399D+00
 Gap=     0.360 Goal=   None    Shift=    0.000
 Gap=     0.125 Goal=   None    Shift=    0.000
 RMSDP=3.11D-06 MaxDP=2.67D-04 DE=-3.71D-06 OVMax= 2.21D-03

 Cycle  48  Pass 1  IDiag  1:
 RMSU=  5.92D-07    CP:  1.00D+00  3.00D+00  3.00D+00  3.00D+00  3.00D+00
                    CP:  1.99D+00  1.12D+00
 E= -2555.89183904485     Delta-E=       -0.000000477499 Rises=F Damp=F
 DIIS: error= 2.20D-05 at cycle  48 NSaved=  19.
 NSaved=19 IEnMin=19 EnMin= -2555.89183904485     IErMin=16 ErrMin= 1.46D-05
 ErrMax= 2.20D-05  0.00D+00 EMaxC= 1.00D-01 BMatC= 2.22D-06 BMatP= 3.39D-07
 IDIUse=1 WtCom= 1.00D+00 WtEn= 0.00D+00
 Coeff-Com: -0.463D+00 0.977D+00 0.243D+00-0.784D+00-0.231D+00-0.911D+00
 Coeff-Com:  0.870D+00 0.399D+00 0.632D-01-0.591D+00-0.301D+00 0.323D+00
 Coeff-Com: -0.321D-01 0.562D+00-0.842D+00 0.126D+01-0.808D+00-0.193D+01
 Coeff-Com:  0.320D+01
 Coeff:     -0.463D+00 0.977D+00 0.243D+00-0.784D+00-0.231D+00-0.911D+00
 Coeff:      0.870D+00 0.399D+00 0.632D-01-0.591D+00-0.301D+00 0.323D+00
 Coeff:     -0.321D-01 0.562D+00-0.842D+00 0.126D+01-0.808D+00-0.193D+01
 Coeff:      0.320D+01
 Gap=     0.360 Goal=   None    Shift=    0.000
 Gap=     0.125 Goal=   None    Shift=    0.000
 RMSDP=3.14D-06 MaxDP=2.51D-04 DE=-4.77D-07 OVMax= 1.82D-03

 Cycle  49  Pass 1  IDiag  1:
 RMSU=  1.24D-06    CP:  1.00D+00  3.00D+00  3.00D+00  3.00D+00  3.00D+00
                    CP:  1.96D+00  8.83D-01  3.00D+00
 E= -2555.89183960827     Delta-E=       -0.000000563419 Rises=F Damp=F
 DIIS: error= 6.24D-06 at cycle  49 NSaved=  20.
 NSaved=20 IEnMin=20 EnMin= -2555.89183960827     IErMin=20 ErrMin= 6.24D-06
 ErrMax= 6.24D-06  0.00D+00 EMaxC= 1.00D-01 BMatC= 1.54D-07 BMatP= 3.39D-07
 IDIUse=1 WtCom= 1.00D+00 WtEn= 0.00D+00
 Coeff-Com:  0.274D+00-0.638D-01-0.740D+00 0.249D+00-0.424D+00-0.342D+00
 Coeff-Com:  0.118D+01 0.130D+00-0.242D-01 0.250D+00-0.501D-01-0.243D-01
 Coeff-Com:  0.292D+00 0.593D-01-0.165D+01 0.920D+00-0.189D+00-0.778D+00
 Coeff-Com:  0.603D+00 0.133D+01
 Coeff:      0.274D+00-0.638D-01-0.740D+00 0.249D+00-0.424D+00-0.342D+00
 Coeff:      0.118D+01 0.130D+00-0.242D-01 0.250D+00-0.501D-01-0.243D-01
 Coeff:      0.292D+00 0.593D-01-0.165D+01 0.920D+00-0.189D+00-0.778D+00
 Coeff:      0.603D+00 0.133D+01
 Gap=     0.360 Goal=   None    Shift=    0.000
 Gap=     0.125 Goal=   None    Shift=    0.000
 RMSDP=1.28D-05 MaxDP=1.15D-03 DE=-5.63D-07 OVMax= 8.70D-03

 Cycle  50  Pass 1  IDiag  1:
 RMSU=  6.72D-07    CP:  1.00D+00  3.00D+00  3.00D+00  3.00D+00  3.00D+00
                    CP:  2.33D+00  1.22D+00  3.00D+00  1.38D+00
 E= -2555.89184013416     Delta-E=       -0.000000525896 Rises=F Damp=F
 DIIS: error= 4.78D-06 at cycle  50 NSaved=  20.
 NSaved=20 IEnMin=20 EnMin= -2555.89184013416     IErMin=20 ErrMin= 4.78D-06
 ErrMax= 4.78D-06  0.00D+00 EMaxC= 1.00D-01 BMatC= 1.40D-07 BMatP= 1.54D-07
 IDIUse=1 WtCom= 1.00D+00 WtEn= 0.00D+00
 Coeff-Com:  0.244D+00-0.147D+00-0.771D+00 0.345D+00 0.380D-01-0.328D+00
 Coeff-Com:  0.728D+00-0.984D-01 0.118D+00 0.854D-01 0.157D+00-0.106D+00
 Coeff-Com:  0.238D+00-0.100D+01 0.481D+00 0.468D-01-0.214D+00-0.284D+00
 Coeff-Com:  0.589D+00 0.878D+00
 Coeff:      0.244D+00-0.147D+00-0.771D+00 0.345D+00 0.380D-01-0.328D+00
 Coeff:      0.728D+00-0.984D-01 0.118D+00 0.854D-01 0.157D+00-0.106D+00
 Coeff:      0.238D+00-0.100D+01 0.481D+00 0.468D-01-0.214D+00-0.284D+00
 Coeff:      0.589D+00 0.878D+00
 Gap=     0.360 Goal=   None    Shift=    0.000
 Gap=     0.125 Goal=   None    Shift=    0.000
 RMSDP=3.10D-06 MaxDP=3.80D-04 DE=-5.26D-07 OVMax= 1.96D-03

 Cycle  51  Pass 1  IDiag  1:
 RMSU=  2.02D-07    CP:  1.00D+00  3.00D+00  3.00D+00  3.00D+00  3.00D+00
                    CP:  2.41D+00  1.16D+00  3.00D+00  1.93D+00  1.36D+00
 E= -2555.89184020974     Delta-E=       -0.000000075577 Rises=F Damp=F
 DIIS: error= 3.16D-06 at cycle  51 NSaved=  20.
 NSaved=20 IEnMin=20 EnMin= -2555.89184020974     IErMin=20 ErrMin= 3.16D-06
 ErrMax= 3.16D-06  0.00D+00 EMaxC= 1.00D-01 BMatC= 5.90D-08 BMatP= 1.40D-07
 IDIUse=1 WtCom= 1.00D+00 WtEn= 0.00D+00
 Coeff-Com: -0.883D-01 0.428D-01 0.236D+00-0.210D+00 0.582D+00-0.669D+00
 Coeff-Com: -0.205D+00-0.235D+00 0.159D+00 0.124D+00-0.254D-01-0.551D-03
 Coeff-Com:  0.224D+00 0.118D+00 0.142D+00 0.128D+00-0.347D+00-0.396D+00
 Coeff-Com:  0.220D+00 0.120D+01
 Coeff:     -0.883D-01 0.428D-01 0.236D+00-0.210D+00 0.582D+00-0.669D+00
 Coeff:     -0.205D+00-0.235D+00 0.159D+00 0.124D+00-0.254D-01-0.551D-03
 Coeff:      0.224D+00 0.118D+00 0.142D+00 0.128D+00-0.347D+00-0.396D+00
 Coeff:      0.220D+00 0.120D+01
 Gap=     0.360 Goal=   None    Shift=    0.000
 Gap=     0.125 Goal=   None    Shift=    0.000
 RMSDP=6.19D-07 MaxDP=5.75D-05 DE=-7.56D-08 OVMax= 3.77D-04

 Cycle  52  Pass 1  IDiag  1:
 RMSU=  2.62D-07    CP:  1.00D+00  3.00D+00  3.00D+00  3.00D+00  3.00D+00
                    CP:  2.41D+00  1.12D+00  3.00D+00  2.08D+00  1.61D+00
                    CP:  1.32D+00
 E= -2555.89184022693     Delta-E=       -0.000000017188 Rises=F Damp=F
 DIIS: error= 1.67D-06 at cycle  52 NSaved=  20.
 NSaved=20 IEnMin=20 EnMin= -2555.89184022693     IErMin=20 ErrMin= 1.67D-06
 ErrMax= 1.67D-06  0.00D+00 EMaxC= 1.00D-01 BMatC= 1.03D-08 BMatP= 5.90D-08
 IDIUse=1 WtCom= 1.00D+00 WtEn= 0.00D+00
 Coeff-Com: -0.608D-01 0.586D-01 0.104D+00 0.453D-01-0.189D+00-0.421D-01
 Coeff-Com: -0.136D+00 0.312D-01 0.973D-01-0.806D-01-0.195D-02 0.209D+00
 Coeff-Com:  0.227D-01-0.329D-01-0.436D-01 0.134D+00-0.268D+00-0.108D+00
 Coeff-Com:  0.316D+00 0.945D+00
 Coeff:     -0.608D-01 0.586D-01 0.104D+00 0.453D-01-0.189D+00-0.421D-01
 Coeff:     -0.136D+00 0.312D-01 0.973D-01-0.806D-01-0.195D-02 0.209D+00
 Coeff:      0.227D-01-0.329D-01-0.436D-01 0.134D+00-0.268D+00-0.108D+00
 Coeff:      0.316D+00 0.945D+00
 Gap=     0.360 Goal=   None    Shift=    0.000
 Gap=     0.124 Goal=   None    Shift=    0.000
 RMSDP=7.32D-07 MaxDP=6.90D-05 DE=-1.72D-08 OVMax= 4.69D-04

 Cycle  53  Pass 1  IDiag  1:
 RMSU=  7.18D-08    CP:  1.00D+00  3.00D+00  3.00D+00  3.00D+00  3.00D+00
                    CP:  2.43D+00  1.13D+00  3.00D+00  2.09D+00  1.78D+00
                    CP:  1.33D+00  1.35D+00
 E= -2555.89184023824     Delta-E=       -0.000000011310 Rises=F Damp=F
 DIIS: error= 1.51D-06 at cycle  53 NSaved=  20.
 NSaved=20 IEnMin=20 EnMin= -2555.89184023824     IErMin=20 ErrMin= 1.51D-06
 ErrMax= 1.51D-06  0.00D+00 EMaxC= 1.00D-01 BMatC= 2.11D-09 BMatP= 1.03D-08
 IDIUse=1 WtCom= 1.00D+00 WtEn= 0.00D+00
 Coeff-Com: -0.219D-01 0.599D-02 0.747D-01-0.630D-01 0.156D-01 0.551D-03
 Coeff-Com: -0.278D-02-0.190D-01 0.237D-01-0.128D+00 0.143D+00-0.187D-01
 Coeff-Com: -0.542D-01-0.180D-01 0.113D+00-0.472D-01-0.734D-01-0.145D+00
 Coeff-Com:  0.320D+00 0.895D+00
 Coeff:     -0.219D-01 0.599D-02 0.747D-01-0.630D-01 0.156D-01 0.551D-03
 Coeff:     -0.278D-02-0.190D-01 0.237D-01-0.128D+00 0.143D+00-0.187D-01
 Coeff:     -0.542D-01-0.180D-01 0.113D+00-0.472D-01-0.734D-01-0.145D+00
 Coeff:      0.320D+00 0.895D+00
 Gap=     0.360 Goal=   None    Shift=    0.000
 Gap=     0.124 Goal=   None    Shift=    0.000
 RMSDP=1.34D-06 MaxDP=1.14D-04 DE=-1.13D-08 OVMax= 9.18D-04

 Cycle  54  Pass 1  IDiag  1:
 RMSU=  5.50D-08    CP:  1.00D+00  3.00D+00  3.00D+00  3.00D+00  3.00D+00
                    CP:  2.47D+00  1.17D+00  3.00D+00  2.10D+00  1.97D+00
                    CP:  1.43D+00  1.62D+00  1.74D+00
 E= -2555.89184024896     Delta-E=       -0.000000010726 Rises=F Damp=F
 DIIS: error= 1.36D-06 at cycle  54 NSaved=  20.
 NSaved=20 IEnMin=20 EnMin= -2555.89184024896     IErMin=20 ErrMin= 1.36D-06
 ErrMax= 1.36D-06  0.00D+00 EMaxC= 1.00D-01 BMatC= 1.09D-09 BMatP= 2.11D-09
 IDIUse=1 WtCom= 1.00D+00 WtEn= 0.00D+00
 Coeff-Com: -0.461D-02 0.105D-02 0.695D-04 0.608D-02 0.363D-01-0.250D-01
 Coeff-Com: -0.245D-01 0.399D-01-0.994D-01 0.677D-01-0.201D-02 0.772D-02
 Coeff-Com:  0.107D-01-0.599D-01 0.729D-01 0.737D-01-0.476D-01-0.552D+00
 Coeff-Com: -0.433D+00 0.193D+01
 Coeff:     -0.461D-02 0.105D-02 0.695D-04 0.608D-02 0.363D-01-0.250D-01
 Coeff:     -0.245D-01 0.399D-01-0.994D-01 0.677D-01-0.201D-02 0.772D-02
 Coeff:      0.107D-01-0.599D-01 0.729D-01 0.737D-01-0.476D-01-0.552D+00
 Coeff:     -0.433D+00 0.193D+01
 Gap=     0.360 Goal=   None    Shift=    0.000
 Gap=     0.124 Goal=   None    Shift=    0.000
 RMSDP=8.60D-07 MaxDP=6.82D-05 DE=-1.07D-08 OVMax= 5.61D-04

 Cycle  55  Pass 1  IDiag  1:
 RMSU=  3.13D-08    CP:  1.00D+00  3.00D+00  3.00D+00  3.00D+00  3.00D+00
                    CP:  2.49D+00  1.19D+00  3.00D+00  2.09D+00  2.19D+00
                    CP:  1.49D+00  2.18D+00  3.00D+00  2.66D+00
 E= -2555.89184025527     Delta-E=       -0.000000006310 Rises=F Damp=F
 DIIS: error= 1.17D-06 at cycle  55 NSaved=  20.
 NSaved=20 IEnMin=20 EnMin= -2555.89184025527     IErMin=20 ErrMin= 1.17D-06
 ErrMax= 1.17D-06  0.00D+00 EMaxC= 1.00D-01 BMatC= 3.47D-10 BMatP= 1.09D-09
 IDIUse=1 WtCom= 1.00D+00 WtEn= 0.00D+00
 Coeff-Com: -0.618D-02-0.136D-01-0.266D-01-0.151D-01 0.130D-01 0.157D-01
 Coeff-Com: -0.191D-01 0.305D-01 0.484D-01-0.313D-01 0.722D-01 0.727D-01
 Coeff-Com: -0.189D+00 0.107D-02 0.110D+00 0.272D+00-0.542D+00-0.130D+01
 Coeff-Com:  0.651D+00 0.186D+01
 Coeff:     -0.618D-02-0.136D-01-0.266D-01-0.151D-01 0.130D-01 0.157D-01
 Coeff:     -0.191D-01 0.305D-01 0.484D-01-0.313D-01 0.722D-01 0.727D-01
 Coeff:     -0.189D+00 0.107D-02 0.110D+00 0.272D+00-0.542D+00-0.130D+01
 Coeff:      0.651D+00 0.186D+01
 Gap=     0.360 Goal=   None    Shift=    0.000
 Gap=     0.124 Goal=   None    Shift=    0.000
 RMSDP=5.10D-07 MaxDP=4.70D-05 DE=-6.31D-09 OVMax= 3.20D-04

 Cycle  56  Pass 1  IDiag  1:
 RMSU=  2.40D-07    CP:  1.00D+00  3.00D+00  3.00D+00  3.00D+00  3.00D+00
                    CP:  2.49D+00  1.20D+00  3.00D+00  1.98D+00  2.49D+00
                    CP:  1.28D+00  3.00D+00  3.00D+00  3.00D+00  3.00D+00
[...]
                        XY            XZ            YZ
 --------------------------------------------------------
     1   Atom       -0.008935     -0.043932      0.014292
     2   Atom       -0.280821     -0.973409      0.352606
     3   Atom        0.022807      0.065459     -0.018308
     4   Atom       -0.101364     -0.060336      0.427184
     5   Atom       -0.050434     -0.124863      0.066566
     6   Atom        0.004373     -0.008239     -0.003890
     7   Atom        0.006149     -0.010392     -0.002547
     8   Atom        0.001296     -0.002042     -0.001180
     9   Atom        0.000909     -0.002052     -0.000508
    10   Atom        0.000346     -0.000336     -0.000165
    11   Atom        0.000581     -0.000997     -0.000242
    12   Atom        0.000362     -0.000334     -0.000563
    13   Atom        0.000337     -0.000568     -0.000450
    14   Atom        0.000343     -0.000200     -0.000379
    15   Atom        0.000392     -0.000563     -0.000668
    16   Atom        0.000234     -0.000206     -0.000127
    17   Atom        0.000268     -0.000152     -0.000123
    18   Atom        0.000152     -0.000142     -0.000087
    19   Atom        0.000212     -0.000199     -0.000094
    20   Atom        0.005146      0.028520     -0.013211
    21   Atom       -0.024129     -0.188998      0.049828
    22   Atom        0.002885      0.003131     -0.010409
    23   Atom       -0.001992     -0.001097      0.003108
    24   Atom       -0.005490     -0.001178      0.002706
    25   Atom       -0.001906      0.000606     -0.000508
    26   Atom       -0.000573      0.000703     -0.000423
    27   Atom       -0.000469      0.001256     -0.000665
    28   Atom       -0.000524      0.000806     -0.000308
    29   Atom       -0.000312      0.000321     -0.000233
    30   Atom       -0.000258      0.000252     -0.000240
    31   Atom       -0.000204      0.000273     -0.000174
    32   Atom       -0.000286      0.000226     -0.000125
    33   Atom       -0.000183      0.000143     -0.000093
    34   Atom       -0.000153      0.000128     -0.000104
    35   Atom       -0.000137      0.000156     -0.000074
    36   Atom       -0.000159      0.000084     -0.000055
    37   Atom        0.017346      0.093654     -0.028402
    38   Atom       -0.079014     -0.503323      0.132520
    39   Atom       -0.003576      0.008240     -0.010081
    40   Atom        0.009798      0.004314     -0.002196
    41   Atom       -0.008263     -0.007155      0.011445
    42   Atom        0.001239      0.003545     -0.000096
    43   Atom        0.000681      0.001371      0.000545
    44   Atom        0.000913     -0.001266     -0.000054
    45   Atom        0.001890      0.000846      0.000516
    46   Atom        0.001061     -0.001428     -0.001209
    47   Atom        0.001081     -0.000372     -0.000878
    48   Atom        0.000354      0.001182     -0.001050
    49   Atom       -0.000542      0.001934     -0.002595
    50   Atom       -0.001142      0.000472      0.000204
    51   Atom       -0.002029     -0.000101     -0.000377
    52   Atom       -0.000745      0.000090     -0.000170
    53   Atom       -0.000602      0.000392     -0.000506
 --------------------------------------------------------


 ---------------------------------------------------------------------------------
              Anisotropic Spin Dipole Couplings in Principal Axis System
 ---------------------------------------------------------------------------------

       Atom             a.u.   MegaHertz   Gauss  10(-4) cm-1        Axes

              Baa    -0.0437    -5.860    -2.091    -1.955  0.8780  0.0380  0.4771
     1 C(13)  Bbb    -0.0201    -2.700    -0.963    -0.901  0.0652  0.9781 -0.1979
              Bcc     0.0638     8.560     3.054     2.855 -0.4741  0.2048  0.8563
 
              Baa    -0.7009   -27.032    -9.646    -9.017  0.7910  0.0779  0.6068
     2 N(14)  Bbb    -0.6980   -26.922    -9.606    -8.980  0.0743  0.9723 -0.2216
              Bcc     1.3989    53.953    19.252    17.997 -0.6073  0.2204  0.7633
 
              Baa    -0.0987   -13.239    -4.724    -4.416 -0.4758  0.2078  0.8546
     3 C(13)  Bbb     0.0308     4.135     1.475     1.379 -0.1850  0.9263 -0.3282
              Bcc     0.0678     9.104     3.248     3.037  0.8599  0.3143  0.4023
 
              Baa    -0.3366    24.354     8.690     8.123  0.6465  0.6422 -0.4118
     4 O(17)  Bbb    -0.2529    18.303     6.531     6.105  0.7523 -0.4468  0.4842
              Bcc     0.5895   -42.656   -15.221   -14.229 -0.1270  0.6229  0.7720
 
              Baa    -0.0984    -3.796    -1.355    -1.266  0.4735 -0.5803  0.6626
     5 N(14)  Bbb    -0.0873    -3.366    -1.201    -1.123  0.6276  0.7501  0.2084
              Bcc     0.1857     7.162     2.556     2.389 -0.6180  0.3171  0.7194
 
              Baa    -0.0110    -1.471    -0.525    -0.491  0.7932 -0.5800  0.1857
     6 C(13)  Bbb    -0.0055    -0.742    -0.265    -0.247  0.4792  0.7826  0.3974
              Bcc     0.0165     2.213     0.790     0.738 -0.3758 -0.2262  0.8987
 
              Baa    -0.0102    -1.368    -0.488    -0.456  0.4433 -0.1714  0.8798
     7 C(13)  Bbb    -0.0090    -1.206    -0.430    -0.402 -0.1456  0.9547  0.2594
              Bcc     0.0192     2.574     0.918     0.859  0.8845  0.2431 -0.3983
 
              Baa    -0.0018    -0.245    -0.087    -0.082  0.6965 -0.6762  0.2399
     8 C(13)  Bbb    -0.0014    -0.191    -0.068    -0.064  0.3735  0.6272  0.6834
              Bcc     0.0033     0.436     0.156     0.146 -0.6126 -0.3864  0.6895
 
              Baa    -0.0017    -0.231    -0.082    -0.077  0.5212 -0.0930  0.8484
     9 C(13)  Bbb    -0.0015    -0.201    -0.072    -0.067 -0.1461  0.9697  0.1960
              Bcc     0.0032     0.433     0.154     0.144  0.8409  0.2261 -0.4918
 
              Baa    -0.0005    -0.266    -0.095    -0.089  0.2778  0.1275  0.9521
    10 F(19)  Bbb    -0.0002    -0.113    -0.040    -0.038 -0.4462  0.8949  0.0103
              Bcc     0.0008     0.379     0.135     0.126  0.8507  0.4277 -0.3055
 
              Baa    -0.0011    -0.541    -0.193    -0.180  0.0240  0.8347  0.5503
    11 F(19)  Bbb    -0.0010    -0.517    -0.185    -0.173  0.4010 -0.5122  0.7595
              Bcc     0.0021     1.058     0.378     0.353  0.9158  0.2024 -0.3470
 
              Baa    -0.0006    -0.079    -0.028    -0.026 -0.2521  0.8331  0.4924
    12 C(13)  Bbb    -0.0003    -0.038    -0.013    -0.013  0.8461 -0.0572  0.5299
              Bcc     0.0009     0.117     0.042     0.039 -0.4696 -0.5502  0.6905
 
              Baa    -0.0005    -0.265    -0.095    -0.088  0.6470  0.2542  0.7189
    13 F(19)  Bbb    -0.0004    -0.203    -0.072    -0.068 -0.5118  0.8436  0.1623
              Bcc     0.0009     0.468     0.167     0.156 -0.5652 -0.4730  0.6759
 
              Baa    -0.0004    -0.213    -0.076    -0.071 -0.2495  0.7185  0.6493
    14 F(19)  Bbb    -0.0002    -0.101    -0.036    -0.034  0.7904 -0.2363  0.5652
              Bcc     0.0006     0.314     0.112     0.105  0.5595  0.6542 -0.5090
 
              Baa    -0.0007     0.049     0.017     0.016 -0.3352  0.8780  0.3417
    15 O(17)  Bbb    -0.0005     0.038     0.014     0.013  0.8371  0.1111  0.5357
              Bcc     0.0012    -0.087    -0.031    -0.029 -0.4324 -0.4656  0.7722
 
              Baa    -0.0002    -0.029    -0.010    -0.010 -0.4167  0.8815  0.2218
    16 C(13)  Bbb    -0.0002    -0.028    -0.010    -0.009  0.4741  0.0026  0.8805
              Bcc     0.0004     0.057     0.020     0.019  0.7756  0.4721 -0.4190
 
              Baa    -0.0002    -0.107    -0.038    -0.036  0.2089  0.2661  0.9410
    17 F(19)  Bbb    -0.0002    -0.102    -0.036    -0.034 -0.6433  0.7621 -0.0727
              Bcc     0.0004     0.208     0.074     0.070  0.7366  0.5902 -0.3304
 
              Baa    -0.0002    -0.078    -0.028    -0.026 -0.1607  0.8202  0.5490
    18 F(19)  Bbb    -0.0001    -0.069    -0.025    -0.023  0.5812 -0.3710  0.7243
              Bcc     0.0003     0.148     0.053     0.049  0.7978  0.4355 -0.4170
 
              Baa    -0.0002    -0.116    -0.041    -0.039 -0.0344  0.7265  0.6863
    19 F(19)  Bbb    -0.0002    -0.108    -0.039    -0.036  0.5105 -0.5776  0.6370
              Bcc     0.0004     0.224     0.080     0.075  0.8592  0.3723 -0.3510
 
              Baa    -0.0473    -6.351    -2.266    -2.118 -0.5951  0.1714  0.7852
    20 C(13)  Bbb     0.0131     1.764     0.630     0.589  0.8021  0.1879  0.5669
              Bcc     0.0342     4.586     1.636     1.530 -0.0503  0.9671 -0.2493
 
              Baa    -0.1642    11.879     4.239     3.962  0.8953 -0.0357  0.4441
    21 O(17)  Bbb    -0.1560    11.289     4.028     3.766  0.0838  0.9925 -0.0892
              Bcc     0.3202   -23.168    -8.267    -7.728 -0.4375  0.1171  0.8916
 
              Baa    -0.0127    -0.488    -0.174    -0.163 -0.2943  0.5849  0.7558
    22 N(14)  Bbb     0.0024     0.093     0.033     0.031  0.9546  0.1412  0.2624
              Bcc     0.0102     0.395     0.141     0.132  0.0467  0.7987 -0.5999
 
              Baa    -0.0047    -0.626    -0.223    -0.209  0.9751  0.2064  0.0809
    23 C(13)  Bbb    -0.0013    -0.181    -0.065    -0.060  0.0408 -0.5254  0.8499
              Bcc     0.0060     0.807     0.288     0.269 -0.2179  0.8255  0.5207
 
              Baa    -0.0047    -0.636    -0.227    -0.212  0.7061  0.5622 -0.4304
    24 C(13)  Bbb    -0.0037    -0.492    -0.176    -0.164  0.4933  0.0454  0.8686
              Bcc     0.0084     1.128     0.403     0.376 -0.5079  0.8257  0.2453
 
              Baa    -0.0015    -0.202    -0.072    -0.067 -0.5270 -0.2391  0.8155
    25 C(13)  Bbb    -0.0012    -0.163    -0.058    -0.054  0.5633  0.6202  0.5459
              Bcc     0.0027     0.365     0.130     0.122 -0.6363  0.7471 -0.1921
 
              Baa    -0.0007    -0.093    -0.033    -0.031 -0.6508 -0.0867  0.7543
    26 C(13)  Bbb    -0.0005    -0.064    -0.023    -0.021  0.3308  0.8618  0.3845
              Bcc     0.0012     0.157     0.056     0.052  0.6834 -0.4998  0.5321
 
              Baa    -0.0012    -0.596    -0.213    -0.199  0.8770  0.1923 -0.4403
    27 F(19)  Bbb    -0.0008    -0.407    -0.145    -0.136 -0.0259  0.9339  0.3565
              Bcc     0.0020     1.003     0.358     0.335  0.4798 -0.3012  0.8241
 
              Baa    -0.0008    -0.408    -0.146    -0.136 -0.4646  0.0548  0.8838
    28 F(19)  Bbb    -0.0005    -0.259    -0.092    -0.086  0.3355  0.9346  0.1184
              Bcc     0.0013     0.667     0.238     0.223  0.8195 -0.3515  0.4526
 
              Baa    -0.0003    -0.043    -0.015    -0.014 -0.5913  0.0122  0.8064
    29 C(13)  Bbb    -0.0003    -0.037    -0.013    -0.012  0.4312  0.8497  0.3033
              Bcc     0.0006     0.080     0.028     0.027  0.6815 -0.5271  0.5077
 
              Baa    -0.0003    -0.139    -0.050    -0.047  0.7432  0.1000 -0.6615
    30 F(19)  Bbb    -0.0002    -0.112    -0.040    -0.037  0.3519  0.7825  0.5137
              Bcc     0.0005     0.252     0.090     0.084 -0.5690  0.6146 -0.5464
 
              Baa    -0.0002    -0.119    -0.042    -0.040 -0.6467  0.0042  0.7627
    31 F(19)  Bbb    -0.0002    -0.109    -0.039    -0.036  0.3449  0.8935  0.2876
              Bcc     0.0005     0.227     0.081     0.076  0.6803 -0.4490  0.5792
 
              Baa    -0.0003     0.019     0.007     0.006 -0.5685 -0.2923  0.7690
    32 O(17)  Bbb    -0.0002     0.016     0.006     0.005  0.2829  0.8083  0.5164
              Bcc     0.0005    -0.035    -0.013    -0.012  0.7725 -0.5111  0.3768
 
              Baa    -0.0002    -0.022    -0.008    -0.007 -0.4310  0.0349  0.9017
    33 C(13)  Bbb    -0.0002    -0.020    -0.007    -0.007  0.4755  0.8581  0.1941
              Bcc     0.0003     0.042     0.015     0.014  0.7669 -0.5124  0.3864
 
              Baa    -0.0001    -0.070    -0.025    -0.023 -0.5005  0.0918  0.8609
    34 F(19)  Bbb    -0.0001    -0.064    -0.023    -0.021  0.5312  0.8178  0.2216
              Bcc     0.0003     0.134     0.048     0.045  0.6836 -0.5682  0.4581
 
              Baa    -0.0002    -0.075    -0.027    -0.025 -0.4806 -0.0088  0.8769
    35 F(19)  Bbb    -0.0001    -0.070    -0.025    -0.023  0.3436  0.9181  0.1976
              Bcc     0.0003     0.145     0.052     0.048  0.8068 -0.3963  0.4382
 
              Baa    -0.0001    -0.065    -0.023    -0.022 -0.3300 -0.0050  0.9440
    36 F(19)  Bbb    -0.0001    -0.061    -0.022    -0.020  0.5045  0.8442  0.1808
              Bcc     0.0003     0.126     0.045     0.042  0.7978 -0.5360  0.2760
 
              Baa    -0.1210   -16.241    -5.795    -5.417 -0.5800  0.2117  0.7866
    37 C(13)  Bbb     0.0390     5.232     1.867     1.745  0.1809  0.9750 -0.1291
              Bcc     0.0820    11.009     3.928     3.672  0.7943 -0.0674  0.6038
 
              Baa    -0.3844    27.814     9.925     9.278 -0.2732  0.9056 -0.3244
    38 O(17)  Bbb    -0.3702    26.791     9.560     8.936  0.7990  0.4014  0.4477
              Bcc     0.7546   -54.605   -19.484   -18.214 -0.5356  0.1369  0.8333
 
              Baa    -0.0113    -6.004    -2.142    -2.003 -0.4360  0.4939  0.7523
    39 H(1)   Bbb    -0.0038    -2.014    -0.719    -0.672  0.7690  0.6387  0.0263
              Bcc     0.0150     8.018     2.861     2.675  0.4675 -0.5900  0.6583
 
              Baa    -0.0113    -6.006    -2.143    -2.003 -0.4966  0.4661  0.7322
    40 H(1)   Bbb    -0.0022    -1.169    -0.417    -0.390  0.4420 -0.5903  0.6755
              Bcc     0.0134     7.175     2.560     2.393  0.7470  0.6591  0.0871
 
              Baa    -0.0115    -6.134    -2.189    -2.046  0.8505  0.0543  0.5232
    41 H(1)   Bbb    -0.0085    -4.526    -1.615    -1.510 -0.3644 -0.6564  0.6605
              Bcc     0.0200    10.659     3.804     3.556 -0.3794  0.7524  0.5385
 
              Baa    -0.0048    -2.570    -0.917    -0.857  0.8335 -0.1718 -0.5251
    42 H(1)   Bbb     0.0015     0.785     0.280     0.262 -0.0400  0.9291 -0.3676
              Bcc     0.0033     1.785     0.637     0.595  0.5510  0.3274  0.7676
 
              Baa    -0.0028    -1.481    -0.528    -0.494  0.7087 -0.0176 -0.7053
    43 H(1)   Bbb    -0.0003    -0.147    -0.052    -0.049  0.6756 -0.2709  0.6857
              Bcc     0.0030     1.627     0.581     0.543  0.2032  0.9624  0.1801
 
              Baa    -0.0028    -1.507    -0.538    -0.503  0.2381 -0.0590  0.9694
    44 H(1)   Bbb    -0.0003    -0.153    -0.055    -0.051 -0.2544  0.9595  0.1209
              Bcc     0.0031     1.660     0.592     0.554  0.9373  0.2755 -0.2135
 
              Baa    -0.0017    -0.922    -0.329    -0.308 -0.5229  0.8524  0.0027
    45 H(1)   Bbb    -0.0011    -0.567    -0.202    -0.189 -0.2262 -0.1419  0.9637
              Bcc     0.0028     1.489     0.531     0.497  0.8218  0.5033  0.2670
 
              Baa    -0.0014    -0.746    -0.266    -0.249  0.4950  0.3522  0.7943
    46 H(1)   Bbb    -0.0011    -0.579    -0.206    -0.193 -0.6251  0.7793  0.0441
              Bcc     0.0025     1.325     0.473     0.442 -0.6035 -0.5184  0.6059
 
              Baa    -0.0014    -0.759    -0.271    -0.253 -0.0609  0.4144  0.9081
    47 H(1)   Bbb    -0.0005    -0.252    -0.090    -0.084  0.7950 -0.5300  0.2952
              Bcc     0.0019     1.011     0.361     0.337  0.6036  0.7399 -0.2972
 
              Baa    -0.0020    -1.054    -0.376    -0.352  0.7153 -0.3185 -0.6220
    48 H(1)   Bbb     0.0004     0.194     0.069     0.065  0.6737  0.5508  0.4927
              Bcc     0.0016     0.860     0.307     0.287 -0.1857  0.7714 -0.6086
 
              Baa    -0.0034    -1.806    -0.645    -0.603  0.8256 -0.1823 -0.5340
    49 H(1)   Bbb    -0.0008    -0.445    -0.159    -0.149  0.5052  0.6603  0.5557
              Bcc     0.0042     2.252     0.804     0.751 -0.2513  0.7285 -0.6373
 
              Baa    -0.0016    -0.833    -0.297    -0.278 -0.3446 -0.2400  0.9076
    50 H(1)   Bbb    -0.0003    -0.143    -0.051    -0.048  0.6727  0.6112  0.4170
              Bcc     0.0018     0.976     0.348     0.326 -0.6548  0.7542 -0.0491
 
              Baa    -0.0021    -1.113    -0.397    -0.371  0.1903  0.2723  0.9432
    51 H(1)   Bbb    -0.0010    -0.510    -0.182    -0.170  0.6200  0.7115 -0.3305
              Bcc     0.0030     1.623     0.579     0.541  0.7611 -0.6477  0.0334
 
              Baa    -0.0006    -0.309    -0.110    -0.103  0.4322  0.6240  0.6511
    52 H(1)   Bbb    -0.0004    -0.233    -0.083    -0.078 -0.4953 -0.4391  0.7496
              Bcc     0.0010     0.542     0.193     0.181  0.7536 -0.6464  0.1193
 
              Baa    -0.0008    -0.401    -0.143    -0.134 -0.2547  0.2653  0.9299
    53 H(1)   Bbb    -0.0004    -0.204    -0.073    -0.068  0.7947  0.6053  0.0449
              Bcc     0.0011     0.605     0.216     0.202 -0.5510  0.7505 -0.3650
 

 ---------------------------------------------------------------------------------

 No NMR shielding tensors so no spin-rotation constants.
 Leave Link  601 at Sun Feb  2 11:48:17 2025, MaxMem=  5368709120 cpu:         6.3
 (Enter /home/k0335/k033513/app/g09/l9999.exe)
 1\1\GINC-C18U04N1\SP\UCAM-B3LYP\6-31G(d,p)\C16H15F14N3O5(1+,2)\K033513
 \02-Feb-2025\0\\#p CAM-B3LYP/6-31G(d,p) SCRF=(PCM,Solvent=Generic,Read
 ) NoSymm out=wfn\\Title LDAI1C2_pos\\1,2\C,0,-0.057206,-4.40883,2.0911
 \N,0,0.042689,-2.985446,1.818055\C,0,1.117482,-2.296471,2.334962\O,0,2
 .007966,-2.860004,2.974686\N,0,1.146673,-0.937803,2.092447\C,0,2.21984
 2,-0.154356,2.704457\C,0,3.530162,-0.19194,1.906732\C,0,3.438364,0.528
 529,0.556336\C,0,4.789652,0.571431,-0.153062\F,0,5.684014,1.188953,0.6
 64639\F,0,5.241287,-0.701616,-0.322454\C,0,4.70731,1.288437,-1.52378\F
 ,0,3.720694,0.691512,-2.259348\F,0,4.298961,2.576661,-1.376497\O,0,5.8
 34244,1.284159,-2.364244\C,0,6.959715,1.775843,-1.699371\F,0,6.667282,
 2.843084,-0.936837\F,0,7.87093,2.149201,-2.620672\F,0,7.500812,0.80455
 8,-0.943722\C,0,0.236431,-0.294315,1.281379\O,0,0.281288,0.924033,1.09
 3275\N,0,-0.719464,-1.085443,0.680772\C,0,-1.679047,-0.445532,-0.21982
 8\C,0,-2.909054,0.062388,0.541338\C,0,-3.800749,1.016276,-0.264477\C,0
 ,-4.390235,0.403222,-1.533816\F,0,-3.373891,0.086517,-2.38331\F,0,-4.9
 98123,-0.771609,-1.209085\C,0,-5.392263,1.337684,-2.241797\F,0,-4.7646
 35,2.488237,-2.598601\F,0,-5.855449,0.759871,-3.375941\O,0,-6.470406,1
 .686314,-1.404881\C,0,-7.514349,2.198203,-2.182488\F,0,-7.08008,3.0861
 89,-3.093926\F,0,-8.177271,1.197409,-2.790332\F,0,-8.37636,2.830296,-1
 .357761\C,0,-0.877791,-2.42742,0.957819\O,0,-1.791514,-3.090385,0.4629
 54\H,0,0.413128,-4.665079,3.044918\H,0,-1.103608,-4.727305,2.121948\H,
 0,0.452553,-4.948352,1.286517\H,0,2.410134,-0.553718,3.708346\H,0,1.89
 8101,0.884522,2.841069\H,0,3.843583,-1.230219,1.7465\H,0,4.308764,0.28
 4885,2.514582\H,0,2.715667,0.008483,-0.081387\H,0,3.08029,1.551696,0.7
 18292\H,0,-1.187233,0.386925,-0.736489\H,0,-1.980401,-1.167425,-0.9864
 91\H,0,-2.584915,0.593466,1.445544\H,0,-3.502463,-0.791864,0.889935\H,
 0,-4.612837,1.338476,0.397885\H,0,-3.218677,1.907671,-0.527062\\Versio
 n=ES64L-G09RevD.01\HF=-2555.8918403\S2=0.770033\S2-1=0.\S2A=0.750283\R
 MSD=7.356e-10\Dipole=-0.0199906,-4.8982955,5.3186236\Quadrupole=-19.09
 70107,18.3970687,0.699942,-1.9307195,1.0888714,-14.4049639\PG=C01 [X(C
 16H15F14N3O5)]\\@

 Writing a WFN file to "wang5/LDAI1C2/LDAI1C2_pos.wfn"


 OLD HORSE! OLD HORSE! WHAT BROUGHT YOU HERE?
 FROM SACARAP' TO PORTLAND PIER
 I'VE CARTED STONE THIS MANY A YEAR;
 TILL, KILLED BY BLOWS AND SORE ABUSE,
 THEY SALTED ME DOWN FOR SAILORS' USE.
 THE SAILORS THEY DO ME DESPISE;
 THEY TURN ME OVER AND DAMN MY EYES;
 CUT OFF MY MEAT, AND SCRAPE MY BONES,
 AND PITCH ME OVER TO DAVY JONES.

    SAILORS' COMPLAINT ABOUT THE BEEF
    SERVED ON SHIPBOARD, CIRCA 1835.
 Job cpu time:       0 days  2 hours  3 minutes 43.8 seconds.
 File lengths (MBytes):  RWF=    675 Int=      0 D2E=      0 Chk=     22 Scr=      1
 Normal termination of Gaussian 09 at Sun Feb  2 11:48:18 2025.
