 Entering Gaussian System, Link 0=g09
 Initial command:
 /home/k0335/k033513/app/g09/l1.exe "/home/k0335/k033513/app/g09/scratch/Gau-1965446.inp" -scrdir="/home/k0335/k033513/app/g09/scratch/"
 Default is to use a total of  36 processors:
                               36 via shared-memory
                                1 via Linda
 Entering Link 1 = /home/k0335/k033513/app/g09/l1.exe PID=   1965447.
  
 Copyright (c) 1988,1990,1992,1993,1995,1998,2003,2009,2013,
            Gaussian, Inc.  All Rights Reserved.
  
 This is part of the Gaussian(R) 09 program.  It is based on
 the Gaussian(R) 03 system (copyright 2003, Gaussian, Inc.),
 the Gaussian(R) 98 system (copyright 1998, Gaussian, Inc.),
 the Gaussian(R) 94 system (copyright 1995, Gaussian, Inc.),
 the Gaussian 92(TM) system (copyright 1992, Gaussian, Inc.),
 the Gaussian 90(TM) system (copyright 1990, Gaussian, Inc.),
 the Gaussian 88(TM) system (copyright 1988, Gaussian, Inc.),
 the Gaussian 86(TM) system (copyright 1986, Carnegie Mellon
 University), and the Gaussian 82(TM) system (copyright 1983,
 Carnegie Mellon University). Gaussian is a federally registered
 trademark of Gaussian, Inc.
  
 This software contains proprietary and confidential information,
 including trade secrets, belonging to Gaussian, Inc.
  
 This software is provided under written license and may be
 used, copied, transmitted, or stored only in accord with that
 written license.
  
 The following legend is applicable only to US Government
 contracts under FAR:
  
                    RESTRICTED RIGHTS LEGEND
  
 Use, reproduction and disclosure by the US Government is
 subject to restrictions as set forth in subparagraphs (a)
 and (c) of the Commercial Computer Software - Restricted
 Rights clause in FAR 52.227-19.
  
 Gaussian, Inc.
 340 Quinnipiac St., Bldg. 40, Wallingford CT 06492
  
  
 ---------------------------------------------------------------
 Warning -- This program may not be used in any manner that
 competes with the business of Gaussian, Inc. or will provide
 assistance to any competitor of Gaussian, Inc.  The licensee
 of this program is prohibited from giving any competitor of
 Gaussian, Inc. access to this program.  By using this program,
 the user acknowledges that Gaussian, Inc. is engaged in the
 business of creating and licensing software in the field of
 computational chemistry and represents and warrants to the
 licensee that it is not a competitor of Gaussian, Inc. and that
 it will not use this program in any manner prohibited above.
 ---------------------------------------------------------------
  

 Cite this work as:
 Gaussian 09, Revision D.01,
 M. J. Frisch, G. W. Trucks, H. B. Schlegel, G. E. Scuseria, 
 M. A. Robb, J. R. Cheeseman, G. Scalmani, V. Barone, B. Mennucci, 
 G. A. Petersson, H. Nakatsuji, M. Caricato, X. Li, H. P. Hratchian, 
 A. F. Izmaylov, J. Bloino, G. Zheng, J. L. Sonnenberg, M. Hada, 
 M. Ehara, K. Toyota, R. Fukuda, J. Hasegawa, M. Ishida, T. Nakajima, 
 Y. Honda, O. Kitao, H. Nakai, T. Vreven, J. A. Montgomery, Jr., 
 J. E. Peralta, F. Ogliaro, M. Bearpark, J. J. Heyd, E. Brothers, 
 K. N. Kudin, V. N. Staroverov, T. Keith, R. Kobayashi, J. Normand, 
 K. Raghavachari, A. Rendell, J. C. Burant, S. S. Iyengar, J. Tomasi, 
 M. Cossi, N. Rega, J. M. Millam, M. Klene, J. E. Knox, J. B. Cross, 
 V. Bakken, C. Adamo, J. Jaramillo, R. Gomperts, R. E. Stratmann, 
 O. Yazyev, A. J. Austin, R. Cammi, C. Pomelli, J. W. Ochterski, 
 R. L. Martin, K. Morokuma, V. G. Zakrzewski, G. A. Voth, 
 P. Salvador, J. J. Dannenberg, S. Dapprich, A. D. Daniels, 
 O. Farkas, J. B. Foresman, J. V. Ortiz, J. Cioslowski, 
 and D. J. Fox, Gaussian, Inc., Wallingford CT, 2013.
 
 ******************************************
 Gaussian 09:  ES64L-G09RevD.01 24-Apr-2013
                 2-Feb-2025 
 ******************************************
 %nprocshared=24
 Will use up to   24 processors via shared memory.
 %mem=40GB
 %rwf=opt/FFKM1/FFKM1_neu.rwf
 %nosave
 %chk=opt/FFKM1/FFKM1_neu.chk
 ----------------------------------------------------------------------
 #p CAM-B3LYP/6-31G(d,p) SCRF=(PCM,Solvent=Generic,Read) NoSymm out=wfn
 ----------------------------------------------------------------------
 1/38=1,40=2/1;
 2/12=2,15=1,17=6,18=5,40=1/2;
 3/5=1,6=6,7=101,11=2,16=1,25=1,30=1,70=2203,72=-2,74=-40/1,2,3;
 4//1;
 5/5=2,38=5/2;
 6/7=2,8=2,9=2,10=2,28=1/1;
 99/5=1,6=100,9=1/99;
 Leave Link    1 at Sun Feb  2 23:12:27 2025, MaxMem=  5368709120 cpu:         0.8
 (Enter /home/k0335/k033513/app/g09/l101.exe)
 ---------------
 Title FFKM1_neu
 ---------------
 Symbolic Z-matrix:
 Charge =  0 Multiplicity = 1
 F                    -3.19308   0.99259   0.98288 
 C                    -2.28448   1.31344   0.08327 
 F                    -2.73345   1.01734  -1.12386 
 F                    -1.98595   2.58625   0.16703 
 O                    -1.08615   0.62406   0.34115 
 C                    -1.0053   -0.69488   0.07106 
 F                    -0.91249  -0.97509  -1.22701 
 F                    -1.99821  -1.41225   0.59336 
 C                     0.29655  -1.21042   0.78035 
 F                     0.6134   -0.6501    1.8886 
 F                     0.42685  -2.48951   0.77794 
 C                     1.86989  -0.76218  -0.38568 
 F                     2.80416  -1.18349   0.39166 
 F                     1.66971  -1.49709  -1.41764 
 C                     1.86664   0.7869   -0.63546 
 F                     1.65835   1.41123   0.50472 
 F                     0.93144   1.07002  -1.51687 
 F                     3.0621    1.07317  -1.11368 
 
 NAtoms=     18 NQM=       18 NQMF=       0 NMMI=      0 NMMIF=      0
                NMic=       0 NMicF=      0.
                    Isotopes and Nuclear Properties:
 (Nuclear quadrupole moments (NQMom) in fm**2, nuclear magnetic moments (NMagM)
  in nuclear magnetons)

  Atom         1           2           3           4           5           6           7           8           9          10
 IAtWgt=          19          12          19          19          16          12          19          19          12          19
 AtmWgt=  18.9984033  12.0000000  18.9984033  18.9984033  15.9949146  12.0000000  18.9984033  18.9984033  12.0000000  18.9984033
 NucSpn=           1           0           1           1           0           0           1           1           0           1
 AtZEff=   0.0000000   0.0000000   0.0000000   0.0000000   0.0000000   0.0000000   0.0000000   0.0000000   0.0000000   0.0000000
 NQMom=    0.0000000   0.0000000   0.0000000   0.0000000   0.0000000   0.0000000   0.0000000   0.0000000   0.0000000   0.0000000
 NMagM=    2.6288670   0.0000000   2.6288670   2.6288670   0.0000000   0.0000000   2.6288670   2.6288670   0.0000000   2.6288670
 AtZNuc=   9.0000000   6.0000000   9.0000000   9.0000000   8.0000000   6.0000000   9.0000000   9.0000000   6.0000000   9.0000000

  Atom        11          12          13          14          15          16          17          18
 IAtWgt=          19          12          19          19          12          19          19          19
 AtmWgt=  18.9984033  12.0000000  18.9984033  18.9984033  12.0000000  18.9984033  18.9984033  18.9984033
 NucSpn=           1           0           1           1           0           1           1           1
 AtZEff=   0.0000000   0.0000000   0.0000000   0.0000000   0.0000000   0.0000000   0.0000000   0.0000000
 NQMom=    0.0000000   0.0000000   0.0000000   0.0000000   0.0000000   0.0000000   0.0000000   0.0000000
 NMagM=    2.6288670   0.0000000   2.6288670   2.6288670   0.0000000   2.6288670   2.6288670   2.6288670
 AtZNuc=   9.0000000   6.0000000   9.0000000   9.0000000   6.0000000   9.0000000   9.0000000   9.0000000
 Leave Link  101 at Sun Feb  2 23:12:27 2025, MaxMem=  5368709120 cpu:         0.6
 (Enter /home/k0335/k033513/app/g09/l202.exe)
                          Input orientation:                          
 ---------------------------------------------------------------------
 Center     Atomic      Atomic             Coordinates (Angstroms)
 Number     Number       Type             X           Y           Z
 ---------------------------------------------------------------------
      1          9           0       -3.193080    0.992590    0.982880
      2          6           0       -2.284480    1.313440    0.083270
      3          9           0       -2.733450    1.017340   -1.123860
      4          9           0       -1.985950    2.586250    0.167030
      5          8           0       -1.086150    0.624060    0.341150
      6          6           0       -1.005300   -0.694880    0.071060
      7          9           0       -0.912490   -0.975090   -1.227010
      8          9           0       -1.998210   -1.412250    0.593360
      9          6           0        0.296550   -1.210420    0.780350
     10          9           0        0.613400   -0.650100    1.888600
     11          9           0        0.426850   -2.489510    0.777940
     12          6           0        1.869890   -0.762180   -0.385680
     13          9           0        2.804160   -1.183490    0.391660
     14          9           0        1.669710   -1.497090   -1.417640
     15          6           0        1.866640    0.786900   -0.635460
     16          9           0        1.658350    1.411230    0.504720
     17          9           0        0.931440    1.070020   -1.516870
     18          9           0        3.062100    1.073170   -1.113680
 ---------------------------------------------------------------------
                    Distance matrix (angstroms):
                    1          2          3          4          5
     1  F    0.000000
     2  C    1.318255   0.000000
     3  F    2.156438   1.321519   0.000000
     4  F    2.159288   1.310031   2.164863   0.000000
     5  O    2.233111   1.406322   2.239313   2.165675   0.000000
     6  C    2.909528   2.381134   2.710357   3.425887   1.348736
     7  F    3.735836   2.972635   2.701169   3.972255   2.246456
     8  F    2.713429   2.787746   3.064691   4.021183   2.245445
     9  C    4.131802   3.676616   4.215428   4.472211   2.338819
    10  F    4.243589   3.938580   4.801737   4.493816   2.628033
    11  F    5.027018   4.721896   5.089434   5.653154   3.489165
    12  C    5.530447   4.667644   4.990224   5.136631   3.344864
    13  F    6.407164   5.676621   6.148624   6.099717   4.290023
    14  F    5.967221   5.078132   5.079024   5.705146   3.897099
    15  C    5.316211   4.245658   4.631681   4.327135   3.114362
    16  F    4.892879   3.966496   4.700567   3.843908   2.859838
    17  F    4.823527   3.600256   3.686279   3.694000   2.778811
    18  F    6.597676   5.484190   5.795828   5.423324   4.418847
                    6          7          8          9         10
     6  C    0.000000
     7  F    1.331209   0.000000
     8  F    1.331648   2.164173   0.000000
     9  C    1.569614   2.355133   2.311195   0.000000
    10  F    2.434265   3.484392   3.013142   1.281628   0.000000
    11  F    2.402380   2.847301   2.659976   1.285712   2.156802
    12  C    2.912020   2.914585   4.042686   2.008966   2.600707
    13  F    3.854025   4.059188   4.812044   2.537698   2.706430
    14  F    3.164719   2.641322   4.183892   2.607472   3.572731
    15  C    3.308003   3.343367   4.613385   2.908434   3.163299
    16  F    3.423272   3.911858   4.620641   2.967073   2.693720
    17  F    3.063879   2.768857   4.381505   3.298592   3.828471
    18  F    4.590572   4.472760   5.890504   4.055909   4.240221
                   11         12         13         14         15
    11  F    0.000000
    12  C    2.533781   0.000000
    13  F    2.739800   1.286320   0.000000
    14  F    2.711120   1.282617   2.158446   0.000000
    15  C    3.847799   1.569092   2.411712   2.422230   0.000000
    16  F    4.099636   2.358235   2.838703   3.486248   1.316504
    17  F    4.265093   2.348880   3.496838   2.673003   1.315918
    18  F    4.818242   2.306482   2.724903   2.938942   1.319003
                   16         17         18
    16  F    0.000000
    17  F    2.175235   0.000000
    18  F    2.168875   2.168475   0.000000
 Symmetry turned off by external request.
 Stoichiometry    C5F12O
 Framework group  C1[X(C5F12O)]
 Deg. of freedom    48
 Full point group                 C1      NOp   1
 Rotational constants (GHZ):      0.6473510      0.3482728      0.2894876
 Leave Link  202 at Sun Feb  2 23:12:27 2025, MaxMem=  5368709120 cpu:         0.0
 (Enter /home/k0335/k033513/app/g09/l301.exe)
 Standard basis: 6-31G(d,p) (6D, 7F)
 Ernie: Thresh=  0.10000D-02 Tol=  0.10000D-05 Strict=F.
   270 basis functions,   504 primitive gaussians,   270 cartesian basis functions
    73 alpha electrons       73 beta electrons
       nuclear repulsion energy      1794.2447269015 Hartrees.
 IExCor=20419 DFT=T Ex+Corr=CAM-B3LYP ExCW=0 ScaHFX=  1.000000
 ScaDFX=  1.000000  1.000000  1.000000  0.810000 ScalE2=  1.000000  1.000000
 IRadAn=      0 IRanWt=     -1 IRanGd=            0 ICorTp=0 IEmpDi=  4
  HFx wShort=  0.000000 wLong=  0.330000 cFull=  0.190000 cShort=  0.000000 cLong=  0.460000
  DFx wShort=  0.000000 wLong=  0.330000 cFull=  0.190000 cShort=  0.000000 cLong=  0.460000
 NAtoms=   18 NActive=   18 NUniq=   18 SFac= 1.00D+00 NAtFMM=   60 NAOKFM=F Big=F
 Integral buffers will be    131072 words long.
 Raffenetti 2 integral format.
 Two-electron integral symmetry is turned off.
 Using the following non-standard input for PCM:
 eps=4.9
 --- end of non-standard input.
 ------------------------------------------------------------------------------
 Polarizable Continuum Model (PCM)
 =================================
 Model                : PCM (using non-symmetric T matrix).
 Atomic radii         : UFF (Universal Force Field).
 Polarization charges : Total charges.
 Charge compensation  : None.
 Solution method      : On-the-fly selection.
 Cavity type          : Scaled VdW (van der Waals Surface) (Alpha=1.100).
 Cavity algorithm     : GePol (No added spheres)
                        Default sphere list used, NSphG=   18.
                        Lebedev-Laikov grids with approx.  5.0 points / Ang**2.
                        Smoothing algorithm: Karplus/York (Gamma=1.0000).
                        Polarization charges: spherical gaussians, with
                                              point-specific exponents (IZeta= 3).
                        Self-potential: point-specific (ISelfS= 7).
                        Self-field    : sphere-specific E.n sum rule (ISelfD= 2).
 Solvent              : Generic,
                        Eps                           =   4.900000
                        Eps(infinity)                 =   0.000000
                        RSolv                         =   0.000000 Ang.
                        Molar volume                  =   0.000000 cm**3/mol
                        Thermal expansion coefficient =   0.000000 K**-1
                        Absolute temperature          = 298.150000 K
                        Numeral density               =   0.000000 Ang**-3
                        Hydrogen bond acidity         =   0.000000
                        Hydrogen bond basicity        =   0.000000
                        Surface tension at interface  =   0.000000 (cal/mol)*Ang**-2
                        Carbon aromaticity            =   0.000000
                        Electronegative halogenicity  =   0.000000
 ------------------------------------------------------------------------------
 Spheres list:
 ISph  on   Nord     Re0    Alpha      Xe            Ye            Ze
    1   F      1    1.6820  1.100     -3.193080      0.992590      0.982880
    2   C      2    1.9255  1.100     -2.284480      1.313440      0.083270
    3   F      3    1.6820  1.100     -2.733450      1.017340     -1.123860
    4   F      4    1.6820  1.100     -1.985950      2.586250      0.167030
    5   O      5    1.7500  1.100     -1.086150      0.624060      0.341150
    6   C      6    1.9255  1.100     -1.005300     -0.694880      0.071060
    7   F      7    1.6820  1.100     -0.912490     -0.975090     -1.227010
    8   F      8    1.6820  1.100     -1.998210     -1.412250      0.593360
    9   C      9    1.9255  1.100      0.296550     -1.210420      0.780350
   10   F     10    1.6820  1.100      0.613400     -0.650100      1.888600
   11   F     11    1.6820  1.100      0.426850     -2.489510      0.777940
   12   C     12    1.9255  1.100      1.869890     -0.762180     -0.385680
   13   F     13    1.6820  1.100      2.804160     -1.183490      0.391660
   14   F     14    1.6820  1.100      1.669710     -1.497090     -1.417640
   15   C     15    1.9255  1.100      1.866640      0.786900     -0.635460
   16   F     16    1.6820  1.100      1.658350      1.411230      0.504720
   17   F     17    1.6820  1.100      0.931440      1.070020     -1.516870
   18   F     18    1.6820  1.100      3.062100      1.073170     -1.113680
 ------------------------------------------------------------------------------
 GePol: Number of generator spheres                  =      18
 GePol: Total number of spheres                      =      18
 GePol: Number of exposed spheres                    =      18 (100.00%)
 GePol: Number of points                             =    1903
 GePol: Average weight of points                     =       0.12
 GePol: Minimum weight of points                     =   0.27D-10
 GePol: Maximum weight of points                     =    0.20298
 GePol: Number of points with low weight             =      76
 GePol: Fraction of low-weight points (<1% of avg)   =       3.99%
 GePol: Cavity surface area                          =    235.211 Ang**2
 GePol: Cavity volume                                =    243.940 Ang**3
 Leave Link  301 at Sun Feb  2 23:12:27 2025, MaxMem=  5368709120 cpu:         0.6
 (Enter /home/k0335/k033513/app/g09/l302.exe)
 NPDir=0 NMtPBC=     1 NCelOv=     1 NCel=       1 NClECP=     1 NCelD=      1
         NCelK=      1 NCelE2=     1 NClLst=     1 CellRange=     0.0.
 One-electron integrals computed using PRISM.
 NBasis=   270 RedAO= T EigKep=  1.44D-03  NBF=   270
 NBsUse=   270 1.00D-06 EigRej= -1.00D+00 NBFU=   270
 Precomputing XC quadrature grid using
 IXCGrd= 4 IRadAn=           0 IRanWt=          -1 IRanGd=           0 AccXCQ= 0.00D+00.
 Generated NRdTot=       0 NPtTot=           0 NUsed=           0 NTot=          32
 NSgBfM=   268   268   268   268   268 MxSgAt=    18 MxSgA2=    18.
 Leave Link  302 at Sun Feb  2 23:12:28 2025, MaxMem=  5368709120 cpu:         4.1
 (Enter /home/k0335/k033513/app/g09/l303.exe)
 DipDrv:  MaxL=1.
 Leave Link  303 at Sun Feb  2 23:12:28 2025, MaxMem=  5368709120 cpu:         0.3
 (Enter /home/k0335/k033513/app/g09/l401.exe)
 ExpMin= 1.69D-01 ExpMax= 7.00D+03 ExpMxC= 1.05D+03 IAcc=1 IRadAn=         1 AccDes= 0.00D+00
 Harris functional with IExCor=20419 and IRadAn=       1 diagonalized for initial guess.
 HarFok:  IExCor=20419 AccDes= 0.00D+00 IRadAn=         1 IDoV= 1 UseB2=F ITyADJ=14
 ICtDFT=  3500011 ScaDFX=  1.000000  1.000000  1.000000  1.000000
 FoFCou: FMM=F IPFlag=           0 FMFlag=      100000 FMFlg1=           0
         NFxFlg=           0 DoJE=T BraDBF=F KetDBF=T FulRan=T
         wScrn=  0.000000 ICntrl=     500 IOpCl=  0 I1Cent=   200000004 NGrid=           0
         NMat0=    1 NMatS0=      1 NMatT0=    0 NMatD0=    1 NMtDS0=    0 NMtDT0=    0
 Symmetry not used in FoFCou.
 Harris En= -1421.48860606208    
 JPrj=0 DoOrth=F DoCkMO=F.
 Leave Link  401 at Sun Feb  2 23:12:29 2025, MaxMem=  5368709120 cpu:         3.6
 (Enter /home/k0335/k033513/app/g09/l502.exe)
 Closed shell SCF:
 Using DIIS extrapolation, IDIIS=  1040.
 Two-electron integral symmetry not used.
 Keep R1 ints in memory in canonical form, NReq=1348695316.
 IVT=      245386 IEndB=      245386 NGot=  5368709120 MDV=  4029964925
 LenX=  4029964925 LenY=  4029891584
 Requested convergence on RMS density matrix=1.00D-08 within 128 cycles.
 Requested convergence on MAX density matrix=1.00D-06.
 Requested convergence on             energy=1.00D-06.
 No special actions if energy rises.
 FoFCou: FMM=F IPFlag=           0 FMFlag=           0 FMFlg1=           0
         NFxFlg=           0 DoJE=F BraDBF=F KetDBF=F FulRan=T
         wScrn=  0.000000 ICntrl=     600 IOpCl=  0 I1Cent=           0 NGrid=           0
         NMat0=    1 NMatS0=  36585 NMatT0=    0 NMatD0=    1 NMtDS0=    0 NMtDT0=    0
 Symmetry not used in FoFCou.

 Cycle   1  Pass 1  IDiag  1:
 Inv3:  Mode=1 IEnd=    10864227.
 Iteration    1 A*A^-1 deviation from unit magnitude is 4.00D-15 for   1899.
 Iteration    1 A*A^-1 deviation from orthogonality  is 4.93D-15 for   1891    278.
 Iteration    1 A^-1*A deviation from unit magnitude is 3.89D-15 for   1899.
 Iteration    1 A^-1*A deviation from orthogonality  is 2.90D-14 for   1407   1358.
 E= -1462.94975868481    
 DIIS: error= 4.28D-02 at cycle   1 NSaved=   1.
 NSaved= 1 IEnMin= 1 EnMin= -1462.94975868481     IErMin= 1 ErrMin= 4.28D-02
 ErrMax= 4.28D-02  0.00D+00 EMaxC= 1.00D-01 BMatC= 1.18D+00 BMatP= 1.18D+00
 IDIUse=3 WtCom= 5.72D-01 WtEn= 4.28D-01
 Coeff-Com:  0.100D+01
 Coeff-En:   0.100D+01
 Coeff:      0.100D+01
 Gap=     0.394 Goal=   None    Shift=    0.000
 GapD=    0.394 DampG=1.000 DampE=0.500 DampFc=0.5000 IDamp=-1.
 Damping current iteration by 5.00D-01
 RMSDP=4.14D-03 MaxDP=8.48D-02              OVMax= 9.05D-02

 Cycle   2  Pass 1  IDiag  1:
 E= -1463.18412255925     Delta-E=       -0.234363874441 Rises=F Damp=T
 DIIS: error= 1.86D-02 at cycle   2 NSaved=   2.
 NSaved= 2 IEnMin= 2 EnMin= -1463.18412255925     IErMin= 2 ErrMin= 1.86D-02
 ErrMax= 1.86D-02  0.00D+00 EMaxC= 1.00D-01 BMatC= 1.31D-01 BMatP= 1.18D+00
 IDIUse=3 WtCom= 8.14D-01 WtEn= 1.86D-01
 Coeff-Com: -0.255D+00 0.126D+01
 Coeff-En:   0.000D+00 0.100D+01
 Coeff:     -0.208D+00 0.121D+01
 Gap=     0.381 Goal=   None    Shift=    0.000
 RMSDP=1.18D-03 MaxDP=2.79D-02 DE=-2.34D-01 OVMax= 5.72D-02

 Cycle   3  Pass 1  IDiag  1:
 E= -1463.37447212754     Delta-E=       -0.190349568283 Rises=F Damp=F
 DIIS: error= 7.25D-03 at cycle   3 NSaved=   3.
 NSaved= 3 IEnMin= 3 EnMin= -1463.37447212754     IErMin= 3 ErrMin= 7.25D-03
 ErrMax= 7.25D-03  0.00D+00 EMaxC= 1.00D-01 BMatC= 3.95D-02 BMatP= 1.31D-01
 IDIUse=3 WtCom= 9.28D-01 WtEn= 7.25D-02
 Coeff-Com: -0.174D+00 0.517D+00 0.657D+00
 Coeff-En:   0.000D+00 0.000D+00 0.100D+01
 Coeff:     -0.161D+00 0.480D+00 0.682D+00
 Gap=     0.386 Goal=   None    Shift=    0.000
 RMSDP=6.22D-04 MaxDP=1.75D-02 DE=-1.90D-01 OVMax= 2.41D-02

 Cycle   4  Pass 1  IDiag  1:
 E= -1463.39728911083     Delta-E=       -0.022816983299 Rises=F Damp=F
 DIIS: error= 2.17D-03 at cycle   4 NSaved=   4.
 NSaved= 4 IEnMin= 4 EnMin= -1463.39728911083     IErMin= 4 ErrMin= 2.17D-03
 ErrMax= 2.17D-03  0.00D+00 EMaxC= 1.00D-01 BMatC= 3.63D-03 BMatP= 3.95D-02
 IDIUse=3 WtCom= 9.78D-01 WtEn= 2.17D-02
 Coeff-Com: -0.343D-01 0.720D-01 0.283D+00 0.679D+00
 Coeff-En:   0.000D+00 0.000D+00 0.156D-01 0.984D+00
 Coeff:     -0.336D-01 0.704D-01 0.277D+00 0.686D+00
 Gap=     0.381 Goal=   None    Shift=    0.000
 RMSDP=1.68D-04 MaxDP=7.23D-03 DE=-2.28D-02 OVMax= 7.13D-03

 Cycle   5  Pass 1  IDiag  1:
 E= -1463.39978915667     Delta-E=       -0.002500045833 Rises=F Damp=F
 DIIS: error= 3.37D-04 at cycle   5 NSaved=   5.
 NSaved= 5 IEnMin= 5 EnMin= -1463.39978915667     IErMin= 5 ErrMin= 3.37D-04
 ErrMax= 3.37D-04  0.00D+00 EMaxC= 1.00D-01 BMatC= 5.93D-05 BMatP= 3.63D-03
 IDIUse=3 WtCom= 9.97D-01 WtEn= 3.37D-03
 Coeff-Com: -0.125D-01 0.241D-01 0.118D+00 0.311D+00 0.560D+00
 Coeff-En:   0.000D+00 0.000D+00 0.000D+00 0.000D+00 0.100D+01
 Coeff:     -0.125D-01 0.240D-01 0.117D+00 0.310D+00 0.562D+00
 Gap=     0.381 Goal=   None    Shift=    0.000
 RMSDP=2.25D-05 MaxDP=1.43D-03 DE=-2.50D-03 OVMax= 1.23D-03

 Cycle   6  Pass 1  IDiag  1:
 E= -1463.39982704365     Delta-E=       -0.000037886981 Rises=F Damp=F
 DIIS: error= 7.22D-05 at cycle   6 NSaved=   6.
 NSaved= 6 IEnMin= 6 EnMin= -1463.39982704365     IErMin= 6 ErrMin= 7.22D-05
 ErrMax= 7.22D-05  0.00D+00 EMaxC= 1.00D-01 BMatC= 3.20D-06 BMatP= 5.93D-05
 IDIUse=1 WtCom= 1.00D+00 WtEn= 0.00D+00
 Coeff-Com:  0.161D-02-0.391D-02-0.576D-02-0.905D-02 0.162D+00 0.855D+00
 Coeff:      0.161D-02-0.391D-02-0.576D-02-0.905D-02 0.162D+00 0.855D+00
 Gap=     0.381 Goal=   None    Shift=    0.000
 RMSDP=7.17D-06 MaxDP=3.36D-04 DE=-3.79D-05 OVMax= 3.58D-04

 Cycle   7  Pass 1  IDiag  1:
 E= -1463.39982960951     Delta-E=       -0.000002565864 Rises=F Damp=F
 DIIS: error= 1.73D-05 at cycle   7 NSaved=   7.
 NSaved= 7 IEnMin= 7 EnMin= -1463.39982960951     IErMin= 7 ErrMin= 1.73D-05
 ErrMax= 1.73D-05  0.00D+00 EMaxC= 1.00D-01 BMatC= 3.08D-07 BMatP= 3.20D-06
 IDIUse=1 WtCom= 1.00D+00 WtEn= 0.00D+00
 Coeff-Com:  0.146D-02-0.311D-02-0.980D-02-0.240D-01 0.252D-01 0.331D+00
 Coeff-Com:  0.679D+00
 Coeff:      0.146D-02-0.311D-02-0.980D-02-0.240D-01 0.252D-01 0.331D+00
 Coeff:      0.679D+00
 Gap=     0.381 Goal=   None    Shift=    0.000
 RMSDP=2.22D-06 MaxDP=7.72D-05 DE=-2.57D-06 OVMax= 1.16D-04

 Cycle   8  Pass 1  IDiag  1:
 E= -1463.39982984235     Delta-E=       -0.000000232836 Rises=F Damp=F
 DIIS: error= 4.72D-06 at cycle   8 NSaved=   8.
 NSaved= 8 IEnMin= 8 EnMin= -1463.39982984235     IErMin= 8 ErrMin= 4.72D-06
 ErrMax= 4.72D-06  0.00D+00 EMaxC= 1.00D-01 BMatC= 1.58D-08 BMatP= 3.08D-07
 IDIUse=1 WtCom= 1.00D+00 WtEn= 0.00D+00
 Coeff-Com:  0.394D-03-0.797D-03-0.303D-02-0.792D-02-0.390D-02 0.493D-01
 Coeff-Com:  0.222D+00 0.744D+00
 Coeff:      0.394D-03-0.797D-03-0.303D-02-0.792D-02-0.390D-02 0.493D-01
 Coeff:      0.222D+00 0.744D+00
 Gap=     0.381 Goal=   None    Shift=    0.000
 RMSDP=5.50D-07 MaxDP=2.03D-05 DE=-2.33D-07 OVMax= 3.75D-05

 Cycle   9  Pass 1  IDiag  1:
 E= -1463.39982985474     Delta-E=       -0.000000012395 Rises=F Damp=F
 DIIS: error= 1.74D-06 at cycle   9 NSaved=   9.
 NSaved= 9 IEnMin= 9 EnMin= -1463.39982985474     IErMin= 9 ErrMin= 1.74D-06
 ErrMax= 1.74D-06  0.00D+00 EMaxC= 1.00D-01 BMatC= 2.42D-09 BMatP= 1.58D-08
 IDIUse=1 WtCom= 1.00D+00 WtEn= 0.00D+00
 Coeff-Com:  0.162D-04-0.158D-04-0.308D-03-0.100D-02-0.433D-02-0.133D-01
 Coeff-Com:  0.254D-01 0.320D+00 0.674D+00
 Coeff:      0.162D-04-0.158D-04-0.308D-03-0.100D-02-0.433D-02-0.133D-01
 Coeff:      0.254D-01 0.320D+00 0.674D+00
 Gap=     0.381 Goal=   None    Shift=    0.000
 RMSDP=1.88D-07 MaxDP=7.89D-06 DE=-1.24D-08 OVMax= 1.34D-05

 Cycle  10  Pass 1  IDiag  1:
 E= -1463.39982985662     Delta-E=       -0.000000001879 Rises=F Damp=F
 DIIS: error= 3.53D-07 at cycle  10 NSaved=  10.
 NSaved=10 IEnMin=10 EnMin= -1463.39982985662     IErMin=10 ErrMin= 3.53D-07
 ErrMax= 3.53D-07  0.00D+00 EMaxC= 1.00D-01 BMatC= 1.07D-10 BMatP= 2.42D-09
 IDIUse=1 WtCom= 1.00D+00 WtEn= 0.00D+00
 Coeff-Com: -0.351D-04 0.763D-04 0.204D-03 0.487D-03-0.861D-03-0.895D-02
 Coeff-Com: -0.133D-01 0.263D-01 0.199D+00 0.797D+00
 Coeff:     -0.351D-04 0.763D-04 0.204D-03 0.487D-03-0.861D-03-0.895D-02
 Coeff:     -0.133D-01 0.263D-01 0.199D+00 0.797D+00
 Gap=     0.381 Goal=   None    Shift=    0.000
 RMSDP=4.97D-08 MaxDP=2.17D-06 DE=-1.88D-09 OVMax= 3.04D-06

 Cycle  11  Pass 1  IDiag  1:
 E= -1463.39982985670     Delta-E=       -0.000000000076 Rises=F Damp=F
 DIIS: error= 6.77D-08 at cycle  11 NSaved=  11.
 NSaved=11 IEnMin=11 EnMin= -1463.39982985670     IErMin=11 ErrMin= 6.77D-08
 ErrMax= 6.77D-08  0.00D+00 EMaxC= 1.00D-01 BMatC= 5.99D-12 BMatP= 1.07D-10
 IDIUse=1 WtCom= 1.00D+00 WtEn= 0.00D+00
 Coeff-Com: -0.110D-04 0.230D-04 0.735D-04 0.193D-03-0.419D-04-0.203D-02
 Coeff-Com: -0.463D-02-0.510D-02 0.305D-01 0.234D+00 0.747D+00
 Coeff:     -0.110D-04 0.230D-04 0.735D-04 0.193D-03-0.419D-04-0.203D-02
 Coeff:     -0.463D-02-0.510D-02 0.305D-01 0.234D+00 0.747D+00
 Gap=     0.381 Goal=   None    Shift=    0.000
 RMSDP=1.17D-08 MaxDP=3.55D-07 DE=-7.59D-11 OVMax= 8.84D-07

 Cycle  12  Pass 1  IDiag  1:
 E= -1463.39982985668     Delta-E=        0.000000000016 Rises=F Damp=F
 DIIS: error= 3.27D-08 at cycle  12 NSaved=  12.
 NSaved=12 IEnMin=11 EnMin= -1463.39982985670     IErMin=12 ErrMin= 3.27D-08
 ErrMax= 3.27D-08  0.00D+00 EMaxC= 1.00D-01 BMatC= 1.28D-12 BMatP= 5.99D-12
 IDIUse=1 WtCom= 1.00D+00 WtEn= 0.00D+00
 Coeff-Com: -0.141D-05 0.260D-05 0.129D-04 0.402D-04 0.787D-04 0.675D-05
 Coeff-Com: -0.759D-03-0.509D-02-0.745D-02 0.189D-01 0.334D+00 0.660D+00
 Coeff:     -0.141D-05 0.260D-05 0.129D-04 0.402D-04 0.787D-04 0.675D-05
 Coeff:     -0.759D-03-0.509D-02-0.745D-02 0.189D-01 0.334D+00 0.660D+00
 Gap=     0.381 Goal=   None    Shift=    0.000
 RMSDP=4.48D-09 MaxDP=1.69D-07 DE= 1.64D-11 OVMax= 3.22D-07

 Error on total polarization charges =  0.00057
 SCF Done:  E(RCAM-B3LYP) =  -1463.39982986     A.U. after   12 cycles
            NFock= 12  Conv=0.45D-08     -V/T= 2.0064
 KE= 1.454083903618D+03 PE=-7.061353174041D+03 EE= 2.349624713665D+03
 Leave Link  502 at Sun Feb  2 23:12:42 2025, MaxMem=  5368709120 cpu:       163.0
 (Enter /home/k0335/k033513/app/g09/l601.exe)
 Copying SCF densities to generalized density rwf, IOpCl= 0 IROHF=0.

 **********************************************************************

            Population analysis using the SCF density.

 **********************************************************************

 Alpha  occ. eigenvalues --  -24.83984 -24.83934 -24.83664 -24.83047 -24.82920
 Alpha  occ. eigenvalues --  -24.82710 -24.82679 -24.82586 -24.82556 -24.82286
 Alpha  occ. eigenvalues --  -24.82277 -24.82131 -19.31556 -10.59416 -10.53303
 Alpha  occ. eigenvalues --  -10.51944 -10.45808 -10.45677  -1.44787  -1.42917
 Alpha  occ. eigenvalues --   -1.41073  -1.39730  -1.38922  -1.34773  -1.34425
 Alpha  occ. eigenvalues --   -1.34354  -1.33834  -1.33251  -1.33096  -1.32371
 Alpha  occ. eigenvalues --   -1.21267  -0.88703  -0.84999  -0.80309  -0.76633
 Alpha  occ. eigenvalues --   -0.75621  -0.72688  -0.71882  -0.71202  -0.70521
 Alpha  occ. eigenvalues --   -0.69701  -0.69535  -0.68609  -0.67766  -0.66456
 Alpha  occ. eigenvalues --   -0.66175  -0.65456  -0.60633  -0.58613  -0.57442
 Alpha  occ. eigenvalues --   -0.57313  -0.56934  -0.56559  -0.55952  -0.55692
 Alpha  occ. eigenvalues --   -0.55021  -0.53911  -0.53834  -0.53483  -0.53272
 Alpha  occ. eigenvalues --   -0.52723  -0.52326  -0.51854  -0.51080  -0.50675
 Alpha  occ. eigenvalues --   -0.50539  -0.50355  -0.49618  -0.48426  -0.46529
 Alpha  occ. eigenvalues --   -0.45178  -0.44613  -0.31619
 Alpha virt. eigenvalues --    0.06512   0.15355   0.17556   0.19689   0.21707
 Alpha virt. eigenvalues --    0.22622   0.23194   0.24660   0.25105   0.25855
 Alpha virt. eigenvalues --    0.28178   0.30462   0.30994   0.33391   0.34112
 Alpha virt. eigenvalues --    0.38391   0.40868   0.47726   0.49047   0.51110
 Alpha virt. eigenvalues --    0.51933   0.52893   0.54034   0.55437   0.55937
 Alpha virt. eigenvalues --    0.57503   0.58449   0.62925   0.64431   0.65645
 Alpha virt. eigenvalues --    0.71545   0.73916   0.75376   0.87695   0.90419
 Alpha virt. eigenvalues --    0.91729   0.95753   0.99995   1.03273   1.05014
 Alpha virt. eigenvalues --    1.07574   1.08372   1.10271   1.10939   1.11804
 Alpha virt. eigenvalues --    1.12565   1.13562   1.14069   1.15406   1.17094
 Alpha virt. eigenvalues --    1.18816   1.21989   1.23091   1.26617   1.28177
 Alpha virt. eigenvalues --    1.31480   1.32597   1.32648   1.33468   1.34051
 Alpha virt. eigenvalues --    1.35175   1.36316   1.37145   1.37575   1.37755
 Alpha virt. eigenvalues --    1.39085   1.39992   1.40195   1.40212   1.41099
 Alpha virt. eigenvalues --    1.41440   1.43063   1.44111   1.45864   1.46423
 Alpha virt. eigenvalues --    1.46637   1.47714   1.49618   1.51021   1.51330
 Alpha virt. eigenvalues --    1.52380   1.53635   1.54394   1.57144   1.59025
 Alpha virt. eigenvalues --    1.64158   1.65998   1.67027   1.69579   1.71286
 Alpha virt. eigenvalues --    1.71595   1.72631   1.75339   1.76584   1.77080
 Alpha virt. eigenvalues --    1.80157   1.80573   1.84596   1.85020   1.85591
 Alpha virt. eigenvalues --    1.86195   1.86604   1.87199   1.87906   1.88348
 Alpha virt. eigenvalues --    1.88431   1.89379   1.90277   1.91189   1.91362
 Alpha virt. eigenvalues --    1.94314   1.97007   1.97617   1.99728   2.00044
 Alpha virt. eigenvalues --    2.02080   2.02610   2.03450   2.04466   2.04751
 Alpha virt. eigenvalues --    2.04872   2.05683   2.06114   2.08773   2.09281
 Alpha virt. eigenvalues --    2.10485   2.10741   2.12735   2.16540   2.17229
 Alpha virt. eigenvalues --    2.17731   2.18643   2.21645   2.24042   2.27700
 Alpha virt. eigenvalues --    2.28103   2.31591   2.34683   2.38206   2.39486
 Alpha virt. eigenvalues --    2.40561   2.43241   2.46202   2.48225   2.50178
 Alpha virt. eigenvalues --    2.51941   2.52828   2.55799   2.57799   2.58751
 Alpha virt. eigenvalues --    2.63003   2.65416   2.65655   2.68754   2.72339
 Alpha virt. eigenvalues --    2.77624   2.81432   2.82224   2.85677   2.90733
 Alpha virt. eigenvalues --    2.91662   2.93926   2.97967   3.00252   3.04240
 Alpha virt. eigenvalues --    3.07090   3.08055   3.09092   3.10676   3.12215
 Alpha virt. eigenvalues --    3.12667   3.14423   3.15375   3.17331   3.21181
 Alpha virt. eigenvalues --    3.22229   3.24462   3.25025   3.27355   4.09162
 Alpha virt. eigenvalues --    4.16326   4.33272   4.39203   4.42709   4.49553
 Alpha virt. eigenvalues --    4.58468   4.69374   4.78747   4.83081   4.98837
 Alpha virt. eigenvalues --    5.26953   5.32882   5.56271   5.66300   5.76004
 Alpha virt. eigenvalues --    5.95195   6.02201
          Condensed to atoms (all electrons):
               1          2          3          4          5          6
     1  F    9.017065   0.338487  -0.040423  -0.039880  -0.049619  -0.000669
     2  C    0.338487   3.780012   0.315325   0.353394   0.234287   0.007672
     3  F   -0.040423   0.315325   9.032831  -0.037854  -0.049865   0.013215
     4  F   -0.039880   0.353394  -0.037854   8.988589  -0.046722  -0.000001
     5  O   -0.049619   0.234287  -0.049865  -0.046722   8.399218   0.152978
     6  C   -0.000669   0.007672   0.013215  -0.000001   0.152978   4.423314
     7  F   -0.000008  -0.001879  -0.000139  -0.000008  -0.043885   0.283103
     8  F    0.000048   0.008396  -0.001056  -0.000005  -0.045741   0.254632
     9  C   -0.000254  -0.000244   0.000155  -0.000061  -0.043569   0.208763
    10  F    0.000001   0.000059   0.000000   0.000000   0.003295  -0.026984
    11  F    0.000000   0.000004   0.000000   0.000000   0.000757  -0.024079
    12  C    0.000000  -0.000140   0.000000   0.000002  -0.000883  -0.044169
    13  F    0.000000   0.000000   0.000000   0.000000   0.000005   0.001304
    14  F    0.000000   0.000002   0.000000   0.000000   0.000004   0.001144
    15  C    0.000002   0.000361  -0.000005   0.000011   0.004288   0.001474
    16  F    0.000000   0.000115   0.000000  -0.000005   0.000780  -0.002239
    17  F    0.000000   0.001554  -0.000030  -0.000036  -0.002477   0.008284
    18  F    0.000000   0.000001   0.000000   0.000000  -0.000001  -0.000021
               7          8          9         10         11         12
     1  F   -0.000008   0.000048  -0.000254   0.000001   0.000000   0.000000
     2  C   -0.001879   0.008396  -0.000244   0.000059   0.000004  -0.000140
     3  F   -0.000139  -0.001056   0.000155   0.000000   0.000000   0.000000
     4  F   -0.000008  -0.000005  -0.000061   0.000000   0.000000   0.000002
     5  O   -0.043885  -0.045741  -0.043569   0.003295   0.000757  -0.000883
     6  C    0.283103   0.254632   0.208763  -0.026984  -0.024079  -0.044169
     7  F    9.078938  -0.039997  -0.035123   0.000359   0.000174   0.005753
     8  F   -0.039997   9.099997  -0.020823  -0.000002   0.000642   0.000819
     9  C   -0.035123  -0.020823   4.767400   0.244586   0.255730   0.302269
    10  F    0.000359  -0.000002   0.244586   9.044424  -0.033057  -0.029586
    11  F    0.000174   0.000642   0.255730  -0.033057   9.040257  -0.022155
    12  C    0.005753   0.000819   0.302269  -0.029586  -0.022155   4.803252
    13  F    0.000007   0.000000  -0.022527   0.002461   0.001699   0.247041
    14  F    0.000708  -0.000006  -0.029017   0.000293   0.002405   0.238856
    15  C   -0.001491  -0.000015  -0.041531   0.001499   0.001137   0.215684
    16  F    0.000007   0.000000   0.005466   0.000748   0.000006  -0.037704
    17  F    0.000164   0.000000  -0.002757   0.000001   0.000001  -0.032996
    18  F    0.000000   0.000000   0.000854  -0.000004   0.000000  -0.025736
              13         14         15         16         17         18
     1  F    0.000000   0.000000   0.000002   0.000000   0.000000   0.000000
     2  C    0.000000   0.000002   0.000361   0.000115   0.001554   0.000001
     3  F    0.000000   0.000000  -0.000005   0.000000  -0.000030   0.000000
     4  F    0.000000   0.000000   0.000011  -0.000005  -0.000036   0.000000
     5  O    0.000005   0.000004   0.004288   0.000780  -0.002477  -0.000001
     6  C    0.001304   0.001144   0.001474  -0.002239   0.008284  -0.000021
     7  F    0.000007   0.000708  -0.001491   0.000007   0.000164   0.000000
     8  F    0.000000  -0.000006  -0.000015   0.000000   0.000000   0.000000
     9  C   -0.022527  -0.029017  -0.041531   0.005466  -0.002757   0.000854
    10  F    0.002461   0.000293   0.001499   0.000748   0.000001  -0.000004
    11  F    0.001699   0.002405   0.001137   0.000006   0.000001   0.000000
    12  C    0.247041   0.238856   0.215684  -0.037704  -0.032996  -0.025736
    13  F    9.044954  -0.033114  -0.022561   0.000357   0.000359   0.000787
    14  F   -0.033114   9.048529  -0.019683   0.000368   0.000782  -0.000056
    15  C   -0.022561  -0.019683   4.268851   0.287183   0.274826   0.267262
    16  F    0.000357   0.000368   0.287183   9.047679  -0.034907  -0.036943
    17  F    0.000359   0.000782   0.274826  -0.034907   9.055626  -0.035961
    18  F    0.000787  -0.000056   0.267262  -0.036943  -0.035961   9.070089
 Mulliken charges:
               1
     1  F   -0.224750
     2  C    0.962597
     3  F   -0.232155
     4  F   -0.217426
     5  O   -0.512850
     6  C    0.742280
     7  F   -0.246684
     8  F   -0.256888
     9  C    0.410686
    10  F   -0.208091
    11  F   -0.223520
    12  C    0.379693
    13  F   -0.220772
    14  F   -0.211215
    15  C    0.762710
    16  F   -0.230910
    17  F   -0.232434
    18  F   -0.240272
 Sum of Mulliken charges =   0.00000
 Mulliken charges with hydrogens summed into heavy atoms:
               1
     1  F   -0.224750
     2  C    0.962597
     3  F   -0.232155
     4  F   -0.217426
     5  O   -0.512850
     6  C    0.742280
     7  F   -0.246684
     8  F   -0.256888
     9  C    0.410686
    10  F   -0.208091
    11  F   -0.223520
    12  C    0.379693
    13  F   -0.220772
    14  F   -0.211215
    15  C    0.762710
    16  F   -0.230910
    17  F   -0.232434
    18  F   -0.240272
 Electronic spatial extent (au):  <R**2>=           3593.0057
 Charge=              0.0000 electrons
 Dipole moment (field-independent basis, Debye):
    X=             -0.3966    Y=              0.4526    Z=              0.0072  Tot=              0.6018
 Quadrupole moment (field-independent basis, Debye-Ang):
   XX=            -89.9904   YY=            -91.2630   ZZ=            -91.4242
   XY=             -1.0377   XZ=             -0.6436   YZ=             -0.4955
 Traceless Quadrupole moment (field-independent basis, Debye-Ang):
   XX=              0.9021   YY=             -0.3704   ZZ=             -0.5317
   XY=             -1.0377   XZ=             -0.6436   YZ=             -0.4955
 Octapole moment (field-independent basis, Debye-Ang**2):
  XXX=             -3.2135  YYY=              3.9821  ZZZ=             13.1128  XYY=             -2.1823
  XXY=              3.5054  XXZ=              2.1717  XZZ=             -0.1129  YZZ=              0.1257
  YYZ=              3.8769  XYZ=              0.8096
 Hexadecapole moment (field-independent basis, Debye-Ang**3):
 XXXX=          -1975.7506 YYYY=           -969.5537 ZZZZ=           -495.4293 XXXY=            151.6161
 XXXZ=            102.4783 YYYX=            167.1986 YYYZ=             56.4493 ZZZX=             96.4779
 ZZZY=             56.5882 XXYY=           -488.4058 XXZZ=           -413.5648 YYZZ=           -243.5575
 XXYZ=             22.2314 YYXZ=             33.2817 ZZXY=             55.8512
 N-N= 1.794244726901D+03 E-N=-7.061353175189D+03  KE= 1.454083903618D+03
 No NMR shielding tensors so no spin-rotation constants.
 Leave Link  601 at Sun Feb  2 23:12:42 2025, MaxMem=  5368709120 cpu:         1.4
 (Enter /home/k0335/k033513/app/g09/l9999.exe)
 1\1\GINC-C15U04N3\SP\RCAM-B3LYP\6-31G(d,p)\C5F12O1\K033513\02-Feb-2025
 \0\\#p CAM-B3LYP/6-31G(d,p) SCRF=(PCM,Solvent=Generic,Read) NoSymm out
 =wfn\\Title FFKM1_neu\\0,1\F,0,-3.19308,0.99259,0.98288\C,0,-2.28448,1
 .31344,0.08327\F,0,-2.73345,1.01734,-1.12386\F,0,-1.98595,2.58625,0.16
 703\O,0,-1.08615,0.62406,0.34115\C,0,-1.0053,-0.69488,0.07106\F,0,-0.9
 1249,-0.97509,-1.22701\F,0,-1.99821,-1.41225,0.59336\C,0,0.29655,-1.21
 042,0.78035\F,0,0.6134,-0.6501,1.8886\F,0,0.42685,-2.48951,0.77794\C,0
 ,1.86989,-0.76218,-0.38568\F,0,2.80416,-1.18349,0.39166\F,0,1.66971,-1
 .49709,-1.41764\C,0,1.86664,0.7869,-0.63546\F,0,1.65835,1.41123,0.5047
 2\F,0,0.93144,1.07002,-1.51687\F,0,3.0621,1.07317,-1.11368\\Version=ES
 64L-G09RevD.01\HF=-1463.3998299\RMSD=4.477e-09\Dipole=-0.1560301,0.178
 0811,0.0028391\Quadrupole=0.6707232,-0.275419,-0.3953043,-0.7714996,-0
 .4785354,-0.3683795\PG=C01 [X(C5F12O1)]\\@

 Writing a WFN file to "opt/FFKM1/FFKM1_neu.wfn"


 MYSTERY IS THE WISDOM OF BLOCKHEADS... HORACE WALPOLE 
 Job cpu time:       0 days  0 hours  2 minutes 56.2 seconds.
 File lengths (MBytes):  RWF=     90 Int=      0 D2E=      0 Chk=      4 Scr=      1
 Normal termination of Gaussian 09 at Sun Feb  2 23:12:43 2025.
