 Entering Gaussian System, Link 0=g09
 Initial command:
 /home/k0335/k033513/app/g09/l1.exe "/home/k0335/k033513/app/g09/scratch/Gau-342797.inp" -scrdir="/home/k0335/k033513/app/g09/scratch/"
 Default is to use a total of  36 processors:
                               36 via shared-memory
                                1 via Linda
 Entering Link 1 = /home/k0335/k033513/app/g09/l1.exe PID=    342798.
  
 Copyright (c) 1988,1990,1992,1993,1995,1998,2003,2009,2013,
            Gaussian, Inc.  All Rights Reserved.
  
 This is part of the Gaussian(R) 09 program.  It is based on
 the Gaussian(R) 03 system (copyright 2003, Gaussian, Inc.),
 the Gaussian(R) 98 system (copyright 1998, Gaussian, Inc.),
 the Gaussian(R) 94 system (copyright 1995, Gaussian, Inc.),
 the Gaussian 92(TM) system (copyright 1992, Gaussian, Inc.),
 the Gaussian 90(TM) system (copyright 1990, Gaussian, Inc.),
 the Gaussian 88(TM) system (copyright 1988, Gaussian, Inc.),
 the Gaussian 86(TM) system (copyright 1986, Carnegie Mellon
 University), and the Gaussian 82(TM) system (copyright 1983,
 Carnegie Mellon University). Gaussian is a federally registered
 trademark of Gaussian, Inc.
  
 This software contains proprietary and confidential information,
 including trade secrets, belonging to Gaussian, Inc.
  
 This software is provided under written license and may be
 used, copied, transmitted, or stored only in accord with that
 written license.
  
 The following legend is applicable only to US Government
 contracts under FAR:
  
                    RESTRICTED RIGHTS LEGEND
  
 Use, reproduction and disclosure by the US Government is
 subject to restrictions as set forth in subparagraphs (a)
 and (c) of the Commercial Computer Software - Restricted
 Rights clause in FAR 52.227-19.
  
 Gaussian, Inc.
 340 Quinnipiac St., Bldg. 40, Wallingford CT 06492
  
  
 ---------------------------------------------------------------
 Warning -- This program may not be used in any manner that
 competes with the business of Gaussian, Inc. or will provide
 assistance to any competitor of Gaussian, Inc.  The licensee
 of this program is prohibited from giving any competitor of
 Gaussian, Inc. access to this program.  By using this program,
 the user acknowledges that Gaussian, Inc. is engaged in the
 business of creating and licensing software in the field of
 computational chemistry and represents and warrants to the
 licensee that it is not a competitor of Gaussian, Inc. and that
 it will not use this program in any manner prohibited above.
 ---------------------------------------------------------------
  

 Cite this work as:
 Gaussian 09, Revision D.01,
 M. J. Frisch, G. W. Trucks, H. B. Schlegel, G. E. Scuseria, 
 M. A. Robb, J. R. Cheeseman, G. Scalmani, V. Barone, B. Mennucci, 
 G. A. Petersson, H. Nakatsuji, M. Caricato, X. Li, H. P. Hratchian, 
 A. F. Izmaylov, J. Bloino, G. Zheng, J. L. Sonnenberg, M. Hada, 
 M. Ehara, K. Toyota, R. Fukuda, J. Hasegawa, M. Ishida, T. Nakajima, 
 Y. Honda, O. Kitao, H. Nakai, T. Vreven, J. A. Montgomery, Jr., 
 J. E. Peralta, F. Ogliaro, M. Bearpark, J. J. Heyd, E. Brothers, 
 K. N. Kudin, V. N. Staroverov, T. Keith, R. Kobayashi, J. Normand, 
 K. Raghavachari, A. Rendell, J. C. Burant, S. S. Iyengar, J. Tomasi, 
 M. Cossi, N. Rega, J. M. Millam, M. Klene, J. E. Knox, J. B. Cross, 
 V. Bakken, C. Adamo, J. Jaramillo, R. Gomperts, R. E. Stratmann, 
 O. Yazyev, A. J. Austin, R. Cammi, C. Pomelli, J. W. Ochterski, 
 R. L. Martin, K. Morokuma, V. G. Zakrzewski, G. A. Voth, 
 P. Salvador, J. J. Dannenberg, S. Dapprich, A. D. Daniels, 
 O. Farkas, J. B. Foresman, J. V. Ortiz, J. Cioslowski, 
 and D. J. Fox, Gaussian, Inc., Wallingford CT, 2013.
 
 ******************************************
 Gaussian 09:  ES64L-G09RevD.01 24-Apr-2013
                 5-Feb-2025 
 ******************************************
 %nprocshared=24
 Will use up to   24 processors via shared memory.
 %mem=40GB
 %rwf=cytopopt/A1/A1_neu.rwf
 %nosave
 %chk=cytopopt/A1/A1_neu.chk
 ----------------------------------------------------------------------
 #p CAM-B3LYP/6-31G(d,p) opt SCRF=(PCM,Solvent=Generic,Read) NoSymm out
 =wfn
 ----------------------------------------------------------------------
 1/14=-1,18=20,19=15,26=3,38=1,40=2/1,3;
 2/9=110,12=2,15=1,17=6,18=5,40=1/2;
 3/5=1,6=6,7=101,11=2,16=1,25=1,30=1,70=2203,71=1,72=-2,74=-40/1,2,3;
 4//1;
 5/5=2,38=5/2;
 6/7=2,8=2,9=2,10=2,28=1/1;
 7/30=1/1,2,3,16;
 1/14=-1,18=20,19=15,26=3/3(2);
 2/9=110,15=1/2;
 99/6=100/99;
 2/9=110,15=1/2;
 3/5=1,6=6,7=101,11=2,16=1,25=1,30=1,70=2205,71=1,72=-2,74=-40/1,2,3;
 4/5=5,16=3,69=1/1;
 5/5=2,38=5/2;
 7/30=1/1,2,3,16;
 1/14=-1,18=20,19=15,26=3/3(-5);
 2/9=110,15=1/2;
 6/7=2,8=2,9=2,10=2,19=2,28=1/1;
 99/6=100,9=1/99;
 Leave Link    1 at Wed Feb  5 01:18:38 2025, MaxMem=  5368709120 cpu:         5.7
 (Enter /home/k0335/k033513/app/g09/l101.exe)
 ------------
 Title A1_neu
 ------------
 Symbolic Z-matrix:
 Charge =  0 Multiplicity = 1
 F                     1.21956  -0.46969  -1.43835 
 C                     0.77947   0.33295  -0.43317 
 C                     1.85935   0.38826   0.63532 
 F                     2.87302   1.19958   0.21017 
 C                     2.45922  -0.98878   0.94351 
 F                     3.38714  -0.91039   1.92795 
 F                     1.53773  -1.8921    1.33821 
 F                     3.08145  -1.51494  -0.13815 
 F                     1.38342   0.96861   1.76543 
 C                    -0.58803  -0.09026   0.12442 
 O                    -1.35333   1.09462   0.42519 
 C                    -0.57358   2.20719  -0.00224 
 F                    -1.38955   3.14986  -0.50924 
 F                     0.00974   2.72448   1.09693 
 C                     0.43251   1.68322  -0.99865 
 F                    -0.18436   1.50853  -2.20191 
 F                     1.47688   2.4922   -1.23109 
 C                    -1.35081  -1.04068  -0.81244 
 F                    -0.56663  -2.1294   -1.07213 
 C                    -2.66978  -1.43888  -0.16398 
 O                    -2.60732  -2.57791   0.56276 
 O                    -3.72886  -0.83206  -0.23733 
 F                    -1.55137  -0.43705  -2.01666 
 F                    -0.41862  -0.7132    1.32008 
 H                    -3.51724  -2.71415   0.90537 
 
 NAtoms=     25 NQM=       25 NQMF=       0 NMMI=      0 NMMIF=      0
                NMic=       0 NMicF=      0.
                    Isotopes and Nuclear Properties:
 (Nuclear quadrupole moments (NQMom) in fm**2, nuclear magnetic moments (NMagM)
  in nuclear magnetons)

  Atom         1           2           3           4           5           6           7           8           9          10
 IAtWgt=          19          12          12          19          12          19          19          19          19          12
 AtmWgt=  18.9984033  12.0000000  12.0000000  18.9984033  12.0000000  18.9984033  18.9984033  18.9984033  18.9984033  12.0000000
 NucSpn=           1           0           0           1           0           1           1           1           1           0
 AtZEff=   0.0000000   0.0000000   0.0000000   0.0000000   0.0000000   0.0000000   0.0000000   0.0000000   0.0000000   0.0000000
 NQMom=    0.0000000   0.0000000   0.0000000   0.0000000   0.0000000   0.0000000   0.0000000   0.0000000   0.0000000   0.0000000
 NMagM=    2.6288670   0.0000000   0.0000000   2.6288670   0.0000000   2.6288670   2.6288670   2.6288670   2.6288670   0.0000000
 AtZNuc=   9.0000000   6.0000000   6.0000000   9.0000000   6.0000000   9.0000000   9.0000000   9.0000000   9.0000000   6.0000000

  Atom        11          12          13          14          15          16          17          18          19          20
 IAtWgt=          16          12          19          19          12          19          19          12          19          12
 AtmWgt=  15.9949146  12.0000000  18.9984033  18.9984033  12.0000000  18.9984033  18.9984033  12.0000000  18.9984033  12.0000000
 NucSpn=           0           0           1           1           0           1           1           0           1           0
 AtZEff=   0.0000000   0.0000000   0.0000000   0.0000000   0.0000000   0.0000000   0.0000000   0.0000000   0.0000000   0.0000000
 NQMom=    0.0000000   0.0000000   0.0000000   0.0000000   0.0000000   0.0000000   0.0000000   0.0000000   0.0000000   0.0000000
 NMagM=    0.0000000   0.0000000   2.6288670   2.6288670   0.0000000   2.6288670   2.6288670   0.0000000   2.6288670   0.0000000
 AtZNuc=   8.0000000   6.0000000   9.0000000   9.0000000   6.0000000   9.0000000   9.0000000   6.0000000   9.0000000   6.0000000

  Atom        21          22          23          24          25
 IAtWgt=          16          16          19          19           1
 AtmWgt=  15.9949146  15.9949146  18.9984033  18.9984033   1.0078250
 NucSpn=           0           0           1           1           1
 AtZEff=   0.0000000   0.0000000   0.0000000   0.0000000   0.0000000
 NQMom=    0.0000000   0.0000000   0.0000000   0.0000000   0.0000000
 NMagM=    0.0000000   0.0000000   2.6288670   2.6288670   2.7928460
 AtZNuc=   8.0000000   8.0000000   9.0000000   9.0000000   1.0000000
 Leave Link  101 at Wed Feb  5 01:18:38 2025, MaxMem=  5368709120 cpu:         3.0
 (Enter /home/k0335/k033513/app/g09/l103.exe)

 GradGradGradGradGradGradGradGradGradGradGradGradGradGradGradGradGradGrad
 Berny optimization.
 Initialization pass.
                           ----------------------------
                           !    Initial Parameters    !
                           ! (Angstroms and Degrees)  !
 --------------------------                            --------------------------
 ! Name  Definition              Value          Derivative Info.                !
 --------------------------------------------------------------------------------
 ! R1    R(1,2)                  1.3595         estimate D2E/DX2                !
 ! R2    R(2,3)                  1.5202         estimate D2E/DX2                !
 ! R3    R(2,10)                 1.5362         estimate D2E/DX2                !
 ! R4    R(2,15)                 1.5045         estimate D2E/DX2                !
 ! R5    R(3,4)                  1.3662         estimate D2E/DX2                !
 ! R6    R(3,5)                  1.5333         estimate D2E/DX2                !
 ! R7    R(3,9)                  1.3566         estimate D2E/DX2                !
 ! R8    R(5,6)                  1.3551         estimate D2E/DX2                !
 ! R9    R(5,7)                  1.3494         estimate D2E/DX2                !
 ! R10   R(5,8)                  1.3542         estimate D2E/DX2                !
 ! R11   R(10,11)                1.4422         estimate D2E/DX2                !
 ! R12   R(10,18)                1.5372         estimate D2E/DX2                !
 ! R13   R(10,24)                1.3588         estimate D2E/DX2                !
 ! R14   R(11,12)                1.4243         estimate D2E/DX2                !
 ! R15   R(12,13)                1.3459         estimate D2E/DX2                !
 ! R16   R(12,14)                1.3476         estimate D2E/DX2                !
 ! R17   R(12,15)                1.5098         estimate D2E/DX2                !
 ! R18   R(15,16)                1.3634         estimate D2E/DX2                !
 ! R19   R(15,17)                1.3413         estimate D2E/DX2                !
 ! R20   R(18,19)                1.3666         estimate D2E/DX2                !
 ! R21   R(18,20)                1.5227         estimate D2E/DX2                !
 ! R22   R(18,23)                1.3619         estimate D2E/DX2                !
 ! R23   R(20,21)                1.3526         estimate D2E/DX2                !
 ! R24   R(20,22)                1.2228         estimate D2E/DX2                !
 ! R25   R(21,25)                0.9818         estimate D2E/DX2                !
 ! A1    A(1,2,3)              108.1322         estimate D2E/DX2                !
 ! A2    A(1,2,10)             113.1952         estimate D2E/DX2                !
 ! A3    A(1,2,15)             109.0644         estimate D2E/DX2                !
 ! A4    A(3,2,10)             112.7837         estimate D2E/DX2                !
 ! A5    A(3,2,15)             113.2886         estimate D2E/DX2                !
 ! A6    A(10,2,15)            100.2757         estimate D2E/DX2                !
 ! A7    A(2,3,4)              109.2654         estimate D2E/DX2                !
 ! A8    A(2,3,5)              112.738          estimate D2E/DX2                !
 ! A9    A(2,3,9)              110.6018         estimate D2E/DX2                !
 ! A10   A(4,3,5)              107.7945         estimate D2E/DX2                !
 ! A11   A(4,3,9)              105.3953         estimate D2E/DX2                !
 ! A12   A(5,3,9)              110.7319         estimate D2E/DX2                !
 ! A13   A(3,5,6)              111.2205         estimate D2E/DX2                !
 ! A14   A(3,5,7)              113.13           estimate D2E/DX2                !
 ! A15   A(3,5,8)              111.6009         estimate D2E/DX2                !
 ! A16   A(6,5,7)              107.0882         estimate D2E/DX2                !
 ! A17   A(6,5,8)              106.7438         estimate D2E/DX2                !
 ! A18   A(7,5,8)              106.6964         estimate D2E/DX2                !
 ! A19   A(2,10,11)            108.7665         estimate D2E/DX2                !
 ! A20   A(2,10,18)            113.0065         estimate D2E/DX2                !
 ! A21   A(2,10,24)            109.5536         estimate D2E/DX2                !
 ! A22   A(11,10,18)           111.8237         estimate D2E/DX2                !
 ! A23   A(11,10,24)           105.0282         estimate D2E/DX2                !
 ! A24   A(18,10,24)           108.3431         estimate D2E/DX2                !
 ! A25   A(10,11,12)           106.7784         estimate D2E/DX2                !
 ! A26   A(11,12,13)           109.1631         estimate D2E/DX2                !
 ! A27   A(11,12,14)           106.9811         estimate D2E/DX2                !
 ! A28   A(11,12,15)           106.9645         estimate D2E/DX2                !
 ! A29   A(13,12,14)           107.5071         estimate D2E/DX2                !
 ! A30   A(13,12,15)           113.4811         estimate D2E/DX2                !
 ! A31   A(14,12,15)           112.5231         estimate D2E/DX2                !
 ! A32   A(2,15,12)            102.5383         estimate D2E/DX2                !
 ! A33   A(2,15,16)            108.7273         estimate D2E/DX2                !
 ! A34   A(2,15,17)            115.2698         estimate D2E/DX2                !
 ! A35   A(12,15,16)           108.9895         estimate D2E/DX2                !
 ! A36   A(12,15,17)           115.0805         estimate D2E/DX2                !
 ! A37   A(16,15,17)           106.0585         estimate D2E/DX2                !
 ! A38   A(10,18,19)           108.8834         estimate D2E/DX2                !
 ! A39   A(10,18,20)           109.3876         estimate D2E/DX2                !
 ! A40   A(10,18,23)           109.7518         estimate D2E/DX2                !
 ! A41   A(19,18,20)           111.6921         estimate D2E/DX2                !
 ! A42   A(19,18,23)           105.6392         estimate D2E/DX2                !
 ! A43   A(20,18,23)           111.4009         estimate D2E/DX2                !
 ! A44   A(18,20,21)           114.1437         estimate D2E/DX2                !
 ! A45   A(18,20,22)           126.5049         estimate D2E/DX2                !
 ! A46   A(21,20,22)           119.349          estimate D2E/DX2                !
 ! A47   A(20,21,25)           105.1628         estimate D2E/DX2                !
 ! D1    D(1,2,3,4)             75.6504         estimate D2E/DX2                !
 ! D2    D(1,2,3,5)            -44.1837         estimate D2E/DX2                !
 ! D3    D(1,2,3,9)           -168.766          estimate D2E/DX2                !
 ! D4    D(10,2,3,4)          -158.4003         estimate D2E/DX2                !
 ! D5    D(10,2,3,5)            81.7655         estimate D2E/DX2                !
 ! D6    D(10,2,3,9)           -42.8167         estimate D2E/DX2                !
 ! D7    D(15,2,3,4)           -45.3563         estimate D2E/DX2                !
 ! D8    D(15,2,3,5)          -165.1905         estimate D2E/DX2                !
 ! D9    D(15,2,3,9)            70.2273         estimate D2E/DX2                !
 ! D10   D(1,2,10,11)         -141.8363         estimate D2E/DX2                !
 ! D11   D(1,2,10,18)          -17.0286         estimate D2E/DX2                !
 ! D12   D(1,2,10,24)          103.8777         estimate D2E/DX2                !
 ! D13   D(3,2,10,11)           94.9875         estimate D2E/DX2                !
 ! D14   D(3,2,10,18)         -140.2048         estimate D2E/DX2                !
 ! D15   D(3,2,10,24)          -19.2985         estimate D2E/DX2                !
 ! D16   D(15,2,10,11)         -25.807          estimate D2E/DX2                !
 ! D17   D(15,2,10,18)          99.0007         estimate D2E/DX2                !
 ! D18   D(15,2,10,24)        -140.093          estimate D2E/DX2                !
 ! D19   D(1,2,15,12)          155.2142         estimate D2E/DX2                !
 ! D20   D(1,2,15,16)           39.913          estimate D2E/DX2                !
 ! D21   D(1,2,15,17)          -78.9699         estimate D2E/DX2                !
 ! D22   D(3,2,15,12)          -84.3065         estimate D2E/DX2                !
 ! D23   D(3,2,15,16)          160.3923         estimate D2E/DX2                !
 ! D24   D(3,2,15,17)           41.5094         estimate D2E/DX2                !
 ! D25   D(10,2,15,12)          36.1252         estimate D2E/DX2                !
 ! D26   D(10,2,15,16)         -79.1759         estimate D2E/DX2                !
 ! D27   D(10,2,15,17)         161.9411         estimate D2E/DX2                !
 ! D28   D(2,3,5,6)           -178.0734         estimate D2E/DX2                !
 ! D29   D(2,3,5,7)            -57.5008         estimate D2E/DX2                !
 ! D30   D(2,3,5,8)             62.84           estimate D2E/DX2                !
 ! D31   D(4,3,5,6)             61.2472         estimate D2E/DX2                !
 ! D32   D(4,3,5,7)           -178.1802         estimate D2E/DX2                !
 ! D33   D(4,3,5,8)            -57.8394         estimate D2E/DX2                !
 ! D34   D(9,3,5,6)            -53.5624         estimate D2E/DX2                !
 ! D35   D(9,3,5,7)             67.0101         estimate D2E/DX2                !
 ! D36   D(9,3,5,8)           -172.6491         estimate D2E/DX2                !
 ! D37   D(2,10,11,12)           3.9975         estimate D2E/DX2                !
 ! D38   D(18,10,11,12)       -121.503          estimate D2E/DX2                !
 ! D39   D(24,10,11,12)        121.2054         estimate D2E/DX2                !
 ! D40   D(2,10,18,19)          56.019          estimate D2E/DX2                !
 ! D41   D(2,10,18,20)         178.329          estimate D2E/DX2                !
 ! D42   D(2,10,18,23)         -59.1662         estimate D2E/DX2                !
 ! D43   D(11,10,18,19)        179.1483         estimate D2E/DX2                !
 ! D44   D(11,10,18,20)        -58.5417         estimate D2E/DX2                !
 ! D45   D(11,10,18,23)         63.963          estimate D2E/DX2                !
 ! D46   D(24,10,18,19)        -65.5722         estimate D2E/DX2                !
 ! D47   D(24,10,18,20)         56.7378         estimate D2E/DX2                !
 ! D48   D(24,10,18,23)        179.2426         estimate D2E/DX2                !
 ! D49   D(10,11,12,13)        143.1607         estimate D2E/DX2                !
 ! D50   D(10,11,12,14)       -100.7921         estimate D2E/DX2                !
 ! D51   D(10,11,12,15)         19.9979         estimate D2E/DX2                !
 ! D52   D(11,12,15,2)         -36.4537         estimate D2E/DX2                !
 ! D53   D(11,12,15,16)         78.6571         estimate D2E/DX2                !
 ! D54   D(11,12,15,17)       -162.3926         estimate D2E/DX2                !
 ! D55   D(13,12,15,2)        -156.8979         estimate D2E/DX2                !
 ! D56   D(13,12,15,16)        -41.787          estimate D2E/DX2                !
 ! D57   D(13,12,15,17)         77.1632         estimate D2E/DX2                !
 ! D58   D(14,12,15,2)          80.7437         estimate D2E/DX2                !
 ! D59   D(14,12,15,16)       -164.1454         estimate D2E/DX2                !
 ! D60   D(14,12,15,17)        -45.1952         estimate D2E/DX2                !
 ! D61   D(10,18,20,21)        -92.2986         estimate D2E/DX2                !
 ! D62   D(10,18,20,22)         87.1304         estimate D2E/DX2                !
 ! D63   D(19,18,20,21)         28.3143         estimate D2E/DX2                !
 ! D64   D(19,18,20,22)       -152.2567         estimate D2E/DX2                !
 ! D65   D(23,18,20,21)        146.187          estimate D2E/DX2                !
 ! D66   D(23,18,20,22)        -34.384          estimate D2E/DX2                !
 ! D67   D(18,20,21,25)       -179.3037         estimate D2E/DX2                !
 ! D68   D(22,20,21,25)          1.2229         estimate D2E/DX2                !
 --------------------------------------------------------------------------------
 Trust Radius=3.00D-01 FncErr=1.00D-07 GrdErr=1.00D-06
 Number of steps in this run=    150 maximum allowed number of steps=    150.
 GradGradGradGradGradGradGradGradGradGradGradGradGradGradGradGradGradGrad

 Leave Link  103 at Wed Feb  5 01:18:38 2025, MaxMem=  5368709120 cpu:         0.1
 (Enter /home/k0335/k033513/app/g09/l202.exe)
                          Input orientation:                          
 ---------------------------------------------------------------------
 Center     Atomic      Atomic             Coordinates (Angstroms)
 Number     Number       Type             X           Y           Z
 ---------------------------------------------------------------------
      1          9           0        1.219555   -0.469690   -1.438345
      2          6           0        0.779469    0.332949   -0.433167
      3          6           0        1.859349    0.388257    0.635317
      4          9           0        2.873015    1.199583    0.210166
      5          6           0        2.459220   -0.988782    0.943508
      6          9           0        3.387143   -0.910389    1.927950
      7          9           0        1.537727   -1.892104    1.338213
      8          9           0        3.081449   -1.514937   -0.138147
      9          9           0        1.383421    0.968605    1.765430
     10          6           0       -0.588027   -0.090257    0.124421
     11          8           0       -1.353326    1.094617    0.425186
     12          6           0       -0.573582    2.207188   -0.002239
     13          9           0       -1.389548    3.149855   -0.509243
     14          9           0        0.009738    2.724478    1.096926
     15          6           0        0.432513    1.683224   -0.998645
     16          9           0       -0.184363    1.508533   -2.201908
     17          9           0        1.476877    2.492203   -1.231086
     18          6           0       -1.350805   -1.040682   -0.812442
     19          9           0       -0.566629   -2.129401   -1.072131
     20          6           0       -2.669780   -1.438875   -0.163976
     21          8           0       -2.607324   -2.577909    0.562757
     22          8           0       -3.728862   -0.832062   -0.237334
     23          9           0       -1.551370   -0.437054   -2.016656
     24          9           0       -0.418617   -0.713200    1.320078
     25          1           0       -3.517242   -2.714148    0.905365
 ---------------------------------------------------------------------
                    Distance matrix (angstroms):
                    1          2          3          4          5
     1  F    0.000000
     2  C    1.359518   0.000000
     3  C    2.333556   1.520151   0.000000
     4  F    2.870190   2.355391   1.366207   0.000000
     5  C    2.734858   2.542395   1.533318   2.344773   0.000000
     6  F    4.027977   3.731049   2.385694   2.768951   1.355106
     7  F    3.135884   2.943400   2.407810   3.551621   1.349419
     8  F    2.499941   2.966620   2.390381   2.744701   1.354247
     9  F    3.515639   2.366991   1.356638   2.165892   2.379971
    10  C    2.419413   1.536246   2.545514   3.694570   3.280848
    11  O    3.541119   2.421925   3.296116   4.233109   4.375468
    12  C    3.527523   2.351429   3.103891   3.597140   4.506279
    13  F    4.557604   3.556035   4.414949   4.742421   5.835393
    14  F    4.253700   2.941612   3.015306   3.363035   4.451045
    15  C    2.334054   1.504456   2.526387   2.766077   3.875450
    16  F    2.543104   2.332255   3.671733   3.906547   4.808197
    17  F    2.980265   2.405292   2.838368   2.386897   4.220321
    18  C    2.706388   2.562963   3.800390   4.889291   4.195515
    19  F    2.465605   2.878094   3.890932   4.955560   3.810456
    20  C    4.205979   3.887048   4.948767   6.150124   5.266474
    21  O    4.805622   4.575514   5.362329   6.665424   5.323548
    22  O    5.104956   4.660542   5.786087   6.921894   6.301691
    23  F    2.830819   2.921156   4.398534   5.216560   5.015158
    24  F    3.217422   2.367215   2.621304   3.965537   2.915424
    25  H    5.741761   5.434905   6.213338   7.525688   6.220646
                    6          7          8          9         10
     6  F    0.000000
     7  F    2.175292   0.000000
     8  F    2.174324   2.169095   0.000000
     9  F    2.751715   2.896546   3.560181   0.000000
    10  C    4.441544   3.039535   3.945087   2.775015   0.000000
    11  O    5.361939   4.255856   5.176325   3.049904   1.442244
    12  C    5.397431   4.801940   5.218423   2.913521   2.300979
    13  F    6.726237   6.115831   6.472079   4.197779   3.397395
    14  F    5.030877   4.868860   5.378983   2.327443   3.037404
    15  C    4.901186   4.411958   4.240938   3.009156   2.334098
    16  F    5.971814   5.202152   4.905712   4.299912   2.851470
    17  F    5.020583   5.082042   4.452678   3.362914   3.573559
    18  C    5.474932   3.700521   4.508267   4.261297   1.537157
    19  F    5.110654   3.208486   3.815543   4.631640   2.364382
    20  C    6.429756   4.490557   5.751790   5.093820   2.497126
    21  O    6.370087   4.272366   5.829521   5.472680   3.233900
    22  O    7.438556   5.598482   6.845180   5.778313   3.247458
    23  F    6.338207   4.786944   5.114063   4.989294   2.373291
    24  F    3.859041   2.284168   3.875521   2.504825   1.358806
    25  H    7.209005   5.139633   6.787470   6.190224   4.009361
                   11         12         13         14         15
    11  O    0.000000
    12  C    1.424257   0.000000
    13  F    2.257980   1.345910   0.000000
    14  F    2.228368   1.347596   2.172263   0.000000
    15  C    2.358596   1.509831   2.389650   2.377891   0.000000
    16  F    2.905069   2.340546   2.647928   3.521151   1.363413
    17  F    3.564622   2.407422   3.028193   2.761537   1.341332
    18  C    2.468042   3.436446   4.201670   4.435447   3.261067
    19  F    3.640761   4.466623   5.372577   5.347630   3.942055
    20  C    2.915261   4.208798   4.776468   5.109129   4.479776
    21  O    3.883154   5.229960   5.953104   5.937142   5.462219
    22  O    3.129568   4.387266   4.626228   5.329761   4.921717
    23  F    2.889261   3.464962   3.894149   4.703906   3.076966
    24  F    2.223222   3.209549   4.383186   3.471443   3.441474
    25  H    4.406790   5.805896   6.396462   6.484978   6.209887
                   16         17         18         19         20
    16  F    0.000000
    17  F    2.160977   0.000000
    18  C    3.128850   4.544483   0.000000
    19  F    3.828458   5.055730   1.366631   0.000000
    20  C    4.360926   5.812647   1.522748   2.392659   0.000000
    21  O    5.496646   6.753118   2.415177   2.653009   1.352568
    22  O    4.679894   6.256037   2.455489   3.518479   1.222807
    23  F    2.385023   4.285784   1.361883   2.173909   2.384724
    24  F    4.170774   4.513972   2.350289   2.783918   2.792267
    25  H    6.212428   7.524077   3.231841   3.599797   1.867620
                   21         22         23         24         25
    21  O    0.000000
    22  O    2.223955   0.000000
    23  F    3.514494   2.839628   0.000000
    24  F    2.973401   3.660243   3.534569   0.000000
    25  H    0.981780   2.211966   4.193807   3.711773   0.000000
 Symmetry turned off by external request.
 Stoichiometry    C8HF13O3
 Framework group  C1[X(C8HF13O3)]
 Deg. of freedom    69
 Full point group                 C1      NOp   1
 Rotational constants (GHZ):      0.3353720      0.2655106      0.1989189
 Leave Link  202 at Wed Feb  5 01:18:39 2025, MaxMem=  5368709120 cpu:         0.1
 (Enter /home/k0335/k033513/app/g09/l301.exe)
 Standard basis: 6-31G(d,p) (6D, 7F)
 Ernie: Thresh=  0.10000D-02 Tol=  0.10000D-05 Strict=F.
   365 basis functions,   679 primitive gaussians,   365 cartesian basis functions
    95 alpha electrons       95 beta electrons
       nuclear repulsion energy      2870.1012823929 Hartrees.
 IExCor=20419 DFT=T Ex+Corr=CAM-B3LYP ExCW=0 ScaHFX=  1.000000
 ScaDFX=  1.000000  1.000000  1.000000  0.810000 ScalE2=  1.000000  1.000000
 IRadAn=      0 IRanWt=     -1 IRanGd=            0 ICorTp=0 IEmpDi=  4
  HFx wShort=  0.000000 wLong=  0.330000 cFull=  0.190000 cShort=  0.000000 cLong=  0.460000
  DFx wShort=  0.000000 wLong=  0.330000 cFull=  0.190000 cShort=  0.000000 cLong=  0.460000
 NAtoms=   25 NActive=   25 NUniq=   25 SFac= 1.00D+00 NAtFMM=   60 NAOKFM=F Big=F
 Integral buffers will be    131072 words long.
 Raffenetti 2 integral format.
 Two-electron integral symmetry is turned off.
 Using the following non-standard input for PCM:
 eps=2.05
 --- end of non-standard input.
 ------------------------------------------------------------------------------
 Polarizable Continuum Model (PCM)
 =================================
 Model                : PCM (using non-symmetric T matrix).
 Atomic radii         : UFF (Universal Force Field).
 Polarization charges : Total charges.
 Charge compensation  : None.
 Solution method      : On-the-fly selection.
 Cavity type          : Scaled VdW (van der Waals Surface) (Alpha=1.100).
 Cavity algorithm     : GePol (No added spheres)
                        Default sphere list used, NSphG=   25.
                        Lebedev-Laikov grids with approx.  5.0 points / Ang**2.
                        Smoothing algorithm: Karplus/York (Gamma=1.0000).
                        Polarization charges: spherical gaussians, with
                                              point-specific exponents (IZeta= 3).
                        Self-potential: point-specific (ISelfS= 7).
                        Self-field    : sphere-specific E.n sum rule (ISelfD= 2).
 1st derivatives      : Analytical E(r).r(x)/FMM algorithm (CHGder, D1EAlg=3).
                        Cavity 1st derivative terms included.
 Solvent              : Generic,
                        Eps                           =   2.050000
                        Eps(infinity)                 =   0.000000
                        RSolv                         =   0.000000 Ang.
                        Molar volume                  =   0.000000 cm**3/mol
                        Thermal expansion coefficient =   0.000000 K**-1
                        Absolute temperature          = 298.150000 K
                        Numeral density               =   0.000000 Ang**-3
                        Hydrogen bond acidity         =   0.000000
                        Hydrogen bond basicity        =   0.000000
                        Surface tension at interface  =   0.000000 (cal/mol)*Ang**-2
                        Carbon aromaticity            =   0.000000
                        Electronegative halogenicity  =   0.000000
 ------------------------------------------------------------------------------
 GePol: Number of generator spheres                  =      25
 GePol: Total number of spheres                      =      25
 GePol: Number of exposed spheres                    =      24 ( 96.00%)
 GePol: Number of points                             =    2225
 GePol: Average weight of points                     =       0.13
 GePol: Minimum weight of points                     =   0.31D-10
 GePol: Maximum weight of points                     =    0.20577
 GePol: Number of points with low weight             =      81
 GePol: Fraction of low-weight points (<1% of avg)   =       3.64%
 GePol: Cavity surface area                          =    281.175 Ang**2
 GePol: Cavity volume                                =    314.717 Ang**3
 Leave Link  301 at Wed Feb  5 01:18:39 2025, MaxMem=  5368709120 cpu:         0.7
 (Enter /home/k0335/k033513/app/g09/l302.exe)
 NPDir=0 NMtPBC=     1 NCelOv=     1 NCel=       1 NClECP=     1 NCelD=      1
         NCelK=      1 NCelE2=     1 NClLst=     1 CellRange=     0.0.
 One-electron integrals computed using PRISM.
 NBasis=   365 RedAO= T EigKep=  8.62D-04  NBF=   365
 NBsUse=   365 1.00D-06 EigRej= -1.00D+00 NBFU=   365
 Precomputing XC quadrature grid using
 IXCGrd= 4 IRadAn=           0 IRanWt=          -1 IRanGd=           0 AccXCQ= 0.00D+00.
 Generated NRdTot=       0 NPtTot=           0 NUsed=           0 NTot=          32
 NSgBfM=   362   362   362   362   362 MxSgAt=    25 MxSgA2=    25.
 Leave Link  302 at Wed Feb  5 01:18:39 2025, MaxMem=  5368709120 cpu:         4.8
 (Enter /home/k0335/k033513/app/g09/l303.exe)
 DipDrv:  MaxL=1.
 Leave Link  303 at Wed Feb  5 01:18:40 2025, MaxMem=  5368709120 cpu:         0.4
 (Enter /home/k0335/k033513/app/g09/l401.exe)
 ExpMin= 1.61D-01 ExpMax= 7.00D+03 ExpMxC= 1.05D+03 IAcc=1 IRadAn=         1 AccDes= 0.00D+00
 Harris functional with IExCor=20419 and IRadAn=       1 diagonalized for initial guess.
 HarFok:  IExCor=20419 AccDes= 0.00D+00 IRadAn=         1 IDoV= 1 UseB2=F ITyADJ=14
 ICtDFT=  3500011 ScaDFX=  1.000000  1.000000  1.000000  1.000000
 FoFCou: FMM=F IPFlag=           0 FMFlag=      100000 FMFlg1=           0
         NFxFlg=           0 DoJE=T BraDBF=F KetDBF=T FulRan=T
         wScrn=  0.000000 ICntrl=     500 IOpCl=  0 I1Cent=   200000004 NGrid=           0
         NMat0=    1 NMatS0=      1 NMatT0=    0 NMatD0=    1 NMtDS0=    0 NMtDT0=    0
 Symmetry not used in FoFCou.
 Harris En= -1774.89580531663    
 JPrj=0 DoOrth=F DoCkMO=F.
 Leave Link  401 at Wed Feb  5 01:18:40 2025, MaxMem=  5368709120 cpu:         5.8
 (Enter /home/k0335/k033513/app/g09/l502.exe)
 Closed shell SCF:
 Using DIIS extrapolation, IDIIS=  1040.
 Two-electron integral symmetry not used.
 Keep R1 ints in memory in canonical form, NReq=4486581810.
 IVT=      429225 IEndB=      429225 NGot=  5368709120 MDV=   906641076
 LenX=   906641076 LenY=   906507410
 Requested convergence on RMS density matrix=1.00D-08 within 128 cycles.
 Requested convergence on MAX density matrix=1.00D-06.
 Requested convergence on             energy=1.00D-06.
 No special actions if energy rises.
 FoFCou: FMM=F IPFlag=           0 FMFlag=           0 FMFlg1=           0
         NFxFlg=           0 DoJE=F BraDBF=F KetDBF=F FulRan=T
         wScrn=  0.000000 ICntrl=     600 IOpCl=  0 I1Cent=           0 NGrid=           0
         NMat0=    1 NMatS0=  66795 NMatT0=    0 NMatD0=    1 NMtDS0=    0 NMtDT0=    0
 Symmetry not used in FoFCou.

 Cycle   1  Pass 1  IDiag  1:
 Inv3:  Mode=1 IEnd=    14851875.
 Iteration    1 A*A^-1 deviation from unit magnitude is 7.44D-15 for    624.
 Iteration    1 A*A^-1 deviation from orthogonality  is 3.46D-15 for   2206   1669.
 Iteration    1 A^-1*A deviation from unit magnitude is 6.00D-15 for    299.
 Iteration    1 A^-1*A deviation from orthogonality  is 2.27D-15 for   2192   1855.
 E= -1827.95710704935    
 DIIS: error= 5.33D-02 at cycle   1 NSaved=   1.
 NSaved= 1 IEnMin= 1 EnMin= -1827.95710704935     IErMin= 1 ErrMin= 5.33D-02
 ErrMax= 5.33D-02  0.00D+00 EMaxC= 1.00D-01 BMatC= 1.49D+00 BMatP= 1.49D+00
 IDIUse=3 WtCom= 4.67D-01 WtEn= 5.33D-01
 Coeff-Com:  0.100D+01
 Coeff-En:   0.100D+01
 Coeff:      0.100D+01
 Gap=     0.455 Goal=   None    Shift=    0.000
 GapD=    0.455 DampG=2.000 DampE=0.500 DampFc=1.0000 IDamp=-1.
 RMSDP=3.90D-03 MaxDP=1.64D-01              OVMax= 1.24D-01

 Cycle   2  Pass 1  IDiag  1:
 E= -1828.18803815214     Delta-E=       -0.230931102795 Rises=F Damp=F
 DIIS: error= 2.69D-02 at cycle   2 NSaved=   2.
 NSaved= 2 IEnMin= 2 EnMin= -1828.18803815214     IErMin= 2 ErrMin= 2.69D-02
 ErrMax= 2.69D-02  0.00D+00 EMaxC= 1.00D-01 BMatC= 5.75D-01 BMatP= 1.49D+00
 IDIUse=3 WtCom= 7.31D-01 WtEn= 2.69D-01
 Coeff-Com:  0.365D+00 0.635D+00
 Coeff-En:   0.329D+00 0.671D+00
 Coeff:      0.356D+00 0.644D+00
 Gap=     0.404 Goal=   None    Shift=    0.000
 RMSDP=1.76D-03 MaxDP=8.90D-02 DE=-2.31D-01 OVMax= 8.79D-02

 Cycle   3  Pass 1  IDiag  1:
 E= -1828.44479414931     Delta-E=       -0.256755997169 Rises=F Damp=F
 DIIS: error= 8.33D-03 at cycle   3 NSaved=   3.
 NSaved= 3 IEnMin= 3 EnMin= -1828.44479414931     IErMin= 3 ErrMin= 8.33D-03
 ErrMax= 8.33D-03  0.00D+00 EMaxC= 1.00D-01 BMatC= 1.02D-01 BMatP= 5.75D-01
 IDIUse=3 WtCom= 9.17D-01 WtEn= 8.33D-02
 Coeff-Com:  0.894D-01 0.324D+00 0.587D+00
 Coeff-En:   0.000D+00 0.117D+00 0.883D+00
 Coeff:      0.820D-01 0.306D+00 0.612D+00
 Gap=     0.372 Goal=   None    Shift=    0.000
 RMSDP=8.18D-04 MaxDP=4.36D-02 DE=-2.57D-01 OVMax= 6.32D-02

 Cycle   4  Pass 1  IDiag  1:
 E= -1828.50427249857     Delta-E=       -0.059478349256 Rises=F Damp=F
 DIIS: error= 2.81D-03 at cycle   4 NSaved=   4.
 NSaved= 4 IEnMin= 4 EnMin= -1828.50427249857     IErMin= 4 ErrMin= 2.81D-03
 ErrMax= 2.81D-03  0.00D+00 EMaxC= 1.00D-01 BMatC= 8.04D-03 BMatP= 1.02D-01
 IDIUse=3 WtCom= 9.72D-01 WtEn= 2.81D-02
 Coeff-Com:  0.456D-02 0.755D-01 0.291D+00 0.629D+00
 Coeff-En:   0.000D+00 0.000D+00 0.163D-01 0.984D+00
 Coeff:      0.444D-02 0.734D-01 0.283D+00 0.639D+00
 Gap=     0.373 Goal=   None    Shift=    0.000
 RMSDP=2.17D-04 MaxDP=1.48D-02 DE=-5.95D-02 OVMax= 2.34D-02

 Cycle   5  Pass 1  IDiag  1:
 E= -1828.50973569662     Delta-E=       -0.005463198048 Rises=F Damp=F
 DIIS: error= 1.00D-03 at cycle   5 NSaved=   5.
 NSaved= 5 IEnMin= 5 EnMin= -1828.50973569662     IErMin= 5 ErrMin= 1.00D-03
 ErrMax= 1.00D-03  0.00D+00 EMaxC= 1.00D-01 BMatC= 5.49D-04 BMatP= 8.04D-03
 IDIUse=3 WtCom= 9.90D-01 WtEn= 1.00D-02
 Coeff-Com: -0.317D-03 0.322D-01 0.148D+00 0.375D+00 0.445D+00
 Coeff-En:   0.000D+00 0.000D+00 0.000D+00 0.000D+00 0.100D+01
 Coeff:     -0.314D-03 0.318D-01 0.147D+00 0.371D+00 0.451D+00
 Gap=     0.369 Goal=   None    Shift=    0.000
 RMSDP=4.77D-05 MaxDP=4.29D-03 DE=-5.46D-03 OVMax= 7.85D-03

 Cycle   6  Pass 1  IDiag  1:
 E= -1828.51011693114     Delta-E=       -0.000381234522 Rises=F Damp=F
 DIIS: error= 1.22D-04 at cycle   6 NSaved=   6.
 NSaved= 6 IEnMin= 6 EnMin= -1828.51011693114     IErMin= 6 ErrMin= 1.22D-04
 ErrMax= 1.22D-04  0.00D+00 EMaxC= 1.00D-01 BMatC= 1.21D-05 BMatP= 5.49D-04
 IDIUse=3 WtCom= 9.99D-01 WtEn= 1.22D-03
 Coeff-Com: -0.507D-03 0.731D-04 0.735D-02 0.262D-01 0.133D+00 0.834D+00
 Coeff-En:   0.000D+00 0.000D+00 0.000D+00 0.000D+00 0.000D+00 0.100D+01
 Coeff:     -0.506D-03 0.730D-04 0.734D-02 0.262D-01 0.133D+00 0.834D+00
 Gap=     0.370 Goal=   None    Shift=    0.000
 RMSDP=1.27D-05 MaxDP=6.78D-04 DE=-3.81D-04 OVMax= 1.15D-03

 Cycle   7  Pass 1  IDiag  1:
 E= -1828.51012625624     Delta-E=       -0.000009325097 Rises=F Damp=F
 DIIS: error= 4.15D-05 at cycle   7 NSaved=   7.
 NSaved= 7 IEnMin= 7 EnMin= -1828.51012625624     IErMin= 7 ErrMin= 4.15D-05
 ErrMax= 4.15D-05  0.00D+00 EMaxC= 1.00D-01 BMatC= 2.59D-06 BMatP= 1.21D-05
 IDIUse=1 WtCom= 1.00D+00 WtEn= 0.00D+00
 Coeff-Com: -0.196D-03-0.310D-02-0.104D-01-0.229D-01 0.274D-01 0.417D+00
 Coeff-Com:  0.592D+00
 Coeff:     -0.196D-03-0.310D-02-0.104D-01-0.229D-01 0.274D-01 0.417D+00
 Coeff:      0.592D+00
 Gap=     0.370 Goal=   None    Shift=    0.000
 RMSDP=3.96D-06 MaxDP=2.21D-04 DE=-9.33D-06 OVMax= 4.00D-04

 Cycle   8  Pass 1  IDiag  1:
 E= -1828.51012814667     Delta-E=       -0.000001890437 Rises=F Damp=F
 DIIS: error= 8.98D-06 at cycle   8 NSaved=   8.
 NSaved= 8 IEnMin= 8 EnMin= -1828.51012814667     IErMin= 8 ErrMin= 8.98D-06
 ErrMax= 8.98D-06  0.00D+00 EMaxC= 1.00D-01 BMatC= 1.28D-07 BMatP= 2.59D-06
 IDIUse=1 WtCom= 1.00D+00 WtEn= 0.00D+00
 Coeff-Com: -0.120D-04-0.111D-02-0.442D-02-0.113D-01-0.278D-02 0.478D-01
 Coeff-Com:  0.195D+00 0.777D+00
 Coeff:     -0.120D-04-0.111D-02-0.442D-02-0.113D-01-0.278D-02 0.478D-01
 Coeff:      0.195D+00 0.777D+00
 Gap=     0.370 Goal=   None    Shift=    0.000
 RMSDP=1.35D-06 MaxDP=5.99D-05 DE=-1.89D-06 OVMax= 1.40D-04

 Cycle   9  Pass 1  IDiag  1:
 E= -1828.51012828285     Delta-E=       -0.000000136172 Rises=F Damp=F
 DIIS: error= 3.04D-06 at cycle   9 NSaved=   9.
 NSaved= 9 IEnMin= 9 EnMin= -1828.51012828285     IErMin= 9 ErrMin= 3.04D-06
 ErrMax= 3.04D-06  0.00D+00 EMaxC= 1.00D-01 BMatC= 1.21D-08 BMatP= 1.28D-07
 IDIUse=1 WtCom= 1.00D+00 WtEn= 0.00D+00
 Coeff-Com:  0.167D-04-0.186D-04-0.270D-03-0.119D-02-0.277D-02-0.327D-01
 Coeff-Com: -0.285D-02 0.208D+00 0.832D+00
 Coeff:      0.167D-04-0.186D-04-0.270D-03-0.119D-02-0.277D-02-0.327D-01
 Coeff:     -0.285D-02 0.208D+00 0.832D+00
 Gap=     0.370 Goal=   None    Shift=    0.000
 RMSDP=5.48D-07 MaxDP=2.60D-05 DE=-1.36D-07 OVMax= 5.89D-05

 Cycle  10  Pass 1  IDiag  1:
 E= -1828.51012829862     Delta-E=       -0.000000015776 Rises=F Damp=F
 DIIS: error= 9.11D-07 at cycle  10 NSaved=  10.
 NSaved=10 IEnMin=10 EnMin= -1828.51012829862     IErMin=10 ErrMin= 9.11D-07
 ErrMax= 9.11D-07  0.00D+00 EMaxC= 1.00D-01 BMatC= 1.80D-09 BMatP= 1.21D-08
 IDIUse=1 WtCom= 1.00D+00 WtEn= 0.00D+00
 Coeff-Com:  0.721D-05 0.130D-03 0.444D-03 0.931D-03-0.221D-03-0.181D-01
 Coeff-Com: -0.235D-01-0.235D-01 0.305D+00 0.759D+00
 Coeff:      0.721D-05 0.130D-03 0.444D-03 0.931D-03-0.221D-03-0.181D-01
 Coeff:     -0.235D-01-0.235D-01 0.305D+00 0.759D+00
 Gap=     0.370 Goal=   None    Shift=    0.000
 RMSDP=1.80D-07 MaxDP=8.08D-06 DE=-1.58D-08 OVMax= 1.94D-05

 Cycle  11  Pass 1  IDiag  1:
 E= -1828.51012830041     Delta-E=       -0.000000001784 Rises=F Damp=F
 DIIS: error= 3.04D-07 at cycle  11 NSaved=  11.
 NSaved=11 IEnMin=11 EnMin= -1828.51012830041     IErMin=11 ErrMin= 3.04D-07
 ErrMax= 3.04D-07  0.00D+00 EMaxC= 1.00D-01 BMatC= 1.92D-10 BMatP= 1.80D-09
 IDIUse=1 WtCom= 1.00D+00 WtEn= 0.00D+00
 Coeff-Com:  0.140D-05 0.548D-04 0.205D-03 0.484D-03 0.300D-03-0.444D-02
 Coeff-Com: -0.831D-02-0.262D-01 0.500D-01 0.296D+00 0.691D+00
 Coeff:      0.140D-05 0.548D-04 0.205D-03 0.484D-03 0.300D-03-0.444D-02
 Coeff:     -0.831D-02-0.262D-01 0.500D-01 0.296D+00 0.691D+00
 Gap=     0.370 Goal=   None    Shift=    0.000
 RMSDP=4.74D-08 MaxDP=1.63D-06 DE=-1.78D-09 OVMax= 4.56D-06

 Cycle  12  Pass 1  IDiag  1:
 E= -1828.51012830052     Delta-E=       -0.000000000116 Rises=F Damp=F
 DIIS: error= 1.23D-07 at cycle  12 NSaved=  12.
 NSaved=12 IEnMin=12 EnMin= -1828.51012830052     IErMin=12 ErrMin= 1.23D-07
 ErrMax= 1.23D-07  0.00D+00 EMaxC= 1.00D-01 BMatC= 2.27D-11 BMatP= 1.92D-10
 IDIUse=1 WtCom= 1.00D+00 WtEn= 0.00D+00
 Coeff-Com: -0.686D-06-0.160D-05 0.908D-06 0.212D-04 0.202D-03 0.136D-02
 Coeff-Com:  0.114D-02-0.548D-02-0.324D-01-0.268D-01 0.239D+00 0.823D+00
 Coeff:     -0.686D-06-0.160D-05 0.908D-06 0.212D-04 0.202D-03 0.136D-02
 Coeff:      0.114D-02-0.548D-02-0.324D-01-0.268D-01 0.239D+00 0.823D+00
 Gap=     0.370 Goal=   None    Shift=    0.000
 RMSDP=1.99D-08 MaxDP=6.77D-07 DE=-1.16D-10 OVMax= 1.95D-06

 Cycle  13  Pass 1  IDiag  1:
 E= -1828.51012830068     Delta-E=       -0.000000000161 Rises=F Damp=F
 DIIS: error= 2.74D-08 at cycle  13 NSaved=  13.
 NSaved=13 IEnMin=13 EnMin= -1828.51012830068     IErMin=13 ErrMin= 2.74D-08
 ErrMax= 2.74D-08  0.00D+00 EMaxC= 1.00D-01 BMatC= 1.30D-12 BMatP= 2.27D-11
 IDIUse=1 WtCom= 1.00D+00 WtEn= 0.00D+00
 Coeff-Com: -0.289D-06-0.407D-05-0.128D-04-0.264D-04 0.474D-04 0.665D-03
 Coeff-Com:  0.908D-03-0.277D-04-0.127D-01-0.272D-01 0.269D-01 0.241D+00
 Coeff-Com:  0.770D+00
 Coeff:     -0.289D-06-0.407D-05-0.128D-04-0.264D-04 0.474D-04 0.665D-03
 Coeff:      0.908D-03-0.277D-04-0.127D-01-0.272D-01 0.269D-01 0.241D+00
 Coeff:      0.770D+00
 Gap=     0.370 Goal=   None    Shift=    0.000
 RMSDP=4.72D-09 MaxDP=1.96D-07 DE=-1.61D-10 OVMax= 5.91D-07

 Error on total polarization charges =  0.00068
 SCF Done:  E(RCAM-B3LYP) =  -1828.51012830     A.U. after   13 cycles
            NFock= 13  Conv=0.47D-08     -V/T= 2.0069
 KE= 1.815896409959D+03 PE=-1.007029651416D+04 EE= 3.555788693506D+03
 Leave Link  502 at Wed Feb  5 01:19:14 2025, MaxMem=  5368709120 cpu:       327.8
 (Enter /home/k0335/k033513/app/g09/l601.exe)
 Copying SCF densities to generalized density rwf, IOpCl= 0 IROHF=0.

 **********************************************************************

            Population analysis using the SCF density.

 **********************************************************************

 Alpha  occ. eigenvalues --  -24.83787 -24.83614 -24.83599 -24.83271 -24.83261
 Alpha  occ. eigenvalues --  -24.83196 -24.83036 -24.83018 -24.82991 -24.82935
 Alpha  occ. eigenvalues --  -24.82926 -24.82631 -24.82482 -19.32503 -19.30194
 Alpha  occ. eigenvalues --  -19.25538 -10.55211 -10.53167 -10.50343 -10.49345
 Alpha  occ. eigenvalues --  -10.49229 -10.48086 -10.44489 -10.43663  -1.42154
 Alpha  occ. eigenvalues --   -1.40852  -1.38866  -1.38602  -1.38264  -1.36198
 Alpha  occ. eigenvalues --   -1.35719  -1.33016  -1.32944  -1.32424  -1.32148
 Alpha  occ. eigenvalues --   -1.31769  -1.31287  -1.22125  -1.20745  -1.12282
 Alpha  occ. eigenvalues --   -0.98213  -0.91933  -0.90315  -0.85132  -0.80377
 Alpha  occ. eigenvalues --   -0.77962  -0.76058  -0.74109  -0.71988  -0.71386
 Alpha  occ. eigenvalues --   -0.71117  -0.69991  -0.69155  -0.68617  -0.67862
 Alpha  occ. eigenvalues --   -0.67179  -0.66187  -0.66067  -0.65364  -0.64730
 Alpha  occ. eigenvalues --   -0.63902  -0.62186  -0.58528  -0.58407  -0.57848
 Alpha  occ. eigenvalues --   -0.57638  -0.57084  -0.56289  -0.55798  -0.55711
 Alpha  occ. eigenvalues --   -0.55330  -0.54513  -0.54228  -0.54117  -0.53728
 Alpha  occ. eigenvalues --   -0.53024  -0.52826  -0.52669  -0.52390  -0.51601
 Alpha  occ. eigenvalues --   -0.51329  -0.51156  -0.50792  -0.50409  -0.50008
 Alpha  occ. eigenvalues --   -0.49754  -0.49538  -0.49278  -0.48211  -0.47026
 Alpha  occ. eigenvalues --   -0.44884  -0.43489  -0.42998  -0.41141  -0.37709
 Alpha virt. eigenvalues --   -0.00711   0.04089   0.06664   0.07753   0.11184
 Alpha virt. eigenvalues --    0.12155   0.12882   0.15992   0.16448   0.20280
 Alpha virt. eigenvalues --    0.21570   0.23507   0.24320   0.25021   0.25622
 Alpha virt. eigenvalues --    0.26589   0.27746   0.28895   0.29769   0.30588
 Alpha virt. eigenvalues --    0.31825   0.34619   0.34972   0.35501   0.38854
 Alpha virt. eigenvalues --    0.41573   0.45870   0.48666   0.50356   0.51238
 Alpha virt. eigenvalues --    0.52517   0.53254   0.54270   0.54821   0.56150
 Alpha virt. eigenvalues --    0.59442   0.59454   0.60994   0.61440   0.63016
 Alpha virt. eigenvalues --    0.66001   0.66166   0.67635   0.69565   0.70449
 Alpha virt. eigenvalues --    0.71984   0.73143   0.76144   0.79226   0.79824
 Alpha virt. eigenvalues --    0.83050   0.85818   0.89341   0.90800   0.92094
 Alpha virt. eigenvalues --    0.93206   0.94713   0.96002   0.98614   0.99808
 Alpha virt. eigenvalues --    0.99912   1.03778   1.04914   1.05824   1.07991
 Alpha virt. eigenvalues --    1.08498   1.10024   1.10807   1.12991   1.13850
 Alpha virt. eigenvalues --    1.14248   1.15692   1.17738   1.18133   1.18826
 Alpha virt. eigenvalues --    1.20985   1.23096   1.25125   1.25289   1.26333
 Alpha virt. eigenvalues --    1.27921   1.28324   1.28952   1.29522   1.30291
 Alpha virt. eigenvalues --    1.32426   1.33223   1.33306   1.35085   1.36034
 Alpha virt. eigenvalues --    1.36530   1.36610   1.37908   1.38885   1.39352
 Alpha virt. eigenvalues --    1.40312   1.40863   1.41374   1.41977   1.42213
 Alpha virt. eigenvalues --    1.42587   1.44205   1.44543   1.45487   1.46746
 Alpha virt. eigenvalues --    1.47956   1.49173   1.50148   1.51106   1.52754
 Alpha virt. eigenvalues --    1.54436   1.55619   1.55952   1.57255   1.59487
 Alpha virt. eigenvalues --    1.60259   1.60977   1.62766   1.63689   1.64440
 Alpha virt. eigenvalues --    1.66409   1.67544   1.68487   1.71244   1.71751
 Alpha virt. eigenvalues --    1.72576   1.73812   1.74474   1.75575   1.76876
 Alpha virt. eigenvalues --    1.77859   1.78158   1.79571   1.80546   1.81132
 Alpha virt. eigenvalues --    1.81582   1.83219   1.84398   1.84542   1.85688
 Alpha virt. eigenvalues --    1.86139   1.87297   1.88330   1.88976   1.89775
 Alpha virt. eigenvalues --    1.90811   1.92062   1.92766   1.93404   1.94233
 Alpha virt. eigenvalues --    1.96011   1.96255   1.97295   1.98659   2.00539
 Alpha virt. eigenvalues --    2.01803   2.02000   2.02586   2.03870   2.04077
 Alpha virt. eigenvalues --    2.04345   2.05290   2.05883   2.06388   2.06788
 Alpha virt. eigenvalues --    2.07326   2.07674   2.08933   2.09878   2.10371
 Alpha virt. eigenvalues --    2.11086   2.11423   2.12336   2.12535   2.16173
 Alpha virt. eigenvalues --    2.17156   2.18444   2.18843   2.20261   2.21862
 Alpha virt. eigenvalues --    2.24569   2.24734   2.26786   2.28119   2.28579
 Alpha virt. eigenvalues --    2.31476   2.32740   2.33616   2.34936   2.36796
 Alpha virt. eigenvalues --    2.37486   2.38287   2.38649   2.40277   2.42888
 Alpha virt. eigenvalues --    2.44004   2.44651   2.45264   2.50064   2.51503
 Alpha virt. eigenvalues --    2.51752   2.52679   2.57538   2.58032   2.58715
 Alpha virt. eigenvalues --    2.60670   2.65286   2.66603   2.67593   2.69272
 Alpha virt. eigenvalues --    2.70962   2.74140   2.75413   2.76398   2.77738
 Alpha virt. eigenvalues --    2.80264   2.81122   2.84088   2.86222   2.88473
 Alpha virt. eigenvalues --    2.88927   2.90571   2.91705   2.93115   2.94166
 Alpha virt. eigenvalues --    2.96221   2.97118   2.99656   3.02296   3.06599
 Alpha virt. eigenvalues --    3.07685   3.10211   3.10775   3.11505   3.13155
 Alpha virt. eigenvalues --    3.13329   3.17023   3.19122   3.22289   3.23690
 Alpha virt. eigenvalues --    3.25026   3.29757   3.31807   3.32669   3.35453
 Alpha virt. eigenvalues --    3.47530   3.94739   4.19113   4.27074   4.29824
 Alpha virt. eigenvalues --    4.37990   4.39324   4.47597   4.60995   4.67934
 Alpha virt. eigenvalues --    4.74397   4.78479   4.79217   4.88777   5.10134
 Alpha virt. eigenvalues --    5.18966   5.22989   5.32551   5.44416   5.62290
 Alpha virt. eigenvalues --    5.75620   5.93146   6.17104   6.84839   7.29730
          Condensed to atoms (all electrons):
               1          2          3          4          5          6
     1  F    9.126324   0.204588  -0.025315  -0.000643   0.010496   0.000002
     2  C    0.204588   5.657997   0.084234  -0.023972  -0.052878   0.002456
     3  C   -0.025315   0.084234   4.847154   0.237102   0.225897  -0.024480
     4  F   -0.000643  -0.023972   0.237102   9.110026  -0.014152  -0.000629
     5  C    0.010496  -0.052878   0.225897  -0.014152   4.188611   0.300944
     6  F    0.000002   0.002456  -0.024480  -0.000629   0.300944   9.050640
     7  F   -0.000804   0.007922  -0.042483   0.000299   0.286685  -0.039883
     8  F   -0.001388   0.000780  -0.031218  -0.000558   0.280503  -0.039897
     9  F    0.000351  -0.042715   0.229461  -0.038635  -0.014319  -0.000554
    10  C   -0.035026   0.115603  -0.030780   0.002468  -0.005435   0.000030
    11  O    0.000789  -0.022988  -0.002385  -0.000006   0.000141   0.000000
    12  C    0.001812  -0.087686  -0.002037  -0.001015  -0.000230   0.000000
    13  F   -0.000001   0.002569   0.000041   0.000000   0.000000   0.000000
    14  F   -0.000001  -0.003390   0.012648  -0.000186   0.000093   0.000000
    15  C   -0.008491   0.154444  -0.024547   0.001383   0.002289  -0.000024
    16  F   -0.001659  -0.036767   0.001996   0.000002  -0.000025   0.000000
    17  F   -0.000336  -0.036980   0.005787  -0.004201   0.000068   0.000000
    18  C    0.016763  -0.030566   0.002569  -0.000019   0.000457   0.000000
    19  F   -0.002986  -0.001267  -0.000832   0.000000   0.000798   0.000000
    20  C    0.000236   0.003991  -0.000112   0.000000  -0.000022   0.000000
    21  O    0.000000  -0.000150   0.000001   0.000000   0.000001   0.000000
    22  O    0.000000  -0.000047   0.000000   0.000000   0.000000   0.000000
    23  F   -0.001324   0.004450   0.000072   0.000000   0.000001   0.000000
    24  F    0.000352  -0.031298   0.010372   0.000004   0.000691  -0.000010
    25  H    0.000000   0.000011   0.000000   0.000000   0.000000   0.000000
               7          8          9         10         11         12
     1  F   -0.000804  -0.001388   0.000351  -0.035026   0.000789   0.001812
     2  C    0.007922   0.000780  -0.042715   0.115603  -0.022988  -0.087686
     3  C   -0.042483  -0.031218   0.229461  -0.030780  -0.002385  -0.002037
     4  F    0.000299  -0.000558  -0.038635   0.002468  -0.000006  -0.001015
     5  C    0.286685   0.280503  -0.014319  -0.005435   0.000141  -0.000230
     6  F   -0.039883  -0.039897  -0.000554   0.000030   0.000000   0.000000
     7  F    9.068482  -0.039794  -0.000145   0.005910   0.000001  -0.000007
     8  F   -0.039794   9.076797   0.000282  -0.000331   0.000000   0.000002
     9  F   -0.000145   0.000282   9.113165   0.015573  -0.001582   0.009226
    10  C    0.005910  -0.000331   0.015573   5.028836   0.149255  -0.003356
    11  O    0.000001   0.000000  -0.001582   0.149255   8.390841   0.176773
    12  C   -0.000007   0.000002   0.009226  -0.003356   0.176773   4.426728
    13  F    0.000000   0.000000   0.000000   0.000597  -0.040655   0.307775
    14  F    0.000000   0.000000  -0.008720   0.001578  -0.051123   0.272555
    15  C    0.000093  -0.000057  -0.001369  -0.059815  -0.031168   0.190284
    16  F    0.000000   0.000000  -0.000001   0.005590  -0.001307  -0.022036
    17  F    0.000000   0.000000  -0.000219   0.002302   0.000761  -0.023071
    18  C   -0.000646   0.000057   0.000135   0.215513  -0.034644   0.002672
    19  F    0.000063  -0.000016   0.000000  -0.021796   0.000639   0.000046
    20  C    0.000000   0.000000   0.000000  -0.063890  -0.000121   0.000065
    21  O    0.000000   0.000000   0.000000   0.002673  -0.000003  -0.000003
    22  O    0.000000   0.000000   0.000000   0.000131   0.000702   0.000131
    23  F    0.000000   0.000000   0.000000  -0.035377   0.000943   0.000486
    24  F   -0.007337  -0.000003  -0.004248   0.232933  -0.046826   0.000334
    25  H    0.000000   0.000000   0.000000  -0.000213  -0.000006   0.000000
              13         14         15         16         17         18
     1  F   -0.000001  -0.000001  -0.008491  -0.001659  -0.000336   0.016763
     2  C    0.002569  -0.003390   0.154444  -0.036767  -0.036980  -0.030566
     3  C    0.000041   0.012648  -0.024547   0.001996   0.005787   0.002569
     4  F    0.000000  -0.000186   0.001383   0.000002  -0.004201  -0.000019
     5  C    0.000000   0.000093   0.002289  -0.000025   0.000068   0.000457
     6  F    0.000000   0.000000  -0.000024   0.000000   0.000000   0.000000
     7  F    0.000000   0.000000   0.000093   0.000000   0.000000  -0.000646
     8  F    0.000000   0.000000  -0.000057   0.000000   0.000000   0.000057
     9  F    0.000000  -0.008720  -0.001369  -0.000001  -0.000219   0.000135
    10  C    0.000597   0.001578  -0.059815   0.005590   0.002302   0.215513
    11  O   -0.040655  -0.051123  -0.031168  -0.001307   0.000761  -0.034644
    12  C    0.307775   0.272555   0.190284  -0.022036  -0.023071   0.002672
    13  F    9.034811  -0.041349  -0.021494  -0.000512  -0.000170   0.000061
    14  F   -0.041349   9.086589  -0.030331   0.000340  -0.000023  -0.000005
    15  C   -0.021494  -0.030331   4.739901   0.257602   0.281484  -0.006821
    16  F   -0.000512   0.000340   0.257602   9.101898  -0.041727   0.002193
    17  F   -0.000170  -0.000023   0.281484  -0.041727   9.063456   0.000015
    18  C    0.000061  -0.000005  -0.006821   0.002193   0.000015   4.599981
    19  F    0.000000   0.000000   0.000122  -0.000010   0.000000   0.248994
    20  C   -0.000013  -0.000003   0.000200  -0.000059   0.000000   0.239310
    21  O    0.000000   0.000000   0.000001   0.000000   0.000000  -0.072447
    22  O    0.000000   0.000000  -0.000021   0.000001   0.000000  -0.051265
    23  F   -0.000010   0.000000   0.002316  -0.002605   0.000000   0.273934
    24  F   -0.000003  -0.000024   0.001535   0.000000  -0.000001  -0.034088
    25  H    0.000000   0.000000   0.000000   0.000000   0.000000   0.007604
              19         20         21         22         23         24
     1  F   -0.002986   0.000236   0.000000   0.000000  -0.001324   0.000352
     2  C   -0.001267   0.003991  -0.000150  -0.000047   0.004450  -0.031298
     3  C   -0.000832  -0.000112   0.000001   0.000000   0.000072   0.010372
     4  F    0.000000   0.000000   0.000000   0.000000   0.000000   0.000004
     5  C    0.000798  -0.000022   0.000001   0.000000   0.000001   0.000691
     6  F    0.000000   0.000000   0.000000   0.000000   0.000000  -0.000010
     7  F    0.000063   0.000000   0.000000   0.000000   0.000000  -0.007337
     8  F   -0.000016   0.000000   0.000000   0.000000   0.000000  -0.000003
     9  F    0.000000   0.000000   0.000000   0.000000   0.000000  -0.004248
    10  C   -0.021796  -0.063890   0.002673   0.000131  -0.035377   0.232933
    11  O    0.000639  -0.000121  -0.000003   0.000702   0.000943  -0.046826
    12  C    0.000046   0.000065  -0.000003   0.000131   0.000486   0.000334
    13  F    0.000000  -0.000013   0.000000   0.000000  -0.000010  -0.000003
    14  F    0.000000  -0.000003   0.000000   0.000000   0.000000  -0.000024
    15  C    0.000122   0.000200   0.000001  -0.000021   0.002316   0.001535
    16  F   -0.000010  -0.000059   0.000000   0.000001  -0.002605   0.000000
    17  F    0.000000   0.000000   0.000000   0.000000   0.000000  -0.000001
    18  C    0.248994   0.239310  -0.072447  -0.051265   0.273934  -0.034088
    19  F    9.112000  -0.028260   0.002363   0.000695  -0.039360  -0.000149
    20  C   -0.028260   4.534787   0.261024   0.559536  -0.028272   0.007702
    21  O    0.002363   0.261024   8.091372  -0.095652   0.000590  -0.000306
    22  O    0.000695   0.559536  -0.095652   8.017786  -0.001373  -0.000110
    23  F   -0.039360  -0.028272   0.000590  -0.001373   9.088734   0.000328
    24  F   -0.000149   0.007702  -0.000306  -0.000110   0.000328   9.143522
    25  H   -0.000114  -0.013052   0.282317   0.008955  -0.000042   0.000058
              25
     1  F    0.000000
     2  C    0.000011
     3  C    0.000000
     4  F    0.000000
     5  C    0.000000
     6  F    0.000000
     7  F    0.000000
     8  F    0.000000
     9  F    0.000000
    10  C   -0.000213
    11  O   -0.000006
    12  C    0.000000
    13  F    0.000000
    14  F    0.000000
    15  C    0.000000
    16  F    0.000000
    17  F    0.000000
    18  C    0.007604
    19  F   -0.000114
    20  C   -0.013052
    21  O    0.282317
    22  O    0.008955
    23  F   -0.000042
    24  F    0.000058
    25  H    0.353356
 Mulliken charges:
               1
     1  F   -0.283738
     2  C    0.131660
     3  C    0.526854
     4  F   -0.267267
     5  C    0.789385
     6  F   -0.248595
     7  F   -0.238357
     8  F   -0.245160
     9  F   -0.255685
    10  C    0.477026
    11  O   -0.488029
    12  C    0.750554
    13  F   -0.241646
    14  F   -0.238649
    15  C    0.552483
    16  F   -0.262915
    17  F   -0.247145
    18  C    0.620244
    19  F   -0.270930
    20  C    0.526954
    21  O   -0.471782
    22  O   -0.439468
    23  F   -0.263491
    24  F   -0.273429
    25  H    0.361126
 Sum of Mulliken charges =   0.00000
 Mulliken charges with hydrogens summed into heavy atoms:
               1
     1  F   -0.283738
     2  C    0.131660
     3  C    0.526854
     4  F   -0.267267
     5  C    0.789385
     6  F   -0.248595
     7  F   -0.238357
     8  F   -0.245160
     9  F   -0.255685
    10  C    0.477026
    11  O   -0.488029
    12  C    0.750554
    13  F   -0.241646
    14  F   -0.238649
    15  C    0.552483
    16  F   -0.262915
    17  F   -0.247145
    18  C    0.620244
    19  F   -0.270930
    20  C    0.526954
    21  O   -0.110656
    22  O   -0.439468
    23  F   -0.263491
    24  F   -0.273429
 Electronic spatial extent (au):  <R**2>=           5479.3512
 Charge=              0.0000 electrons
 Dipole moment (field-independent basis, Debye):
    X=             -0.4196    Y=             -1.3129    Z=              0.8010  Tot=              1.5942
 Quadrupole moment (field-independent basis, Debye-Ang):
   XX=           -126.2047   YY=           -122.3470   ZZ=           -126.2308
   XY=              9.3106   XZ=             -4.3512   YZ=             -2.1448
 Traceless Quadrupole moment (field-independent basis, Debye-Ang):
   XX=             -1.2772   YY=              2.5805   ZZ=             -1.3033
   XY=              9.3106   XZ=             -4.3512   YZ=             -2.1448
 Octapole moment (field-independent basis, Debye-Ang**2):
  XXX=            -41.6255  YYY=            -45.8017  ZZZ=             14.5620  XYY=            -38.9722
  XXY=            -48.1379  XXZ=             20.6687  XZZ=            -18.1019  YZZ=            -16.2208
  YYZ=              7.8828  XYZ=              8.5797
 Hexadecapole moment (field-independent basis, Debye-Ang**3):
 XXXX=          -2754.3292 YYYY=          -1911.4763 ZZZZ=           -935.1698 XXXY=             16.5724
 XXXZ=           -299.3978 YYYX=            -55.8293 YYYZ=             83.7520 ZZZX=           -228.5158
 ZZZY=            101.3655 XXYY=           -666.5998 XXZZ=           -590.1422 YYZZ=           -470.7075
 XXYZ=             -3.9664 YYXZ=            -98.1569 ZZXY=            -25.4443
 N-N= 2.870101282393D+03 E-N=-1.007029651505D+04  KE= 1.815896409959D+03
 No NMR shielding tensors so no spin-rotation constants.
 Leave Link  601 at Wed Feb  5 01:19:15 2025, MaxMem=  5368709120 cpu:         3.2
 (Enter /home/k0335/k033513/app/g09/l701.exe)
 Compute integral first derivatives.
 ... and contract with generalized density number  0.
 D1PCM: PCM CHGder 1st derivatives, ID1Alg=3 FixD1E=F DoIter=F DoCFld=F I1PDM=0.
 GePol: Maximum number of non-zero 1st derivatives   =     205
 Leave Link  701 at Wed Feb  5 01:19:15 2025, MaxMem=  5368709120 cpu:        14.0
 (Enter /home/k0335/k033513/app/g09/l702.exe)
 L702 exits ... SP integral derivatives will be done elsewhere.
 Leave Link  702 at Wed Feb  5 01:19:16 2025, MaxMem=  5368709120 cpu:         0.1
 (Enter /home/k0335/k033513/app/g09/l703.exe)
 Compute integral first derivatives, UseDBF=F ICtDFT=           0.
 Integral derivatives from FoFJK, PRISM(SPDF).
 Calling FoFJK, ICntrl=      2127 FMM=F ISym2X=0 I1Cent= 0 IOpClX= 0 NMat=1 NMatS=1 NMatT=0.
 FoFJK:  IHMeth= 1 ICntrl=    2127 DoSepK=T KAlg= 0 I1Cent=   0 FoldK=F
 IRaf=         1 NMat=   1 IRICut=       1 DoRegI=T DoRafI=F ISym2E= 0.
 FoFCou: FMM=F IPFlag=           0 FMFlag=      100000 FMFlg1=         800
         NFxFlg=           0 DoJE=F BraDBF=F KetDBF=F FulRan=T
         wScrn=  0.000000 ICntrl=    2527 IOpCl=  0 I1Cent=           0 NGrid=           0
         NMat0=    1 NMatS0=      1 NMatT0=    0 NMatD0=    1 NMtDS0=    0 NMtDT0=    0
 Symmetry not used in FoFCou.
 Leave Link  703 at Wed Feb  5 01:19:21 2025, MaxMem=  5368709120 cpu:       121.4
 (Enter /home/k0335/k033513/app/g09/l716.exe)
 Dipole        =-1.65071342D-01-5.16549853D-01 3.15139128D-01
 -------------------------------------------------------------------
 Center     Atomic                   Forces (Hartrees/Bohr)
 Number     Number              X              Y              Z
 -------------------------------------------------------------------
      1        9           0.000405735    0.000832520   -0.001290885
      2        6          -0.001250973   -0.002207314   -0.011041802
      3        6           0.016972305    0.020541488    0.012738413
      4        9          -0.003837338   -0.019601597    0.003276179
      5        6           0.025336434   -0.041229117    0.011909948
      6        9          -0.016423619    0.008632635   -0.013706266
      7        9           0.016537486    0.011798459   -0.006210418
      8        9          -0.007968952    0.014535500    0.012725959
      9        9           0.009439675   -0.019217877   -0.003514212
     10        6          -0.010171677    0.006401140    0.024356776
     11        8           0.035284984   -0.004402748   -0.035436589
     12        6          -0.041554253    0.017269803    0.026283362
     13        9           0.010395646   -0.013522626    0.002657306
     14        9          -0.002465028    0.008583037   -0.015238610
     15        6           0.006902476    0.016505767   -0.030489953
     16        9           0.005466495    0.005412198    0.013946303
     17        9          -0.008579299    0.002885375    0.006435934
     18        6           0.008750986   -0.004992625   -0.019825947
     19        9          -0.013596717    0.007154230    0.014145225
     20        6          -0.058936654   -0.015784509    0.017731536
     21        8           0.008619165    0.011847711   -0.011048855
     22        8           0.039465736   -0.001958050   -0.010174380
     23        9          -0.010214042   -0.008178106    0.020015679
     24        9          -0.017568184   -0.003258166   -0.005655412
     25        1           0.008989613    0.001952870   -0.002589291
 -------------------------------------------------------------------
 Cartesian Forces:  Max     0.058936654 RMS     0.017119804
 Leave Link  716 at Wed Feb  5 01:19:21 2025, MaxMem=  5368709120 cpu:         0.2
 (Enter /home/k0335/k033513/app/g09/l103.exe)

 GradGradGradGradGradGradGradGradGradGradGradGradGradGradGradGradGradGrad
 Berny optimization.
 FormGI is forming the generalized inverse of G from B-inverse, IUseBI=4.
 Internal  Forces:  Max     0.039671121 RMS     0.012357162
 Search for a local minimum.
 Step number   1 out of a maximum of  150
 All quantities printed in internal units (Hartrees-Bohrs-Radians)
 RMS Force = .12357D-01 SwitMx=.10000D-02 MixMth= 1
 Mixed Optimization -- RFO/linear search
 Second derivative matrix not updated -- first step.
 ITU=  0
     Eigenvalues ---    0.00274   0.00325   0.00465   0.00499   0.00646
     Eigenvalues ---    0.00875   0.00975   0.02319   0.03801   0.04785
     Eigenvalues ---    0.05260   0.05623   0.05740   0.06537   0.06539
     Eigenvalues ---    0.06758   0.06999   0.07798   0.07857   0.08016
     Eigenvalues ---    0.08342   0.08625   0.09539   0.10248   0.10775
     Eigenvalues ---    0.11536   0.13044   0.13560   0.14545   0.16000
     Eigenvalues ---    0.17494   0.17613   0.18779   0.19122   0.19383
     Eigenvalues ---    0.19465   0.23223   0.24999   0.25000   0.25000
     Eigenvalues ---    0.25000   0.25000   0.25000   0.25000   0.27362
     Eigenvalues ---    0.28772   0.29119   0.30103   0.30208   0.30352
     Eigenvalues ---    0.30638   0.37832   0.39776   0.51041   0.51630
     Eigenvalues ---    0.51712   0.52264   0.52569   0.53045   0.53190
     Eigenvalues ---    0.53633   0.53949   0.54128   0.54479   0.55145
     Eigenvalues ---    0.55536   0.55901   0.56907   0.94150
 RFO step:  Lambda=-7.26930523D-02 EMin= 2.74437602D-03
 Linear search not attempted -- first point.
 Maximum step size (   0.300) exceeded in Quadratic search.
    -- Step size scaled by   0.746
 Iteration  1 RMS(Cart)=  0.12289776 RMS(Int)=  0.00434522
 Iteration  2 RMS(Cart)=  0.00553621 RMS(Int)=  0.00061599
 Iteration  3 RMS(Cart)=  0.00001773 RMS(Int)=  0.00061585
 Iteration  4 RMS(Cart)=  0.00000001 RMS(Int)=  0.00061585
 ITry= 1 IFail=0 DXMaxC= 5.63D-01 DCOld= 1.00D+10 DXMaxT= 3.00D-01 DXLimC= 3.00D+00 Rises=F
 Variable       Old X    -DE/DX   Delta X   Delta X   Delta X     New X
                                 (Linear)    (Quad)   (Total)
    R1        2.56912   0.00059   0.00000   0.00073   0.00073   2.56985
    R2        2.87267   0.03967   0.00000   0.07867   0.07867   2.95134
    R3        2.90308   0.03547   0.00000   0.07585   0.07599   2.97907
    R4        2.84301   0.03909   0.00000   0.07816   0.07817   2.92118
    R5        2.58176  -0.01551   0.00000  -0.01961  -0.01961   2.56214
    R6        2.89755   0.01340   0.00000   0.02747   0.02747   2.92502
    R7        2.56367  -0.01446   0.00000  -0.01771  -0.01771   2.54596
    R8        2.56078  -0.02070   0.00000  -0.02523  -0.02523   2.53555
    R9        2.55003  -0.02101   0.00000  -0.02512  -0.02512   2.52492
   R10        2.55916  -0.01947   0.00000  -0.02366  -0.02366   2.53549
   R11        2.72545  -0.01305   0.00000  -0.02197  -0.02182   2.70362
   R12        2.90480   0.00954   0.00000   0.01976   0.01976   2.92456
   R13        2.56777  -0.00567   0.00000  -0.00700  -0.00700   2.56077
   R14        2.69146  -0.01758   0.00000  -0.02943  -0.02948   2.66198
   R15        2.54340  -0.01677   0.00000  -0.01981  -0.01981   2.52359
   R16        2.54659  -0.01020   0.00000  -0.01212  -0.01212   2.53447
   R17        2.85317   0.00856   0.00000   0.01475   0.01451   2.86767
   R18        2.57648  -0.01548   0.00000  -0.01939  -0.01939   2.55708
   R19        2.53475  -0.00606   0.00000  -0.00704  -0.00704   2.52771
   R20        2.58256  -0.01619   0.00000  -0.02050  -0.02050   2.56206
   R21        2.87758   0.00004   0.00000   0.00008   0.00008   2.87766
   R22        2.57359  -0.01982   0.00000  -0.02471  -0.02471   2.54888
   R23        2.55598  -0.01813   0.00000  -0.02190  -0.02190   2.53408
   R24        2.31077  -0.03455   0.00000  -0.02542  -0.02542   2.28536
   R25        1.85530  -0.00951   0.00000  -0.01217  -0.01217   1.84312
    A1        1.88726  -0.01413   0.00000  -0.04569  -0.04543   1.84183
    A2        1.97563   0.00624   0.00000   0.01540   0.01548   1.99111
    A3        1.90353   0.00096   0.00000  -0.01460  -0.01426   1.88928
    A4        1.96845   0.01077   0.00000   0.03271   0.03267   2.00112
    A5        1.97726   0.01400   0.00000   0.04667   0.04715   2.02441
    A6        1.75014  -0.01683   0.00000  -0.03098  -0.03210   1.71804
    A7        1.90704  -0.00175   0.00000  -0.00170  -0.00008   1.90696
    A8        1.96765   0.02813   0.00000   0.06418   0.06440   2.03205
    A9        1.93036   0.00003   0.00000   0.02108   0.02132   1.95169
   A10        1.88137  -0.02286   0.00000  -0.07676  -0.07707   1.80430
   A11        1.83950   0.00972   0.00000   0.02410   0.02208   1.86157
   A12        1.93264  -0.01506   0.00000  -0.03611  -0.03797   1.89467
   A13        1.94116  -0.01790   0.00000  -0.04512  -0.04542   1.89574
   A14        1.97449   0.01189   0.00000   0.03188   0.03216   2.00665
   A15        1.94780  -0.01051   0.00000  -0.02490  -0.02533   1.92247
   A16        1.86904   0.00426   0.00000   0.01111   0.01151   1.88055
   A17        1.86303   0.01068   0.00000   0.01631   0.01523   1.87826
   A18        1.86220   0.00291   0.00000   0.01352   0.01366   1.87586
   A19        1.89833  -0.01108   0.00000  -0.02079  -0.01980   1.87854
   A20        1.97233   0.02346   0.00000   0.06118   0.06098   2.03332
   A21        1.91207   0.00942   0.00000   0.04691   0.04795   1.96002
   A22        1.95169  -0.01032   0.00000  -0.03760  -0.03760   1.91409
   A23        1.83309   0.00812   0.00000   0.01160   0.00976   1.84285
   A24        1.89094  -0.02030   0.00000  -0.06311  -0.06490   1.82605
   A25        1.86363   0.03538   0.00000   0.07970   0.07962   1.94326
   A26        1.90526   0.00674   0.00000   0.01295   0.01261   1.91787
   A27        1.86717   0.01406   0.00000   0.04470   0.04462   1.91180
   A28        1.86688  -0.01690   0.00000  -0.03945  -0.03970   1.82718
   A29        1.87635  -0.00292   0.00000  -0.00745  -0.00778   1.86858
   A30        1.98062   0.00057   0.00000  -0.00811  -0.00824   1.97237
   A31        1.96390  -0.00026   0.00000   0.00153   0.00199   1.96589
   A32        1.78963   0.01142   0.00000   0.04222   0.04220   1.83183
   A33        1.89765  -0.00477   0.00000  -0.01723  -0.01671   1.88094
   A34        2.01184   0.00470   0.00000   0.02387   0.02403   2.03587
   A35        1.90223  -0.00745   0.00000  -0.03593  -0.03608   1.86615
   A36        2.00853  -0.00803   0.00000  -0.02022  -0.02141   1.98712
   A37        1.85107   0.00319   0.00000   0.00311   0.00260   1.85366
   A38        1.90037  -0.00240   0.00000  -0.00297  -0.00307   1.89731
   A39        1.90917   0.00721   0.00000   0.00999   0.01009   1.91926
   A40        1.91553   0.00611   0.00000   0.02427   0.02429   1.93982
   A41        1.94939  -0.00717   0.00000  -0.02739  -0.02749   1.92191
   A42        1.84375   0.00820   0.00000   0.03363   0.03304   1.87680
   A43        1.94431  -0.01176   0.00000  -0.03589  -0.03599   1.90833
   A44        1.99218  -0.01535   0.00000  -0.03551  -0.03552   1.95667
   A45        2.20793  -0.01742   0.00000  -0.04029  -0.04030   2.16763
   A46        2.08303   0.03276   0.00000   0.07573   0.07571   2.15875
   A47        1.83544  -0.00024   0.00000  -0.00078  -0.00078   1.83465
    D1        1.32035  -0.00385   0.00000   0.00887   0.00904   1.32939
    D2       -0.77115   0.00808   0.00000   0.06552   0.06591  -0.70524
    D3       -2.94552   0.00691   0.00000   0.04899   0.04850  -2.89703
    D4       -2.76461   0.00119   0.00000   0.01747   0.01705  -2.74755
    D5        1.42708   0.01312   0.00000   0.07413   0.07392   1.50100
    D6       -0.74729   0.01194   0.00000   0.05760   0.05651  -0.69078
    D7       -0.79162  -0.00415   0.00000   0.02935   0.03005  -0.76157
    D8       -2.88312   0.00778   0.00000   0.08600   0.08692  -2.79620
    D9        1.22570   0.00660   0.00000   0.06947   0.06950   1.29520
   D10       -2.47551   0.01113   0.00000   0.07167   0.07146  -2.40405
   D11       -0.29721   0.00603   0.00000   0.05061   0.05005  -0.24715
   D12        1.81301   0.00247   0.00000   0.04417   0.04516   1.85817
   D13        1.65785   0.01671   0.00000   0.09511   0.09445   1.75230
   D14       -2.44703   0.01161   0.00000   0.07404   0.07305  -2.37399
   D15       -0.33682   0.00806   0.00000   0.06761   0.06816  -0.26866
   D16       -0.45042   0.00529   0.00000   0.04350   0.04292  -0.40749
   D17        1.72789   0.00019   0.00000   0.02243   0.02152   1.74941
   D18       -2.44508  -0.00336   0.00000   0.01600   0.01663  -2.42845
   D19        2.70900  -0.00281   0.00000  -0.03842  -0.03881   2.67019
   D20        0.69661   0.00207   0.00000  -0.01104  -0.01091   0.68570
   D21       -1.37829  -0.00160   0.00000  -0.01797  -0.01746  -1.39574
   D22       -1.47143  -0.01093   0.00000  -0.07617  -0.07654  -1.54797
   D23        2.79937  -0.00605   0.00000  -0.04879  -0.04864   2.75073
   D24        0.72448  -0.00971   0.00000  -0.05573  -0.05519   0.66929
   D25        0.63050  -0.00190   0.00000  -0.03462  -0.03548   0.59502
   D26       -1.38188   0.00298   0.00000  -0.00724  -0.00758  -1.38946
   D27        2.82641  -0.00069   0.00000  -0.01418  -0.01413   2.81228
   D28       -3.10797  -0.00418   0.00000  -0.01931  -0.01903  -3.12700
   D29       -1.00358  -0.00328   0.00000  -0.01524  -0.01543  -1.01901
   D30        1.09676   0.00129   0.00000   0.00681   0.00636   1.10312
   D31        1.06897  -0.00398   0.00000  -0.00507  -0.00355   1.06542
   D32       -3.10983  -0.00309   0.00000  -0.00100   0.00006  -3.10977
   D33       -1.00949   0.00148   0.00000   0.02105   0.02184  -0.98765
   D34       -0.93484   0.00531   0.00000   0.02867   0.02807  -0.90677
   D35        1.16955   0.00621   0.00000   0.03274   0.03168   1.20123
   D36       -3.01329   0.01077   0.00000   0.05479   0.05346  -2.95983
   D37        0.06977   0.00161   0.00000  -0.01176  -0.01210   0.05767
   D38       -2.12063  -0.01318   0.00000  -0.04875  -0.04960  -2.17023
   D39        2.11543   0.01147   0.00000   0.03873   0.03900   2.15443
   D40        0.97772   0.01234   0.00000   0.05401   0.05363   1.03134
   D41        3.11243   0.00652   0.00000   0.02465   0.02416   3.13659
   D42       -1.03265   0.00053   0.00000   0.00220   0.00167  -1.03098
   D43        3.12673   0.00747   0.00000   0.04381   0.04307  -3.11338
   D44       -1.02175   0.00165   0.00000   0.01446   0.01361  -1.00814
   D45        1.11637  -0.00434   0.00000  -0.00799  -0.00889   1.10748
   D46       -1.14445  -0.00058   0.00000  -0.00085   0.00053  -1.14392
   D47        0.99026  -0.00640   0.00000  -0.03021  -0.02893   0.96133
   D48        3.12837  -0.01240   0.00000  -0.05266  -0.05143   3.07694
   D49        2.49863  -0.00840   0.00000  -0.04130  -0.04151   2.45711
   D50       -1.75915  -0.00085   0.00000  -0.01949  -0.01877  -1.77793
   D51        0.34903  -0.00269   0.00000  -0.01488  -0.01487   0.33416
   D52       -0.63624   0.00420   0.00000   0.03547   0.03585  -0.60039
   D53        1.37283   0.00130   0.00000   0.02177   0.02165   1.39448
   D54       -2.83429  -0.00525   0.00000  -0.01348  -0.01291  -2.84720
   D55       -2.73838   0.00698   0.00000   0.05119   0.05125  -2.68713
   D56       -0.72932   0.00408   0.00000   0.03749   0.03706  -0.69227
   D57        1.34675  -0.00246   0.00000   0.00224   0.00249   1.34925
   D58        1.40924   0.01064   0.00000   0.06614   0.06628   1.47553
   D59       -2.86488   0.00774   0.00000   0.05244   0.05209  -2.81279
   D60       -0.78881   0.00119   0.00000   0.01719   0.01753  -0.77128
   D61       -1.61091   0.00301   0.00000   0.01388   0.01374  -1.59717
   D62        1.52071   0.00219   0.00000   0.00598   0.00599   1.52670
   D63        0.49418   0.00022   0.00000  -0.00079  -0.00100   0.49318
   D64       -2.65738  -0.00060   0.00000  -0.00870  -0.00875  -2.66613
   D65        2.55144  -0.00187   0.00000   0.00006   0.00018   2.55163
   D66       -0.60011  -0.00268   0.00000  -0.00784  -0.00757  -0.60768
   D67       -3.12944  -0.00138   0.00000  -0.01069  -0.01093  -3.14036
   D68        0.02134  -0.00034   0.00000  -0.00274  -0.00250   0.01884
         Item               Value     Threshold  Converged?
 Maximum Force            0.039671     0.000450     NO 
 RMS     Force            0.012357     0.000300     NO 
 Maximum Displacement     0.563111     0.001800     NO 
 RMS     Displacement     0.122884     0.001200     NO 
 Predicted change in Energy=-4.115816D-02
 Lowest energy point so far.  Saving SCF results.
 GradGradGradGradGradGradGradGradGradGradGradGradGradGradGradGradGradGrad

 Leave Link  103 at Wed Feb  5 01:19:22 2025, MaxMem=  5368709120 cpu:        11.7
 (Enter /home/k0335/k033513/app/g09/l202.exe)
                          Input orientation:                          
 ---------------------------------------------------------------------
 Center     Atomic      Atomic             Coordinates (Angstroms)
 Number     Number       Type             X           Y           Z
 ---------------------------------------------------------------------
      1          9           0        1.284790   -0.426730   -1.424854
      2          6           0        0.804719    0.332368   -0.403754
      3          6           0        1.920170    0.316616    0.689262
      4          9           0        2.926126    1.144408    0.313652
      5          6           0        2.637013   -1.035254    0.922585
      6          9           0        3.544148   -0.876293    1.898363
      7          9           0        1.835712   -2.045703    1.272082
      8          9           0        3.294406   -1.407241   -0.186327
[...]
    22  O    2.258054   0.000000
    23  F    3.441463   2.688680   0.000000
    24  F    2.909479   3.592336   3.500693   0.000000
    25  H    0.972160   2.342310   4.159885   3.617419   0.000000
 Symmetry turned off by external request.
 Stoichiometry    C8HF13O3
 Framework group  C1[X(C8HF13O3)]
 Deg. of freedom    69
 Full point group                 C1      NOp   1
 Rotational constants (GHZ):      0.3063790      0.2850334      0.1927791
 Leave Link  202 at Wed Feb  5 01:51:06 2025, MaxMem=  5368709120 cpu:         0.7
 (Enter /home/k0335/k033513/app/g09/l601.exe)
 Copying SCF densities to generalized density rwf, IOpCl= 0 IROHF=0.

 **********************************************************************

            Population analysis using the SCF density.

 **********************************************************************

 Alpha  occ. eigenvalues --  -24.83365 -24.83283 -24.83236 -24.83230 -24.83150
 Alpha  occ. eigenvalues --  -24.83106 -24.83018 -24.82837 -24.82731 -24.82674
 Alpha  occ. eigenvalues --  -24.82666 -24.82477 -24.82109 -19.32222 -19.30652
 Alpha  occ. eigenvalues --  -19.25265 -10.54400 -10.52475 -10.48929 -10.48643
 Alpha  occ. eigenvalues --  -10.48045 -10.47276 -10.43793 -10.43062  -1.42946
 Alpha  occ. eigenvalues --   -1.41219  -1.39053  -1.38542  -1.38180  -1.35654
 Alpha  occ. eigenvalues --   -1.35003  -1.33621  -1.33400  -1.33100  -1.32346
 Alpha  occ. eigenvalues --   -1.32147  -1.31945  -1.22935  -1.22628  -1.13947
 Alpha  occ. eigenvalues --   -0.95106  -0.91572  -0.88312  -0.84350  -0.80352
 Alpha  occ. eigenvalues --   -0.77474  -0.75908  -0.73659  -0.72143  -0.71236
 Alpha  occ. eigenvalues --   -0.70235  -0.70048  -0.69605  -0.69102  -0.67503
 Alpha  occ. eigenvalues --   -0.67166  -0.66657  -0.66387  -0.65275  -0.64939
 Alpha  occ. eigenvalues --   -0.64107  -0.62347  -0.58630  -0.58249  -0.57847
 Alpha  occ. eigenvalues --   -0.56983  -0.56285  -0.56232  -0.55625  -0.55191
 Alpha  occ. eigenvalues --   -0.54916  -0.54677  -0.54311  -0.53931  -0.53785
 Alpha  occ. eigenvalues --   -0.53256  -0.52574  -0.52478  -0.52359  -0.51997
 Alpha  occ. eigenvalues --   -0.51534  -0.51261  -0.50912  -0.50628  -0.50264
 Alpha  occ. eigenvalues --   -0.49658  -0.49368  -0.49162  -0.47528  -0.46736
 Alpha  occ. eigenvalues --   -0.44548  -0.43247  -0.41780  -0.41732  -0.37606
 Alpha virt. eigenvalues --    0.00792   0.05279   0.09483   0.09793   0.11773
 Alpha virt. eigenvalues --    0.13356   0.15347   0.17971   0.18456   0.22072
 Alpha virt. eigenvalues --    0.23578   0.24565   0.25331   0.26227   0.26835
 Alpha virt. eigenvalues --    0.27894   0.28627   0.29888   0.30873   0.31023
 Alpha virt. eigenvalues --    0.31781   0.35111   0.35239   0.37827   0.38891
 Alpha virt. eigenvalues --    0.44395   0.46182   0.49097   0.50462   0.51061
 Alpha virt. eigenvalues --    0.51941   0.53594   0.54465   0.55521   0.56495
 Alpha virt. eigenvalues --    0.58331   0.59753   0.61872   0.63174   0.63966
 Alpha virt. eigenvalues --    0.65759   0.68010   0.68844   0.69231   0.71427
 Alpha virt. eigenvalues --    0.72270   0.73475   0.77257   0.77804   0.78772
 Alpha virt. eigenvalues --    0.80732   0.84393   0.88296   0.89864   0.92343
 Alpha virt. eigenvalues --    0.93405   0.94914   0.95547   0.96524   1.00585
 Alpha virt. eigenvalues --    1.03269   1.05473   1.07073   1.08231   1.09285
 Alpha virt. eigenvalues --    1.09832   1.10822   1.12630   1.13260   1.13674
 Alpha virt. eigenvalues --    1.14495   1.15847   1.16291   1.17629   1.19171
 Alpha virt. eigenvalues --    1.20496   1.21692   1.23058   1.24856   1.26928
 Alpha virt. eigenvalues --    1.28861   1.29774   1.30309   1.31593   1.32861
 Alpha virt. eigenvalues --    1.33407   1.34846   1.35582   1.36143   1.37491
 Alpha virt. eigenvalues --    1.38016   1.38396   1.38940   1.39718   1.39925
 Alpha virt. eigenvalues --    1.40291   1.41634   1.42289   1.43006   1.43371
 Alpha virt. eigenvalues --    1.43416   1.44514   1.46010   1.46614   1.47465
 Alpha virt. eigenvalues --    1.48640   1.49136   1.50285   1.51273   1.52051
 Alpha virt. eigenvalues --    1.52437   1.55031   1.56209   1.56755   1.57853
 Alpha virt. eigenvalues --    1.58693   1.59647   1.60877   1.61251   1.63612
 Alpha virt. eigenvalues --    1.66365   1.67975   1.68268   1.70264   1.70682
 Alpha virt. eigenvalues --    1.71413   1.71793   1.73436   1.74131   1.76241
 Alpha virt. eigenvalues --    1.76808   1.78567   1.79229   1.79721   1.80578
 Alpha virt. eigenvalues --    1.82034   1.83384   1.83849   1.84465   1.85769
 Alpha virt. eigenvalues --    1.87112   1.87372   1.87526   1.88019   1.88480
 Alpha virt. eigenvalues --    1.88803   1.89261   1.89980   1.90892   1.92076
 Alpha virt. eigenvalues --    1.93236   1.93668   1.95037   1.96886   1.97791
 Alpha virt. eigenvalues --    1.99619   2.00633   2.01862   2.02428   2.03217
 Alpha virt. eigenvalues --    2.03676   2.04461   2.04644   2.04941   2.06634
 Alpha virt. eigenvalues --    2.07184   2.08061   2.09129   2.09788   2.10595
 Alpha virt. eigenvalues --    2.11567   2.12822   2.13600   2.13859   2.15807
 Alpha virt. eigenvalues --    2.17277   2.19689   2.19940   2.22190   2.22616
 Alpha virt. eigenvalues --    2.23558   2.26775   2.28180   2.29909   2.31838
 Alpha virt. eigenvalues --    2.32364   2.33518   2.35524   2.37112   2.37836
 Alpha virt. eigenvalues --    2.38561   2.40067   2.42572   2.43531   2.46057
 Alpha virt. eigenvalues --    2.47505   2.48514   2.50361   2.51402   2.52711
 Alpha virt. eigenvalues --    2.54215   2.57885   2.58824   2.60437   2.60745
 Alpha virt. eigenvalues --    2.64117   2.65207   2.66679   2.70157   2.72930
 Alpha virt. eigenvalues --    2.74412   2.75611   2.77933   2.79156   2.81243
 Alpha virt. eigenvalues --    2.83915   2.85183   2.86323   2.88808   2.89355
 Alpha virt. eigenvalues --    2.90968   2.94119   2.94903   2.97160   2.97701
 Alpha virt. eigenvalues --    2.98685   3.01233   3.01379   3.03271   3.06652
 Alpha virt. eigenvalues --    3.09131   3.10753   3.12303   3.13849   3.14161
 Alpha virt. eigenvalues --    3.17494   3.17535   3.19941   3.21349   3.22603
 Alpha virt. eigenvalues --    3.25449   3.26871   3.30943   3.34583   3.48114
 Alpha virt. eigenvalues --    3.54525   3.92642   4.09993   4.20544   4.29478
 Alpha virt. eigenvalues --    4.34444   4.41958   4.49616   4.57372   4.66645
 Alpha virt. eigenvalues --    4.71323   4.75639   4.84452   4.95524   5.00338
 Alpha virt. eigenvalues --    5.14675   5.23384   5.27404   5.55653   5.63344
 Alpha virt. eigenvalues --    5.75740   6.06572   6.26333   6.79295   7.27864
          Condensed to atoms (all electrons):
               1          2          3          4          5          6
     1  F    9.130072   0.212225  -0.023554  -0.000389  -0.000087  -0.000001
     2  C    0.212225   5.520525   0.120754  -0.031192  -0.041309   0.002449
     3  C   -0.023554   0.120754   4.792212   0.226673   0.263066  -0.025661
     4  F   -0.000389  -0.031192   0.226673   9.119905  -0.016477  -0.000531
     5  C   -0.000087  -0.041309   0.263066  -0.016477   4.143768   0.300897
     6  F   -0.000001   0.002449  -0.025661  -0.000531   0.300897   9.043190
     7  F   -0.000031  -0.002433  -0.038145   0.000362   0.289889  -0.039439
     8  F    0.000543   0.005457  -0.040298  -0.000297   0.289841  -0.038562
     9  F    0.000344  -0.038312   0.229093  -0.031453  -0.016020  -0.000716
    10  C   -0.036138   0.171892  -0.031139   0.002088  -0.006295  -0.000003
    11  O    0.000596  -0.022902   0.001732  -0.000007   0.000018   0.000000
    12  C    0.001496  -0.087810   0.001494   0.000202  -0.000094   0.000000
    13  F   -0.000002   0.001809  -0.000011   0.000000   0.000000   0.000000
    14  F   -0.000001  -0.000955   0.000368   0.000000   0.000000   0.000000
    15  C   -0.014788   0.184565  -0.030097   0.005717   0.002469  -0.000030
    16  F   -0.002069  -0.028395   0.000324  -0.000075  -0.000016   0.000000
    17  F    0.000260  -0.046136   0.019434  -0.001969   0.000207   0.000000
    18  C    0.018323  -0.045176  -0.001255   0.000003   0.001550   0.000000
    19  F   -0.002146   0.008002  -0.003638   0.000001   0.008798   0.000001
    20  C    0.000187   0.004317   0.000021   0.000000  -0.000038   0.000000
    21  O    0.000000  -0.000148   0.000001   0.000000   0.000005   0.000000
    22  O    0.000000  -0.000041   0.000001   0.000000   0.000000   0.000000
    23  F   -0.001101   0.002310   0.000095   0.000000   0.000003   0.000000
    24  F    0.000361  -0.035256   0.010743   0.000003  -0.001239   0.000001
    25  H    0.000000   0.000010   0.000000   0.000000   0.000000   0.000000
               7          8          9         10         11         12
     1  F   -0.000031   0.000543   0.000344  -0.036138   0.000596   0.001496
     2  C   -0.002433   0.005457  -0.038312   0.171892  -0.022902  -0.087810
     3  C   -0.038145  -0.040298   0.229093  -0.031139   0.001732   0.001494
     4  F    0.000362  -0.000297  -0.031453   0.002088  -0.000007   0.000202
     5  C    0.289889   0.289841  -0.016020  -0.006295   0.000018  -0.000094
     6  F   -0.039439  -0.038562  -0.000716  -0.000003   0.000000   0.000000
     7  F    9.056494  -0.037623   0.000009   0.007975   0.000004   0.000000
     8  F   -0.037623   9.059361   0.000351  -0.001216   0.000000  -0.000002
     9  F    0.000009   0.000351   9.116535   0.004001  -0.000106  -0.000115
    10  C    0.007975  -0.001216   0.004001   4.966615   0.146650  -0.000485
    11  O    0.000004   0.000000  -0.000106   0.146650   8.376498   0.198605
    12  C    0.000000  -0.000002  -0.000115  -0.000485   0.198605   4.323653
    13  F    0.000000   0.000000   0.000000   0.001278  -0.044024   0.325634
    14  F    0.000000   0.000000   0.000081   0.007413  -0.048412   0.273537
    15  C   -0.000006   0.000063   0.005710  -0.051621  -0.049275   0.255555
    16  F    0.000000   0.000000   0.000004   0.001345   0.000084  -0.025725
    17  F    0.000000   0.000000  -0.002060   0.002231   0.000912  -0.025769
    18  C   -0.000646   0.000407   0.000088   0.230626  -0.038803   0.000447
    19  F   -0.000226  -0.000079   0.000001  -0.034328   0.000847  -0.000011
    20  C   -0.000099  -0.000003   0.000002  -0.057011   0.000281  -0.000125
    21  O    0.000037   0.000000   0.000000   0.002619   0.000066   0.000001
    22  O    0.000000   0.000000   0.000000   0.001300   0.000860   0.000115
    23  F    0.000000   0.000000   0.000000  -0.037867   0.002117   0.000303
    24  F   -0.000163   0.000005  -0.001121   0.236173  -0.046355   0.003218
    25  H    0.000000   0.000000   0.000000  -0.000285  -0.000006  -0.000001
              13         14         15         16         17         18
     1  F   -0.000002  -0.000001  -0.014788  -0.002069   0.000260   0.018323
     2  C    0.001809  -0.000955   0.184565  -0.028395  -0.046136  -0.045176
     3  C   -0.000011   0.000368  -0.030097   0.000324   0.019434  -0.001255
     4  F    0.000000   0.000000   0.005717  -0.000075  -0.001969   0.000003
     5  C    0.000000   0.000000   0.002469  -0.000016   0.000207   0.001550
     6  F    0.000000   0.000000  -0.000030   0.000000   0.000000   0.000000
     7  F    0.000000   0.000000  -0.000006   0.000000   0.000000  -0.000646
     8  F    0.000000   0.000000   0.000063   0.000000   0.000000   0.000407
     9  F    0.000000   0.000081   0.005710   0.000004  -0.002060   0.000088
    10  C    0.001278   0.007413  -0.051621   0.001345   0.002231   0.230626
    11  O   -0.044024  -0.048412  -0.049275   0.000084   0.000912  -0.038803
    12  C    0.325634   0.273537   0.255555  -0.025725  -0.025769   0.000447
    13  F    9.018384  -0.040450  -0.027507   0.000199   0.000002  -0.000027
    14  F   -0.040450   9.088618  -0.030787   0.000405   0.000358   0.000055
    15  C   -0.027507  -0.030787   4.679076   0.259543   0.272184   0.002569
    16  F    0.000199   0.000405   0.259543   9.081648  -0.036542  -0.000014
    17  F    0.000002   0.000358   0.272184  -0.036542   9.065271  -0.000018
    18  C   -0.000027   0.000055   0.002569  -0.000014  -0.000018   4.633904
    19  F    0.000000   0.000000   0.000121   0.000000   0.000000   0.252111
    20  C   -0.000002  -0.000006  -0.000033  -0.000001   0.000000   0.261427
    21  O    0.000000   0.000000   0.000000   0.000000   0.000000  -0.086105
    22  O    0.000000   0.000000  -0.000007   0.000000   0.000000  -0.065466
    23  F   -0.000001   0.000000  -0.000411   0.000002   0.000000   0.271601
    24  F   -0.000004  -0.000117  -0.000691  -0.000001  -0.000002  -0.036251
    25  H    0.000000   0.000000   0.000000   0.000000   0.000000   0.008186
              19         20         21         22         23         24
     1  F   -0.002146   0.000187   0.000000   0.000000  -0.001101   0.000361
     2  C    0.008002   0.004317  -0.000148  -0.000041   0.002310  -0.035256
     3  C   -0.003638   0.000021   0.000001   0.000001   0.000095   0.010743
     4  F    0.000001   0.000000   0.000000   0.000000   0.000000   0.000003
     5  C    0.008798  -0.000038   0.000005   0.000000   0.000003  -0.001239
     6  F    0.000001   0.000000   0.000000   0.000000   0.000000   0.000001
     7  F   -0.000226  -0.000099   0.000037   0.000000   0.000000  -0.000163
     8  F   -0.000079  -0.000003   0.000000   0.000000   0.000000   0.000005
     9  F    0.000001   0.000002   0.000000   0.000000   0.000000  -0.001121
    10  C   -0.034328  -0.057011   0.002619   0.001300  -0.037867   0.236173
    11  O    0.000847   0.000281   0.000066   0.000860   0.002117  -0.046355
    12  C   -0.000011  -0.000125   0.000001   0.000115   0.000303   0.003218
    13  F    0.000000  -0.000002   0.000000   0.000000  -0.000001  -0.000004
    14  F    0.000000  -0.000006   0.000000   0.000000   0.000000  -0.000117
    15  C    0.000121  -0.000033   0.000000  -0.000007  -0.000411  -0.000691
    16  F    0.000000  -0.000001   0.000000   0.000000   0.000002  -0.000001
    17  F    0.000000   0.000000   0.000000   0.000000   0.000000  -0.000002
    18  C    0.252111   0.261427  -0.086105  -0.065466   0.271601  -0.036251
    19  F    9.101197  -0.030782   0.003041   0.000865  -0.033730   0.000220
    20  C   -0.030782   4.491492   0.259353   0.579150  -0.030528   0.009445
    21  O    0.003041   0.259353   8.074849  -0.078432   0.000774  -0.000444
    22  O    0.000865   0.579150  -0.078432   7.983804  -0.001349  -0.000173
    23  F   -0.033730  -0.030528   0.000774  -0.001349   9.088084   0.000352
    24  F    0.000220   0.009445  -0.000444  -0.000173   0.000352   9.139623
    25  H   -0.000139  -0.010495   0.284440   0.004491  -0.000053   0.000075
              25
     1  F    0.000000
     2  C    0.000010
     3  C    0.000000
     4  F    0.000000
     5  C    0.000000
     6  F    0.000000
     7  F    0.000000
     8  F    0.000000
     9  F    0.000000
    10  C   -0.000285
    11  O   -0.000006
    12  C   -0.000001
    13  F    0.000000
    14  F    0.000000
    15  C    0.000000
    16  F    0.000000
    17  F    0.000000
    18  C    0.008186
    19  F   -0.000139
    20  C   -0.010495
    21  O    0.284440
    22  O    0.004491
    23  F   -0.000053
    24  F    0.000075
    25  H    0.355392
 Mulliken charges:
               1
     1  F   -0.284099
     2  C    0.145750
     3  C    0.527787
     4  F   -0.272563
     5  C    0.781063
     6  F   -0.241597
     7  F   -0.235960
     8  F   -0.237947
     9  F   -0.266316
    10  C    0.474182
    11  O   -0.479379
    12  C    0.755877
    13  F   -0.235278
    14  F   -0.250108
    15  C    0.537681
    16  F   -0.250715
    17  F   -0.248362
    18  C    0.592461
    19  F   -0.270126
    20  C    0.523446
    21  O   -0.460058
    22  O   -0.425117
    23  F   -0.260602
    24  F   -0.278403
    25  H    0.358384
 Sum of Mulliken charges =   0.00000
 Mulliken charges with hydrogens summed into heavy atoms:
               1
     1  F   -0.284099
     2  C    0.145750
     3  C    0.527787
     4  F   -0.272563
     5  C    0.781063
     6  F   -0.241597
     7  F   -0.235960
     8  F   -0.237947
     9  F   -0.266316
    10  C    0.474182
    11  O   -0.479379
    12  C    0.755877
    13  F   -0.235278
    14  F   -0.250108
    15  C    0.537681
    16  F   -0.250715
    17  F   -0.248362
    18  C    0.592461
    19  F   -0.270126
    20  C    0.523446
    21  O   -0.101674
    22  O   -0.425117
    23  F   -0.260602
    24  F   -0.278403
 Electronic spatial extent (au):  <R**2>=           5552.0462
 Charge=              0.0000 electrons
 Dipole moment (field-independent basis, Debye):
    X=             -0.6417    Y=             -1.4727    Z=              1.5698  Tot=              2.2461
 Quadrupole moment (field-independent basis, Debye-Ang):
   XX=           -126.7213   YY=           -119.8335   ZZ=           -125.6563
   XY=              7.3372   XZ=             -7.0058   YZ=             -3.7057
 Traceless Quadrupole moment (field-independent basis, Debye-Ang):
   XX=             -2.6509   YY=              4.2368   ZZ=             -1.5859
   XY=              7.3372   XZ=             -7.0058   YZ=             -3.7057
 Octapole moment (field-independent basis, Debye-Ang**2):
  XXX=            -29.3203  YYY=            -54.8098  ZZZ=             23.6995  XYY=            -38.9692
  XXY=            -39.8850  XXZ=             33.4726  XZZ=            -18.5549  YZZ=            -18.8152
  YYZ=             13.5048  XYZ=             13.9997
 Hexadecapole moment (field-independent basis, Debye-Ang**3):
 XXXX=          -2654.8412 YYYY=          -2186.1078 ZZZZ=           -830.4485 XXXY=             -9.7391
 XXXZ=           -275.9735 YYYX=             -5.8744 YYYZ=            117.5764 ZZZX=           -180.3639
 ZZZY=            136.7482 XXYY=           -706.5177 XXZZ=           -543.9426 YYZZ=           -500.3440
 XXYZ=            -10.5721 YYXZ=            -93.1149 ZZXY=             -6.5430
 N-N= 2.853127006262D+03 E-N=-1.003703892405D+04  KE= 1.816237127331D+03
 No NMR shielding tensors so no spin-rotation constants.
 Leave Link  601 at Wed Feb  5 01:51:06 2025, MaxMem=  5368709120 cpu:         2.8
 (Enter /home/k0335/k033513/app/g09/l9999.exe)
 1\1\GINC-C18U02N4\FOpt\RCAM-B3LYP\6-31G(d,p)\C8H1F13O3\K033513\05-Feb-
 2025\0\\#p CAM-B3LYP/6-31G(d,p) opt SCRF=(PCM,Solvent=Generic,Read) No
 Symm out=wfn\\Title A1_neu\\0,1\F,1.0653785065,-0.0930108373,-1.659295
 2565\C,0.7663471713,0.5021822063,-0.4709965189\C,1.934028901,0.2199670
 79,0.492541808\F,3.0400771409,0.7292174615,-0.0925926852\C,2.274129428
 3,-1.2531405108,0.8092654063\F,3.3989510162,-1.2709113935,1.5227975982
 \F,1.3127267271,-1.8359587613,1.5189157172\F,2.4660957498,-1.937360494
 2,-0.3157445138\F,1.7132983188,0.856072065,1.6577711305\C,-0.659292527
 1,0.0676972546,-0.0038946746\O,-1.5172107623,1.1221341446,-0.287609655
 4\C,-0.8495524951,2.3277380528,-0.2133636184\F,-1.4879040925,3.2172182
 507,-0.9588310544\F,-0.803615949,2.7703982547,1.0518370357\C,0.5798323
 057,2.0375200296,-0.7170885535\F,0.6348835174,2.2769187137,-2.03284931
 19\F,1.4746580165,2.8120516193,-0.0916634644\C,-1.2228031942,-1.188610
 8485,-0.6981463772\F,-0.302831436,-2.1721401194,-0.6051146129\C,-2.550
 7239568,-1.6394485154,-0.0574356041\O,-2.3402369991,-2.5086275933,0.92
 34071032\O,-3.6113537907,-1.2190023043,-0.4256427886\F,-1.4469303611,-
 0.910398416,-1.9905822775\F,-0.6649759332,-0.1665439876,1.3395947326\H
 ,-3.2029743024,-2.7439593501,1.3047184356\\Version=ES64L-G09RevD.01\HF
 =-1828.544448\RMSD=7.592e-09\RMSF=1.638e-05\Dipole=-0.2524547,-0.57939
 39,0.61761\Quadrupole=-1.9709006,3.1499834,-1.1790827,5.4550592,-5.208
 6485,-2.7551141\PG=C01 [X(C8H1F13O3)]\\@

 Writing a WFN file to "cytopopt/A1/A1_neu.wfn"


 PERICLES, SOPHOCLES,
 PELOPONESIAN WAR,
 FRENCH VERBS, LATIN VERBS
 H2SO4.
 Job cpu time:       0 days  6 hours 38 minutes 34.1 seconds.
 File lengths (MBytes):  RWF=    226 Int=      0 D2E=      0 Chk=     13 Scr=      1
 Normal termination of Gaussian 09 at Wed Feb  5 01:51:07 2025.
