 Entering Gaussian System, Link 0=g09
 Initial command:
 /home/k0335/k033513/app/g09/l1.exe "/home/k0335/k033513/app/g09/scratch/Gau-350184.inp" -scrdir="/home/k0335/k033513/app/g09/scratch/"
 Default is to use a total of  36 processors:
                               36 via shared-memory
                                1 via Linda
 Entering Link 1 = /home/k0335/k033513/app/g09/l1.exe PID=    350185.
  
 Copyright (c) 1988,1990,1992,1993,1995,1998,2003,2009,2013,
            Gaussian, Inc.  All Rights Reserved.
  
 This is part of the Gaussian(R) 09 program.  It is based on
 the Gaussian(R) 03 system (copyright 2003, Gaussian, Inc.),
 the Gaussian(R) 98 system (copyright 1998, Gaussian, Inc.),
 the Gaussian(R) 94 system (copyright 1995, Gaussian, Inc.),
 the Gaussian 92(TM) system (copyright 1992, Gaussian, Inc.),
 the Gaussian 90(TM) system (copyright 1990, Gaussian, Inc.),
 the Gaussian 88(TM) system (copyright 1988, Gaussian, Inc.),
 the Gaussian 86(TM) system (copyright 1986, Carnegie Mellon
 University), and the Gaussian 82(TM) system (copyright 1983,
 Carnegie Mellon University). Gaussian is a federally registered
 trademark of Gaussian, Inc.
  
 This software contains proprietary and confidential information,
 including trade secrets, belonging to Gaussian, Inc.
  
 This software is provided under written license and may be
 used, copied, transmitted, or stored only in accord with that
 written license.
  
 The following legend is applicable only to US Government
 contracts under FAR:
  
                    RESTRICTED RIGHTS LEGEND
  
 Use, reproduction and disclosure by the US Government is
 subject to restrictions as set forth in subparagraphs (a)
 and (c) of the Commercial Computer Software - Restricted
 Rights clause in FAR 52.227-19.
  
 Gaussian, Inc.
 340 Quinnipiac St., Bldg. 40, Wallingford CT 06492
  
  
 ---------------------------------------------------------------
 Warning -- This program may not be used in any manner that
 competes with the business of Gaussian, Inc. or will provide
 assistance to any competitor of Gaussian, Inc.  The licensee
 of this program is prohibited from giving any competitor of
 Gaussian, Inc. access to this program.  By using this program,
 the user acknowledges that Gaussian, Inc. is engaged in the
 business of creating and licensing software in the field of
 computational chemistry and represents and warrants to the
 licensee that it is not a competitor of Gaussian, Inc. and that
 it will not use this program in any manner prohibited above.
 ---------------------------------------------------------------
  

 Cite this work as:
 Gaussian 09, Revision D.01,
 M. J. Frisch, G. W. Trucks, H. B. Schlegel, G. E. Scuseria, 
 M. A. Robb, J. R. Cheeseman, G. Scalmani, V. Barone, B. Mennucci, 
 G. A. Petersson, H. Nakatsuji, M. Caricato, X. Li, H. P. Hratchian, 
 A. F. Izmaylov, J. Bloino, G. Zheng, J. L. Sonnenberg, M. Hada, 
 M. Ehara, K. Toyota, R. Fukuda, J. Hasegawa, M. Ishida, T. Nakajima, 
 Y. Honda, O. Kitao, H. Nakai, T. Vreven, J. A. Montgomery, Jr., 
 J. E. Peralta, F. Ogliaro, M. Bearpark, J. J. Heyd, E. Brothers, 
 K. N. Kudin, V. N. Staroverov, T. Keith, R. Kobayashi, J. Normand, 
 K. Raghavachari, A. Rendell, J. C. Burant, S. S. Iyengar, J. Tomasi, 
 M. Cossi, N. Rega, J. M. Millam, M. Klene, J. E. Knox, J. B. Cross, 
 V. Bakken, C. Adamo, J. Jaramillo, R. Gomperts, R. E. Stratmann, 
 O. Yazyev, A. J. Austin, R. Cammi, C. Pomelli, J. W. Ochterski, 
 R. L. Martin, K. Morokuma, V. G. Zakrzewski, G. A. Voth, 
 P. Salvador, J. J. Dannenberg, S. Dapprich, A. D. Daniels, 
 O. Farkas, J. B. Foresman, J. V. Ortiz, J. Cioslowski, 
 and D. J. Fox, Gaussian, Inc., Wallingford CT, 2013.
 
 ******************************************
 Gaussian 09:  ES64L-G09RevD.01 24-Apr-2013
                 3-Mar-2024 
 ******************************************
 %nprocshared=24
 Will use up to   24 processors via shared memory.
 %mem=40GB
 %rwf=A899021201/A899021201_p1.rwf
 %nosave
 %chk=A899021201/A899021201_p1.chk
 ----------------------------------------------------------------------
 #p CAM-B3LYP/6-31G(d,p) SCRF=(PCM,Solvent=Generic,Read) NoSymm out=wfn
 ----------------------------------------------------------------------
 1/38=1,40=2/1;
 2/12=2,15=1,17=6,18=5,40=1/2;
 3/5=1,6=6,7=101,11=2,16=1,25=1,30=1,70=2203,72=-2,74=-40/1,2,3;
 4//1;
 5/5=2,38=5/2;
 6/7=2,8=2,9=2,10=2,28=1/1;
 99/5=1,6=100,9=1/99;
 Leave Link    1 at Sun Mar  3 18:00:03 2024, MaxMem=  5368709120 cpu:         0.8
 (Enter /home/k0335/k033513/app/g09/l101.exe)
 -------------------
 Title A899021201_p1
 -------------------
 Symbolic Z-matrix:
 Charge =  1 Multiplicity = 2
 C                     1.45845   3.9976    0.35314 
 C                     1.79672   2.71405   0.18956 
 N                     1.00731   1.59898   0.44762 
 C                    -0.32517   1.71279   0.9818 
 N                    -1.13547   0.62561   0.5459 
 C                    -2.56541   0.84115   0.38369 
 F                    -2.8752    1.99426   1.04804 
 F                    -3.24006  -0.12469   1.05598 
 C                    -3.04206   0.95946  -1.08496 
 F                    -2.4757    2.10055  -1.59834 
 O                    -2.52355  -0.11242  -1.87341 
 C                    -3.08172  -0.17855  -3.15639 
 F                    -4.30736  -0.7219   -3.08143 
 F                    -3.15234   1.04142  -3.71334 
 F                    -2.30534  -0.96133  -3.92717 
 C                    -4.56661   1.11515  -1.00874 
 F                    -5.0991    1.40802  -2.21976 
 F                    -5.17206  -0.01339  -0.57878 
 F                    -4.94609   2.11709  -0.18344 
 C                    -0.60598  -0.62923   0.43638 
 O                    -1.30794  -1.57981   0.10643 
 N                     0.74758  -0.72924   0.69646 
 C                     1.27949  -2.0862    0.68207 
 F                     0.4126   -2.86335   1.41432 
 F                     1.18986  -2.57464  -0.58878 
 C                     2.69168  -2.43487   1.25176 
 F                     2.77458  -3.8067    1.37088 
 O                     3.8673   -2.06803   0.53233 
 C                     3.90691  -2.5744   -0.77876 
 F                     3.46737  -3.84293  -0.83778 
 F                     5.18602  -2.54901  -1.20437 
 F                     3.17129  -1.80907  -1.60283 
 C                     2.74258  -1.88516   2.67709 
 F                     1.74381  -2.36861   3.45237 
 F                     2.64241  -0.5363    2.72877 
 F                     3.9058   -2.21008   3.29467 
 C                     1.57024   0.32459   0.37629 
 O                     2.74139   0.14773   0.05098 
 H                     0.50163   4.34219   0.7234 
 H                     2.18107   4.77372   0.11119 
 H                     2.80087   2.49789  -0.18078 
 H                    -0.27727   1.70629   2.07657 
 H                    -0.78254   2.6414    0.6314 
 
 NAtoms=     43 NQM=       43 NQMF=       0 NMMI=      0 NMMIF=      0
                NMic=       0 NMicF=      0.
                    Isotopes and Nuclear Properties:
 (Nuclear quadrupole moments (NQMom) in fm**2, nuclear magnetic moments (NMagM)
  in nuclear magnetons)

  Atom         1           2           3           4           5           6           7           8           9          10
 IAtWgt=          12          12          14          12          14          12          19          19          12          19
 AtmWgt=  12.0000000  12.0000000  14.0030740  12.0000000  14.0030740  12.0000000  18.9984033  18.9984033  12.0000000  18.9984033
 NucSpn=           0           0           2           0           2           0           1           1           0           1
 AtZEff=   0.0000000   0.0000000   0.0000000   0.0000000   0.0000000   0.0000000   0.0000000   0.0000000   0.0000000   0.0000000
 NQMom=    0.0000000   0.0000000   2.0440000   0.0000000   2.0440000   0.0000000   0.0000000   0.0000000   0.0000000   0.0000000
 NMagM=    0.0000000   0.0000000   0.4037610   0.0000000   0.4037610   0.0000000   2.6288670   2.6288670   0.0000000   2.6288670
 AtZNuc=   6.0000000   6.0000000   7.0000000   6.0000000   7.0000000   6.0000000   9.0000000   9.0000000   6.0000000   9.0000000

  Atom        11          12          13          14          15          16          17          18          19          20
 IAtWgt=          16          12          19          19          19          12          19          19          19          12
 AtmWgt=  15.9949146  12.0000000  18.9984033  18.9984033  18.9984033  12.0000000  18.9984033  18.9984033  18.9984033  12.0000000
 NucSpn=           0           0           1           1           1           0           1           1           1           0
 AtZEff=   0.0000000   0.0000000   0.0000000   0.0000000   0.0000000   0.0000000   0.0000000   0.0000000   0.0000000   0.0000000
 NQMom=    0.0000000   0.0000000   0.0000000   0.0000000   0.0000000   0.0000000   0.0000000   0.0000000   0.0000000   0.0000000
 NMagM=    0.0000000   0.0000000   2.6288670   2.6288670   2.6288670   0.0000000   2.6288670   2.6288670   2.6288670   0.0000000
 AtZNuc=   8.0000000   6.0000000   9.0000000   9.0000000   9.0000000   6.0000000   9.0000000   9.0000000   9.0000000   6.0000000

  Atom        21          22          23          24          25          26          27          28          29          30
 IAtWgt=          16          14          12          19          19          12          19          16          12          19
 AtmWgt=  15.9949146  14.0030740  12.0000000  18.9984033  18.9984033  12.0000000  18.9984033  15.9949146  12.0000000  18.9984033
 NucSpn=           0           2           0           1           1           0           1           0           0           1
 AtZEff=   0.0000000   0.0000000   0.0000000   0.0000000   0.0000000   0.0000000   0.0000000   0.0000000   0.0000000   0.0000000
 NQMom=    0.0000000   2.0440000   0.0000000   0.0000000   0.0000000   0.0000000   0.0000000   0.0000000   0.0000000   0.0000000
 NMagM=    0.0000000   0.4037610   0.0000000   2.6288670   2.6288670   0.0000000   2.6288670   0.0000000   0.0000000   2.6288670
 AtZNuc=   8.0000000   7.0000000   6.0000000   9.0000000   9.0000000   6.0000000   9.0000000   8.0000000   6.0000000   9.0000000

  Atom        31          32          33          34          35          36          37          38          39          40
 IAtWgt=          19          19          12          19          19          19          12          16           1           1
 AtmWgt=  18.9984033  18.9984033  12.0000000  18.9984033  18.9984033  18.9984033  12.0000000  15.9949146   1.0078250   1.0078250
 NucSpn=           1           1           0           1           1           1           0           0           1           1
 AtZEff=   0.0000000   0.0000000   0.0000000   0.0000000   0.0000000   0.0000000   0.0000000   0.0000000   0.0000000   0.0000000
 NQMom=    0.0000000   0.0000000   0.0000000   0.0000000   0.0000000   0.0000000   0.0000000   0.0000000   0.0000000   0.0000000
 NMagM=    2.6288670   2.6288670   0.0000000   2.6288670   2.6288670   2.6288670   0.0000000   0.0000000   2.7928460   2.7928460
 AtZNuc=   9.0000000   9.0000000   6.0000000   9.0000000   9.0000000   9.0000000   6.0000000   8.0000000   1.0000000   1.0000000

  Atom        41          42          43
 IAtWgt=           1           1           1
 AtmWgt=   1.0078250   1.0078250   1.0078250
 NucSpn=           1           1           1
 AtZEff=   0.0000000   0.0000000   0.0000000
 NQMom=    0.0000000   0.0000000   0.0000000
 NMagM=    2.7928460   2.7928460   2.7928460
 AtZNuc=   1.0000000   1.0000000   1.0000000
 Leave Link  101 at Sun Mar  3 18:00:03 2024, MaxMem=  5368709120 cpu:         0.9
 (Enter /home/k0335/k033513/app/g09/l202.exe)
                          Input orientation:                          
 ---------------------------------------------------------------------
 Center     Atomic      Atomic             Coordinates (Angstroms)
 Number     Number       Type             X           Y           Z
 ---------------------------------------------------------------------
      1          6           0        1.458448    3.997597    0.353135
      2          6           0        1.796723    2.714047    0.189558
      3          7           0        1.007310    1.598977    0.447617
      4          6           0       -0.325173    1.712785    0.981796
      5          7           0       -1.135468    0.625607    0.545895
      6          6           0       -2.565407    0.841147    0.383692
      7          9           0       -2.875203    1.994263    1.048037
      8          9           0       -3.240060   -0.124693    1.055977
      9          6           0       -3.042064    0.959456   -1.084964
     10          9           0       -2.475699    2.100552   -1.598335
     11          8           0       -2.523545   -0.112423   -1.873410
     12          6           0       -3.081718   -0.178548   -3.156387
     13          9           0       -4.307364   -0.721903   -3.081431
     14          9           0       -3.152339    1.041419   -3.713341
     15          9           0       -2.305339   -0.961333   -3.927172
     16          6           0       -4.566609    1.115145   -1.008742
     17          9           0       -5.099096    1.408015   -2.219764
     18          9           0       -5.172059   -0.013388   -0.578780
     19          9           0       -4.946085    2.117094   -0.183439
     20          6           0       -0.605980   -0.629231    0.436378
     21          8           0       -1.307936   -1.579811    0.106433
     22          7           0        0.747582   -0.729242    0.696455
     23          6           0        1.279493   -2.086196    0.682070
     24          9           0        0.412600   -2.863351    1.414321
     25          9           0        1.189859   -2.574638   -0.588780
     26          6           0        2.691677   -2.434869    1.251760
     27          9           0        2.774582   -3.806699    1.370875
     28          8           0        3.867297   -2.068031    0.532334
     29          6           0        3.906909   -2.574404   -0.778759
     30          9           0        3.467368   -3.842926   -0.837778
     31          9           0        5.186016   -2.549007   -1.204371
     32          9           0        3.171294   -1.809069   -1.602829
     33          6           0        2.742579   -1.885158    2.677090
     34          9           0        1.743813   -2.368605    3.452373
     35          9           0        2.642407   -0.536301    2.728767
     36          9           0        3.905796   -2.210084    3.294674
     37          6           0        1.570241    0.324588    0.376289
     38          8           0        2.741391    0.147728    0.050984
     39          1           0        0.501628    4.342192    0.723397
     40          1           0        2.181068    4.773716    0.111187
     41          1           0        2.800872    2.497890   -0.180781
     42          1           0       -0.277271    1.706287    2.076569
     43          1           0       -0.782542    2.641402    0.631400
 ---------------------------------------------------------------------
                    Distance matrix (angstroms):
                    1          2          3          4          5
     1  C    0.000000
     2  C    1.337418   0.000000
     3  N    2.442505   1.390377   0.000000
     4  C    2.965954   2.476411   1.440073   0.000000
     5  N    4.258623   3.617499   2.355548   1.424270   0.000000
     6  C    5.114247   4.751170   3.652766   2.477121   1.455161
     7  F    4.824600   4.804370   3.948501   2.566373   2.269811
     8  F    6.289932   5.846222   4.623991   3.446505   2.291821
     9  C    5.617209   5.302533   4.376668   3.495783   2.531060
    10  F    4.783778   4.671887   4.070485   3.381154   2.927354
    11  O    6.140524   5.559630   4.558837   4.039359   2.885218
    12  C    7.097185   6.584956   5.733113   5.319797   4.259278
    13  F    8.204542   7.730783   6.788698   6.188325   5.003419
    14  F    6.821625   6.521006   5.909917   5.521586   4.730936
    15  F    7.555005   6.876249   6.055379   5.930424   4.888282
    16  C    6.816491   6.669663   5.781319   4.723261   3.798588
    17  F    7.505140   7.420436   6.666302   5.756146   4.896057
    18  F    7.805132   7.522843   6.468216   5.376558   4.238782
    19  F    6.696435   6.779450   6.009125   4.782684   4.156593
    20  C    5.067182   4.124489   2.750953   2.421027   1.366371
    21  O    6.230668   5.299343   3.947336   3.545881   2.255380
    22  N    4.792307   3.635090   2.355840   2.682484   2.324685
    23  C    6.095306   4.853084   3.702641   4.134857   3.633794
    24  F    7.020863   5.875645   4.604407   4.655363   3.914525
    25  F    6.644819   5.379989   4.304243   4.810824   4.115362
    26  C    6.610976   5.332968   4.444733   5.135883   4.950939
    27  F    7.979664   6.698645   5.761683   6.342284   5.967782
    28  O    6.528898   5.222360   4.651199   5.663337   5.681859
    29  C    7.104037   5.775659   5.227694   6.276150   6.117217
    30  F    8.180943   6.844002   6.108882   6.968511   6.562655
    31  F    7.692764   6.413274   6.115261   7.301740   7.287164
    32  F    6.362154   5.055757   4.527906   5.595447   5.393780
    33  C    6.454190   5.313675   4.485633   5.022979   5.087748
    34  F    7.086271   6.040042   5.031173   5.200211   5.069830
    35  F    5.253724   4.210407   3.526556   4.113007   4.515230
    36  F    7.292288   6.191688   5.569192   6.216060   6.404004
    37  C    3.674783   2.407421   1.395008   2.426175   2.727680
    38  O    4.069242   2.738173   2.295752   3.566459   3.937428
    39  H    1.082287   2.147815   2.803034   2.768420   4.065045
    40  H    1.087694   2.096688   3.401450   4.050741   5.328714
    41  H    2.082376   1.091875   2.102330   3.426388   4.419081
    42  H    3.351574   2.979571   2.077294   1.095840   2.060906
    43  H    2.634147   2.617844   2.079422   1.092837   2.048243
                    6          7          8          9         10
     6  C    0.000000
     7  F    1.366384   0.000000
     8  F    1.356455   2.150153   0.000000
     9  C    1.548596   2.376628   2.407947   0.000000
    10  F    2.350017   2.678467   3.547018   1.373470   0.000000
    11  O    2.450624   3.618928   3.015767   1.428087   2.230519
    12  C    3.720015   4.737187   4.215683   2.363772   2.826496
    13  F    4.181461   5.145984   4.314388   2.900661   3.677067
    14  F    4.143703   4.863685   4.910591   2.631966   2.460255
    15  F    4.679756   5.814894   5.138623   3.508609   3.850668
    16  C    2.453315   2.804290   2.749545   1.534368   2.385488
    17  F    3.676806   3.995987   4.066410   2.391727   2.783522
    18  F    2.907098   3.457274   2.533267   2.395731   3.574716
    19  F    2.759947   2.412503   3.077707   2.403782   2.846930
    20  C    2.450335   3.522247   2.752606   3.282212   3.884279
    21  O    2.742106   4.014592   2.598481   3.297651   4.220779
    22  N    3.679652   4.545950   4.049200   4.515149   4.864497
    23  C    4.841655   5.834859   4.941018   5.574429   6.068820
    24  F    4.863541   5.877093   4.579365   5.726690   6.485268
    25  F    5.168686   6.330778   5.322747   5.535810   6.026020
    26  C    6.254819   7.116802   6.368732   7.060985   7.442772
    27  F    7.147901   8.104039   7.059196   7.910800   8.442587
    28  O    7.061522   7.888567   7.386832   7.714959   7.883555
    29  C    7.410004   8.378958   7.774735   7.801933   7.953905
    30  F    7.734785   8.823677   7.899440   8.093002   8.439397
    31  F    8.608115   9.523544   9.054569   8.945662   8.970813
    32  F    6.624172   7.619222   7.142257   6.821930   6.868310
    33  C    6.392740   7.018775   6.443540   7.463710   7.835532
    34  F    6.187785   6.793435   5.967985   7.387018   7.955331
    35  F    5.875208   6.298621   6.129524   7.006786   7.202209
    36  F    7.724008   8.288900   7.773280   8.803407   9.123957
    37  C    4.167790   4.795939   4.878814   4.879721   4.839713
    38  O    5.362241   5.995826   6.071407   5.949591   5.809630
    39  H    4.666843   4.125670   5.836429   5.222148   4.390884
    40  H    6.169958   5.845419   7.367202   6.577269   5.635047
    41  H    5.644500   5.829362   6.700774   6.109356   5.478096
    42  H    2.974872   2.808925   3.629355   4.265809   4.300401
    43  H    2.545758   2.229710   3.724371   3.298528   2.851494
                   11         12         13         14         15
    11  O    0.000000
    12  C    1.400700   0.000000
    13  F    2.238926   1.342781   0.000000
    14  F    2.260991   1.342946   2.200613   0.000000
    15  F    2.232980   1.345223   2.186483   2.184982   0.000000
    16  C    2.535485   2.913919   2.781725   3.052941   4.235840
    17  F    3.010840   2.732080   2.430198   2.480933   4.041550
    18  F    2.949661   3.322779   2.740977   3.875224   4.508704
    19  F    3.700736   4.193359   4.106851   4.103024   5.519582
    20  C    3.046189   4.386383   5.107231   5.147347   4.694537
    21  O    2.747856   3.969362   4.460387   4.986316   4.200869
    22  N    4.205347   5.459963   6.310702   6.147432   5.545459
    23  C    4.988923   6.114984   6.873006   6.981601   5.946549
    24  F    5.195934   6.349000   6.861169   7.365388   6.287799
    25  F    4.637041   5.529939   6.313905   6.457045   5.095490
    26  C    6.508378   7.606237   8.408173   8.419580   7.345939
    27  F    7.227946   8.243533   8.915882   9.191403   7.872167
    28  O    7.103159   8.091083   9.038608   8.773239   7.695025
    29  C    6.972112   7.761066   8.729739   8.456887   7.148883
    30  F    7.133038   7.854562   8.673017   8.714712   7.153466
    31  F    8.113069   8.819573   9.848143   9.418824   8.127408
    32  F    5.948362   6.646225   7.700553   7.250371   6.009554
    33  C    7.182040   8.418100   9.176896   9.173468   8.363684
    34  F    7.187814   8.470998   9.056432   9.324592   8.534268
    35  F    6.931577   8.217581   9.060473   8.807329   8.304358
    36  F    8.511504   9.724643  10.503590  10.464312   9.606906
    37  C    4.691610   5.862906   6.899073   6.288218   5.932410
    38  O    5.611642   6.655996   7.762295   7.050169   6.521137
    39  H    5.978183   6.951991   7.952872   6.628063   7.591721
    40  H    7.067274   7.930881   9.082642   7.549986   8.326282
    41  H    6.166696   7.114943   8.325134   7.073967   7.216305
    42  H    4.894465   6.229073   6.981599   6.498548   6.875621
    43  H    4.109588   5.252205   6.125464   5.201217   6.006595
                   16         17         18         19         20
    16  C    0.000000
    17  F    1.354950   0.000000
    18  F    1.350934   2.172220   0.000000
    19  F    1.352416   2.161672   2.178603   0.000000
    20  C    4.562653   5.602995   4.717932   5.173295   0.000000
    21  O    4.373254   5.358282   4.225476   5.194926   1.226869
    22  N    5.877932   6.874289   6.097608   6.426016   1.381945
    23  C    6.876361   7.830488   6.892663   7.561387   2.395437
    24  F    6.818518   7.863201   6.578994   7.488202   2.642947
    25  F    6.850386   7.620537   6.858141   7.734757   2.839119
    26  C    8.390184   9.354966   8.429282   9.006418   3.847040
    27  F    9.153153  10.103501   9.018840   9.854741   4.732630
    28  O    9.145397  10.002657   9.336278   9.782807   4.699953
    29  C    9.244792   9.952099   9.435383  10.036935   5.062255
    30  F    9.442271  10.142316   9.453684  10.331321   5.342609
    31  F   10.420076  11.066733  10.682249  11.201530   6.318609
    32  F    8.293317   8.895481   8.595620   9.128048   4.451762
    33  C    8.718452   9.814073   8.760463   9.127771   4.220307
    34  F    8.476998   9.657194   8.344251   8.837158   4.200378
    35  F    8.286505   9.391443   8.501717   8.550243   3.976896
    36  F   10.067680  11.161888  10.111210  10.448806   5.570016
    37  C    6.340680   7.238326   6.817990   6.781510   2.376830
    38  O    7.447535   8.259410   7.940104   7.939184   3.457902
    39  H    6.253092   6.974217   7.270314   5.954073   5.101394
    40  H    7.756966   8.352369   8.801187   7.611882   6.088121
    41  H    7.541703   8.231329   8.368545   7.756311   4.665449
    42  H    5.316673   6.465094   5.828131   5.203290   2.872790
    43  H    4.397578   5.318178   5.270703   4.274804   3.281196
                   21         22         23         24         25
    21  O    0.000000
    22  N    2.301466   0.000000
    23  C    2.698624   1.457553   0.000000
    24  F    2.513621   2.276393   1.375378   0.000000
    25  F    2.777046   2.291926   1.364430   2.167925   0.000000
    26  C    4.247329   2.645190   1.562173   2.324697   2.379618
    27  F    4.819211   3.746240   2.381150   2.543767   2.805275
    28  O    5.215629   3.398811   2.592196   3.653131   2.946561
    29  C    5.382136   3.944899   3.045601   4.135612   2.723684
    30  F    5.368124   4.409777   3.191056   3.919582   2.618702
    31  F    6.695443   5.159882   4.362772   5.453610   4.043375
    32  F    4.799754   3.510999   2.979341   4.221978   2.353822
    33  C    4.807097   3.039584   2.482165   2.824933   3.681335
    34  F    4.596812   3.357837   2.823106   2.484061   4.084144
    35  F    4.854973   2.785297   2.906661   3.480656   4.155819
    36  F    6.143706   4.349477   3.706550   4.020560   4.752939
    37  C    3.461714   1.374712   2.447430   3.546914   3.079214
    38  O    4.402785   2.271780   2.743325   4.043334   3.198097
    39  H    6.222964   5.077466   6.475412   7.239140   7.073755
    40  H    7.248481   5.716640   6.942416   7.946724   7.447869
    41  H    5.795899   3.924274   4.906419   6.082031   5.337824
    42  H    3.967637   2.981080   4.330250   4.668628   5.251940
    43  H    4.286055   3.702263   5.157978   5.687146   5.708439
                   26         27         28         29         30
    26  C    0.000000
    27  F    1.379485   0.000000
    28  O    1.426263   2.218140   0.000000
    29  C    2.370499   2.724269   1.406040   0.000000
    30  F    2.636378   2.315041   2.277587   1.343811   0.000000
    31  F    3.502475   3.745490   2.233048   1.348297   2.182285
    32  F    2.961475   3.604278   2.260620   1.343860   2.193066
    33  C    1.528509   2.323691   2.428665   3.711282   4.088089
    34  F    2.396984   2.731892   3.623004   4.756450   4.852799
    35  F    2.405938   3.543564   2.944634   4.249184   4.933008
    36  F    2.387072   2.744053   2.766258   4.089693   4.464925
    37  C    3.104621   4.416692   3.320458   3.898501   4.737217
    38  O    2.848533   4.169017   2.531590   3.075209   4.152380
    39  H    7.141711   8.484690   7.242596   7.854407   8.844718
    40  H    7.316100   8.692675   7.059053   7.600355   8.763653
    41  H    5.137724   6.492778   4.742724   5.225807   6.409509
    42  H    5.161796   6.340728   5.814429   6.632087   7.301336
    43  H    6.182521   7.401213   6.618880   7.154309   7.890927
                   31         32         33         34         35
    31  F    0.000000
    32  F    2.182975   0.000000
    33  C    4.634309   4.302010   0.000000
    34  F    5.793666   5.282599   1.353632   0.000000
    35  F    5.098089   4.545589   1.353558   2.165275   0.000000
    36  F    4.689908   4.968485   1.356488   2.173515   2.172085
    37  C    4.881584   3.321562   3.398682   4.092152   2.724853
    38  O    3.850258   2.597878   3.321003   4.347015   2.765541
    39  H    8.552684   7.097637   6.900628   7.350179   5.692463
    40  H    8.023882   6.873970   7.158195   7.897307   5.938084
    41  H    5.675193   4.550750   5.232775   6.164410   4.206768
    42  H    7.662871   6.147219   4.730602   4.752090   3.738861
    43  H    8.119981   6.358560   6.091065   6.280169   5.121232
                   36         37         38         39         40
    36  F    0.000000
    37  C    4.516232   0.000000
    38  O    4.175720   1.228290   0.000000
    39  H    7.818705   4.171757   4.802313   0.000000
    40  H    7.866558   4.498681   4.660188   1.838894   0.000000
    41  H    5.955222   2.558910   2.362311   3.083101   2.376718
    42  H    5.858310   2.865893   3.955303   3.063618   4.394915
    43  H    7.253307   3.311842   4.355846   2.133130   3.687868
                   41         42         43
    41  H    0.000000
    42  H    3.898362   0.000000
    43  H    3.677103   1.793949   0.000000
 Symmetry turned off by external request.
 Stoichiometry    C13H5F18N3O4(1+,2)
 Framework group  C1[X(C13H5F18N3O4)]
 Deg. of freedom   123
 Full point group                 C1      NOp   1
 Rotational constants (GHZ):      0.1809587      0.0607688      0.0570375
 Leave Link  202 at Sun Mar  3 18:00:03 2024, MaxMem=  5368709120 cpu:         0.1
 (Enter /home/k0335/k033513/app/g09/l301.exe)
 Standard basis: 6-31G(d,p) (6D, 7F)
 Ernie: Thresh=  0.10000D-02 Tol=  0.10000D-05 Strict=F.
   595 basis functions,  1099 primitive gaussians,   595 cartesian basis functions
   149 alpha electrons      148 beta electrons
       nuclear repulsion energy      5594.2760585716 Hartrees.
 IExCor=20419 DFT=T Ex+Corr=CAM-B3LYP ExCW=0 ScaHFX=  1.000000
 ScaDFX=  1.000000  1.000000  1.000000  0.810000 ScalE2=  1.000000  1.000000
 IRadAn=      0 IRanWt=     -1 IRanGd=            0 ICorTp=0 IEmpDi=  4
  HFx wShort=  0.000000 wLong=  0.330000 cFull=  0.190000 cShort=  0.000000 cLong=  0.460000
  DFx wShort=  0.000000 wLong=  0.330000 cFull=  0.190000 cShort=  0.000000 cLong=  0.460000
 NAtoms=   43 NActive=   43 NUniq=   43 SFac= 1.00D+00 NAtFMM=   60 NAOKFM=F Big=F
 Integral buffers will be    131072 words long.
 Raffenetti 2 integral format.
 Two-electron integral symmetry is turned off.
 Using the following non-standard input for PCM:
 eps=4.9
 --- end of non-standard input.
 ------------------------------------------------------------------------------
 Polarizable Continuum Model (PCM)
 =================================
 Model                : PCM (using non-symmetric T matrix).
 Atomic radii         : UFF (Universal Force Field).
 Polarization charges : Total charges.
 Charge compensation  : None.
 Solution method      : On-the-fly selection.
 Cavity type          : Scaled VdW (van der Waals Surface) (Alpha=1.100).
 Cavity algorithm     : GePol (No added spheres)
                        Default sphere list used, NSphG=   43.
                        Lebedev-Laikov grids with approx.  5.0 points / Ang**2.
                        Smoothing algorithm: Karplus/York (Gamma=1.0000).
                        Polarization charges: spherical gaussians, with
                                              point-specific exponents (IZeta= 3).
                        Self-potential: point-specific (ISelfS= 7).
                        Self-field    : sphere-specific E.n sum rule (ISelfD= 2).
 Solvent              : Generic,
                        Eps                           =   4.900000
                        Eps(infinity)                 =   0.000000
                        RSolv                         =   0.000000 Ang.
                        Molar volume                  =   0.000000 cm**3/mol
                        Thermal expansion coefficient =   0.000000 K**-1
                        Absolute temperature          = 298.150000 K
                        Numeral density               =   0.000000 Ang**-3
                        Hydrogen bond acidity         =   0.000000
                        Hydrogen bond basicity        =   0.000000
                        Surface tension at interface  =   0.000000 (cal/mol)*Ang**-2
                        Carbon aromaticity            =   0.000000
                        Electronegative halogenicity  =   0.000000
 ------------------------------------------------------------------------------
 GePol: Number of generator spheres                  =      43
 GePol: Total number of spheres                      =      43
 GePol: Number of exposed spheres                    =      43 (100.00%)
 GePol: Number of points                             =    3577
 GePol: Average weight of points                     =       0.12
 GePol: Minimum weight of points                     =   0.61D-08
 GePol: Maximum weight of points                     =    0.20577
 GePol: Number of points with low weight             =     157
 GePol: Fraction of low-weight points (<1% of avg)   =       4.39%
 GePol: Cavity surface area                          =    445.013 Ang**2
 GePol: Cavity volume                                =    513.659 Ang**3
 Leave Link  301 at Sun Mar  3 18:00:03 2024, MaxMem=  5368709120 cpu:         0.8
 (Enter /home/k0335/k033513/app/g09/l302.exe)
 NPDir=0 NMtPBC=     1 NCelOv=     1 NCel=       1 NClECP=     1 NCelD=      1
         NCelK=      1 NCelE2=     1 NClLst=     1 CellRange=     0.0.
 One-electron integrals computed using PRISM.
 NBasis=   595 RedAO= T EigKep=  1.18D-03  NBF=   595
 NBsUse=   595 1.00D-06 EigRej= -1.00D+00 NBFU=   595
 Precomputing XC quadrature grid using
 IXCGrd= 4 IRadAn=           0 IRanWt=          -1 IRanGd=           0 AccXCQ= 0.00D+00.
 Generated NRdTot=       0 NPtTot=           0 NUsed=           0 NTot=          32
 NSgBfM=   581   581   582   582   582 MxSgAt=    43 MxSgA2=    43.
 Leave Link  302 at Sun Mar  3 18:00:04 2024, MaxMem=  5368709120 cpu:        12.0
 (Enter /home/k0335/k033513/app/g09/l303.exe)
 DipDrv:  MaxL=1.
 Leave Link  303 at Sun Mar  3 18:00:04 2024, MaxMem=  5368709120 cpu:         0.8
 (Enter /home/k0335/k033513/app/g09/l401.exe)
 ExpMin= 1.61D-01 ExpMax= 7.00D+03 ExpMxC= 1.05D+03 IAcc=1 IRadAn=         1 AccDes= 0.00D+00
 Harris functional with IExCor=20419 and IRadAn=       1 diagonalized for initial guess.
 HarFok:  IExCor=20419 AccDes= 0.00D+00 IRadAn=         1 IDoV= 1 UseB2=F ITyADJ=14
 ICtDFT=  3500011 ScaDFX=  1.000000  1.000000  1.000000  1.000000
 FoFCou: FMM=F IPFlag=           0 FMFlag=      100000 FMFlg1=           0
         NFxFlg=           0 DoJE=T BraDBF=F KetDBF=T FulRan=T
         wScrn=  0.000000 ICntrl=     500 IOpCl=  0 I1Cent=   200000004 NGrid=           0
         NMat0=    1 NMatS0=      1 NMatT0=    0 NMatD0=    1 NMtDS0=    0 NMtDT0=    0
 Symmetry not used in FoFCou.
 Harris En= -2677.06537147948    
 JPrj=0 DoOrth=F DoCkMO=F.
 Initial guess <Sx>= 0.0000 <Sy>= 0.0000 <Sz>= 0.5000 <S**2>= 0.7500 S= 0.5000
 Leave Link  401 at Sun Mar  3 18:00:04 2024, MaxMem=  5368709120 cpu:        16.3
 (Enter /home/k0335/k033513/app/g09/l502.exe)
 UHF open shell SCF:
 Using DIIS extrapolation, IDIIS=  1040.
 Two-electron integral symmetry not used.
 IVT=     1098561 IEndB=     1098561 NGot=  5368709120 MDV=  5367981820
 LenX=  5367981820 LenY=  5367627200
 Requested convergence on RMS density matrix=1.00D-08 within 128 cycles.
 Requested convergence on MAX density matrix=1.00D-06.
 Requested convergence on             energy=1.00D-06.
 No special actions if energy rises.
 Fock matrices will be formed incrementally for  20 cycles.

 Cycle   1  Pass 1  IDiag  1:
 FoFJK:  IHMeth= 1 ICntrl=       0 DoSepK=T KAlg= 0 I1Cent=   0 FoldK=F
 IRaf=         1 NMat=   1 IRICut=       1 DoRegI=T DoRafI=F ISym2E= 0.
 FoFCou: FMM=F IPFlag=           0 FMFlag=      100000 FMFlg1=           0
         NFxFlg=           0 DoJE=T BraDBF=F KetDBF=F FulRan=T
         wScrn=  0.000000 ICntrl=     500 IOpCl=  0 I1Cent=           0 NGrid=           0
         NMat0=    1 NMatS0=      1 NMatT0=    0 NMatD0=    1 NMtDS0=    0 NMtDT0=    0
 Symmetry not used in FoFCou.
 Inv3:  Mode=1 IEnd=    38384787.
 Iteration    1 A*A^-1 deviation from unit magnitude is 4.55D-15 for   3559.
 Iteration    1 A*A^-1 deviation from orthogonality  is 3.45D-15 for   3551    305.
 Iteration    1 A^-1*A deviation from unit magnitude is 4.66D-15 for    879.
 Iteration    1 A^-1*A deviation from orthogonality  is 4.63D-13 for   3563   3451.
 E= -2758.46368896130    
 DIIS: error= 4.34D-02 at cycle   1 NSaved=   1.
 NSaved= 1 IEnMin= 1 EnMin= -2758.46368896130     IErMin= 1 ErrMin= 4.34D-02
 ErrMax= 4.34D-02  0.00D+00 EMaxC= 1.00D-01 BMatC= 9.79D+00 BMatP= 9.79D+00
 IDIUse=3 WtCom= 5.66D-01 WtEn= 4.34D-01
 Coeff-Com:  0.100D+01
 Coeff-En:   0.100D+01
 Coeff:      0.100D+01
 Gap=     0.577 Goal=   None    Shift=    0.000
 Gap=     0.110 Goal=   None    Shift=    0.000
 GapD=    0.110 DampG=1.000 DampE=0.500 DampFc=0.5000 IDamp=-1.
 Damping current iteration by 5.00D-01
 RMSDP=3.43D-03 MaxDP=2.26D-01              OVMax= 5.32D-01

 Cycle   2  Pass 1  IDiag  1:
 RMSU=  1.72D-03    CP:  1.00D+00
 E= -2759.00080871459     Delta-E=       -0.537119753295 Rises=F Damp=T
 DIIS: error= 2.43D-02 at cycle   2 NSaved=   2.
 NSaved= 2 IEnMin= 2 EnMin= -2759.00080871459     IErMin= 2 ErrMin= 2.43D-02
 ErrMax= 2.43D-02  0.00D+00 EMaxC= 1.00D-01 BMatC= 1.26D+00 BMatP= 9.79D+00
 IDIUse=3 WtCom= 7.57D-01 WtEn= 2.43D-01
 Coeff-Com: -0.215D+00 0.122D+01
 Coeff-En:   0.000D+00 0.100D+01
 Coeff:     -0.163D+00 0.116D+01
 Gap=     0.487 Goal=   None    Shift=    0.000
 Gap=     0.240 Goal=   None    Shift=    0.000
 RMSDP=1.28D-03 MaxDP=9.25D-02 DE=-5.37D-01 OVMax= 4.72D-01

 Cycle   3  Pass 1  IDiag  1:
 RMSU=  1.25D-03    CP:  9.99D-01  1.15D+00
 E= -2759.38661671771     Delta-E=       -0.385808003120 Rises=F Damp=F
 DIIS: error= 1.50D-02 at cycle   3 NSaved=   3.
 NSaved= 3 IEnMin= 3 EnMin= -2759.38661671771     IErMin= 3 ErrMin= 1.50D-02
 ErrMax= 1.50D-02  0.00D+00 EMaxC= 1.00D-01 BMatC= 9.37D-01 BMatP= 1.26D+00
 IDIUse=3 WtCom= 8.50D-01 WtEn= 1.50D-01
 Coeff-Com: -0.188D+00 0.654D+00 0.534D+00
 Coeff-En:   0.000D+00 0.000D+00 0.100D+01
 Coeff:     -0.159D+00 0.556D+00 0.604D+00
 Gap=     0.389 Goal=   None    Shift=    0.000
 Gap=     0.109 Goal=   None    Shift=    0.000
 RMSDP=1.00D-03 MaxDP=9.68D-02 DE=-3.86D-01 OVMax= 2.26D-01

 Cycle   4  Pass 1  IDiag  1:
 RMSU=  5.58D-04    CP:  9.99D-01  1.40D+00  4.38D-01
 E= -2759.53550978902     Delta-E=       -0.148893071304 Rises=F Damp=F
 DIIS: error= 8.06D-03 at cycle   4 NSaved=   4.
 NSaved= 4 IEnMin= 4 EnMin= -2759.53550978902     IErMin= 4 ErrMin= 8.06D-03
 ErrMax= 8.06D-03  0.00D+00 EMaxC= 1.00D-01 BMatC= 2.54D-01 BMatP= 9.37D-01
 IDIUse=3 WtCom= 9.19D-01 WtEn= 8.06D-02
 Coeff-Com: -0.443D-01 0.114D+00 0.361D+00 0.569D+00
 Coeff-En:   0.000D+00 0.000D+00 0.205D+00 0.795D+00
 Coeff:     -0.407D-01 0.105D+00 0.349D+00 0.587D+00
 Gap=     0.339 Goal=   None    Shift=    0.000
 Gap=     0.156 Goal=   None    Shift=    0.000
 RMSDP=3.92D-04 MaxDP=4.06D-02 DE=-1.49D-01 OVMax= 5.16D-02

 Cycle   5  Pass 1  IDiag  1:
 RMSU=  2.12D-04    CP:  9.98D-01  1.34D+00  6.63D-01  7.63D-01
 E= -2759.58331324389     Delta-E=       -0.047803454874 Rises=F Damp=F
 DIIS: error= 1.19D-03 at cycle   5 NSaved=   5.
 NSaved= 5 IEnMin= 5 EnMin= -2759.58331324389     IErMin= 5 ErrMin= 1.19D-03
 ErrMax= 1.19D-03  0.00D+00 EMaxC= 1.00D-01 BMatC= 1.12D-02 BMatP= 2.54D-01
 IDIUse=3 WtCom= 9.88D-01 WtEn= 1.19D-02
 Coeff-Com: -0.132D-02-0.448D-02 0.130D+00 0.295D+00 0.581D+00
 Coeff-En:   0.000D+00 0.000D+00 0.000D+00 0.000D+00 0.100D+01
 Coeff:     -0.130D-02-0.443D-02 0.129D+00 0.291D+00 0.586D+00
 Gap=     0.328 Goal=   None    Shift=    0.000
 Gap=     0.157 Goal=   None    Shift=    0.000
 RMSDP=1.04D-04 MaxDP=9.80D-03 DE=-4.78D-02 OVMax= 4.05D-02

 Cycle   6  Pass 1  IDiag  1:
 RMSU=  9.04D-05    CP:  9.98D-01  1.35D+00  6.51D-01  8.44D-01  1.04D+00
 E= -2759.58689666640     Delta-E=       -0.003583422513 Rises=F Damp=F
 DIIS: error= 5.44D-04 at cycle   6 NSaved=   6.
 NSaved= 6 IEnMin= 6 EnMin= -2759.58689666640     IErMin= 6 ErrMin= 5.44D-04
 ErrMax= 5.44D-04  0.00D+00 EMaxC= 1.00D-01 BMatC= 1.23D-03 BMatP= 1.12D-02
 IDIUse=3 WtCom= 9.95D-01 WtEn= 5.44D-03
 Coeff-Com:  0.923D-02-0.208D-01-0.489D-01-0.856D-01 0.108D+00 0.104D+01
 Coeff-En:   0.000D+00 0.000D+00 0.000D+00 0.000D+00 0.000D+00 0.100D+01
 Coeff:      0.918D-02-0.207D-01-0.486D-01-0.851D-01 0.107D+00 0.104D+01
 Gap=     0.326 Goal=   None    Shift=    0.000
 Gap=     0.170 Goal=   None    Shift=    0.000
 RMSDP=9.80D-05 MaxDP=1.14D-02 DE=-3.58D-03 OVMax= 4.72D-02

 Cycle   7  Pass 1  IDiag  1:
 RMSU=  4.10D-05    CP:  9.98D-01  1.35D+00  6.50D-01  8.91D-01  1.37D+00
                    CP:  1.50D+00
 E= -2759.58853341689     Delta-E=       -0.001636750489 Rises=F Damp=F
 DIIS: error= 3.41D-04 at cycle   7 NSaved=   7.
 NSaved= 7 IEnMin= 7 EnMin= -2759.58853341689     IErMin= 7 ErrMin= 3.41D-04
 ErrMax= 3.41D-04  0.00D+00 EMaxC= 1.00D-01 BMatC= 3.02D-04 BMatP= 1.23D-03
 IDIUse=3 WtCom= 9.97D-01 WtEn= 3.41D-03
 Coeff-Com:  0.207D-02-0.240D-02-0.307D-01-0.684D-01-0.399D-01 0.308D+00
 Coeff-Com:  0.831D+00
 Coeff-En:   0.000D+00 0.000D+00 0.000D+00 0.000D+00 0.000D+00 0.000D+00
 Coeff-En:   0.100D+01
 Coeff:      0.207D-02-0.239D-02-0.306D-01-0.681D-01-0.397D-01 0.307D+00
 Coeff:      0.832D+00
 Gap=     0.327 Goal=   None    Shift=    0.000
 Gap=     0.173 Goal=   None    Shift=    0.000
 RMSDP=4.55D-05 MaxDP=5.29D-03 DE=-1.64D-03 OVMax= 2.31D-02

 Cycle   8  Pass 1  IDiag  1:
 RMSU=  1.98D-05    CP:  9.98D-01  1.35D+00  6.45D-01  8.97D-01  1.51D+00
                    CP:  1.79D+00  1.27D+00
 E= -2759.58894026841     Delta-E=       -0.000406851514 Rises=F Damp=F
 DIIS: error= 1.74D-04 at cycle   8 NSaved=   8.
 NSaved= 8 IEnMin= 8 EnMin= -2759.58894026841     IErMin= 8 ErrMin= 1.74D-04
 ErrMax= 1.74D-04  0.00D+00 EMaxC= 1.00D-01 BMatC= 1.14D-04 BMatP= 3.02D-04
 IDIUse=3 WtCom= 9.98D-01 WtEn= 1.74D-03
 Coeff-Com: -0.324D-02 0.757D-02 0.901D-02 0.133D-01-0.355D-01-0.317D+00
 Coeff-Com:  0.288D+00 0.104D+01
 Coeff-En:   0.000D+00 0.000D+00 0.000D+00 0.000D+00 0.000D+00 0.000D+00
 Coeff-En:   0.000D+00 0.100D+01
 Coeff:     -0.324D-02 0.756D-02 0.899D-02 0.133D-01-0.355D-01-0.317D+00
 Coeff:      0.287D+00 0.104D+01
 Gap=     0.327 Goal=   None    Shift=    0.000
 Gap=     0.173 Goal=   None    Shift=    0.000
 RMSDP=3.84D-05 MaxDP=4.50D-03 DE=-4.07D-04 OVMax= 2.05D-02

 Cycle   9  Pass 1  IDiag  1:
 RMSU=  1.01D-05    CP:  9.98D-01  1.35D+00  6.40D-01  9.02D-01  1.61D+00
                    CP:  2.01D+00  1.75D+00  1.39D+00
 E= -2759.58910538041     Delta-E=       -0.000165112000 Rises=F Damp=F
 DIIS: error= 8.51D-05 at cycle   9 NSaved=   9.
 NSaved= 9 IEnMin= 9 EnMin= -2759.58910538041     IErMin= 9 ErrMin= 8.51D-05
 ErrMax= 8.51D-05  0.00D+00 EMaxC= 1.00D-01 BMatC= 2.52D-05 BMatP= 1.14D-04
 IDIUse=1 WtCom= 1.00D+00 WtEn= 0.00D+00
 Coeff-Com: -0.176D-02 0.358D-02 0.801D-02 0.158D-01-0.706D-02-0.187D+00
 Coeff-Com: -0.440D-02 0.444D+00 0.729D+00
 Coeff:     -0.176D-02 0.358D-02 0.801D-02 0.158D-01-0.706D-02-0.187D+00
 Coeff:     -0.440D-02 0.444D+00 0.729D+00
 Gap=     0.327 Goal=   None    Shift=    0.000
 Gap=     0.174 Goal=   None    Shift=    0.000
 RMSDP=1.16D-05 MaxDP=1.62D-03 DE=-1.65D-04 OVMax= 4.86D-03

 Cycle  10  Pass 1  IDiag  1:
 RMSU=  4.81D-06    CP:  9.98D-01  1.35D+00  6.39D-01  9.04D-01  1.64D+00
                    CP:  2.06D+00  1.89D+00  1.63D+00  1.10D+00
 E= -2759.58912632757     Delta-E=       -0.000020947165 Rises=F Damp=F
 DIIS: error= 5.48D-05 at cycle  10 NSaved=  10.
 NSaved=10 IEnMin=10 EnMin= -2759.58912632757     IErMin=10 ErrMin= 5.48D-05
 ErrMax= 5.48D-05  0.00D+00 EMaxC= 1.00D-01 BMatC= 6.66D-06 BMatP= 2.52D-05
 IDIUse=1 WtCom= 1.00D+00 WtEn= 0.00D+00
 Coeff-Com:  0.238D-03-0.657D-03 0.114D-02 0.318D-02 0.996D-02 0.185D-01
 Coeff-Com: -0.717D-01-0.147D+00 0.247D+00 0.939D+00
 Coeff:      0.238D-03-0.657D-03 0.114D-02 0.318D-02 0.996D-02 0.185D-01
 Coeff:     -0.717D-01-0.147D+00 0.247D+00 0.939D+00
 Gap=     0.327 Goal=   None    Shift=    0.000
 Gap=     0.173 Goal=   None    Shift=    0.000
 RMSDP=6.25D-06 MaxDP=1.11D-03 DE=-2.09D-05 OVMax= 2.27D-03

 Cycle  11  Pass 1  IDiag  1:
 RMSU=  2.79D-06    CP:  9.98D-01  1.35D+00  6.38D-01  9.04D-01  1.65D+00
                    CP:  2.08D+00  1.95D+00  1.75D+00  1.43D+00  1.34D+00
 E= -2759.58913314209     Delta-E=       -0.000006814516 Rises=F Damp=F
 DIIS: error= 3.04D-05 at cycle  11 NSaved=  11.
 NSaved=11 IEnMin=11 EnMin= -2759.58913314209     IErMin=11 ErrMin= 3.04D-05
 ErrMax= 3.04D-05  0.00D+00 EMaxC= 1.00D-01 BMatC= 2.30D-06 BMatP= 6.66D-06
 IDIUse=1 WtCom= 1.00D+00 WtEn= 0.00D+00
 Coeff-Com:  0.524D-03-0.112D-02-0.174D-02-0.331D-02 0.561D-02 0.500D-01
 Coeff-Com: -0.260D-01-0.168D+00-0.383D-01 0.411D+00 0.772D+00
 Coeff:      0.524D-03-0.112D-02-0.174D-02-0.331D-02 0.561D-02 0.500D-01
 Coeff:     -0.260D-01-0.168D+00-0.383D-01 0.411D+00 0.772D+00
 Gap=     0.327 Goal=   None    Shift=    0.000
 Gap=     0.174 Goal=   None    Shift=    0.000
 RMSDP=3.06D-06 MaxDP=7.44D-04 DE=-6.81D-06 OVMax= 1.26D-03

 Cycle  12  Pass 1  IDiag  1:
 RMSU=  1.54D-06    CP:  9.98D-01  1.35D+00  6.38D-01  9.04D-01  1.65D+00
                    CP:  2.09D+00  1.96D+00  1.79D+00  1.56D+00  1.70D+00
                    CP:  1.31D+00
 E= -2759.58913544804     Delta-E=       -0.000002305947 Rises=F Damp=F
 DIIS: error= 2.35D-05 at cycle  12 NSaved=  12.
 NSaved=12 IEnMin=12 EnMin= -2759.58913544804     IErMin=12 ErrMin= 2.35D-05
 ErrMax= 2.35D-05  0.00D+00 EMaxC= 1.00D-01 BMatC= 8.85D-07 BMatP= 2.30D-06
 IDIUse=1 WtCom= 1.00D+00 WtEn= 0.00D+00
 Coeff-Com:  0.432D-04-0.298D-04-0.946D-03-0.240D-02-0.146D-02 0.751D-02
 Coeff-Com:  0.251D-01 0.533D-02-0.120D+00-0.329D+00 0.322D+00 0.109D+01
 Coeff:      0.432D-04-0.298D-04-0.946D-03-0.240D-02-0.146D-02 0.751D-02
 Coeff:      0.251D-01 0.533D-02-0.120D+00-0.329D+00 0.322D+00 0.109D+01
 Gap=     0.327 Goal=   None    Shift=    0.000
 Gap=     0.174 Goal=   None    Shift=    0.000
 RMSDP=3.13D-06 MaxDP=6.66D-04 DE=-2.31D-06 OVMax= 1.12D-03

 Cycle  13  Pass 1  IDiag  1:
 RMSU=  8.95D-07    CP:  9.98D-01  1.35D+00  6.39D-01  9.04D-01  1.65D+00
                    CP:  2.09D+00  1.97D+00  1.82D+00  1.68D+00  2.01D+00
                    CP:  2.00D+00  1.53D+00
 E= -2759.58913688548     Delta-E=       -0.000001437444 Rises=F Damp=F
 DIIS: error= 9.62D-06 at cycle  13 NSaved=  13.
 NSaved=13 IEnMin=13 EnMin= -2759.58913688548     IErMin=13 ErrMin= 9.62D-06
 ErrMax= 9.62D-06  0.00D+00 EMaxC= 1.00D-01 BMatC= 2.08D-07 BMatP= 8.85D-07
 IDIUse=1 WtCom= 1.00D+00 WtEn= 0.00D+00
 Coeff-Com: -0.154D-03 0.333D-03 0.333D-03 0.549D-03-0.148D-02-0.136D-01
 Coeff-Com:  0.142D-01 0.484D-01-0.182D-01-0.236D+00-0.102D+00 0.338D+00
 Coeff-Com:  0.970D+00
 Coeff:     -0.154D-03 0.333D-03 0.333D-03 0.549D-03-0.148D-02-0.136D-01
 Coeff:      0.142D-01 0.484D-01-0.182D-01-0.236D+00-0.102D+00 0.338D+00
 Coeff:      0.970D+00
 Gap=     0.327 Goal=   None    Shift=    0.000
 Gap=     0.174 Goal=   None    Shift=    0.000
 RMSDP=1.66D-06 MaxDP=3.64D-04 DE=-1.44D-06 OVMax= 5.94D-04

 Cycle  14  Pass 1  IDiag  1:
 RMSU=  5.07D-07    CP:  9.98D-01  1.35D+00  6.39D-01  9.04D-01  1.65D+00
                    CP:  2.09D+00  1.97D+00  1.84D+00  1.74D+00  2.17D+00
                    CP:  2.34D+00  1.99D+00  1.45D+00
 E= -2759.58913723451     Delta-E=       -0.000000349030 Rises=F Damp=F
 DIIS: error= 4.40D-06 at cycle  14 NSaved=  14.
 NSaved=14 IEnMin=14 EnMin= -2759.58913723451     IErMin=14 ErrMin= 4.40D-06
 ErrMax= 4.40D-06  0.00D+00 EMaxC= 1.00D-01 BMatC= 6.54D-08 BMatP= 2.08D-07
 IDIUse=1 WtCom= 1.00D+00 WtEn= 0.00D+00
 Coeff-Com: -0.528D-04 0.100D-03 0.200D-03 0.515D-03-0.158D-03-0.587D-02
 Coeff-Com: -0.710D-04 0.138D-01 0.278D-01-0.494D-02-0.123D+00-0.189D+00
 Coeff-Com:  0.416D+00 0.864D+00
 Coeff:     -0.528D-04 0.100D-03 0.200D-03 0.515D-03-0.158D-03-0.587D-02
 Coeff:     -0.710D-04 0.138D-01 0.278D-01-0.494D-02-0.123D+00-0.189D+00
 Coeff:      0.416D+00 0.864D+00
 Gap=     0.327 Goal=   None    Shift=    0.000
 Gap=     0.174 Goal=   None    Shift=    0.000
 RMSDP=7.82D-07 MaxDP=1.54D-04 DE=-3.49D-07 OVMax= 2.65D-04

 Cycle  15  Pass 1  IDiag  1:
 RMSU=  2.21D-07    CP:  9.98D-01  1.35D+00  6.39D-01  9.04D-01  1.65D+00
                    CP:  2.09D+00  1.97D+00  1.84D+00  1.76D+00  2.23D+00
                    CP:  2.50D+00  2.20D+00  1.84D+00  1.22D+00
 E= -2759.58913730945     Delta-E=       -0.000000074939 Rises=F Damp=F
 DIIS: error= 1.68D-06 at cycle  15 NSaved=  15.
 NSaved=15 IEnMin=15 EnMin= -2759.58913730945     IErMin=15 ErrMin= 1.68D-06
 ErrMax= 1.68D-06  0.00D+00 EMaxC= 1.00D-01 BMatC= 1.28D-08 BMatP= 6.54D-08
 IDIUse=1 WtCom= 1.00D+00 WtEn= 0.00D+00
 Coeff-Com:  0.182D-04-0.424D-04-0.802D-05 0.426D-04 0.388D-03 0.103D-02
 Coeff-Com: -0.286D-02-0.752D-02 0.147D-01 0.504D-01-0.157D-01-0.148D+00
 Coeff-Com: -0.768D-01 0.305D+00 0.879D+00
 Coeff:      0.182D-04-0.424D-04-0.802D-05 0.426D-04 0.388D-03 0.103D-02
 Coeff:     -0.286D-02-0.752D-02 0.147D-01 0.504D-01-0.157D-01-0.148D+00
 Coeff:     -0.768D-01 0.305D+00 0.879D+00
 Gap=     0.327 Goal=   None    Shift=    0.000
 Gap=     0.174 Goal=   None    Shift=    0.000
 RMSDP=3.26D-07 MaxDP=6.03D-05 DE=-7.49D-08 OVMax= 1.07D-04

 Cycle  16  Pass 1  IDiag  1:
 RMSU=  1.06D-07    CP:  9.98D-01  1.35D+00  6.39D-01  9.04D-01  1.65D+00
                    CP:  2.09D+00  1.97D+00  1.84D+00  1.77D+00  2.25D+00
                    CP:  2.55D+00  2.28D+00  2.02D+00  1.46D+00  1.25D+00
 E= -2759.58913732293     Delta-E=       -0.000000013481 Rises=F Damp=F
 DIIS: error= 7.52D-07 at cycle  16 NSaved=  16.
 NSaved=16 IEnMin=16 EnMin= -2759.58913732293     IErMin=16 ErrMin= 7.52D-07
 ErrMax= 7.52D-07  0.00D+00 EMaxC= 1.00D-01 BMatC= 2.15D-09 BMatP= 1.28D-08
 IDIUse=1 WtCom= 1.00D+00 WtEn= 0.00D+00
 Coeff-Com:  0.107D-04-0.211D-04-0.329D-04-0.751D-04 0.127D-03 0.938D-03
 Coeff-Com: -0.456D-03-0.416D-02-0.904D-03 0.104D-01 0.188D-01 0.137D-02
 Coeff-Com: -0.967D-01-0.803D-01 0.207D+00 0.945D+00
 Coeff:      0.107D-04-0.211D-04-0.329D-04-0.751D-04 0.127D-03 0.938D-03
 Coeff:     -0.456D-03-0.416D-02-0.904D-03 0.104D-01 0.188D-01 0.137D-02
 Coeff:     -0.967D-01-0.803D-01 0.207D+00 0.945D+00
 Gap=     0.327 Goal=   None    Shift=    0.000
 Gap=     0.174 Goal=   None    Shift=    0.000
 RMSDP=1.35D-07 MaxDP=1.95D-05 DE=-1.35D-08 OVMax= 3.94D-05

 Cycle  17  Pass 1  IDiag  1:
 RMSU=  4.89D-08    CP:  9.98D-01  1.35D+00  6.39D-01  9.04D-01  1.65D+00
                    CP:  2.09D+00  1.97D+00  1.84D+00  1.77D+00  2.25D+00
                    CP:  2.56D+00  2.30D+00  2.08D+00  1.57D+00  1.52D+00
                    CP:  1.30D+00
 E= -2759.58913732546     Delta-E=       -0.000000002536 Rises=F Damp=F
 DIIS: error= 4.97D-07 at cycle  17 NSaved=  17.
 NSaved=17 IEnMin=17 EnMin= -2759.58913732546     IErMin=17 ErrMin= 4.97D-07
 ErrMax= 4.97D-07  0.00D+00 EMaxC= 1.00D-01 BMatC= 5.69D-10 BMatP= 2.15D-09
 IDIUse=1 WtCom= 1.00D+00 WtEn= 0.00D+00
 Coeff-Com: -0.226D-05 0.587D-05-0.113D-04-0.358D-04-0.355D-04 0.205D-04
 Coeff-Com:  0.533D-03 0.373D-03-0.307D-02-0.845D-02 0.934D-02 0.339D-01
 Coeff-Com: -0.156D-01-0.849D-01-0.150D+00 0.268D+00 0.950D+00
 Coeff:     -0.226D-05 0.587D-05-0.113D-04-0.358D-04-0.355D-04 0.205D-04
 Coeff:      0.533D-03 0.373D-03-0.307D-02-0.845D-02 0.934D-02 0.339D-01
 Coeff:     -0.156D-01-0.849D-01-0.150D+00 0.268D+00 0.950D+00
 Gap=     0.327 Goal=   None    Shift=    0.000
 Gap=     0.174 Goal=   None    Shift=    0.000
 RMSDP=6.48D-08 MaxDP=9.63D-06 DE=-2.54D-09 OVMax= 2.33D-05

 Cycle  18  Pass 1  IDiag  1:
 RMSU=  2.40D-08    CP:  9.98D-01  1.35D+00  6.39D-01  9.04D-01  1.65D+00
                    CP:  2.09D+00  1.97D+00  1.84D+00  1.77D+00  2.26D+00
                    CP:  2.57D+00  2.31D+00  2.10D+00  1.62D+00  1.65D+00
                    CP:  1.59D+00  1.35D+00
 E= -2759.58913732621     Delta-E=       -0.000000000748 Rises=F Damp=F
 DIIS: error= 2.06D-07 at cycle  18 NSaved=  18.
 NSaved=18 IEnMin=18 EnMin= -2759.58913732621     IErMin=18 ErrMin= 2.06D-07
 ErrMax= 2.06D-07  0.00D+00 EMaxC= 1.00D-01 BMatC= 1.52D-10 BMatP= 5.69D-10
 IDIUse=1 WtCom= 1.00D+00 WtEn= 0.00D+00
 Coeff-Com: -0.391D-05 0.830D-05 0.396D-05 0.958D-05-0.262D-04-0.209D-03
 Coeff-Com:  0.251D-03 0.985D-03-0.607D-03-0.527D-02-0.979D-03 0.114D-01
 Coeff-Com:  0.136D-01-0.709D-02-0.997D-01-0.108D+00 0.303D+00 0.893D+00
 Coeff:     -0.391D-05 0.830D-05 0.396D-05 0.958D-05-0.262D-04-0.209D-03
 Coeff:      0.251D-03 0.985D-03-0.607D-03-0.527D-02-0.979D-03 0.114D-01
 Coeff:      0.136D-01-0.709D-02-0.997D-01-0.108D+00 0.303D+00 0.893D+00
 Gap=     0.327 Goal=   None    Shift=    0.000
 Gap=     0.174 Goal=   None    Shift=    0.000
 RMSDP=3.08D-08 MaxDP=4.30D-06 DE=-7.48D-10 OVMax= 1.12D-05

 Cycle  19  Pass 1  IDiag  1:
 RMSU=  1.13D-08    CP:  9.98D-01  1.35D+00  6.39D-01  9.04D-01  1.65D+00
                    CP:  2.09D+00  1.97D+00  1.84D+00  1.77D+00  2.26D+00
                    CP:  2.57D+00  2.31D+00  2.10D+00  1.64D+00  1.70D+00
                    CP:  1.71D+00  1.66D+00  1.39D+00
 E= -2759.58913732630     Delta-E=       -0.000000000093 Rises=F Damp=F
 DIIS: error= 1.30D-07 at cycle  19 NSaved=  19.
 NSaved=19 IEnMin=19 EnMin= -2759.58913732630     IErMin=19 ErrMin= 1.30D-07
 ErrMax= 1.30D-07  0.00D+00 EMaxC= 1.00D-01 BMatC= 3.80D-11 BMatP= 1.52D-10
 IDIUse=1 WtCom= 1.00D+00 WtEn= 0.00D+00
 Coeff-Com: -0.113D-05 0.220D-05 0.245D-05 0.111D-04-0.709D-06-0.835D-04
 Coeff-Com: -0.328D-04 0.236D-03 0.572D-03 0.133D-03-0.266D-02-0.379D-02
 Coeff-Com:  0.789D-02 0.193D-01 0.155D-02-0.949D-01-0.154D+00 0.266D+00
 Coeff-Com:  0.960D+00
 Coeff:     -0.113D-05 0.220D-05 0.245D-05 0.111D-04-0.709D-06-0.835D-04
 Coeff:     -0.328D-04 0.236D-03 0.572D-03 0.133D-03-0.266D-02-0.379D-02
 Coeff:      0.789D-02 0.193D-01 0.155D-02-0.949D-01-0.154D+00 0.266D+00
 Coeff:      0.960D+00
 Gap=     0.327 Goal=   None    Shift=    0.000
 Gap=     0.174 Goal=   None    Shift=    0.000
 RMSDP=1.76D-08 MaxDP=2.63D-06 DE=-9.28D-11 OVMax= 6.58D-06

 Cycle  20  Pass 1  IDiag  1:
 RMSU=  5.81D-09    CP:  9.98D-01  1.35D+00  6.39D-01  9.04D-01  1.65D+00
                    CP:  2.09D+00  1.97D+00  1.84D+00  1.77D+00  2.26D+00
                    CP:  2.57D+00  2.31D+00  2.11D+00  1.65D+00  1.72D+00
                    CP:  1.77D+00  1.84D+00  1.78D+00  1.37D+00
 E= -2759.58913732648     Delta-E=       -0.000000000173 Rises=F Damp=F
 DIIS: error= 4.64D-08 at cycle  20 NSaved=  20.
 NSaved=20 IEnMin=20 EnMin= -2759.58913732648     IErMin=20 ErrMin= 4.64D-08
 ErrMax= 4.64D-08  0.00D+00 EMaxC= 1.00D-01 BMatC= 9.92D-12 BMatP= 3.80D-11
 IDIUse=1 WtCom= 1.00D+00 WtEn= 0.00D+00
 Coeff-Com:  0.467D-06-0.105D-05-0.510D-06 0.155D-05 0.597D-05 0.183D-04
 Coeff-Com: -0.682D-04-0.167D-03 0.354D-03 0.139D-02-0.662D-03-0.393D-02
 Coeff-Com: -0.126D-02 0.796D-02 0.248D-01 0.963D-03-0.130D+00-0.165D+00
 Coeff-Com:  0.307D+00 0.958D+00
 Coeff:      0.467D-06-0.105D-05-0.510D-06 0.155D-05 0.597D-05 0.183D-04
 Coeff:     -0.682D-04-0.167D-03 0.354D-03 0.139D-02-0.662D-03-0.393D-02
 Coeff:     -0.126D-02 0.796D-02 0.248D-01 0.963D-03-0.130D+00-0.165D+00
 Coeff:      0.307D+00 0.958D+00
 Gap=     0.327 Goal=   None    Shift=    0.000
 Gap=     0.174 Goal=   None    Shift=    0.000
 RMSDP=9.77D-09 MaxDP=1.30D-06 DE=-1.73D-10 OVMax= 3.22D-06

 Cycle  21  Pass 1  IDiag  1:
 Restarting incremental Fock formation.
 E= -2759.58913732549     Delta-E=        0.000000000982 Rises=F Damp=F
 DIIS: error= 1.89D-08 at cycle  21 NSaved=  20.
 NSaved=20 IEnMin=19 EnMin= -2759.58913732648     IErMin=20 ErrMin= 1.89D-08
 ErrMax= 1.89D-08  0.00D+00 EMaxC= 1.00D-01 BMatC= 1.70D-12 BMatP= 9.92D-12
 IDIUse=1 WtCom= 1.00D+00 WtEn= 0.00D+00
 Coeff-Com:  0.754D-07 0.295D-06-0.307D-06-0.312D-06-0.951D-06 0.218D-05
 Coeff-Com: -0.258D-04-0.323D-04 0.111D-03 0.306D-03 0.261D-03-0.167D-02
 Coeff-Com: -0.210D-02 0.382D-02 0.212D-01 0.541D-02-0.975D-01-0.125D+00
 Coeff-Com:  0.238D+00 0.958D+00
 Coeff:      0.754D-07 0.295D-06-0.307D-06-0.312D-06-0.951D-06 0.218D-05
 Coeff:     -0.258D-04-0.323D-04 0.111D-03 0.306D-03 0.261D-03-0.167D-02
 Coeff:     -0.210D-02 0.382D-02 0.212D-01 0.541D-02-0.975D-01-0.125D+00
 Coeff:      0.238D+00 0.958D+00
 Gap=     0.327 Goal=   None    Shift=    0.000
 Gap=     0.174 Goal=   None    Shift=    0.000
 RMSDP=3.83D-09 MaxDP=5.23D-07 DE= 9.82D-10 OVMax= 1.27D-06

 Error on total polarization charges =  0.00148
 SCF Done:  E(UCAM-B3LYP) =  -2759.58913733     A.U. after   21 cycles
            NFock= 21  Conv=0.38D-08     -V/T= 2.0074
 <Sx>= 0.0000 <Sy>= 0.0000 <Sz>= 0.5000 <S**2>= 0.7671 S= 0.5085
 <L.S>= 0.000000000000E+00
 KE= 2.739372428442D+03 PE=-1.767685972130D+04 EE= 6.583622096962D+03
 Annihilation of the first spin contaminant:
 S**2 before annihilation     0.7671,   after     0.7501
 Leave Link  502 at Sun Mar  3 18:01:45 2024, MaxMem=  5368709120 cpu:      2338.5
 (Enter /home/k0335/k033513/app/g09/l601.exe)
 Copying SCF densities to generalized density rwf, IOpCl= 1 IROHF=0.

 **********************************************************************

            Population analysis using the SCF density.

 **********************************************************************

 Alpha  occ. eigenvalues --  -24.87313 -24.86714 -24.85873 -24.85786 -24.85696
 Alpha  occ. eigenvalues --  -24.85477 -24.85422 -24.85364 -24.85335 -24.85321
 Alpha  occ. eigenvalues --  -24.85075 -24.85058 -24.85011 -24.84850 -24.84784
 Alpha  occ. eigenvalues --  -24.84758 -24.84687 -24.84632 -19.35393 -19.34769
 Alpha  occ. eigenvalues --  -19.32005 -19.27195 -14.63546 -14.57814 -14.54970
 Alpha  occ. eigenvalues --  -10.61486 -10.61124 -10.57956 -10.57537 -10.56692
 Alpha  occ. eigenvalues --  -10.56437 -10.52906 -10.51876 -10.51588 -10.49597
 Alpha  occ. eigenvalues --  -10.45609 -10.44644 -10.41822  -1.45109  -1.44678
 Alpha  occ. eigenvalues --   -1.44206  -1.43877  -1.42486  -1.41520  -1.38335
 Alpha  occ. eigenvalues --   -1.37213  -1.35697  -1.35493  -1.35301  -1.35079
 Alpha  occ. eigenvalues --   -1.34876  -1.34551  -1.34442  -1.34417  -1.34061
 Alpha  occ. eigenvalues --   -1.33915  -1.28595  -1.23261  -1.22678  -1.22292
 Alpha  occ. eigenvalues --   -1.19524  -1.13933  -1.12267  -1.00342  -0.96564
 Alpha  occ. eigenvalues --   -0.96339  -0.92283  -0.89402  -0.87285  -0.84592
 Alpha  occ. eigenvalues --   -0.83964  -0.82908  -0.80734  -0.79204  -0.77961
 Alpha  occ. eigenvalues --   -0.77691  -0.75863  -0.75018  -0.74375  -0.74153
 Alpha  occ. eigenvalues --   -0.73118  -0.72593  -0.72333  -0.71945  -0.71539
 Alpha  occ. eigenvalues --   -0.71220  -0.70777  -0.70341  -0.69891  -0.69781
 Alpha  occ. eigenvalues --   -0.69387  -0.68806  -0.68504  -0.68310  -0.67539
 Alpha  occ. eigenvalues --   -0.67274  -0.64965  -0.63731  -0.62509  -0.62255
 Alpha  occ. eigenvalues --   -0.61308  -0.60900  -0.60682  -0.59521  -0.59255
 Alpha  occ. eigenvalues --   -0.59153  -0.58813  -0.58599  -0.58353  -0.58233
 Alpha  occ. eigenvalues --   -0.58090  -0.57754  -0.57249  -0.57169  -0.56993
 Alpha  occ. eigenvalues --   -0.56604  -0.56422  -0.56259  -0.55753  -0.55531
 Alpha  occ. eigenvalues --   -0.55140  -0.54815  -0.54544  -0.54504  -0.54271
 Alpha  occ. eigenvalues --   -0.54040  -0.53696  -0.53602  -0.53522  -0.52938
 Alpha  occ. eigenvalues --   -0.52848  -0.52574  -0.52320  -0.52134  -0.51866
 Alpha  occ. eigenvalues --   -0.51764  -0.51340  -0.51030  -0.50922  -0.50659
 Alpha  occ. eigenvalues --   -0.48822  -0.48291  -0.46964  -0.46733  -0.45369
 Alpha  occ. eigenvalues --   -0.44609  -0.44189  -0.41128  -0.40803
 Alpha virt. eigenvalues --   -0.08059  -0.02412  -0.00264   0.02381   0.03233
 Alpha virt. eigenvalues --    0.05529   0.06929   0.07377   0.08470   0.09329
 Alpha virt. eigenvalues --    0.10470   0.11614   0.12498   0.13133   0.13924
 Alpha virt. eigenvalues --    0.14906   0.15448   0.16799   0.17367   0.17673
 Alpha virt. eigenvalues --    0.18498   0.19985   0.20321   0.20710   0.21041
 Alpha virt. eigenvalues --    0.21140   0.21405   0.22080   0.22170   0.22642
 Alpha virt. eigenvalues --    0.23149   0.23806   0.25021   0.25454   0.25951
 Alpha virt. eigenvalues --    0.26784   0.27259   0.27817   0.28884   0.30427
 Alpha virt. eigenvalues --    0.30975   0.31681   0.33896   0.34159   0.38513
 Alpha virt. eigenvalues --    0.41238   0.42510   0.43555   0.44833   0.46107
 Alpha virt. eigenvalues --    0.46840   0.47531   0.47775   0.48638   0.49249
 Alpha virt. eigenvalues --    0.49738   0.50342   0.50749   0.51547   0.52080
 Alpha virt. eigenvalues --    0.52270   0.52547   0.52983   0.54060   0.54483
 Alpha virt. eigenvalues --    0.54862   0.55851   0.56873   0.57257   0.57835
 Alpha virt. eigenvalues --    0.58749   0.58881   0.60373   0.61063   0.62269
 Alpha virt. eigenvalues --    0.63192   0.64431   0.64829   0.66552   0.69073
 Alpha virt. eigenvalues --    0.69447   0.70367   0.71647   0.72517   0.74419
 Alpha virt. eigenvalues --    0.75950   0.76828   0.77315   0.78608   0.79335
 Alpha virt. eigenvalues --    0.82184   0.82428   0.84448   0.84891   0.85150
 Alpha virt. eigenvalues --    0.86653   0.87773   0.88494   0.89037   0.89909
 Alpha virt. eigenvalues --    0.90829   0.91974   0.92700   0.95191   0.95926
 Alpha virt. eigenvalues --    0.97931   0.99531   0.99744   1.01070   1.01431
 Alpha virt. eigenvalues --    1.01895   1.03402   1.03566   1.04531   1.06140
 Alpha virt. eigenvalues --    1.06611   1.07018   1.07386   1.08538   1.08975
 Alpha virt. eigenvalues --    1.09923   1.10414   1.11419   1.12038   1.12867
 Alpha virt. eigenvalues --    1.13643   1.14180   1.15042   1.15287   1.16134
 Alpha virt. eigenvalues --    1.16330   1.17048   1.17681   1.18348   1.19145
 Alpha virt. eigenvalues --    1.19622   1.20898   1.21550   1.22359   1.23636
 Alpha virt. eigenvalues --    1.24857   1.25740   1.26329   1.26529   1.27153
 Alpha virt. eigenvalues --    1.27318   1.27921   1.28756   1.29504   1.30096
 Alpha virt. eigenvalues --    1.30677   1.30763   1.31301   1.32401   1.32672
 Alpha virt. eigenvalues --    1.32975   1.33195   1.34349   1.34628   1.35350
 Alpha virt. eigenvalues --    1.35835   1.36756   1.37347   1.37668   1.38065
 Alpha virt. eigenvalues --    1.38262   1.38781   1.39165   1.39308   1.39497
 Alpha virt. eigenvalues --    1.40474   1.41345   1.41942   1.42170   1.42343
 Alpha virt. eigenvalues --    1.43195   1.43925   1.45350   1.46087   1.46477
 Alpha virt. eigenvalues --    1.46879   1.48129   1.48245   1.48632   1.49511
 Alpha virt. eigenvalues --    1.50118   1.51120   1.51713   1.51867   1.52883
 Alpha virt. eigenvalues --    1.54124   1.54596   1.55055   1.56011   1.57800
 Alpha virt. eigenvalues --    1.59011   1.60207   1.60767   1.61940   1.63256
 Alpha virt. eigenvalues --    1.63590   1.64251   1.65468   1.66172   1.66286
 Alpha virt. eigenvalues --    1.67376   1.67918   1.69245   1.69917   1.70352
 Alpha virt. eigenvalues --    1.70992   1.71418   1.71978   1.72880   1.73870
 Alpha virt. eigenvalues --    1.74639   1.75064   1.75632   1.77001   1.77685
 Alpha virt. eigenvalues --    1.77713   1.78736   1.78946   1.79118   1.80803
 Alpha virt. eigenvalues --    1.81234   1.81722   1.81782   1.82409   1.82516
 Alpha virt. eigenvalues --    1.83430   1.83780   1.84714   1.84964   1.85235
 Alpha virt. eigenvalues --    1.85385   1.85749   1.86435   1.86636   1.87208
 Alpha virt. eigenvalues --    1.87771   1.88096   1.88558   1.88937   1.89302
 Alpha virt. eigenvalues --    1.89522   1.90238   1.90711   1.91241   1.91635
 Alpha virt. eigenvalues --    1.92031   1.92674   1.93408   1.94006   1.94274
 Alpha virt. eigenvalues --    1.94940   1.95586   1.96059   1.96314   1.97093
 Alpha virt. eigenvalues --    1.97817   1.98394   1.98604   1.98979   1.99681
 Alpha virt. eigenvalues --    1.99801   1.99992   2.00945   2.00980   2.01393
 Alpha virt. eigenvalues --    2.01618   2.01836   2.02352   2.02739   2.02989
 Alpha virt. eigenvalues --    2.03325   2.03695   2.04660   2.05447   2.05696
 Alpha virt. eigenvalues --    2.06331   2.06697   2.07182   2.07337   2.07482
 Alpha virt. eigenvalues --    2.07995   2.08907   2.09389   2.09707   2.09975
 Alpha virt. eigenvalues --    2.10239   2.11497   2.11727   2.12491   2.14224
 Alpha virt. eigenvalues --    2.14913   2.16211   2.16623   2.17109   2.18273
 Alpha virt. eigenvalues --    2.19062   2.19970   2.20753   2.21811   2.23809
 Alpha virt. eigenvalues --    2.24529   2.25425   2.26966   2.27806   2.28097
 Alpha virt. eigenvalues --    2.29075   2.29618   2.30124   2.31194   2.32672
 Alpha virt. eigenvalues --    2.33575   2.35869   2.36453   2.37113   2.38199
 Alpha virt. eigenvalues --    2.38465   2.39155   2.40273   2.41087   2.42808
 Alpha virt. eigenvalues --    2.43955   2.45127   2.45995   2.46575   2.47202
 Alpha virt. eigenvalues --    2.48629   2.49835   2.50915   2.52229   2.53645
 Alpha virt. eigenvalues --    2.53928   2.54628   2.56163   2.57465   2.58043
 Alpha virt. eigenvalues --    2.58564   2.59856   2.60575   2.61707   2.62850
 Alpha virt. eigenvalues --    2.63257   2.64425   2.65362   2.66629   2.66742
 Alpha virt. eigenvalues --    2.67806   2.69527   2.71995   2.72706   2.73682
 Alpha virt. eigenvalues --    2.76323   2.77989   2.78977   2.79504   2.80230
 Alpha virt. eigenvalues --    2.81872   2.82456   2.83543   2.84809   2.85532
 Alpha virt. eigenvalues --    2.87105   2.87833   2.88332   2.89032   2.90427
 Alpha virt. eigenvalues --    2.91275   2.92892   2.93137   2.94394   2.96808
 Alpha virt. eigenvalues --    2.97302   2.97767   3.00391   3.01537   3.02929
 Alpha virt. eigenvalues --    3.03082   3.04310   3.04817   3.05295   3.07380
 Alpha virt. eigenvalues --    3.08454   3.09955   3.10805   3.12190   3.13550
 Alpha virt. eigenvalues --    3.15288   3.16073   3.16875   3.19164   3.21708
 Alpha virt. eigenvalues --    3.22330   3.22843   3.24287   3.25280   3.28518
 Alpha virt. eigenvalues --    3.29199   3.30211   3.31989   3.34972   3.35786
 Alpha virt. eigenvalues --    3.41361   3.46731   3.65262   4.03238   4.04692
 Alpha virt. eigenvalues --    4.09976   4.12600   4.16692   4.20994   4.24195
 Alpha virt. eigenvalues --    4.26612   4.29698   4.34085   4.36878   4.40252
 Alpha virt. eigenvalues --    4.40862   4.43645   4.46703   4.49866   4.55208
 Alpha virt. eigenvalues --    4.56104   4.59483   4.64819   4.73726   4.74522
 Alpha virt. eigenvalues --    4.80059   4.82397   4.86872   4.92840   5.03763
 Alpha virt. eigenvalues --    5.15923   5.24827   5.31279   5.37705   5.52414
 Alpha virt. eigenvalues --    5.64819   6.03349   6.15342   6.36537   6.50608
 Alpha virt. eigenvalues --    6.53180
  Beta  occ. eigenvalues --  -24.87312 -24.86713 -24.85873 -24.85786 -24.85696
  Beta  occ. eigenvalues --  -24.85477 -24.85422 -24.85362 -24.85335 -24.85321
  Beta  occ. eigenvalues --  -24.85075 -24.85058 -24.85011 -24.84850 -24.84784
  Beta  occ. eigenvalues --  -24.84756 -24.84687 -24.84632 -19.35393 -19.34769
  Beta  occ. eigenvalues --  -19.31741 -19.27196 -14.62729 -14.57804 -14.54957
  Beta  occ. eigenvalues --  -10.61486 -10.61124 -10.57956 -10.57537 -10.56693
  Beta  occ. eigenvalues --  -10.56436 -10.53015 -10.51876 -10.51588 -10.49599
  Beta  occ. eigenvalues --  -10.45585 -10.44676 -10.40983  -1.45109  -1.44677
  Beta  occ. eigenvalues --   -1.44205  -1.43876  -1.42485  -1.41518  -1.38335
  Beta  occ. eigenvalues --   -1.37213  -1.35696  -1.35491  -1.35301  -1.35079
  Beta  occ. eigenvalues --   -1.34874  -1.34549  -1.34442  -1.34417  -1.34061
  Beta  occ. eigenvalues --   -1.33913  -1.28091  -1.23221  -1.22605  -1.22239
  Beta  occ. eigenvalues --   -1.18561  -1.13813  -1.11999  -0.98624  -0.96320
  Beta  occ. eigenvalues --   -0.96267  -0.92089  -0.89145  -0.86850  -0.84536
  Beta  occ. eigenvalues --   -0.83908  -0.82907  -0.80616  -0.78863  -0.77956
  Beta  occ. eigenvalues --   -0.77519  -0.75699  -0.74979  -0.74332  -0.74135
  Beta  occ. eigenvalues --   -0.72963  -0.72563  -0.72269  -0.71805  -0.71311
  Beta  occ. eigenvalues --   -0.71211  -0.70705  -0.70024  -0.69870  -0.69549
  Beta  occ. eigenvalues --   -0.69195  -0.68729  -0.68456  -0.68013  -0.67336
  Beta  occ. eigenvalues --   -0.67091  -0.64754  -0.63179  -0.62426  -0.62168
  Beta  occ. eigenvalues --   -0.60985  -0.60549  -0.60195  -0.59444  -0.59230
  Beta  occ. eigenvalues --   -0.59071  -0.58795  -0.58594  -0.58240  -0.58129
  Beta  occ. eigenvalues --   -0.57911  -0.57632  -0.57239  -0.57122  -0.56980
  Beta  occ. eigenvalues --   -0.56519  -0.56381  -0.56014  -0.55720  -0.55420
  Beta  occ. eigenvalues --   -0.54950  -0.54770  -0.54533  -0.54432  -0.54269
  Beta  occ. eigenvalues --   -0.53949  -0.53691  -0.53479  -0.53394  -0.52934
  Beta  occ. eigenvalues --   -0.52842  -0.52444  -0.52307  -0.51934  -0.51783
  Beta  occ. eigenvalues --   -0.51413  -0.51090  -0.50923  -0.50664  -0.49178
  Beta  occ. eigenvalues --   -0.48585  -0.48255  -0.46936  -0.46652  -0.45054
  Beta  occ. eigenvalues --   -0.43845  -0.41029  -0.40761
  Beta virt. eigenvalues --   -0.23400  -0.05166  -0.01002   0.00923   0.02387
  Beta virt. eigenvalues --    0.03283   0.05613   0.07049   0.07652   0.08693
  Beta virt. eigenvalues --    0.09537   0.10617   0.11924   0.12720   0.13414
  Beta virt. eigenvalues --    0.13994   0.14954   0.15557   0.17111   0.17423
  Beta virt. eigenvalues --    0.17748   0.18529   0.20026   0.20375   0.20718
  Beta virt. eigenvalues --    0.21053   0.21189   0.21435   0.22097   0.22242
  Beta virt. eigenvalues --    0.22662   0.23160   0.23836   0.25036   0.25672
  Beta virt. eigenvalues --    0.25997   0.26829   0.27265   0.27950   0.28969
  Beta virt. eigenvalues --    0.30575   0.31001   0.31791   0.33947   0.34331
  Beta virt. eigenvalues --    0.38594   0.41485   0.42613   0.43696   0.45084
  Beta virt. eigenvalues --    0.46286   0.47133   0.47618   0.48142   0.48937
  Beta virt. eigenvalues --    0.49353   0.49890   0.50410   0.51040   0.51569
  Beta virt. eigenvalues --    0.52281   0.52335   0.52630   0.53058   0.54354
  Beta virt. eigenvalues --    0.54820   0.55153   0.56423   0.57073   0.57440
  Beta virt. eigenvalues --    0.58072   0.58883   0.59172   0.60598   0.61873
  Beta virt. eigenvalues --    0.62827   0.63371   0.64559   0.65043   0.66721
  Beta virt. eigenvalues --    0.69141   0.69503   0.70465   0.71697   0.72661
  Beta virt. eigenvalues --    0.74545   0.76294   0.77117   0.77399   0.78799
  Beta virt. eigenvalues --    0.79615   0.82546   0.82626   0.84771   0.84926
  Beta virt. eigenvalues --    0.85288   0.86767   0.87901   0.88562   0.89172
  Beta virt. eigenvalues --    0.90141   0.91051   0.92177   0.92941   0.95302
  Beta virt. eigenvalues --    0.96051   0.98223   0.99654   0.99872   1.01174
  Beta virt. eigenvalues --    1.01478   1.02250   1.03491   1.03723   1.04686
  Beta virt. eigenvalues --    1.06235   1.06812   1.07094   1.07468   1.08587
  Beta virt. eigenvalues --    1.09132   1.10045   1.10452   1.11445   1.12073
  Beta virt. eigenvalues --    1.12936   1.13667   1.14338   1.15095   1.15360
  Beta virt. eigenvalues --    1.16160   1.16366   1.17131   1.17763   1.18430
  Beta virt. eigenvalues --    1.19314   1.19776   1.20930   1.21613   1.22514
  Beta virt. eigenvalues --    1.23714   1.24915   1.25786   1.26375   1.26580
  Beta virt. eigenvalues --    1.27217   1.27337   1.27988   1.28954   1.29846
  Beta virt. eigenvalues --    1.30383   1.30793   1.31166   1.31945   1.32483
  Beta virt. eigenvalues --    1.32729   1.32981   1.33355   1.34382   1.34653
  Beta virt. eigenvalues --    1.35376   1.35853   1.36793   1.37406   1.37718
  Beta virt. eigenvalues --    1.38264   1.38338   1.38793   1.39267   1.39408
  Beta virt. eigenvalues --    1.40520   1.40782   1.41433   1.42138   1.42337
  Beta virt. eigenvalues --    1.42793   1.43301   1.43951   1.45405   1.46101
  Beta virt. eigenvalues --    1.46500   1.46918   1.48163   1.48282   1.48697
  Beta virt. eigenvalues --    1.49579   1.50126   1.51183   1.51753   1.51910
  Beta virt. eigenvalues --    1.52914   1.54225   1.54669   1.55246   1.56177
  Beta virt. eigenvalues --    1.57880   1.59059   1.60240   1.60889   1.62058
  Beta virt. eigenvalues --    1.63387   1.63646   1.64301   1.65593   1.66216
  Beta virt. eigenvalues --    1.66389   1.67456   1.67971   1.69316   1.69989
  Beta virt. eigenvalues --    1.70446   1.71031   1.71493   1.72049   1.72959
  Beta virt. eigenvalues --    1.74078   1.74882   1.75172   1.75693   1.77019
  Beta virt. eigenvalues --    1.77748   1.77811   1.78934   1.79101   1.79337
  Beta virt. eigenvalues --    1.80981   1.81274   1.81758   1.81908   1.82553
  Beta virt. eigenvalues --    1.83053   1.83457   1.83821   1.84761   1.85030
  Beta virt. eigenvalues --    1.85269   1.85517   1.85777   1.86494   1.86897
  Beta virt. eigenvalues --    1.87286   1.88066   1.88267   1.88781   1.89104
  Beta virt. eigenvalues --    1.89398   1.89592   1.90412   1.90767   1.91297
  Beta virt. eigenvalues --    1.91680   1.92095   1.92753   1.93657   1.94100
  Beta virt. eigenvalues --    1.94361   1.95160   1.95693   1.96201   1.96508
  Beta virt. eigenvalues --    1.97177   1.97960   1.98462   1.99139   1.99178
  Beta virt. eigenvalues --    1.99746   1.99866   2.00224   2.00987   2.01026
  Beta virt. eigenvalues --    2.01414   2.01629   2.01881   2.02442   2.02796
  Beta virt. eigenvalues --    2.03026   2.03436   2.03833   2.04843   2.05480
  Beta virt. eigenvalues --    2.05714   2.06400   2.06797   2.07211   2.07368
  Beta virt. eigenvalues --    2.07516   2.08051   2.08954   2.09397   2.09755
  Beta virt. eigenvalues --    2.10049   2.10313   2.11512   2.11800   2.12705
  Beta virt. eigenvalues --    2.14252   2.14971   2.16243   2.16701   2.17151
  Beta virt. eigenvalues --    2.18290   2.19075   2.20130   2.20799   2.22308
  Beta virt. eigenvalues --    2.23887   2.24588   2.25471   2.27029   2.27828
  Beta virt. eigenvalues --    2.28250   2.29127   2.29724   2.30247   2.31315
  Beta virt. eigenvalues --    2.32736   2.33651   2.35926   2.36636   2.37332
  Beta virt. eigenvalues --    2.38230   2.38570   2.39408   2.40405   2.41266
  Beta virt. eigenvalues --    2.43013   2.44070   2.45182   2.46450   2.46637
  Beta virt. eigenvalues --    2.47433   2.48715   2.49894   2.51035   2.52369
  Beta virt. eigenvalues --    2.53765   2.54330   2.55251   2.56340   2.57856
  Beta virt. eigenvalues --    2.58172   2.59025   2.60033   2.60700   2.61837
  Beta virt. eigenvalues --    2.63178   2.63555   2.64522   2.65429   2.66733
  Beta virt. eigenvalues --    2.66888   2.68041   2.69615   2.72077   2.72845
  Beta virt. eigenvalues --    2.73714   2.76384   2.78065   2.79072   2.79560
  Beta virt. eigenvalues --    2.80414   2.81881   2.82531   2.83619   2.84827
  Beta virt. eigenvalues --    2.85557   2.87157   2.87916   2.88351   2.89095
  Beta virt. eigenvalues --    2.90441   2.91342   2.92948   2.93170   2.94417
  Beta virt. eigenvalues --    2.96854   2.97353   2.97865   3.00506   3.01623
  Beta virt. eigenvalues --    3.02936   3.03085   3.04323   3.04819   3.05308
  Beta virt. eigenvalues --    3.07406   3.08486   3.09961   3.10822   3.12308
  Beta virt. eigenvalues --    3.13566   3.15311   3.16085   3.16909   3.19173
  Beta virt. eigenvalues --    3.21755   3.22538   3.22877   3.24360   3.25319
  Beta virt. eigenvalues --    3.28527   3.29203   3.30256   3.32031   3.35072
  Beta virt. eigenvalues --    3.35874   3.41698   3.46928   3.65648   4.03958
  Beta virt. eigenvalues --    4.04702   4.10643   4.13151   4.16776   4.21274
  Beta virt. eigenvalues --    4.24243   4.26709   4.29757   4.34304   4.37053
  Beta virt. eigenvalues --    4.40267   4.40918   4.43835   4.46831   4.49876
  Beta virt. eigenvalues --    4.55221   4.56283   4.59614   4.64875   4.73836
  Beta virt. eigenvalues --    4.74550   4.80063   4.82430   4.86881   4.92844
  Beta virt. eigenvalues --    5.03767   5.15933   5.24828   5.31280   5.37706
  Beta virt. eigenvalues --    5.52419   5.64820   6.03352   6.15342   6.36540
  Beta virt. eigenvalues --    6.50610   6.53182
          Condensed to atoms (all electrons):
               1          2          3          4          5          6
     1  C    4.963797   0.492581  -0.043429   0.000123   0.000055  -0.000007
     2  C    0.492581   4.626272   0.371515  -0.037796   0.004265  -0.000005
     3  N   -0.043429   0.371515   7.102068   0.182192  -0.028992   0.002322
     4  C    0.000123  -0.037796   0.182192   4.784788   0.225880  -0.022743
     5  N    0.000055   0.004265  -0.028992   0.225880   7.417783   0.204993
     6  C   -0.000007  -0.000005   0.002322  -0.022743   0.204993   4.353356
     7  F    0.000000   0.000006   0.000470   0.005626  -0.045857   0.267913
     8  F    0.000000   0.000000  -0.000015   0.000045  -0.051821   0.286188
     9  C    0.000002   0.000008   0.000099   0.001528  -0.068018   0.220352
    10  F   -0.000007   0.000007  -0.000151   0.000385  -0.000253  -0.016959
    11  O    0.000000   0.000000  -0.000006   0.000008  -0.000478  -0.025936
    12  C    0.000000   0.000000   0.000000   0.000007  -0.000251   0.001171
    13  F    0.000000   0.000000   0.000000   0.000000   0.000001  -0.000167
    14  F    0.000000   0.000000   0.000000   0.000000  -0.000003   0.000222
    15  F    0.000000   0.000000   0.000000   0.000000   0.000001  -0.000030
    16  C    0.000000   0.000000  -0.000001  -0.000030   0.003396  -0.036032
    17  F    0.000000   0.000000   0.000000   0.000000  -0.000013   0.001472
    18  F    0.000000   0.000000   0.000000   0.000000  -0.000032  -0.000089
    19  F    0.000000   0.000000   0.000000   0.000013   0.000047   0.007878
    20  C   -0.000027   0.000044  -0.003237  -0.029929   0.257630  -0.010256
    21  O    0.000000   0.000000   0.000035   0.002829  -0.092085   0.014221
    22  N   -0.000147   0.003340  -0.091870   0.013320  -0.103910   0.001853
    23  C    0.000001  -0.000021   0.001631   0.000050   0.002185  -0.000022
    24  F    0.000000   0.000000  -0.000023  -0.000013   0.000003   0.000013
    25  F    0.000000   0.000001  -0.000022   0.000025   0.000011   0.000002
    26  C    0.000000  -0.000007  -0.000001  -0.000017  -0.000076   0.000000
    27  F    0.000000   0.000000   0.000000   0.000000   0.000000   0.000000
    28  O    0.000000   0.000004  -0.000006   0.000001   0.000000   0.000000
    29  C    0.000000   0.000001   0.000007   0.000000   0.000000   0.000000
    30  F    0.000000   0.000000   0.000000   0.000000   0.000000   0.000000
    31  F    0.000000   0.000000   0.000000   0.000000   0.000000   0.000000
    32  F    0.000000   0.000002   0.000005   0.000000   0.000000   0.000000
    33  C    0.000000   0.000005  -0.000131   0.000018  -0.000008   0.000000
    34  F    0.000000   0.000000   0.000000  -0.000001   0.000000   0.000000
    35  F    0.000000   0.000046  -0.001170  -0.000008  -0.000002   0.000000
    36  F    0.000000   0.000000   0.000000   0.000000   0.000000   0.000000
    37  C    0.003796  -0.020504   0.180069  -0.027187  -0.004871   0.000275
    38  O    0.001010   0.002645  -0.085916   0.001364   0.000039   0.000001
    39  H    0.382057  -0.033276  -0.006494   0.001858   0.000028  -0.000013
    40  H    0.382232  -0.021644   0.002465   0.000094  -0.000004   0.000000
    41  H   -0.032415   0.384955  -0.036815   0.002302  -0.000084   0.000001
    42  H   -0.000186   0.000996  -0.048978   0.406067  -0.052370   0.000466
    43  H    0.003313  -0.007756  -0.023298   0.387795  -0.033017  -0.001637
               7          8          9         10         11         12
     1  C    0.000000   0.000000   0.000002  -0.000007   0.000000   0.000000
     2  C    0.000006   0.000000   0.000008   0.000007   0.000000   0.000000
     3  N    0.000470  -0.000015   0.000099  -0.000151  -0.000006   0.000000
     4  C    0.005626   0.000045   0.001528   0.000385   0.000008   0.000007
     5  N   -0.045857  -0.051821  -0.068018  -0.000253  -0.000478  -0.000251
     6  C    0.267913   0.286188   0.220352  -0.016959  -0.025936   0.001171
     7  F    9.095667  -0.039598  -0.027474  -0.000524   0.000518   0.000002
     8  F   -0.039598   9.070363  -0.039407   0.000314   0.000617  -0.000057
     9  C   -0.027474  -0.039407   4.983306   0.207473   0.169692   0.001994
    10  F   -0.000524   0.000314   0.207473   9.148086  -0.051679  -0.001050
    11  O    0.000518   0.000617   0.169692  -0.051679   8.336363   0.230682
[...]
    33  C(13)             -0.00003      -0.03153      -0.01125      -0.01052
    34  F(19)              0.00001       0.06228       0.02222       0.02077
    35  F(19)             -0.00022      -0.92412      -0.32975      -0.30825
    36  F(19)             -0.00001      -0.04030      -0.01438      -0.01344
    37  C(13)             -0.01477     -16.60022      -5.92337      -5.53724
    38  O(17)              0.01149      -6.96495      -2.48527      -2.32326
    39  H(1)              -0.00897     -40.10320     -14.30982     -13.37699
    40  H(1)              -0.00942     -42.12659     -15.03182     -14.05192
    41  H(1)              -0.00074      -3.28599      -1.17252      -1.09609
    42  H(1)               0.01195      53.41246      19.05889      17.81648
    43  H(1)               0.00327      14.60111       5.21004       4.87041
 --------------------------------------------------------
       Center         ----  Spin Dipole Couplings  ----
                      3XX-RR        3YY-RR        3ZZ-RR
 --------------------------------------------------------
     1   Atom       -0.209299     -0.311490      0.520789
     2   Atom       -0.045789     -0.006641      0.052430
     3   Atom       -0.301325     -0.422437      0.723762
     4   Atom        0.005342     -0.008764      0.003421
     5   Atom        0.007270      0.000535     -0.007805
     6   Atom        0.003617     -0.001378     -0.002238
     7   Atom        0.001749     -0.002104      0.000355
     8   Atom        0.001965     -0.000627     -0.001337
     9   Atom        0.001492     -0.000815     -0.000677
    10   Atom        0.001816     -0.001534     -0.000282
    11   Atom        0.000625     -0.000231     -0.000394
    12   Atom        0.000247     -0.000217     -0.000030
    13   Atom        0.000244     -0.000132     -0.000112
    14   Atom        0.000268     -0.000399      0.000131
    15   Atom       -0.000041     -0.000073      0.000114
    16   Atom        0.000953     -0.000457     -0.000497
    17   Atom        0.000655     -0.000380     -0.000275
    18   Atom        0.000612     -0.000231     -0.000381
    19   Atom        0.001014     -0.000488     -0.000526
    20   Atom       -0.000873      0.003663     -0.002790
    21   Atom        0.005322      0.002614     -0.007936
    22   Atom       -0.008078      0.002017      0.006062
    23   Atom       -0.000963      0.002642     -0.001678
    24   Atom       -0.000752      0.001160     -0.000408
    25   Atom       -0.003451      0.006669     -0.003218
    26   Atom       -0.000995      0.001991     -0.000995
    27   Atom       -0.000362      0.000882     -0.000520
    28   Atom       -0.000808      0.002288     -0.001481
    29   Atom       -0.000486      0.001214     -0.000727
    30   Atom       -0.000454      0.000688     -0.000234
    31   Atom        0.000098      0.000359     -0.000458
    32   Atom       -0.002898      0.003472     -0.000574
    33   Atom       -0.000873      0.000959     -0.000086
    34   Atom       -0.000827      0.000917     -0.000089
    35   Atom       -0.001966     -0.000533      0.002499
    36   Atom       -0.000351      0.000359     -0.000008
    37   Atom        0.020929      0.038543     -0.059472
    38   Atom       -0.157082     -0.189489      0.346570
    39   Atom        0.028446     -0.025803     -0.002643
    40   Atom       -0.003552      0.010946     -0.007394
    41   Atom        0.006625      0.001728     -0.008353
    42   Atom        0.000345     -0.004580      0.004236
    43   Atom        0.009218     -0.002007     -0.007211
 --------------------------------------------------------
                        XY            XZ            YZ
 --------------------------------------------------------
     1   Atom       -0.015328      0.304342     -0.037092
     2   Atom       -0.000143      0.034067      0.005286
     3   Atom        0.011023      0.391189      0.031352
     4   Atom        0.003577     -0.006190     -0.001834
     5   Atom        0.012369      0.003773      0.004114
     6   Atom        0.001063      0.000319     -0.000071
     7   Atom        0.000498     -0.001016     -0.000755
     8   Atom        0.001284      0.000089     -0.000068
     9   Atom        0.000893      0.001045      0.000298
    10   Atom        0.000631      0.002246      0.000361
    11   Atom        0.001012      0.000957      0.000603
    12   Atom        0.000473      0.000634      0.000381
    13   Atom        0.000336      0.000365      0.000209
    14   Atom        0.000295      0.000747      0.000260
    15   Atom        0.000380      0.000493      0.000451
    16   Atom        0.000355      0.000335      0.000082
    17   Atom        0.000138      0.000458      0.000049
    18   Atom        0.000373      0.000143      0.000058
    19   Atom        0.000153      0.000133      0.000000
    20   Atom        0.003734      0.000893      0.000114
    21   Atom       -0.002766      0.000784      0.004614
    22   Atom        0.000785      0.001543      0.003896
    23   Atom        0.000741     -0.000266     -0.000600
    24   Atom       -0.000263     -0.000430     -0.000317
    25   Atom        0.001975      0.001047      0.003674
    26   Atom       -0.000611      0.000143     -0.000917
    27   Atom       -0.000398      0.000111     -0.000366
    28   Atom       -0.001168      0.000164     -0.000337
    29   Atom       -0.001090     -0.000232      0.000550
    30   Atom       -0.000477      0.000115      0.000180
    31   Atom       -0.000844     -0.000186      0.000331
    32   Atom       -0.002013     -0.001208      0.004458
    33   Atom       -0.000613      0.000310     -0.001378
    34   Atom       -0.000171     -0.000026     -0.001027
    35   Atom       -0.001029      0.000328     -0.001532
    36   Atom       -0.000505      0.000350     -0.000689
    37   Atom       -0.013825     -0.028249      0.000432
    38   Atom        0.012546      0.134092      0.062366
    39   Atom       -0.028999     -0.012819      0.009600
    40   Atom        0.041224      0.000464     -0.014378
    41   Atom       -0.011944     -0.005327      0.004150
    42   Atom        0.001872     -0.006174     -0.001547
    43   Atom       -0.000165     -0.002751     -0.000208
 --------------------------------------------------------


 ---------------------------------------------------------------------------------
              Anisotropic Spin Dipole Couplings in Principal Axis System
 ---------------------------------------------------------------------------------

       Atom             a.u.   MegaHertz   Gauss  10(-4) cm-1        Axes

              Baa    -0.3200   -42.940   -15.322   -14.323  0.9132  0.2530 -0.3194
     1 C(13)  Bbb    -0.3127   -41.965   -14.974   -13.998 -0.2241  0.9665  0.1249
              Bcc     0.6327    84.905    30.296    28.321  0.3403 -0.0424  0.9394
 
              Baa    -0.0565    -7.583    -2.706    -2.529  0.9534  0.0345 -0.2998
     2 C(13)  Bbb    -0.0069    -0.931    -0.332    -0.311 -0.0542  0.9969 -0.0576
              Bcc     0.0634     8.514     3.038     2.840  0.2969  0.0712  0.9523
 
              Baa    -0.4336   -16.722    -5.967    -5.578  0.9469 -0.0392 -0.3190
     3 N(14)  Bbb    -0.4233   -16.325    -5.825    -5.445  0.0289  0.9989 -0.0371
              Bcc     0.8569    33.047    11.792    11.023  0.3201  0.0260  0.9470
 
              Baa    -0.0096    -1.292    -0.461    -0.431 -0.2193  0.9751  0.0330
     4 C(13)  Bbb    -0.0018    -0.238    -0.085    -0.079  0.6191  0.1130  0.7772
              Bcc     0.0114     1.531     0.546     0.511  0.7541  0.1909 -0.6284
 
              Baa    -0.0099    -0.382    -0.136    -0.127  0.3070 -0.6409  0.7036
     5 N(14)  Bbb    -0.0080    -0.308    -0.110    -0.103 -0.5562  0.4791  0.6791
              Bcc     0.0179     0.690     0.246     0.230  0.7723  0.5998  0.2094
 
              Baa    -0.0023    -0.306    -0.109    -0.102 -0.0851  0.1777  0.9804
     6 C(13)  Bbb    -0.0016    -0.211    -0.075    -0.070 -0.1858  0.9639 -0.1909
              Bcc     0.0038     0.516     0.184     0.172  0.9789  0.1984  0.0490
 
              Baa    -0.0023    -1.169    -0.417    -0.390 -0.0555  0.9664  0.2508
     7 F(19)  Bbb    -0.0001    -0.048    -0.017    -0.016  0.5120 -0.1881  0.8381
              Bcc     0.0024     1.218     0.435     0.406  0.8572  0.1750 -0.4844
 
              Baa    -0.0014    -0.693    -0.247    -0.231 -0.1632  0.3612  0.9181
     8 F(19)  Bbb    -0.0011    -0.559    -0.200    -0.187 -0.3437  0.8515 -0.3961
              Bcc     0.0025     1.253     0.447     0.418  0.9248  0.3802  0.0149
 
              Baa    -0.0012    -0.155    -0.055    -0.052 -0.4535  0.6993  0.5526
     9 C(13)  Bbb    -0.0010    -0.141    -0.050    -0.047 -0.0822 -0.6502  0.7553
              Bcc     0.0022     0.296     0.106     0.099  0.8875  0.2970  0.3524
 
              Baa    -0.0017    -0.867    -0.309    -0.289 -0.5431  0.3762  0.7507
    10 F(19)  Bbb    -0.0016    -0.818    -0.292    -0.273  0.0892  0.9148 -0.3939
              Bcc     0.0034     1.685     0.601     0.562  0.8349  0.1470  0.5304
 
              Baa    -0.0010     0.070     0.025     0.023 -0.5326  0.0392  0.8455
    11 O(17)  Bbb    -0.0009     0.065     0.023     0.022 -0.3971  0.8706 -0.2905
              Bcc     0.0019    -0.135    -0.048    -0.045  0.7474  0.4904  0.4481
 
              Baa    -0.0005    -0.073    -0.026    -0.024 -0.6244 -0.0070  0.7810
    12 C(13)  Bbb    -0.0005    -0.068    -0.024    -0.023 -0.3418  0.9016 -0.2652
              Bcc     0.0010     0.141     0.050     0.047  0.7023  0.4326  0.5654
 
              Baa    -0.0003    -0.171    -0.061    -0.057 -0.5478  0.0461  0.8353
    13 F(19)  Bbb    -0.0003    -0.165    -0.059    -0.055 -0.3488  0.8949 -0.2782
              Bcc     0.0007     0.335     0.120     0.112  0.7604  0.4438  0.4742
 
              Baa    -0.0006    -0.277    -0.099    -0.092 -0.6943  0.1425  0.7055
    14 F(19)  Bbb    -0.0005    -0.253    -0.090    -0.084 -0.0914  0.9548 -0.2828
              Bcc     0.0011     0.530     0.189     0.177  0.7139  0.2608  0.6499
 
              Baa    -0.0005    -0.232    -0.083    -0.078  0.7169  0.0991 -0.6901
    15 F(19)  Bbb    -0.0004    -0.217    -0.077    -0.072 -0.4238  0.8480 -0.3184
              Bcc     0.0009     0.450     0.160     0.150  0.5536  0.5207  0.6499
 
              Baa    -0.0006    -0.077    -0.027    -0.026 -0.1829 -0.1328  0.9741
    16 C(13)  Bbb    -0.0005    -0.073    -0.026    -0.024 -0.2483  0.9650  0.0849
              Bcc     0.0011     0.149     0.053     0.050  0.9513  0.2264  0.2095
 
              Baa    -0.0005    -0.233    -0.083    -0.078 -0.3876  0.1024  0.9161
    17 F(19)  Bbb    -0.0004    -0.199    -0.071    -0.066 -0.0692  0.9878 -0.1397
              Bcc     0.0009     0.432     0.154     0.144  0.9192  0.1175  0.3758
 
              Baa    -0.0004    -0.202    -0.072    -0.067 -0.0865 -0.1441  0.9858
    18 F(19)  Bbb    -0.0004    -0.187    -0.067    -0.062 -0.3658  0.9249  0.1031
              Bcc     0.0008     0.389     0.139     0.130  0.9266  0.3517  0.1327
 
              Baa    -0.0005    -0.272    -0.097    -0.091 -0.1111  0.3082  0.9448
    19 F(19)  Bbb    -0.0005    -0.250    -0.089    -0.084 -0.0679  0.9461 -0.3166
              Bcc     0.0010     0.523     0.186     0.174  0.9915  0.0993  0.0842
 
              Baa    -0.0036    -0.486    -0.174    -0.162 -0.6660  0.3308  0.6686
    20 C(13)  Bbb    -0.0022    -0.292    -0.104    -0.097  0.5590 -0.3720  0.7410
              Bcc     0.0058     0.778     0.278     0.259  0.4939  0.8673  0.0628
 
              Baa    -0.0099     0.714     0.255     0.238 -0.1144 -0.3667  0.9233
    21 O(17)  Bbb     0.0026    -0.185    -0.066    -0.062  0.6088  0.7085  0.3569
              Bcc     0.0073    -0.529    -0.189    -0.176  0.7850 -0.6029 -0.1422
 
              Baa    -0.0083    -0.319    -0.114    -0.106  0.9946 -0.0395 -0.0964
    22 N(14)  Bbb    -0.0003    -0.013    -0.005    -0.004 -0.0161  0.8561 -0.5165
              Bcc     0.0086     0.332     0.118     0.111  0.1029  0.5152  0.8509
 
              Baa    -0.0018    -0.241    -0.086    -0.080  0.2264  0.0933  0.9696
    23 C(13)  Bbb    -0.0011    -0.145    -0.052    -0.048  0.9539 -0.2224 -0.2013
              Bcc     0.0029     0.386     0.138     0.129  0.1969  0.9705 -0.1394
 
              Baa    -0.0011    -0.559    -0.199    -0.186  0.8043  0.1725  0.5686
    24 F(19)  Bbb    -0.0001    -0.063    -0.023    -0.021 -0.5867  0.0786  0.8060
              Bcc     0.0012     0.622     0.222     0.207 -0.0944  0.9819 -0.1645
 
              Baa    -0.0046    -2.317    -0.827    -0.773 -0.4328 -0.2097  0.8768
    25 F(19)  Bbb    -0.0037    -1.851    -0.660    -0.617  0.8824 -0.2976  0.3644
              Bcc     0.0083     4.168     1.487     1.390  0.1845  0.9314  0.3139
 
              Baa    -0.0013    -0.169    -0.060    -0.056  0.1847  0.2990  0.9362
    26 C(13)  Bbb    -0.0011    -0.149    -0.053    -0.050  0.9655  0.1225 -0.2296
              Bcc     0.0024     0.318     0.113     0.106 -0.1834  0.9464 -0.2660
 
              Baa    -0.0006    -0.307    -0.110    -0.102 -0.0944  0.2132  0.9724
    27 F(19)  Bbb    -0.0005    -0.240    -0.086    -0.080  0.9572  0.2880  0.0298
              Bcc     0.0011     0.547     0.195     0.182 -0.2737  0.9336 -0.2312
 
              Baa    -0.0015     0.110     0.039     0.037 -0.1697  0.0351  0.9849
    28 O(17)  Bbb    -0.0012     0.086     0.031     0.029  0.9330  0.3277  0.1490
              Bcc     0.0027    -0.196    -0.070    -0.065 -0.3175  0.9441 -0.0883
 
              Baa    -0.0010    -0.137    -0.049    -0.046  0.8638  0.4670 -0.1893
    29 C(13)  Bbb    -0.0009    -0.115    -0.041    -0.038  0.2701 -0.1119  0.9563
              Bcc     0.0019     0.253     0.090     0.084 -0.4254  0.8771  0.2228
 
              Baa    -0.0007    -0.347    -0.124    -0.116  0.8681  0.3468 -0.3551
    30 F(19)  Bbb    -0.0002    -0.093    -0.033    -0.031  0.3741  0.0128  0.9273
              Bcc     0.0009     0.440     0.157     0.147 -0.3262  0.9378  0.1186
 
              Baa    -0.0007    -0.335    -0.120    -0.112  0.5876  0.6419 -0.4926
    31 F(19)  Bbb    -0.0005    -0.251    -0.090    -0.084  0.5110  0.1776  0.8410
              Bcc     0.0012     0.587     0.209     0.196 -0.6273  0.7459  0.2237
 
              Baa    -0.0035    -1.771    -0.632    -0.591  0.7191  0.5085 -0.4736
    32 F(19)  Bbb    -0.0034    -1.697    -0.606    -0.566  0.6547 -0.2676  0.7069
              Bcc     0.0069     3.469     1.238     1.157 -0.2328  0.8184  0.5254
 
              Baa    -0.0011    -0.151    -0.054    -0.050  0.6774  0.5340  0.5060
    33 C(13)  Bbb    -0.0009    -0.127    -0.045    -0.042  0.7002 -0.2570 -0.6661
              Bcc     0.0021     0.277     0.099     0.093 -0.2256  0.8055 -0.5480
 
              Baa    -0.0009    -0.455    -0.162    -0.152  0.8417  0.3228  0.4327
    34 F(19)  Bbb    -0.0007    -0.331    -0.118    -0.110 -0.5371  0.4192  0.7320
              Bcc     0.0016     0.786     0.280     0.262 -0.0549  0.8486 -0.5262
 
              Baa    -0.0025    -1.278    -0.456    -0.426  0.8529  0.5124  0.1002
    35 F(19)  Bbb    -0.0007    -0.346    -0.124    -0.116 -0.5038  0.7572  0.4158
              Bcc     0.0032     1.625     0.580     0.542  0.1371 -0.4051  0.9039
 
              Baa    -0.0006    -0.308    -0.110    -0.103  0.8694  0.4910  0.0564
    36 F(19)  Bbb    -0.0005    -0.265    -0.094    -0.088 -0.3155  0.4636  0.8279
              Bcc     0.0011     0.573     0.204     0.191 -0.3804  0.7376 -0.5580
 
              Baa    -0.0685    -9.197    -3.282    -3.068  0.3059  0.0357  0.9514
    37 C(13)  Bbb     0.0203     2.718     0.970     0.907  0.7655  0.5850 -0.2680
              Bcc     0.0483     6.479     2.312     2.161 -0.5661  0.8103  0.1517
 
              Baa    -0.1977    14.304     5.104     4.771  0.3428  0.9200 -0.1899
    38 O(17)  Bbb    -0.1894    13.702     4.889     4.571  0.9082 -0.3762 -0.1834
              Bcc     0.3871   -28.007    -9.993    -9.342  0.2402  0.1096  0.9645
 
              Baa    -0.0388   -20.702    -7.387    -6.905  0.3756  0.9201 -0.1111
    39 H(1)   Bbb    -0.0072    -3.859    -1.377    -1.287  0.3248 -0.0184  0.9456
              Bcc     0.0460    24.561     8.764     8.193  0.8680 -0.3913 -0.3058
 
              Baa    -0.0410   -21.883    -7.808    -7.299  0.7110 -0.6429 -0.2848
    40 H(1)   Bbb    -0.0067    -3.557    -1.269    -1.186  0.3430 -0.0365  0.9386
              Bcc     0.0477    25.440     9.077     8.486  0.6139  0.7651 -0.1946
 
              Baa    -0.0101    -5.382    -1.920    -1.795  0.2359 -0.1010  0.9665
    41 H(1)   Bbb    -0.0080    -4.271    -1.524    -1.425  0.6159  0.7849 -0.0683
              Bcc     0.0181     9.653     3.445     3.220  0.7517 -0.6114 -0.2473
 
              Baa    -0.0053    -2.824    -1.008    -0.942 -0.4630  0.8721 -0.1584
    42 H(1)   Bbb    -0.0039    -2.067    -0.737    -0.689  0.6624  0.4592  0.5919
              Bcc     0.0092     4.891     1.745     1.631 -0.5889 -0.1691  0.7903
 
              Baa    -0.0077    -4.092    -1.460    -1.365  0.1610  0.0408  0.9861
    43 H(1)   Bbb    -0.0020    -1.067    -0.381    -0.356  0.0044  0.9991 -0.0421
              Bcc     0.0097     5.159     1.841     1.721  0.9869 -0.0111 -0.1607
 

 ---------------------------------------------------------------------------------

 No NMR shielding tensors so no spin-rotation constants.
 Leave Link  601 at Sun Mar  3 18:01:45 2024, MaxMem=  5368709120 cpu:         6.5
 (Enter /home/k0335/k033513/app/g09/l9999.exe)
 1\1\GINC-C24U16N1\SP\UCAM-B3LYP\6-31G(d,p)\C13H5F18N3O4(1+,2)\K033513\
 03-Mar-2024\0\\#p CAM-B3LYP/6-31G(d,p) SCRF=(PCM,Solvent=Generic,Read)
  NoSymm out=wfn\\Title A899021201_p1\\1,2\C,0,1.458448,3.997597,0.3531
 35\C,0,1.796723,2.714047,0.189558\N,0,1.00731,1.598977,0.447617\C,0,-0
 .325173,1.712785,0.981796\N,0,-1.135468,0.625607,0.545895\C,0,-2.56540
 7,0.841147,0.383692\F,0,-2.875203,1.994263,1.048037\F,0,-3.24006,-0.12
 4693,1.055977\C,0,-3.042064,0.959456,-1.084964\F,0,-2.475699,2.100552,
 -1.598335\O,0,-2.523545,-0.112423,-1.87341\C,0,-3.081718,-0.178548,-3.
 156387\F,0,-4.307364,-0.721903,-3.081431\F,0,-3.152339,1.041419,-3.713
 341\F,0,-2.305339,-0.961333,-3.927172\C,0,-4.566609,1.115145,-1.008742
 \F,0,-5.099096,1.408015,-2.219764\F,0,-5.172059,-0.013388,-0.57878\F,0
 ,-4.946085,2.117094,-0.183439\C,0,-0.60598,-0.629231,0.436378\O,0,-1.3
 07936,-1.579811,0.106433\N,0,0.747582,-0.729242,0.696455\C,0,1.279493,
 -2.086196,0.68207\F,0,0.4126,-2.863351,1.414321\F,0,1.189859,-2.574638
 ,-0.58878\C,0,2.691677,-2.434869,1.25176\F,0,2.774582,-3.806699,1.3708
 75\O,0,3.867297,-2.068031,0.532334\C,0,3.906909,-2.574404,-0.778759\F,
 0,3.467368,-3.842926,-0.837778\F,0,5.186016,-2.549007,-1.204371\F,0,3.
 171294,-1.809069,-1.602829\C,0,2.742579,-1.885158,2.67709\F,0,1.743813
 ,-2.368605,3.452373\F,0,2.642407,-0.536301,2.728767\F,0,3.905796,-2.21
 0084,3.294674\C,0,1.570241,0.324588,0.376289\O,0,2.741391,0.147728,0.0
 50984\H,0,0.501628,4.342192,0.723397\H,0,2.181068,4.773716,0.111187\H,
 0,2.800872,2.49789,-0.180781\H,0,-0.277271,1.706287,2.076569\H,0,-0.78
 2542,2.641402,0.6314\\Version=ES64L-G09RevD.01\HF=-2759.5891373\S2=0.7
 67074\S2-1=0.\S2A=0.750135\RMSD=3.833e-09\Dipole=2.288601,7.2282849,1.
 4334572\Quadrupole=-10.7543844,21.0288214,-10.274437,11.7879982,0.6979
 777,5.287633\PG=C01 [X(C13H5F18N3O4)]\\@

 Writing a WFN file to "A899021201/A899021201_p1.wfn"


 KEEP CLOSE TO NATURES HEART, YOURSELF;
 AND BREAK CLEAR AWAY, ONCE IN A WHILE, AND
 CLIMB A MOUNTAIN OR SPEND A WEEK IN THE
 WOODS.  WASH YOUR SPIRIT CLEAN...
                                         -- JOHN MUIR
 Job cpu time:       0 days  0 hours 39 minutes 45.6 seconds.
 File lengths (MBytes):  RWF=    543 Int=      0 D2E=      0 Chk=     19 Scr=      1
 Normal termination of Gaussian 09 at Sun Mar  3 18:01:46 2024.
