 Entering Gaussian System, Link 0=g09
 Initial command:
 /home/k0335/k033513/app/g09/l1.exe "/home/k0335/k033513/app/g09/scratch/Gau-337216.inp" -scrdir="/home/k0335/k033513/app/g09/scratch/"
 Default is to use a total of  36 processors:
                               36 via shared-memory
                                1 via Linda
 Entering Link 1 = /home/k0335/k033513/app/g09/l1.exe PID=    337217.
  
 Copyright (c) 1988,1990,1992,1993,1995,1998,2003,2009,2013,
            Gaussian, Inc.  All Rights Reserved.
  
 This is part of the Gaussian(R) 09 program.  It is based on
 the Gaussian(R) 03 system (copyright 2003, Gaussian, Inc.),
 the Gaussian(R) 98 system (copyright 1998, Gaussian, Inc.),
 the Gaussian(R) 94 system (copyright 1995, Gaussian, Inc.),
 the Gaussian 92(TM) system (copyright 1992, Gaussian, Inc.),
 the Gaussian 90(TM) system (copyright 1990, Gaussian, Inc.),
 the Gaussian 88(TM) system (copyright 1988, Gaussian, Inc.),
 the Gaussian 86(TM) system (copyright 1986, Carnegie Mellon
 University), and the Gaussian 82(TM) system (copyright 1983,
 Carnegie Mellon University). Gaussian is a federally registered
 trademark of Gaussian, Inc.
  
 This software contains proprietary and confidential information,
 including trade secrets, belonging to Gaussian, Inc.
  
 This software is provided under written license and may be
 used, copied, transmitted, or stored only in accord with that
 written license.
  
 The following legend is applicable only to US Government
 contracts under FAR:
  
                    RESTRICTED RIGHTS LEGEND
  
 Use, reproduction and disclosure by the US Government is
 subject to restrictions as set forth in subparagraphs (a)
 and (c) of the Commercial Computer Software - Restricted
 Rights clause in FAR 52.227-19.
  
 Gaussian, Inc.
 340 Quinnipiac St., Bldg. 40, Wallingford CT 06492
  
  
 ---------------------------------------------------------------
 Warning -- This program may not be used in any manner that
 competes with the business of Gaussian, Inc. or will provide
 assistance to any competitor of Gaussian, Inc.  The licensee
 of this program is prohibited from giving any competitor of
 Gaussian, Inc. access to this program.  By using this program,
 the user acknowledges that Gaussian, Inc. is engaged in the
 business of creating and licensing software in the field of
 computational chemistry and represents and warrants to the
 licensee that it is not a competitor of Gaussian, Inc. and that
 it will not use this program in any manner prohibited above.
 ---------------------------------------------------------------
  

 Cite this work as:
 Gaussian 09, Revision D.01,
 M. J. Frisch, G. W. Trucks, H. B. Schlegel, G. E. Scuseria, 
 M. A. Robb, J. R. Cheeseman, G. Scalmani, V. Barone, B. Mennucci, 
 G. A. Petersson, H. Nakatsuji, M. Caricato, X. Li, H. P. Hratchian, 
 A. F. Izmaylov, J. Bloino, G. Zheng, J. L. Sonnenberg, M. Hada, 
 M. Ehara, K. Toyota, R. Fukuda, J. Hasegawa, M. Ishida, T. Nakajima, 
 Y. Honda, O. Kitao, H. Nakai, T. Vreven, J. A. Montgomery, Jr., 
 J. E. Peralta, F. Ogliaro, M. Bearpark, J. J. Heyd, E. Brothers, 
 K. N. Kudin, V. N. Staroverov, T. Keith, R. Kobayashi, J. Normand, 
 K. Raghavachari, A. Rendell, J. C. Burant, S. S. Iyengar, J. Tomasi, 
 M. Cossi, N. Rega, J. M. Millam, M. Klene, J. E. Knox, J. B. Cross, 
 V. Bakken, C. Adamo, J. Jaramillo, R. Gomperts, R. E. Stratmann, 
 O. Yazyev, A. J. Austin, R. Cammi, C. Pomelli, J. W. Ochterski, 
 R. L. Martin, K. Morokuma, V. G. Zakrzewski, G. A. Voth, 
 P. Salvador, J. J. Dannenberg, S. Dapprich, A. D. Daniels, 
 O. Farkas, J. B. Foresman, J. V. Ortiz, J. Cioslowski, 
 and D. J. Fox, Gaussian, Inc., Wallingford CT, 2013.
 
 ******************************************
 Gaussian 09:  ES64L-G09RevD.01 24-Apr-2013
                 3-Mar-2024 
 ******************************************
 %nprocshared=24
 Will use up to   24 processors via shared memory.
 %mem=40GB
 %rwf=A1320413502/A1320413502_0.rwf
 %nosave
 %chk=A1320413502/A1320413502_0.chk
 ----------------------------------------------------------------------
 #p CAM-B3LYP/6-31G(d,p) SCRF=(PCM,Solvent=Generic,Read) NoSymm out=wfn
 ----------------------------------------------------------------------
 1/38=1,40=2/1;
 2/12=2,15=1,17=6,18=5,40=1/2;
 3/5=1,6=6,7=101,11=2,16=1,25=1,30=1,70=2203,72=-2,74=-40/1,2,3;
 4//1;
 5/5=2,38=5/2;
 6/7=2,8=2,9=2,10=2,28=1/1;
 99/5=1,6=100,9=1/99;
 Leave Link    1 at Sun Mar  3 17:52:02 2024, MaxMem=  5368709120 cpu:         1.1
 (Enter /home/k0335/k033513/app/g09/l101.exe)
 -------------------
 Title A1320413502_0
 -------------------
 Symbolic Z-matrix:
 Charge =  0 Multiplicity = 1
 C                    -1.72415   2.54159  -2.62066 
 C                    -0.55206   2.79649  -1.66966 
 C                    -0.77717   4.05476  -0.82528 
 N                    -0.23206   1.60043  -0.85873 
 C                     0.76143   0.75689  -1.32451 
 O                     1.47487   1.05615  -2.27919 
 N                     0.89985  -0.44093  -0.66675 
 C                     1.87788  -1.38597  -1.19074 
 F                     1.58568  -2.65302  -0.7688 
 F                     1.65914  -1.47608  -2.54561 
 C                     3.39225  -1.11736  -0.96566 
 F                     3.71467   0.12159  -1.43878 
 O                     4.11765  -2.0557   -1.77992 
 C                     5.50308  -2.02813  -1.56748 
 F                     6.11076  -2.61039  -2.61758 
 F                     5.78927  -2.73474  -0.46116 
 F                     5.95859  -0.7723   -1.4429 
 C                     3.67028  -1.16555   0.53764 
 F                     4.96171  -0.87238   0.82038 
 F                     2.93389  -0.2445    1.20478 
 F                     3.41631  -2.37614   1.07068 
 C                     0.33476  -0.67144   0.56081 
 O                     0.63538  -1.65517   1.23065 
 N                    -0.57313   0.25127   1.00645 
 C                    -1.32828  -0.0674    2.21202 
 F                    -1.84512   1.08675   2.72505 
 F                    -0.45015  -0.47083   3.17437 
 C                    -2.45226  -1.12028   2.03127 
 F                    -1.88955  -2.31929   1.69834 
 O                    -3.26686  -0.7666    0.90832 
 C                    -4.44735  -1.51919   0.81923 
 F                    -4.95859  -1.36393  -0.41593 
 F                    -4.20513  -2.82244   1.02546 
 F                    -5.33551  -1.06291   1.71595 
 C                    -3.13686  -1.2242    3.40145 
 F                    -3.7986   -0.08959   3.72149 
 F                    -4.05035  -2.22496   3.42532 
 F                    -2.27048  -1.48319   4.4046 
 C                    -1.07065   1.22113   0.17323 
 O                    -2.19157   1.70036   0.32464 
 H                    -1.53304   1.66174  -3.24446 
 H                    -1.87517   3.39942  -3.28456 
 H                    -2.66102   2.3687   -2.08247 
 H                     0.31695   3.02036  -2.30034 
 H                    -0.83171   4.93949  -1.46914 
 H                    -1.70669   4.01658  -0.25047 
 H                     0.04912   4.2009   -0.12136 
 
 NAtoms=     47 NQM=       47 NQMF=       0 NMMI=      0 NMMIF=      0
                NMic=       0 NMicF=      0.
                    Isotopes and Nuclear Properties:
 (Nuclear quadrupole moments (NQMom) in fm**2, nuclear magnetic moments (NMagM)
  in nuclear magnetons)

  Atom         1           2           3           4           5           6           7           8           9          10
 IAtWgt=          12          12          12          14          12          16          14          12          19          19
 AtmWgt=  12.0000000  12.0000000  12.0000000  14.0030740  12.0000000  15.9949146  14.0030740  12.0000000  18.9984033  18.9984033
 NucSpn=           0           0           0           2           0           0           2           0           1           1
 AtZEff=   0.0000000   0.0000000   0.0000000   0.0000000   0.0000000   0.0000000   0.0000000   0.0000000   0.0000000   0.0000000
 NQMom=    0.0000000   0.0000000   0.0000000   2.0440000   0.0000000   0.0000000   2.0440000   0.0000000   0.0000000   0.0000000
 NMagM=    0.0000000   0.0000000   0.0000000   0.4037610   0.0000000   0.0000000   0.4037610   0.0000000   2.6288670   2.6288670
 AtZNuc=   6.0000000   6.0000000   6.0000000   7.0000000   6.0000000   8.0000000   7.0000000   6.0000000   9.0000000   9.0000000

  Atom        11          12          13          14          15          16          17          18          19          20
 IAtWgt=          12          19          16          12          19          19          19          12          19          19
 AtmWgt=  12.0000000  18.9984033  15.9949146  12.0000000  18.9984033  18.9984033  18.9984033  12.0000000  18.9984033  18.9984033
 NucSpn=           0           1           0           0           1           1           1           0           1           1
 AtZEff=   0.0000000   0.0000000   0.0000000   0.0000000   0.0000000   0.0000000   0.0000000   0.0000000   0.0000000   0.0000000
 NQMom=    0.0000000   0.0000000   0.0000000   0.0000000   0.0000000   0.0000000   0.0000000   0.0000000   0.0000000   0.0000000
 NMagM=    0.0000000   2.6288670   0.0000000   0.0000000   2.6288670   2.6288670   2.6288670   0.0000000   2.6288670   2.6288670
 AtZNuc=   6.0000000   9.0000000   8.0000000   6.0000000   9.0000000   9.0000000   9.0000000   6.0000000   9.0000000   9.0000000

  Atom        21          22          23          24          25          26          27          28          29          30
 IAtWgt=          19          12          16          14          12          19          19          12          19          16
 AtmWgt=  18.9984033  12.0000000  15.9949146  14.0030740  12.0000000  18.9984033  18.9984033  12.0000000  18.9984033  15.9949146
 NucSpn=           1           0           0           2           0           1           1           0           1           0
 AtZEff=   0.0000000   0.0000000   0.0000000   0.0000000   0.0000000   0.0000000   0.0000000   0.0000000   0.0000000   0.0000000
 NQMom=    0.0000000   0.0000000   0.0000000   2.0440000   0.0000000   0.0000000   0.0000000   0.0000000   0.0000000   0.0000000
 NMagM=    2.6288670   0.0000000   0.0000000   0.4037610   0.0000000   2.6288670   2.6288670   0.0000000   2.6288670   0.0000000
 AtZNuc=   9.0000000   6.0000000   8.0000000   7.0000000   6.0000000   9.0000000   9.0000000   6.0000000   9.0000000   8.0000000

  Atom        31          32          33          34          35          36          37          38          39          40
 IAtWgt=          12          19          19          19          12          19          19          19          12          16
 AtmWgt=  12.0000000  18.9984033  18.9984033  18.9984033  12.0000000  18.9984033  18.9984033  18.9984033  12.0000000  15.9949146
 NucSpn=           0           1           1           1           0           1           1           1           0           0
 AtZEff=   0.0000000   0.0000000   0.0000000   0.0000000   0.0000000   0.0000000   0.0000000   0.0000000   0.0000000   0.0000000
 NQMom=    0.0000000   0.0000000   0.0000000   0.0000000   0.0000000   0.0000000   0.0000000   0.0000000   0.0000000   0.0000000
 NMagM=    0.0000000   2.6288670   2.6288670   2.6288670   0.0000000   2.6288670   2.6288670   2.6288670   0.0000000   0.0000000
 AtZNuc=   6.0000000   9.0000000   9.0000000   9.0000000   6.0000000   9.0000000   9.0000000   9.0000000   6.0000000   8.0000000

  Atom        41          42          43          44          45          46          47
 IAtWgt=           1           1           1           1           1           1           1
 AtmWgt=   1.0078250   1.0078250   1.0078250   1.0078250   1.0078250   1.0078250   1.0078250
 NucSpn=           1           1           1           1           1           1           1
 AtZEff=   0.0000000   0.0000000   0.0000000   0.0000000   0.0000000   0.0000000   0.0000000
 NQMom=    0.0000000   0.0000000   0.0000000   0.0000000   0.0000000   0.0000000   0.0000000
 NMagM=    2.7928460   2.7928460   2.7928460   2.7928460   2.7928460   2.7928460   2.7928460
 AtZNuc=   1.0000000   1.0000000   1.0000000   1.0000000   1.0000000   1.0000000   1.0000000
 Leave Link  101 at Sun Mar  3 17:52:02 2024, MaxMem=  5368709120 cpu:         1.2
 (Enter /home/k0335/k033513/app/g09/l202.exe)
                          Input orientation:                          
 ---------------------------------------------------------------------
 Center     Atomic      Atomic             Coordinates (Angstroms)
 Number     Number       Type             X           Y           Z
 ---------------------------------------------------------------------
      1          6           0       -1.724151    2.541592   -2.620660
      2          6           0       -0.552061    2.796488   -1.669659
      3          6           0       -0.777169    4.054762   -0.825280
      4          7           0       -0.232059    1.600429   -0.858729
      5          6           0        0.761428    0.756889   -1.324505
      6          8           0        1.474866    1.056150   -2.279191
      7          7           0        0.899847   -0.440934   -0.666751
      8          6           0        1.877882   -1.385965   -1.190736
      9          9           0        1.585680   -2.653024   -0.768803
     10          9           0        1.659144   -1.476084   -2.545610
     11          6           0        3.392251   -1.117355   -0.965659
     12          9           0        3.714670    0.121593   -1.438777
     13          8           0        4.117653   -2.055699   -1.779916
     14          6           0        5.503077   -2.028128   -1.567481
     15          9           0        6.110757   -2.610394   -2.617583
     16          9           0        5.789273   -2.734741   -0.461155
     17          9           0        5.958589   -0.772304   -1.442899
     18          6           0        3.670277   -1.165550    0.537635
     19          9           0        4.961707   -0.872379    0.820377
     20          9           0        2.933888   -0.244496    1.204780
     21          9           0        3.416311   -2.376137    1.070675
     22          6           0        0.334762   -0.671442    0.560806
     23          8           0        0.635382   -1.655173    1.230653
     24          7           0       -0.573127    0.251273    1.006454
     25          6           0       -1.328277   -0.067399    2.212022
     26          9           0       -1.845124    1.086750    2.725049
     27          9           0       -0.450150   -0.470826    3.174373
     28          6           0       -2.452260   -1.120281    2.031272
     29          9           0       -1.889548   -2.319294    1.698343
     30          8           0       -3.266861   -0.766603    0.908323
     31          6           0       -4.447355   -1.519193    0.819227
     32          9           0       -4.958592   -1.363931   -0.415927
     33          9           0       -4.205127   -2.822435    1.025460
     34          9           0       -5.335507   -1.062911    1.715948
     35          6           0       -3.136863   -1.224204    3.401448
     36          9           0       -3.798601   -0.089589    3.721490
     37          9           0       -4.050354   -2.224956    3.425317
     38          9           0       -2.270481   -1.483190    4.404597
     39          6           0       -1.070648    1.221126    0.173225
     40          8           0       -2.191565    1.700359    0.324644
     41          1           0       -1.533043    1.661744   -3.244456
     42          1           0       -1.875170    3.399419   -3.284564
     43          1           0       -2.661018    2.368701   -2.082470
     44          1           0        0.316953    3.020363   -2.300339
     45          1           0       -0.831706    4.939495   -1.469140
     46          1           0       -1.706693    4.016583   -0.250470
     47          1           0        0.049115    4.200898   -0.121358
 ---------------------------------------------------------------------
                    Distance matrix (angstroms):
                    1          2          3          4          5
     1  C    0.000000
     2  C    1.530742   0.000000
     3  C    2.531768   1.531960   0.000000
     4  N    2.493296   1.480056   2.514362   0.000000
     5  C    3.323144   2.450377   3.673210   1.384024   0.000000
     6  O    3.543564   2.740208   4.022088   2.286382   1.228811
     7  N    4.427029   3.687108   4.800916   2.342057   1.373528
     8  C    5.517701   4.860751   6.065011   3.671598   2.419956
     9  F    6.431826   5.922724   7.112007   4.626459   3.551859
    10  F    5.253003   4.889948   6.283742   3.985869   2.698733
    11  C    6.504190   5.601016   6.644890   4.531380   3.250045
    12  F    6.069103   5.041167   6.001901   4.254419   3.022962
    13  O    7.481217   6.735140   7.887227   5.756375   4.402533
    14  C    8.615356   7.742871   8.774617   6.823528   5.504416
    15  F    9.377033   8.632849   9.750907   7.813828   6.451819
    16  F    9.431580   8.501029   9.452412   7.430222   6.181915
    17  F    8.449469   7.428072   8.309781   6.655467   5.418757
    18  C    7.267571   6.196614   6.992065   4.982840   3.952814
    19  F    8.258125   7.075486   7.740775   5.992444   4.989727
    20  F    6.640302   5.446267   6.031311   4.205358   3.481327
    21  F    8.014634   7.072019   7.907995   5.731167   4.754066
    22  C    4.968343   4.217578   5.049221   2.738204   2.403450
    23  O    6.165456   5.444182   6.231013   3.964457   3.516072
    24  N    4.441438   3.693257   4.226513   2.327113   2.733140
    25  C    5.506212   4.885878   5.149867   3.662357   4.189671
    26  F    5.541462   4.889650   4.749154   3.963497   4.827195
    27  F    6.654333   5.843832   6.048563   4.539116   4.818206
    28  C    5.964891   5.713906   6.143850   4.547929   5.011267
    29  F    6.504564   6.269253   6.945117   4.964888   5.062429
    30  O    5.077187   5.168341   5.696447   4.235013   4.851150
    31  C    5.978180   6.324000   6.873401   5.506024   6.075159
    32  F    5.529518   6.188574   6.856683   5.596751   6.167821
    33  F    6.944222   7.223632   7.903921   6.236759   6.557482
    34  F    6.696305   7.017026   7.309368   6.306150   7.051854
    35  C    7.241737   6.968737   7.162462   5.879247   6.438636
    36  F    7.172818   6.923435   6.854036   6.046056   6.853645
    37  F    8.042701   7.963149   8.259308   6.896811   7.389550
    38  F    8.114899   7.626611   7.762120   6.431677   6.858064
    39  C    3.158558   2.479298   3.018714   1.382762   2.411475
    40  O    3.098542   2.804767   2.977592   2.291293   3.511409
    41  H    1.095343   2.174846   3.485727   2.718090   3.125631
    42  H    1.095191   2.173030   2.771851   3.438147   4.216212
    43  H    1.094194   2.191145   2.823511   2.826239   3.858184
    44  H    2.120833   1.096842   2.107815   2.096632   2.504621
    45  H    2.805779   2.170458   1.095574   3.446961   4.478079
    46  H    2.791721   2.199069   1.093563   2.895224   4.227384
    47  H    3.484864   2.175090   1.095266   2.717575   3.717008
                    6          7          8          9         10
     6  O    0.000000
     7  N    2.274175   0.000000
     8  C    2.703901   1.457462   0.000000
     9  F    4.006435   2.318216   1.367058   0.000000
    10  F    2.552870   2.275561   1.375373   2.132517   0.000000
    11  C    3.182115   2.599802   1.554389   2.379229   2.372465
    12  F    2.568349   2.972489   2.389152   3.560894   2.828929
    13  O    4.113053   3.768405   2.410861   2.791063   2.639414
    14  C    5.123064   4.951790   3.700858   4.046527   4.004661
    15  F    5.920265   5.972092   4.631668   4.888366   4.594420
    16  F    6.024136   5.404656   4.201246   4.215628   4.794490
    17  F    4.913899   5.128653   4.134288   4.807686   4.494052
    18  C    4.205983   3.106589   2.499706   2.874875   3.694251
    19  F    5.048228   4.346999   3.717300   4.134459   4.754077
    20  F    3.994807   2.771018   2.855976   3.393185   4.148157
    21  F    5.174109   3.618874   2.908811   2.609896   4.120103
    22  C    3.514256   1.370894   2.441242   2.694313   3.471492
    23  O    4.513869   2.268140   2.734850   2.428291   3.916673
    24  N    3.954436   2.334185   3.676362   4.030748   4.536954
    25  C    5.412113   3.659426   4.857657   4.905295   5.791730
    26  F    6.005472   4.623093   5.942093   6.161439   6.828459
    27  F    5.981530   4.071562   5.031043   4.945223   6.178824
    28  C    6.224087   4.356313   5.403892   5.147298   6.162636
    29  F    6.207550   4.111281   4.838534   4.274973   5.596012
    30  O    5.997220   4.466360   5.590889   5.469780   6.057932
    31  C    7.162771   5.653613   6.638247   6.340735   6.972325
    32  F    7.121652   5.936004   6.880276   6.679355   6.952881
    33  F    7.630626   5.881827   6.631589   6.064777   6.996776
    34  F    8.175129   6.704010   7.783711   7.523648   8.201020
    35  C    7.664054   5.784357   6.801617   6.460258   7.644124
    36  F    8.070337   6.438596   7.617940   7.464879   8.425313
    37  F    8.592737   6.665752   7.560148   7.038378   8.295248
    38  F    8.071486   6.070902   6.966069   6.557633   7.984196
    39  C    3.538531   2.711246   4.165470   4.790880   4.703060
    40  O    4.542871   3.889065   5.327492   5.866443   5.758134
    41  H    3.216519   4.121258   5.014051   5.871330   4.530387
    42  H    4.210039   5.413130   6.431906   7.412058   6.066956
    43  H    4.343619   4.751639   5.957711   6.706556   5.801782
    44  H    2.280207   3.871557   4.804523   6.011871   4.698901
    45  H    4.588772   5.708863   6.887004   7.998786   6.965829
    46  H    4.796060   5.180425   6.551397   7.456007   6.838561
    47  H    4.071664   4.750558   5.975031   7.053826   6.379445
                   11         12         13         14         15
    11  C    0.000000
    12  F    1.364839   0.000000
    13  O    1.438649   2.240395   0.000000
    14  C    2.376401   2.799333   1.401887   0.000000
    15  F    3.514014   3.820284   2.232003   1.345743   0.000000
    16  F    2.935332   3.663109   2.234847   1.343565   2.183803
    17  F    2.633042   2.415417   2.269301   1.341680   2.186690
    18  C    1.529547   2.359007   2.522608   2.921423   4.242513
    19  F    2.390215   2.765295   2.978959   2.707527   4.020023
    20  F    2.383859   2.780654   3.686484   4.179415   5.504583
    21  F    2.394111   3.553171   2.953037   3.381652   4.573638
    22  C    3.446327   4.006372   4.658907   5.751668   6.871958
    23  O    3.565580   4.445758   4.620623   5.626998   6.760259
    24  N    4.635364   4.937730   5.923630   6.981480   8.123859
    25  C    5.786488   6.228593   7.038967   8.049627   9.226654
    26  F    6.775655   7.012866   8.107059   9.062248  10.271740
    27  F    5.685236   6.243223   6.922545   7.768609   9.009440
    28  C    6.568098   7.184324   7.652707   8.778530   9.856853
    29  F    6.036470   6.870714   6.946527   8.087106   9.094880
    30  O    6.926659   7.418864   7.963633   9.199612  10.186820
    31  C    8.050262   8.626089   8.966758  10.245315  11.156886
    32  F    8.372549   8.858808   9.204196  10.545793  11.354798
    33  F    8.036915   8.801304   8.816274  10.079856  10.942312
    34  F    9.130594   9.657176  10.127632  11.366066  12.336578
    35  C    7.855722   8.496026   8.953542   9.999256  11.120644
    36  F    8.644884   9.117137   9.838604  10.874390  12.030531
    37  F    8.712050   9.458398   9.687076  10.781225  11.828499
    38  F    7.812811   8.517181   8.909782   9.817886  10.992122
    39  C    5.165561   5.167861   6.439783   7.536682   8.604751
    40  O    6.386188   6.362843   7.638284   8.757241   9.806520
    41  H    6.097116   5.759430   6.920594   8.119999   8.779055
    42  H    7.316030   6.737758   8.242342   9.319076  10.016873
    43  H    7.074031   6.790672   8.100447   9.287075  10.100583
    44  H    5.325367   4.548586   6.362591   7.274629   8.085433
    45  H    7.401401   6.624397   8.574700   9.417373  10.320733
    46  H    7.271042   6.780428   8.551890   9.500202  10.518202
    47  H    6.338235   5.640267   7.645183   8.404626   9.453483
                   16         17         18         19         20
    16  F    0.000000
    17  F    2.200829   0.000000
    18  C    2.819590   3.051808   0.000000
    19  F    2.407401   2.475118   1.354136   0.000000
    20  F    4.138826   4.054331   1.354877   2.157325   0.000000
    21  F    2.847112   3.918356   1.346904   2.170757   2.189660
    22  C    5.920583   5.970966   3.371993   4.638574   2.711539
    23  O    5.530847   6.021949   3.151284   4.415674   2.697000
    24  N    7.179853   7.050557   4.498184   5.650806   3.547432
    25  C    8.057301   8.182527   5.384705   6.492193   4.383144
    26  F    9.112613   9.040233   6.346439   7.334774   5.188679
    27  F    7.567878   7.904557   4.940946   5.915297   3.922019
    28  C    8.760225   9.106774   6.302258   7.516291   5.519119
    29  F    7.987510   8.593825   5.795690   7.057201   5.273891
    30  O    9.368170   9.520357   6.958481   8.229718   6.229749
    31  C   10.387757  10.675145   8.130210   9.431268   7.500417
    32  F   10.835025  10.981327   8.683664  10.009116   8.134560
    33  F   10.104739  10.658187   8.062582   9.374200   7.592329
    34  F   11.458426  11.731128   9.083122  10.337841   8.325502
    35  C    9.842628  10.314997   7.385257   8.507205   6.529870
    36  F   10.789749  11.060731   8.190163   9.261329   7.189175
    37  F   10.591638  11.224467   8.310788   9.477997   7.591617
    38  F    9.497450  10.120087   7.095555   8.094706   6.233671
    39  C    7.944170   7.483034   5.320281   6.418012   4.387307
    40  O    9.164135   8.698464   6.528399   7.618007   5.552240
    41  H    8.982881   8.080517   7.026546   8.070094   6.586572
    42  H   10.214854   9.064369   8.136346   9.046639   7.520596
    43  H   10.004059   9.196336   7.709810   8.777076   6.995555
    44  H    8.151693   6.851831   6.068010   6.816601   5.458343
    45  H   10.185642   8.873187   7.846437   8.519589   6.942860
    46  H   10.090306   9.116571   7.509156   8.337639   6.466030
    47  H    9.009327   7.835885   6.507369   7.124505   5.462791
                   21         22         23         24         25
    21  F    0.000000
    22  C    3.558356   0.000000
    23  O    2.877316   1.227515   0.000000
    24  N    4.777345   1.369039   2.268324   0.000000
    25  C    5.398524   2.420141   2.709256   1.457806   0.000000
    26  F    6.512391   3.539363   3.988016   2.295554   1.364693
    27  F    4.796382   2.736250   2.521727   2.288323   1.363811
    28  C    6.077832   3.182957   3.234290   2.542155   1.550667
    29  F    5.343158   2.992818   2.652369   2.969763   2.376957
    30  O    6.876172   3.619601   4.015091   2.881303   2.438570
    31  C    7.914216   4.863549   5.101174   4.263713   3.711635
    32  F    8.565836   5.427075   5.838544   4.885116   4.665437
    33  F    7.634628   5.045123   4.983486   4.758095   4.156251
    34  F    8.873289   5.799961   6.019784   4.991064   4.158729
    35  C    7.050074   4.519621   4.373547   3.806018   2.454367
    36  F    8.019356   5.235758   5.321234   4.229810   2.895080
    37  F    7.830599   5.463339   5.205509   4.906497   3.679245
    38  F    6.652217   4.713911   4.306685   4.175733   2.774815
    39  C    5.820526   2.388977   3.507391   1.372010   2.425564
    40  O    6.972995   3.473261   4.480187   2.276852   2.726248
    41  H    7.708498   4.838644   5.977508   4.580513   5.727566
    42  H    8.962417   6.020181   7.227652   5.478957   6.521532
    43  H    8.330050   5.020366   6.167220   4.287685   5.114044
    44  H    7.077568   4.670749   5.867703   4.403973   5.709856
    45  H    8.832598   6.079798   7.275361   5.307999   6.234302
    46  H    8.298040   5.177189   6.312516   4.128243   4.783929
    47  H    7.484407   4.928148   6.038643   4.154357   5.055713
                   26         27         28         29         30
    26  F    0.000000
    27  F    2.138665   0.000000
    28  C    2.391846   2.395186   0.000000
    29  F    3.557701   2.769001   1.365693   0.000000
    30  O    2.959180   3.627165   1.431669   2.220804   0.000000
    31  C    4.146650   4.756410   2.368246   2.820529   1.402817
    32  F    5.056209   5.832147   3.511388   3.847322   2.229886
    33  F    4.872365   4.924200   2.642258   2.463296   2.262854
    34  F    4.221623   5.132668   2.901006   3.667893   2.240391
    35  C    2.732511   2.799566   1.535208   2.378147   2.538104
    36  F    2.488522   3.414206   2.394117   3.564995   2.941939
    37  F    4.039902   4.012657   2.391145   2.767747   3.012626
    38  F    3.099420   2.419078   2.407783   2.857970   3.705429
    39  C    2.670145   3.500658   3.292928   3.940959   3.052014
    40  O    2.501696   3.983406   3.307046   4.258623   2.753696
    41  H    6.005248   6.849955   6.034727   6.356652   5.113567
    42  H    6.439316   7.663377   7.001345   7.585067   6.072301
    43  H    5.041956   6.370655   5.398097   6.071821   4.375159
    44  H    5.802410   6.538296   6.601237   7.026382   6.122119
    45  H    5.784625   7.139984   7.183312   7.990119   6.643934
    46  H    4.178133   5.783190   5.670061   6.631338   5.162925
    47  H    4.624726   5.738999   6.261441   7.041493   6.060694
                   31         32         33         34         35
    31  C    0.000000
    32  F    1.345762   0.000000
    33  F    1.341509   2.184614   0.000000
    34  F    1.342057   2.185765   2.202375   0.000000
    35  C    2.910717   4.232088   3.056280   2.775061   0.000000
    36  F    3.299664   4.481936   3.860348   2.707699   1.351915
    37  F    2.728995   4.039977   2.477953   2.433908   1.355190
    38  F    4.194634   5.520654   4.117645   4.098762   1.350555
    39  C    4.396455   4.705925   5.186680   5.077976   4.546461
    40  O    3.962161   4.194610   5.000124   4.410868   4.348952
    41  H    5.926643   5.374911   6.743892   6.818217   7.420847
    42  H    6.902897   6.358150   7.919373   7.542642   8.226331
    43  H    5.169774   4.689217   6.244309   5.775537   6.573336
    44  H    7.282712   7.113678   8.102372   8.046987   7.902884
    45  H    7.747528   7.607472   8.823296   8.152171   8.187036
    46  H    6.268995   6.289050   7.392046   6.544948   6.545818
    47  H    7.336374   7.492077   8.291018   7.750970   7.210572
                   36         37         38         39         40
    36  F    0.000000
    37  F    2.170459   0.000000
    38  F    2.178052   2.162673   0.000000
    39  C    4.663677   5.597341   5.163084   0.000000
    40  O    4.162336   5.336419   5.175638   1.228433   0.000000
    41  H    7.531555   8.119678   8.303158   3.476852   3.629548
    42  H    8.059625   9.021503   9.116981   4.165156   4.001661
    43  H    6.404938   7.305317   7.554576   2.989041   2.541902
    44  H    7.929187   8.908977   8.481331   3.358751   3.863368
    45  H    7.812605   9.254446   8.821663   4.071944   3.944475
    46  H    6.083847   7.613210   7.227379   2.898043   2.435313
    47  H    6.926809   8.406911   7.627165   3.196825   3.387072
                   41         42         43         44         45
    41  H    0.000000
    42  H    1.771489   0.000000
    43  H    1.767011   1.767758   0.000000
    44  H    2.481872   2.432650   3.056214   0.000000
    45  H    3.793056   2.599311   3.214271   2.386080   0.000000
    46  H    3.813053   3.100807   2.642437   3.047878   1.761399
    47  H    4.324843   3.788286   3.814148   2.492661   1.771408
                   46         47
    46  H    0.000000
    47  H    1.770171   0.000000
 Symmetry turned off by external request.
 Stoichiometry    C14H7F18N3O5
 Framework group  C1[X(C14H7F18N3O5)]
 Deg. of freedom   135
 Full point group                 C1      NOp   1
 Rotational constants (GHZ):      0.1651387      0.0554417      0.0498061
 Leave Link  202 at Sun Mar  3 17:52:02 2024, MaxMem=  5368709120 cpu:         0.1
 (Enter /home/k0335/k033513/app/g09/l301.exe)
 Standard basis: 6-31G(d,p) (6D, 7F)
 Ernie: Thresh=  0.10000D-02 Tol=  0.10000D-05 Strict=F.
   635 basis functions,  1169 primitive gaussians,   635 cartesian basis functions
   157 alpha electrons      157 beta electrons
       nuclear repulsion energy      6088.0101905338 Hartrees.
 IExCor=20419 DFT=T Ex+Corr=CAM-B3LYP ExCW=0 ScaHFX=  1.000000
 ScaDFX=  1.000000  1.000000  1.000000  0.810000 ScalE2=  1.000000  1.000000
 IRadAn=      0 IRanWt=     -1 IRanGd=            0 ICorTp=0 IEmpDi=  4
  HFx wShort=  0.000000 wLong=  0.330000 cFull=  0.190000 cShort=  0.000000 cLong=  0.460000
  DFx wShort=  0.000000 wLong=  0.330000 cFull=  0.190000 cShort=  0.000000 cLong=  0.460000
 NAtoms=   47 NActive=   47 NUniq=   47 SFac= 1.00D+00 NAtFMM=   60 NAOKFM=F Big=F
 Integral buffers will be    131072 words long.
 Raffenetti 2 integral format.
 Two-electron integral symmetry is turned off.
 Using the following non-standard input for PCM:
 eps=4.9
 --- end of non-standard input.
 ------------------------------------------------------------------------------
 Polarizable Continuum Model (PCM)
 =================================
 Model                : PCM (using non-symmetric T matrix).
 Atomic radii         : UFF (Universal Force Field).
 Polarization charges : Total charges.
 Charge compensation  : None.
 Solution method      : On-the-fly selection.
 Cavity type          : Scaled VdW (van der Waals Surface) (Alpha=1.100).
 Cavity algorithm     : GePol (No added spheres)
                        Default sphere list used, NSphG=   47.
                        Lebedev-Laikov grids with approx.  5.0 points / Ang**2.
                        Smoothing algorithm: Karplus/York (Gamma=1.0000).
                        Polarization charges: spherical gaussians, with
                                              point-specific exponents (IZeta= 3).
                        Self-potential: point-specific (ISelfS= 7).
                        Self-field    : sphere-specific E.n sum rule (ISelfD= 2).
 Solvent              : Generic,
                        Eps                           =   4.900000
                        Eps(infinity)                 =   0.000000
                        RSolv                         =   0.000000 Ang.
                        Molar volume                  =   0.000000 cm**3/mol
                        Thermal expansion coefficient =   0.000000 K**-1
                        Absolute temperature          = 298.150000 K
                        Numeral density               =   0.000000 Ang**-3
                        Hydrogen bond acidity         =   0.000000
                        Hydrogen bond basicity        =   0.000000
                        Surface tension at interface  =   0.000000 (cal/mol)*Ang**-2
                        Carbon aromaticity            =   0.000000
                        Electronegative halogenicity  =   0.000000
 ------------------------------------------------------------------------------
 GePol: Number of generator spheres                  =      47
 GePol: Total number of spheres                      =      47
 GePol: Number of exposed spheres                    =      47 (100.00%)
 GePol: Number of points                             =    3728
 GePol: Average weight of points                     =       0.13
 GePol: Minimum weight of points                     =   0.95D-11
 GePol: Maximum weight of points                     =    0.20577
 GePol: Number of points with low weight             =     171
 GePol: Fraction of low-weight points (<1% of avg)   =       4.59%
 GePol: Cavity surface area                          =    468.764 Ang**2
 GePol: Cavity volume                                =    549.085 Ang**3
 Leave Link  301 at Sun Mar  3 17:52:02 2024, MaxMem=  5368709120 cpu:         1.0
 (Enter /home/k0335/k033513/app/g09/l302.exe)
 NPDir=0 NMtPBC=     1 NCelOv=     1 NCel=       1 NClECP=     1 NCelD=      1
         NCelK=      1 NCelE2=     1 NClLst=     1 CellRange=     0.0.
 One-electron integrals computed using PRISM.
 NBasis=   635 RedAO= T EigKep=  1.22D-03  NBF=   635
 NBsUse=   635 1.00D-06 EigRej= -1.00D+00 NBFU=   635
 Precomputing XC quadrature grid using
 IXCGrd= 4 IRadAn=           0 IRanWt=          -1 IRanGd=           0 AccXCQ= 0.00D+00.
 Generated NRdTot=       0 NPtTot=           0 NUsed=           0 NTot=          32
 NSgBfM=   615   616   617   617   617 MxSgAt=    47 MxSgA2=    47.
 Leave Link  302 at Sun Mar  3 17:52:02 2024, MaxMem=  5368709120 cpu:        15.1
 (Enter /home/k0335/k033513/app/g09/l303.exe)
 DipDrv:  MaxL=1.
 Leave Link  303 at Sun Mar  3 17:52:03 2024, MaxMem=  5368709120 cpu:         1.0
 (Enter /home/k0335/k033513/app/g09/l401.exe)
 ExpMin= 1.61D-01 ExpMax= 7.00D+03 ExpMxC= 1.05D+03 IAcc=1 IRadAn=         1 AccDes= 0.00D+00
 Harris functional with IExCor=20419 and IRadAn=       1 diagonalized for initial guess.
 HarFok:  IExCor=20419 AccDes= 0.00D+00 IRadAn=         1 IDoV= 1 UseB2=F ITyADJ=14
 ICtDFT=  3500011 ScaDFX=  1.000000  1.000000  1.000000  1.000000
 FoFCou: FMM=F IPFlag=           0 FMFlag=      100000 FMFlg1=           0
         NFxFlg=           0 DoJE=T BraDBF=F KetDBF=T FulRan=T
         wScrn=  0.000000 ICntrl=     500 IOpCl=  0 I1Cent=   200000004 NGrid=           0
         NMat0=    1 NMatS0=      1 NMatT0=    0 NMatD0=    1 NMtDS0=    0 NMtDT0=    0
 Symmetry not used in FoFCou.
 Harris En= -2787.72548352400    
 JPrj=0 DoOrth=F DoCkMO=F.
 Leave Link  401 at Sun Mar  3 17:52:03 2024, MaxMem=  5368709120 cpu:        16.1
 (Enter /home/k0335/k033513/app/g09/l502.exe)
 Closed shell SCF:
 Using DIIS extrapolation, IDIIS=  1040.
 Two-electron integral symmetry not used.
 IVT=     1247369 IEndB=     1247369 NGot=  5368709120 MDV=  5367882252
 LenX=  5367882252 LenY=  5367478392
 Requested convergence on RMS density matrix=1.00D-08 within 128 cycles.
 Requested convergence on MAX density matrix=1.00D-06.
 Requested convergence on             energy=1.00D-06.
 No special actions if energy rises.
 Fock matrices will be formed incrementally for  20 cycles.

 Cycle   1  Pass 1  IDiag  1:
 FoFJK:  IHMeth= 1 ICntrl=       0 DoSepK=T KAlg= 0 I1Cent=   0 FoldK=F
 IRaf=         1 NMat=   1 IRICut=       1 DoRegI=T DoRafI=F ISym2E= 0.
 FoFCou: FMM=F IPFlag=           0 FMFlag=      100000 FMFlg1=           0
         NFxFlg=           0 DoJE=T BraDBF=F KetDBF=F FulRan=T
         wScrn=  0.000000 ICntrl=     500 IOpCl=  0 I1Cent=           0 NGrid=           0
         NMat0=    1 NMatS0=      1 NMatT0=    0 NMatD0=    1 NMtDS0=    0 NMtDT0=    0
 Symmetry not used in FoFCou.
 Inv3:  Mode=1 IEnd=    41693952.
 Iteration    1 A*A^-1 deviation from unit magnitude is 5.55D-15 for   3709.
 Iteration    1 A*A^-1 deviation from orthogonality  is 2.97D-15 for    835    595.
 Iteration    1 A^-1*A deviation from unit magnitude is 6.22D-15 for   3709.
 Iteration    1 A^-1*A deviation from orthogonality  is 2.29D-09 for   3725   3674.
 Iteration    2 A*A^-1 deviation from unit magnitude is 3.11D-15 for      8.
 Iteration    2 A*A^-1 deviation from orthogonality  is 1.92D-15 for   3392      6.
 Iteration    2 A^-1*A deviation from unit magnitude is 1.44D-15 for    601.
 Iteration    2 A^-1*A deviation from orthogonality  is 3.98D-16 for   2905   2110.
 E= -2873.44208150376    
 DIIS: error= 5.08D-02 at cycle   1 NSaved=   1.
 NSaved= 1 IEnMin= 1 EnMin= -2873.44208150376     IErMin= 1 ErrMin= 5.08D-02
 ErrMax= 5.08D-02  0.00D+00 EMaxC= 1.00D-01 BMatC= 2.39D+00 BMatP= 2.39D+00
 IDIUse=3 WtCom= 4.92D-01 WtEn= 5.08D-01
 Coeff-Com:  0.100D+01
 Coeff-En:   0.100D+01
 Coeff:      0.100D+01
 Gap=     0.446 Goal=   None    Shift=    0.000
 GapD=    0.446 DampG=2.000 DampE=0.500 DampFc=1.0000 IDamp=-1.
 RMSDP=2.96D-03 MaxDP=1.41D-01              OVMax= 1.93D-01

 Cycle   2  Pass 1  IDiag  1:
 RMSU=  2.96D-03    CP:  1.00D+00
 E= -2873.81330767624     Delta-E=       -0.371226172485 Rises=F Damp=F
 DIIS: error= 1.89D-02 at cycle   2 NSaved=   2.
 NSaved= 2 IEnMin= 2 EnMin= -2873.81330767624     IErMin= 2 ErrMin= 1.89D-02
 ErrMax= 1.89D-02  0.00D+00 EMaxC= 1.00D-01 BMatC= 9.09D-01 BMatP= 2.39D+00
 IDIUse=3 WtCom= 8.11D-01 WtEn= 1.89D-01
 Coeff-Com:  0.360D+00 0.640D+00
 Coeff-En:   0.344D+00 0.656D+00
 Coeff:      0.357D+00 0.643D+00
 Gap=     0.408 Goal=   None    Shift=    0.000
 RMSDP=1.58D-03 MaxDP=1.30D-01 DE=-3.71D-01 OVMax= 1.34D-01

 Cycle   3  Pass 1  IDiag  1:
 RMSU=  9.96D-04    CP:  1.00D+00  5.84D-01
 E= -2874.22453700782     Delta-E=       -0.411229331576 Rises=F Damp=F
 DIIS: error= 1.39D-02 at cycle   3 NSaved=   3.
 NSaved= 3 IEnMin= 3 EnMin= -2874.22453700782     IErMin= 3 ErrMin= 1.39D-02
 ErrMax= 1.39D-02  0.00D+00 EMaxC= 1.00D-01 BMatC= 2.46D-01 BMatP= 9.09D-01
 IDIUse=3 WtCom= 8.61D-01 WtEn= 1.39D-01
 Coeff-Com:  0.114D+00 0.360D+00 0.526D+00
 Coeff-En:   0.000D+00 0.214D+00 0.786D+00
 Coeff:      0.979D-01 0.340D+00 0.562D+00
 Gap=     0.377 Goal=   None    Shift=    0.000
 RMSDP=7.70D-04 MaxDP=6.74D-02 DE=-4.11D-01 OVMax= 9.56D-02

 Cycle   4  Pass 1  IDiag  1:
 RMSU=  3.31D-04    CP:  1.00D+00  6.99D-01  3.90D-01
 E= -2874.37981677212     Delta-E=       -0.155279764298 Rises=F Damp=F
 DIIS: error= 4.89D-03 at cycle   4 NSaved=   4.
 NSaved= 4 IEnMin= 4 EnMin= -2874.37981677212     IErMin= 4 ErrMin= 4.89D-03
 ErrMax= 4.89D-03  0.00D+00 EMaxC= 1.00D-01 BMatC= 2.73D-02 BMatP= 2.46D-01
 IDIUse=3 WtCom= 9.51D-01 WtEn= 4.89D-02
 Coeff-Com:  0.807D-02 0.946D-01 0.300D+00 0.597D+00
 Coeff-En:   0.000D+00 0.000D+00 0.748D-01 0.925D+00
 Coeff:      0.768D-02 0.900D-01 0.289D+00 0.614D+00
 Gap=     0.363 Goal=   None    Shift=    0.000
 RMSDP=2.46D-04 MaxDP=2.31D-02 DE=-1.55D-01 OVMax= 2.46D-02

 Cycle   5  Pass 1  IDiag  1:
 RMSU=  1.04D-04    CP:  1.00D+00  6.85D-01  5.79D-01  6.63D-01
 E= -2874.39790845838     Delta-E=       -0.018091686265 Rises=F Damp=F
 DIIS: error= 9.02D-04 at cycle   5 NSaved=   5.
 NSaved= 5 IEnMin= 5 EnMin= -2874.39790845838     IErMin= 5 ErrMin= 9.02D-04
 ErrMax= 9.02D-04  0.00D+00 EMaxC= 1.00D-01 BMatC= 1.79D-03 BMatP= 2.73D-02
 IDIUse=3 WtCom= 9.91D-01 WtEn= 9.02D-03
 Coeff-Com: -0.164D-02 0.280D-01 0.124D+00 0.339D+00 0.511D+00
 Coeff-En:   0.000D+00 0.000D+00 0.000D+00 0.000D+00 0.100D+01
 Coeff:     -0.163D-02 0.277D-01 0.123D+00 0.335D+00 0.515D+00
 Gap=     0.359 Goal=   None    Shift=    0.000
 RMSDP=5.57D-05 MaxDP=4.40D-03 DE=-1.81D-02 OVMax= 6.60D-03

 Cycle   6  Pass 1  IDiag  1:
 RMSU=  2.54D-05    CP:  1.00D+00  6.90D-01  5.63D-01  7.05D-01  5.98D-01
 E= -2874.39917656313     Delta-E=       -0.001268104743 Rises=F Damp=F
 DIIS: error= 1.22D-04 at cycle   6 NSaved=   6.
 NSaved= 6 IEnMin= 6 EnMin= -2874.39917656313     IErMin= 6 ErrMin= 1.22D-04
 ErrMax= 1.22D-04  0.00D+00 EMaxC= 1.00D-01 BMatC= 3.30D-05 BMatP= 1.79D-03
 IDIUse=3 WtCom= 9.99D-01 WtEn= 1.22D-03
 Coeff-Com: -0.819D-03-0.107D-02 0.459D-02 0.299D-01 0.141D+00 0.827D+00
 Coeff-En:   0.000D+00 0.000D+00 0.000D+00 0.000D+00 0.000D+00 0.100D+01
 Coeff:     -0.818D-03-0.107D-02 0.458D-02 0.299D-01 0.140D+00 0.827D+00
 Gap=     0.359 Goal=   None    Shift=    0.000
 RMSDP=1.13D-05 MaxDP=7.38D-04 DE=-1.27D-03 OVMax= 8.31D-04

 Cycle   7  Pass 1  IDiag  1:
 RMSU=  7.97D-06    CP:  1.00D+00  6.90D-01  5.66D-01  7.17D-01  6.57D-01
                    CP:  9.87D-01
 E= -2874.39920268266     Delta-E=       -0.000026119538 Rises=F Damp=F
 DIIS: error= 9.42D-05 at cycle   7 NSaved=   7.
 NSaved= 7 IEnMin= 7 EnMin= -2874.39920268266     IErMin= 7 ErrMin= 9.42D-05
 ErrMax= 9.42D-05  0.00D+00 EMaxC= 1.00D-01 BMatC= 5.22D-06 BMatP= 3.30D-05
 IDIUse=1 WtCom= 1.00D+00 WtEn= 0.00D+00
 Coeff-Com: -0.145D-03-0.274D-02-0.781D-02-0.145D-01 0.229D-01 0.358D+00
 Coeff-Com:  0.645D+00
 Coeff:     -0.145D-03-0.274D-02-0.781D-02-0.145D-01 0.229D-01 0.358D+00
 Coeff:      0.645D+00
 Gap=     0.359 Goal=   None    Shift=    0.000
 RMSDP=3.62D-06 MaxDP=2.67D-04 DE=-2.61D-05 OVMax= 3.50D-04

 Cycle   8  Pass 1  IDiag  1:
 RMSU=  2.23D-06    CP:  1.00D+00  6.90D-01  5.67D-01  7.17D-01  6.68D-01
                    CP:  1.06D+00  7.94D-01
 E= -2874.39920741499     Delta-E=       -0.000004732325 Rises=F Damp=F
 DIIS: error= 7.78D-06 at cycle   8 NSaved=   8.
 NSaved= 8 IEnMin= 8 EnMin= -2874.39920741499     IErMin= 8 ErrMin= 7.78D-06
 ErrMax= 7.78D-06  0.00D+00 EMaxC= 1.00D-01 BMatC= 2.69D-07 BMatP= 5.22D-06
 IDIUse=1 WtCom= 1.00D+00 WtEn= 0.00D+00
 Coeff-Com:  0.721D-05-0.859D-03-0.280D-02-0.735D-02-0.412D-02 0.383D-01
 Coeff-Com:  0.188D+00 0.789D+00
 Coeff:      0.721D-05-0.859D-03-0.280D-02-0.735D-02-0.412D-02 0.383D-01
 Coeff:      0.188D+00 0.789D+00
 Gap=     0.359 Goal=   None    Shift=    0.000
 RMSDP=1.25D-06 MaxDP=1.09D-04 DE=-4.73D-06 OVMax= 1.60D-04

 Cycle   9  Pass 1  IDiag  1:
 RMSU=  8.37D-07    CP:  1.00D+00  6.90D-01  5.67D-01  7.17D-01  6.72D-01
                    CP:  1.08D+00  8.58D-01  1.07D+00
 E= -2874.39920768968     Delta-E=       -0.000000274693 Rises=F Damp=F
 DIIS: error= 6.56D-06 at cycle   9 NSaved=   9.
 NSaved= 9 IEnMin= 9 EnMin= -2874.39920768968     IErMin= 9 ErrMin= 6.56D-06
 ErrMax= 6.56D-06  0.00D+00 EMaxC= 1.00D-01 BMatC= 6.11D-08 BMatP= 2.69D-07
 IDIUse=1 WtCom= 1.00D+00 WtEn= 0.00D+00
 Coeff-Com:  0.211D-04 0.489D-04 0.518D-04-0.102D-02-0.544D-02-0.423D-01
 Coeff-Com: -0.182D-01 0.359D+00 0.707D+00
 Coeff:      0.211D-04 0.489D-04 0.518D-04-0.102D-02-0.544D-02-0.423D-01
 Coeff:     -0.182D-01 0.359D+00 0.707D+00
 Gap=     0.359 Goal=   None    Shift=    0.000
 RMSDP=5.28D-07 MaxDP=4.62D-05 DE=-2.75D-07 OVMax= 7.06D-05

 Cycle  10  Pass 1  IDiag  1:
 RMSU=  2.87D-07    CP:  1.00D+00  6.90D-01  5.68D-01  7.17D-01  6.73D-01
                    CP:  1.09D+00  8.82D-01  1.19D+00  9.19D-01
 E= -2874.39920774838     Delta-E=       -0.000000058697 Rises=F Damp=F
 DIIS: error= 1.75D-06 at cycle  10 NSaved=  10.
 NSaved=10 IEnMin=10 EnMin= -2874.39920774838     IErMin=10 ErrMin= 1.75D-06
 ErrMax= 1.75D-06  0.00D+00 EMaxC= 1.00D-01 BMatC= 3.81D-09 BMatP= 6.11D-08
 IDIUse=1 WtCom= 1.00D+00 WtEn= 0.00D+00
 Coeff-Com:  0.686D-05 0.925D-04 0.283D-03 0.280D-03-0.137D-02-0.184D-01
 Coeff-Com: -0.225D-01 0.593D-01 0.246D+00 0.736D+00
 Coeff:      0.686D-05 0.925D-04 0.283D-03 0.280D-03-0.137D-02-0.184D-01
 Coeff:     -0.225D-01 0.593D-01 0.246D+00 0.736D+00
 Gap=     0.359 Goal=   None    Shift=    0.000
 RMSDP=1.50D-07 MaxDP=1.36D-05 DE=-5.87D-08 OVMax= 2.16D-05

 Cycle  11  Pass 1  IDiag  1:
 RMSU=  1.05D-07    CP:  1.00D+00  6.90D-01  5.68D-01  7.17D-01  6.74D-01
                    CP:  1.09D+00  8.87D-01  1.22D+00  9.88D-01  9.50D-01
 E= -2874.39920775209     Delta-E=       -0.000000003713 Rises=F Damp=F
 DIIS: error= 8.66D-07 at cycle  11 NSaved=  11.
 NSaved=11 IEnMin=11 EnMin= -2874.39920775209     IErMin=11 ErrMin= 8.66D-07
 ErrMax= 8.66D-07  0.00D+00 EMaxC= 1.00D-01 BMatC= 1.03D-09 BMatP= 3.81D-09
 IDIUse=1 WtCom= 1.00D+00 WtEn= 0.00D+00
 Coeff-Com:  0.135D-05 0.433D-04 0.150D-03 0.255D-03-0.570D-05-0.476D-02
 Coeff-Com: -0.949D-02-0.874D-02 0.487D-01 0.381D+00 0.593D+00
 Coeff:      0.135D-05 0.433D-04 0.150D-03 0.255D-03-0.570D-05-0.476D-02
 Coeff:     -0.949D-02-0.874D-02 0.487D-01 0.381D+00 0.593D+00
 Gap=     0.359 Goal=   None    Shift=    0.000
 RMSDP=5.47D-08 MaxDP=6.91D-06 DE=-3.71D-09 OVMax= 6.36D-06

 Cycle  12  Pass 1  IDiag  1:
 RMSU=  3.44D-08    CP:  1.00D+00  6.90D-01  5.68D-01  7.17D-01  6.74D-01
                    CP:  1.09D+00  8.88D-01  1.22D+00  1.00D+00  1.04D+00
                    CP:  8.33D-01
 E= -2874.39920775262     Delta-E=       -0.000000000529 Rises=F Damp=F
 DIIS: error= 3.90D-07 at cycle  12 NSaved=  12.
 NSaved=12 IEnMin=12 EnMin= -2874.39920775262     IErMin=12 ErrMin= 3.90D-07
 ErrMax= 3.90D-07  0.00D+00 EMaxC= 1.00D-01 BMatC= 1.03D-10 BMatP= 1.03D-09
 IDIUse=1 WtCom= 1.00D+00 WtEn= 0.00D+00
 Coeff-Com: -0.407D-06 0.427D-05 0.249D-04 0.610D-04 0.259D-03 0.797D-03
 Coeff-Com: -0.504D-03-0.123D-01-0.165D-01 0.420D-01 0.234D+00 0.752D+00
 Coeff:     -0.407D-06 0.427D-05 0.249D-04 0.610D-04 0.259D-03 0.797D-03
 Coeff:     -0.504D-03-0.123D-01-0.165D-01 0.420D-01 0.234D+00 0.752D+00
 Gap=     0.359 Goal=   None    Shift=    0.000
 RMSDP=2.22D-08 MaxDP=2.45D-06 DE=-5.29D-10 OVMax= 2.99D-06

 Cycle  13  Pass 1  IDiag  1:
 RMSU=  1.19D-08    CP:  1.00D+00  6.90D-01  5.68D-01  7.17D-01  6.74D-01
                    CP:  1.09D+00  8.88D-01  1.23D+00  1.01D+00  1.07D+00
                    CP:  9.15D-01  8.94D-01
 E= -2874.39920775261     Delta-E=        0.000000000015 Rises=F Damp=F
 DIIS: error= 9.41D-08 at cycle  13 NSaved=  13.
 NSaved=13 IEnMin=12 EnMin= -2874.39920775262     IErMin=13 ErrMin= 9.41D-08
 ErrMax= 9.41D-08  0.00D+00 EMaxC= 1.00D-01 BMatC= 9.41D-12 BMatP= 1.03D-10
 IDIUse=1 WtCom= 1.00D+00 WtEn= 0.00D+00
 Coeff-Com: -0.258D-06-0.252D-05-0.366D-05-0.157D-05 0.109D-03 0.749D-03
 Coeff-Com:  0.734D-03-0.382D-02-0.114D-01-0.260D-01 0.206D-01 0.272D+00
 Coeff-Com:  0.747D+00
 Coeff:     -0.258D-06-0.252D-05-0.366D-05-0.157D-05 0.109D-03 0.749D-03
 Coeff:      0.734D-03-0.382D-02-0.114D-01-0.260D-01 0.206D-01 0.272D+00
 Coeff:      0.747D+00
 Gap=     0.359 Goal=   None    Shift=    0.000
 RMSDP=7.17D-09 MaxDP=4.95D-07 DE= 1.46D-11 OVMax= 9.09D-07

 Error on total polarization charges =  0.00311
 SCF Done:  E(RCAM-B3LYP) =  -2874.39920775     A.U. after   13 cycles
            NFock= 13  Conv=0.72D-08     -V/T= 2.0074
 KE= 2.853281912130D+03 PE=-1.896748518326D+04 EE= 7.151793872842D+03
 Leave Link  502 at Sun Mar  3 17:53:03 2024, MaxMem=  5368709120 cpu:      1350.3
 (Enter /home/k0335/k033513/app/g09/l601.exe)
 Copying SCF densities to generalized density rwf, IOpCl= 0 IROHF=0.

 **********************************************************************

            Population analysis using the SCF density.

 **********************************************************************

 Alpha  occ. eigenvalues --  -24.84330 -24.83757 -24.83655 -24.83640 -24.83553
 Alpha  occ. eigenvalues --  -24.83542 -24.83477 -24.83447 -24.83228 -24.83212
 Alpha  occ. eigenvalues --  -24.83136 -24.83132 -24.82969 -24.82910 -24.82906
 Alpha  occ. eigenvalues --  -24.82839 -24.82838 -24.82032 -19.33168 -19.32940
 Alpha  occ. eigenvalues --  -19.24231 -19.24144 -19.23917 -14.53346 -14.52942
 Alpha  occ. eigenvalues --  -14.50283 -10.59707 -10.59530 -10.55802 -10.55523
 Alpha  occ. eigenvalues --  -10.53582 -10.53544 -10.49198 -10.49150 -10.46860
 Alpha  occ. eigenvalues --  -10.45784 -10.45773 -10.32408 -10.25827 -10.25709
 Alpha  occ. eigenvalues --   -1.43370  -1.43275  -1.42124  -1.41856  -1.39241
 Alpha  occ. eigenvalues --   -1.38636  -1.35813  -1.35712  -1.33685  -1.33570
 Alpha  occ. eigenvalues --   -1.33450  -1.33430  -1.33143  -1.32885  -1.32519
 Alpha  occ. eigenvalues --   -1.32248  -1.31732  -1.31059  -1.23410  -1.20753
 Alpha  occ. eigenvalues --   -1.20395  -1.17976  -1.17937  -1.10120  -1.08684
 Alpha  occ. eigenvalues --   -1.06442  -0.94077  -0.93415  -0.89209  -0.85722
 Alpha  occ. eigenvalues --   -0.84064  -0.82699  -0.82167  -0.79957  -0.78859
 Alpha  occ. eigenvalues --   -0.77696  -0.77251  -0.75993  -0.74616  -0.73858
 Alpha  occ. eigenvalues --   -0.73073  -0.72549  -0.71959  -0.71080  -0.70634
 Alpha  occ. eigenvalues --   -0.70300  -0.69745  -0.69569  -0.68903  -0.68614
 Alpha  occ. eigenvalues --   -0.68021  -0.67296  -0.66971  -0.66801  -0.66476
 Alpha  occ. eigenvalues --   -0.65790  -0.64681  -0.63973  -0.62013  -0.60333
 Alpha  occ. eigenvalues --   -0.60026  -0.58303  -0.57762  -0.57646  -0.57260
 Alpha  occ. eigenvalues --   -0.57217  -0.56954  -0.56526  -0.56190  -0.56174
 Alpha  occ. eigenvalues --   -0.55974  -0.55736  -0.55584  -0.55059  -0.54705
 Alpha  occ. eigenvalues --   -0.54576  -0.54427  -0.54275  -0.54070  -0.53670
 Alpha  occ. eigenvalues --   -0.53629  -0.53175  -0.53015  -0.52814  -0.52573
 Alpha  occ. eigenvalues --   -0.52385  -0.52199  -0.51767  -0.51470  -0.51268
 Alpha  occ. eigenvalues --   -0.50970  -0.50807  -0.50715  -0.50521  -0.50314
 Alpha  occ. eigenvalues --   -0.50122  -0.49988  -0.49531  -0.49143  -0.49090
 Alpha  occ. eigenvalues --   -0.49008  -0.48654  -0.47870  -0.46388  -0.45930
 Alpha  occ. eigenvalues --   -0.45810  -0.45384  -0.44733  -0.44536  -0.42452
 Alpha  occ. eigenvalues --   -0.42168  -0.39908  -0.39678  -0.38446  -0.38128
 Alpha  occ. eigenvalues --   -0.36321  -0.35787
 Alpha virt. eigenvalues --    0.00119   0.00721   0.05357   0.06172   0.06947
 Alpha virt. eigenvalues --    0.08514   0.10538   0.13465   0.13943   0.14510
 Alpha virt. eigenvalues --    0.16442   0.17222   0.18007   0.19305   0.19625
 Alpha virt. eigenvalues --    0.19943   0.20049   0.20373   0.21386   0.21814
 Alpha virt. eigenvalues --    0.22006   0.22468   0.22694   0.22745   0.23231
 Alpha virt. eigenvalues --    0.23578   0.23878   0.24295   0.24730   0.24893
 Alpha virt. eigenvalues --    0.25172   0.25426   0.25775   0.26758   0.27064
 Alpha virt. eigenvalues --    0.27229   0.27955   0.28654   0.29028   0.29849
 Alpha virt. eigenvalues --    0.30264   0.31079   0.33253   0.33665   0.37131
 Alpha virt. eigenvalues --    0.38744   0.39009   0.40231   0.40587   0.46264
 Alpha virt. eigenvalues --    0.47501   0.48072   0.49097   0.49892   0.50560
 Alpha virt. eigenvalues --    0.51077   0.51731   0.52108   0.52616   0.53242
 Alpha virt. eigenvalues --    0.53894   0.54548   0.54695   0.55467   0.56061
 Alpha virt. eigenvalues --    0.56190   0.56573   0.57011   0.57726   0.58095
 Alpha virt. eigenvalues --    0.58792   0.59630   0.60045   0.61201   0.62007
 Alpha virt. eigenvalues --    0.62914   0.63573   0.64919   0.66991   0.67821
 Alpha virt. eigenvalues --    0.68400   0.69181   0.70706   0.72076   0.72482
 Alpha virt. eigenvalues --    0.72953   0.73504   0.75350   0.75927   0.79072
 Alpha virt. eigenvalues --    0.80423   0.81848   0.82406   0.83495   0.84112
 Alpha virt. eigenvalues --    0.84867   0.85553   0.86540   0.87312   0.87893
 Alpha virt. eigenvalues --    0.89051   0.90174   0.91811   0.92430   0.92978
 Alpha virt. eigenvalues --    0.93325   0.93943   0.94562   0.95851   0.96285
 Alpha virt. eigenvalues --    0.97028   0.97442   0.98554   1.00248   1.00698
 Alpha virt. eigenvalues --    1.00737   1.01370   1.01537   1.02593   1.03408
 Alpha virt. eigenvalues --    1.05181   1.05644   1.06487   1.07168   1.08557
 Alpha virt. eigenvalues --    1.08905   1.09098   1.10291   1.10646   1.10829
 Alpha virt. eigenvalues --    1.11266   1.12256   1.13449   1.13773   1.14403
 Alpha virt. eigenvalues --    1.15509   1.15988   1.16957   1.17476   1.17863
 Alpha virt. eigenvalues --    1.18791   1.19341   1.19627   1.20032   1.20863
 Alpha virt. eigenvalues --    1.21866   1.22465   1.23389   1.24384   1.25377
 Alpha virt. eigenvalues --    1.25874   1.26916   1.28027   1.28308   1.28710
 Alpha virt. eigenvalues --    1.29348   1.30109   1.31311   1.31563   1.32946
 Alpha virt. eigenvalues --    1.33058   1.33834   1.34115   1.34323   1.35019
 Alpha virt. eigenvalues --    1.35577   1.35845   1.36849   1.37456   1.37686
 Alpha virt. eigenvalues --    1.38162   1.38362   1.39223   1.39700   1.39985
 Alpha virt. eigenvalues --    1.40155   1.40638   1.41051   1.41267   1.42024
 Alpha virt. eigenvalues --    1.42905   1.43581   1.44034   1.44889   1.45680
 Alpha virt. eigenvalues --    1.45999   1.46378   1.47088   1.47785   1.48245
 Alpha virt. eigenvalues --    1.49244   1.49738   1.50545   1.50740   1.51177
 Alpha virt. eigenvalues --    1.51960   1.52250   1.53806   1.54027   1.54945
 Alpha virt. eigenvalues --    1.55434   1.56420   1.57056   1.57190   1.57701
 Alpha virt. eigenvalues --    1.58670   1.60329   1.60553   1.61785   1.61943
 Alpha virt. eigenvalues --    1.62829   1.64018   1.64932   1.66177   1.67511
 Alpha virt. eigenvalues --    1.67903   1.68128   1.68699   1.69294   1.70455
 Alpha virt. eigenvalues --    1.71130   1.71986   1.72780   1.73289   1.73705
 Alpha virt. eigenvalues --    1.74392   1.75020   1.75984   1.76671   1.78044
 Alpha virt. eigenvalues --    1.78722   1.78882   1.79992   1.80257   1.81704
 Alpha virt. eigenvalues --    1.82848   1.83302   1.83730   1.84170   1.84392
 Alpha virt. eigenvalues --    1.84609   1.84791   1.85469   1.85920   1.86125
 Alpha virt. eigenvalues --    1.86666   1.87058   1.87463   1.87533   1.88037
 Alpha virt. eigenvalues --    1.88370   1.89029   1.89723   1.90038   1.90631
 Alpha virt. eigenvalues --    1.91047   1.91259   1.91757   1.92145   1.92312
 Alpha virt. eigenvalues --    1.92693   1.93371   1.93836   1.94103   1.94393
 Alpha virt. eigenvalues --    1.95073   1.95406   1.96305   1.96846   1.97094
 Alpha virt. eigenvalues --    1.97566   1.97628   1.98228   1.99268   1.99327
 Alpha virt. eigenvalues --    1.99775   2.00049   2.00792   2.01076   2.01415
 Alpha virt. eigenvalues --    2.01741   2.02013   2.02269   2.02593   2.03364
 Alpha virt. eigenvalues --    2.03662   2.03961   2.04141   2.04292   2.04854
 Alpha virt. eigenvalues --    2.05462   2.05931   2.06919   2.07642   2.08059
 Alpha virt. eigenvalues --    2.08481   2.08974   2.09240   2.09927   2.10530
 Alpha virt. eigenvalues --    2.10855   2.11337   2.11983   2.11989   2.12321
 Alpha virt. eigenvalues --    2.13053   2.13565   2.14176   2.15691   2.17069
 Alpha virt. eigenvalues --    2.17566   2.17839   2.18179   2.18514   2.18827
 Alpha virt. eigenvalues --    2.19075   2.19250   2.19952   2.20502   2.21157
 Alpha virt. eigenvalues --    2.21987   2.22507   2.22916   2.23379   2.25408
 Alpha virt. eigenvalues --    2.27061   2.27171   2.27571   2.27973   2.28849
 Alpha virt. eigenvalues --    2.30160   2.31788   2.32720   2.32869   2.33938
 Alpha virt. eigenvalues --    2.36580   2.37088   2.37843   2.38592   2.40307
 Alpha virt. eigenvalues --    2.40554   2.40691   2.42215   2.42424   2.44489
 Alpha virt. eigenvalues --    2.45034   2.46050   2.46593   2.47210   2.47422
 Alpha virt. eigenvalues --    2.48988   2.49988   2.51341   2.52131   2.53499
 Alpha virt. eigenvalues --    2.54820   2.55674   2.57947   2.58847   2.59285
 Alpha virt. eigenvalues --    2.59995   2.61228   2.62215   2.63342   2.64066
 Alpha virt. eigenvalues --    2.64609   2.65991   2.67391   2.68879   2.69924
 Alpha virt. eigenvalues --    2.71328   2.72786   2.73095   2.73506   2.75235
 Alpha virt. eigenvalues --    2.76182   2.77137   2.79021   2.79554   2.80079
 Alpha virt. eigenvalues --    2.80839   2.82810   2.83258   2.84172   2.84856
 Alpha virt. eigenvalues --    2.85246   2.87099   2.88370   2.88695   2.91240
 Alpha virt. eigenvalues --    2.91738   2.91916   2.92733   2.93621   2.94024
 Alpha virt. eigenvalues --    2.94812   2.95747   2.96145   2.96523   2.96837
 Alpha virt. eigenvalues --    2.98439   2.99255   2.99917   3.02954   3.03626
 Alpha virt. eigenvalues --    3.04863   3.05241   3.05636   3.06292   3.06595
 Alpha virt. eigenvalues --    3.06978   3.08224   3.09952   3.12498   3.13308
 Alpha virt. eigenvalues --    3.14688   3.15605   3.18133   3.18730   3.19480
 Alpha virt. eigenvalues --    3.21621   3.22753   3.25608   3.25860   3.28652
 Alpha virt. eigenvalues --    3.29661   3.30167   3.30584   3.31094   3.33999
 Alpha virt. eigenvalues --    3.36382   3.40301   3.43019   3.49527   3.50188
 Alpha virt. eigenvalues --    3.55505   3.55902   3.61894   4.03098   4.08727
 Alpha virt. eigenvalues --    4.15063   4.20710   4.22354   4.25868   4.29454
 Alpha virt. eigenvalues --    4.33767   4.36979   4.39278   4.42870   4.44744
 Alpha virt. eigenvalues --    4.46865   4.47980   4.49392   4.54692   4.56632
 Alpha virt. eigenvalues --    4.59207   4.63365   4.66587   4.69372   4.74651
 Alpha virt. eigenvalues --    4.77384   4.78577   4.86682   4.89526   5.00160
 Alpha virt. eigenvalues --    5.08567   5.24247   5.25703   5.33638   5.44287
 Alpha virt. eigenvalues --    5.49945   5.61481   5.64822   5.67695   6.21882
 Alpha virt. eigenvalues --    6.31827   6.36871   6.64433
          Condensed to atoms (all electrons):
               1          2          3          4          5          6
     1  C    4.959474   0.373506  -0.054536  -0.055232  -0.000072  -0.000608
     2  C    0.373506   4.780278   0.369978   0.232804  -0.022601  -0.004207
     3  C   -0.054536   0.369978   4.967350  -0.043282   0.003100   0.000459
     4  N   -0.055232   0.232804  -0.043282   7.346374   0.266422  -0.088651
     5  C   -0.000072  -0.022601   0.003100   0.266422   4.172990   0.573743
     6  O   -0.000608  -0.004207   0.000459  -0.088651   0.573743   8.092516
     7  N   -0.000177   0.002357  -0.000106  -0.093366   0.198416  -0.087306
     8  C    0.000002  -0.000023   0.000001   0.002166  -0.012664   0.015703
     9  F    0.000000   0.000000   0.000000  -0.000019   0.000595   0.000012
    10  F    0.000000   0.000004   0.000000   0.000049   0.007961  -0.008556
    11  C    0.000000   0.000000   0.000000  -0.000264  -0.002647  -0.001368
    12  F    0.000000   0.000003   0.000000   0.000005   0.009149  -0.005955
    13  O    0.000000   0.000000   0.000000   0.000000   0.000174  -0.000046
    14  C    0.000000   0.000000   0.000000   0.000000  -0.000003  -0.000004
    15  F    0.000000   0.000000   0.000000   0.000000   0.000000   0.000000
    16  F    0.000000   0.000000   0.000000   0.000000   0.000000   0.000000
    17  F    0.000000   0.000000   0.000000   0.000000   0.000001   0.000000
    18  C    0.000000   0.000000   0.000000   0.000023  -0.000236  -0.000075
    19  F    0.000000   0.000000   0.000000   0.000000   0.000002   0.000000
    20  F    0.000000   0.000000   0.000000  -0.000091   0.001773  -0.000011
    21  F    0.000000   0.000000   0.000000   0.000000   0.000021   0.000000
    22  C    0.000033   0.000221  -0.000016  -0.004280  -0.009926   0.000226
    23  O    0.000000   0.000002   0.000000   0.000144  -0.000169  -0.000033
    24  N   -0.000215   0.003175  -0.000438  -0.095972  -0.001142   0.000060
    25  C    0.000008  -0.000024   0.000011   0.002186   0.000159   0.000000
    26  F    0.000000   0.000010  -0.000012  -0.000019  -0.000001   0.000000
    27  F    0.000000   0.000000   0.000000  -0.000027  -0.000004   0.000000
    28  C   -0.000001   0.000002   0.000000  -0.000207   0.000052   0.000000
    29  F    0.000000   0.000000   0.000000   0.000001   0.000003   0.000000
    30  O   -0.000004   0.000002   0.000000  -0.000137   0.000028   0.000000
    31  C    0.000000   0.000000   0.000000  -0.000001   0.000000   0.000000
    32  F    0.000000   0.000000   0.000000   0.000000   0.000000   0.000000
    33  F    0.000000   0.000000   0.000000   0.000000   0.000000   0.000000
    34  F    0.000000   0.000000   0.000000   0.000000   0.000000   0.000000
    35  C    0.000000   0.000000   0.000000   0.000000   0.000000   0.000000
    36  F    0.000000   0.000000   0.000000   0.000000   0.000000   0.000000
    37  F    0.000000   0.000000   0.000000   0.000000   0.000000   0.000000
    38  F    0.000000   0.000000   0.000000   0.000000   0.000000   0.000000
    39  C   -0.004092  -0.022975  -0.003963   0.249697  -0.024833   0.000236
    40  O   -0.006537   0.007635  -0.008868  -0.086565   0.000753  -0.000023
    41  H    0.380439  -0.029577   0.004910  -0.003874   0.002937   0.001161
    42  H    0.385225  -0.027845  -0.002975   0.004020  -0.000032  -0.000031
    43  H    0.387196  -0.028217  -0.006679  -0.006260  -0.000363  -0.000004
    44  H   -0.042041   0.408230  -0.042380  -0.037753  -0.005213   0.012167
    45  H   -0.002531  -0.026480   0.384833   0.003436  -0.000018  -0.000005
    46  H   -0.006333  -0.027413   0.384945  -0.005368  -0.000304  -0.000012
    47  H    0.004866  -0.031987   0.380624  -0.001091   0.000504   0.000016
               7          8          9         10         11         12
     1  C   -0.000177   0.000002   0.000000   0.000000   0.000000   0.000000
     2  C    0.002357  -0.000023   0.000000   0.000004   0.000000   0.000003
     3  C   -0.000106   0.000001   0.000000   0.000000   0.000000   0.000000
     4  N   -0.093366   0.002166  -0.000019   0.000049  -0.000264   0.000005
     5  C    0.198416  -0.012664   0.000595   0.007961  -0.002647   0.009149
     6  O   -0.087306   0.015703   0.000012  -0.008556  -0.001368  -0.005955
     7  N    7.612789   0.163412  -0.038694  -0.047426  -0.068790  -0.000628
     8  C    0.163412   4.379445   0.280354   0.272177   0.225175  -0.022975
     9  F   -0.038694   0.280354   9.087284  -0.043485  -0.037728   0.000286
    10  F   -0.047426   0.272177  -0.043485   9.107713  -0.023349  -0.000273
    11  C   -0.068790   0.225175  -0.037728  -0.023349   4.996875   0.227305
    12  F   -0.000628  -0.022975   0.000286  -0.000273   0.227305   9.116692
    13  O    0.001643  -0.020357   0.000115  -0.000284   0.161972  -0.049508
    14  C   -0.000004   0.000933  -0.000076   0.000025  -0.001635  -0.000699
    15  F    0.000000  -0.000042   0.000000   0.000000   0.000675  -0.000023
    16  F    0.000000  -0.000173   0.000001   0.000000  -0.009388  -0.000016
    17  F    0.000000   0.000198   0.000000   0.000000   0.012993  -0.002503
    18  C   -0.001750  -0.037761   0.005977   0.001504   0.171826  -0.016746
    19  F   -0.000019   0.001482  -0.000001  -0.000001  -0.026007  -0.000164
    20  F   -0.003583  -0.004329  -0.000191   0.000003  -0.022062  -0.000362
    21  F   -0.000451   0.002459   0.000097   0.000000  -0.034145   0.000317
    22  C    0.192311  -0.006084   0.007108   0.000366  -0.001650  -0.000220
    23  O   -0.086682   0.011323  -0.015289   0.000016  -0.004092   0.000004
    24  N   -0.095104   0.001362   0.000069  -0.000026  -0.000157   0.000001
    25  C    0.002054   0.000014   0.000011   0.000000  -0.000001   0.000000
    26  F   -0.000023   0.000000   0.000000   0.000000   0.000000   0.000000
    27  F    0.000045   0.000005   0.000000   0.000000   0.000000   0.000000
    28  C   -0.000362  -0.000002  -0.000002   0.000000   0.000000   0.000000
    29  F   -0.000073   0.000010  -0.000001   0.000000   0.000000   0.000000
    30  O   -0.000035   0.000000   0.000000   0.000000   0.000000   0.000000
    31  C    0.000000   0.000000   0.000000   0.000000   0.000000   0.000000
    32  F    0.000000   0.000000   0.000000   0.000000   0.000000   0.000000
    33  F    0.000000   0.000000   0.000000   0.000000   0.000000   0.000000
    34  F    0.000000   0.000000   0.000000   0.000000   0.000000   0.000000
    35  C   -0.000002   0.000000   0.000000   0.000000   0.000000   0.000000
    36  F    0.000000   0.000000   0.000000   0.000000   0.000000   0.000000
    37  F    0.000000   0.000000   0.000000   0.000000   0.000000   0.000000
    38  F    0.000000   0.000000   0.000000   0.000000   0.000000   0.000000
    39  C    0.002392  -0.000044  -0.000004  -0.000013   0.000048   0.000003
    40  O   -0.000071  -0.000002   0.000000   0.000000   0.000000   0.000000
    41  H   -0.000166  -0.000001   0.000000   0.000000   0.000000   0.000000
    42  H    0.000003   0.000000   0.000000   0.000000   0.000000   0.000000
    43  H    0.000007   0.000000   0.000000   0.000000   0.000000   0.000000
    44  H    0.000776   0.000002   0.000000   0.000003   0.000000  -0.000001
    45  H    0.000001   0.000000   0.000000   0.000000   0.000000   0.000000
    46  H    0.000002   0.000000   0.000000   0.000000   0.000000   0.000000
    47  H   -0.000012   0.000000   0.000000   0.000000   0.000000   0.000000
              13         14         15         16         17         18
     1  C    0.000000   0.000000   0.000000   0.000000   0.000000   0.000000
     2  C    0.000000   0.000000   0.000000   0.000000   0.000000   0.000000
     3  C    0.000000   0.000000   0.000000   0.000000   0.000000   0.000000
     4  N    0.000000   0.000000   0.000000   0.000000   0.000000   0.000023
     5  C    0.000174  -0.000003   0.000000   0.000000   0.000001  -0.000236
     6  O   -0.000046  -0.000004   0.000000   0.000000   0.000000  -0.000075
     7  N    0.001643  -0.000004   0.000000   0.000000   0.000000  -0.001750
     8  C   -0.020357   0.000933  -0.000042  -0.000173   0.000198  -0.037761
     9  F    0.000115  -0.000076   0.000000   0.000001   0.000000   0.005977
    10  F   -0.000284   0.000025   0.000000   0.000000   0.000000   0.001504
    11  C    0.161972  -0.001635   0.000675  -0.009388   0.012993   0.171826
    12  F   -0.049508  -0.000699  -0.000023  -0.000016  -0.002503  -0.016746
    13  O    8.345441   0.236354  -0.039120  -0.048325  -0.044938  -0.030275
    14  C    0.236354   3.825345   0.338805   0.301357   0.295101  -0.004108
    15  F   -0.039120   0.338805   9.012274  -0.037624  -0.036269  -0.000011
    16  F   -0.048325   0.301357  -0.037624   9.063402  -0.033938   0.018041
    17  F   -0.044938   0.295101  -0.036269  -0.033938   9.059111  -0.004713
    18  C   -0.030275  -0.004108  -0.000011   0.018041  -0.004713   4.256490
    19  F   -0.001424   0.011966  -0.000005  -0.007489  -0.001918   0.275440
    20  F    0.000596   0.000053   0.000000   0.000000   0.000000   0.266488
    21  F    0.000527  -0.000354   0.000000  -0.000452   0.000011   0.276061
    22  C    0.000047   0.000000   0.000000   0.000000   0.000000   0.001709
    23  O    0.000003   0.000000   0.000000   0.000000   0.000000   0.005761
    24  N    0.000000   0.000000   0.000000   0.000000   0.000000  -0.000093
    25  C    0.000000   0.000000   0.000000   0.000000   0.000000   0.000001
    26  F    0.000000   0.000000   0.000000   0.000000   0.000000   0.000000
    27  F    0.000000   0.000000   0.000000   0.000000   0.000000  -0.000002
    28  C    0.000000   0.000000   0.000000   0.000000   0.000000   0.000000
    29  F    0.000000   0.000000   0.000000   0.000000   0.000000   0.000000
    30  O    0.000000   0.000000   0.000000   0.000000   0.000000   0.000000
    31  C    0.000000   0.000000   0.000000   0.000000   0.000000   0.000000
    32  F    0.000000   0.000000   0.000000   0.000000   0.000000   0.000000
    33  F    0.000000   0.000000   0.000000   0.000000   0.000000   0.000000
    34  F    0.000000   0.000000   0.000000   0.000000   0.000000   0.000000
    35  C    0.000000   0.000000   0.000000   0.000000   0.000000   0.000000
    36  F    0.000000   0.000000   0.000000   0.000000   0.000000   0.000000
    37  F    0.000000   0.000000   0.000000   0.000000   0.000000   0.000000
    38  F    0.000000   0.000000   0.000000   0.000000   0.000000   0.000000
    39  C    0.000000   0.000000   0.000000   0.000000   0.000000  -0.000009
    40  O    0.000000   0.000000   0.000000   0.000000   0.000000   0.000000
    41  H    0.000000   0.000000   0.000000   0.000000   0.000000   0.000000
    42  H    0.000000   0.000000   0.000000   0.000000   0.000000   0.000000
    43  H    0.000000   0.000000   0.000000   0.000000   0.000000   0.000000
    44  H    0.000000   0.000000   0.000000   0.000000   0.000000   0.000000
    45  H    0.000000   0.000000   0.000000   0.000000   0.000000   0.000000
    46  H    0.000000   0.000000   0.000000   0.000000   0.000000   0.000000
    47  H    0.000000   0.000000   0.000000   0.000000   0.000000   0.000000
              19         20         21         22         23         24
     1  C    0.000000   0.000000   0.000000   0.000033   0.000000  -0.000215
     2  C    0.000000   0.000000   0.000000   0.000221   0.000002   0.003175
     3  C    0.000000   0.000000   0.000000  -0.000016   0.000000  -0.000438
     4  N    0.000000  -0.000091   0.000000  -0.004280   0.000144  -0.095972
     5  C    0.000002   0.001773   0.000021  -0.009926  -0.000169  -0.001142
     6  O    0.000000  -0.000011   0.000000   0.000226  -0.000033   0.000060
     7  N   -0.000019  -0.003583  -0.000451   0.192311  -0.086682  -0.095104
     8  C    0.001482  -0.004329   0.002459  -0.006084   0.011323   0.001362
     9  F   -0.000001  -0.000191   0.000097   0.007108  -0.015289   0.000069
    10  F   -0.000001   0.000003   0.000000   0.000366   0.000016  -0.000026
    11  C   -0.026007  -0.022062  -0.034145  -0.001650  -0.004092  -0.000157
    12  F   -0.000164  -0.000362   0.000317  -0.000220   0.000004   0.000001
    13  O   -0.001424   0.000596   0.000527   0.000047   0.000003   0.000000
    14  C    0.011966   0.000053  -0.000354   0.000000   0.000000   0.000000
    15  F   -0.000005   0.000000   0.000000   0.000000   0.000000   0.000000
    16  F   -0.007489   0.000000  -0.000452   0.000000   0.000000   0.000000
    17  F   -0.001918   0.000000   0.000011   0.000000   0.000000   0.000000
    18  C    0.275440   0.266488   0.276061   0.001709   0.005761  -0.000093
    19  F    9.079862  -0.039725  -0.038579   0.000010  -0.000002   0.000000
    20  F   -0.039725   9.077028  -0.035221   0.017409  -0.005635  -0.001412
    21  F   -0.038579  -0.035221   9.063516  -0.000376   0.000196  -0.000004
    22  C    0.000010   0.017409  -0.000376   4.216812   0.546703   0.206938
    23  O   -0.000002  -0.005635   0.000196   0.546703   8.132819  -0.089519
    24  N    0.000000  -0.001412  -0.000004   0.206938  -0.089519   7.570852
    25  C    0.000000   0.000003   0.000000  -0.012238   0.014751   0.180460
    26  F    0.000000   0.000000   0.000000   0.000793   0.000013  -0.036674
    27  F    0.000000  -0.000004   0.000000   0.003885  -0.008449  -0.040487
    28  C    0.000000   0.000000   0.000000  -0.001072  -0.002519  -0.066626
    29  F    0.000000   0.000000   0.000000   0.009916  -0.004194  -0.001942
    30  O    0.000000   0.000000   0.000000   0.000258  -0.000011  -0.000044
    31  C    0.000000   0.000000   0.000000  -0.000011  -0.000004  -0.000215
    32  F    0.000000   0.000000   0.000000   0.000000   0.000000   0.000001
    33  F    0.000000   0.000000   0.000000   0.000001   0.000000  -0.000002
    34  F    0.000000   0.000000   0.000000   0.000000   0.000000   0.000001
    35  C    0.000000   0.000000   0.000000   0.000284  -0.000036   0.003109
    36  F    0.000000   0.000000   0.000000   0.000000   0.000000  -0.000028
    37  F    0.000000   0.000000   0.000000   0.000000   0.000000  -0.000012
    38  F    0.000000   0.000000   0.000000  -0.000007   0.000000   0.000048
    39  C    0.000000   0.000136   0.000000  -0.016641   0.000074   0.200227
    40  O    0.000000   0.000000   0.000000   0.000097  -0.000030  -0.089048
    41  H    0.000000   0.000000   0.000000   0.000004   0.000000  -0.000005
    42  H    0.000000   0.000000   0.000000   0.000000   0.000000   0.000002
    43  H    0.000000   0.000000   0.000000   0.000002   0.000000   0.000084
    44  H    0.000000   0.000000   0.000000  -0.000021   0.000000  -0.000108
    45  H    0.000000   0.000000   0.000000   0.000000   0.000000   0.000003
    46  H    0.000000   0.000000   0.000000   0.000000   0.000000   0.000062
    47  H    0.000000   0.000000   0.000000   0.000004   0.000000  -0.000063
              25         26         27         28         29         30
     1  C    0.000008   0.000000   0.000000  -0.000001   0.000000  -0.000004
     2  C   -0.000024   0.000010   0.000000   0.000002   0.000000   0.000002
     3  C    0.000011  -0.000012   0.000000   0.000000   0.000000   0.000000
     4  N    0.002186  -0.000019  -0.000027  -0.000207   0.000001  -0.000137
     5  C    0.000159  -0.000001  -0.000004   0.000052   0.000003   0.000028
     6  O    0.000000   0.000000   0.000000   0.000000   0.000000   0.000000
     7  N    0.002054  -0.000023   0.000045  -0.000362  -0.000073  -0.000035
     8  C    0.000014   0.000000   0.000005  -0.000002   0.000010   0.000000
     9  F    0.000011   0.000000   0.000000  -0.000002  -0.000001   0.000000
    10  F    0.000000   0.000000   0.000000   0.000000   0.000000   0.000000
    11  C   -0.000001   0.000000   0.000000   0.000000   0.000000   0.000000
    12  F    0.000000   0.000000   0.000000   0.000000   0.000000   0.000000
    13  O    0.000000   0.000000   0.000000   0.000000   0.000000   0.000000
    14  C    0.000000   0.000000   0.000000   0.000000   0.000000   0.000000
    15  F    0.000000   0.000000   0.000000   0.000000   0.000000   0.000000
    16  F    0.000000   0.000000   0.000000   0.000000   0.000000   0.000000
    17  F    0.000000   0.000000   0.000000   0.000000   0.000000   0.000000
    18  C    0.000001   0.000000  -0.000002   0.000000   0.000000   0.000000
    19  F    0.000000   0.000000   0.000000   0.000000   0.000000   0.000000
    20  F    0.000003   0.000000  -0.000004   0.000000   0.000000   0.000000
    21  F    0.000000   0.000000   0.000000   0.000000   0.000000   0.000000
    22  C   -0.012238   0.000793   0.003885  -0.001072   0.009916   0.000258
    23  O    0.014751   0.000013  -0.008449  -0.002519  -0.004194  -0.000011
    24  N    0.180460  -0.036674  -0.040487  -0.066626  -0.001942  -0.000044
    25  C    4.356663   0.267201   0.274066   0.213473  -0.020954  -0.028000
    26  F    0.267201   9.097368  -0.041605  -0.035546   0.000304   0.000725
    27  F    0.274066  -0.041605   9.094209  -0.024831  -0.000117   0.000541
    28  C    0.213473  -0.035546  -0.024831   4.989466   0.217940   0.158201
    29  F   -0.020954   0.000304  -0.000117   0.217940   9.126299  -0.053412
    30  O   -0.028000   0.000725   0.000541   0.158201  -0.053412   8.350701
    31  C    0.001059  -0.000061   0.000004   0.001634  -0.001136   0.234536
    32  F   -0.000032   0.000000   0.000000   0.000532  -0.000021  -0.039383
    33  F    0.000193   0.000000   0.000000   0.012820  -0.001366  -0.046450
    34  F   -0.000175   0.000001   0.000000  -0.008900  -0.000015  -0.047519
    35  C   -0.029948   0.007655  -0.001212   0.208623  -0.014662  -0.026942
    36  F    0.000105  -0.000826  -0.000149  -0.032328   0.000308   0.000282
    37  F    0.001319   0.000000  -0.000002  -0.031599  -0.000060  -0.001498
    38  F    0.006170  -0.000874  -0.002428  -0.028845  -0.000254   0.000545
    39  C   -0.006775   0.007298   0.000772  -0.002956  -0.000341   0.004645
    40  O    0.015926  -0.010831   0.000010  -0.002907   0.000006  -0.002779
    41  H    0.000000   0.000000   0.000000   0.000000   0.000000   0.000000
    42  H    0.000000   0.000000   0.000000   0.000000   0.000000   0.000000
    43  H    0.000000   0.000001   0.000000   0.000001   0.000000   0.000007
    44  H    0.000001   0.000000   0.000000   0.000000   0.000000   0.000000
    45  H    0.000000   0.000000   0.000000   0.000000   0.000000   0.000000
    46  H    0.000002   0.000000   0.000000   0.000000   0.000000   0.000001
    47  H   -0.000001   0.000002   0.000000   0.000000   0.000000   0.000000
              31         32         33         34         35         36
     1  C    0.000000   0.000000   0.000000   0.000000   0.000000   0.000000
     2  C    0.000000   0.000000   0.000000   0.000000   0.000000   0.000000
     3  C    0.000000   0.000000   0.000000   0.000000   0.000000   0.000000
     4  N   -0.000001   0.000000   0.000000   0.000000   0.000000   0.000000
     5  C    0.000000   0.000000   0.000000   0.000000   0.000000   0.000000
     6  O    0.000000   0.000000   0.000000   0.000000   0.000000   0.000000
     7  N    0.000000   0.000000   0.000000   0.000000  -0.000002   0.000000
     8  C    0.000000   0.000000   0.000000   0.000000   0.000000   0.000000
     9  F    0.000000   0.000000   0.000000   0.000000   0.000000   0.000000
    10  F    0.000000   0.000000   0.000000   0.000000   0.000000   0.000000
    11  C    0.000000   0.000000   0.000000   0.000000   0.000000   0.000000
    12  F    0.000000   0.000000   0.000000   0.000000   0.000000   0.000000
    13  O    0.000000   0.000000   0.000000   0.000000   0.000000   0.000000
    14  C    0.000000   0.000000   0.000000   0.000000   0.000000   0.000000
    15  F    0.000000   0.000000   0.000000   0.000000   0.000000   0.000000
    16  F    0.000000   0.000000   0.000000   0.000000   0.000000   0.000000
    17  F    0.000000   0.000000   0.000000   0.000000   0.000000   0.000000
    18  C    0.000000   0.000000   0.000000   0.000000   0.000000   0.000000
    19  F    0.000000   0.000000   0.000000   0.000000   0.000000   0.000000
    20  F    0.000000   0.000000   0.000000   0.000000   0.000000   0.000000
    21  F    0.000000   0.000000   0.000000   0.000000   0.000000   0.000000
    22  C   -0.000011   0.000000   0.000001   0.000000   0.000284   0.000000
    23  O   -0.000004   0.000000   0.000000   0.000000  -0.000036   0.000000
    24  N   -0.000215   0.000001  -0.000002   0.000001   0.003109  -0.000028
    25  C    0.001059  -0.000032   0.000193  -0.000175  -0.029948   0.000105
    26  F   -0.000061   0.000000   0.000000   0.000001   0.007655  -0.000826
    27  F    0.000004   0.000000   0.000000   0.000000  -0.001212  -0.000149
    28  C    0.001634   0.000532   0.012820  -0.008900   0.208623  -0.032328
    29  F   -0.001136  -0.000021  -0.001366  -0.000015  -0.014662   0.000308
    30  O    0.234536  -0.039383  -0.046450  -0.047519  -0.026942   0.000282
    31  C    3.822613   0.339332   0.295291   0.302248  -0.003530  -0.000402
    32  F    0.339332   9.012811  -0.036660  -0.037279  -0.000026   0.000000
    33  F    0.295291  -0.036660   9.058766  -0.033830  -0.004269   0.000014
    34  F    0.302248  -0.037279  -0.033830   9.057650   0.017732  -0.000471
    35  C   -0.003530  -0.000026  -0.004269   0.017732   4.192671   0.267640
    36  F   -0.000402   0.000000   0.000014  -0.000471   0.267640   9.088635
    37  F    0.012081  -0.000004  -0.001972  -0.006661   0.281287  -0.038815
    38  F    0.000059   0.000000   0.000000   0.000000   0.287552  -0.037954
    39  C    0.000080  -0.000011   0.000000   0.000003   0.000060   0.000001
    40  O    0.000474  -0.000005   0.000000  -0.000003  -0.000033  -0.000001
    41  H    0.000000   0.000000   0.000000   0.000000   0.000000   0.000000
    42  H    0.000000   0.000000   0.000000   0.000000   0.000000   0.000000
    43  H    0.000002   0.000001   0.000000   0.000000   0.000000   0.000000
    44  H    0.000000   0.000000   0.000000   0.000000   0.000000   0.000000
    45  H    0.000000   0.000000   0.000000   0.000000   0.000000   0.000000
    46  H    0.000000   0.000000   0.000000   0.000000   0.000000   0.000000
    47  H    0.000000   0.000000   0.000000   0.000000   0.000000   0.000000
              37         38         39         40         41         42
     1  C    0.000000   0.000000  -0.004092  -0.006537   0.380439   0.385225
     2  C    0.000000   0.000000  -0.022975   0.007635  -0.029577  -0.027845
     3  C    0.000000   0.000000  -0.003963  -0.008868   0.004910  -0.002975
     4  N    0.000000   0.000000   0.249697  -0.086565  -0.003874   0.004020
     5  C    0.000000   0.000000  -0.024833   0.000753   0.002937  -0.000032
     6  O    0.000000   0.000000   0.000236  -0.000023   0.001161  -0.000031
     7  N    0.000000   0.000000   0.002392  -0.000071  -0.000166   0.000003
     8  C    0.000000   0.000000  -0.000044  -0.000002  -0.000001   0.000000
     9  F    0.000000   0.000000  -0.000004   0.000000   0.000000   0.000000
    10  F    0.000000   0.000000  -0.000013   0.000000   0.000000   0.000000
    11  C    0.000000   0.000000   0.000048   0.000000   0.000000   0.000000
    12  F    0.000000   0.000000   0.000003   0.000000   0.000000   0.000000
    13  O    0.000000   0.000000   0.000000   0.000000   0.000000   0.000000
    14  C    0.000000   0.000000   0.000000   0.000000   0.000000   0.000000
    15  F    0.000000   0.000000   0.000000   0.000000   0.000000   0.000000
    16  F    0.000000   0.000000   0.000000   0.000000   0.000000   0.000000
    17  F    0.000000   0.000000   0.000000   0.000000   0.000000   0.000000
    18  C    0.000000   0.000000  -0.000009   0.000000   0.000000   0.000000
    19  F    0.000000   0.000000   0.000000   0.000000   0.000000   0.000000
    20  F    0.000000   0.000000   0.000136   0.000000   0.000000   0.000000
    21  F    0.000000   0.000000   0.000000   0.000000   0.000000   0.000000
    22  C    0.000000  -0.000007  -0.016641   0.000097   0.000004   0.000000
    23  O    0.000000   0.000000   0.000074  -0.000030   0.000000   0.000000
    24  N   -0.000012   0.000048   0.200227  -0.089048  -0.000005   0.000002
    25  C    0.001319   0.006170  -0.006775   0.015926   0.000000   0.000000
    26  F    0.000000  -0.000874   0.007298  -0.010831   0.000000   0.000000
    27  F   -0.000002  -0.002428   0.000772   0.000010   0.000000   0.000000
    28  C   -0.031599  -0.028845  -0.002956  -0.002907   0.000000   0.000000
    29  F   -0.000060  -0.000254  -0.000341   0.000006   0.000000   0.000000
    30  O   -0.001498   0.000545   0.004645  -0.002779   0.000000   0.000000
    31  C    0.012081   0.000059   0.000080   0.000474   0.000000   0.000000
    32  F   -0.000004   0.000000  -0.000011  -0.000005   0.000000   0.000000
    33  F   -0.001972   0.000000   0.000000   0.000000   0.000000   0.000000
    34  F   -0.006661   0.000000   0.000003  -0.000003   0.000000   0.000000
    35  C    0.281287   0.287552   0.000060  -0.000033   0.000000   0.000000
    36  F   -0.038815  -0.037954   0.000001  -0.000001   0.000000   0.000000
    37  F    9.084736  -0.039883   0.000000   0.000000   0.000000   0.000000
    38  F   -0.039883   9.059110   0.000001   0.000000   0.000000   0.000000
    39  C    0.000000   0.000001   4.204514   0.559748  -0.000009   0.000056
    40  O    0.000000   0.000000   0.559748   8.096425   0.000043   0.000156
    41  H    0.000000   0.000000  -0.000009   0.000043   0.586218  -0.025142
    42  H    0.000000   0.000000   0.000056   0.000156  -0.025142   0.568068
    43  H    0.000000   0.000000   0.004214   0.006685  -0.029918  -0.025980
    44  H    0.000000   0.000000   0.004551   0.000127  -0.003748  -0.002989
    45  H    0.000000   0.000000   0.000087   0.000263   0.000017   0.001992
    46  H    0.000000   0.000000   0.003364   0.006816  -0.000005  -0.000107
    47  H    0.000000   0.000000   0.000278  -0.000183  -0.000188   0.000020
              43         44         45         46         47
     1  C    0.387196  -0.042041  -0.002531  -0.006333   0.004866
     2  C   -0.028217   0.408230  -0.026480  -0.027413  -0.031987
     3  C   -0.006679  -0.042380   0.384833   0.384945   0.380624
     4  N   -0.006260  -0.037753   0.003436  -0.005368  -0.001091
     5  C   -0.000363  -0.005213  -0.000018  -0.000304   0.000504
     6  O   -0.000004   0.012167  -0.000005  -0.000012   0.000016
     7  N    0.000007   0.000776   0.000001   0.000002  -0.000012
     8  C    0.000000   0.000002   0.000000   0.000000   0.000000
     9  F    0.000000   0.000000   0.000000   0.000000   0.000000
    10  F    0.000000   0.000003   0.000000   0.000000   0.000000
    11  C    0.000000   0.000000   0.000000   0.000000   0.000000
    12  F    0.000000  -0.000001   0.000000   0.000000   0.000000
    13  O    0.000000   0.000000   0.000000   0.000000   0.000000
    14  C    0.000000   0.000000   0.000000   0.000000   0.000000
    15  F    0.000000   0.000000   0.000000   0.000000   0.000000
    16  F    0.000000   0.000000   0.000000   0.000000   0.000000
    17  F    0.000000   0.000000   0.000000   0.000000   0.000000
    18  C    0.000000   0.000000   0.000000   0.000000   0.000000
    19  F    0.000000   0.000000   0.000000   0.000000   0.000000
    20  F    0.000000   0.000000   0.000000   0.000000   0.000000
    21  F    0.000000   0.000000   0.000000   0.000000   0.000000
    22  C    0.000002  -0.000021   0.000000   0.000000   0.000004
    23  O    0.000000   0.000000   0.000000   0.000000   0.000000
    24  N    0.000084  -0.000108   0.000003   0.000062  -0.000063
    25  C    0.000000   0.000001   0.000000   0.000002  -0.000001
    26  F    0.000001   0.000000   0.000000   0.000000   0.000002
    27  F    0.000000   0.000000   0.000000   0.000000   0.000000
    28  C    0.000001   0.000000   0.000000   0.000000   0.000000
    29  F    0.000000   0.000000   0.000000   0.000000   0.000000
    30  O    0.000007   0.000000   0.000000   0.000001   0.000000
    31  C    0.000002   0.000000   0.000000   0.000000   0.000000
    32  F    0.000001   0.000000   0.000000   0.000000   0.000000
    33  F    0.000000   0.000000   0.000000   0.000000   0.000000
    34  F    0.000000   0.000000   0.000000   0.000000   0.000000
    35  C    0.000000   0.000000   0.000000   0.000000   0.000000
    36  F    0.000000   0.000000   0.000000   0.000000   0.000000
    37  F    0.000000   0.000000   0.000000   0.000000   0.000000
    38  F    0.000000   0.000000   0.000000   0.000000   0.000000
    39  C    0.004214   0.004551   0.000087   0.003364   0.000278
    40  O    0.006685   0.000127   0.000263   0.006816  -0.000183
    41  H   -0.029918  -0.003748   0.000017  -0.000005  -0.000188
    42  H   -0.025980  -0.002989   0.001992  -0.000107   0.000020
    43  H    0.555736   0.004358  -0.000106   0.003738   0.000009
    44  H    0.004358   0.543769  -0.004259   0.004371  -0.002996
    45  H   -0.000106  -0.004259   0.567178  -0.026793  -0.024723
    46  H    0.003738   0.004371  -0.026793   0.553720  -0.029368
    47  H    0.000009  -0.002996  -0.024723  -0.029368   0.586566
 Mulliken charges:
               1
     1  C   -0.318370
     2  C    0.043142
     3  C   -0.332956
     4  N   -0.584865
     5  C    0.841446
     6  O   -0.499409
     7  N   -0.651381
     8  C    0.748235
     9  F   -0.246420
    10  F   -0.266407
    11  C    0.436414
    12  F   -0.253692
    13  O   -0.512594
    14  C    0.996945
    15  F   -0.238660
    16  F   -0.245396
    17  F   -0.243134
    18  C    0.816456
    19  F   -0.253428
    20  F   -0.250862
    21  F   -0.233623
    22  C    0.847404
    23  O   -0.495145
    24  N   -0.647120
    25  C    0.762312
    26  F   -0.254898
    27  F   -0.254219
    28  C    0.435959
    29  F   -0.256240
    30  O   -0.504258
    31  C    0.995945
    32  F   -0.239257
    33  F   -0.242535
    34  F   -0.242781
    35  C    0.814048
    36  F   -0.246011
    37  F   -0.258914
    38  F   -0.243241
    39  C    0.840179
    40  O   -0.487279
    41  H    0.116903
    42  H    0.125557
    43  H    0.135485
    44  H    0.163152
    45  H    0.127105
    46  H    0.138683
    47  H    0.117724
 Sum of Mulliken charges =   0.00000
 Mulliken charges with hydrogens summed into heavy atoms:
               1
     1  C    0.059575
     2  C    0.206294
     3  C    0.050556
     4  N   -0.584865
     5  C    0.841446
     6  O   -0.499409
     7  N   -0.651381
     8  C    0.748235
     9  F   -0.246420
    10  F   -0.266407
    11  C    0.436414
    12  F   -0.253692
    13  O   -0.512594
    14  C    0.996945
    15  F   -0.238660
    16  F   -0.245396
    17  F   -0.243134
    18  C    0.816456
    19  F   -0.253428
    20  F   -0.250862
    21  F   -0.233623
    22  C    0.847404
    23  O   -0.495145
    24  N   -0.647120
    25  C    0.762312
    26  F   -0.254898
    27  F   -0.254219
    28  C    0.435959
    29  F   -0.256240
    30  O   -0.504258
    31  C    0.995945
    32  F   -0.239257
    33  F   -0.242535
    34  F   -0.242781
    35  C    0.814048
    36  F   -0.246011
    37  F   -0.258914
    38  F   -0.243241
    39  C    0.840179
    40  O   -0.487279
 Electronic spatial extent (au):  <R**2>=          20633.8178
 Charge=              0.0000 electrons
 Dipole moment (field-independent basis, Debye):
    X=             -0.6935    Y=              2.9663    Z=             -1.1371  Tot=              3.2516
 Quadrupole moment (field-independent basis, Debye-Ang):
   XX=           -219.5428   YY=           -210.4372   ZZ=           -220.2745
   XY=              2.9102   XZ=              7.5348   YZ=             -1.2288
 Traceless Quadrupole moment (field-independent basis, Debye-Ang):
   XX=             -2.7913   YY=              6.3143   ZZ=             -3.5230
   XY=              2.9102   XZ=              7.5348   YZ=             -1.2288
 Octapole moment (field-independent basis, Debye-Ang**2):
  XXX=            -97.0332  YYY=            357.0438  ZZZ=           -163.9609  XYY=            -43.4240
  XXY=             89.8052  XXZ=            -57.4780  XZZ=            -52.3756  YZZ=            117.6652
  YYZ=            -78.2199  XYZ=             11.8656
 Hexadecapole moment (field-independent basis, Debye-Ang**3):
 XXXX=         -13038.2378 YYYY=          -3931.5527 ZZZZ=          -4675.8597 XXXY=            770.2349
 XXXZ=           1978.3076 YYYX=            741.4137 YYYZ=            468.3713 ZZZX=           2026.4906
 ZZZY=            520.3662 XXYY=          -2873.1742 XXZZ=          -2996.6752 YYZZ=          -1425.6247
 XXYZ=            180.0328 YYXZ=            686.4620 ZZXY=            235.7524
 N-N= 6.088010190534D+03 E-N=-1.896748517790D+04  KE= 2.853281912130D+03
 No NMR shielding tensors so no spin-rotation constants.
 Leave Link  601 at Sun Mar  3 17:53:03 2024, MaxMem=  5368709120 cpu:         4.5
 (Enter /home/k0335/k033513/app/g09/l9999.exe)
 1\1\GINC-C18U04N4\SP\RCAM-B3LYP\6-31G(d,p)\C14H7F18N3O5\K033513\03-Mar
 -2024\0\\#p CAM-B3LYP/6-31G(d,p) SCRF=(PCM,Solvent=Generic,Read) NoSym
 m out=wfn\\Title A1320413502_0\\0,1\C,0,-1.724151,2.541592,-2.62066\C,
 0,-0.552061,2.796488,-1.669659\C,0,-0.777169,4.054762,-0.82528\N,0,-0.
 232059,1.600429,-0.858729\C,0,0.761428,0.756889,-1.324505\O,0,1.474866
 ,1.05615,-2.279191\N,0,0.899847,-0.440934,-0.666751\C,0,1.877882,-1.38
 5965,-1.190736\F,0,1.58568,-2.653024,-0.768803\F,0,1.659144,-1.476084,
 -2.54561\C,0,3.392251,-1.117355,-0.965659\F,0,3.71467,0.121593,-1.4387
 77\O,0,4.117653,-2.055699,-1.779916\C,0,5.503077,-2.028128,-1.567481\F
 ,0,6.110757,-2.610394,-2.617583\F,0,5.789273,-2.734741,-0.461155\F,0,5
 .958589,-0.772304,-1.442899\C,0,3.670277,-1.16555,0.537635\F,0,4.96170
 7,-0.872379,0.820377\F,0,2.933888,-0.244496,1.20478\F,0,3.416311,-2.37
 6137,1.070675\C,0,0.334762,-0.671442,0.560806\O,0,0.635382,-1.655173,1
 .230653\N,0,-0.573127,0.251273,1.006454\C,0,-1.328277,-0.067399,2.2120
 22\F,0,-1.845124,1.08675,2.725049\F,0,-0.45015,-0.470826,3.174373\C,0,
 -2.45226,-1.120281,2.031272\F,0,-1.889548,-2.319294,1.698343\O,0,-3.26
 6861,-0.766603,0.908323\C,0,-4.447355,-1.519193,0.819227\F,0,-4.958592
 ,-1.363931,-0.415927\F,0,-4.205127,-2.822435,1.02546\F,0,-5.335507,-1.
 062911,1.715948\C,0,-3.136863,-1.224204,3.401448\F,0,-3.798601,-0.0895
 89,3.72149\F,0,-4.050354,-2.224956,3.425317\F,0,-2.270481,-1.48319,4.4
 04597\C,0,-1.070648,1.221126,0.173225\O,0,-2.191565,1.700359,0.324644\
 H,0,-1.533043,1.661744,-3.244456\H,0,-1.87517,3.399419,-3.284564\H,0,-
 2.661018,2.368701,-2.08247\H,0,0.316953,3.020363,-2.300339\H,0,-0.8317
 06,4.939495,-1.46914\H,0,-1.706693,4.016583,-0.25047\H,0,0.049115,4.20
 0898,-0.121358\\Version=ES64L-G09RevD.01\HF=-2874.3992078\RMSD=7.168e-
 09\Dipole=-0.2728472,1.1670497,-0.4473697\Quadrupole=-2.0752774,4.6945
 483,-2.6192708,2.163661,5.6019071,-0.9136083\PG=C01 [X(C14H7F18N3O5)]\
 \@

 Writing a WFN file to "A1320413502/A1320413502_0.wfn"


 THE WORLD OF CHEMICAL REACTIONS IS LIKE A STAGE,
 ON WHICH SCENE AFTER SCENE IS CEASELESSLY PLAYED.
 THE ACTORS ON IT ARE THE ELEMENTS.
   -- CLEMENS WINKLER   BER. 30,13(1897)
 (DISCOVERER OF GERMANIUM, FEB 6, 1886)
 Job cpu time:       0 days  0 hours 23 minutes 15.5 seconds.
 File lengths (MBytes):  RWF=    444 Int=      0 D2E=      0 Chk=     16 Scr=      1
 Normal termination of Gaussian 09 at Sun Mar  3 17:53:03 2024.
