 Entering Gaussian System, Link 0=g09
 Initial command:
 /home/k0335/k033513/app/g09/l1.exe "/home/k0335/k033513/app/g09/scratch/Gau-293658.inp" -scrdir="/home/k0335/k033513/app/g09/scratch/"
 Default is to use a total of  36 processors:
                               36 via shared-memory
                                1 via Linda
 Entering Link 1 = /home/k0335/k033513/app/g09/l1.exe PID=    293659.
  
 Copyright (c) 1988,1990,1992,1993,1995,1998,2003,2009,2013,
            Gaussian, Inc.  All Rights Reserved.
  
 This is part of the Gaussian(R) 09 program.  It is based on
 the Gaussian(R) 03 system (copyright 2003, Gaussian, Inc.),
 the Gaussian(R) 98 system (copyright 1998, Gaussian, Inc.),
 the Gaussian(R) 94 system (copyright 1995, Gaussian, Inc.),
 the Gaussian 92(TM) system (copyright 1992, Gaussian, Inc.),
 the Gaussian 90(TM) system (copyright 1990, Gaussian, Inc.),
 the Gaussian 88(TM) system (copyright 1988, Gaussian, Inc.),
 the Gaussian 86(TM) system (copyright 1986, Carnegie Mellon
 University), and the Gaussian 82(TM) system (copyright 1983,
 Carnegie Mellon University). Gaussian is a federally registered
 trademark of Gaussian, Inc.
  
 This software contains proprietary and confidential information,
 including trade secrets, belonging to Gaussian, Inc.
  
 This software is provided under written license and may be
 used, copied, transmitted, or stored only in accord with that
 written license.
  
 The following legend is applicable only to US Government
 contracts under FAR:
  
                    RESTRICTED RIGHTS LEGEND
  
 Use, reproduction and disclosure by the US Government is
 subject to restrictions as set forth in subparagraphs (a)
 and (c) of the Commercial Computer Software - Restricted
 Rights clause in FAR 52.227-19.
  
 Gaussian, Inc.
 340 Quinnipiac St., Bldg. 40, Wallingford CT 06492
  
  
 ---------------------------------------------------------------
 Warning -- This program may not be used in any manner that
 competes with the business of Gaussian, Inc. or will provide
 assistance to any competitor of Gaussian, Inc.  The licensee
 of this program is prohibited from giving any competitor of
 Gaussian, Inc. access to this program.  By using this program,
 the user acknowledges that Gaussian, Inc. is engaged in the
 business of creating and licensing software in the field of
 computational chemistry and represents and warrants to the
 licensee that it is not a competitor of Gaussian, Inc. and that
 it will not use this program in any manner prohibited above.
 ---------------------------------------------------------------
  

 Cite this work as:
 Gaussian 09, Revision D.01,
 M. J. Frisch, G. W. Trucks, H. B. Schlegel, G. E. Scuseria, 
 M. A. Robb, J. R. Cheeseman, G. Scalmani, V. Barone, B. Mennucci, 
 G. A. Petersson, H. Nakatsuji, M. Caricato, X. Li, H. P. Hratchian, 
 A. F. Izmaylov, J. Bloino, G. Zheng, J. L. Sonnenberg, M. Hada, 
 M. Ehara, K. Toyota, R. Fukuda, J. Hasegawa, M. Ishida, T. Nakajima, 
 Y. Honda, O. Kitao, H. Nakai, T. Vreven, J. A. Montgomery, Jr., 
 J. E. Peralta, F. Ogliaro, M. Bearpark, J. J. Heyd, E. Brothers, 
 K. N. Kudin, V. N. Staroverov, T. Keith, R. Kobayashi, J. Normand, 
 K. Raghavachari, A. Rendell, J. C. Burant, S. S. Iyengar, J. Tomasi, 
 M. Cossi, N. Rega, J. M. Millam, M. Klene, J. E. Knox, J. B. Cross, 
 V. Bakken, C. Adamo, J. Jaramillo, R. Gomperts, R. E. Stratmann, 
 O. Yazyev, A. J. Austin, R. Cammi, C. Pomelli, J. W. Ochterski, 
 R. L. Martin, K. Morokuma, V. G. Zakrzewski, G. A. Voth, 
 P. Salvador, J. J. Dannenberg, S. Dapprich, A. D. Daniels, 
 O. Farkas, J. B. Foresman, J. V. Ortiz, J. Cioslowski, 
 and D. J. Fox, Gaussian, Inc., Wallingford CT, 2013.
 
 ******************************************
 Gaussian 09:  ES64L-G09RevD.01 24-Apr-2013
                 5-Mar-2024 
 ******************************************
 %nprocshared=24
 Will use up to   24 processors via shared memory.
 %mem=40GB
 %rwf=A126125640/A126125640_p1.rwf
 %nosave
 %chk=A126125640/A126125640_p1.chk
 ----------------------------------------------------------------------
 #p CAM-B3LYP/6-31G(d,p) SCRF=(PCM,Solvent=Generic,Read) NoSymm out=wfn
 ----------------------------------------------------------------------
 1/38=1,40=2/1;
 2/12=2,15=1,17=6,18=5,40=1/2;
 3/5=1,6=6,7=101,11=2,16=1,25=1,30=1,70=2203,72=-2,74=-40/1,2,3;
 4//1;
 5/5=2,38=5/2;
 6/7=2,8=2,9=2,10=2,28=1/1;
 99/5=1,6=100,9=1/99;
 Leave Link    1 at Tue Mar  5 12:15:54 2024, MaxMem=  5368709120 cpu:         2.6
 (Enter /home/k0335/k033513/app/g09/l101.exe)
 -------------------
 Title A126125640_p1
 -------------------
 Symbolic Z-matrix:
 Charge =  1 Multiplicity = 2
 C                    -0.94226   4.43955  -0.70804 
 C                     0.37286   4.14853  -0.00078 
 C                     0.28684   2.98511   0.99395 
 N                     0.05927   1.68976   0.34928 
 C                    -1.23116   1.21913   0.23196 
 O                    -2.16661   1.72449   0.8469 
 N                    -1.38945   0.15501  -0.61817 
 C                    -2.7506   -0.29976  -0.88067 
 F                    -2.79935  -0.86193  -2.11829 
 F                    -3.54967   0.79767  -1.01724 
 C                    -3.33282  -1.26099   0.19014 
 F                    -3.25705  -0.63088   1.41282 
 O                    -2.5465   -2.43895   0.41288 
 C                    -2.84932  -3.52422  -0.43305 
 F                    -1.87321  -4.4421   -0.32369 
 F                    -2.95385  -3.13494  -1.70811 
 F                    -4.00635  -4.08162  -0.04053 
 C                    -4.82399  -1.44485  -0.12181 
 F                    -5.40972  -2.25026   0.79922 
 F                    -5.04252  -2.0046   -1.32979 
 F                    -5.50838  -0.27964  -0.09564 
 C                    -0.35391  -0.70607  -0.87935 
 O                    -0.56552  -1.7947   -1.4092 
 N                     0.90998  -0.29785  -0.51117 
 C                     2.00714  -1.18624  -0.90288 
 F                     2.07797  -1.19034  -2.26285 
 F                     1.63258  -2.45169  -0.53811 
 C                     3.42782  -0.97436  -0.31526 
 F                     4.02124   0.09641  -0.91937 
 O                     3.31141  -0.68191   1.08647 
 C                     4.55876  -0.60625   1.7291 
 F                     4.98647  -1.85162   1.99499 
 F                     5.46648   0.0441    0.98794 
 F                     4.39372   0.04705   2.89453 
 C                     4.22548  -2.23631  -0.67912 
 F                     3.80225  -3.3201    0.01038 
 F                     4.16099  -2.53614  -1.99413 
 F                     5.54075  -2.08693  -0.38523 
 C                     1.14327   1.00394  -0.15898 
 O                     2.23802   1.54464  -0.27275 
 H                    -1.74598   4.61895   0.01291 
 H                    -0.84267   5.33319  -1.33253 
 H                    -1.23724   3.61185  -1.35975 
 H                     0.67808   5.04848   0.54627 
 H                     1.1469    3.95493  -0.75179 
 H                     1.23068   2.92884   1.55027 
 H                    -0.50087   3.18364   1.72943 
 
 NAtoms=     47 NQM=       47 NQMF=       0 NMMI=      0 NMMIF=      0
                NMic=       0 NMicF=      0.
                    Isotopes and Nuclear Properties:
 (Nuclear quadrupole moments (NQMom) in fm**2, nuclear magnetic moments (NMagM)
  in nuclear magnetons)

  Atom         1           2           3           4           5           6           7           8           9          10
 IAtWgt=          12          12          12          14          12          16          14          12          19          19
 AtmWgt=  12.0000000  12.0000000  12.0000000  14.0030740  12.0000000  15.9949146  14.0030740  12.0000000  18.9984033  18.9984033
 NucSpn=           0           0           0           2           0           0           2           0           1           1
 AtZEff=   0.0000000   0.0000000   0.0000000   0.0000000   0.0000000   0.0000000   0.0000000   0.0000000   0.0000000   0.0000000
 NQMom=    0.0000000   0.0000000   0.0000000   2.0440000   0.0000000   0.0000000   2.0440000   0.0000000   0.0000000   0.0000000
 NMagM=    0.0000000   0.0000000   0.0000000   0.4037610   0.0000000   0.0000000   0.4037610   0.0000000   2.6288670   2.6288670
 AtZNuc=   6.0000000   6.0000000   6.0000000   7.0000000   6.0000000   8.0000000   7.0000000   6.0000000   9.0000000   9.0000000

  Atom        11          12          13          14          15          16          17          18          19          20
 IAtWgt=          12          19          16          12          19          19          19          12          19          19
 AtmWgt=  12.0000000  18.9984033  15.9949146  12.0000000  18.9984033  18.9984033  18.9984033  12.0000000  18.9984033  18.9984033
 NucSpn=           0           1           0           0           1           1           1           0           1           1
 AtZEff=   0.0000000   0.0000000   0.0000000   0.0000000   0.0000000   0.0000000   0.0000000   0.0000000   0.0000000   0.0000000
 NQMom=    0.0000000   0.0000000   0.0000000   0.0000000   0.0000000   0.0000000   0.0000000   0.0000000   0.0000000   0.0000000
 NMagM=    0.0000000   2.6288670   0.0000000   0.0000000   2.6288670   2.6288670   2.6288670   0.0000000   2.6288670   2.6288670
 AtZNuc=   6.0000000   9.0000000   8.0000000   6.0000000   9.0000000   9.0000000   9.0000000   6.0000000   9.0000000   9.0000000

  Atom        21          22          23          24          25          26          27          28          29          30
 IAtWgt=          19          12          16          14          12          19          19          12          19          16
 AtmWgt=  18.9984033  12.0000000  15.9949146  14.0030740  12.0000000  18.9984033  18.9984033  12.0000000  18.9984033  15.9949146
 NucSpn=           1           0           0           2           0           1           1           0           1           0
 AtZEff=   0.0000000   0.0000000   0.0000000   0.0000000   0.0000000   0.0000000   0.0000000   0.0000000   0.0000000   0.0000000
 NQMom=    0.0000000   0.0000000   0.0000000   2.0440000   0.0000000   0.0000000   0.0000000   0.0000000   0.0000000   0.0000000
 NMagM=    2.6288670   0.0000000   0.0000000   0.4037610   0.0000000   2.6288670   2.6288670   0.0000000   2.6288670   0.0000000
 AtZNuc=   9.0000000   6.0000000   8.0000000   7.0000000   6.0000000   9.0000000   9.0000000   6.0000000   9.0000000   8.0000000

  Atom        31          32          33          34          35          36          37          38          39          40
 IAtWgt=          12          19          19          19          12          19          19          19          12          16
 AtmWgt=  12.0000000  18.9984033  18.9984033  18.9984033  12.0000000  18.9984033  18.9984033  18.9984033  12.0000000  15.9949146
 NucSpn=           0           1           1           1           0           1           1           1           0           0
 AtZEff=   0.0000000   0.0000000   0.0000000   0.0000000   0.0000000   0.0000000   0.0000000   0.0000000   0.0000000   0.0000000
 NQMom=    0.0000000   0.0000000   0.0000000   0.0000000   0.0000000   0.0000000   0.0000000   0.0000000   0.0000000   0.0000000
 NMagM=    0.0000000   2.6288670   2.6288670   2.6288670   0.0000000   2.6288670   2.6288670   2.6288670   0.0000000   0.0000000
 AtZNuc=   6.0000000   9.0000000   9.0000000   9.0000000   6.0000000   9.0000000   9.0000000   9.0000000   6.0000000   8.0000000

  Atom        41          42          43          44          45          46          47
 IAtWgt=           1           1           1           1           1           1           1
 AtmWgt=   1.0078250   1.0078250   1.0078250   1.0078250   1.0078250   1.0078250   1.0078250
 NucSpn=           1           1           1           1           1           1           1
 AtZEff=   0.0000000   0.0000000   0.0000000   0.0000000   0.0000000   0.0000000   0.0000000
 NQMom=    0.0000000   0.0000000   0.0000000   0.0000000   0.0000000   0.0000000   0.0000000
 NMagM=    2.7928460   2.7928460   2.7928460   2.7928460   2.7928460   2.7928460   2.7928460
 AtZNuc=   1.0000000   1.0000000   1.0000000   1.0000000   1.0000000   1.0000000   1.0000000
 Leave Link  101 at Tue Mar  5 12:15:54 2024, MaxMem=  5368709120 cpu:         0.8
 (Enter /home/k0335/k033513/app/g09/l202.exe)
                          Input orientation:                          
 ---------------------------------------------------------------------
 Center     Atomic      Atomic             Coordinates (Angstroms)
 Number     Number       Type             X           Y           Z
 ---------------------------------------------------------------------
      1          6           0       -0.942257    4.439551   -0.708036
      2          6           0        0.372864    4.148532   -0.000780
      3          6           0        0.286844    2.985108    0.993946
      4          7           0        0.059274    1.689755    0.349282
      5          6           0       -1.231161    1.219129    0.231963
      6          8           0       -2.166608    1.724491    0.846901
      7          7           0       -1.389447    0.155007   -0.618170
      8          6           0       -2.750595   -0.299761   -0.880671
      9          9           0       -2.799349   -0.861927   -2.118292
     10          9           0       -3.549673    0.797667   -1.017240
     11          6           0       -3.332816   -1.260993    0.190140
     12          9           0       -3.257049   -0.630879    1.412819
     13          8           0       -2.546496   -2.438955    0.412878
     14          6           0       -2.849318   -3.524222   -0.433054
     15          9           0       -1.873207   -4.442100   -0.323688
     16          9           0       -2.953846   -3.134944   -1.708109
     17          9           0       -4.006349   -4.081617   -0.040531
     18          6           0       -4.823994   -1.444848   -0.121808
     19          9           0       -5.409719   -2.250261    0.799215
     20          9           0       -5.042517   -2.004604   -1.329786
     21          9           0       -5.508377   -0.279637   -0.095636
     22          6           0       -0.353907   -0.706069   -0.879345
     23          8           0       -0.565524   -1.794697   -1.409196
     24          7           0        0.909983   -0.297854   -0.511169
     25          6           0        2.007140   -1.186237   -0.902878
     26          9           0        2.077971   -1.190344   -2.262848
     27          9           0        1.632576   -2.451694   -0.538107
     28          6           0        3.427815   -0.974360   -0.315257
     29          9           0        4.021243    0.096411   -0.919366
     30          8           0        3.311406   -0.681910    1.086472
     31          6           0        4.558764   -0.606254    1.729098
     32          9           0        4.986466   -1.851618    1.994989
     33          9           0        5.466484    0.044100    0.987943
     34          9           0        4.393718    0.047045    2.894530
     35          6           0        4.225483   -2.236310   -0.679117
     36          9           0        3.802251   -3.320098    0.010376
     37          9           0        4.160986   -2.536135   -1.994128
     38          9           0        5.540746   -2.086934   -0.385229
     39          6           0        1.143268    1.003939   -0.158975
     40          8           0        2.238019    1.544637   -0.272751
     41          1           0       -1.745979    4.618954    0.012910
     42          1           0       -0.842667    5.333190   -1.332532
     43          1           0       -1.237238    3.611849   -1.359746
     44          1           0        0.678082    5.048484    0.546267
     45          1           0        1.146904    3.954934   -0.751791
     46          1           0        1.230676    2.928839    1.550274
     47          1           0       -0.500870    3.183639    1.729432
 ---------------------------------------------------------------------
                    Distance matrix (angstroms):
                    1          2          3          4          5
     1  C    0.000000
     2  C    1.521330   0.000000
     3  C    2.553984   1.533113   0.000000
     4  N    3.111650   2.503291   1.464691   0.000000
     5  C    3.367222   3.347905   2.450232   1.378577   0.000000
     6  O    3.359824   3.611572   2.762282   2.281092   1.228251
     7  N    4.308755   4.408532   3.663105   2.321682   1.371181
     8  C    5.075526   5.506134   4.850834   3.655998   2.419434
     9  F    5.791656   6.296943   5.831834   4.557601   3.509089
    10  F    4.489715   5.258116   4.852693   3.960770   2.667140
    11  C    6.246415   6.559838   5.637146   4.498724   3.251109
    12  F    5.963686   6.165817   5.080354   4.185027   2.986833
    13  O    7.151495   7.217254   6.147025   4.882656   3.891583
    14  C    8.193545   8.333095   7.365000   6.021421   5.055696
    15  F    8.938575   8.885272   7.846362   6.464288   5.724551
    16  F    7.900608   8.187246   7.433587   6.048923   5.068479
    17  F    9.079897   9.322791   8.333082   7.070359   5.989477
    18  C    7.073733   7.635960   6.854931   5.821853   4.486689
    19  F    8.184351   8.661571   7.739369   6.755446   5.460658
    20  F    7.663279   8.303836   7.661530   6.518883   5.230483
    21  F    6.595091   7.362518   6.740203   5.922431   4.544029
    22  C    5.181979   4.986705   4.188624   2.724007   2.389763
    23  O    6.284855   6.179497   5.417394   3.952724   3.495658
    24  N    5.090438   4.507698   3.664903   2.326945   2.727266
    25  C    6.355029   5.651938   4.894638   3.692346   4.190494
    26  F    6.575328   6.043835   5.590102   4.381019   4.793746
    27  F    7.358526   6.740814   5.806634   4.518223   4.718998
    28  C    6.968661   5.972909   5.220833   4.345824   5.178504
    29  F    6.598777   5.529390   5.094219   4.454819   5.493069
    30  O    6.895163   5.757631   4.754320   4.092017   4.997905
    31  C    7.852452   6.566752   5.629177   5.236503   6.252733
    32  F    9.057312   7.827529   6.817804   6.287042   7.155182
    33  F    7.954137   6.615807   5.956361   5.688057   6.841831
    34  F    7.793922   6.432129   5.395447   5.288118   6.332638
    35  C    8.442363   7.487925   6.750942   5.816261   6.522660
    36  F    9.123520   8.218349   7.285679   6.262856   6.781513
    37  F    8.738267   7.937763   7.377106   6.338277   6.937776
    38  F    9.204811   8.107764   7.431771   6.696971   7.561065
    39  C    4.056392   3.241452   2.446982   1.379751   2.415999
    40  O    4.322517   3.214505   2.736158   2.270444   3.520781
    41  H    1.094494   2.170479   2.786441   3.457209   3.445552
    42  H    1.094762   2.157428   3.493105   4.112981   4.418605
    43  H    1.093997   2.174223   2.873238   2.880306   2.873793
    44  H    2.137656   1.096509   2.147325   3.420934   4.290449
    45  H    2.145079   1.095735   2.174365   2.743417   3.756008
    46  H    3.479059   2.151572   1.097035   2.085640   3.274400
    47  H    2.777299   2.165194   1.095832   2.109565   2.575857
                    6          7          8          9         10
     6  O    0.000000
     7  N    2.283351   0.000000
     8  C    2.724544   1.458919   0.000000
     9  F    3.985259   2.296159   1.360189   0.000000
    10  F    2.499379   2.288852   1.364377   2.128275   0.000000
    11  C    3.271772   2.536751   1.552284   2.402644   2.396430
    12  F    2.656519   2.868880   2.371968   3.568139   2.834001
    13  O    4.203210   3.021665   2.508202   2.992954   3.677951
    14  C    5.445490   3.962602   3.256878   3.151244   4.417069
    15  F    6.283566   4.631861   4.270716   4.110472   5.544972
    16  F    5.546344   3.802511   2.960444   2.314892   4.037046
    17  F    6.154923   5.013066   4.072492   4.017505   4.996992
    18  C    4.247918   3.821260   2.487183   2.902573   2.730305
    19  F    5.130175   4.894577   3.701001   4.153715   4.006138
    20  F    5.187964   4.302934   2.891557   2.638040   3.190453
    21  F    4.009030   4.174631   2.867411   3.430602   2.417945
    22  C    3.489045   1.371863   2.430885   2.745809   3.534566
    23  O    4.476397   2.259628   2.699761   2.522469   3.972295
    24  N    3.924238   2.346041   3.679180   4.081687   4.620044
    25  C    5.380914   3.662895   4.839667   4.968374   5.901451
    26  F    6.015252   4.066684   5.100843   4.890501   6.097057
    27  F    5.813137   3.991732   4.894931   4.966518   6.135440
    28  C    6.319175   4.957140   6.240795   6.483915   7.233132
    29  F    6.637759   5.419384   6.783527   6.991159   7.603953
    30  O    5.988055   5.069936   6.384634   6.902481   7.327289
    31  C    7.172257   6.439752   7.767339   8.307202   8.675259
    32  F    8.079179   7.176866   8.398797   8.861009   9.431750
    33  F    7.817141   7.042421   8.433881   8.876575   9.267131
    34  F    7.074213   6.767253   8.087869   8.814467   8.886104
    35  C    7.673037   6.103241   7.242687   7.301261   8.352987
    36  F    7.859703   6.278945   7.270226   7.359005   8.488979
    37  F    8.140198   6.320033   7.349225   7.159934   8.457116
    38  F    8.686104   7.287533   8.496222   8.605890   9.558037
    39  C    3.533590   2.710386   4.169250   4.781695   4.775234
    40  O    4.548264   3.899858   5.353283   5.879851   5.882993
    41  H    3.041445   4.522411   5.099166   5.974250   4.349340
    42  H    4.418762   5.255745   5.964437   6.544119   5.291338
    43  H    3.048793   3.538765   4.221428   4.798985   3.658454
    44  H    4.385382   5.438447   6.511198   7.356994   6.195798
    45  H    4.302331   4.570599   5.771442   6.375138   5.665389
    46  H    3.672428   4.388774   5.673083   6.638478   5.829731
    47  H    2.383832   3.933626   4.899793   6.037764   4.746817
                   11         12         13         14         15
    11  C    0.000000
    12  F    1.377581   0.000000
    13  O    1.433704   2.184927   0.000000
    14  C    2.396737   3.456143   1.408938   0.000000
    15  F    3.537502   4.410882   2.237954   1.344341   0.000000
    16  F    2.694190   4.012788   2.269123   1.337247   2.189306
    17  F    2.909085   3.818543   2.243900   1.342939   2.181839
    18  C    1.534512   2.339432   2.541876   2.884444   4.210869
    19  F    2.379737   2.762770   2.895325   3.114019   4.309523
    20  F    2.405454   3.549211   3.075006   2.814869   4.122881
    21  F    2.403704   2.732633   3.700538   4.208536   5.531055
    22  C    3.213353   3.699717   3.078990   3.790546   4.071235
    23  O    3.240466   4.069711   2.767539   3.026520   3.145966
    24  N    4.406905   4.601825   4.169583   4.954583   4.995605
    25  C    5.451184   5.777764   4.902664   5.410369   5.098352
    26  F    5.941276   6.502766   5.486733   5.750940   5.472300
    27  F    5.157832   5.570450   4.285928   4.609634   4.037104
    28  C    6.785552   6.913149   6.194159   6.776287   6.334519
    29  F    7.560141   7.677341   7.165065   7.781394   7.463073
    30  O    6.729371   6.576755   6.152719   6.952857   6.558033
    31  C    8.066853   7.822249   7.454928   8.250401   7.765172
    32  F    8.533274   8.353722   7.719686   8.372127   7.690382
    33  F    8.931262   8.759917   8.408574   9.159952   8.701576
    34  F    8.289995   7.822358   7.778519   8.734319   8.353664
    35  C    7.670380   7.933593   6.862450   7.195281   6.495064
    36  F    7.428419   7.683259   6.422228   6.669458   5.794938
    37  F    7.909114   8.382394   7.126951   7.249664   6.544811
    38  F    8.930472   9.096937   8.134149   8.512418   7.779286
    39  C    5.028631   4.950349   5.078867   6.043187   6.227808
    40  O    6.254601   6.145713   6.263440   7.183316   7.262630
    41  H    6.092884   5.639488   7.114414   8.229675   9.068196
    42  H    7.211284   6.995449   8.145902   9.126306   9.881097
    43  H    5.526136   5.455959   6.439610   7.374352   8.145181
    44  H    7.484893   6.963572   8.153370   9.321637   9.865956
    45  H    6.939814   6.716399   7.475257   8.485821   8.933897
    46  H    6.342721   5.729761   6.661375   7.888088   8.214412
    47  H    5.490364   4.716706   6.126293   7.428792   8.015641
                   16         17         18         19         20
    16  F    0.000000
    17  F    2.187411   0.000000
    18  C    2.978293   2.761829   0.000000
    19  F    3.619482   2.455297   1.356483   0.000000
    20  F    2.404858   2.655147   1.349181   2.174357   0.000000
    21  F    4.156739   4.088298   1.351585   2.166530   2.171558
    22  C    3.653213   5.043636   4.593619   5.546470   4.885914
    23  O    2.754940   4.352301   4.462547   5.343299   4.482615
    24  N    4.940741   6.221630   5.860520   6.742969   6.246230
    25  C    5.390477   6.729704   6.880504   7.683688   7.109827
    26  F    5.422950   7.093455   7.230902   8.158747   7.227377
    27  F    4.782364   5.890815   6.547850   7.170978   6.736729
    28  C    6.879953   8.062091   8.267474   8.998443   8.592857
    29  F    7.727589   9.092332   9.013867   9.869318   9.313133
    30  O    7.285633   8.147250   8.259948   8.865679   8.796354
    31  C    8.639906   9.411211   9.600273  10.145841  10.173335
    32  F    8.854853   9.486146  10.044472  10.472318  10.566836
    33  F    9.395583  10.383346  10.456694  11.117172  10.954823
    34  F    9.235585   9.809259   9.812760  10.284714  10.540239
    35  C    7.308155   8.460261   9.101101   9.747963   9.293701
    36  F    6.973688   7.845810   8.828711   9.307374   9.041929
    37  F    7.145713   8.538760   9.242638   9.974111   9.242745
    38  F    8.660625   9.759334  10.387950  11.015547  10.625649
    39  C    6.026318   7.238471   6.450283   7.378996   6.977540
    40  O    7.135418   8.408376   7.670191   8.604549   8.168270
    41  H    8.033915   8.989553   6.801619   7.824793   7.519409
    42  H    8.735412  10.015825   7.953529   9.105550   8.454701
    43  H    6.970460   8.282374   6.321985   7.512326   6.784216
    44  H    9.232638  10.278471   8.537126   9.507733   9.273127
    45  H    8.246033   9.573299   8.075032   9.159660   8.611568
    46  H    8.055852   8.894020   7.654020   8.454704   8.484489
    47  H    7.599886   8.258638   6.598438   7.381692   7.543423
                   21         22         23         24         25
    21  F    0.000000
    22  C    5.231119   0.000000
    23  O    5.334102   1.229079   0.000000
    24  N    6.431823   1.378264   2.285632   0.000000
    25  C    7.612921   2.409493   2.691687   1.465064   0.000000
    26  F    7.942221   2.839478   2.842891   2.286726   1.361819
    27  F    7.477086   2.666414   2.453994   2.271980   1.369211
    28  C    8.965846   3.832962   4.220949   2.614483   1.551937
    29  F    9.572544   4.448316   4.985444   3.162595   2.387900
    30  O    8.907737   4.159272   4.743126   2.909775   2.431660
    31  C   10.236389   5.563117   6.125326   4.292728   3.711396
    32  F   10.815894   6.172006   6.512780   5.031175   4.209127
    33  F   11.032974   6.158447   6.746300   4.808947   4.129890
    34  F   10.348879   6.111404   6.819689   4.884071   4.651564
    35  C    9.945705   4.832447   4.866393   3.844263   2.464502
    36  F    9.795072   4.989830   4.839369   4.215588   2.934249
    37  F   10.109037   4.997614   4.819935   4.216407   2.766244
    38  F   11.199701   6.074362   6.198423   4.965947   3.683149
    39  C    6.774656   2.384239   3.509328   1.368622   2.469117
    40  O    7.960276   3.485931   4.505831   2.283702   2.812123
    41  H    6.177671   5.575828   6.674637   5.612824   6.973149
    42  H    7.402877   6.075929   7.133685   5.954416   7.128038
    43  H    5.914750   4.433450   5.448338   4.540531   5.810021
    44  H    8.189822   6.017662   7.224923   5.454840   6.537443
    45  H    7.915485   4.898332   6.035134   4.266173   5.214832
    46  H    7.643178   4.650431   5.856329   3.842387   4.853319
    47  H    6.356121   4.685845   5.885490   4.373968   5.684627
                   26         27         28         29         30
    26  F    0.000000
    27  F    2.182685   0.000000
    28  C    2.379462   2.335607   0.000000
    29  F    2.690165   3.513393   1.365158   0.000000
    30  O    3.605248   2.930847   1.436636   2.265621   0.000000
    31  C    4.736151   4.136235   2.365150   2.792316   1.405202
    32  F    5.198635   4.245615   2.921680   3.635923   2.235944
    33  F    4.855256   4.822517   2.625217   2.393593   2.276216
    34  F    5.787259   5.064642   3.504136   3.832359   2.229764
    35  C    2.866018   2.605656   1.536615   2.353937   2.523688
    36  F    3.560413   2.400510   2.397650   3.547522   2.891184
    37  F    2.494457   2.918901   2.407341   2.846918   3.694595
    38  F    4.039819   3.928131   2.388974   2.713151   3.018270
    39  C    3.180382   3.510636   3.026094   3.112000   3.015634
    40  O    3.386181   4.050634   2.786174   2.386495   2.820844
    41  H    7.317760   7.855719   7.626336   7.388057   7.404650
    42  H    7.207781   8.207457   7.684859   7.159063   7.699957
    43  H    5.904851   6.758511   6.624726   6.340651   6.716436
    44  H    6.983824   7.638036   6.676669   6.152059   6.329584
    45  H    5.442799   6.428563   5.448950   4.814365   5.437334
    46  H    5.676749   5.785585   4.852070   4.680709   4.193096
    47  H    6.459137   6.438191   6.074889   6.082484   5.467112
                   31         32         33         34         35
    31  C    0.000000
    32  F    1.343339   0.000000
    33  F    1.340234   2.199615   0.000000
    34  F    1.346206   2.182990   2.187672   0.000000
    35  C    2.927056   2.806764   3.085359   4.244168   0.000000
    36  F    3.300192   2.738154   3.878548   4.472788   1.352450
    37  F    4.212491   4.130743   4.153876   5.534073   1.350300
    38  F    2.761717   2.455206   2.536222   4.077543   1.355950
    39  C    4.221748   5.250137   4.574594   4.561246   4.502201
    40  O    3.744274   4.922515   3.776764   4.113574   4.290770
    41  H    8.366474   9.545824   8.596488   8.179362   9.117670
    42  H    8.592208   9.832225   8.553623   8.557518   9.132931
    43  H    7.805574   8.935223   7.948608   7.906602   8.031534
    44  H    6.959515   8.262710   6.940298   6.658429   8.194745
    45  H    6.212893   7.483521   6.081124   6.253723   6.914798
    46  H    4.858501   6.095613   5.155580   4.485153   6.373211
    47  H    6.321644   7.452194   6.783497   5.928968   7.583889
                   36         37         38         39         40
    36  F    0.000000
    37  F    2.182046   0.000000
    38  F    2.167847   2.166581   0.000000
    39  C    5.078993   5.000653   5.379823   0.000000
    40  O    5.117874   4.828420   4.910088   1.226287   0.000000
    41  H    9.685629   9.492931   9.910793   4.630942   5.040364
    42  H    9.912520   9.348825   9.833798   4.905465   4.996688
    43  H    8.679031   8.206154   8.908809   3.729592   4.187163
    44  H    8.948786   8.724143   8.684894   4.131841   3.921879
    45  H    7.781893   7.263750   7.479598   3.009953   2.688781
    46  H    6.930620   7.142510   6.890635   2.575735   2.500835
    47  H    7.985650   8.265205   8.291674   3.319693   3.767835
                   41         42         43         44         45
    41  H    0.000000
    42  H    1.770966   0.000000
    43  H    1.776869   1.766194   0.000000
    44  H    2.518936   2.433849   3.060271   0.000000
    45  H    3.065039   2.489024   2.484240   1.760852   0.000000
    46  H    3.752393   4.288383   3.876251   2.409623   2.521783
    47  H    2.560639   3.756730   3.204469   2.503488   3.076771
                   46         47
    46  H    0.000000
    47  H    1.759339   0.000000
 Symmetry turned off by external request.
 Stoichiometry    C14H7F18N3O5(1+,2)
 Framework group  C1[X(C14H7F18N3O5)]
 Deg. of freedom   135
 Full point group                 C1      NOp   1
 Rotational constants (GHZ):      0.1512304      0.0601053      0.0496244
 Leave Link  202 at Tue Mar  5 12:15:54 2024, MaxMem=  5368709120 cpu:         0.1
 (Enter /home/k0335/k033513/app/g09/l301.exe)
 Standard basis: 6-31G(d,p) (6D, 7F)
 Ernie: Thresh=  0.10000D-02 Tol=  0.10000D-05 Strict=F.
   635 basis functions,  1169 primitive gaussians,   635 cartesian basis functions
   157 alpha electrons      156 beta electrons
       nuclear repulsion energy      6092.9255992945 Hartrees.
 IExCor=20419 DFT=T Ex+Corr=CAM-B3LYP ExCW=0 ScaHFX=  1.000000
 ScaDFX=  1.000000  1.000000  1.000000  0.810000 ScalE2=  1.000000  1.000000
 IRadAn=      0 IRanWt=     -1 IRanGd=            0 ICorTp=0 IEmpDi=  4
  HFx wShort=  0.000000 wLong=  0.330000 cFull=  0.190000 cShort=  0.000000 cLong=  0.460000
  DFx wShort=  0.000000 wLong=  0.330000 cFull=  0.190000 cShort=  0.000000 cLong=  0.460000
 NAtoms=   47 NActive=   47 NUniq=   47 SFac= 1.00D+00 NAtFMM=   60 NAOKFM=F Big=F
 Integral buffers will be    131072 words long.
 Raffenetti 2 integral format.
 Two-electron integral symmetry is turned off.
 Using the following non-standard input for PCM:
 eps=2.05
 --- end of non-standard input.
 ------------------------------------------------------------------------------
 Polarizable Continuum Model (PCM)
 =================================
 Model                : PCM (using non-symmetric T matrix).
 Atomic radii         : UFF (Universal Force Field).
 Polarization charges : Total charges.
 Charge compensation  : None.
 Solution method      : On-the-fly selection.
 Cavity type          : Scaled VdW (van der Waals Surface) (Alpha=1.100).
 Cavity algorithm     : GePol (No added spheres)
                        Default sphere list used, NSphG=   47.
                        Lebedev-Laikov grids with approx.  5.0 points / Ang**2.
                        Smoothing algorithm: Karplus/York (Gamma=1.0000).
                        Polarization charges: spherical gaussians, with
                                              point-specific exponents (IZeta= 3).
                        Self-potential: point-specific (ISelfS= 7).
                        Self-field    : sphere-specific E.n sum rule (ISelfD= 2).
 Solvent              : Generic,
                        Eps                           =   2.050000
                        Eps(infinity)                 =   0.000000
                        RSolv                         =   0.000000 Ang.
                        Molar volume                  =   0.000000 cm**3/mol
                        Thermal expansion coefficient =   0.000000 K**-1
                        Absolute temperature          = 298.150000 K
                        Numeral density               =   0.000000 Ang**-3
                        Hydrogen bond acidity         =   0.000000
                        Hydrogen bond basicity        =   0.000000
                        Surface tension at interface  =   0.000000 (cal/mol)*Ang**-2
                        Carbon aromaticity            =   0.000000
                        Electronegative halogenicity  =   0.000000
 ------------------------------------------------------------------------------
 GePol: Number of generator spheres                  =      47
 GePol: Total number of spheres                      =      47
 GePol: Number of exposed spheres                    =      47 (100.00%)
 GePol: Number of points                             =    3733
 GePol: Average weight of points                     =       0.13
 GePol: Minimum weight of points                     =   0.33D-11
 GePol: Maximum weight of points                     =    0.20577
 GePol: Number of points with low weight             =     164
 GePol: Fraction of low-weight points (<1% of avg)   =       4.39%
 GePol: Cavity surface area                          =    466.874 Ang**2
 GePol: Cavity volume                                =    547.936 Ang**3
 Leave Link  301 at Tue Mar  5 12:15:54 2024, MaxMem=  5368709120 cpu:         0.8
 (Enter /home/k0335/k033513/app/g09/l302.exe)
 NPDir=0 NMtPBC=     1 NCelOv=     1 NCel=       1 NClECP=     1 NCelD=      1
         NCelK=      1 NCelE2=     1 NClLst=     1 CellRange=     0.0.
 One-electron integrals computed using PRISM.
 NBasis=   635 RedAO= T EigKep=  1.18D-03  NBF=   635
 NBsUse=   635 1.00D-06 EigRej= -1.00D+00 NBFU=   635
 Precomputing XC quadrature grid using
 IXCGrd= 4 IRadAn=           0 IRanWt=          -1 IRanGd=           0 AccXCQ= 0.00D+00.
 Generated NRdTot=       0 NPtTot=           0 NUsed=           0 NTot=          32
 NSgBfM=   620   620   620   620   620 MxSgAt=    47 MxSgA2=    47.
 Leave Link  302 at Tue Mar  5 12:15:54 2024, MaxMem=  5368709120 cpu:        13.0
 (Enter /home/k0335/k033513/app/g09/l303.exe)
 DipDrv:  MaxL=1.
 Leave Link  303 at Tue Mar  5 12:15:55 2024, MaxMem=  5368709120 cpu:         1.0
 (Enter /home/k0335/k033513/app/g09/l401.exe)
 ExpMin= 1.61D-01 ExpMax= 7.00D+03 ExpMxC= 1.05D+03 IAcc=1 IRadAn=         1 AccDes= 0.00D+00
 Harris functional with IExCor=20419 and IRadAn=       1 diagonalized for initial guess.
 HarFok:  IExCor=20419 AccDes= 0.00D+00 IRadAn=         1 IDoV= 1 UseB2=F ITyADJ=14
 ICtDFT=  3500011 ScaDFX=  1.000000  1.000000  1.000000  1.000000
 FoFCou: FMM=F IPFlag=           0 FMFlag=      100000 FMFlg1=           0
         NFxFlg=           0 DoJE=T BraDBF=F KetDBF=T FulRan=T
         wScrn=  0.000000 ICntrl=     500 IOpCl=  0 I1Cent=   200000004 NGrid=           0
         NMat0=    1 NMatS0=      1 NMatT0=    0 NMatD0=    1 NMtDS0=    0 NMtDT0=    0
 Symmetry not used in FoFCou.
 Harris En= -2787.61375322538    
 JPrj=0 DoOrth=F DoCkMO=F.
 Initial guess <Sx>= 0.0000 <Sy>= 0.0000 <Sz>= 0.5000 <S**2>= 0.7500 S= 0.5000
 Leave Link  401 at Tue Mar  5 12:15:55 2024, MaxMem=  5368709120 cpu:        17.6
 (Enter /home/k0335/k033513/app/g09/l502.exe)
 UHF open shell SCF:
 Using DIIS extrapolation, IDIIS=  1040.
 Two-electron integral symmetry not used.
 IVT=     1247369 IEndB=     1247369 NGot=  5368709120 MDV=  5367882252
 LenX=  5367882252 LenY=  5367478392
 Requested convergence on RMS density matrix=1.00D-08 within 128 cycles.
 Requested convergence on MAX density matrix=1.00D-06.
 Requested convergence on             energy=1.00D-06.
 No special actions if energy rises.
 Fock matrices will be formed incrementally for  20 cycles.

 Cycle   1  Pass 1  IDiag  1:
 FoFJK:  IHMeth= 1 ICntrl=       0 DoSepK=T KAlg= 0 I1Cent=   0 FoldK=F
 IRaf=         1 NMat=   1 IRICut=       1 DoRegI=T DoRafI=F ISym2E= 0.
 FoFCou: FMM=F IPFlag=           0 FMFlag=      100000 FMFlg1=           0
         NFxFlg=           0 DoJE=T BraDBF=F KetDBF=F FulRan=T
         wScrn=  0.000000 ICntrl=     500 IOpCl=  0 I1Cent=           0 NGrid=           0
         NMat0=    1 NMatS0=      1 NMatT0=    0 NMatD0=    1 NMtDS0=    0 NMtDT0=    0
 Symmetry not used in FoFCou.
 Inv3:  Mode=1 IEnd=    41805867.
 Iteration    1 A*A^-1 deviation from unit magnitude is 6.33D-15 for   3694.
 Iteration    1 A*A^-1 deviation from orthogonality  is 6.81D-15 for   3694    168.
 Iteration    1 A^-1*A deviation from unit magnitude is 6.99D-15 for   3694.
 Iteration    1 A^-1*A deviation from orthogonality  is 7.21D-15 for   1004   1003.
 E= -2872.90256936430    
 DIIS: error= 5.24D-02 at cycle   1 NSaved=   1.
 NSaved= 1 IEnMin= 1 EnMin= -2872.90256936430     IErMin= 1 ErrMin= 5.24D-02
 ErrMax= 5.24D-02  0.00D+00 EMaxC= 1.00D-01 BMatC= 1.02D+01 BMatP= 1.02D+01
 IDIUse=3 WtCom= 4.76D-01 WtEn= 5.24D-01
 Coeff-Com:  0.100D+01
 Coeff-En:   0.100D+01
 Coeff:      0.100D+01
 Gap=     0.547 Goal=   None    Shift=    0.000
 Gap=     0.000 Goal=   None    Shift=    0.000
 GapD=    0.000 DampG=0.250 DampE=0.500 DampFc=0.2500 IDamp=-1.
 Damping current iteration by 2.50D-01
 RMSDP=3.33D-03 MaxDP=1.76D-01              OVMax= 6.36D-01

 Cycle   2  Pass 1  IDiag  1:
 RMSU=  8.33D-04    CP:  1.00D+00
 E= -2873.27530667422     Delta-E=       -0.372737309917 Rises=F Damp=T
 DIIS: error= 4.07D-02 at cycle   2 NSaved=   2.
 NSaved= 2 IEnMin= 2 EnMin= -2873.27530667422     IErMin= 2 ErrMin= 4.07D-02
 ErrMax= 4.07D-02  0.00D+00 EMaxC= 1.00D-01 BMatC= 4.21D+00 BMatP= 1.02D+01
 IDIUse=3 WtCom= 5.93D-01 WtEn= 4.07D-01
 Coeff-Com: -0.144D+01 0.244D+01
 Coeff-En:   0.000D+00 0.100D+01
 Coeff:     -0.855D+00 0.186D+01
 Gap=     0.517 Goal=   None    Shift=    0.000
 Gap=     0.049 Goal=   None    Shift=    0.000
 RMSDP=1.62D-03 MaxDP=5.46D-02 DE=-3.73D-01 OVMax= 8.08D-01

 Cycle   3  Pass 1  IDiag  1:
 RMSU=  1.17D-03    CP:  1.00D+00  2.34D+00
 E= -2873.91030865564     Delta-E=       -0.635001981416 Rises=F Damp=F
 DIIS: error= 8.14D-03 at cycle   3 NSaved=   3.
 NSaved= 3 IEnMin= 3 EnMin= -2873.91030865564     IErMin= 3 ErrMin= 8.14D-03
 ErrMax= 8.14D-03  0.00D+00 EMaxC= 1.00D-01 BMatC= 4.83D-01 BMatP= 4.21D+00
 IDIUse=3 WtCom= 9.19D-01 WtEn= 8.14D-02
 Coeff-Com: -0.565D+00 0.952D+00 0.613D+00
 Coeff-En:   0.000D+00 0.000D+00 0.100D+01
 Coeff:     -0.519D+00 0.874D+00 0.645D+00
 Gap=     0.365 Goal=   None    Shift=    0.000
 Gap=     0.045 Goal=   None    Shift=    0.000
 RMSDP=7.14D-04 MaxDP=5.90D-02 DE=-6.35D-01 OVMax= 2.67D-01

 Cycle   4  Pass 1  IDiag  1:
 RMSU=  6.03D-04    CP:  1.00D+00  2.49D+00  6.93D-01
 E= -2873.99315221402     Delta-E=       -0.082843558379 Rises=F Damp=F
 DIIS: error= 3.36D-03 at cycle   4 NSaved=   4.
 NSaved= 4 IEnMin= 4 EnMin= -2873.99315221402     IErMin= 4 ErrMin= 3.36D-03
 ErrMax= 3.36D-03  0.00D+00 EMaxC= 1.00D-01 BMatC= 1.29D-01 BMatP= 4.83D-01
 IDIUse=3 WtCom= 9.66D-01 WtEn= 3.36D-02
 Coeff-Com: -0.117D+00 0.185D+00 0.339D+00 0.593D+00
 Coeff-En:   0.000D+00 0.000D+00 0.130D+00 0.870D+00
 Coeff:     -0.113D+00 0.179D+00 0.332D+00 0.602D+00
 Gap=     0.363 Goal=   None    Shift=    0.000
 Gap=     0.090 Goal=   None    Shift=    0.000
 RMSDP=3.25D-04 MaxDP=3.05D-02 DE=-8.28D-02 OVMax= 7.00D-02

 Cycle   5  Pass 1  IDiag  1:
 RMSU=  2.72D-04    CP:  1.00D+00  2.49D+00  8.03D-01  8.03D-01
 E= -2874.01788775559     Delta-E=       -0.024735541574 Rises=F Damp=F
 DIIS: error= 1.64D-03 at cycle   5 NSaved=   5.
 NSaved= 5 IEnMin= 5 EnMin= -2874.01788775559     IErMin= 5 ErrMin= 1.64D-03
 ErrMax= 1.64D-03  0.00D+00 EMaxC= 1.00D-01 BMatC= 1.80D-02 BMatP= 1.29D-01
 IDIUse=3 WtCom= 9.84D-01 WtEn= 1.64D-02
 Coeff-Com: -0.196D-01 0.282D-01 0.131D+00 0.343D+00 0.518D+00
 Coeff-En:   0.000D+00 0.000D+00 0.000D+00 0.000D+00 0.100D+01
 Coeff:     -0.193D-01 0.277D-01 0.129D+00 0.337D+00 0.526D+00
 Gap=     0.356 Goal=   None    Shift=    0.000
 Gap=     0.085 Goal=   None    Shift=    0.000
 RMSDP=1.56D-04 MaxDP=1.04D-02 DE=-2.47D-02 OVMax= 7.10D-02

 Cycle   6  Pass 1  IDiag  1:
 RMSU=  1.32D-04    CP:  1.00D+00  2.53D+00  7.85D-01  9.13D-01  1.11D+00
 E= -2874.02460252235     Delta-E=       -0.006714766763 Rises=F Damp=F
 DIIS: error= 6.31D-04 at cycle   6 NSaved=   6.
 NSaved= 6 IEnMin= 6 EnMin= -2874.02460252235     IErMin= 6 ErrMin= 6.31D-04
 ErrMax= 6.31D-04  0.00D+00 EMaxC= 1.00D-01 BMatC= 2.69D-03 BMatP= 1.80D-02
 IDIUse=3 WtCom= 9.94D-01 WtEn= 6.31D-03
 Coeff-Com:  0.225D-01-0.310D-01 0.640D-02 0.237D-01 0.154D+00 0.825D+00
 Coeff-En:   0.000D+00 0.000D+00 0.000D+00 0.000D+00 0.000D+00 0.100D+01
 Coeff:      0.224D-01-0.308D-01 0.636D-02 0.236D-01 0.153D+00 0.826D+00
 Gap=     0.361 Goal=   None    Shift=    0.000
 Gap=     0.097 Goal=   None    Shift=    0.000
 RMSDP=1.65D-04 MaxDP=1.57D-02 DE=-6.71D-03 OVMax= 9.64D-02

 Cycle   7  Pass 1  IDiag  1:
 RMSU=  6.70D-05    CP:  1.00D+00  2.55D+00  7.63D-01  9.59D-01  1.52D+00
                    CP:  1.70D+00
 E= -2874.02907558000     Delta-E=       -0.004473057646 Rises=F Damp=F
 DIIS: error= 4.95D-04 at cycle   7 NSaved=   7.
 NSaved= 7 IEnMin= 7 EnMin= -2874.02907558000     IErMin= 7 ErrMin= 4.95D-04
 ErrMax= 4.95D-04  0.00D+00 EMaxC= 1.00D-01 BMatC= 2.02D-03 BMatP= 2.69D-03
 IDIUse=3 WtCom= 9.95D-01 WtEn= 4.95D-03
 Coeff-Com:  0.296D-01-0.387D-01-0.337D-01-0.123D+00-0.103D+00 0.442D+00
 Coeff-Com:  0.827D+00
 Coeff-En:   0.000D+00 0.000D+00 0.000D+00 0.000D+00 0.000D+00 0.000D+00
 Coeff-En:   0.100D+01
 Coeff:      0.295D-01-0.385D-01-0.335D-01-0.123D+00-0.102D+00 0.440D+00
 Coeff:      0.828D+00
 Gap=     0.365 Goal=   None    Shift=    0.000
 Gap=     0.108 Goal=   None    Shift=    0.000
 RMSDP=1.70D-04 MaxDP=1.35D-02 DE=-4.47D-03 OVMax= 9.96D-02

 Cycle   8  Pass 1  IDiag  1:
 RMSU=  4.65D-05    CP:  1.00D+00  2.57D+00  7.33D-01  9.75D-01  1.87D+00
                    CP:  2.53D+00  1.97D+00
 E= -2874.03305253945     Delta-E=       -0.003976959446 Rises=F Damp=F
 DIIS: error= 5.17D-04 at cycle   8 NSaved=   8.
 NSaved= 8 IEnMin= 8 EnMin= -2874.03305253945     IErMin= 7 ErrMin= 4.95D-04
 ErrMax= 5.17D-04  0.00D+00 EMaxC= 1.00D-01 BMatC= 1.04D-03 BMatP= 2.02D-03
 IDIUse=3 WtCom= 9.95D-01 WtEn= 4.95D-03
 Coeff-Com: -0.311D-02 0.647D-02 0.460D-01 0.623D-01 0.880D-01-0.398D+00
 Coeff-Com:  0.475D-02 0.119D+01
 Coeff-En:   0.000D+00 0.000D+00 0.000D+00 0.000D+00 0.000D+00 0.000D+00
 Coeff-En:   0.000D+00 0.100D+01
 Coeff:     -0.310D-02 0.644D-02 0.458D-01 0.620D-01 0.876D-01-0.396D+00
 Coeff:      0.472D-02 0.119D+01
 Gap=     0.362 Goal=   None    Shift=    0.000
 Gap=     0.111 Goal=   None    Shift=    0.000
 RMSDP=1.54D-04 MaxDP=1.49D-02 DE=-3.98D-03 OVMax= 1.07D-01

 Cycle   9  Pass 1  IDiag  1:
 RMSU=  5.48D-05    CP:  1.00D+00  2.58D+00  6.96D-01  9.37D-01  2.09D+00
                    CP:  3.00D+00  3.00D+00  1.84D+00
 E= -2874.03599137446     Delta-E=       -0.002938835018 Rises=F Damp=F
 DIIS: error= 4.27D-04 at cycle   9 NSaved=   9.
 NSaved= 9 IEnMin= 9 EnMin= -2874.03599137446     IErMin= 9 ErrMin= 4.27D-04
 ErrMax= 4.27D-04  0.00D+00 EMaxC= 1.00D-01 BMatC= 1.49D-03 BMatP= 1.04D-03
 IDIUse=3 WtCom= 9.95D-01 WtEn= 4.95D-03
 Coeff-Com: -0.745D-02 0.119D-01 0.521D-01 0.834D-01 0.122D+00-0.498D+00
 Coeff-Com: -0.264D+00 0.112D+01 0.376D+00
 Coeff-En:   0.000D+00 0.000D+00 0.000D+00 0.000D+00 0.000D+00 0.000D+00
 Coeff-En:   0.000D+00 0.000D+00 0.100D+01
 Coeff:     -0.741D-02 0.119D-01 0.519D-01 0.830D-01 0.122D+00-0.496D+00
 Coeff:     -0.263D+00 0.112D+01 0.379D+00
 Gap=     0.359 Goal=   None    Shift=    0.000
 Gap=     0.118 Goal=   None    Shift=    0.000
 RMSDP=8.42D-05 MaxDP=5.46D-03 DE=-2.94D-03 OVMax= 5.55D-02

 Cycle  10  Pass 1  IDiag  1:
 RMSU=  5.37D-05    CP:  1.00D+00  2.59D+00  6.76D-01  9.14D-01  2.19D+00
                    CP:  3.00D+00  3.00D+00  2.53D+00  1.73D+00
 E= -2874.03752807050     Delta-E=       -0.001536696038 Rises=F Damp=F
 DIIS: error= 4.12D-04 at cycle  10 NSaved=  10.
 NSaved=10 IEnMin=10 EnMin= -2874.03752807050     IErMin=10 ErrMin= 4.12D-04
 ErrMax= 4.12D-04  0.00D+00 EMaxC= 1.00D-01 BMatC= 8.33D-04 BMatP= 1.04D-03
 IDIUse=3 WtCom= 9.96D-01 WtEn= 4.12D-03
 Coeff-Com:  0.815D-03-0.102D-02 0.278D-01 0.502D-01 0.124D+00-0.162D+00
 Coeff-Com: -0.170D+00 0.234D+00-0.104D+01 0.193D+01
 Coeff-En:   0.000D+00 0.000D+00 0.000D+00 0.000D+00 0.000D+00 0.000D+00
 Coeff-En:   0.000D+00 0.000D+00 0.000D+00 0.100D+01
 Coeff:      0.812D-03-0.102D-02 0.277D-01 0.500D-01 0.123D+00-0.161D+00
 Coeff:     -0.169D+00 0.233D+00-0.103D+01 0.193D+01
 Gap=     0.356 Goal=   None    Shift=    0.000
 Gap=     0.121 Goal=   None    Shift=    0.000
 RMSDP=1.44D-04 MaxDP=1.21D-02 DE=-1.54D-03 OVMax= 1.01D-01

 Cycle  11  Pass 1  IDiag  1:
 RMSU=  5.30D-05    CP:  1.00D+00  2.59D+00  6.41D-01  8.56D-01  2.29D+00
                    CP:  3.00D+00  3.00D+00  3.00D+00  3.00D+00  2.32D+00
 E= -2874.03968243508     Delta-E=       -0.002154364573 Rises=F Damp=F
 DIIS: error= 4.05D-04 at cycle  11 NSaved=  11.
 NSaved=11 IEnMin=11 EnMin= -2874.03968243508     IErMin=11 ErrMin= 4.05D-04
 ErrMax= 4.05D-04  0.00D+00 EMaxC= 1.00D-01 BMatC= 1.03D-03 BMatP= 8.33D-04
 IDIUse=3 WtCom= 9.96D-01 WtEn= 4.12D-03
 Coeff-Com:  0.814D-02-0.108D-01 0.129D-02-0.321D-02 0.718D-01 0.166D+00
 Coeff-Com:  0.247D+00-0.434D+00-0.222D+01 0.229D+01 0.890D+00
 Coeff-En:   0.000D+00 0.000D+00 0.000D+00 0.000D+00 0.000D+00 0.000D+00
 Coeff-En:   0.000D+00 0.000D+00 0.000D+00 0.000D+00 0.100D+01
 Coeff:      0.811D-02-0.108D-01 0.129D-02-0.320D-02 0.715D-01 0.166D+00
 Coeff:      0.246D+00-0.432D+00-0.221D+01 0.228D+01 0.891D+00
 Gap=     0.349 Goal=   None    Shift=    0.000
 Gap=     0.124 Goal=   None    Shift=    0.000
 RMSDP=1.35D-04 MaxDP=1.10D-02 DE=-2.15D-03 OVMax= 7.04D-02

 Cycle  12  Pass 1  IDiag  1:
 RMSU=  6.25D-05    CP:  1.00D+00  2.60D+00  6.10D-01  7.83D-01  2.32D+00
                    CP:  3.00D+00  3.00D+00  3.00D+00  3.00D+00  3.00D+00
                    CP:  2.71D+00
 E= -2874.04141010165     Delta-E=       -0.001727666571 Rises=F Damp=F
 DIIS: error= 3.44D-04 at cycle  12 NSaved=  12.
 NSaved=12 IEnMin=12 EnMin= -2874.04141010165     IErMin=12 ErrMin= 3.44D-04
 ErrMax= 3.44D-04  0.00D+00 EMaxC= 1.00D-01 BMatC= 5.79D-04 BMatP= 8.33D-04
 IDIUse=3 WtCom= 9.97D-01 WtEn= 3.44D-03
 Coeff-Com:  0.969D-02-0.126D-01 0.493D-03-0.159D-01 0.137D-01 0.109D-01
 Coeff-Com:  0.328D+00-0.266D-01-0.143D+01 0.799D+00 0.845D-01 0.124D+01
 Coeff-En:   0.000D+00 0.000D+00 0.000D+00 0.000D+00 0.000D+00 0.000D+00
 Coeff-En:   0.000D+00 0.000D+00 0.000D+00 0.000D+00 0.000D+00 0.100D+01
 Coeff:      0.965D-02-0.126D-01 0.492D-03-0.158D-01 0.136D-01 0.108D-01
 Coeff:      0.327D+00-0.265D-01-0.142D+01 0.796D+00 0.842D-01 0.124D+01
 Gap=     0.341 Goal=   None    Shift=    0.000
 Gap=     0.129 Goal=   None    Shift=    0.000
 RMSDP=1.23D-04 MaxDP=1.04D-02 DE=-1.73D-03 OVMax= 7.35D-02

 Cycle  13  Pass 1  IDiag  1:
 RMSU=  8.26D-05    CP:  1.00D+00  2.59D+00  5.87D-01  7.11D-01  2.33D+00
                    CP:  3.00D+00  3.00D+00  3.00D+00  3.00D+00  3.00D+00
                    CP:  3.00D+00  1.90D+00
 E= -2874.04255497831     Delta-E=       -0.001144876660 Rises=F Damp=F
 DIIS: error= 2.12D-04 at cycle  13 NSaved=  13.
 NSaved=13 IEnMin=13 EnMin= -2874.04255497831     IErMin=13 ErrMin= 2.12D-04
 ErrMax= 2.12D-04  0.00D+00 EMaxC= 1.00D-01 BMatC= 1.44D-04 BMatP= 5.79D-04
 IDIUse=3 WtCom= 9.98D-01 WtEn= 2.12D-03
 Coeff-Com:  0.130D-02-0.143D-02 0.140D-01 0.171D-01 0.123D-01-0.218D+00
 Coeff-Com:  0.331D-01 0.436D+00 0.500D+00-0.776D+00-0.515D+00 0.438D+00
 Coeff-Com:  0.106D+01
 Coeff-En:   0.000D+00 0.000D+00 0.000D+00 0.000D+00 0.000D+00 0.000D+00
 Coeff-En:   0.000D+00 0.000D+00 0.000D+00 0.000D+00 0.000D+00 0.000D+00
 Coeff-En:   0.100D+01
 Coeff:      0.130D-02-0.143D-02 0.140D-01 0.171D-01 0.123D-01-0.218D+00
 Coeff:      0.330D-01 0.435D+00 0.498D+00-0.775D+00-0.513D+00 0.437D+00
 Coeff:      0.106D+01
 Gap=     0.341 Goal=   None    Shift=    0.000
 Gap=     0.128 Goal=   None    Shift=    0.000
 RMSDP=4.51D-05 MaxDP=4.98D-03 DE=-1.14D-03 OVMax= 2.63D-02

 Cycle  14  Pass 1  IDiag  1:
 RMSU=  2.55D-05    CP:  1.00D+00  2.59D+00  5.81D-01  6.89D-01  2.32D+00
                    CP:  3.00D+00  3.00D+00  3.00D+00  3.00D+00  3.00D+00
                    CP:  3.00D+00  2.09D+00  1.39D+00
 E= -2874.04283181120     Delta-E=       -0.000276832896 Rises=F Damp=F
 DIIS: error= 2.38D-04 at cycle  14 NSaved=  14.
 NSaved=14 IEnMin=14 EnMin= -2874.04283181120     IErMin=13 ErrMin= 2.12D-04
 ErrMax= 2.38D-04  0.00D+00 EMaxC= 1.00D-01 BMatC= 2.29D-04 BMatP= 1.44D-04
 IDIUse=3 WtCom= 9.98D-01 WtEn= 2.12D-03
 Coeff-Com: -0.318D-02 0.448D-02 0.123D-01 0.232D-01 0.170D-01-0.161D+00
 Coeff-Com: -0.895D-01 0.294D+00 0.828D+00-0.777D+00-0.663D+00-0.147D+00
 Coeff-Com:  0.970D+00 0.692D+00
 Coeff-En:   0.000D+00 0.000D+00 0.000D+00 0.000D+00 0.000D+00 0.000D+00
 Coeff-En:   0.000D+00 0.000D+00 0.000D+00 0.000D+00 0.000D+00 0.000D+00
 Coeff-En:   0.000D+00 0.100D+01
 Coeff:     -0.318D-02 0.447D-02 0.123D-01 0.232D-01 0.169D-01-0.161D+00
 Coeff:     -0.893D-01 0.293D+00 0.826D+00-0.776D+00-0.662D+00-0.146D+00
 Coeff:      0.968D+00 0.693D+00
 Gap=     0.336 Goal=   None    Shift=    0.000
 Gap=     0.128 Goal=   None    Shift=    0.000
 RMSDP=8.13D-05 MaxDP=7.41D-03 DE=-2.77D-04 OVMax= 4.88D-02

 Cycle  15  Pass 1  IDiag  1:
 RMSU=  1.43D-05    CP:  1.00D+00  2.59D+00  5.67D-01  6.35D-01  2.30D+00
                    CP:  3.00D+00  3.00D+00  3.00D+00  3.00D+00  3.00D+00
                    CP:  3.00D+00  2.60D+00  2.13D+00  1.51D+00
 E= -2874.04320726947     Delta-E=       -0.000375458265 Rises=F Damp=F
 DIIS: error= 9.43D-05 at cycle  15 NSaved=  15.
 NSaved=15 IEnMin=15 EnMin= -2874.04320726947     IErMin=15 ErrMin= 9.43D-05
 ErrMax= 9.43D-05  0.00D+00 EMaxC= 1.00D-01 BMatC= 3.59D-05 BMatP= 1.44D-04
 IDIUse=1 WtCom= 1.00D+00 WtEn= 0.00D+00
 Coeff-Com: -0.335D-02 0.441D-02 0.220D-02 0.912D-02 0.186D-01-0.223D-01
 Coeff-Com: -0.107D+00-0.166D-01 0.249D+00 0.138D+00-0.616D-01-0.656D+00
 Coeff-Com:  0.111D+00 0.243D+00 0.109D+01
 Coeff:     -0.335D-02 0.441D-02 0.220D-02 0.912D-02 0.186D-01-0.223D-01
 Coeff:     -0.107D+00-0.166D-01 0.249D+00 0.138D+00-0.616D-01-0.656D+00
 Coeff:      0.111D+00 0.243D+00 0.109D+01
 Gap=     0.335 Goal=   None    Shift=    0.000
 Gap=     0.128 Goal=   None    Shift=    0.000
 RMSDP=3.46D-05 MaxDP=3.98D-03 DE=-3.75D-04 OVMax= 2.05D-02

 Cycle  16  Pass 1  IDiag  1:
 RMSU=  1.10D-05    CP:  1.00D+00  2.59D+00  5.62D-01  6.14D-01  2.30D+00
                    CP:  3.00D+00  3.00D+00  3.00D+00  3.00D+00  3.00D+00
                    CP:  3.00D+00  2.72D+00  2.41D+00  2.15D+00  1.44D+00
 E= -2874.04329939682     Delta-E=       -0.000092127355 Rises=F Damp=F
 DIIS: error= 5.78D-05 at cycle  16 NSaved=  16.
 NSaved=16 IEnMin=16 EnMin= -2874.04329939682     IErMin=16 ErrMin= 5.78D-05
 ErrMax= 5.78D-05  0.00D+00 EMaxC= 1.00D-01 BMatC= 2.03D-05 BMatP= 3.59D-05
 IDIUse=1 WtCom= 1.00D+00 WtEn= 0.00D+00
 Coeff-Com: -0.420D-03 0.485D-03-0.383D-02-0.417D-02 0.638D-02 0.601D-01
 Coeff-Com:  0.121D-01-0.140D+00-0.297D+00 0.422D+00 0.186D+00-0.249D+00
 Coeff-Com: -0.176D+00-0.210D+00 0.531D+00 0.863D+00
 Coeff:     -0.420D-03 0.485D-03-0.383D-02-0.417D-02 0.638D-02 0.601D-01
 Coeff:      0.121D-01-0.140D+00-0.297D+00 0.422D+00 0.186D+00-0.249D+00
 Coeff:     -0.176D+00-0.210D+00 0.531D+00 0.863D+00
 Gap=     0.334 Goal=   None    Shift=    0.000
 Gap=     0.129 Goal=   None    Shift=    0.000
 RMSDP=2.34D-05 MaxDP=2.56D-03 DE=-9.21D-05 OVMax= 1.40D-02

 Cycle  17  Pass 1  IDiag  1:
 RMSU=  4.47D-06    CP:  1.00D+00  2.59D+00  5.58D-01  5.98D-01  2.30D+00
                    CP:  3.00D+00  3.00D+00  3.00D+00  3.00D+00  3.00D+00
                    CP:  3.00D+00  2.83D+00  2.60D+00  2.44D+00  1.92D+00
                    CP:  1.52D+00
 E= -2874.04333482297     Delta-E=       -0.000035426152 Rises=F Damp=F
 DIIS: error= 4.36D-05 at cycle  17 NSaved=  17.
 NSaved=17 IEnMin=17 EnMin= -2874.04333482297     IErMin=17 ErrMin= 4.36D-05
 ErrMax= 4.36D-05  0.00D+00 EMaxC= 1.00D-01 BMatC= 6.06D-06 BMatP= 2.03D-05
 IDIUse=1 WtCom= 1.00D+00 WtEn= 0.00D+00
 Coeff-Com:  0.148D-03-0.191D-03-0.190D-02-0.310D-02-0.454D-02 0.112D-01
 Coeff-Com:  0.167D-01-0.152D-01-0.113D+00 0.921D-01 0.938D-01-0.131D-01
 Coeff-Com: -0.117D-01-0.188D+00-0.787D-01 0.360D+00 0.855D+00
 Coeff:      0.148D-03-0.191D-03-0.190D-02-0.310D-02-0.454D-02 0.112D-01
 Coeff:      0.167D-01-0.152D-01-0.113D+00 0.921D-01 0.938D-01-0.131D-01
 Coeff:     -0.117D-01-0.188D+00-0.787D-01 0.360D+00 0.855D+00
 Gap=     0.334 Goal=   None    Shift=    0.000
 Gap=     0.129 Goal=   None    Shift=    0.000
 RMSDP=9.08D-06 MaxDP=1.07D-03 DE=-3.54D-05 OVMax= 4.08D-03

 Cycle  18  Pass 1  IDiag  1:
 RMSU=  2.99D-06    CP:  1.00D+00  2.59D+00  5.58D-01  5.96D-01  2.30D+00
                    CP:  3.00D+00  3.00D+00  3.00D+00  3.00D+00  3.00D+00
                    CP:  3.00D+00  2.82D+00  2.63D+00  2.57D+00  2.04D+00
                    CP:  2.09D+00  1.73D+00
 E= -2874.04334805353     Delta-E=       -0.000013230554 Rises=F Damp=F
 DIIS: error= 3.61D-05 at cycle  18 NSaved=  18.
 NSaved=18 IEnMin=18 EnMin= -2874.04334805353     IErMin=18 ErrMin= 3.61D-05
 ErrMax= 3.61D-05  0.00D+00 EMaxC= 1.00D-01 BMatC= 3.60D-06 BMatP= 6.06D-06
 IDIUse=1 WtCom= 1.00D+00 WtEn= 0.00D+00
 Coeff-Com: -0.461D-04 0.763D-04 0.815D-04 0.666D-03-0.548D-02 0.211D-03
 Coeff-Com: -0.784D-03 0.243D-01 0.475D-01-0.887D-01-0.979D-02 0.577D-01
 Coeff-Com:  0.863D-01-0.285D-01-0.209D+00-0.214D+00 0.371D+00 0.968D+00
 Coeff:     -0.461D-04 0.763D-04 0.815D-04 0.666D-03-0.548D-02 0.211D-03
 Coeff:     -0.784D-03 0.243D-01 0.475D-01-0.887D-01-0.979D-02 0.577D-01
 Coeff:      0.863D-01-0.285D-01-0.209D+00-0.214D+00 0.371D+00 0.968D+00
 Gap=     0.334 Goal=   None    Shift=    0.000
 Gap=     0.129 Goal=   None    Shift=    0.000
 RMSDP=8.99D-06 MaxDP=1.10D-03 DE=-1.32D-05 OVMax= 4.62D-03

 Cycle  19  Pass 1  IDiag  1:
 RMSU=  2.18D-06    CP:  1.00D+00  2.59D+00  5.58D-01  5.95D-01  2.30D+00
                    CP:  3.00D+00  3.00D+00  3.00D+00  3.00D+00  3.00D+00
                    CP:  3.00D+00  2.80D+00  2.63D+00  2.72D+00  2.15D+00
                    CP:  2.52D+00  2.84D+00  2.02D+00
 E= -2874.04335870366     Delta-E=       -0.000010650128 Rises=F Damp=F
 DIIS: error= 3.29D-05 at cycle  19 NSaved=  19.
 NSaved=19 IEnMin=19 EnMin= -2874.04335870366     IErMin=19 ErrMin= 3.29D-05
 ErrMax= 3.29D-05  0.00D+00 EMaxC= 1.00D-01 BMatC= 4.43D-06 BMatP= 3.60D-06
 IDIUse=1 WtCom= 1.00D+00 WtEn= 0.00D+00
 Coeff-Com: -0.674D-03 0.925D-03 0.173D-02 0.411D-02-0.727D-03-0.105D-01
 Coeff-Com: -0.330D-01 0.437D-01 0.116D+00-0.832D-01-0.113D+00 0.249D-02
 Coeff-Com:  0.115D+00 0.307D-01 0.348D-01-0.401D+00-0.320D+00 0.295D+00
 Coeff-Com:  0.132D+01
 Coeff:     -0.674D-03 0.925D-03 0.173D-02 0.411D-02-0.727D-03-0.105D-01
 Coeff:     -0.330D-01 0.437D-01 0.116D+00-0.832D-01-0.113D+00 0.249D-02
 Coeff:      0.115D+00 0.307D-01 0.348D-01-0.401D+00-0.320D+00 0.295D+00
 Coeff:      0.132D+01
 Gap=     0.334 Goal=   None    Shift=    0.000
 Gap=     0.129 Goal=   None    Shift=    0.000
 RMSDP=1.44D-05 MaxDP=1.54D-03 DE=-1.07D-05 OVMax= 5.43D-03

 Cycle  20  Pass 1  IDiag  1:
 RMSU=  7.24D-06    CP:  1.00D+00  2.59D+00  5.57D-01  5.90D-01  2.29D+00
                    CP:  3.00D+00  3.00D+00  3.00D+00  3.00D+00  3.00D+00
                    CP:  3.00D+00  2.82D+00  2.68D+00  2.92D+00  2.39D+00
                    CP:  3.00D+00  3.00D+00  3.00D+00  2.08D+00
 E= -2874.04337410442     Delta-E=       -0.000015400765 Rises=F Damp=F
 DIIS: error= 2.64D-05 at cycle  20 NSaved=  20.
 NSaved=20 IEnMin=20 EnMin= -2874.04337410442     IErMin=20 ErrMin= 2.64D-05
 ErrMax= 2.64D-05  0.00D+00 EMaxC= 1.00D-01 BMatC= 1.71D-06 BMatP= 3.60D-06
 IDIUse=1 WtCom= 1.00D+00 WtEn= 0.00D+00
 Coeff-Com: -0.225D-03 0.290D-03 0.388D-03 0.139D-02 0.235D-02 0.117D-02
 Coeff-Com: -0.161D-01 0.807D-03 0.807D-02 0.456D-01-0.240D-01-0.820D-01
 Coeff-Com:  0.238D-01-0.146D-01 0.210D+00-0.199D-01-0.451D+00-0.575D+00
 Coeff-Com:  0.357D+00 0.153D+01
 Coeff:     -0.225D-03 0.290D-03 0.388D-03 0.139D-02 0.235D-02 0.117D-02
 Coeff:     -0.161D-01 0.807D-03 0.807D-02 0.456D-01-0.240D-01-0.820D-01
 Coeff:      0.238D-01-0.146D-01 0.210D+00-0.199D-01-0.451D+00-0.575D+00
 Coeff:      0.357D+00 0.153D+01
 Gap=     0.333 Goal=   None    Shift=    0.000
 Gap=     0.129 Goal=   None    Shift=    0.000
 RMSDP=1.84D-05 MaxDP=2.18D-03 DE=-1.54D-05 OVMax= 8.15D-03

 Cycle  21  Pass 1  IDiag  1:
 Restarting incremental Fock formation.
 E= -2874.04338865461     Delta-E=       -0.000014550185 Rises=F Damp=F
 DIIS: error= 1.76D-05 at cycle  21 NSaved=  20.
 NSaved=20 IEnMin=20 EnMin= -2874.04338865461     IErMin=20 ErrMin= 1.76D-05
 ErrMax= 1.76D-05  0.00D+00 EMaxC= 1.00D-01 BMatC= 8.84D-07 BMatP= 1.71D-06
 IDIUse=1 WtCom= 1.00D+00 WtEn= 0.00D+00
 Coeff-Com:  0.210D-04-0.135D-03-0.225D-04 0.137D-02 0.375D-02 0.121D-02
 Coeff-Com: -0.159D-01-0.368D-01 0.557D-01 0.502D-01-0.549D-01-0.273D-01
 Coeff-Com: -0.464D-01 0.715D-01 0.207D+00 0.291D-01-0.228D+00-0.773D+00
 Coeff-Com:  0.442D+00 0.132D+01
 Coeff:      0.210D-04-0.135D-03-0.225D-04 0.137D-02 0.375D-02 0.121D-02
 Coeff:     -0.159D-01-0.368D-01 0.557D-01 0.502D-01-0.549D-01-0.273D-01
 Coeff:     -0.464D-01 0.715D-01 0.207D+00 0.291D-01-0.228D+00-0.773D+00
 Coeff:      0.442D+00 0.132D+01
 Gap=     0.333 Goal=   None    Shift=    0.000
 Gap=     0.129 Goal=   None    Shift=    0.000
 RMSDP=1.46D-05 MaxDP=1.76D-03 DE=-1.46D-05 OVMax= 6.70D-03

 Cycle  22  Pass 1  IDiag  1:
 RMSU=  1.46D-05    CP:  1.00D+00
 E= -2874.04339637262     Delta-E=       -0.000007718008 Rises=F Damp=F
 DIIS: error= 1.22D-05 at cycle  22 NSaved=  20.
 NSaved=20 IEnMin=20 EnMin= -2874.04339637262     IErMin=20 ErrMin= 1.22D-05
 ErrMax= 1.22D-05  0.00D+00 EMaxC= 1.00D-01 BMatC= 8.26D-07 BMatP= 8.84D-07
 IDIUse=1 WtCom= 1.00D+00 WtEn= 0.00D+00
 Coeff-Com:  0.249D-03 0.474D-03-0.120D-02 0.230D-03-0.134D-02 0.526D-02
 Coeff-Com: -0.534D-03-0.686D-02 0.109D-02 0.265D-01 0.181D-02-0.304D-01
 Coeff-Com: -0.624D-01 0.398D-01 0.251D+00 0.330D+00-0.534D+00-0.803D+00
 Coeff-Com:  0.468D+00 0.132D+01
 Coeff:      0.249D-03 0.474D-03-0.120D-02 0.230D-03-0.134D-02 0.526D-02
 Coeff:     -0.534D-03-0.686D-02 0.109D-02 0.265D-01 0.181D-02-0.304D-01
 Coeff:     -0.624D-01 0.398D-01 0.251D+00 0.330D+00-0.534D+00-0.803D+00
 Coeff:      0.468D+00 0.132D+01
 Gap=     0.333 Goal=   None    Shift=    0.000
 Gap=     0.129 Goal=   None    Shift=    0.000
 RMSDP=1.40D-05 MaxDP=1.59D-03 DE=-7.72D-06 OVMax= 5.97D-03

 Cycle  23  Pass 1  IDiag  1:
 RMSU=  1.61D-06    CP:  1.00D+00  1.95D+00
 E= -2874.04340079392     Delta-E=       -0.000004421308 Rises=F Damp=F
 DIIS: error= 6.97D-06 at cycle  23 NSaved=  20.
 NSaved=20 IEnMin=20 EnMin= -2874.04340079392     IErMin=20 ErrMin= 6.97D-06
 ErrMax= 6.97D-06  0.00D+00 EMaxC= 1.00D-01 BMatC= 2.51D-07 BMatP= 8.26D-07
 IDIUse=1 WtCom= 1.00D+00 WtEn= 0.00D+00
 Coeff-Com:  0.369D-04-0.150D-02 0.304D-02-0.307D-02 0.478D-02 0.341D-02
 Coeff-Com: -0.691D-02-0.184D-01 0.259D-01 0.705D-02-0.107D-01-0.258D-01
 Coeff-Com: -0.576D-01 0.975D-01 0.243D+00 0.468D-01-0.492D+00-0.358D+00
 Coeff-Com:  0.489D+00 0.105D+01
 Coeff:      0.369D-04-0.150D-02 0.304D-02-0.307D-02 0.478D-02 0.341D-02
 Coeff:     -0.691D-02-0.184D-01 0.259D-01 0.705D-02-0.107D-01-0.258D-01
 Coeff:     -0.576D-01 0.975D-01 0.243D+00 0.468D-01-0.492D+00-0.358D+00
 Coeff:      0.489D+00 0.105D+01
 Gap=     0.333 Goal=   None    Shift=    0.000
 Gap=     0.129 Goal=   None    Shift=    0.000
 RMSDP=7.21D-06 MaxDP=7.46D-04 DE=-4.42D-06 OVMax= 2.80D-03

 Cycle  24  Pass 1  IDiag  1:
 RMSU=  5.91D-07    CP:  1.00D+00  2.43D+00  2.08D+00
 E= -2874.04340189604     Delta-E=       -0.000001102115 Rises=F Damp=F
 DIIS: error= 3.02D-06 at cycle  24 NSaved=  20.
 NSaved=20 IEnMin=20 EnMin= -2874.04340189604     IErMin=20 ErrMin= 3.02D-06
 ErrMax= 3.02D-06  0.00D+00 EMaxC= 1.00D-01 BMatC= 6.81D-08 BMatP= 2.51D-07
 IDIUse=1 WtCom= 1.00D+00 WtEn= 0.00D+00
 Coeff-Com: -0.265D-03 0.644D-04-0.136D-02 0.338D-02 0.874D-02-0.107D-01
 Coeff-Com: -0.189D-02-0.823D-03 0.496D-02 0.108D-01 0.890D-02-0.408D-01
 Coeff-Com: -0.853D-01-0.261D-01 0.191D+00 0.219D+00-0.289D+00-0.454D+00
 Coeff-Com:  0.350D+00 0.111D+01
 Coeff:     -0.265D-03 0.644D-04-0.136D-02 0.338D-02 0.874D-02-0.107D-01
 Coeff:     -0.189D-02-0.823D-03 0.496D-02 0.108D-01 0.890D-02-0.408D-01
 Coeff:     -0.853D-01-0.261D-01 0.191D+00 0.219D+00-0.289D+00-0.454D+00
 Coeff:      0.350D+00 0.111D+01
 Gap=     0.333 Goal=   None    Shift=    0.000
 Gap=     0.129 Goal=   None    Shift=    0.000
 RMSDP=3.58D-06 MaxDP=3.41D-04 DE=-1.10D-06 OVMax= 1.80D-03

 Cycle  25  Pass 1  IDiag  1:
 RMSU=  1.52D-06    CP:  1.00D+00  2.65D+00  1.84D+00  1.19D+00
 E= -2874.04340214770     Delta-E=       -0.000000251664 Rises=F Damp=F
 DIIS: error= 3.16D-06 at cycle  25 NSaved=  20.
 NSaved=20 IEnMin=20 EnMin= -2874.04340214770     IErMin=19 ErrMin= 3.02D-06
 ErrMax= 3.16D-06  0.00D+00 EMaxC= 1.00D-01 BMatC= 6.35D-08 BMatP= 6.81D-08
 IDIUse=1 WtCom= 1.00D+00 WtEn= 0.00D+00
 Coeff-Com:  0.228D-03-0.990D-03 0.572D-03-0.109D-02 0.214D-02-0.282D-02
 Coeff-Com: -0.308D-02 0.349D-04-0.117D-02 0.154D-01-0.433D-02-0.275D-01
 Coeff-Com: -0.552D-01 0.606D-01 0.143D+00-0.484D-01-0.219D+00-0.745D-01
 Coeff-Com:  0.294D+00 0.923D+00
 Coeff:      0.228D-03-0.990D-03 0.572D-03-0.109D-02 0.214D-02-0.282D-02
 Coeff:     -0.308D-02 0.349D-04-0.117D-02 0.154D-01-0.433D-02-0.275D-01
 Coeff:     -0.552D-01 0.606D-01 0.143D+00-0.484D-01-0.219D+00-0.745D-01
 Coeff:      0.294D+00 0.923D+00
 Gap=     0.333 Goal=   None    Shift=    0.000
 Gap=     0.129 Goal=   None    Shift=    0.000
 RMSDP=1.73D-06 MaxDP=1.93D-04 DE=-2.52D-07 OVMax= 9.60D-04

 Cycle  26  Pass 1  IDiag  1:
 RMSU=  3.66D-07    CP:  1.00D+00  2.71D+00  2.63D+00  1.83D+00  7.11D-01
 E= -2874.04340220599     Delta-E=       -0.000000058291 Rises=F Damp=F
 DIIS: error= 2.01D-06 at cycle  26 NSaved=  20.
 NSaved=20 IEnMin=20 EnMin= -2874.04340220599     IErMin=20 ErrMin= 2.01D-06
 ErrMax= 2.01D-06  0.00D+00 EMaxC= 1.00D-01 BMatC= 4.41D-08 BMatP= 6.35D-08
 IDIUse=1 WtCom= 1.00D+00 WtEn= 0.00D+00
 Coeff-Com:  0.421D-03-0.129D-02-0.482D-03 0.102D-02 0.412D-02-0.308D-02
 Coeff-Com: -0.189D-02 0.224D-03 0.539D-04 0.112D-01 0.821D-02-0.749D-02
 Coeff-Com: -0.585D-01 0.102D-01 0.927D-01 0.464D-01-0.190D+00-0.215D+00
 Coeff-Com:  0.493D+00 0.810D+00
 Coeff:      0.421D-03-0.129D-02-0.482D-03 0.102D-02 0.412D-02-0.308D-02
 Coeff:     -0.189D-02 0.224D-03 0.539D-04 0.112D-01 0.821D-02-0.749D-02
 Coeff:     -0.585D-01 0.102D-01 0.927D-01 0.464D-01-0.190D+00-0.215D+00
 Coeff:      0.493D+00 0.810D+00
 Gap=     0.333 Goal=   None    Shift=    0.000
 Gap=     0.129 Goal=   None    Shift=    0.000
 RMSDP=8.71D-07 MaxDP=9.44D-05 DE=-5.83D-08 OVMax= 3.96D-04

 Cycle  27  Pass 1  IDiag  1:
 RMSU=  1.33D-07    CP:  1.00D+00  2.72D+00  2.33D+00  1.86D+00  1.16D+00
                    CP:  1.31D+00
 E= -2874.04340224265     Delta-E=       -0.000000036653 Rises=F Damp=F
 DIIS: error= 1.12D-06 at cycle  27 NSaved=  20.
 NSaved=20 IEnMin=20 EnMin= -2874.04340224265     IErMin=20 ErrMin= 1.12D-06
 ErrMax= 1.12D-06  0.00D+00 EMaxC= 1.00D-01 BMatC= 5.53D-09 BMatP= 4.41D-08
 IDIUse=1 WtCom= 1.00D+00 WtEn= 0.00D+00
 Coeff-Com: -0.497D-03-0.128D-02 0.242D-02-0.753D-03 0.154D-02-0.186D-02
 Coeff-Com: -0.110D-02-0.133D-02 0.605D-02 0.173D-01 0.569D-02-0.350D-01
 Coeff-Com: -0.612D-01 0.476D-01 0.149D+00-0.590D-01-0.298D+00-0.169D+00
 Coeff-Com:  0.317D+00 0.108D+01
 Coeff:     -0.497D-03-0.128D-02 0.242D-02-0.753D-03 0.154D-02-0.186D-02
 Coeff:     -0.110D-02-0.133D-02 0.605D-02 0.173D-01 0.569D-02-0.350D-01
 Coeff:     -0.612D-01 0.476D-01 0.149D+00-0.590D-01-0.298D+00-0.169D+00
 Coeff:      0.317D+00 0.108D+01
 Gap=     0.333 Goal=   None    Shift=    0.000
 Gap=     0.129 Goal=   None    Shift=    0.000
 RMSDP=5.13D-07 MaxDP=6.35D-05 DE=-3.67D-08 OVMax= 1.80D-04

 Cycle  28  Pass 1  IDiag  1:
 RMSU=  7.34D-08    CP:  1.00D+00  2.74D+00  2.48D+00  2.12D+00  1.24D+00
                    CP:  2.06D+00  1.73D+00
 E= -2874.04340226015     Delta-E=       -0.000000017499 Rises=F Damp=F
 DIIS: error= 7.90D-07 at cycle  28 NSaved=  20.
 NSaved=20 IEnMin=20 EnMin= -2874.04340226015     IErMin=20 ErrMin= 7.90D-07
 ErrMax= 7.90D-07  0.00D+00 EMaxC= 1.00D-01 BMatC= 2.42D-09 BMatP= 5.53D-09
 IDIUse=1 WtCom= 1.00D+00 WtEn= 0.00D+00
 Coeff-Com:  0.437D-03-0.105D-02-0.111D-02 0.314D-02-0.944D-03 0.740D-03
 Coeff-Com: -0.482D-02-0.266D-02 0.122D-01 0.140D-01 0.483D-02-0.462D-01
 Coeff-Com: -0.191D-01 0.597D-01 0.452D-01-0.256D-01-0.273D+00-0.239D+00
 Coeff-Com:  0.254D+00 0.122D+01
 Coeff:      0.437D-03-0.105D-02-0.111D-02 0.314D-02-0.944D-03 0.740D-03
 Coeff:     -0.482D-02-0.266D-02 0.122D-01 0.140D-01 0.483D-02-0.462D-01
 Coeff:     -0.191D-01 0.597D-01 0.452D-01-0.256D-01-0.273D+00-0.239D+00
 Coeff:      0.254D+00 0.122D+01
 Gap=     0.333 Goal=   None    Shift=    0.000
 Gap=     0.129 Goal=   None    Shift=    0.000
 RMSDP=3.59D-07 MaxDP=4.04D-05 DE=-1.75D-08 OVMax= 1.27D-04

 Cycle  29  Pass 1  IDiag  1:
 RMSU=  6.03D-08    CP:  1.00D+00  2.75D+00  2.56D+00  2.33D+00  1.34D+00
                    CP:  2.68D+00  2.63D+00  1.61D+00
 E= -2874.04340226774     Delta-E=       -0.000000007591 Rises=F Damp=F
 DIIS: error= 5.06D-07 at cycle  29 NSaved=  20.
 NSaved=20 IEnMin=20 EnMin= -2874.04340226774     IErMin=20 ErrMin= 5.06D-07
 ErrMax= 5.06D-07  0.00D+00 EMaxC= 1.00D-01 BMatC= 1.60D-09 BMatP= 2.42D-09
 IDIUse=1 WtCom= 1.00D+00 WtEn= 0.00D+00
 Coeff-Com: -0.100D-03 0.806D-04 0.246D-03-0.963D-03 0.905D-03 0.343D-03
 Coeff-Com: -0.223D-02-0.575D-02-0.259D-02 0.214D-01 0.107D-01-0.308D-01
 Coeff-Com: -0.339D-01 0.380D-01 0.106D+00 0.110D-01-0.253D+00-0.291D+00
 Coeff-Com:  0.356D+00 0.107D+01
 Coeff:     -0.100D-03 0.806D-04 0.246D-03-0.963D-03 0.905D-03 0.343D-03
 Coeff:     -0.223D-02-0.575D-02-0.259D-02 0.214D-01 0.107D-01-0.308D-01
 Coeff:     -0.339D-01 0.380D-01 0.106D+00 0.110D-01-0.253D+00-0.291D+00
 Coeff:      0.356D+00 0.107D+01
 Gap=     0.333 Goal=   None    Shift=    0.000
 Gap=     0.129 Goal=   None    Shift=    0.000
 RMSDP=2.02D-07 MaxDP=2.32D-05 DE=-7.59D-09 OVMax= 7.51D-05

 Cycle  30  Pass 1  IDiag  1:
 RMSU=  4.00D-08    CP:  1.00D+00  2.75D+00  2.56D+00  2.41D+00  1.41D+00
                    CP:  2.96D+00  3.00D+00  2.12D+00  1.76D+00
 E= -2874.04340227000     Delta-E=       -0.000000002263 Rises=F Damp=F
 DIIS: error= 2.02D-07 at cycle  30 NSaved=  20.
 NSaved=20 IEnMin=20 EnMin= -2874.04340227000     IErMin=20 ErrMin= 2.02D-07
 ErrMax= 2.02D-07  0.00D+00 EMaxC= 1.00D-01 BMatC= 2.11D-10 BMatP= 1.60D-09
 IDIUse=1 WtCom= 1.00D+00 WtEn= 0.00D+00
 Coeff-Com:  0.151D-03-0.709D-03-0.376D-03 0.561D-03 0.175D-02 0.160D-03
 Coeff-Com: -0.645D-02-0.799D-02 0.948D-02 0.215D-01-0.775D-02-0.380D-01
 Coeff-Com: -0.381D-02 0.581D-01 0.111D+00-0.482D-01-0.250D+00-0.186D+00
 Coeff-Com:  0.510D+00 0.837D+00
 Coeff:      0.151D-03-0.709D-03-0.376D-03 0.561D-03 0.175D-02 0.160D-03
 Coeff:     -0.645D-02-0.799D-02 0.948D-02 0.215D-01-0.775D-02-0.380D-01
 Coeff:     -0.381D-02 0.581D-01 0.111D+00-0.482D-01-0.250D+00-0.186D+00
 Coeff:      0.510D+00 0.837D+00
 Gap=     0.333 Goal=   None    Shift=    0.000
 Gap=     0.129 Goal=   None    Shift=    0.000
 RMSDP=1.66D-07 MaxDP=2.25D-05 DE=-2.26D-09 OVMax= 6.21D-05

 Cycle  31  Pass 1  IDiag  1:
 RMSU=  4.41D-08    CP:  1.00D+00  2.76D+00  2.60D+00  2.46D+00  1.41D+00
                    CP:  3.00D+00  3.00D+00  2.37D+00  2.27D+00  1.79D+00
 E= -2874.04340227086     Delta-E=       -0.000000000866 Rises=F Damp=F
 DIIS: error= 1.82D-07 at cycle  31 NSaved=  20.
 NSaved=20 IEnMin=20 EnMin= -2874.04340227086     IErMin=20 ErrMin= 1.82D-07
 ErrMax= 1.82D-07  0.00D+00 EMaxC= 1.00D-01 BMatC= 1.28D-10 BMatP= 2.11D-10
 IDIUse=1 WtCom= 1.00D+00 WtEn= 0.00D+00
 Coeff-Com:  0.684D-04-0.123D-03 0.156D-03-0.201D-03 0.402D-03 0.273D-03
 Coeff-Com:  0.550D-03-0.210D-02-0.285D-02 0.374D-02 0.948D-02-0.919D-02
 Coeff-Com: -0.225D-01 0.150D-01 0.662D-01 0.343D-01-0.162D+00-0.162D+00
 Coeff-Com:  0.193D+00 0.104D+01
 Coeff:      0.684D-04-0.123D-03 0.156D-03-0.201D-03 0.402D-03 0.273D-03
 Coeff:      0.550D-03-0.210D-02-0.285D-02 0.374D-02 0.948D-02-0.919D-02
 Coeff:     -0.225D-01 0.150D-01 0.662D-01 0.343D-01-0.162D+00-0.162D+00
 Coeff:      0.193D+00 0.104D+01
 Gap=     0.333 Goal=   None    Shift=    0.000
 Gap=     0.129 Goal=   None    Shift=    0.000
 RMSDP=3.83D-08 MaxDP=4.25D-06 DE=-8.66D-10 OVMax= 1.48D-05

 Cycle  32  Pass 1  IDiag  1:
 RMSU=  1.16D-08    CP:  1.00D+00  2.76D+00  2.60D+00  2.47D+00  1.42D+00
                    CP:  3.00D+00  3.00D+00  2.46D+00  2.61D+00  2.28D+00
                    CP:  1.31D+00
 E= -2874.04340227080     Delta-E=        0.000000000064 Rises=F Damp=F
 DIIS: error= 7.93D-08 at cycle  32 NSaved=  20.
 NSaved=20 IEnMin=19 EnMin= -2874.04340227086     IErMin=20 ErrMin= 7.93D-08
 ErrMax= 7.93D-08  0.00D+00 EMaxC= 1.00D-01 BMatC= 2.96D-11 BMatP= 1.28D-10
 IDIUse=1 WtCom= 1.00D+00 WtEn= 0.00D+00
 Coeff-Com: -0.459D-04 0.232D-03-0.910D-04 0.522D-04-0.865D-04-0.569D-03
 Coeff-Com: -0.828D-03 0.706D-03 0.168D-02 0.251D-02-0.531D-02-0.742D-02
 Coeff-Com:  0.458D-02 0.397D-01 0.737D-02-0.447D-01-0.103D+00-0.739D-01
 Coeff-Com:  0.333D+00 0.846D+00
 Coeff:     -0.459D-04 0.232D-03-0.910D-04 0.522D-04-0.865D-04-0.569D-03
 Coeff:     -0.828D-03 0.706D-03 0.168D-02 0.251D-02-0.531D-02-0.742D-02
 Coeff:      0.458D-02 0.397D-01 0.737D-02-0.447D-01-0.103D+00-0.739D-01
 Coeff:      0.333D+00 0.846D+00
 Gap=     0.333 Goal=   None    Shift=    0.000
 Gap=     0.129 Goal=   None    Shift=    0.000
 RMSDP=2.92D-08 MaxDP=3.72D-06 DE= 6.37D-11 OVMax= 9.65D-06

 Cycle  33  Pass 1  IDiag  1:
 RMSU=  5.11D-09    CP:  1.00D+00  2.76D+00  2.61D+00  2.48D+00  1.42D+00
                    CP:  3.00D+00  3.00D+00  2.52D+00  2.76D+00  2.50D+00
                    CP:  1.45D+00  1.68D+00
 E= -2874.04340227103     Delta-E=       -0.000000000227 Rises=F Damp=F
 DIIS: error= 6.63D-08 at cycle  33 NSaved=  20.
 NSaved=20 IEnMin=20 EnMin= -2874.04340227103     IErMin=20 ErrMin= 6.63D-08
 ErrMax= 6.63D-08  0.00D+00 EMaxC= 1.00D-01 BMatC= 1.52D-11 BMatP= 2.96D-11
 IDIUse=1 WtCom= 1.00D+00 WtEn= 0.00D+00
 Coeff-Com:  0.243D-03-0.160D-03-0.228D-03 0.293D-03-0.530D-03 0.884D-03
 Coeff-Com: -0.171D-04-0.160D-02 0.734D-03 0.246D-02 0.254D-02-0.212D-01
 Coeff-Com: -0.616D-02-0.763D-02 0.859D-01 0.403D-01-0.188D+00-0.370D+00
 Coeff-Com:  0.302D+00 0.116D+01
 Coeff:      0.243D-03-0.160D-03-0.228D-03 0.293D-03-0.530D-03 0.884D-03
 Coeff:     -0.171D-04-0.160D-02 0.734D-03 0.246D-02 0.254D-02-0.212D-01
 Coeff:     -0.616D-02-0.763D-02 0.859D-01 0.403D-01-0.188D+00-0.370D+00
 Coeff:      0.302D+00 0.116D+01
 Gap=     0.333 Goal=   None    Shift=    0.000
 Gap=     0.129 Goal=   None    Shift=    0.000
 RMSDP=2.16D-08 MaxDP=2.63D-06 DE=-2.27D-10 OVMax= 9.75D-06

 Cycle  34  Pass 1  IDiag  1:
 RMSU=  4.23D-09    CP:  1.00D+00  2.76D+00  2.61D+00  2.48D+00  1.42D+00
                    CP:  3.00D+00  3.00D+00  2.57D+00  2.88D+00  2.69D+00
                    CP:  1.55D+00  2.73D+00  1.82D+00
 E= -2874.04340227090     Delta-E=        0.000000000131 Rises=F Damp=F
 DIIS: error= 4.83D-08 at cycle  34 NSaved=  20.
 NSaved=20 IEnMin=19 EnMin= -2874.04340227103     IErMin=20 ErrMin= 4.83D-08
 ErrMax= 4.83D-08  0.00D+00 EMaxC= 1.00D-01 BMatC= 7.93D-12 BMatP= 1.52D-11
 IDIUse=1 WtCom= 1.00D+00 WtEn= 0.00D+00
 Coeff-Com: -0.138D-03-0.340D-04 0.162D-03-0.296D-03 0.670D-03 0.560D-03
 Coeff-Com: -0.957D-03-0.189D-02 0.237D-02 0.656D-02-0.837D-03-0.119D-01
 Coeff-Com: -0.267D-01 0.333D-01 0.596D-01-0.527D-02-0.134D+00-0.361D+00
 Coeff-Com:  0.205D+00 0.123D+01
 Coeff:     -0.138D-03-0.340D-04 0.162D-03-0.296D-03 0.670D-03 0.560D-03
 Coeff:     -0.957D-03-0.189D-02 0.237D-02 0.656D-02-0.837D-03-0.119D-01
 Coeff:     -0.267D-01 0.333D-01 0.596D-01-0.527D-02-0.134D+00-0.361D+00
 Coeff:      0.205D+00 0.123D+01
 Gap=     0.333 Goal=   None    Shift=    0.000
 Gap=     0.129 Goal=   None    Shift=    0.000
 RMSDP=1.80D-08 MaxDP=2.02D-06 DE= 1.31D-10 OVMax= 8.11D-06

 Cycle  35  Pass 1  IDiag  1:
 RMSU=  5.73D-09    CP:  1.00D+00  2.76D+00  2.61D+00  2.49D+00  1.42D+00
                    CP:  3.00D+00  3.00D+00  2.59D+00  2.97D+00  2.82D+00
                    CP:  1.60D+00  3.00D+00  2.66D+00  1.56D+00
 E= -2874.04340227084     Delta-E=        0.000000000055 Rises=F Damp=F
 DIIS: error= 2.36D-08 at cycle  35 NSaved=  20.
 NSaved=20 IEnMin=18 EnMin= -2874.04340227103     IErMin=20 ErrMin= 2.36D-08
 ErrMax= 2.36D-08  0.00D+00 EMaxC= 1.00D-01 BMatC= 1.98D-12 BMatP= 7.93D-12
 IDIUse=1 WtCom= 1.00D+00 WtEn= 0.00D+00
 Coeff-Com: -0.336D-04-0.310D-03-0.159D-03 0.740D-03 0.765D-03-0.701D-03
 Coeff-Com: -0.213D-02 0.490D-03 0.392D-02 0.680D-02-0.130D-02-0.150D-01
 Coeff-Com: -0.143D-01 0.204D-01 0.545D-01 0.700D-01-0.221D+00-0.295D+00
 Coeff-Com:  0.420D+00 0.972D+00
 Coeff:     -0.336D-04-0.310D-03-0.159D-03 0.740D-03 0.765D-03-0.701D-03
 Coeff:     -0.213D-02 0.490D-03 0.392D-02 0.680D-02-0.130D-02-0.150D-01
 Coeff:     -0.143D-01 0.204D-01 0.545D-01 0.700D-01-0.221D+00-0.295D+00
 Coeff:      0.420D+00 0.972D+00
 Gap=     0.333 Goal=   None    Shift=    0.000
 Gap=     0.129 Goal=   None    Shift=    0.000
 RMSDP=6.50D-09 MaxDP=8.77D-07 DE= 5.46D-11 OVMax= 2.77D-06

 Error on total polarization charges =  0.00181
 SCF Done:  E(UCAM-B3LYP) =  -2874.04340227     A.U. after   35 cycles
            NFock= 35  Conv=0.65D-08     -V/T= 2.0074
 <Sx>= 0.0000 <Sy>= 0.0000 <Sz>= 0.5000 <S**2>= 0.7818 S= 0.5158
 <L.S>= 0.000000000000E+00
 KE= 2.852949020539D+03 PE=-1.893758350714D+04 EE= 7.117665485037D+03
 Annihilation of the first spin contaminant:
 S**2 before annihilation     0.7818,   after     0.7506
 Leave Link  502 at Tue Mar  5 12:18:58 2024, MaxMem=  5368709120 cpu:      4292.2
 (Enter /home/k0335/k033513/app/g09/l601.exe)
 Copying SCF densities to generalized density rwf, IOpCl= 1 IROHF=0.

 **********************************************************************

            Population analysis using the SCF density.

 **********************************************************************

 Alpha  occ. eigenvalues --  -24.90445 -24.90195 -24.89777 -24.89676 -24.89304
 Alpha  occ. eigenvalues --  -24.88891 -24.88856 -24.88694 -24.88235 -24.88195
 Alpha  occ. eigenvalues --  -24.87952 -24.87885 -24.87807 -24.87636 -24.87558
 Alpha  occ. eigenvalues --  -24.87522 -24.87434 -24.86999 -19.40387 -19.39986
 Alpha  occ. eigenvalues --  -19.39649 -19.38565 -19.33886 -14.71017 -14.63854
 Alpha  occ. eigenvalues --  -14.63372 -10.65005 -10.64039 -10.61274 -10.60837
 Alpha  occ. eigenvalues --  -10.60577 -10.60232 -10.59430 -10.58998 -10.56367
 Alpha  occ. eigenvalues --  -10.55782 -10.55213 -10.45400 -10.38549 -10.34296
 Alpha  occ. eigenvalues --   -1.48383  -1.47823  -1.46961  -1.46690  -1.45809
 Alpha  occ. eigenvalues --   -1.45592  -1.41729  -1.41515  -1.39201  -1.39183
 Alpha  occ. eigenvalues --   -1.38609  -1.38267  -1.37885  -1.37467  -1.37247
 Alpha  occ. eigenvalues --   -1.37061  -1.36988  -1.36781  -1.36438  -1.32462
 Alpha  occ. eigenvalues --   -1.29400  -1.26959  -1.25836  -1.24555  -1.19870
 Alpha  occ. eigenvalues --   -1.19501  -1.02203  -1.00137  -0.99382  -0.95878
 Alpha  occ. eigenvalues --   -0.94137  -0.93058  -0.88337  -0.87957  -0.87626
 Alpha  occ. eigenvalues --   -0.87238  -0.86475  -0.82947  -0.81187  -0.80179
 Alpha  occ. eigenvalues --   -0.79214  -0.78812  -0.78087  -0.77623  -0.76627
 Alpha  occ. eigenvalues --   -0.76355  -0.75988  -0.75798  -0.75218  -0.74370
 Alpha  occ. eigenvalues --   -0.73913  -0.73670  -0.72987  -0.72852  -0.72454
 Alpha  occ. eigenvalues --   -0.72039  -0.71898  -0.71711  -0.71400  -0.69961
 Alpha  occ. eigenvalues --   -0.69425  -0.67998  -0.66924  -0.66547  -0.65816
 Alpha  occ. eigenvalues --   -0.64870  -0.64065  -0.63802  -0.62786  -0.62591
 Alpha  occ. eigenvalues --   -0.62425  -0.62235  -0.62079  -0.61774  -0.61646
 Alpha  occ. eigenvalues --   -0.61460  -0.61130  -0.60997  -0.60429  -0.60327
 Alpha  occ. eigenvalues --   -0.60137  -0.59617  -0.59258  -0.59199  -0.59055
 Alpha  occ. eigenvalues --   -0.58720  -0.58404  -0.58202  -0.58039  -0.57391
 Alpha  occ. eigenvalues --   -0.57267  -0.57099  -0.56786  -0.56132  -0.55954
 Alpha  occ. eigenvalues --   -0.55801  -0.55451  -0.55383  -0.55047  -0.54976
 Alpha  occ. eigenvalues --   -0.54657  -0.54437  -0.54194  -0.54129  -0.53816
 Alpha  occ. eigenvalues --   -0.53332  -0.53078  -0.52456  -0.52381  -0.52260
 Alpha  occ. eigenvalues --   -0.51677  -0.51152  -0.50537  -0.50152  -0.50007
 Alpha  occ. eigenvalues --   -0.47508  -0.46539
 Alpha virt. eigenvalues --   -0.13234  -0.10597  -0.03604  -0.01690   0.00120
 Alpha virt. eigenvalues --    0.01419   0.02546   0.04151   0.04398   0.06043
 Alpha virt. eigenvalues --    0.07792   0.08852   0.09704   0.10695   0.10945
 Alpha virt. eigenvalues --    0.11737   0.11967   0.12312   0.12566   0.13453
 Alpha virt. eigenvalues --    0.13740   0.14031   0.14186   0.14854   0.15362
 Alpha virt. eigenvalues --    0.15428   0.16697   0.16851   0.17011   0.17362
 Alpha virt. eigenvalues --    0.18021   0.18563   0.19327   0.20035   0.20133
 Alpha virt. eigenvalues --    0.20814   0.21195   0.21656   0.21994   0.22996
 Alpha virt. eigenvalues --    0.24181   0.24286   0.26434   0.26979   0.27752
[...]
    28   Atom       -0.000576      0.002760     -0.002185
    29   Atom        0.001272      0.007947     -0.009218
    30   Atom       -0.007914      0.020625     -0.012712
    31   Atom        0.001039     -0.000397     -0.000642
    32   Atom        0.002104     -0.001183     -0.000922
    33   Atom        0.001342     -0.000630     -0.000712
    34   Atom        0.000417     -0.000614      0.000197
    35   Atom       -0.000035      0.000824     -0.000789
    36   Atom       -0.000189      0.000785     -0.000596
    37   Atom        0.000270      0.000315     -0.000586
    38   Atom        0.000270      0.000237     -0.000508
    39   Atom        0.066638      0.020029     -0.086667
    40   Atom       -0.155108      0.214093     -0.058985
    41   Atom        0.002627      0.001692     -0.004319
    42   Atom       -0.003197      0.005229     -0.002032
    43   Atom       -0.001536      0.000498      0.001038
    44   Atom       -0.008207      0.008564     -0.000356
    45   Atom       -0.000305      0.002733     -0.002427
    46   Atom        0.012572     -0.007810     -0.004762
    47   Atom        0.004549     -0.002320     -0.002230
 --------------------------------------------------------
                        XY            XZ            YZ
 --------------------------------------------------------
     1   Atom       -0.001035     -0.000484     -0.020534
     2   Atom        0.026796     -0.022043     -0.108412
     3   Atom       -0.012993      0.021791     -0.076983
     4   Atom        0.008433     -0.013696     -0.735126
     5   Atom        0.020855     -0.040813      0.090450
     6   Atom       -0.263394      0.499874     -0.529517
     7   Atom        0.002635     -0.000537      0.037323
     8   Atom        0.001820      0.001125      0.002751
     9   Atom       -0.004852     -0.003787      0.002350
    10   Atom        0.013761      0.018071      0.012754
    11   Atom        0.001553      0.000419      0.000894
    12   Atom        0.005163     -0.000819     -0.001180
    13   Atom        0.001187     -0.001152     -0.000092
    14   Atom        0.000525      0.000059      0.000240
    15   Atom        0.000294      0.000003      0.000143
    16   Atom        0.000433      0.000232      0.000428
    17   Atom        0.000478      0.000074      0.000105
    18   Atom        0.001120      0.000216      0.000267
    19   Atom        0.000834      0.000158      0.000055
    20   Atom        0.000623      0.000284      0.000324
    21   Atom        0.001077      0.000333      0.000032
    22   Atom        0.000809      0.004342      0.007488
    23   Atom       -0.025827      0.055761     -0.030746
    24   Atom        0.010426     -0.021912     -0.014353
    25   Atom       -0.000716     -0.000007      0.001802
    26   Atom       -0.002845     -0.002168      0.004791
    27   Atom        0.001340      0.000990     -0.000057
    28   Atom       -0.002827     -0.000492      0.000688
    29   Atom       -0.020150     -0.010798      0.012021
    30   Atom       -0.013691      0.002133     -0.005331
    31   Atom       -0.001290      0.001246     -0.000732
    32   Atom       -0.002187      0.002485     -0.001208
    33   Atom       -0.001042      0.000636     -0.000191
    34   Atom       -0.000832      0.001159     -0.000696
    35   Atom       -0.001150     -0.000258      0.000334
    36   Atom       -0.000767      0.000021     -0.000080
    37   Atom       -0.001037     -0.000553      0.000597
    38   Atom       -0.000724     -0.000131      0.000103
    39   Atom        0.014231     -0.050590      0.055084
    40   Atom       -0.476812      0.383803     -0.585756
    41   Atom       -0.004133     -0.001334     -0.000719
    42   Atom       -0.000135      0.000625     -0.004928
    43   Atom       -0.001701      0.003612     -0.003839
    44   Atom        0.004723      0.002333      0.006257
    45   Atom       -0.002866     -0.009884     -0.001692
    46   Atom        0.004775      0.006832      0.005987
    47   Atom       -0.004077     -0.006315      0.007088
 --------------------------------------------------------


 ---------------------------------------------------------------------------------
              Anisotropic Spin Dipole Couplings in Principal Axis System
 ---------------------------------------------------------------------------------

       Atom             a.u.   MegaHertz   Gauss  10(-4) cm-1        Axes

              Baa    -0.0155    -2.081    -0.743    -0.694  0.3623  0.7469  0.5576
     1 C(13)  Bbb    -0.0122    -1.637    -0.584    -0.546  0.9320 -0.2866 -0.2217
              Bcc     0.0277     3.718     1.327     1.240  0.0058 -0.6000  0.8000
 
              Baa    -0.0770   -10.330    -3.686    -3.446  0.8543  0.2079  0.4764
     2 C(13)  Bbb    -0.0754   -10.123    -3.612    -3.377 -0.4966  0.5968  0.6302
              Bcc     0.1524    20.452     7.298     6.822  0.1533  0.7750 -0.6131
 
              Baa    -0.0661    -8.872    -3.166    -2.959  0.9812 -0.0272 -0.1909
     3 C(13)  Bbb    -0.0498    -6.679    -2.383    -2.228  0.1320  0.8164  0.5622
              Bcc     0.1159    15.551     5.549     5.187  0.1405 -0.5769  0.8046
 
              Baa    -0.6012   -23.189    -8.274    -7.735 -0.2306  0.8646  0.4464
     4 N(14)  Bbb    -0.5960   -22.986    -8.202    -7.667  0.9730  0.2006  0.1139
              Bcc     1.1972    46.175    16.476    15.402 -0.0089 -0.4606  0.8876
 
              Baa    -0.1462   -19.618    -7.000    -6.544  0.1911 -0.5812  0.7910
     5 C(13)  Bbb     0.0500     6.713     2.395     2.239  0.1617  0.8135  0.5586
              Bcc     0.0962    12.905     4.605     4.305  0.9682 -0.0211 -0.2495
 
              Baa    -0.5259    38.057    13.580    12.694  0.3748  0.8867  0.2706
     6 O(17)  Bbb    -0.5067    36.668    13.084    12.231  0.8366 -0.1977 -0.5109
              Bcc     1.0327   -74.725   -26.664   -24.926  0.3995 -0.4179  0.8159
 
              Baa    -0.0480    -1.851    -0.661    -0.617  0.0315 -0.6740  0.7381
     7 N(14)  Bbb     0.0206     0.793     0.283     0.265  0.9707 -0.1552 -0.1832
              Bcc     0.0274     1.058     0.377     0.353  0.2381  0.7223  0.6493
 
              Baa    -0.0024    -0.323    -0.115    -0.108  0.2033 -0.6141  0.7626
     8 C(13)  Bbb    -0.0019    -0.260    -0.093    -0.087  0.9090 -0.1711 -0.3802
              Bcc     0.0043     0.583     0.208     0.194  0.3639  0.7705  0.5234
 
              Baa    -0.0049    -2.452    -0.875    -0.818  0.7549  0.4758  0.4514
     9 F(19)  Bbb    -0.0027    -1.351    -0.482    -0.450 -0.0579 -0.6372  0.7685
              Bcc     0.0076     3.803     1.357     1.268  0.6533 -0.6063 -0.4535
 
              Baa    -0.0172    -8.615    -3.074    -2.874 -0.5874  0.8092  0.0132
    10 F(19)  Bbb    -0.0138    -6.933    -2.474    -2.312 -0.5209 -0.3906  0.7590
              Bcc     0.0310    15.547     5.548     5.186  0.6193  0.4390  0.6510
 
              Baa    -0.0017    -0.223    -0.080    -0.074  0.0251 -0.2843  0.9584
    11 C(13)  Bbb    -0.0010    -0.137    -0.049    -0.046  0.8638 -0.4765 -0.1639
              Bcc     0.0027     0.360     0.128     0.120  0.5033  0.8319  0.2336
 
              Baa    -0.0039    -1.978    -0.706    -0.660 -0.0100  0.1647  0.9863
    12 F(19)  Bbb    -0.0035    -1.765    -0.630    -0.589  0.8068 -0.5814  0.1053
              Bcc     0.0075     3.743     1.336     1.249  0.5907  0.7968 -0.1271
 
              Baa    -0.0017     0.126     0.045     0.042  0.6016 -0.2742  0.7503
    13 O(17)  Bbb    -0.0002     0.011     0.004     0.004 -0.4083  0.7017  0.5838
              Bcc     0.0019    -0.137    -0.049    -0.046  0.6866  0.6575 -0.3102
 
              Baa    -0.0005    -0.073    -0.026    -0.024  0.3198 -0.3098  0.8954
    14 C(13)  Bbb    -0.0004    -0.057    -0.020    -0.019  0.8544 -0.3141 -0.4139
              Bcc     0.0010     0.130     0.047     0.044  0.4095  0.8974  0.1642
 
              Baa    -0.0004    -0.221    -0.079    -0.074  0.3544 -0.2091  0.9114
    15 F(19)  Bbb    -0.0003    -0.171    -0.061    -0.057  0.8961 -0.2026 -0.3949
              Bcc     0.0008     0.392     0.140     0.131  0.2672  0.9567  0.1156
 
              Baa    -0.0005    -0.243    -0.087    -0.081 -0.2537 -0.3053  0.9178
    16 F(19)  Bbb    -0.0004    -0.196    -0.070    -0.065  0.8684 -0.4899  0.0770
              Bcc     0.0009     0.439     0.157     0.146  0.4261  0.8165  0.3894
 
              Baa    -0.0004    -0.192    -0.069    -0.064 -0.1871 -0.0179  0.9822
    17 F(19)  Bbb    -0.0003    -0.172    -0.062    -0.057  0.8241 -0.5471  0.1470
              Bcc     0.0007     0.364     0.130     0.122  0.5347  0.8369  0.1172
 
              Baa    -0.0008    -0.107    -0.038    -0.036 -0.5748  0.6635 -0.4789
    18 C(13)  Bbb    -0.0007    -0.097    -0.035    -0.032 -0.4409  0.2419  0.8643
              Bcc     0.0015     0.203     0.073     0.068  0.6893  0.7080  0.1536
 
              Baa    -0.0007    -0.344    -0.123    -0.115 -0.2676  0.2170  0.9388
    19 F(19)  Bbb    -0.0005    -0.260    -0.093    -0.087 -0.5504  0.7652 -0.3338
              Bcc     0.0012     0.604     0.215     0.201  0.7908  0.6061  0.0854
 
              Baa    -0.0005    -0.256    -0.091    -0.086  0.0318 -0.4433  0.8958
    20 F(19)  Bbb    -0.0004    -0.218    -0.078    -0.073  0.7482 -0.5837 -0.3154
              Bcc     0.0009     0.474     0.169     0.158  0.6627  0.6803  0.3131
 
              Baa    -0.0010    -0.505    -0.180    -0.168 -0.5035  0.7971  0.3333
    21 F(19)  Bbb    -0.0006    -0.289    -0.103    -0.096  0.0505 -0.3580  0.9324
              Bcc     0.0016     0.794     0.283     0.265  0.8625  0.4863  0.1400
 
              Baa    -0.0105    -1.408    -0.502    -0.470 -0.3895 -0.3442  0.8543
    22 C(13)  Bbb    -0.0007    -0.093    -0.033    -0.031  0.8980 -0.3483  0.2691
              Bcc     0.0112     1.501     0.536     0.501  0.2049  0.8719  0.4447
 
              Baa    -0.0602     4.353     1.553     1.452  0.8445  0.0950 -0.5271
    23 O(17)  Bbb    -0.0203     1.469     0.524     0.490  0.1616  0.8931  0.4199
              Bcc     0.0805    -5.823    -2.078    -1.942  0.5106 -0.4398  0.7388
 
              Baa    -0.0351    -1.354    -0.483    -0.452  0.4751  0.1391  0.8689
    24 N(14)  Bbb     0.0012     0.046     0.016     0.015  0.7084 -0.6462 -0.2839
              Bcc     0.0339     1.309     0.467     0.436  0.5219  0.7504 -0.4056
 
              Baa    -0.0027    -0.360    -0.128    -0.120 -0.1718 -0.2870  0.9424
    25 C(13)  Bbb    -0.0016    -0.211    -0.075    -0.071  0.9780  0.0656  0.1982
              Bcc     0.0043     0.571     0.204     0.191 -0.1187  0.9557  0.2694
 
              Baa    -0.0044    -2.187    -0.780    -0.729  0.1013 -0.5379  0.8369
    26 F(19)  Bbb    -0.0030    -1.494    -0.533    -0.498  0.9221  0.3665  0.1239
              Bcc     0.0073     3.681     1.313     1.228 -0.3734  0.7592  0.5331
 
              Baa    -0.0021    -1.038    -0.370    -0.346 -0.5770  0.7909  0.2038
    27 F(19)  Bbb     0.0002     0.125     0.045     0.042 -0.5084 -0.5431  0.6682
              Bcc     0.0018     0.913     0.326     0.305  0.6392  0.2819  0.7155
 
              Baa    -0.0023    -0.314    -0.112    -0.105  0.4827  0.1511  0.8626
    28 C(13)  Bbb    -0.0021    -0.287    -0.103    -0.096  0.7236  0.4861 -0.4901
              Bcc     0.0045     0.601     0.215     0.201 -0.4934  0.8607  0.1253
 
              Baa    -0.0162    -8.117    -2.896    -2.708  0.7413  0.3274  0.5859
    29 F(19)  Bbb    -0.0153    -7.677    -2.739    -2.561 -0.2931 -0.6274  0.7214
              Bcc     0.0314    15.795     5.636     5.269 -0.6038  0.7065  0.3692
 
              Baa    -0.0135     0.980     0.350     0.327  0.0234  0.1632  0.9863
    30 O(17)  Bbb    -0.0134     0.971     0.346     0.324  0.9290  0.3608 -0.0817
              Bcc     0.0270    -1.951    -0.696    -0.651 -0.3692  0.9182 -0.1432
 
              Baa    -0.0013    -0.176    -0.063    -0.059 -0.3630  0.2139  0.9069
    31 C(13)  Bbb    -0.0012    -0.155    -0.055    -0.052  0.5070  0.8619 -0.0003
              Bcc     0.0025     0.331     0.118     0.110  0.7818 -0.4597  0.4213
 
              Baa    -0.0023    -1.166    -0.416    -0.389 -0.5674 -0.2611  0.7810
    32 F(19)  Bbb    -0.0023    -1.135    -0.405    -0.379  0.1934  0.8796  0.4346
              Bcc     0.0046     2.302     0.821     0.768  0.8004 -0.3976  0.4485
 
              Baa    -0.0011    -0.554    -0.198    -0.185  0.4393  0.8461 -0.3021
    33 F(19)  Bbb    -0.0009    -0.428    -0.153    -0.143 -0.0890  0.3756  0.9225
              Bcc     0.0020     0.982     0.350     0.327  0.8939 -0.3783  0.2403
 
              Baa    -0.0011    -0.544    -0.194    -0.181  0.4058  0.9053  0.1250
    34 F(19)  Bbb    -0.0009    -0.427    -0.152    -0.142 -0.6052  0.1637  0.7791
              Bcc     0.0019     0.971     0.346     0.324  0.6849 -0.3918  0.6144
 
              Baa    -0.0009    -0.117    -0.042    -0.039  0.4744  0.1508  0.8673
    35 C(13)  Bbb    -0.0008    -0.110    -0.039    -0.037  0.6765  0.5679 -0.4688
              Bcc     0.0017     0.227     0.081     0.076 -0.5633  0.8091  0.1674
 
              Baa    -0.0006    -0.314    -0.112    -0.105  0.6824  0.4054  0.6083
    36 F(19)  Bbb    -0.0006    -0.294    -0.105    -0.098 -0.5507 -0.2621  0.7925
              Bcc     0.0012     0.608     0.217     0.203 -0.4808  0.8757 -0.0444
 
              Baa    -0.0009    -0.446    -0.159    -0.149  0.1354 -0.3444  0.9290
    37 F(19)  Bbb    -0.0007    -0.372    -0.133    -0.124  0.7441  0.6544  0.1342
              Bcc     0.0016     0.818     0.292     0.273 -0.6542  0.6731  0.3449
 
              Baa    -0.0005    -0.267    -0.095    -0.089  0.2718  0.1283  0.9538
    38 F(19)  Bbb    -0.0005    -0.233    -0.083    -0.078  0.6477  0.7086 -0.2799
              Bcc     0.0010     0.500     0.178     0.167  0.7117 -0.6939 -0.1095
 
              Baa    -0.1243   -16.674    -5.950    -5.562  0.2638 -0.3666  0.8922
    39 C(13)  Bbb     0.0423     5.679     2.026     1.894  0.1551  0.9290  0.3359
              Bcc     0.0819    10.995     3.923     3.668  0.9520 -0.0498 -0.3019
 
              Baa    -0.5242    37.931    13.535    12.653 -0.0724  0.5908  0.8036
    40 O(17)  Bbb    -0.4784    34.617    12.352    11.547  0.8811  0.4154 -0.2261
              Bcc     1.0026   -72.549   -25.887   -24.200 -0.4674  0.6916 -0.5506
 
              Baa    -0.0050    -2.676    -0.955    -0.893  0.3150  0.2910  0.9034
    41 H(1)   Bbb    -0.0013    -0.709    -0.253    -0.236  0.5810  0.6935 -0.4260
              Bcc     0.0063     3.385     1.208     1.129  0.7505 -0.6591 -0.0494
 
              Baa    -0.0047    -2.502    -0.893    -0.835 -0.3184  0.4184  0.8507
    42 H(1)   Bbb    -0.0030    -1.625    -0.580    -0.542  0.9473  0.1753  0.2683
              Bcc     0.0077     4.127     1.472     1.376 -0.0369  0.8912 -0.4521
 
              Baa    -0.0043    -2.313    -0.825    -0.772  0.6861 -0.2889 -0.6677
    43 H(1)   Bbb    -0.0021    -1.134    -0.405    -0.378  0.5827  0.7678  0.2665
              Bcc     0.0065     3.447     1.230     1.150  0.4356 -0.5719  0.6951
 
              Baa    -0.0095    -5.075    -1.811    -1.693  0.9707 -0.2201 -0.0970
    44 H(1)   Bbb    -0.0036    -1.909    -0.681    -0.637 -0.0138 -0.4538  0.8910
              Bcc     0.0131     6.984     2.492     2.330  0.2401  0.8635  0.4435
 
              Baa    -0.0120    -6.399    -2.283    -2.135  0.6608  0.2114  0.7202
    45 H(1)   Bbb     0.0032     1.727     0.616     0.576 -0.0060  0.9610 -0.2766
              Bcc     0.0088     4.672     1.667     1.558  0.7505 -0.1785 -0.6363
 
              Baa    -0.0125    -6.655    -2.375    -2.220  0.0217  0.7803 -0.6251
    46 H(1)   Bbb    -0.0042    -2.256    -0.805    -0.752 -0.4434  0.5679  0.6935
              Bcc     0.0167     8.911     3.180     2.972  0.8960  0.2621  0.3583
 
              Baa    -0.0096    -5.120    -1.827    -1.708  0.1479 -0.6463  0.7486
    47 H(1)   Bbb    -0.0025    -1.331    -0.475    -0.444  0.6961  0.6057  0.3854
              Bcc     0.0121     6.452     2.302     2.152  0.7025 -0.4641 -0.5395
 

 ---------------------------------------------------------------------------------

 No NMR shielding tensors so no spin-rotation constants.
 Leave Link  601 at Tue Mar  5 12:18:59 2024, MaxMem=  5368709120 cpu:         5.8
 (Enter /home/k0335/k033513/app/g09/l9999.exe)
 1\1\GINC-C18U01N3\SP\UCAM-B3LYP\6-31G(d,p)\C14H7F18N3O5(1+,2)\K033513\
 05-Mar-2024\0\\#p CAM-B3LYP/6-31G(d,p) SCRF=(PCM,Solvent=Generic,Read)
  NoSymm out=wfn\\Title A126125640_p1\\1,2\C,0,-0.942257,4.439551,-0.70
 8036\C,0,0.372864,4.148532,-0.00078\C,0,0.286844,2.985108,0.993946\N,0
 ,0.059274,1.689755,0.349282\C,0,-1.231161,1.219129,0.231963\O,0,-2.166
 608,1.724491,0.846901\N,0,-1.389447,0.155007,-0.61817\C,0,-2.750595,-0
 .299761,-0.880671\F,0,-2.799349,-0.861927,-2.118292\F,0,-3.549673,0.79
 7667,-1.01724\C,0,-3.332816,-1.260993,0.19014\F,0,-3.257049,-0.630879,
 1.412819\O,0,-2.546496,-2.438955,0.412878\C,0,-2.849318,-3.524222,-0.4
 33054\F,0,-1.873207,-4.4421,-0.323688\F,0,-2.953846,-3.134944,-1.70810
 9\F,0,-4.006349,-4.081617,-0.040531\C,0,-4.823994,-1.444848,-0.121808\
 F,0,-5.409719,-2.250261,0.799215\F,0,-5.042517,-2.004604,-1.329786\F,0
 ,-5.508377,-0.279637,-0.095636\C,0,-0.353907,-0.706069,-0.879345\O,0,-
 0.565524,-1.794697,-1.409196\N,0,0.909983,-0.297854,-0.511169\C,0,2.00
 714,-1.186237,-0.902878\F,0,2.077971,-1.190344,-2.262848\F,0,1.632576,
 -2.451694,-0.538107\C,0,3.427815,-0.97436,-0.315257\F,0,4.021243,0.096
 411,-0.919366\O,0,3.311406,-0.68191,1.086472\C,0,4.558764,-0.606254,1.
 729098\F,0,4.986466,-1.851618,1.994989\F,0,5.466484,0.0441,0.987943\F,
 0,4.393718,0.047045,2.89453\C,0,4.225483,-2.23631,-0.679117\F,0,3.8022
 51,-3.320098,0.010376\F,0,4.160986,-2.536135,-1.994128\F,0,5.540746,-2
 .086934,-0.385229\C,0,1.143268,1.003939,-0.158975\O,0,2.238019,1.54463
 7,-0.272751\H,0,-1.745979,4.618954,0.01291\H,0,-0.842667,5.33319,-1.33
 2532\H,0,-1.237238,3.611849,-1.359746\H,0,0.678082,5.048484,0.546267\H
 ,0,1.146904,3.954934,-0.751791\H,0,1.230676,2.928839,1.550274\H,0,-0.5
 0087,3.183639,1.729432\\Version=ES64L-G09RevD.01\HF=-2874.0434023\S2=0
 .78184\S2-1=0.\S2A=0.750621\RMSD=6.503e-09\Dipole=0.3453581,5.4585342,
 0.8173973\Quadrupole=-7.1719747,16.0043352,-8.8323605,0.9040838,2.8563
 232,1.3210875\PG=C01 [X(C14H7F18N3O5)]\\@

 Writing a WFN file to "A126125640/A126125640_p1.wfn"


 NOBODY LOSES ALL THE TIME
 I HAD AN UNCLE NAMED
 SOL WHO WAS A BORN FAILURE AND
 NEARLY EVERYBODY SAID HE SHOULD HAVE GONE
 INTO VAUDEVILLE PERHAPS BECAUSE MY UNCLE SOL COULD
 SING MCCANN HE WAS A DIVER ON XMAS EVE LIKE HELL ITSELF WHICH
 MAY OR MAY NOT ACCOUNT FOR THE FACT THAT MY UNCLE
 SOL INDULGED IN THAT POSSIBLY MOST INEXCUSABLE
 OF ALL TO USE A HIGHFALOOTIN PHRASE
 LUXURIES THAT IS OR TO
 WIT FARMING AND BE
 IT NEEDLESSLY
 ADDED
 MY UNCLE SOL'S FARM     
 FAILED BECAUSE THE CHICKENS
 ATE THE VEGETABLES SO
 MY UNCLE SOL HAD A
 CHICKEN FARM TILL THE
 SKUNKS ATE THE CHICKENS WHEN 
 MY UNCLE SOL
 HAD A SKUNK FARM BUT
 THE SKUNKS CAUGHT COLD AND
 DIED AND SO
 MY UNCLE SOL IMITATED THE
 SKUNKS IN A SUBTLE MANNER
 OR BY DROWNING HIMSELF IN THE WATERTANK
 BUT SOMEBODY WHO'D GIVEN MY UNCLE SOL A VICTOR     
 VICTROLA AND RECORDS WHILE HE LIVED PRESENTED TO
 HIM UPON THE AUSPICIOUS OCCASION OF HIS DECEASE A
 SCRUMPTIOUS NOT TO MENTION SPLENDIFEROUS FUNERAL WITH
 TALL BOYS IN BLACK GLOVES AND FLOWERS AND EVERYTHING AND
 I REMEMBER WE ALL CRIED LIKE THE MISSOURI
 WHEN MY UNCLE SOL'S COFFIN LURCHED BECAUSE     
 SOMEBODY PRESSED A BUTTON
 (AND DOWN WENT
 MY UNCLE
 SOL
 AND STARTED A WORM FARM)
           E. E. CUMMINGS
 Job cpu time:       0 days  1 hours 12 minutes 22.4 seconds.
 File lengths (MBytes):  RWF=    608 Int=      0 D2E=      0 Chk=     21 Scr=      1
 Normal termination of Gaussian 09 at Tue Mar  5 12:18:59 2024.
