 Entering Gaussian System, Link 0=g09
 Initial command:
 /home/k0335/k033513/app/g09/l1.exe "/home/k0335/k033513/app/g09/scratch/Gau-415677.inp" -scrdir="/home/k0335/k033513/app/g09/scratch/"
 Default is to use a total of  36 processors:
                               36 via shared-memory
                                1 via Linda
 Entering Link 1 = /home/k0335/k033513/app/g09/l1.exe PID=    415678.
  
 Copyright (c) 1988,1990,1992,1993,1995,1998,2003,2009,2013,
            Gaussian, Inc.  All Rights Reserved.
  
 This is part of the Gaussian(R) 09 program.  It is based on
 the Gaussian(R) 03 system (copyright 2003, Gaussian, Inc.),
 the Gaussian(R) 98 system (copyright 1998, Gaussian, Inc.),
 the Gaussian(R) 94 system (copyright 1995, Gaussian, Inc.),
 the Gaussian 92(TM) system (copyright 1992, Gaussian, Inc.),
 the Gaussian 90(TM) system (copyright 1990, Gaussian, Inc.),
 the Gaussian 88(TM) system (copyright 1988, Gaussian, Inc.),
 the Gaussian 86(TM) system (copyright 1986, Carnegie Mellon
 University), and the Gaussian 82(TM) system (copyright 1983,
 Carnegie Mellon University). Gaussian is a federally registered
 trademark of Gaussian, Inc.
  
 This software contains proprietary and confidential information,
 including trade secrets, belonging to Gaussian, Inc.
  
 This software is provided under written license and may be
 used, copied, transmitted, or stored only in accord with that
 written license.
  
 The following legend is applicable only to US Government
 contracts under FAR:
  
                    RESTRICTED RIGHTS LEGEND
  
 Use, reproduction and disclosure by the US Government is
 subject to restrictions as set forth in subparagraphs (a)
 and (c) of the Commercial Computer Software - Restricted
 Rights clause in FAR 52.227-19.
  
 Gaussian, Inc.
 340 Quinnipiac St., Bldg. 40, Wallingford CT 06492
  
  
 ---------------------------------------------------------------
 Warning -- This program may not be used in any manner that
 competes with the business of Gaussian, Inc. or will provide
 assistance to any competitor of Gaussian, Inc.  The licensee
 of this program is prohibited from giving any competitor of
 Gaussian, Inc. access to this program.  By using this program,
 the user acknowledges that Gaussian, Inc. is engaged in the
 business of creating and licensing software in the field of
 computational chemistry and represents and warrants to the
 licensee that it is not a competitor of Gaussian, Inc. and that
 it will not use this program in any manner prohibited above.
 ---------------------------------------------------------------
  

 Cite this work as:
 Gaussian 09, Revision D.01,
 M. J. Frisch, G. W. Trucks, H. B. Schlegel, G. E. Scuseria, 
 M. A. Robb, J. R. Cheeseman, G. Scalmani, V. Barone, B. Mennucci, 
 G. A. Petersson, H. Nakatsuji, M. Caricato, X. Li, H. P. Hratchian, 
 A. F. Izmaylov, J. Bloino, G. Zheng, J. L. Sonnenberg, M. Hada, 
 M. Ehara, K. Toyota, R. Fukuda, J. Hasegawa, M. Ishida, T. Nakajima, 
 Y. Honda, O. Kitao, H. Nakai, T. Vreven, J. A. Montgomery, Jr., 
 J. E. Peralta, F. Ogliaro, M. Bearpark, J. J. Heyd, E. Brothers, 
 K. N. Kudin, V. N. Staroverov, T. Keith, R. Kobayashi, J. Normand, 
 K. Raghavachari, A. Rendell, J. C. Burant, S. S. Iyengar, J. Tomasi, 
 M. Cossi, N. Rega, J. M. Millam, M. Klene, J. E. Knox, J. B. Cross, 
 V. Bakken, C. Adamo, J. Jaramillo, R. Gomperts, R. E. Stratmann, 
 O. Yazyev, A. J. Austin, R. Cammi, C. Pomelli, J. W. Ochterski, 
 R. L. Martin, K. Morokuma, V. G. Zakrzewski, G. A. Voth, 
 P. Salvador, J. J. Dannenberg, S. Dapprich, A. D. Daniels, 
 O. Farkas, J. B. Foresman, J. V. Ortiz, J. Cioslowski, 
 and D. J. Fox, Gaussian, Inc., Wallingford CT, 2013.
 
 ******************************************
 Gaussian 09:  ES64L-G09RevD.01 24-Apr-2013
                 3-Mar-2024 
 ******************************************
 %nprocshared=24
 Will use up to   24 processors via shared memory.
 %mem=40GB
 %rwf=A124553252/A124553252_0.rwf
 %nosave
 %chk=A124553252/A124553252_0.chk
 ----------------------------------------------------------------------
 #p CAM-B3LYP/6-31G(d,p) SCRF=(PCM,Solvent=Generic,Read) NoSymm out=wfn
 ----------------------------------------------------------------------
 1/38=1,40=2/1;
 2/12=2,15=1,17=6,18=5,40=1/2;
 3/5=1,6=6,7=101,11=2,16=1,25=1,30=1,70=2203,72=-2,74=-40/1,2,3;
 4//1;
 5/5=2,38=5/2;
 6/7=2,8=2,9=2,10=2,28=1/1;
 99/5=1,6=100,9=1/99;
 Leave Link    1 at Sun Mar  3 18:20:02 2024, MaxMem=  5368709120 cpu:         2.0
 (Enter /home/k0335/k033513/app/g09/l101.exe)
 ------------------
 Title A124553252_0
 ------------------
 Symbolic Z-matrix:
 Charge =  0 Multiplicity = 1
 O                     1.63758   1.1913    2.72634 
 C                     0.76393   0.88497   1.92474 
 O                    -0.43418   0.46958   2.38587 
 C                    -1.45301   0.17409   1.55129 
 O                    -2.5067   -0.22864   2.02522 
 N                    -1.26849   0.34189   0.21257 
 C                    -2.29916  -0.07899  -0.73111 
 F                    -2.04339   0.57357  -1.91173 
 F                    -2.09081  -1.39683  -1.01395 
 C                    -3.82647   0.13902  -0.47482 
 F                    -4.49902  -0.1452   -1.64301 
 O                    -4.49975  -0.62669   0.5215 
 C                    -4.37456  -2.01572   0.34616 
 F                    -4.52226  -2.36812  -0.9413 
 F                    -3.17199  -2.4278    0.78558 
 F                    -5.32891  -2.62792   1.07234 
 C                    -4.01795   1.6351   -0.22436 
 F                    -3.58421   2.3876   -1.26196 
 F                    -3.33852   2.06853   0.86406 
 F                    -5.32      1.95059  -0.02731 
 C                     0.01255   0.37576  -0.26614 
 O                     0.32527  -0.07129  -1.36469 
 N                     0.95073   0.89487   0.57397 
 C                     2.28705   1.18032   0.07823 
 F                     2.67094   2.36768   0.65402 
 F                     2.22786   1.50498  -1.24831 
 C                     3.43294   0.15116   0.29584 
 F                     3.56358  -0.10552   1.62989 
 O                     4.65751   0.7864   -0.10945 
 C                     5.76342  -0.07593  -0.10655 
 F                     6.88631   0.6652   -0.10028 
 F                     5.76174  -0.87429   0.97147 
 F                     5.74274  -0.81458  -1.22846 
 C                     3.06406  -1.14501  -0.4264 
 F                     1.89393  -1.64421   0.04219 
 F                     2.95368  -0.97921  -1.75786 
 F                     3.98357  -2.11667  -0.22171 
 
 NAtoms=     37 NQM=       37 NQMF=       0 NMMI=      0 NMMIF=      0
                NMic=       0 NMicF=      0.
                    Isotopes and Nuclear Properties:
 (Nuclear quadrupole moments (NQMom) in fm**2, nuclear magnetic moments (NMagM)
  in nuclear magnetons)

  Atom         1           2           3           4           5           6           7           8           9          10
 IAtWgt=          16          12          16          12          16          14          12          19          19          12
 AtmWgt=  15.9949146  12.0000000  15.9949146  12.0000000  15.9949146  14.0030740  12.0000000  18.9984033  18.9984033  12.0000000
 NucSpn=           0           0           0           0           0           2           0           1           1           0
 AtZEff=   0.0000000   0.0000000   0.0000000   0.0000000   0.0000000   0.0000000   0.0000000   0.0000000   0.0000000   0.0000000
 NQMom=    0.0000000   0.0000000   0.0000000   0.0000000   0.0000000   2.0440000   0.0000000   0.0000000   0.0000000   0.0000000
 NMagM=    0.0000000   0.0000000   0.0000000   0.0000000   0.0000000   0.4037610   0.0000000   2.6288670   2.6288670   0.0000000
 AtZNuc=   8.0000000   6.0000000   8.0000000   6.0000000   8.0000000   7.0000000   6.0000000   9.0000000   9.0000000   6.0000000

  Atom        11          12          13          14          15          16          17          18          19          20
 IAtWgt=          19          16          12          19          19          19          12          19          19          19
 AtmWgt=  18.9984033  15.9949146  12.0000000  18.9984033  18.9984033  18.9984033  12.0000000  18.9984033  18.9984033  18.9984033
 NucSpn=           1           0           0           1           1           1           0           1           1           1
 AtZEff=   0.0000000   0.0000000   0.0000000   0.0000000   0.0000000   0.0000000   0.0000000   0.0000000   0.0000000   0.0000000
 NQMom=    0.0000000   0.0000000   0.0000000   0.0000000   0.0000000   0.0000000   0.0000000   0.0000000   0.0000000   0.0000000
 NMagM=    2.6288670   0.0000000   0.0000000   2.6288670   2.6288670   2.6288670   0.0000000   2.6288670   2.6288670   2.6288670
 AtZNuc=   9.0000000   8.0000000   6.0000000   9.0000000   9.0000000   9.0000000   6.0000000   9.0000000   9.0000000   9.0000000

  Atom        21          22          23          24          25          26          27          28          29          30
 IAtWgt=          12          16          14          12          19          19          12          19          16          12
 AtmWgt=  12.0000000  15.9949146  14.0030740  12.0000000  18.9984033  18.9984033  12.0000000  18.9984033  15.9949146  12.0000000
 NucSpn=           0           0           2           0           1           1           0           1           0           0
 AtZEff=   0.0000000   0.0000000   0.0000000   0.0000000   0.0000000   0.0000000   0.0000000   0.0000000   0.0000000   0.0000000
 NQMom=    0.0000000   0.0000000   2.0440000   0.0000000   0.0000000   0.0000000   0.0000000   0.0000000   0.0000000   0.0000000
 NMagM=    0.0000000   0.0000000   0.4037610   0.0000000   2.6288670   2.6288670   0.0000000   2.6288670   0.0000000   0.0000000
 AtZNuc=   6.0000000   8.0000000   7.0000000   6.0000000   9.0000000   9.0000000   6.0000000   9.0000000   8.0000000   6.0000000

  Atom        31          32          33          34          35          36          37
 IAtWgt=          19          19          19          12          19          19          19
 AtmWgt=  18.9984033  18.9984033  18.9984033  12.0000000  18.9984033  18.9984033  18.9984033
 NucSpn=           1           1           1           0           1           1           1
 AtZEff=   0.0000000   0.0000000   0.0000000   0.0000000   0.0000000   0.0000000   0.0000000
 NQMom=    0.0000000   0.0000000   0.0000000   0.0000000   0.0000000   0.0000000   0.0000000
 NMagM=    2.6288670   2.6288670   2.6288670   0.0000000   2.6288670   2.6288670   2.6288670
 AtZNuc=   9.0000000   9.0000000   9.0000000   6.0000000   9.0000000   9.0000000   9.0000000
 Leave Link  101 at Sun Mar  3 18:20:02 2024, MaxMem=  5368709120 cpu:         0.9
 (Enter /home/k0335/k033513/app/g09/l202.exe)
                          Input orientation:                          
 ---------------------------------------------------------------------
 Center     Atomic      Atomic             Coordinates (Angstroms)
 Number     Number       Type             X           Y           Z
 ---------------------------------------------------------------------
      1          8           0        1.637576    1.191298    2.726343
      2          6           0        0.763932    0.884969    1.924740
      3          8           0       -0.434177    0.469582    2.385875
      4          6           0       -1.453011    0.174089    1.551293
      5          8           0       -2.506695   -0.228642    2.025225
      6          7           0       -1.268492    0.341894    0.212567
      7          6           0       -2.299163   -0.078993   -0.731111
      8          9           0       -2.043394    0.573571   -1.911726
      9          9           0       -2.090805   -1.396829   -1.013951
     10          6           0       -3.826468    0.139018   -0.474816
     11          9           0       -4.499023   -0.145197   -1.643008
     12          8           0       -4.499746   -0.626689    0.521495
     13          6           0       -4.374557   -2.015724    0.346161
     14          9           0       -4.522257   -2.368120   -0.941304
     15          9           0       -3.171989   -2.427803    0.785579
     16          9           0       -5.328912   -2.627924    1.072344
     17          6           0       -4.017949    1.635097   -0.224355
     18          9           0       -3.584206    2.387603   -1.261963
     19          9           0       -3.338521    2.068532    0.864055
     20          9           0       -5.320001    1.950591   -0.027305
     21          6           0        0.012547    0.375764   -0.266140
     22          8           0        0.325266   -0.071287   -1.364688
     23          7           0        0.950733    0.894874    0.573973
     24          6           0        2.287054    1.180315    0.078231
     25          9           0        2.670940    2.367678    0.654020
     26          9           0        2.227857    1.504982   -1.248310
     27          6           0        3.432935    0.151156    0.295844
     28          9           0        3.563576   -0.105516    1.629889
     29          8           0        4.657505    0.786404   -0.109454
     30          6           0        5.763418   -0.075927   -0.106553
     31          9           0        6.886311    0.665200   -0.100281
     32          9           0        5.761739   -0.874287    0.971467
     33          9           0        5.742744   -0.814583   -1.228464
     34          6           0        3.064056   -1.145010   -0.426397
     35          9           0        1.893928   -1.644211    0.042188
     36          9           0        2.953680   -0.979208   -1.757862
     37          9           0        3.983566   -2.116668   -0.221714
 ---------------------------------------------------------------------
                    Distance matrix (angstroms):
                    1          2          3          4          5
     1  O    0.000000
     2  C    1.224606   0.000000
     3  O    2.220125   1.349317   0.000000
     4  C    3.459362   2.357891   1.349765   0.000000
     5  O    4.436528   3.456476   2.216510   1.223541   0.000000
     6  N    3.935199   2.712419   2.331449   1.361761   2.268124
     7  C    5.391247   4.167171   3.673515   2.447323   2.768186
     8  F    5.953387   4.764086   4.590182   3.535624   4.044475
     9  F    5.881244   4.689566   4.217431   3.074905   3.282410
    10  C    6.419540   5.233172   4.449771   3.120841   2.850821
    11  F    7.650836   6.441177   5.756112   4.425346   4.175197
    12  O    6.770019   5.653363   4.605060   3.314261   2.528220
    13  C    7.217756   6.108191   5.085644   3.844874   3.082503
    14  F    8.004039   6.836709   5.986240   4.700653   4.176141
    15  F    6.324269   5.269119   4.295509   3.211082   2.610679
    16  F    8.115055   7.084472   5.939557   4.806587   3.824846
    17  C    6.394415   5.296007   4.584228   3.444761   3.289076
    18  F    6.678678   5.596364   5.187312   4.166059   4.337208
    19  F    5.385090   4.399545   3.647985   2.759775   2.705043
    20  F    7.521102   6.477675   5.646955   4.538892   4.108117
    21  C    3.501538   2.371460   2.691012   2.343415   3.458647
    22  O    4.478037   3.453576   3.864714   3.424241   4.419986
    23  N    2.278666   1.363658   2.319879   2.693078   3.914362
    24  C    2.726617   2.411789   3.638057   4.143729   5.362460
    25  F    2.597351   2.729439   4.030365   4.756459   5.952225
    26  F    4.030471   3.549048   4.622313   4.812260   6.011445
    27  C    3.195706   3.211754   4.407287   5.044715   6.197920
    28  F    2.567764   2.984293   4.109049   5.024988   6.084377
    29  O    4.162410   4.394038   5.679108   6.361715   7.544066
    30  C    5.162725   5.481271   6.702236   7.408631   8.541813
    31  F    5.984630   6.452328   7.733614   8.515467   9.671881
    32  F    4.935074   5.383473   6.495838   7.313543   8.360279
    33  F    6.042885   6.133493   7.270961   7.777108   8.887242
    34  C    4.175278   3.865130   4.770054   5.104427   6.154953
    35  F    3.912865   3.349275   3.921870   4.097025   5.030085
    36  F    5.152797   4.672442   5.545009   5.630233   6.685117
    37  F    5.013716   4.897258   5.744968   6.160153   7.122981
                    6          7          8          9         10
     6  N    0.000000
     7  C    1.459437   0.000000
     8  F    2.273053   1.372993   0.000000
     9  F    2.281163   1.363856   2.165808   0.000000
    10  C    2.656482   1.563930   2.330858   2.379500   0.000000
    11  F    3.757226   2.382294   2.572732   2.786002   1.377600
    12  O    3.387417   2.590668   3.659898   2.958666   1.425569
    13  C    3.901775   3.036232   4.151725   2.729186   2.370088
    14  F    4.388916   3.197879   3.967370   2.619283   2.643383
    15  F    3.409232   2.929007   4.190158   2.338840   2.933515
    16  F    5.103533   4.350733   5.472556   4.043953   3.508135
    17  C    3.069656   2.479744   2.805873   3.678304   1.528937
    18  F    3.423696   2.831472   2.467186   4.075988   2.394666
    19  F    2.773218   2.869962   3.408405   4.134299   2.398685
    20  F    4.365795   3.706753   4.022857   4.754619   2.390126
    21  C    1.367980   2.401459   2.640828   2.850508   3.851965
    22  O    2.280026   2.699835   2.515083   2.778035   4.251235
    23  N    2.315461   3.635036   3.904706   4.126058   4.949033
    24  C    3.655531   4.824342   4.804253   5.196170   6.226180
    25  F    4.451719   5.710229   5.659224   6.295066   6.961143
    26  F    3.963760   4.823938   4.421678   5.208289   6.254519
    27  C    4.706031   5.827912   5.919627   5.884176   7.300205
    28  F    5.055478   6.320343   6.666506   6.374120   7.687804
    29  O    5.951363   7.037798   6.942300   7.150127   8.516478
    30  C    7.051537   8.086736   8.039080   8.016045   9.599361
    31  F    8.167203   9.237137   9.112045   9.256099  10.732231
    32  F    7.174899   8.277041   8.445661   8.116488   9.749474
    33  F    7.250617   8.090780   7.938373   7.858086   9.646096
    34  C    4.624947   5.476619   5.589791   5.194345   7.009308
    35  F    3.738254   4.542016   4.923296   4.129737   6.014161
    36  F    4.842999   5.427427   5.235031   5.116116   6.990497
    37  F    5.815259   6.624522   6.813059   6.167965   8.133192
                   11         12         13         14         15
    11  F    0.000000
    12  O    2.217410   0.000000
    13  C    2.733342   1.405643   0.000000
    14  F    2.331162   2.274394   1.342968   0.000000
    15  F    3.587387   2.253151   1.345016   2.192923   0.000000
    16  F    3.771709   2.235149   1.346449   2.184712   2.185086
    17  C    2.326683   2.429835   3.712297   4.098059   4.271156
    18  F    2.719772   3.620068   4.753946   4.857948   5.248856
    19  F    3.540159   2.954659   4.245319   4.934008   4.500102
    20  F    2.770709   2.759778   4.094508   4.485873   4.944196
    21  C    4.745675   4.688930   5.033966   5.343145   4.371198
    22  O    4.832876   5.210269   5.366207   5.380815   4.733668
    23  N    5.974663   5.659119   6.073071   6.549566   5.299226
    24  C    7.125341   7.037215   7.393478   7.745809   6.581794
    25  F    7.937207   7.771907   8.303494   8.758706   7.560011
    26  F    6.937564   7.275773   7.650463   7.788402   6.982968
    27  C    8.170859   7.973919   8.102767   8.435779   7.107453
    28  F    8.701663   8.155815   8.265035   8.781293   7.174518
    29  O    9.330685   9.287097   9.467716   9.742229   8.510769
    30  C   10.377051  10.297102  10.331810  10.571001   9.282711
    31  F   11.517924  11.475970  11.584205  11.834854  10.560342
    32  F   10.613684  10.274330  10.219510  10.566494   9.069700
    33  F   10.271987  10.392606  10.309314  10.385865   9.280696
    34  C    7.725279   7.640567   7.529140   7.701511   6.480949
    35  F    6.779141   6.491853   6.286837   6.531365   5.179784
    36  F    7.500103   7.802134   7.694435   7.647580   6.789060
    37  F    8.823893   8.645171   8.378000   8.539910   7.232801
                   16         17         18         19         20
    16  F    0.000000
    17  C    4.644717   0.000000
    18  F    5.800733   1.353155   0.000000
    19  F    5.105070   1.354299   2.163821   0.000000
    20  F    4.708727   1.354143   2.174476   2.175936   0.000000
    21  C    6.272549   4.222862   4.239787   3.920773   5.565356
    22  O    6.666727   4.803709   4.619596   4.792646   6.143747
    23  N    7.217508   5.086557   5.115132   4.456380   6.387345
    24  C    8.572857   6.328621   6.142097   5.749221   7.646682
    25  F    9.440798   6.785975   6.542036   6.020567   8.030772
    26  F    8.920264   6.330522   5.878714   5.980321   7.658954
    27  C    9.224760   7.615009   7.527863   7.060581   8.941828
    28  F    9.260116   7.996717   8.103656   7.276808   9.267783
    29  O   10.619925   8.717625   8.474545   8.156470  10.045532
    30  C   11.443001   9.930590   9.735606   9.401387  11.267441
    31  F   12.705565  10.948013  10.674638  10.365639  12.274022
    32  F   11.228889  10.167069  10.147651   9.564855  11.479653
    33  F   11.452663  10.113372   9.861395   9.755017  11.466181
    34  C    8.653737   7.610822   7.574755   7.279087   8.946196
    35  F    7.361952   6.765737   6.925770   6.468265   8.060285
    36  F    8.906720   7.601963   7.370569   7.466924   8.946080
    37  F    9.415849   8.837420   8.868018   8.503396  10.155626
                   21         22         23         24         25
    21  C    0.000000
    22  O    1.226562   0.000000
    23  N    1.362152   2.254569   0.000000
    24  C    2.437063   2.738090   1.453613   0.000000
    25  F    3.446951   3.940294   2.265981   1.374312   0.000000
    26  F    2.673460   2.473463   2.307378   1.366976   2.135281
    27  C    3.473518   3.530503   2.606108   1.555496   2.371054
    28  F    4.054179   4.410818   2.990433   2.385479   2.804605
    29  O    4.665706   4.591246   3.770809   2.410276   2.651370
    30  C    5.770789   5.581794   4.956562   3.700999   4.014112
    31  F    6.881854   6.722235   5.978165   4.631455   4.608335
    32  F    6.012280   5.971404   5.141372   4.134331   4.490451
    33  F    5.931117   5.469928   5.397628   4.198674   4.806923
    34  C    3.413231   3.087757   3.102902   2.503102   3.696054
    35  F    2.777582   2.629466   2.760320   2.851981   4.131990
    36  F    3.565312   2.808463   3.600199   2.911901   4.135065
    37  F    4.688623   4.344322   4.347480   3.719975   4.753867
                   26         27         28         29         30
    26  F    0.000000
    27  C    2.381065   0.000000
    28  F    3.558353   1.364780   0.000000
    29  O    2.777865   1.437838   2.239981   0.000000
    30  C    4.037707   2.375845   2.802751   1.402379   0.000000
    31  F    4.870770   3.513824   3.824665   2.232118   1.345436
    32  F    4.803816   2.632742   2.420010   2.268395   1.341458
    33  F    4.211319   2.931106   3.663568   2.234522   1.343400
    34  C    2.897797   1.528970   2.357622   2.523865   2.920923
    35  F    3.419694   2.378282   2.770578   3.683510   4.177869
    36  F    2.637738   2.392722   3.551361   2.955952   3.381917
    37  F    4.153644   2.390416   2.765783   2.982385   2.710306
                   31         32         33         34         35
    31  F    0.000000
    32  F    2.187082   0.000000
    33  F    2.184102   2.200823   0.000000
    34  C    4.241797   3.050378   2.815646   0.000000
    35  F    5.502505   4.051704   4.137176   1.355719   0.000000
    36  F    4.573537   3.917326   2.843632   1.346281   2.192141
    37  F    4.022370   2.475700   2.409082   1.353334   2.158575
                   36         37
    36  F    0.000000
    37  F    2.171228   0.000000
 Symmetry turned off by external request.
 Stoichiometry    C11F18N2O6
 Framework group  C1[X(C11F18N2O6)]
 Deg. of freedom   105
 Full point group                 C1      NOp   1
 Rotational constants (GHZ):      0.2521649      0.0566866      0.0544938
 Leave Link  202 at Sun Mar  3 18:20:02 2024, MaxMem=  5368709120 cpu:         0.1
 (Enter /home/k0335/k033513/app/g09/l301.exe)
 Standard basis: 6-31G(d,p) (6D, 7F)
 Ernie: Thresh=  0.10000D-02 Tol=  0.10000D-05 Strict=F.
   555 basis functions,  1036 primitive gaussians,   555 cartesian basis functions
   145 alpha electrons      145 beta electrons
       nuclear repulsion energy      5392.7175042146 Hartrees.
 IExCor=20419 DFT=T Ex+Corr=CAM-B3LYP ExCW=0 ScaHFX=  1.000000
 ScaDFX=  1.000000  1.000000  1.000000  0.810000 ScalE2=  1.000000  1.000000
 IRadAn=      0 IRanWt=     -1 IRanGd=            0 ICorTp=0 IEmpDi=  4
  HFx wShort=  0.000000 wLong=  0.330000 cFull=  0.190000 cShort=  0.000000 cLong=  0.460000
  DFx wShort=  0.000000 wLong=  0.330000 cFull=  0.190000 cShort=  0.000000 cLong=  0.460000
 NAtoms=   37 NActive=   37 NUniq=   37 SFac= 1.00D+00 NAtFMM=   60 NAOKFM=F Big=F
 Integral buffers will be    131072 words long.
 Raffenetti 2 integral format.
 Two-electron integral symmetry is turned off.
 Using the following non-standard input for PCM:
 eps=4.9
 --- end of non-standard input.
 ------------------------------------------------------------------------------
 Polarizable Continuum Model (PCM)
 =================================
 Model                : PCM (using non-symmetric T matrix).
 Atomic radii         : UFF (Universal Force Field).
 Polarization charges : Total charges.
 Charge compensation  : None.
 Solution method      : On-the-fly selection.
 Cavity type          : Scaled VdW (van der Waals Surface) (Alpha=1.100).
 Cavity algorithm     : GePol (No added spheres)
                        Default sphere list used, NSphG=   37.
                        Lebedev-Laikov grids with approx.  5.0 points / Ang**2.
                        Smoothing algorithm: Karplus/York (Gamma=1.0000).
                        Polarization charges: spherical gaussians, with
                                              point-specific exponents (IZeta= 3).
                        Self-potential: point-specific (ISelfS= 7).
                        Self-field    : sphere-specific E.n sum rule (ISelfD= 2).
 Solvent              : Generic,
                        Eps                           =   4.900000
                        Eps(infinity)                 =   0.000000
                        RSolv                         =   0.000000 Ang.
                        Molar volume                  =   0.000000 cm**3/mol
                        Thermal expansion coefficient =   0.000000 K**-1
                        Absolute temperature          = 298.150000 K
                        Numeral density               =   0.000000 Ang**-3
                        Hydrogen bond acidity         =   0.000000
                        Hydrogen bond basicity        =   0.000000
                        Surface tension at interface  =   0.000000 (cal/mol)*Ang**-2
                        Carbon aromaticity            =   0.000000
                        Electronegative halogenicity  =   0.000000
 ------------------------------------------------------------------------------
 GePol: Number of generator spheres                  =      37
 GePol: Total number of spheres                      =      37
 GePol: Number of exposed spheres                    =      37 (100.00%)
 GePol: Number of points                             =    3237
 GePol: Average weight of points                     =       0.12
 GePol: Minimum weight of points                     =   0.21D-09
 GePol: Maximum weight of points                     =    0.20577
 GePol: Number of points with low weight             =     135
 GePol: Fraction of low-weight points (<1% of avg)   =       4.17%
 GePol: Cavity surface area                          =    399.039 Ang**2
 GePol: Cavity volume                                =    467.340 Ang**3
 Leave Link  301 at Sun Mar  3 18:20:02 2024, MaxMem=  5368709120 cpu:         0.7
 (Enter /home/k0335/k033513/app/g09/l302.exe)
 NPDir=0 NMtPBC=     1 NCelOv=     1 NCel=       1 NClECP=     1 NCelD=      1
         NCelK=      1 NCelE2=     1 NClLst=     1 CellRange=     0.0.
 One-electron integrals computed using PRISM.
 NBasis=   555 RedAO= T EigKep=  1.18D-03  NBF=   555
 NBsUse=   555 1.00D-06 EigRej= -1.00D+00 NBFU=   555
 Precomputing XC quadrature grid using
 IXCGrd= 4 IRadAn=           0 IRanWt=          -1 IRanGd=           0 AccXCQ= 0.00D+00.
 Generated NRdTot=       0 NPtTot=           0 NUsed=           0 NTot=          32
 NSgBfM=   539   539   539   539   539 MxSgAt=    37 MxSgA2=    37.
 Leave Link  302 at Sun Mar  3 18:20:02 2024, MaxMem=  5368709120 cpu:         9.8
 (Enter /home/k0335/k033513/app/g09/l303.exe)
 DipDrv:  MaxL=1.
 Leave Link  303 at Sun Mar  3 18:20:02 2024, MaxMem=  5368709120 cpu:         0.7
 (Enter /home/k0335/k033513/app/g09/l401.exe)
 ExpMin= 1.69D-01 ExpMax= 7.00D+03 ExpMxC= 1.05D+03 IAcc=1 IRadAn=         1 AccDes= 0.00D+00
 Harris functional with IExCor=20419 and IRadAn=       1 diagonalized for initial guess.
 HarFok:  IExCor=20419 AccDes= 0.00D+00 IRadAn=         1 IDoV= 1 UseB2=F ITyADJ=14
 ICtDFT=  3500011 ScaDFX=  1.000000  1.000000  1.000000  1.000000
 FoFCou: FMM=F IPFlag=           0 FMFlag=      100000 FMFlg1=           0
         NFxFlg=           0 DoJE=T BraDBF=F KetDBF=T FulRan=T
         wScrn=  0.000000 ICntrl=     500 IOpCl=  0 I1Cent=   200000004 NGrid=           0
         NMat0=    1 NMatS0=      1 NMatT0=    0 NMatD0=    1 NMtDS0=    0 NMtDT0=    0
 Symmetry not used in FoFCou.
 Harris En= -2694.69825744135    
 JPrj=0 DoOrth=F DoCkMO=F.
 Leave Link  401 at Sun Mar  3 18:20:03 2024, MaxMem=  5368709120 cpu:        11.0
 (Enter /home/k0335/k033513/app/g09/l502.exe)
 Closed shell SCF:
 Using DIIS extrapolation, IDIIS=  1040.
 Two-electron integral symmetry not used.
 IVT=      959349 IEndB=      959349 NGot=  5368709120 MDV=  5368074992
 LenX=  5368074992 LenY=  5367766412
 Requested convergence on RMS density matrix=1.00D-08 within 128 cycles.
 Requested convergence on MAX density matrix=1.00D-06.
 Requested convergence on             energy=1.00D-06.
 No special actions if energy rises.
 Fock matrices will be formed incrementally for  20 cycles.

 Cycle   1  Pass 1  IDiag  1:
 FoFJK:  IHMeth= 1 ICntrl=       0 DoSepK=T KAlg= 0 I1Cent=   0 FoldK=F
 IRaf=         1 NMat=   1 IRICut=       1 DoRegI=T DoRafI=F ISym2E= 0.
 FoFCou: FMM=F IPFlag=           0 FMFlag=      100000 FMFlg1=           0
         NFxFlg=           0 DoJE=T BraDBF=F KetDBF=F FulRan=T
         wScrn=  0.000000 ICntrl=     500 IOpCl=  0 I1Cent=           0 NGrid=           0
         NMat0=    1 NMatS0=      1 NMatT0=    0 NMatD0=    1 NMtDS0=    0 NMtDT0=    0
 Symmetry not used in FoFCou.
 Inv3:  Mode=1 IEnd=    31434507.
 Iteration    1 A*A^-1 deviation from unit magnitude is 7.66D-15 for   3229.
 Iteration    1 A*A^-1 deviation from orthogonality  is 6.34D-15 for   3234   2500.
 Iteration    1 A^-1*A deviation from unit magnitude is 7.77D-15 for   3229.
 Iteration    1 A^-1*A deviation from orthogonality  is 1.58D-13 for   3134   3127.
 E= -2775.43504151289    
 DIIS: error= 4.71D-02 at cycle   1 NSaved=   1.
 NSaved= 1 IEnMin= 1 EnMin= -2775.43504151289     IErMin= 1 ErrMin= 4.71D-02
 ErrMax= 4.71D-02  0.00D+00 EMaxC= 1.00D-01 BMatC= 2.31D+00 BMatP= 2.31D+00
 IDIUse=3 WtCom= 5.29D-01 WtEn= 4.71D-01
 Coeff-Com:  0.100D+01
 Coeff-En:   0.100D+01
 Coeff:      0.100D+01
 Gap=     0.407 Goal=   None    Shift=    0.000
 GapD=    0.407 DampG=2.000 DampE=0.500 DampFc=1.0000 IDamp=-1.
 RMSDP=3.28D-03 MaxDP=1.29D-01              OVMax= 2.35D-01

 Cycle   2  Pass 1  IDiag  1:
 RMSU=  3.28D-03    CP:  1.00D+00
 E= -2775.75115258576     Delta-E=       -0.316111072874 Rises=F Damp=F
 DIIS: error= 2.00D-02 at cycle   2 NSaved=   2.
 NSaved= 2 IEnMin= 2 EnMin= -2775.75115258576     IErMin= 2 ErrMin= 2.00D-02
 ErrMax= 2.00D-02  0.00D+00 EMaxC= 1.00D-01 BMatC= 9.58D-01 BMatP= 2.31D+00
 IDIUse=3 WtCom= 8.00D-01 WtEn= 2.00D-01
 Coeff-Com:  0.372D+00 0.628D+00
 Coeff-En:   0.368D+00 0.632D+00
 Coeff:      0.371D+00 0.629D+00
 Gap=     0.423 Goal=   None    Shift=    0.000
 RMSDP=1.79D-03 MaxDP=1.17D-01 DE=-3.16D-01 OVMax= 1.74D-01

 Cycle   3  Pass 1  IDiag  1:
 RMSU=  1.14D-03    CP:  1.00D+00  5.78D-01
 E= -2776.17114651279     Delta-E=       -0.419993927028 Rises=F Damp=F
 DIIS: error= 1.83D-02 at cycle   3 NSaved=   3.
 NSaved= 3 IEnMin= 3 EnMin= -2776.17114651279     IErMin= 3 ErrMin= 1.83D-02
 ErrMax= 1.83D-02  0.00D+00 EMaxC= 1.00D-01 BMatC= 2.68D-01 BMatP= 9.58D-01
 IDIUse=3 WtCom= 8.17D-01 WtEn= 1.83D-01
 Coeff-Com:  0.122D+00 0.362D+00 0.516D+00
 Coeff-En:   0.000D+00 0.230D+00 0.770D+00
 Coeff:      0.998D-01 0.338D+00 0.563D+00
 Gap=     0.394 Goal=   None    Shift=    0.000
 RMSDP=8.63D-04 MaxDP=7.64D-02 DE=-4.20D-01 OVMax= 9.96D-02

 Cycle   4  Pass 1  IDiag  1:
 RMSU=  3.45D-04    CP:  1.00D+00  6.88D-01  3.83D-01
 E= -2776.34058408512     Delta-E=       -0.169437572333 Rises=F Damp=F
 DIIS: error= 5.91D-03 at cycle   4 NSaved=   4.
 NSaved= 4 IEnMin= 4 EnMin= -2776.34058408512     IErMin= 4 ErrMin= 5.91D-03
 ErrMax= 5.91D-03  0.00D+00 EMaxC= 1.00D-01 BMatC= 2.71D-02 BMatP= 2.68D-01
 IDIUse=3 WtCom= 9.41D-01 WtEn= 5.91D-02
 Coeff-Com:  0.799D-02 0.893D-01 0.291D+00 0.612D+00
 Coeff-En:   0.000D+00 0.000D+00 0.639D-01 0.936D+00
 Coeff:      0.752D-02 0.840D-01 0.277D+00 0.631D+00
 Gap=     0.365 Goal=   None    Shift=    0.000
 RMSDP=2.69D-04 MaxDP=2.25D-02 DE=-1.69D-01 OVMax= 2.99D-02

 Cycle   5  Pass 1  IDiag  1:
 RMSU=  1.17D-04    CP:  1.00D+00  6.76D-01  5.70D-01  6.93D-01
 E= -2776.35806957495     Delta-E=       -0.017485489827 Rises=F Damp=F
 DIIS: error= 1.01D-03 at cycle   5 NSaved=   5.
 NSaved= 5 IEnMin= 5 EnMin= -2776.35806957495     IErMin= 5 ErrMin= 1.01D-03
 ErrMax= 1.01D-03  0.00D+00 EMaxC= 1.00D-01 BMatC= 2.04D-03 BMatP= 2.71D-02
 IDIUse=3 WtCom= 9.90D-01 WtEn= 1.01D-02
 Coeff-Com: -0.243D-02 0.242D-01 0.118D+00 0.353D+00 0.507D+00
 Coeff-En:   0.000D+00 0.000D+00 0.000D+00 0.000D+00 0.100D+01
 Coeff:     -0.241D-02 0.240D-01 0.116D+00 0.350D+00 0.512D+00
 Gap=     0.362 Goal=   None    Shift=    0.000
 RMSDP=6.42D-05 MaxDP=4.32D-03 DE=-1.75D-02 OVMax= 6.30D-03

 Cycle   6  Pass 1  IDiag  1:
 RMSU=  2.81D-05    CP:  1.00D+00  6.81D-01  5.52D-01  7.31D-01  5.76D-01
 E= -2776.35949295015     Delta-E=       -0.001423375205 Rises=F Damp=F
 DIIS: error= 1.31D-04 at cycle   6 NSaved=   6.
 NSaved= 6 IEnMin= 6 EnMin= -2776.35949295015     IErMin= 6 ErrMin= 1.31D-04
 ErrMax= 1.31D-04  0.00D+00 EMaxC= 1.00D-01 BMatC= 3.06D-05 BMatP= 2.04D-03
 IDIUse=3 WtCom= 9.99D-01 WtEn= 1.31D-03
 Coeff-Com: -0.755D-03-0.166D-02 0.177D-02 0.257D-01 0.129D+00 0.846D+00
 Coeff-En:   0.000D+00 0.000D+00 0.000D+00 0.000D+00 0.000D+00 0.100D+01
 Coeff:     -0.754D-03-0.166D-02 0.177D-02 0.257D-01 0.128D+00 0.847D+00
 Gap=     0.363 Goal=   None    Shift=    0.000
 RMSDP=1.28D-05 MaxDP=8.02D-04 DE=-1.42D-03 OVMax= 7.70D-04

 Cycle   7  Pass 1  IDiag  1:
 RMSU=  9.13D-06    CP:  1.00D+00  6.81D-01  5.55D-01  7.43D-01  6.39D-01
                    CP:  9.93D-01
 E= -2776.35951681334     Delta-E=       -0.000023863191 Rises=F Damp=F
 DIIS: error= 5.22D-05 at cycle   7 NSaved=   7.
 NSaved= 7 IEnMin= 7 EnMin= -2776.35951681334     IErMin= 7 ErrMin= 5.22D-05
 ErrMax= 5.22D-05  0.00D+00 EMaxC= 1.00D-01 BMatC= 5.68D-06 BMatP= 3.06D-05
 IDIUse=1 WtCom= 1.00D+00 WtEn= 0.00D+00
 Coeff-Com: -0.152D-03-0.248D-02-0.692D-02-0.122D-01 0.271D-01 0.388D+00
 Coeff-Com:  0.607D+00
 Coeff:     -0.152D-03-0.248D-02-0.692D-02-0.122D-01 0.271D-01 0.388D+00
 Coeff:      0.607D+00
 Gap=     0.363 Goal=   None    Shift=    0.000
 RMSDP=4.22D-06 MaxDP=3.07D-04 DE=-2.39D-05 OVMax= 4.96D-04

 Cycle   8  Pass 1  IDiag  1:
 RMSU=  2.74D-06    CP:  1.00D+00  6.81D-01  5.55D-01  7.44D-01  6.45D-01
                    CP:  1.07D+00  7.57D-01
 E= -2776.35952108129     Delta-E=       -0.000004267941 Rises=F Damp=F
 DIIS: error= 1.93D-05 at cycle   8 NSaved=   8.
 NSaved= 8 IEnMin= 8 EnMin= -2776.35952108129     IErMin= 8 ErrMin= 1.93D-05
 ErrMax= 1.93D-05  0.00D+00 EMaxC= 1.00D-01 BMatC= 5.34D-07 BMatP= 5.68D-06
 IDIUse=1 WtCom= 1.00D+00 WtEn= 0.00D+00
 Coeff-Com:  0.156D-05-0.100D-02-0.324D-02-0.860D-02-0.202D-02 0.728D-01
 Coeff-Com:  0.259D+00 0.683D+00
 Coeff:      0.156D-05-0.100D-02-0.324D-02-0.860D-02-0.202D-02 0.728D-01
 Coeff:      0.259D+00 0.683D+00
 Gap=     0.363 Goal=   None    Shift=    0.000
 RMSDP=1.64D-06 MaxDP=1.32D-04 DE=-4.27D-06 OVMax= 1.60D-04

 Cycle   9  Pass 1  IDiag  1:
 RMSU=  1.16D-06    CP:  1.00D+00  6.81D-01  5.56D-01  7.44D-01  6.50D-01
                    CP:  1.08D+00  8.28D-01  9.09D-01
 E= -2776.35952152876     Delta-E=       -0.000000447472 Rises=F Damp=F
 DIIS: error= 7.47D-06 at cycle   9 NSaved=   9.
 NSaved= 9 IEnMin= 9 EnMin= -2776.35952152876     IErMin= 9 ErrMin= 7.47D-06
 ErrMax= 7.47D-06  0.00D+00 EMaxC= 1.00D-01 BMatC= 7.99D-08 BMatP= 5.34D-07
 IDIUse=1 WtCom= 1.00D+00 WtEn= 0.00D+00
 Coeff-Com:  0.220D-04-0.630D-04-0.305D-03-0.204D-02-0.568D-02-0.358D-01
 Coeff-Com:  0.179D-01 0.309D+00 0.717D+00
 Coeff:      0.220D-04-0.630D-04-0.305D-03-0.204D-02-0.568D-02-0.358D-01
 Coeff:      0.179D-01 0.309D+00 0.717D+00
 Gap=     0.363 Goal=   None    Shift=    0.000
 RMSDP=7.02D-07 MaxDP=5.78D-05 DE=-4.47D-07 OVMax= 1.00D-04

 Cycle  10  Pass 1  IDiag  1:
 RMSU=  4.01D-07    CP:  1.00D+00  6.81D-01  5.56D-01  7.44D-01  6.51D-01
                    CP:  1.09D+00  8.54D-01  1.03D+00  8.92D-01
 E= -2776.35952160402     Delta-E=       -0.000000075265 Rises=F Damp=F
 DIIS: error= 3.43D-06 at cycle  10 NSaved=  10.
 NSaved=10 IEnMin=10 EnMin= -2776.35952160402     IErMin=10 ErrMin= 3.43D-06
 ErrMax= 3.43D-06  0.00D+00 EMaxC= 1.00D-01 BMatC= 1.12D-08 BMatP= 7.99D-08
 IDIUse=1 WtCom= 1.00D+00 WtEn= 0.00D+00
 Coeff-Com:  0.995D-05 0.859D-04 0.249D-03 0.159D-05-0.244D-02-0.265D-01
 Coeff-Com: -0.210D-01 0.707D-01 0.350D+00 0.629D+00
 Coeff:      0.995D-05 0.859D-04 0.249D-03 0.159D-05-0.244D-02-0.265D-01
 Coeff:     -0.210D-01 0.707D-01 0.350D+00 0.629D+00
 Gap=     0.363 Goal=   None    Shift=    0.000
 RMSDP=2.24D-07 MaxDP=2.11D-05 DE=-7.53D-08 OVMax= 2.65D-05

 Cycle  11  Pass 1  IDiag  1:
 RMSU=  1.46D-07    CP:  1.00D+00  6.81D-01  5.56D-01  7.44D-01  6.51D-01
                    CP:  1.10D+00  8.63D-01  1.05D+00  9.69D-01  8.74D-01
 E= -2776.35952161267     Delta-E=       -0.000000008650 Rises=F Damp=F
 DIIS: error= 6.76D-07 at cycle  11 NSaved=  11.
 NSaved=11 IEnMin=11 EnMin= -2776.35952161267     IErMin=11 ErrMin= 6.76D-07
 ErrMax= 6.76D-07  0.00D+00 EMaxC= 1.00D-01 BMatC= 9.41D-10 BMatP= 1.12D-08
 IDIUse=1 WtCom= 1.00D+00 WtEn= 0.00D+00
 Coeff-Com:  0.110D-05 0.388D-04 0.140D-03 0.237D-03-0.120D-03-0.567D-02
 Coeff-Com: -0.920D-02-0.820D-02 0.553D-01 0.247D+00 0.720D+00
 Coeff:      0.110D-05 0.388D-04 0.140D-03 0.237D-03-0.120D-03-0.567D-02
 Coeff:     -0.920D-02-0.820D-02 0.553D-01 0.247D+00 0.720D+00
 Gap=     0.363 Goal=   None    Shift=    0.000
 RMSDP=6.57D-08 MaxDP=5.46D-06 DE=-8.65D-09 OVMax= 9.49D-06

 Cycle  12  Pass 1  IDiag  1:
 RMSU=  4.24D-08    CP:  1.00D+00  6.81D-01  5.56D-01  7.44D-01  6.52D-01
                    CP:  1.10D+00  8.64D-01  1.06D+00  9.86D-01  9.50D-01
                    CP:  9.52D-01
 E= -2776.35952161347     Delta-E=       -0.000000000800 Rises=F Damp=F
 DIIS: error= 2.54D-07 at cycle  12 NSaved=  12.
 NSaved=12 IEnMin=12 EnMin= -2776.35952161347     IErMin=12 ErrMin= 2.54D-07
 ErrMax= 2.54D-07  0.00D+00 EMaxC= 1.00D-01 BMatC= 8.68D-11 BMatP= 9.41D-10
 IDIUse=1 WtCom= 1.00D+00 WtEn= 0.00D+00
 Coeff-Com: -0.448D-06 0.443D-05 0.268D-04 0.768D-04 0.252D-03 0.727D-03
 Coeff-Com: -0.845D-03-0.995D-02-0.166D-01 0.101D-01 0.200D+00 0.816D+00
 Coeff:     -0.448D-06 0.443D-05 0.268D-04 0.768D-04 0.252D-03 0.727D-03
 Coeff:     -0.845D-03-0.995D-02-0.166D-01 0.101D-01 0.200D+00 0.816D+00
 Gap=     0.363 Goal=   None    Shift=    0.000
 RMSDP=2.56D-08 MaxDP=1.56D-06 DE=-8.00D-10 OVMax= 2.42D-06

 Cycle  13  Pass 1  IDiag  1:
 RMSU=  1.22D-08    CP:  1.00D+00  6.81D-01  5.56D-01  7.44D-01  6.52D-01
                    CP:  1.10D+00  8.64D-01  1.06D+00  9.95D-01  9.75D-01
                    CP:  1.03D+00  9.79D-01
 E= -2776.35952161373     Delta-E=       -0.000000000252 Rises=F Damp=F
 DIIS: error= 8.22D-08 at cycle  13 NSaved=  13.
 NSaved=13 IEnMin=13 EnMin= -2776.35952161373     IErMin=13 ErrMin= 8.22D-08
 ErrMax= 8.22D-08  0.00D+00 EMaxC= 1.00D-01 BMatC= 1.05D-11 BMatP= 8.68D-11
 IDIUse=1 WtCom= 1.00D+00 WtEn= 0.00D+00
 Coeff-Com: -0.255D-06-0.173D-05-0.425D-06 0.903D-05 0.121D-03 0.781D-03
 Coeff-Com:  0.506D-03-0.310D-02-0.113D-01-0.193D-01 0.602D-02 0.291D+00
 Coeff-Com:  0.735D+00
 Coeff:     -0.255D-06-0.173D-05-0.425D-06 0.903D-05 0.121D-03 0.781D-03
 Coeff:      0.506D-03-0.310D-02-0.113D-01-0.193D-01 0.602D-02 0.291D+00
 Coeff:      0.735D+00
 Gap=     0.363 Goal=   None    Shift=    0.000
 RMSDP=7.77D-09 MaxDP=5.52D-07 DE=-2.52D-10 OVMax= 8.47D-07

 Error on total polarization charges =  0.00110
 SCF Done:  E(RCAM-B3LYP) =  -2776.35952161     A.U. after   13 cycles
            NFock= 13  Conv=0.78D-08     -V/T= 2.0073
 KE= 2.756302469994D+03 PE=-1.735031640378D+04 EE= 6.424936907960D+03
 Leave Link  502 at Sun Mar  3 18:20:45 2024, MaxMem=  5368709120 cpu:       955.3
 (Enter /home/k0335/k033513/app/g09/l601.exe)
 Copying SCF densities to generalized density rwf, IOpCl= 0 IROHF=0.

 **********************************************************************

            Population analysis using the SCF density.

 **********************************************************************

 Alpha  occ. eigenvalues --  -24.84743 -24.84322 -24.83984 -24.83943 -24.83925
 Alpha  occ. eigenvalues --  -24.83891 -24.83790 -24.83731 -24.83577 -24.83540
 Alpha  occ. eigenvalues --  -24.83521 -24.83505 -24.83466 -24.83444 -24.83421
 Alpha  occ. eigenvalues --  -24.83202 -24.83043 -24.82973 -19.36734 -19.33387
 Alpha  occ. eigenvalues --  -19.32876 -19.26550 -19.26442 -19.26413 -14.55353
 Alpha  occ. eigenvalues --  -14.55335 -10.59846 -10.59540 -10.56257 -10.56047
 Alpha  occ. eigenvalues --  -10.54927 -10.54680 -10.50152 -10.50127 -10.50031
 Alpha  occ. eigenvalues --  -10.49887 -10.48524  -1.43605  -1.43028  -1.42494
 Alpha  occ. eigenvalues --   -1.42444  -1.39947  -1.39655  -1.36344  -1.35688
 Alpha  occ. eigenvalues --   -1.33963  -1.33744  -1.33519  -1.33505  -1.33276
 Alpha  occ. eigenvalues --   -1.33082  -1.32896  -1.32887  -1.32360  -1.32087
 Alpha  occ. eigenvalues --   -1.31574  -1.22220  -1.21034  -1.20819  -1.20289
 Alpha  occ. eigenvalues --   -1.15797  -1.12211  -1.10923  -0.94938  -0.94181
 Alpha  occ. eigenvalues --   -0.87340  -0.86775  -0.83409  -0.82846  -0.81756
 Alpha  occ. eigenvalues --   -0.81167  -0.79105  -0.77998  -0.76181  -0.74757
 Alpha  occ. eigenvalues --   -0.73240  -0.72596  -0.72385  -0.71282  -0.70874
 Alpha  occ. eigenvalues --   -0.70424  -0.70066  -0.69638  -0.69293  -0.68920
 Alpha  occ. eigenvalues --   -0.68239  -0.68066  -0.67776  -0.67027  -0.66937
 Alpha  occ. eigenvalues --   -0.65887  -0.65057  -0.64887  -0.60844  -0.60553
 Alpha  occ. eigenvalues --   -0.59855  -0.58568  -0.58166  -0.57927  -0.57651
 Alpha  occ. eigenvalues --   -0.57402  -0.57322  -0.57091  -0.56764  -0.56384
 Alpha  occ. eigenvalues --   -0.56288  -0.56037  -0.55810  -0.55581  -0.55183
 Alpha  occ. eigenvalues --   -0.55098  -0.54748  -0.54643  -0.54319  -0.53966
 Alpha  occ. eigenvalues --   -0.53556  -0.53281  -0.53040  -0.52641  -0.52612
 Alpha  occ. eigenvalues --   -0.52589  -0.52229  -0.51984  -0.51641  -0.51372
 Alpha  occ. eigenvalues --   -0.51267  -0.51174  -0.50660  -0.50641  -0.50234
 Alpha  occ. eigenvalues --   -0.50161  -0.49608  -0.49426  -0.49327  -0.48982
 Alpha  occ. eigenvalues --   -0.46718  -0.46608  -0.45106  -0.44740  -0.44114
 Alpha  occ. eigenvalues --   -0.42701  -0.42198  -0.40483  -0.40202  -0.38299
 Alpha virt. eigenvalues --   -0.02024  -0.00964   0.04158   0.04577   0.05785
 Alpha virt. eigenvalues --    0.07233   0.09709   0.12019   0.13538   0.15247
 Alpha virt. eigenvalues --    0.16060   0.16468   0.18571   0.19357   0.19406
 Alpha virt. eigenvalues --    0.20704   0.22014   0.22110   0.22413   0.22643
 Alpha virt. eigenvalues --    0.22824   0.23532   0.23838   0.24421   0.24592
 Alpha virt. eigenvalues --    0.24767   0.25553   0.26648   0.27288   0.27934
 Alpha virt. eigenvalues --    0.28651   0.29954   0.32299   0.33238   0.36094
 Alpha virt. eigenvalues --    0.36849   0.36974   0.37967   0.39846   0.44320
 Alpha virt. eigenvalues --    0.46155   0.48086   0.48615   0.49425   0.50512
 Alpha virt. eigenvalues --    0.51027   0.51416   0.52062   0.52731   0.52927
 Alpha virt. eigenvalues --    0.53154   0.54003   0.54499   0.54556   0.54964
 Alpha virt. eigenvalues --    0.55452   0.57149   0.57417   0.58462   0.59040
 Alpha virt. eigenvalues --    0.60055   0.60782   0.61485   0.62417   0.63481
 Alpha virt. eigenvalues --    0.64197   0.65741   0.66849   0.69321   0.71225
 Alpha virt. eigenvalues --    0.71983   0.72554   0.75872   0.77143   0.78042
 Alpha virt. eigenvalues --    0.80868   0.82904   0.84079   0.84355   0.85116
 Alpha virt. eigenvalues --    0.86014   0.87384   0.87591   0.89702   0.91172
 Alpha virt. eigenvalues --    0.92804   0.93070   0.94655   0.96556   0.99164
 Alpha virt. eigenvalues --    0.99377   1.00510   1.01394   1.01892   1.03253
 Alpha virt. eigenvalues --    1.03321   1.04019   1.06241   1.07351   1.08020
 Alpha virt. eigenvalues --    1.09176   1.09576   1.09667   1.10409   1.11947
 Alpha virt. eigenvalues --    1.12086   1.12648   1.13358   1.14166   1.14962
 Alpha virt. eigenvalues --    1.15312   1.16400   1.17005   1.17860   1.18115
 Alpha virt. eigenvalues --    1.18303   1.19071   1.19413   1.19641   1.20676
 Alpha virt. eigenvalues --    1.21493   1.22583   1.22942   1.24320   1.25190
 Alpha virt. eigenvalues --    1.27590   1.27927   1.28148   1.28306   1.29200
 Alpha virt. eigenvalues --    1.30719   1.31522   1.31829   1.32311   1.33430
 Alpha virt. eigenvalues --    1.33464   1.33993   1.34929   1.35122   1.36568
 Alpha virt. eigenvalues --    1.36699   1.37214   1.37312   1.38165   1.38473
 Alpha virt. eigenvalues --    1.39289   1.39548   1.39915   1.40219   1.40325
 Alpha virt. eigenvalues --    1.41058   1.41576   1.42030   1.42533   1.43166
 Alpha virt. eigenvalues --    1.43358   1.44262   1.45115   1.45573   1.46142
 Alpha virt. eigenvalues --    1.46965   1.47247   1.47970   1.48189   1.49061
 Alpha virt. eigenvalues --    1.50174   1.50733   1.51400   1.51564   1.52497
 Alpha virt. eigenvalues --    1.54315   1.54880   1.55375   1.56014   1.56960
 Alpha virt. eigenvalues --    1.57688   1.58083   1.58893   1.60420   1.62337
 Alpha virt. eigenvalues --    1.63090   1.64164   1.65143   1.65466   1.66499
 Alpha virt. eigenvalues --    1.67709   1.68008   1.69225   1.69630   1.70213
 Alpha virt. eigenvalues --    1.70732   1.71584   1.72270   1.72351   1.73691
 Alpha virt. eigenvalues --    1.74415   1.75775   1.76555   1.76768   1.78124
 Alpha virt. eigenvalues --    1.78658   1.79548   1.79845   1.80876   1.81562
 Alpha virt. eigenvalues --    1.81691   1.82234   1.82933   1.83025   1.83985
 Alpha virt. eigenvalues --    1.84399   1.84648   1.85009   1.85632   1.85967
 Alpha virt. eigenvalues --    1.86873   1.87000   1.87311   1.87820   1.88108
 Alpha virt. eigenvalues --    1.88465   1.88780   1.89364   1.89670   1.90526
 Alpha virt. eigenvalues --    1.90764   1.91584   1.91878   1.92369   1.92839
 Alpha virt. eigenvalues --    1.93126   1.94422   1.94551   1.95304   1.95939
 Alpha virt. eigenvalues --    1.96372   1.97753   1.97940   1.98301   1.99172
 Alpha virt. eigenvalues --    1.99794   2.00177   2.00356   2.00675   2.00918
 Alpha virt. eigenvalues --    2.01334   2.01883   2.02060   2.02798   2.03124
 Alpha virt. eigenvalues --    2.03480   2.03765   2.04330   2.04447   2.04782
 Alpha virt. eigenvalues --    2.05260   2.05669   2.05902   2.07123   2.07844
 Alpha virt. eigenvalues --    2.08267   2.08899   2.08958   2.09301   2.10175
 Alpha virt. eigenvalues --    2.10450   2.11158   2.12310   2.12953   2.13305
 Alpha virt. eigenvalues --    2.14885   2.15607   2.16420   2.16997   2.18739
 Alpha virt. eigenvalues --    2.18889   2.19999   2.20608   2.20934   2.21211
 Alpha virt. eigenvalues --    2.21967   2.24809   2.26635   2.27364   2.28068
 Alpha virt. eigenvalues --    2.29138   2.29431   2.30515   2.31610   2.31698
 Alpha virt. eigenvalues --    2.33185   2.34513   2.36683   2.37410   2.39674
 Alpha virt. eigenvalues --    2.42005   2.42074   2.42403   2.44093   2.45580
 Alpha virt. eigenvalues --    2.45935   2.46849   2.48479   2.49461   2.50202
 Alpha virt. eigenvalues --    2.51432   2.52457   2.54153   2.55028   2.56007
 Alpha virt. eigenvalues --    2.57922   2.58338   2.59558   2.60982   2.62297
 Alpha virt. eigenvalues --    2.63197   2.64332   2.65166   2.66247   2.67200
 Alpha virt. eigenvalues --    2.69413   2.71268   2.72497   2.74797   2.75151
 Alpha virt. eigenvalues --    2.75585   2.78638   2.79019   2.80464   2.83598
 Alpha virt. eigenvalues --    2.83744   2.84979   2.85583   2.86946   2.87748
 Alpha virt. eigenvalues --    2.87970   2.89266   2.90055   2.91500   2.92246
 Alpha virt. eigenvalues --    2.92531   2.93092   2.95347   2.95717   2.96885
 Alpha virt. eigenvalues --    2.98102   2.99295   3.02640   3.04495   3.04914
 Alpha virt. eigenvalues --    3.05791   3.06206   3.07504   3.08220   3.10285
 Alpha virt. eigenvalues --    3.11721   3.11986   3.13185   3.14830   3.15414
 Alpha virt. eigenvalues --    3.16915   3.18543   3.19113   3.24212   3.24793
 Alpha virt. eigenvalues --    3.25950   3.28844   3.30416   3.31071   3.34945
 Alpha virt. eigenvalues --    3.36031   3.41867   3.51020   4.01996   4.08216
 Alpha virt. eigenvalues --    4.12604   4.18066   4.21184   4.23030   4.29459
 Alpha virt. eigenvalues --    4.34132   4.35257   4.39988   4.41695   4.42783
 Alpha virt. eigenvalues --    4.46401   4.47367   4.52518   4.54143   4.56988
 Alpha virt. eigenvalues --    4.60753   4.64832   4.70662   4.75651   4.84336
 Alpha virt. eigenvalues --    4.88386   4.90092   4.96125   4.99287   5.24016
 Alpha virt. eigenvalues --    5.33196   5.48021   5.53410   5.60752   5.65706
 Alpha virt. eigenvalues --    6.07155   6.29368   6.36161   6.43619   6.53565
          Condensed to atoms (all electrons):
               1          2          3          4          5          6
     1  O    8.011848   0.594193  -0.070738  -0.000177  -0.000026  -0.000026
     2  C    0.594193   4.162670   0.254008  -0.005984  -0.000163  -0.001579
     3  O   -0.070738   0.254008   8.231809   0.246179  -0.071658  -0.082603
     4  C   -0.000177  -0.005984   0.246179   4.195760   0.566504   0.202481
     5  O   -0.000026  -0.000163  -0.071658   0.566504   8.063526  -0.087876
     6  N   -0.000026  -0.001579  -0.082603   0.202481  -0.087876   7.626608
     7  C    0.000001   0.000745   0.000682  -0.012263   0.007531   0.095292
     8  F    0.000000  -0.000010  -0.000006   0.001829   0.000029  -0.037166
     9  F    0.000000   0.000011  -0.000007   0.003907  -0.000590  -0.066791
    10  C    0.000000  -0.000016   0.000012  -0.006354   0.007066  -0.036696
    11  F    0.000000   0.000000   0.000000   0.000060   0.000014   0.001218
    12  O    0.000000   0.000001  -0.000004   0.002857  -0.017899   0.000763
    13  C    0.000000   0.000001   0.000001   0.000423   0.001828   0.000139
    14  F    0.000000   0.000000   0.000000   0.000006  -0.000008   0.000029
    15  F    0.000000   0.000003   0.000000   0.006146  -0.003505  -0.001965
    16  F    0.000000   0.000000   0.000000   0.000011  -0.000085   0.000000
    17  C    0.000000   0.000006  -0.000034   0.000158  -0.002756   0.001389
    18  F    0.000000   0.000000   0.000000   0.000032   0.000003  -0.001473
    19  F    0.000000   0.000024  -0.000248   0.012733  -0.003541  -0.000193
    20  F    0.000000   0.000000   0.000000   0.000006  -0.000008  -0.000001
    21  C    0.000146  -0.017808   0.005213  -0.018093   0.000306   0.167843
    22  O   -0.000030   0.000165   0.000068  -0.000166  -0.000018  -0.086459
    23  N   -0.088639   0.208866  -0.084073  -0.001438   0.000031  -0.092673
    24  C    0.014110  -0.013696   0.001006   0.000756   0.000002   0.000839
    25  F   -0.006292   0.004315  -0.000002   0.000017   0.000000  -0.000041
    26  F    0.000013   0.000698  -0.000005  -0.000002   0.000000  -0.000020
    27  C   -0.001791  -0.002601  -0.000147   0.000017   0.000000  -0.000173
    28  F   -0.005930   0.009750  -0.000010   0.000007   0.000000   0.000000
    29  O   -0.000035   0.000153   0.000000   0.000000   0.000000   0.000000
    30  C   -0.000003  -0.000002   0.000000   0.000000   0.000000   0.000000
    31  F    0.000000   0.000000   0.000000   0.000000   0.000000   0.000000
    32  F    0.000000   0.000001   0.000000   0.000000   0.000000   0.000000
    33  F    0.000000   0.000000   0.000000   0.000000   0.000000   0.000000
    34  C   -0.000100  -0.000308   0.000022   0.000003   0.000000  -0.000019
    35  F   -0.000028   0.002787  -0.000069   0.000167   0.000000  -0.000523
    36  F    0.000000   0.000028   0.000000   0.000000   0.000000  -0.000005
    37  F    0.000000   0.000003   0.000000   0.000000   0.000000   0.000000
               7          8          9         10         11         12
     1  O    0.000001   0.000000   0.000000   0.000000   0.000000   0.000000
     2  C    0.000745  -0.000010   0.000011  -0.000016   0.000000   0.000001
     3  O    0.000682  -0.000006  -0.000007   0.000012   0.000000  -0.000004
     4  C   -0.012263   0.001829   0.003907  -0.006354   0.000060   0.002857
     5  O    0.007531   0.000029  -0.000590   0.007066   0.000014  -0.017899
     6  N    0.095292  -0.037166  -0.066791  -0.036696   0.001218   0.000763
     7  C    4.478467   0.244360   0.280014   0.195807  -0.011501  -0.036804
     8  F    0.244360   9.120687  -0.037995  -0.023240  -0.001131   0.000602
     9  F    0.280014  -0.037995   9.098821  -0.025373  -0.000586  -0.001333
    10  C    0.195807  -0.023240  -0.025373   4.989246   0.202531   0.164391
    11  F   -0.011501  -0.001131  -0.000586   0.202531   9.143196  -0.051853
    12  O   -0.036804   0.000602  -0.001333   0.164391  -0.051853   8.333813
    13  C   -0.007037   0.000075   0.011651  -0.000018   0.000746   0.236003
    14  F   -0.003657  -0.000003  -0.000598   0.012071  -0.005072  -0.044307
    15  F    0.014327   0.000000  -0.009372  -0.007678  -0.000051  -0.045342
    16  F   -0.000008   0.000000  -0.000003   0.000645  -0.000029  -0.038621
    17  C   -0.046166   0.003282   0.001361   0.217109  -0.006687  -0.012974
    18  F    0.005094  -0.001669   0.000000  -0.036301  -0.000590   0.000559
    19  F    0.001255  -0.000167   0.000001  -0.041288   0.000308   0.000186
    20  F    0.001911   0.000000  -0.000001  -0.028139  -0.000763  -0.000442
    21  C   -0.003789   0.006443   0.005227   0.002446  -0.000011  -0.000058
    22  O    0.015150  -0.009896  -0.002941   0.000205   0.000000   0.000000
    23  N    0.002181  -0.000064   0.000025  -0.000074   0.000000   0.000000
    24  C   -0.000006   0.000010   0.000001   0.000000   0.000000   0.000000
    25  F    0.000000   0.000000   0.000000   0.000000   0.000000   0.000000
    26  F    0.000014  -0.000001   0.000000   0.000000   0.000000   0.000000
    27  C    0.000002   0.000000   0.000000   0.000000   0.000000   0.000000
    28  F    0.000000   0.000000   0.000000   0.000000   0.000000   0.000000
    29  O    0.000000   0.000000   0.000000   0.000000   0.000000   0.000000
    30  C    0.000000   0.000000   0.000000   0.000000   0.000000   0.000000
    31  F    0.000000   0.000000   0.000000   0.000000   0.000000   0.000000
    32  F    0.000000   0.000000   0.000000   0.000000   0.000000   0.000000
    33  F    0.000000   0.000000   0.000000   0.000000   0.000000   0.000000
    34  C   -0.000002   0.000000  -0.000001   0.000000   0.000000   0.000000
    35  F    0.000008   0.000000  -0.000001   0.000000   0.000000   0.000000
    36  F    0.000000   0.000000   0.000000   0.000000   0.000000   0.000000
    37  F    0.000000   0.000000   0.000000   0.000000   0.000000   0.000000
              13         14         15         16         17         18
     1  O    0.000000   0.000000   0.000000   0.000000   0.000000   0.000000
     2  C    0.000001   0.000000   0.000003   0.000000   0.000006   0.000000
     3  O    0.000001   0.000000   0.000000   0.000000  -0.000034   0.000000
     4  C    0.000423   0.000006   0.006146   0.000011   0.000158   0.000032
     5  O    0.001828  -0.000008  -0.003505  -0.000085  -0.002756   0.000003
     6  N    0.000139   0.000029  -0.001965   0.000000   0.001389  -0.001473
     7  C   -0.007037  -0.003657   0.014327  -0.000008  -0.046166   0.005094
     8  F    0.000075  -0.000003   0.000000   0.000000   0.003282  -0.001669
     9  F    0.011651  -0.000598  -0.009372  -0.000003   0.001361   0.000000
    10  C   -0.000018   0.012071  -0.007678   0.000645   0.217109  -0.036301
    11  F    0.000746  -0.005072  -0.000051  -0.000029  -0.006687  -0.000590
    12  O    0.236003  -0.044307  -0.045342  -0.038621  -0.012974   0.000559
    13  C    3.821114   0.297200   0.296565   0.338510   0.001198   0.000002
    14  F    0.297200   9.060549  -0.034907  -0.036668   0.000202   0.000000
    15  F    0.296565  -0.034907   9.068816  -0.037428  -0.000067   0.000000
    16  F    0.338510  -0.036668  -0.037428   9.012411  -0.000038   0.000000
    17  C    0.001198   0.000202  -0.000067  -0.000038   4.154165   0.294341
    18  F    0.000002   0.000000   0.000000   0.000000   0.294341   9.061816
    19  F   -0.000039   0.000000   0.000000   0.000000   0.278830  -0.040566
    20  F   -0.000026   0.000000   0.000000   0.000000   0.307159  -0.039843
    21  C   -0.000023   0.000000  -0.000071   0.000000  -0.000023  -0.000029
    22  O    0.000003   0.000000   0.000000   0.000000  -0.000012   0.000000
    23  N    0.000000   0.000000   0.000000   0.000000  -0.000002   0.000000
    24  C    0.000000   0.000000   0.000000   0.000000   0.000000   0.000000
    25  F    0.000000   0.000000   0.000000   0.000000   0.000000   0.000000
    26  F    0.000000   0.000000   0.000000   0.000000   0.000000   0.000000
    27  C    0.000000   0.000000   0.000000   0.000000   0.000000   0.000000
    28  F    0.000000   0.000000   0.000000   0.000000   0.000000   0.000000
    29  O    0.000000   0.000000   0.000000   0.000000   0.000000   0.000000
    30  C    0.000000   0.000000   0.000000   0.000000   0.000000   0.000000
    31  F    0.000000   0.000000   0.000000   0.000000   0.000000   0.000000
    32  F    0.000000   0.000000   0.000000   0.000000   0.000000   0.000000
    33  F    0.000000   0.000000   0.000000   0.000000   0.000000   0.000000
    34  C    0.000000   0.000000   0.000000   0.000000   0.000000   0.000000
    35  F    0.000000   0.000000   0.000000   0.000000   0.000000   0.000000
    36  F    0.000000   0.000000   0.000000   0.000000   0.000000   0.000000
    37  F    0.000000   0.000000   0.000000   0.000000   0.000000   0.000000
              19         20         21         22         23         24
     1  O    0.000000   0.000000   0.000146  -0.000030  -0.088639   0.014110
     2  C    0.000024   0.000000  -0.017808   0.000165   0.208866  -0.013696
     3  O   -0.000248   0.000000   0.005213   0.000068  -0.084073   0.001006
     4  C    0.012733   0.000006  -0.018093  -0.000166  -0.001438   0.000756
     5  O   -0.003541  -0.000008   0.000306  -0.000018   0.000031   0.000002
     6  N   -0.000193  -0.000001   0.167843  -0.086459  -0.092673   0.000839
     7  C    0.001255   0.001911  -0.003789   0.015150   0.002181  -0.000006
     8  F   -0.000167   0.000000   0.006443  -0.009896  -0.000064   0.000010
     9  F    0.000001  -0.000001   0.005227  -0.002941   0.000025   0.000001
    10  C   -0.041288  -0.028139   0.002446   0.000205  -0.000074   0.000000
    11  F    0.000308  -0.000763  -0.000011   0.000000   0.000000   0.000000
    12  O    0.000186  -0.000442  -0.000058   0.000000   0.000000   0.000000
    13  C   -0.000039  -0.000026  -0.000023   0.000003   0.000000   0.000000
    14  F    0.000000   0.000000   0.000000   0.000000   0.000000   0.000000
    15  F    0.000000   0.000000  -0.000071   0.000000   0.000000   0.000000
    16  F    0.000000   0.000000   0.000000   0.000000   0.000000   0.000000
    17  C    0.278830   0.307159  -0.000023  -0.000012  -0.000002   0.000000
    18  F   -0.040566  -0.039843  -0.000029   0.000000   0.000000   0.000000
    19  F    9.075077  -0.039518   0.000537   0.000000  -0.000012   0.000000
    20  F   -0.039518   9.044232   0.000000   0.000000   0.000000   0.000000
    21  C    0.000537   0.000000   4.227952   0.552084   0.197927  -0.004580
    22  O    0.000000   0.000000   0.552084   8.081483  -0.087346   0.011508
    23  N   -0.000012   0.000000   0.197927  -0.087346   7.569941   0.148616
    24  C    0.000000   0.000000  -0.004580   0.011508   0.148616   4.380201
    25  F    0.000000   0.000000   0.000954   0.000013  -0.048399   0.278141
    26  F    0.000000   0.000000   0.009627  -0.013161  -0.039030   0.280031
    27  C    0.000000   0.000000  -0.001458  -0.004463  -0.066309   0.227505
    28  F    0.000000   0.000000  -0.000242   0.000006  -0.001093  -0.021658
    29  O    0.000000   0.000000   0.000035   0.000005   0.001657  -0.020097
    30  C    0.000000   0.000000  -0.000001   0.000000  -0.000004   0.000940
    31  F    0.000000   0.000000   0.000000   0.000000   0.000000  -0.000042
    32  F    0.000000   0.000000   0.000000   0.000000   0.000000   0.000206
    33  F    0.000000   0.000000   0.000000   0.000000   0.000000  -0.000175
    34  C    0.000000   0.000000   0.001945   0.006358  -0.002054  -0.038656
    35  F    0.000000   0.000000   0.014003  -0.006165  -0.003422  -0.004848
    36  F    0.000000   0.000000  -0.000567   0.000150  -0.000450   0.002938
    37  F    0.000000   0.000000   0.000013  -0.000003  -0.000020   0.001495
              25         26         27         28         29         30
     1  O   -0.006292   0.000013  -0.001791  -0.005930  -0.000035  -0.000003
     2  C    0.004315   0.000698  -0.002601   0.009750   0.000153  -0.000002
     3  O   -0.000002  -0.000005  -0.000147  -0.000010   0.000000   0.000000
     4  C    0.000017  -0.000002   0.000017   0.000007   0.000000   0.000000
     5  O    0.000000   0.000000   0.000000   0.000000   0.000000   0.000000
     6  N   -0.000041  -0.000020  -0.000173   0.000000   0.000000   0.000000
     7  C    0.000000   0.000014   0.000002   0.000000   0.000000   0.000000
     8  F    0.000000  -0.000001   0.000000   0.000000   0.000000   0.000000
     9  F    0.000000   0.000000   0.000000   0.000000   0.000000   0.000000
    10  C    0.000000   0.000000   0.000000   0.000000   0.000000   0.000000
    11  F    0.000000   0.000000   0.000000   0.000000   0.000000   0.000000
    12  O    0.000000   0.000000   0.000000   0.000000   0.000000   0.000000
    13  C    0.000000   0.000000   0.000000   0.000000   0.000000   0.000000
    14  F    0.000000   0.000000   0.000000   0.000000   0.000000   0.000000
    15  F    0.000000   0.000000   0.000000   0.000000   0.000000   0.000000
    16  F    0.000000   0.000000   0.000000   0.000000   0.000000   0.000000
    17  C    0.000000   0.000000   0.000000   0.000000   0.000000   0.000000
    18  F    0.000000   0.000000   0.000000   0.000000   0.000000   0.000000
    19  F    0.000000   0.000000   0.000000   0.000000   0.000000   0.000000
    20  F    0.000000   0.000000   0.000000   0.000000   0.000000   0.000000
    21  C    0.000954   0.009627  -0.001458  -0.000242   0.000035  -0.000001
    22  O    0.000013  -0.013161  -0.004463   0.000006   0.000005   0.000000
    23  N   -0.048399  -0.039030  -0.066309  -0.001093   0.001657  -0.000004
    24  C    0.278141   0.280031   0.227505  -0.021658  -0.020097   0.000940
    25  F    9.097836  -0.043105  -0.023983  -0.000285  -0.000235   0.000015
    26  F   -0.043105   9.081798  -0.037255   0.000288   0.000127  -0.000072
    27  C   -0.023983  -0.037255   4.995307   0.224148   0.163886  -0.001543
    28  F   -0.000285   0.000288   0.224148   9.117516  -0.049513  -0.000739
    29  O   -0.000235   0.000127   0.163886  -0.049513   8.343974   0.234721
    30  C    0.000015  -0.000072  -0.001543  -0.000739   0.234721   3.824218
    31  F    0.000000   0.000000   0.000697  -0.000022  -0.038908   0.339492
    32  F    0.000000   0.000000   0.013293  -0.002393  -0.045074   0.295474
    33  F    0.000000   0.000001  -0.009459  -0.000016  -0.048237   0.301673
    34  C    0.001469   0.005071   0.172264  -0.016991  -0.030494  -0.004125
    35  F    0.000003  -0.000157  -0.021308  -0.000356   0.000605   0.000054
    36  F    0.000000   0.000264  -0.034124   0.000321   0.000488  -0.000364
    37  F   -0.000001  -0.000001  -0.025848  -0.000174  -0.001399   0.011821
              31         32         33         34         35         36
     1  O    0.000000   0.000000   0.000000  -0.000100  -0.000028   0.000000
     2  C    0.000000   0.000001   0.000000  -0.000308   0.002787   0.000028
     3  O    0.000000   0.000000   0.000000   0.000022  -0.000069   0.000000
     4  C    0.000000   0.000000   0.000000   0.000003   0.000167   0.000000
     5  O    0.000000   0.000000   0.000000   0.000000   0.000000   0.000000
     6  N    0.000000   0.000000   0.000000  -0.000019  -0.000523  -0.000005
     7  C    0.000000   0.000000   0.000000  -0.000002   0.000008   0.000000
     8  F    0.000000   0.000000   0.000000   0.000000   0.000000   0.000000
     9  F    0.000000   0.000000   0.000000  -0.000001  -0.000001   0.000000
    10  C    0.000000   0.000000   0.000000   0.000000   0.000000   0.000000
    11  F    0.000000   0.000000   0.000000   0.000000   0.000000   0.000000
    12  O    0.000000   0.000000   0.000000   0.000000   0.000000   0.000000
    13  C    0.000000   0.000000   0.000000   0.000000   0.000000   0.000000
    14  F    0.000000   0.000000   0.000000   0.000000   0.000000   0.000000
    15  F    0.000000   0.000000   0.000000   0.000000   0.000000   0.000000
    16  F    0.000000   0.000000   0.000000   0.000000   0.000000   0.000000
    17  C    0.000000   0.000000   0.000000   0.000000   0.000000   0.000000
    18  F    0.000000   0.000000   0.000000   0.000000   0.000000   0.000000
    19  F    0.000000   0.000000   0.000000   0.000000   0.000000   0.000000
    20  F    0.000000   0.000000   0.000000   0.000000   0.000000   0.000000
    21  C    0.000000   0.000000   0.000000   0.001945   0.014003  -0.000567
    22  O    0.000000   0.000000   0.000000   0.006358  -0.006165   0.000150
    23  N    0.000000   0.000000   0.000000  -0.002054  -0.003422  -0.000450
    24  C   -0.000042   0.000206  -0.000175  -0.038656  -0.004848   0.002938
    25  F    0.000000   0.000000   0.000000   0.001469   0.000003   0.000000
    26  F    0.000000   0.000000   0.000001   0.005071  -0.000157   0.000264
    27  C    0.000697   0.013293  -0.009459   0.172264  -0.021308  -0.034124
    28  F   -0.000022  -0.002393  -0.000016  -0.016991  -0.000356   0.000321
    29  O   -0.038908  -0.045074  -0.048237  -0.030494   0.000605   0.000488
    30  C    0.339492   0.295474   0.301673  -0.004125   0.000054  -0.000364
    31  F    9.009546  -0.036214  -0.037556  -0.000011   0.000000   0.000000
    32  F   -0.036214   9.057290  -0.033942  -0.004777   0.000000   0.000011
    33  F   -0.037556  -0.033942   9.061795   0.018289   0.000001  -0.000464
    34  C   -0.000011  -0.004777   0.018289   4.252980   0.264904   0.274893
    35  F    0.000000   0.000000   0.000001   0.264904   9.082607  -0.034787
    36  F    0.000000   0.000011  -0.000464   0.274893  -0.034787   9.062289
    37  F   -0.000004  -0.001897  -0.007467   0.277254  -0.039537  -0.038368
              37
     1  O    0.000000
     2  C    0.000003
     3  O    0.000000
     4  C    0.000000
     5  O    0.000000
     6  N    0.000000
     7  C    0.000000
     8  F    0.000000
     9  F    0.000000
    10  C    0.000000
    11  F    0.000000
    12  O    0.000000
    13  C    0.000000
    14  F    0.000000
    15  F    0.000000
    16  F    0.000000
    17  C    0.000000
    18  F    0.000000
    19  F    0.000000
    20  F    0.000000
    21  C    0.000013
    22  O   -0.000003
    23  N   -0.000020
    24  C    0.001495
    25  F   -0.000001
    26  F   -0.000001
    27  C   -0.025848
    28  F   -0.000174
    29  O   -0.001399
    30  C    0.011821
    31  F   -0.000004
    32  F   -0.001897
    33  F   -0.007467
    34  C    0.277254
    35  F   -0.039537
    36  F   -0.038368
    37  F    9.074880
 Mulliken charges:
               1
     1  O   -0.446494
     2  C    0.803737
     3  O   -0.429394
     4  C    0.804420
     5  O   -0.458707
     6  N   -0.600318
     7  C    0.778390
     8  F   -0.265969
     9  F   -0.255427
    10  C    0.413646
    11  F   -0.269799
    12  O   -0.489538
    13  C    1.001687
    14  F   -0.244837
    15  F   -0.245470
    16  F   -0.238698
    17  C    0.809560
    18  F   -0.241375
    19  F   -0.243380
    20  F   -0.244567
    21  C    0.854050
    22  O   -0.456536
    23  N   -0.614142
    24  C    0.755451
    25  F   -0.260422
    26  F   -0.245125
    27  C    0.433342
    28  F   -0.252615
    29  O   -0.511661
    30  C    0.998444
    31  F   -0.236979
    32  F   -0.241979
    33  F   -0.244443
    34  C    0.822087
    35  F   -0.253936
    36  F   -0.232254
    37  F   -0.250749
 Sum of Mulliken charges =   0.00000
 Mulliken charges with hydrogens summed into heavy atoms:
               1
     1  O   -0.446494
     2  C    0.803737
     3  O   -0.429394
     4  C    0.804420
     5  O   -0.458707
     6  N   -0.600318
     7  C    0.778390
     8  F   -0.265969
     9  F   -0.255427
    10  C    0.413646
    11  F   -0.269799
    12  O   -0.489538
    13  C    1.001687
    14  F   -0.244837
    15  F   -0.245470
    16  F   -0.238698
    17  C    0.809560
    18  F   -0.241375
    19  F   -0.243380
    20  F   -0.244567
    21  C    0.854050
    22  O   -0.456536
    23  N   -0.614142
    24  C    0.755451
    25  F   -0.260422
    26  F   -0.245125
    27  C    0.433342
    28  F   -0.252615
    29  O   -0.511661
    30  C    0.998444
    31  F   -0.236979
    32  F   -0.241979
    33  F   -0.244443
    34  C    0.822087
    35  F   -0.253936
    36  F   -0.232254
    37  F   -0.250749
 Electronic spatial extent (au):  <R**2>=          17799.2222
 Charge=              0.0000 electrons
 Dipole moment (field-independent basis, Debye):
    X=              0.0544    Y=              0.2827    Z=             -0.7981  Tot=              0.8484
 Quadrupole moment (field-independent basis, Debye-Ang):
   XX=           -200.1046   YY=           -192.4252   ZZ=           -207.7260
   XY=             -4.5687   XZ=              0.3184   YZ=             -2.3783
 Traceless Quadrupole moment (field-independent basis, Debye-Ang):
   XX=             -0.0193   YY=              7.6601   ZZ=             -7.6407
   XY=             -4.5687   XZ=              0.3184   YZ=             -2.3783
 Octapole moment (field-independent basis, Debye-Ang**2):
  XXX=             33.9456  YYY=             -9.6476  ZZZ=            -96.4296  XYY=             -6.3576
  XXY=            -12.8800  XXZ=            -44.7957  XZZ=             -0.0380  YZZ=             -9.8928
  YYZ=            -22.6741  XYZ=             -9.7532
 Hexadecapole moment (field-independent basis, Debye-Ang**3):
 XXXX=         -14760.9486 YYYY=          -2075.8432 ZZZZ=          -1747.8953 XXXY=           -187.6976
 XXXZ=            -25.8663 YYYX=           -158.2715 YYYZ=            -66.0830 ZZZX=            -83.6748
 ZZZY=            -97.4300 XXYY=          -2832.5192 XXZZ=          -2799.8154 YYZZ=           -626.6744
 XXYZ=            -29.6147 YYXZ=            -33.0111 ZZXY=            -75.3533
 N-N= 5.392717504215D+03 E-N=-1.735031639558D+04  KE= 2.756302469994D+03
 No NMR shielding tensors so no spin-rotation constants.
 Leave Link  601 at Sun Mar  3 18:20:46 2024, MaxMem=  5368709120 cpu:         4.0
 (Enter /home/k0335/k033513/app/g09/l9999.exe)
 1\1\GINC-C18U03N3\SP\RCAM-B3LYP\6-31G(d,p)\C11F18N2O6\K033513\03-Mar-2
 024\0\\#p CAM-B3LYP/6-31G(d,p) SCRF=(PCM,Solvent=Generic,Read) NoSymm 
 out=wfn\\Title A124553252_0\\0,1\O,0,1.637576,1.191298,2.726343\C,0,0.
 763932,0.884969,1.92474\O,0,-0.434177,0.469582,2.385875\C,0,-1.453011,
 0.174089,1.551293\O,0,-2.506695,-0.228642,2.025225\N,0,-1.268492,0.341
 894,0.212567\C,0,-2.299163,-0.078993,-0.731111\F,0,-2.043394,0.573571,
 -1.911726\F,0,-2.090805,-1.396829,-1.013951\C,0,-3.826468,0.139018,-0.
 474816\F,0,-4.499023,-0.145197,-1.643008\O,0,-4.499746,-0.626689,0.521
 495\C,0,-4.374557,-2.015724,0.346161\F,0,-4.522257,-2.36812,-0.941304\
 F,0,-3.171989,-2.427803,0.785579\F,0,-5.328912,-2.627924,1.072344\C,0,
 -4.017949,1.635097,-0.224355\F,0,-3.584206,2.387603,-1.261963\F,0,-3.3
 38521,2.068532,0.864055\F,0,-5.320001,1.950591,-0.027305\C,0,0.012547,
 0.375764,-0.26614\O,0,0.325266,-0.071287,-1.364688\N,0,0.950733,0.8948
 74,0.573973\C,0,2.287054,1.180315,0.078231\F,0,2.67094,2.367678,0.6540
 2\F,0,2.227857,1.504982,-1.24831\C,0,3.432935,0.151156,0.295844\F,0,3.
 563576,-0.105516,1.629889\O,0,4.657505,0.786404,-0.109454\C,0,5.763418
 ,-0.075927,-0.106553\F,0,6.886311,0.6652,-0.100281\F,0,5.761739,-0.874
 287,0.971467\F,0,5.742744,-0.814583,-1.228464\C,0,3.064056,-1.14501,-0
 .426397\F,0,1.893928,-1.644211,0.042188\F,0,2.95368,-0.979208,-1.75786
 2\F,0,3.983566,-2.116668,-0.221714\\Version=ES64L-G09RevD.01\HF=-2776.
 3595216\RMSD=7.769e-09\Dipole=0.0214032,0.1112046,-0.313999\Quadrupole
 =-0.0143813,5.6950804,-5.6806991,-3.3967347,0.2367257,-1.7682391\PG=C0
 1 [X(C11F18N2O6)]\\@

 Writing a WFN file to "A124553252/A124553252_0.wfn"


 At the touch of love, everyone becomves a poet.
                                -- Plato
 Job cpu time:       0 days  0 hours 16 minutes 29.0 seconds.
 File lengths (MBytes):  RWF=    337 Int=      0 D2E=      0 Chk=     13 Scr=      1
 Normal termination of Gaussian 09 at Sun Mar  3 18:20:46 2024.
