 Entering Gaussian System, Link 0=g09
 Initial command:
 /home/k0335/k033513/app/g09/l1.exe "/home/k0335/k033513/app/g09/scratch/Gau-651071.inp" -scrdir="/home/k0335/k033513/app/g09/scratch/"
 Default is to use a total of  36 processors:
                               36 via shared-memory
                                1 via Linda
 Entering Link 1 = /home/k0335/k033513/app/g09/l1.exe PID=    651072.
  
 Copyright (c) 1988,1990,1992,1993,1995,1998,2003,2009,2013,
            Gaussian, Inc.  All Rights Reserved.
  
 This is part of the Gaussian(R) 09 program.  It is based on
 the Gaussian(R) 03 system (copyright 2003, Gaussian, Inc.),
 the Gaussian(R) 98 system (copyright 1998, Gaussian, Inc.),
 the Gaussian(R) 94 system (copyright 1995, Gaussian, Inc.),
 the Gaussian 92(TM) system (copyright 1992, Gaussian, Inc.),
 the Gaussian 90(TM) system (copyright 1990, Gaussian, Inc.),
 the Gaussian 88(TM) system (copyright 1988, Gaussian, Inc.),
 the Gaussian 86(TM) system (copyright 1986, Carnegie Mellon
 University), and the Gaussian 82(TM) system (copyright 1983,
 Carnegie Mellon University). Gaussian is a federally registered
 trademark of Gaussian, Inc.
  
 This software contains proprietary and confidential information,
 including trade secrets, belonging to Gaussian, Inc.
  
 This software is provided under written license and may be
 used, copied, transmitted, or stored only in accord with that
 written license.
  
 The following legend is applicable only to US Government
 contracts under FAR:
  
                    RESTRICTED RIGHTS LEGEND
  
 Use, reproduction and disclosure by the US Government is
 subject to restrictions as set forth in subparagraphs (a)
 and (c) of the Commercial Computer Software - Restricted
 Rights clause in FAR 52.227-19.
  
 Gaussian, Inc.
 340 Quinnipiac St., Bldg. 40, Wallingford CT 06492
  
  
 ---------------------------------------------------------------
 Warning -- This program may not be used in any manner that
 competes with the business of Gaussian, Inc. or will provide
 assistance to any competitor of Gaussian, Inc.  The licensee
 of this program is prohibited from giving any competitor of
 Gaussian, Inc. access to this program.  By using this program,
 the user acknowledges that Gaussian, Inc. is engaged in the
 business of creating and licensing software in the field of
 computational chemistry and represents and warrants to the
 licensee that it is not a competitor of Gaussian, Inc. and that
 it will not use this program in any manner prohibited above.
 ---------------------------------------------------------------
  

 Cite this work as:
 Gaussian 09, Revision D.01,
 M. J. Frisch, G. W. Trucks, H. B. Schlegel, G. E. Scuseria, 
 M. A. Robb, J. R. Cheeseman, G. Scalmani, V. Barone, B. Mennucci, 
 G. A. Petersson, H. Nakatsuji, M. Caricato, X. Li, H. P. Hratchian, 
 A. F. Izmaylov, J. Bloino, G. Zheng, J. L. Sonnenberg, M. Hada, 
 M. Ehara, K. Toyota, R. Fukuda, J. Hasegawa, M. Ishida, T. Nakajima, 
 Y. Honda, O. Kitao, H. Nakai, T. Vreven, J. A. Montgomery, Jr., 
 J. E. Peralta, F. Ogliaro, M. Bearpark, J. J. Heyd, E. Brothers, 
 K. N. Kudin, V. N. Staroverov, T. Keith, R. Kobayashi, J. Normand, 
 K. Raghavachari, A. Rendell, J. C. Burant, S. S. Iyengar, J. Tomasi, 
 M. Cossi, N. Rega, J. M. Millam, M. Klene, J. E. Knox, J. B. Cross, 
 V. Bakken, C. Adamo, J. Jaramillo, R. Gomperts, R. E. Stratmann, 
 O. Yazyev, A. J. Austin, R. Cammi, C. Pomelli, J. W. Ochterski, 
 R. L. Martin, K. Morokuma, V. G. Zakrzewski, G. A. Voth, 
 P. Salvador, J. J. Dannenberg, S. Dapprich, A. D. Daniels, 
 O. Farkas, J. B. Foresman, J. V. Ortiz, J. Cioslowski, 
 and D. J. Fox, Gaussian, Inc., Wallingford CT, 2013.
 
 ******************************************
 Gaussian 09:  ES64L-G09RevD.01 24-Apr-2013
                 5-Mar-2024 
 ******************************************
 %nprocshared=24
 Will use up to   24 processors via shared memory.
 %mem=40GB
 %rwf=A584720880/A584720880_0.rwf
 %nosave
 %chk=A584720880/A584720880_0.chk
 ----------------------------------------------------------------------
 #p CAM-B3LYP/6-31G(d,p) SCRF=(PCM,Solvent=Generic,Read) NoSymm out=wfn
 ----------------------------------------------------------------------
 1/38=1,40=2/1;
 2/12=2,15=1,17=6,18=5,40=1/2;
 3/5=1,6=6,7=101,11=2,16=1,25=1,30=1,70=2203,72=-2,74=-40/1,2,3;
 4//1;
 5/5=2,38=5/2;
 6/7=2,8=2,9=2,10=2,28=1/1;
 99/5=1,6=100,9=1/99;
 Leave Link    1 at Tue Mar  5 18:03:21 2024, MaxMem=  5368709120 cpu:        52.2
 (Enter /home/k0335/k033513/app/g09/l101.exe)
 ------------------
 Title A584720880_0
 ------------------
 Symbolic Z-matrix:
 Charge =  0 Multiplicity = 1
 C                    -0.02195   4.74533   1.10806 
 C                    -0.74283   3.61773   1.10122 
 N                    -0.37147   2.35125   0.62729 
 C                    -1.28721   1.31252   0.80965 
 O                    -2.36941   1.46903   1.37719 
 N                    -0.9467    0.09347   0.28097 
 C                    -1.95465  -0.95697   0.22865 
 F                    -2.68188  -0.95917   1.37699 
 F                    -1.28175  -2.15343   0.29781 
 C                    -2.87957  -1.00282  -1.02375 
 F                    -2.14912  -0.56682  -2.10998 
 O                    -3.2549   -2.3327   -1.42148 
 C                    -4.21874  -2.93428  -0.59651 
 F                    -5.4132   -2.36011  -0.80242 
 F                    -3.87722  -2.81968   0.69265 
 F                    -4.3035   -4.23879  -0.91021 
 C                    -4.03376  -0.01344  -0.86743 
 F                    -4.88764  -0.10694  -1.9178 
 F                    -3.59207   1.26435  -0.85607 
 F                    -4.75717  -0.21792   0.25005 
 C                     0.19417  -0.07795  -0.45982 
 O                     0.29407  -0.96461  -1.29851 
 N                     1.1889    0.82548  -0.23032 
 C                     2.50045   0.59326  -0.83317 
 F                     3.35582   1.52062  -0.30087 
 F                     2.43931   0.85115  -2.16418 
 C                     3.15807  -0.79057  -0.56934 
 F                     2.54459  -1.76661  -1.29182 
 O                     2.95215  -1.12123   0.8154 
 C                     3.69115  -2.24829   1.217 
 F                     4.96931  -1.88788   1.41223 
 F                     3.61806  -3.23342   0.3117 
 F                     3.18483  -2.68687   2.38417 
 C                     4.61103  -0.65894  -1.05124 
 F                     5.33418   0.17036  -0.26529 
 F                     5.24563  -1.85691  -1.02781 
 F                     4.70232  -0.2043   -2.31917 
 C                     0.80561   2.14268  -0.10184 
 O                     1.4319    3.04554  -0.65559 
 H                    -0.4466    5.65612   1.52195 
 H                     0.98869   4.82772   0.72484 
 H                    -1.73888   3.67404   1.54336 
 
 NAtoms=     42 NQM=       42 NQMF=       0 NMMI=      0 NMMIF=      0
                NMic=       0 NMicF=      0.
                    Isotopes and Nuclear Properties:
 (Nuclear quadrupole moments (NQMom) in fm**2, nuclear magnetic moments (NMagM)
  in nuclear magnetons)

  Atom         1           2           3           4           5           6           7           8           9          10
 IAtWgt=          12          12          14          12          16          14          12          19          19          12
 AtmWgt=  12.0000000  12.0000000  14.0030740  12.0000000  15.9949146  14.0030740  12.0000000  18.9984033  18.9984033  12.0000000
 NucSpn=           0           0           2           0           0           2           0           1           1           0
 AtZEff=   0.0000000   0.0000000   0.0000000   0.0000000   0.0000000   0.0000000   0.0000000   0.0000000   0.0000000   0.0000000
 NQMom=    0.0000000   0.0000000   2.0440000   0.0000000   0.0000000   2.0440000   0.0000000   0.0000000   0.0000000   0.0000000
 NMagM=    0.0000000   0.0000000   0.4037610   0.0000000   0.0000000   0.4037610   0.0000000   2.6288670   2.6288670   0.0000000
 AtZNuc=   6.0000000   6.0000000   7.0000000   6.0000000   8.0000000   7.0000000   6.0000000   9.0000000   9.0000000   6.0000000

  Atom        11          12          13          14          15          16          17          18          19          20
 IAtWgt=          19          16          12          19          19          19          12          19          19          19
 AtmWgt=  18.9984033  15.9949146  12.0000000  18.9984033  18.9984033  18.9984033  12.0000000  18.9984033  18.9984033  18.9984033
 NucSpn=           1           0           0           1           1           1           0           1           1           1
 AtZEff=   0.0000000   0.0000000   0.0000000   0.0000000   0.0000000   0.0000000   0.0000000   0.0000000   0.0000000   0.0000000
 NQMom=    0.0000000   0.0000000   0.0000000   0.0000000   0.0000000   0.0000000   0.0000000   0.0000000   0.0000000   0.0000000
 NMagM=    2.6288670   0.0000000   0.0000000   2.6288670   2.6288670   2.6288670   0.0000000   2.6288670   2.6288670   2.6288670
 AtZNuc=   9.0000000   8.0000000   6.0000000   9.0000000   9.0000000   9.0000000   6.0000000   9.0000000   9.0000000   9.0000000

  Atom        21          22          23          24          25          26          27          28          29          30
 IAtWgt=          12          16          14          12          19          19          12          19          16          12
 AtmWgt=  12.0000000  15.9949146  14.0030740  12.0000000  18.9984033  18.9984033  12.0000000  18.9984033  15.9949146  12.0000000
 NucSpn=           0           0           2           0           1           1           0           1           0           0
 AtZEff=   0.0000000   0.0000000   0.0000000   0.0000000   0.0000000   0.0000000   0.0000000   0.0000000   0.0000000   0.0000000
 NQMom=    0.0000000   0.0000000   2.0440000   0.0000000   0.0000000   0.0000000   0.0000000   0.0000000   0.0000000   0.0000000
 NMagM=    0.0000000   0.0000000   0.4037610   0.0000000   2.6288670   2.6288670   0.0000000   2.6288670   0.0000000   0.0000000
 AtZNuc=   6.0000000   8.0000000   7.0000000   6.0000000   9.0000000   9.0000000   6.0000000   9.0000000   8.0000000   6.0000000

  Atom        31          32          33          34          35          36          37          38          39          40
 IAtWgt=          19          19          19          12          19          19          19          12          16           1
 AtmWgt=  18.9984033  18.9984033  18.9984033  12.0000000  18.9984033  18.9984033  18.9984033  12.0000000  15.9949146   1.0078250
 NucSpn=           1           1           1           0           1           1           1           0           0           1
 AtZEff=   0.0000000   0.0000000   0.0000000   0.0000000   0.0000000   0.0000000   0.0000000   0.0000000   0.0000000   0.0000000
 NQMom=    0.0000000   0.0000000   0.0000000   0.0000000   0.0000000   0.0000000   0.0000000   0.0000000   0.0000000   0.0000000
 NMagM=    2.6288670   2.6288670   2.6288670   0.0000000   2.6288670   2.6288670   2.6288670   0.0000000   0.0000000   2.7928460
 AtZNuc=   9.0000000   9.0000000   9.0000000   6.0000000   9.0000000   9.0000000   9.0000000   6.0000000   8.0000000   1.0000000

  Atom        41          42
 IAtWgt=           1           1
 AtmWgt=   1.0078250   1.0078250
 NucSpn=           1           1
 AtZEff=   0.0000000   0.0000000
 NQMom=    0.0000000   0.0000000
 NMagM=    2.7928460   2.7928460
 AtZNuc=   1.0000000   1.0000000
 Leave Link  101 at Tue Mar  5 18:03:22 2024, MaxMem=  5368709120 cpu:         1.0
 (Enter /home/k0335/k033513/app/g09/l202.exe)
                          Input orientation:                          
 ---------------------------------------------------------------------
 Center     Atomic      Atomic             Coordinates (Angstroms)
 Number     Number       Type             X           Y           Z
 ---------------------------------------------------------------------
      1          6           0       -0.021953    4.745326    1.108064
      2          6           0       -0.742831    3.617733    1.101217
      3          7           0       -0.371474    2.351250    0.627285
      4          6           0       -1.287212    1.312516    0.809645
      5          8           0       -2.369411    1.469033    1.377191
      6          7           0       -0.946697    0.093465    0.280973
      7          6           0       -1.954647   -0.956970    0.228650
      8          9           0       -2.681879   -0.959169    1.376987
      9          9           0       -1.281752   -2.153431    0.297811
     10          6           0       -2.879569   -1.002818   -1.023749
     11          9           0       -2.149117   -0.566821   -2.109983
     12          8           0       -3.254903   -2.332695   -1.421476
     13          6           0       -4.218740   -2.934283   -0.596507
     14          9           0       -5.413201   -2.360113   -0.802424
     15          9           0       -3.877222   -2.819676    0.692647
     16          9           0       -4.303504   -4.238793   -0.910212
     17          6           0       -4.033757   -0.013442   -0.867425
     18          9           0       -4.887644   -0.106936   -1.917803
     19          9           0       -3.592069    1.264349   -0.856074
     20          9           0       -4.757168   -0.217920    0.250046
     21          6           0        0.194172   -0.077950   -0.459820
     22          8           0        0.294073   -0.964612   -1.298508
     23          7           0        1.188896    0.825479   -0.230316
     24          6           0        2.500453    0.593261   -0.833171
     25          9           0        3.355824    1.520619   -0.300871
     26          9           0        2.439305    0.851148   -2.164183
     27          6           0        3.158068   -0.790568   -0.569343
     28          9           0        2.544592   -1.766607   -1.291818
     29          8           0        2.952150   -1.121228    0.815396
     30          6           0        3.691146   -2.248291    1.216995
     31          9           0        4.969309   -1.887882    1.412233
     32          9           0        3.618057   -3.233418    0.311696
     33          9           0        3.184826   -2.686871    2.384174
     34          6           0        4.611034   -0.658941   -1.051237
     35          9           0        5.334178    0.170361   -0.265288
     36          9           0        5.245631   -1.856910   -1.027807
     37          9           0        4.702323   -0.204298   -2.319175
     38          6           0        0.805606    2.142682   -0.101837
     39          8           0        1.431897    3.045540   -0.655592
     40          1           0       -0.446603    5.656119    1.521949
     41          1           0        0.988692    4.827720    0.724842
     42          1           0       -1.738878    3.674041    1.543358
 ---------------------------------------------------------------------
                    Distance matrix (angstroms):
                    1          2          3          4          5
     1  C    0.000000
     2  C    1.338349   0.000000
     3  N    2.466762   1.402318   0.000000
     4  C    3.670711   2.386502   1.396710   0.000000
     5  O    4.039441   2.709029   2.309203   1.231974   0.000000
     6  N    4.814462   3.624200   2.355506   1.371689   2.262299
     7  C    6.084805   4.812253   3.689128   2.435896   2.716002
     8  F    6.299904   4.978352   4.105959   2.725349   2.448224
     9  F    7.059494   5.851686   4.607528   3.503540   3.933231
    10  C    6.764004   5.516396   4.501803   3.355250   3.483507
    11  F    6.565025   5.458932   4.378103   3.577571   4.043960
    12  O    8.182232   6.934124   5.869491   4.705026   4.803100
    13  C    8.915996   7.608753   6.651014   5.348497   5.167658
    14  F    9.121556   7.821179   7.046987   5.754195   5.355160
    15  F    8.500878   7.171581   6.247641   4.878202   4.597295
    16  F   10.154778   8.857158   7.826457   6.547744   6.446100
    17  C    6.530161   5.281210   4.608497   3.480551   3.163239
    18  F    7.508346   6.337753   5.737242   4.734652   4.436458
    19  F    5.359176   4.181813   3.708630   2.844170   2.554263
    20  F    6.913195   5.617084   5.096789   3.833534   3.133313
    21  C    5.076314   4.119816   2.720802   2.395712   3.512794
    22  O    6.204422   5.275579   3.891860   3.482827   4.491786
    23  N    4.315393   3.647085   2.344826   2.729439   3.957245
    24  C    5.231689   4.838200   3.670344   4.190773   5.419248
    25  F    4.877828   4.812765   3.929907   4.778529   5.966311
    26  F    5.650665   5.333181   4.235927   4.789931   6.003904
    27  C    6.600936   6.118897   4.874485   5.107356   6.280750
    28  F    7.399450   6.747213   5.398439   5.346014   6.460681
    29  O    6.583874   6.016006   4.810402   4.888285   5.945088
    30  C    7.918942   7.354168   6.165097   6.134275   7.111576
    31  F    8.306905   7.939589   6.863698   7.053348   8.070125
    32  F    8.805920   8.159593   6.870551   6.706350   7.687529
    33  F    8.194476   7.537937   6.412222   6.202690   7.009643
    34  C    7.438632   7.182400   6.058389   6.491443   7.691043
    35  F    7.176666   7.119111   6.173121   6.804616   7.983080
    36  F    8.711998   8.388453   7.211089   7.489962   8.650710
    37  F    7.652681   7.480421   6.399677   6.925660   8.153072
    38  C    2.987050   2.453726   1.400227   2.428963   3.566800
    39  O    2.848409   2.853634   2.319474   3.541729   4.589937
    40  H    1.086818   2.102328   3.424650   4.481170   4.609754
    41  H    1.083998   2.145670   2.827096   4.188507   4.794079
    42  H    2.070015   1.091224   2.111577   2.513789   2.299401
                    6          7          8          9         10
     6  N    0.000000
     7  C    1.456748   0.000000
     8  F    2.306543   1.359246   0.000000
     9  F    2.271803   1.374442   2.133363   0.000000
    10  C    2.576845   1.557590   2.409257   2.371382   0.000000
    11  F    2.756531   2.378916   3.549188   3.011167   1.379695
    12  O    3.756647   2.511215   3.169594   2.623244   1.437927
    13  C    4.543511   3.117173   3.187114   3.167875   2.388822
    14  F    5.209938   3.872147   3.764651   4.280433   2.882798
    15  F    4.152571   2.716848   2.314876   2.708550   2.691152
    16  F    5.608523   4.193387   4.314728   3.865105   3.537233
    17  C    3.295480   2.532652   2.785563   3.675712   1.528219
    18  F    4.517282   3.732598   4.055532   4.701015   2.373669
    19  F    3.108350   2.965137   3.280097   4.283717   2.382397
    20  F    3.823298   2.898409   2.475130   3.978316   2.400832
    21  C    1.371036   2.421588   3.524497   2.657062   3.259031
    22  O    2.270198   2.718274   4.001824   2.538651   3.185743
    23  N    2.314739   3.642751   4.555358   3.906011   4.530410
    24  C    3.657042   4.835142   5.843920   4.809211   5.615018
    25  F    4.570230   5.883871   6.739318   5.946779   6.765383
    26  F    4.244747   5.319939   6.484108   5.379143   5.747017
    27  C    4.284116   5.177291   6.158052   4.724548   6.058432
    28  F    4.257069   4.817726   5.923721   4.161425   5.484228
    29  O    4.118506   4.944483   5.664268   4.388538   6.115997
    30  C    5.279161   5.875314   6.504066   5.058025   7.053115
    31  F    6.340711   7.085805   7.707427   6.355172   8.265726
    32  F    5.648546   6.020311   6.782053   5.017439   6.998438
    33  F    5.405849   5.835497   6.198194   4.958607   7.157294
    34  C    5.764484   6.695902   7.692398   6.227227   7.498543
    35  F    6.305054   7.392011   8.260150   7.034744   8.331702
    36  F    6.622824   7.364277   8.332730   6.667227   8.169967
    37  F    6.225822   7.167508   8.292037   6.815929   7.733101
    38  C    2.723307   4.163660   4.896014   4.793054   4.931998
    39  O    3.905075   5.317015   6.090339   5.941563   5.925663
    40  H    5.721297   6.905054   6.984233   7.948903   7.532685
    41  H    5.133802   6.509385   6.883783   7.353485   7.212225
    42  H    3.878362   4.818846   4.731127   5.976603   5.455660
                   11         12         13         14         15
    11  F    0.000000
    12  O    2.194337   0.000000
    13  C    3.489817   1.404088   0.000000
    14  F    3.947132   2.245490   1.341197   0.000000
    15  F    3.989541   2.256978   1.338539   2.192183   0.000000
    16  F    4.423145   2.234763   1.344374   2.184602   2.182834
    17  C    2.324230   2.508490   2.939205   2.722858   3.214542
    18  F    2.783515   2.804672   3.191731   2.568480   3.897994
    19  F    2.647184   3.656786   4.253070   4.056615   4.377112
    20  F    3.534600   3.085945   2.895718   2.475291   2.781966
    21  C    2.907411   4.231404   5.258433   6.063685   5.041973
    22  O    2.604977   3.805523   4.973720   5.896312   4.980528
    23  N    4.076025   5.580347   6.596395   7.352754   6.309086
    24  C    4.959288   6.483166   7.592571   8.446850   7.392631
    25  F    6.159113   7.733401   8.792472   9.602470   8.493656
    26  F    4.802831   6.566009   7.817714   8.592347   7.844421
    27  C    5.530809   6.650600   7.682028   8.716906   7.430020
    28  F    4.913225   5.828500   6.898520   7.994887   6.803437
    29  O    5.906618   6.708111   7.530093   8.609952   7.038474
    30  C    6.928549   7.430764   8.144057   9.326290   7.607997
    31  F    8.051285   8.710076   9.463099  10.626581   8.924525
    32  F    6.799674   7.145122   7.894916   9.141529   7.516350
    33  F    7.289925   7.488559   7.984890   9.175361   7.263017
    34  C    6.843177   8.050559   9.129560  10.170604   8.930868
    35  F    7.742483   9.020774  10.050212  11.054319   9.731796
    36  F    7.584045   8.522935   9.535254  10.673083   9.333452
    37  F    6.864213   8.285734   9.487137  10.453320   9.461494
    38  C    4.483798   6.185320   7.159911   7.709705   6.869140
    39  O    5.290375   7.174823   8.227483   8.723417   8.025288
    40  H    7.403679   8.965012   9.618310   9.712352   9.181285
    41  H    6.854426   8.595715   9.439915   9.745856   9.064261
    42  H    5.612496   6.868002   7.375546   7.444082   6.889455
                   16         17         18         19         20
    16  F    0.000000
    17  C    4.234169   0.000000
    18  F    4.292866   1.356893   0.000000
    19  F    5.549202   1.352023   2.164765   0.000000
    20  F    4.209445   1.346802   2.174606   2.185882   0.000000
    21  C    6.143660   4.248022   5.286909   4.036633   5.003925
    22  O    5.657628   4.452041   5.288603   4.501790   5.335785
    23  N    7.501704   5.327833   6.375057   4.841674   6.055998
    24  C    8.345568   6.562405   7.500045   6.129413   7.382712
    25  F    9.602470   7.568371   8.556762   6.974750   8.315447
    26  F    8.540809   6.658050   7.393430   6.185415   7.665548
    27  C    8.226877   7.239829   8.186524   7.061816   7.978113
    28  F    7.290662   6.821171   7.640975   6.858220   7.621776
    29  O    8.083406   7.270624   8.364301   7.163211   7.782620
    30  C    8.508909   8.307435   9.381258   8.347543   8.742506
    31  F    9.844064   9.474469  10.555588   9.401009   9.936992
    32  F    8.078055   8.385036   9.332337   8.577850   8.901765
    33  F    8.326856   8.356319   9.504096   8.487500   8.586355
    34  C    9.607508   8.670805   9.554084   8.427813   9.468424
    35  F   10.617979   9.389066  10.358250   9.012421  10.111953
    36  F    9.842417   9.462090  10.321713   9.374257  10.216417
    37  F    9.968312   8.857940   9.598856   8.549534   9.802196
    38  C    8.214603   5.352983   6.385265   4.547514   6.053158
    39  O    9.274759   6.267026   7.174112   5.334142   7.055131
    40  H   10.894970   7.121847   8.047828   5.902253   7.396150
    41  H   10.624613   7.155219   8.115770   6.015005   7.661516
    42  H    8.672385   4.967482   6.015825   3.872752   5.092160
                   21         22         23         24         25
    21  C    0.000000
    22  O    1.224560   0.000000
    23  N    1.363206   2.268517   0.000000
    24  C    2.430812   2.740733   1.462033   0.000000
    25  F    3.546369   4.067674   2.276790   1.369305   0.000000
    26  F    2.967945   2.940816   2.303046   1.357143   2.181772
    27  C    3.050328   2.960480   2.569861   1.554685   2.335117
    28  F    3.011355   2.389158   3.111850   2.404430   3.527879
    29  O    3.212639   3.399778   2.827056   2.421007   2.896267
    30  C    4.444200   4.417657   4.219482   3.700723   4.076891
    31  F    5.438968   5.482552   4.934756   4.158504   4.141973
    32  F    4.719661   4.334640   4.761223   4.147678   4.800508
    33  F    4.882498   4.988464   4.812057   4.645314   4.994165
    34  C    4.493995   4.334828   3.819482   2.463760   2.624706
    35  F    5.149676   5.268621   4.196876   2.920845   2.395485
    36  F    5.385587   5.038591   4.928316   3.684728   3.937957
    37  F    4.878175   4.588301   4.215204   2.773543   2.976903
    38  C    2.330925   3.368822   1.377840   2.409992   2.632525
    39  O    3.365484   4.217737   2.273451   2.680862   2.480465
    40  H    6.100619   7.234477   5.392622   6.313815   5.906224
    41  H    5.108844   6.174751   4.119507   4.758515   4.194320
    42  H    4.671920   5.807426   4.453323   5.754218   5.830471
                   26         27         28         29         30
    26  F    0.000000
    27  C    2.399034   0.000000
    28  F    2.761294   1.360505   0.000000
    29  O    3.609871   1.438485   2.241198   0.000000
    30  C    4.754576   2.366460   2.800134   1.406296   0.000000
    31  F    5.166619   2.900230   3.633986   2.238951   1.342279
    32  F    4.919666   2.637297   2.423864   2.271231   1.339919
    33  F    5.810416   3.509978   3.843137   2.228551   1.345741
    34  C    2.869743   1.536443   2.356902   2.539670   2.918408
    35  F    3.528394   2.398184   3.547872   2.917214   3.278200
    36  F    4.062068   2.388555   2.715413   3.032933   2.758394
    37  F    2.501847   2.406314   2.855184   3.705321   4.207717
    38  C    2.930922   3.789010   4.441021   4.012739   5.417223
    39  O    2.847117   4.207473   4.979923   4.673000   6.052721
    40  H    6.708486   7.676388   8.483006   7.614668   8.927131
    41  H    5.124829   6.160054   7.069151   6.265249   7.590481
    42  H    6.258738   6.955309   7.482445   6.747613   8.041498
                   31         32         33         34         35
    31  F    0.000000
    32  F    2.201711   0.000000
    33  F    2.183445   2.186680   0.000000
    34  C    2.776210   3.077584   4.236581   0.000000
    35  F    2.680218   3.855346   4.450072   1.352182   0.000000
    36  F    2.455831   2.517546   4.071531   1.355873   2.167742
    37  F    4.102334   4.156042   5.530593   1.350074   2.181298
    38  C    5.989514   6.081393   5.930052   4.819931   4.942138
    39  O    6.413099   6.718650   6.721121   4.897614   4.862796
    40  H    9.287416   9.849368   9.139813   8.490051   8.167324
    41  H    7.836908   8.489181   8.002841   6.810233   6.446286
    42  H    8.715042   8.827612   8.087709   8.113448   8.097845
                   36         37         38         39         40
    36  F    0.000000
    37  F    2.166551   0.000000
    38  C    6.047146   5.060564   0.000000
    39  O    6.222309   4.901494   1.230462   0.000000
    40  H    9.764650   8.695410   4.068040   3.884015   0.000000
    41  H    8.116501   6.955451   2.815377   2.297432   1.838939
    42  H    9.272846   8.452795   3.395015   3.909502   2.366235
                   41         42
    41  H    0.000000
    42  H    3.072553   0.000000
 Symmetry turned off by external request.
 Stoichiometry    C13H3F18N3O5
 Framework group  C1[X(C13H3F18N3O5)]
 Deg. of freedom   120
 Full point group                 C1      NOp   1
 Rotational constants (GHZ):      0.1597886      0.0636547      0.0534479
 Leave Link  202 at Tue Mar  5 18:03:24 2024, MaxMem=  5368709120 cpu:         0.1
 (Enter /home/k0335/k033513/app/g09/l301.exe)
 Standard basis: 6-31G(d,p) (6D, 7F)
 Ernie: Thresh=  0.10000D-02 Tol=  0.10000D-05 Strict=F.
   600 basis functions,  1113 primitive gaussians,   600 cartesian basis functions
   152 alpha electrons      152 beta electrons
       nuclear repulsion energy      5807.4264678116 Hartrees.
 IExCor=20419 DFT=T Ex+Corr=CAM-B3LYP ExCW=0 ScaHFX=  1.000000
 ScaDFX=  1.000000  1.000000  1.000000  0.810000 ScalE2=  1.000000  1.000000
 IRadAn=      0 IRanWt=     -1 IRanGd=            0 ICorTp=0 IEmpDi=  4
  HFx wShort=  0.000000 wLong=  0.330000 cFull=  0.190000 cShort=  0.000000 cLong=  0.460000
  DFx wShort=  0.000000 wLong=  0.330000 cFull=  0.190000 cShort=  0.000000 cLong=  0.460000
 NAtoms=   42 NActive=   42 NUniq=   42 SFac= 1.00D+00 NAtFMM=   60 NAOKFM=F Big=F
 Integral buffers will be    131072 words long.
 Raffenetti 2 integral format.
 Two-electron integral symmetry is turned off.
 Using the following non-standard input for PCM:
 eps=2.05
 --- end of non-standard input.
 ------------------------------------------------------------------------------
 Polarizable Continuum Model (PCM)
 =================================
 Model                : PCM (using non-symmetric T matrix).
 Atomic radii         : UFF (Universal Force Field).
 Polarization charges : Total charges.
 Charge compensation  : None.
 Solution method      : On-the-fly selection.
 Cavity type          : Scaled VdW (van der Waals Surface) (Alpha=1.100).
 Cavity algorithm     : GePol (No added spheres)
                        Default sphere list used, NSphG=   42.
                        Lebedev-Laikov grids with approx.  5.0 points / Ang**2.
                        Smoothing algorithm: Karplus/York (Gamma=1.0000).
                        Polarization charges: spherical gaussians, with
                                              point-specific exponents (IZeta= 3).
                        Self-potential: point-specific (ISelfS= 7).
                        Self-field    : sphere-specific E.n sum rule (ISelfD= 2).
 Solvent              : Generic,
                        Eps                           =   2.050000
                        Eps(infinity)                 =   0.000000
                        RSolv                         =   0.000000 Ang.
                        Molar volume                  =   0.000000 cm**3/mol
                        Thermal expansion coefficient =   0.000000 K**-1
                        Absolute temperature          = 298.150000 K
                        Numeral density               =   0.000000 Ang**-3
                        Hydrogen bond acidity         =   0.000000
                        Hydrogen bond basicity        =   0.000000
                        Surface tension at interface  =   0.000000 (cal/mol)*Ang**-2
                        Carbon aromaticity            =   0.000000
                        Electronegative halogenicity  =   0.000000
 ------------------------------------------------------------------------------
 GePol: Number of generator spheres                  =      42
 GePol: Total number of spheres                      =      42
 GePol: Number of exposed spheres                    =      42 (100.00%)
 GePol: Number of points                             =    3508
 GePol: Average weight of points                     =       0.13
 GePol: Minimum weight of points                     =   0.14D-10
 GePol: Maximum weight of points                     =    0.20577
 GePol: Number of points with low weight             =     151
 GePol: Fraction of low-weight points (<1% of avg)   =       4.30%
 GePol: Cavity surface area                          =    438.783 Ang**2
 GePol: Cavity volume                                =    513.328 Ang**3
 Leave Link  301 at Tue Mar  5 18:03:24 2024, MaxMem=  5368709120 cpu:         0.9
 (Enter /home/k0335/k033513/app/g09/l302.exe)
 NPDir=0 NMtPBC=     1 NCelOv=     1 NCel=       1 NClECP=     1 NCelD=      1
         NCelK=      1 NCelE2=     1 NClLst=     1 CellRange=     0.0.
 One-electron integrals computed using PRISM.
 NBasis=   600 RedAO= T EigKep=  1.05D-03  NBF=   600
 NBsUse=   600 1.00D-06 EigRej= -1.00D+00 NBFU=   600
 Precomputing XC quadrature grid using
 IXCGrd= 4 IRadAn=           0 IRanWt=          -1 IRanGd=           0 AccXCQ= 0.00D+00.
 Generated NRdTot=       0 NPtTot=           0 NUsed=           0 NTot=          32
 NSgBfM=   584   584   585   585   585 MxSgAt=    42 MxSgA2=    42.
 Leave Link  302 at Tue Mar  5 18:03:25 2024, MaxMem=  5368709120 cpu:        12.8
 (Enter /home/k0335/k033513/app/g09/l303.exe)
 DipDrv:  MaxL=1.
 Leave Link  303 at Tue Mar  5 18:03:26 2024, MaxMem=  5368709120 cpu:         0.8
 (Enter /home/k0335/k033513/app/g09/l401.exe)
 ExpMin= 1.61D-01 ExpMax= 7.00D+03 ExpMxC= 1.05D+03 IAcc=1 IRadAn=         1 AccDes= 0.00D+00
 Harris functional with IExCor=20419 and IRadAn=       1 diagonalized for initial guess.
 HarFok:  IExCor=20419 AccDes= 0.00D+00 IRadAn=         1 IDoV= 1 UseB2=F ITyADJ=14
 ICtDFT=  3500011 ScaDFX=  1.000000  1.000000  1.000000  1.000000
 FoFCou: FMM=F IPFlag=           0 FMFlag=      100000 FMFlg1=           0
         NFxFlg=           0 DoJE=T BraDBF=F KetDBF=T FulRan=T
         wScrn=  0.000000 ICntrl=     500 IOpCl=  0 I1Cent=   200000004 NGrid=           0
         NMat0=    1 NMatS0=      1 NMatT0=    0 NMatD0=    1 NMtDS0=    0 NMtDT0=    0
 Symmetry not used in FoFCou.
 Harris En= -2749.22306750735    
 JPrj=0 DoOrth=F DoCkMO=F.
 Leave Link  401 at Tue Mar  5 18:03:26 2024, MaxMem=  5368709120 cpu:        13.7
 (Enter /home/k0335/k033513/app/g09/l502.exe)
 Closed shell SCF:
 Using DIIS extrapolation, IDIIS=  1040.
 Two-electron integral symmetry not used.
 IVT=     1116634 IEndB=     1116634 NGot=  5368709120 MDV=  5367969727
 LenX=  5367969727 LenY=  5367609127
 Requested convergence on RMS density matrix=1.00D-08 within 128 cycles.
 Requested convergence on MAX density matrix=1.00D-06.
 Requested convergence on             energy=1.00D-06.
 No special actions if energy rises.
 Fock matrices will be formed incrementally for  20 cycles.

 Cycle   1  Pass 1  IDiag  1:
 FoFJK:  IHMeth= 1 ICntrl=       0 DoSepK=T KAlg= 0 I1Cent=   0 FoldK=F
 IRaf=         1 NMat=   1 IRICut=       1 DoRegI=T DoRafI=F ISym2E= 0.
 FoFCou: FMM=F IPFlag=           0 FMFlag=      100000 FMFlg1=           0
         NFxFlg=           0 DoJE=T BraDBF=F KetDBF=F FulRan=T
         wScrn=  0.000000 ICntrl=     500 IOpCl=  0 I1Cent=           0 NGrid=           0
         NMat0=    1 NMatS0=      1 NMatT0=    0 NMatD0=    1 NMtDS0=    0 NMtDT0=    0
 Symmetry not used in FoFCou.
 Inv3:  Mode=1 IEnd=    36918192.
 Iteration    1 A*A^-1 deviation from unit magnitude is 7.66D-15 for   3508.
 Iteration    1 A*A^-1 deviation from orthogonality  is 2.83D-15 for   3214   1016.
 Iteration    1 A^-1*A deviation from unit magnitude is 7.99D-15 for   3508.
 Iteration    1 A^-1*A deviation from orthogonality  is 5.29D-15 for   3428   3417.
 E= -2832.87277610820    
 DIIS: error= 4.90D-02 at cycle   1 NSaved=   1.
 NSaved= 1 IEnMin= 1 EnMin= -2832.87277610820     IErMin= 1 ErrMin= 4.90D-02
 ErrMax= 4.90D-02  0.00D+00 EMaxC= 1.00D-01 BMatC= 2.39D+00 BMatP= 2.39D+00
 IDIUse=3 WtCom= 5.10D-01 WtEn= 4.90D-01
 Coeff-Com:  0.100D+01
 Coeff-En:   0.100D+01
 Coeff:      0.100D+01
 Gap=     0.537 Goal=   None    Shift=    0.000
 GapD=    0.537 DampG=2.000 DampE=0.500 DampFc=1.0000 IDamp=-1.
 RMSDP=3.19D-03 MaxDP=1.70D-01              OVMax= 2.57D-01

 Cycle   2  Pass 1  IDiag  1:
 RMSU=  3.19D-03    CP:  1.01D+00
 E= -2833.16300814198     Delta-E=       -0.290232033780 Rises=F Damp=F
 DIIS: error= 2.01D-02 at cycle   2 NSaved=   2.
 NSaved= 2 IEnMin= 2 EnMin= -2833.16300814198     IErMin= 2 ErrMin= 2.01D-02
 ErrMax= 2.01D-02  0.00D+00 EMaxC= 1.00D-01 BMatC= 1.02D+00 BMatP= 2.39D+00
 IDIUse=3 WtCom= 7.99D-01 WtEn= 2.01D-01
 Coeff-Com:  0.376D+00 0.624D+00
 Coeff-En:   0.392D+00 0.608D+00
 Coeff:      0.379D+00 0.621D+00
 Gap=     0.305 Goal=   None    Shift=    0.000
 RMSDP=1.85D-03 MaxDP=1.74D-01 DE=-2.90D-01 OVMax= 1.92D-01

 Cycle   3  Pass 1  IDiag  1:
 RMSU=  1.16D-03    CP:  1.00D+00  5.50D-01
 E= -2833.63709182674     Delta-E=       -0.474083684760 Rises=F Damp=F
 DIIS: error= 1.06D-02 at cycle   3 NSaved=   3.
 NSaved= 3 IEnMin= 3 EnMin= -2833.63709182674     IErMin= 3 ErrMin= 1.06D-02
 ErrMax= 1.06D-02  0.00D+00 EMaxC= 1.00D-01 BMatC= 2.90D-01 BMatP= 1.02D+00
 IDIUse=3 WtCom= 8.94D-01 WtEn= 1.06D-01
 Coeff-Com:  0.125D+00 0.360D+00 0.515D+00
 Coeff-En:   0.000D+00 0.233D+00 0.767D+00
 Coeff:      0.112D+00 0.347D+00 0.541D+00
 Gap=     0.317 Goal=   None    Shift=    0.000
 RMSDP=8.73D-04 MaxDP=7.99D-02 DE=-4.74D-01 OVMax= 9.19D-02

 Cycle   4  Pass 1  IDiag  1:
 RMSU=  3.62D-04    CP:  1.00D+00  6.71D-01  4.02D-01
 E= -2833.83271138857     Delta-E=       -0.195619561837 Rises=F Damp=F
 DIIS: error= 3.31D-03 at cycle   4 NSaved=   4.
 NSaved= 4 IEnMin= 4 EnMin= -2833.83271138857     IErMin= 4 ErrMin= 3.31D-03
 ErrMax= 3.31D-03  0.00D+00 EMaxC= 1.00D-01 BMatC= 2.68D-02 BMatP= 2.90D-01
 IDIUse=3 WtCom= 9.67D-01 WtEn= 3.31D-02
 Coeff-Com:  0.803D-02 0.909D-01 0.280D+00 0.621D+00
 Coeff-En:   0.000D+00 0.000D+00 0.433D-01 0.957D+00
 Coeff:      0.777D-02 0.879D-01 0.272D+00 0.632D+00
 Gap=     0.303 Goal=   None    Shift=    0.000
 RMSDP=2.57D-04 MaxDP=2.29D-02 DE=-1.96D-01 OVMax= 2.48D-02

 Cycle   5  Pass 1  IDiag  1:
 RMSU=  1.22D-04    CP:  1.00D+00  6.60D-01  5.70D-01  7.05D-01
 E= -2833.85010313053     Delta-E=       -0.017391741956 Rises=F Damp=F
 DIIS: error= 7.60D-04 at cycle   5 NSaved=   5.
 NSaved= 5 IEnMin= 5 EnMin= -2833.85010313053     IErMin= 5 ErrMin= 7.60D-04
 ErrMax= 7.60D-04  0.00D+00 EMaxC= 1.00D-01 BMatC= 2.09D-03 BMatP= 2.68D-02
 IDIUse=3 WtCom= 9.92D-01 WtEn= 7.60D-03
 Coeff-Com: -0.279D-02 0.237D-01 0.111D+00 0.346D+00 0.523D+00
 Coeff-En:   0.000D+00 0.000D+00 0.000D+00 0.000D+00 0.100D+01
 Coeff:     -0.277D-02 0.235D-01 0.110D+00 0.343D+00 0.526D+00
 Gap=     0.303 Goal=   None    Shift=    0.000
 RMSDP=6.28D-05 MaxDP=4.51D-03 DE=-1.74D-02 OVMax= 5.47D-03

 Cycle   6  Pass 1  IDiag  1:
 RMSU=  3.17D-05    CP:  1.00D+00  6.64D-01  5.59D-01  7.44D-01  6.04D-01
 E= -2833.85157213188     Delta-E=       -0.001469001349 Rises=F Damp=F
 DIIS: error= 1.31D-04 at cycle   6 NSaved=   6.
 NSaved= 6 IEnMin= 6 EnMin= -2833.85157213188     IErMin= 6 ErrMin= 1.31D-04
 ErrMax= 1.31D-04  0.00D+00 EMaxC= 1.00D-01 BMatC= 3.98D-05 BMatP= 2.09D-03
 IDIUse=3 WtCom= 9.99D-01 WtEn= 1.31D-03
 Coeff-Com: -0.924D-03-0.269D-02 0.284D-03 0.217D-01 0.134D+00 0.848D+00
 Coeff-En:   0.000D+00 0.000D+00 0.000D+00 0.000D+00 0.000D+00 0.100D+01
 Coeff:     -0.923D-03-0.269D-02 0.283D-03 0.217D-01 0.133D+00 0.848D+00
 Gap=     0.306 Goal=   None    Shift=    0.000
 RMSDP=1.44D-05 MaxDP=1.03D-03 DE=-1.47D-03 OVMax= 2.33D-03

 Cycle   7  Pass 1  IDiag  1:
 RMSU=  1.00D-05    CP:  1.00D+00  6.64D-01  5.62D-01  7.59D-01  6.69D-01
                    CP:  9.93D-01
 E= -2833.85160770580     Delta-E=       -0.000035573923 Rises=F Damp=F
 DIIS: error= 5.46D-05 at cycle   7 NSaved=   7.
 NSaved= 7 IEnMin= 7 EnMin= -2833.85160770580     IErMin= 7 ErrMin= 5.46D-05
 ErrMax= 5.46D-05  0.00D+00 EMaxC= 1.00D-01 BMatC= 7.10D-06 BMatP= 3.98D-05
 IDIUse=1 WtCom= 1.00D+00 WtEn= 0.00D+00
 Coeff-Com: -0.172D-03-0.301D-02-0.764D-02-0.150D-01 0.248D-01 0.383D+00
 Coeff-Com:  0.618D+00
 Coeff:     -0.172D-03-0.301D-02-0.764D-02-0.150D-01 0.248D-01 0.383D+00
 Coeff:      0.618D+00
 Gap=     0.305 Goal=   None    Shift=    0.000
 RMSDP=4.85D-06 MaxDP=4.95D-04 DE=-3.56D-05 OVMax= 4.87D-04

 Cycle   8  Pass 1  IDiag  1:
 RMSU=  3.12D-06    CP:  1.00D+00  6.64D-01  5.63D-01  7.60D-01  6.79D-01
                    CP:  1.07D+00  7.77D-01
 E= -2833.85161395086     Delta-E=       -0.000006245056 Rises=F Damp=F
 DIIS: error= 1.33D-05 at cycle   8 NSaved=   8.
 NSaved= 8 IEnMin= 8 EnMin= -2833.85161395086     IErMin= 8 ErrMin= 1.33D-05
 ErrMax= 1.33D-05  0.00D+00 EMaxC= 1.00D-01 BMatC= 6.27D-07 BMatP= 7.10D-06
 IDIUse=1 WtCom= 1.00D+00 WtEn= 0.00D+00
 Coeff-Com:  0.949D-05-0.110D-02-0.330D-02-0.906D-02-0.394D-02 0.705D-01
 Coeff-Com:  0.248D+00 0.698D+00
 Coeff:      0.949D-05-0.110D-02-0.330D-02-0.906D-02-0.394D-02 0.705D-01
 Coeff:      0.248D+00 0.698D+00
 Gap=     0.305 Goal=   None    Shift=    0.000
 RMSDP=1.85D-06 MaxDP=1.67D-04 DE=-6.25D-06 OVMax= 3.09D-04

 Cycle   9  Pass 1  IDiag  1:
 RMSU=  1.33D-06    CP:  1.00D+00  6.64D-01  5.63D-01  7.60D-01  6.83D-01
                    CP:  1.09D+00  8.61D-01  9.25D-01
 E= -2833.85161453348     Delta-E=       -0.000000582619 Rises=F Damp=F
 DIIS: error= 8.64D-06 at cycle   9 NSaved=   9.
 NSaved= 9 IEnMin= 9 EnMin= -2833.85161453348     IErMin= 9 ErrMin= 8.64D-06
 ErrMax= 8.64D-06  0.00D+00 EMaxC= 1.00D-01 BMatC= 1.35D-07 BMatP= 6.27D-07
 IDIUse=1 WtCom= 1.00D+00 WtEn= 0.00D+00
 Coeff-Com:  0.280D-04 0.159D-05-0.162D-03-0.177D-02-0.725D-02-0.415D-01
 Coeff-Com:  0.327D-02 0.347D+00 0.701D+00
 Coeff:      0.280D-04 0.159D-05-0.162D-03-0.177D-02-0.725D-02-0.415D-01
 Coeff:      0.327D-02 0.347D+00 0.701D+00
 Gap=     0.305 Goal=   None    Shift=    0.000
 RMSDP=8.59D-07 MaxDP=9.23D-05 DE=-5.83D-07 OVMax= 1.18D-04

 Cycle  10  Pass 1  IDiag  1:
 RMSU=  4.36D-07    CP:  1.00D+00  6.64D-01  5.64D-01  7.60D-01  6.84D-01
                    CP:  1.10D+00  8.86D-01  1.08D+00  8.70D-01
 E= -2833.85161466963     Delta-E=       -0.000000136159 Rises=F Damp=F
 DIIS: error= 2.37D-06 at cycle  10 NSaved=  10.
 NSaved=10 IEnMin=10 EnMin= -2833.85161466963     IErMin=10 ErrMin= 2.37D-06
 ErrMax= 2.37D-06  0.00D+00 EMaxC= 1.00D-01 BMatC= 1.38D-08 BMatP= 1.35D-07
 IDIUse=1 WtCom= 1.00D+00 WtEn= 0.00D+00
 Coeff-Com:  0.111D-04 0.115D-03 0.290D-03 0.123D-03-0.294D-02-0.269D-01
 Coeff-Com: -0.239D-01 0.931D-01 0.329D+00 0.631D+00
 Coeff:      0.111D-04 0.115D-03 0.290D-03 0.123D-03-0.294D-02-0.269D-01
 Coeff:     -0.239D-01 0.931D-01 0.329D+00 0.631D+00
 Gap=     0.305 Goal=   None    Shift=    0.000
 RMSDP=2.32D-07 MaxDP=1.84D-05 DE=-1.36D-07 OVMax= 3.37D-05

 Cycle  11  Pass 1  IDiag  1:
 RMSU=  1.52D-07    CP:  1.00D+00  6.64D-01  5.64D-01  7.60D-01  6.84D-01
                    CP:  1.11D+00  8.94D-01  1.09D+00  9.51D-01  8.78D-01
 E= -2833.85161468086     Delta-E=       -0.000000011221 Rises=F Damp=F
 DIIS: error= 6.80D-07 at cycle  11 NSaved=  11.
 NSaved=11 IEnMin=11 EnMin= -2833.85161468086     IErMin=11 ErrMin= 6.80D-07
 ErrMax= 6.80D-07  0.00D+00 EMaxC= 1.00D-01 BMatC= 1.23D-09 BMatP= 1.38D-08
 IDIUse=1 WtCom= 1.00D+00 WtEn= 0.00D+00
 Coeff-Com:  0.133D-05 0.465D-04 0.150D-03 0.270D-03-0.199D-03-0.566D-02
 Coeff-Com: -0.994D-02-0.418D-02 0.490D-01 0.254D+00 0.717D+00
 Coeff:      0.133D-05 0.465D-04 0.150D-03 0.270D-03-0.199D-03-0.566D-02
 Coeff:     -0.994D-02-0.418D-02 0.490D-01 0.254D+00 0.717D+00
 Gap=     0.305 Goal=   None    Shift=    0.000
 RMSDP=7.39D-08 MaxDP=4.10D-06 DE=-1.12D-08 OVMax= 1.09D-05

 Cycle  12  Pass 1  IDiag  1:
 RMSU=  4.73D-08    CP:  1.00D+00  6.64D-01  5.64D-01  7.60D-01  6.84D-01
                    CP:  1.11D+00  8.95D-01  1.10D+00  9.67D-01  9.57D-01
                    CP:  9.72D-01
 E= -2833.85161468211     Delta-E=       -0.000000001257 Rises=F Damp=F
 DIIS: error= 2.06D-07 at cycle  12 NSaved=  12.
 NSaved=12 IEnMin=12 EnMin= -2833.85161468211     IErMin=12 ErrMin= 2.06D-07
 ErrMax= 2.06D-07  0.00D+00 EMaxC= 1.00D-01 BMatC= 1.10D-10 BMatP= 1.23D-09
 IDIUse=1 WtCom= 1.00D+00 WtEn= 0.00D+00
 Coeff-Com: -0.476D-06 0.412D-05 0.265D-04 0.732D-04 0.273D-03 0.828D-03
 Coeff-Com: -0.827D-03-0.105D-01-0.162D-01 0.132D-01 0.204D+00 0.809D+00
 Coeff:     -0.476D-06 0.412D-05 0.265D-04 0.732D-04 0.273D-03 0.828D-03
 Coeff:     -0.827D-03-0.105D-01-0.162D-01 0.132D-01 0.204D+00 0.809D+00
 Gap=     0.305 Goal=   None    Shift=    0.000
 RMSDP=2.90D-08 MaxDP=1.68D-06 DE=-1.26D-09 OVMax= 5.29D-06

 Cycle  13  Pass 1  IDiag  1:
 RMSU=  1.60D-08    CP:  1.00D+00  6.64D-01  5.64D-01  7.60D-01  6.84D-01
                    CP:  1.11D+00  8.95D-01  1.11D+00  9.75D-01  9.82D-01
                    CP:  1.05D+00  9.93D-01
 E= -2833.85161468211     Delta-E=        0.000000000004 Rises=F Damp=F
 DIIS: error= 7.61D-08 at cycle  13 NSaved=  13.
 NSaved=13 IEnMin=12 EnMin= -2833.85161468211     IErMin=13 ErrMin= 7.61D-08
 ErrMax= 7.61D-08  0.00D+00 EMaxC= 1.00D-01 BMatC= 1.67D-11 BMatP= 1.10D-10
 IDIUse=1 WtCom= 1.00D+00 WtEn= 0.00D+00
 Coeff-Com: -0.327D-06-0.339D-05-0.363D-05 0.780D-06 0.143D-03 0.920D-03
 Coeff-Com:  0.748D-03-0.375D-02-0.113D-01-0.222D-01 0.470D-02 0.332D+00
 Coeff-Com:  0.698D+00
 Coeff:     -0.327D-06-0.339D-05-0.363D-05 0.780D-06 0.143D-03 0.920D-03
 Coeff:      0.748D-03-0.375D-02-0.113D-01-0.222D-01 0.470D-02 0.332D+00
 Coeff:      0.698D+00
 Gap=     0.305 Goal=   None    Shift=    0.000
 RMSDP=9.31D-09 MaxDP=7.07D-07 DE= 3.64D-12 OVMax= 1.75D-06

 Error on total polarization charges =  0.00155
 SCF Done:  E(RCAM-B3LYP) =  -2833.85161468     A.U. after   13 cycles
            NFock= 13  Conv=0.93D-08     -V/T= 2.0074
 KE= 2.813165983435D+03 PE=-1.831236095689D+04 EE= 6.857916890966D+03
 Leave Link  502 at Tue Mar  5 18:04:20 2024, MaxMem=  5368709120 cpu:      1175.5
 (Enter /home/k0335/k033513/app/g09/l601.exe)
 Copying SCF densities to generalized density rwf, IOpCl= 0 IROHF=0.

 **********************************************************************

            Population analysis using the SCF density.

 **********************************************************************

 Alpha  occ. eigenvalues --  -24.84253 -24.84102 -24.83956 -24.83901 -24.83812
 Alpha  occ. eigenvalues --  -24.83780 -24.83777 -24.83703 -24.83482 -24.83417
 Alpha  occ. eigenvalues --  -24.83369 -24.83244 -24.83060 -24.83030 -24.82998
 Alpha  occ. eigenvalues --  -24.82814 -24.82602 -24.82462 -19.33653 -19.33301
 Alpha  occ. eigenvalues --  -19.25537 -19.25536 -19.24731 -14.53732 -14.53083
 Alpha  occ. eigenvalues --  -14.52619 -10.60002 -10.59861 -10.55676 -10.55562
 Alpha  occ. eigenvalues --  -10.53752 -10.53724 -10.49454 -10.49386 -10.47270
 Alpha  occ. eigenvalues --  -10.46969 -10.46776 -10.32724 -10.27569  -1.43712
 Alpha  occ. eigenvalues --   -1.43632  -1.42056  -1.41989  -1.39316  -1.39163
 Alpha  occ. eigenvalues --   -1.35780  -1.35630  -1.34202  -1.33952  -1.33709
 Alpha  occ. eigenvalues --   -1.33676  -1.33104  -1.33048  -1.32437  -1.32389
 Alpha  occ. eigenvalues --   -1.32078  -1.31597  -1.24305  -1.20957  -1.20678
 Alpha  occ. eigenvalues --   -1.18912  -1.18730  -1.10938  -1.09144  -1.08150
 Alpha  occ. eigenvalues --   -0.94065  -0.93261  -0.88533  -0.85934  -0.84705
 Alpha  occ. eigenvalues --   -0.82612  -0.82306  -0.80632  -0.79206  -0.77744
 Alpha  occ. eigenvalues --   -0.76216  -0.75055  -0.74381  -0.73459  -0.73111
 Alpha  occ. eigenvalues --   -0.71623  -0.71365  -0.70839  -0.70769  -0.70142
 Alpha  occ. eigenvalues --   -0.69734  -0.69021  -0.68952  -0.68372  -0.67914
 Alpha  occ. eigenvalues --   -0.67830  -0.67023  -0.66159  -0.65482  -0.65070
 Alpha  occ. eigenvalues --   -0.64129  -0.62974  -0.60486  -0.59481  -0.59300
 Alpha  occ. eigenvalues --   -0.58048  -0.57916  -0.57647  -0.57421  -0.57385
 Alpha  occ. eigenvalues --   -0.56945  -0.56927  -0.56618  -0.56176  -0.55833
 Alpha  occ. eigenvalues --   -0.55615  -0.55456  -0.55235  -0.54998  -0.54924
 Alpha  occ. eigenvalues --   -0.54539  -0.54377  -0.53940  -0.53857  -0.53523
 Alpha  occ. eigenvalues --   -0.53306  -0.52734  -0.52613  -0.52231  -0.52087
 Alpha  occ. eigenvalues --   -0.51841  -0.51676  -0.51437  -0.51146  -0.51018
 Alpha  occ. eigenvalues --   -0.50764  -0.50666  -0.50552  -0.50204  -0.50160
 Alpha  occ. eigenvalues --   -0.49834  -0.49318  -0.49241  -0.48976  -0.48617
 Alpha  occ. eigenvalues --   -0.47860  -0.46825  -0.46240  -0.44755  -0.44268
 Alpha  occ. eigenvalues --   -0.43123  -0.41947  -0.39857  -0.39176  -0.38514
 Alpha  occ. eigenvalues --   -0.37053  -0.32265
 Alpha virt. eigenvalues --   -0.01734  -0.00162   0.02893   0.05713   0.06552
 Alpha virt. eigenvalues --    0.06849   0.07617   0.10907   0.14280   0.15005
 Alpha virt. eigenvalues --    0.15812   0.16681   0.17474   0.18545   0.18771
 Alpha virt. eigenvalues --    0.19847   0.20248   0.20641   0.21047   0.21447
 Alpha virt. eigenvalues --    0.22271   0.22310   0.22586   0.22786   0.23205
 Alpha virt. eigenvalues --    0.23806   0.24260   0.24736   0.24998   0.25757
 Alpha virt. eigenvalues --    0.26945   0.27139   0.27711   0.29161   0.30186
 Alpha virt. eigenvalues --    0.31038   0.32254   0.32730   0.33343   0.35771
 Alpha virt. eigenvalues --    0.38223   0.38501   0.39707   0.40955   0.43085
 Alpha virt. eigenvalues --    0.45230   0.47445   0.48090   0.48844   0.49538
 Alpha virt. eigenvalues --    0.50320   0.50774   0.50969   0.51871   0.51918
 Alpha virt. eigenvalues --    0.52541   0.53611   0.53796   0.54158   0.55027
 Alpha virt. eigenvalues --    0.55693   0.56104   0.56567   0.56989   0.58032
 Alpha virt. eigenvalues --    0.58321   0.60038   0.60544   0.61607   0.62004
 Alpha virt. eigenvalues --    0.62909   0.63685   0.64642   0.66069   0.67891
 Alpha virt. eigenvalues --    0.68491   0.69539   0.70936   0.71271   0.71780
 Alpha virt. eigenvalues --    0.72025   0.73880   0.77332   0.78101   0.79910
 Alpha virt. eigenvalues --    0.81157   0.81854   0.83230   0.83845   0.85063
 Alpha virt. eigenvalues --    0.85750   0.86845   0.87732   0.88270   0.90056
 Alpha virt. eigenvalues --    0.90332   0.91160   0.93461   0.93970   0.94566
 Alpha virt. eigenvalues --    0.95646   0.96450   0.97444   0.98191   0.99172
 Alpha virt. eigenvalues --    1.00071   1.02003   1.02761   1.03459   1.04219
 Alpha virt. eigenvalues --    1.04842   1.05754   1.06873   1.08046   1.08271
 Alpha virt. eigenvalues --    1.09392   1.09736   1.10952   1.11019   1.11866
 Alpha virt. eigenvalues --    1.12090   1.13966   1.14697   1.14847   1.15409
 Alpha virt. eigenvalues --    1.16173   1.16300   1.16979   1.17085   1.17767
 Alpha virt. eigenvalues --    1.18271   1.18969   1.19664   1.20337   1.21314
 Alpha virt. eigenvalues --    1.21883   1.22179   1.23562   1.24632   1.26170
 Alpha virt. eigenvalues --    1.26818   1.27586   1.27858   1.28711   1.29167
 Alpha virt. eigenvalues --    1.30115   1.30674   1.31392   1.31665   1.31995
 Alpha virt. eigenvalues --    1.33012   1.33764   1.34039   1.34602   1.34784
 Alpha virt. eigenvalues --    1.35003   1.35447   1.36000   1.36512   1.37716
 Alpha virt. eigenvalues --    1.38127   1.38539   1.39160   1.39468   1.40049
 Alpha virt. eigenvalues --    1.40745   1.40900   1.41277   1.41443   1.41989
 Alpha virt. eigenvalues --    1.42527   1.43508   1.43734   1.44268   1.45140
 Alpha virt. eigenvalues --    1.46016   1.46530   1.46742   1.48197   1.48932
 Alpha virt. eigenvalues --    1.49673   1.50525   1.51060   1.51783   1.51876
 Alpha virt. eigenvalues --    1.52952   1.53243   1.54085   1.54675   1.55074
 Alpha virt. eigenvalues --    1.55839   1.56480   1.56961   1.57854   1.59035
 Alpha virt. eigenvalues --    1.60124   1.60952   1.61921   1.62135   1.63093
 Alpha virt. eigenvalues --    1.64576   1.65115   1.65766   1.66651   1.67156
 Alpha virt. eigenvalues --    1.68468   1.69576   1.70291   1.71066   1.72012
 Alpha virt. eigenvalues --    1.72927   1.74215   1.74768   1.75247   1.75920
 Alpha virt. eigenvalues --    1.76523   1.76939   1.77566   1.78866   1.79387
 Alpha virt. eigenvalues --    1.80277   1.80469   1.80686   1.81499   1.81949
 Alpha virt. eigenvalues --    1.83016   1.83233   1.83635   1.84285   1.84591
 Alpha virt. eigenvalues --    1.84903   1.85438   1.85571   1.86416   1.86572
 Alpha virt. eigenvalues --    1.87017   1.87305   1.88069   1.88146   1.89160
 Alpha virt. eigenvalues --    1.89876   1.90080   1.90555   1.90844   1.91500
 Alpha virt. eigenvalues --    1.91648   1.92097   1.92490   1.93298   1.93591
 Alpha virt. eigenvalues --    1.93967   1.94583   1.94949   1.95528   1.95918
 Alpha virt. eigenvalues --    1.96449   1.97043   1.97986   1.98081   1.98747
 Alpha virt. eigenvalues --    1.99443   1.99899   2.00309   2.00830   2.01115
 Alpha virt. eigenvalues --    2.01425   2.02190   2.02444   2.02661   2.03223
 Alpha virt. eigenvalues --    2.03402   2.03669   2.03859   2.04363   2.04497
 Alpha virt. eigenvalues --    2.04940   2.05699   2.06026   2.06987   2.07399
 Alpha virt. eigenvalues --    2.07918   2.08447   2.08712   2.09902   2.10544
 Alpha virt. eigenvalues --    2.10632   2.11056   2.11265   2.11811   2.12064
 Alpha virt. eigenvalues --    2.12447   2.13617   2.14732   2.15140   2.16233
 Alpha virt. eigenvalues --    2.17441   2.17601   2.18895   2.19281   2.20048
 Alpha virt. eigenvalues --    2.20356   2.21121   2.22457   2.23145   2.24514
 Alpha virt. eigenvalues --    2.25054   2.25890   2.27017   2.27758   2.28284
 Alpha virt. eigenvalues --    2.28949   2.30711   2.31832   2.33012   2.33795
 Alpha virt. eigenvalues --    2.35008   2.35989   2.36902   2.38176   2.38469
 Alpha virt. eigenvalues --    2.40383   2.41080   2.41736   2.44038   2.44525
 Alpha virt. eigenvalues --    2.45150   2.45773   2.46363   2.47391   2.48665
 Alpha virt. eigenvalues --    2.49571   2.51056   2.51945   2.53407   2.54252
 Alpha virt. eigenvalues --    2.54929   2.56178   2.57876   2.58801   2.60422
 Alpha virt. eigenvalues --    2.60851   2.61503   2.62477   2.63653   2.64901
 Alpha virt. eigenvalues --    2.66492   2.67509   2.69154   2.69470   2.69970
 Alpha virt. eigenvalues --    2.71182   2.71921   2.73340   2.74302   2.74856
 Alpha virt. eigenvalues --    2.77073   2.78080   2.79916   2.81674   2.82463
 Alpha virt. eigenvalues --    2.83672   2.84337   2.84901   2.85652   2.87629
 Alpha virt. eigenvalues --    2.88148   2.89012   2.91198   2.91438   2.92184
 Alpha virt. eigenvalues --    2.93261   2.94599   2.94801   2.95523   2.96405
 Alpha virt. eigenvalues --    2.97452   2.98070   2.99848   3.00970   3.01206
 Alpha virt. eigenvalues --    3.04725   3.05735   3.06069   3.06220   3.06520
 Alpha virt. eigenvalues --    3.07251   3.08118   3.10607   3.12664   3.13923
 Alpha virt. eigenvalues --    3.15403   3.16133   3.17405   3.19672   3.20747
 Alpha virt. eigenvalues --    3.22461   3.23353   3.25134   3.25975   3.26962
 Alpha virt. eigenvalues --    3.29684   3.30210   3.31844   3.32564   3.35625
 Alpha virt. eigenvalues --    3.42050   3.45431   3.54912   3.76784   4.01613
 Alpha virt. eigenvalues --    4.05067   4.14969   4.17741   4.19463   4.25154
 Alpha virt. eigenvalues --    4.25927   4.33576   4.34033   4.34452   4.38643
 Alpha virt. eigenvalues --    4.41242   4.43431   4.44801   4.47196   4.49670
 Alpha virt. eigenvalues --    4.53638   4.57523   4.63366   4.69990   4.71617
 Alpha virt. eigenvalues --    4.72737   4.77705   4.87079   4.99857   5.02556
 Alpha virt. eigenvalues --    5.12940   5.14574   5.22787   5.37779   5.47199
 Alpha virt. eigenvalues --    5.47921   5.71478   5.73541   5.77026   6.14467
 Alpha virt. eigenvalues --    6.28540   6.57692   6.70933
          Condensed to atoms (all electrons):
               1          2          3          4          5          6
     1  C    4.946496   0.651971  -0.049790   0.003055   0.001222  -0.000187
     2  C    0.651971   4.646615   0.276618  -0.021623   0.000845   0.003249
     3  N   -0.049790   0.276618   7.296816   0.236696  -0.087003  -0.092377
     4  C    0.003055  -0.021623   0.236696   4.222114   0.558845   0.187192
     5  O    0.001222   0.000845  -0.087003   0.558845   8.096643  -0.091820
     6  N   -0.000187   0.003249  -0.092377   0.187192  -0.091820   7.595185
     7  C    0.000000  -0.000006   0.001155  -0.006428   0.014284   0.182245
     8  F    0.000000   0.000007   0.000029   0.004025  -0.013003  -0.035990
     9  F    0.000000   0.000000  -0.000032   0.000405   0.000020  -0.043346
    10  C    0.000000   0.000005  -0.000096   0.000122  -0.004569  -0.068282
    11  F    0.000000   0.000000  -0.000011  -0.000033   0.000021  -0.001341
    12  O    0.000000   0.000000   0.000000   0.000028   0.000000   0.001921
    13  C    0.000000   0.000000   0.000000   0.000005   0.000002   0.000255
    14  F    0.000000   0.000000   0.000000   0.000000   0.000000  -0.000001
    15  F    0.000000   0.000000   0.000000   0.000008   0.000000   0.000068
    16  F    0.000000   0.000000   0.000000   0.000000   0.000000   0.000000
    17  C    0.000000  -0.000001  -0.000023   0.000737   0.006751  -0.001313
    18  F    0.000000   0.000000   0.000000   0.000007  -0.000001  -0.000011
    19  F    0.000000   0.000070  -0.000616   0.016069  -0.008966  -0.001669
    20  F    0.000000   0.000000  -0.000002  -0.000300  -0.000008  -0.000182
    21  C   -0.000007   0.000167  -0.001412  -0.016419   0.000308   0.192802
    22  O    0.000000   0.000002   0.000129   0.000217  -0.000032  -0.088365
    23  N    0.000125   0.002739  -0.098404   0.001992   0.000018  -0.102494
    24  C    0.000014  -0.000013   0.002970   0.000481   0.000001   0.003627
    25  F   -0.000006   0.000014  -0.000075  -0.000002   0.000000  -0.000024
    26  F    0.000000   0.000000   0.000010   0.000012   0.000000   0.000014
    27  C    0.000000   0.000001  -0.000069  -0.000025   0.000000  -0.000588
    28  F    0.000000   0.000000   0.000000   0.000000   0.000000  -0.000004
    29  O    0.000000   0.000000  -0.000007   0.000011   0.000000  -0.000176
    30  C    0.000000   0.000000   0.000000   0.000000   0.000000  -0.000002
    31  F    0.000000   0.000000   0.000000   0.000000   0.000000   0.000000
    32  F    0.000000   0.000000   0.000000   0.000000   0.000000   0.000000
    33  F    0.000000   0.000000   0.000000   0.000000   0.000000   0.000000
    34  C    0.000000   0.000000   0.000000   0.000000   0.000000  -0.000003
    35  F    0.000000   0.000000   0.000000   0.000000   0.000000   0.000000
    36  F    0.000000   0.000000   0.000000   0.000000   0.000000   0.000000
    37  F    0.000000   0.000000   0.000000   0.000000   0.000000   0.000000
    38  C   -0.000982  -0.022784   0.247874  -0.021888   0.000104   0.000279
    39  O   -0.007721  -0.001641  -0.076500   0.000477  -0.000017   0.000131
    40  H    0.378455  -0.021387   0.003244  -0.000022  -0.000005   0.000001
    41  H    0.378888  -0.022412  -0.009705  -0.000121  -0.000008   0.000002
    42  H   -0.041422   0.395227  -0.045749  -0.001215   0.012218   0.000865
               7          8          9         10         11         12
     1  C    0.000000   0.000000   0.000000   0.000000   0.000000   0.000000
     2  C   -0.000006   0.000007   0.000000   0.000005   0.000000   0.000000
     3  N    0.001155   0.000029  -0.000032  -0.000096  -0.000011   0.000000
     4  C   -0.006428   0.004025   0.000405   0.000122  -0.000033   0.000028
     5  O    0.014284  -0.013003   0.000020  -0.004569   0.000021   0.000000
     6  N    0.182245  -0.035990  -0.043346  -0.068282  -0.001341   0.001921
     7  C    4.432378   0.263848   0.259428   0.187170  -0.028392  -0.034722
     8  F    0.263848   9.097880  -0.041867  -0.036803   0.000312   0.000196
     9  F    0.259428  -0.041867   9.120919  -0.024700  -0.000061  -0.002766
    10  C    0.187170  -0.036803  -0.024700   4.987952   0.252635   0.173360
    11  F   -0.028392   0.000312  -0.000061   0.252635   9.099816  -0.042660
    12  O   -0.034722   0.000196  -0.002766   0.173360  -0.042660   8.325112
    13  C   -0.005640   0.002332   0.003443  -0.001887   0.000237   0.237345
    14  F   -0.000431  -0.000012   0.000001  -0.007287  -0.000002  -0.047476
    15  F    0.013844  -0.007380  -0.001324   0.003077  -0.000001  -0.047291
    16  F   -0.000140   0.000000  -0.000016   0.001306  -0.000002  -0.038375
    17  C   -0.043683   0.010482   0.001806   0.181200  -0.013764  -0.030290
    18  F    0.001814   0.000000  -0.000001  -0.019347  -0.000803  -0.000510
    19  F    0.000795  -0.000379   0.000000  -0.025077  -0.001144   0.000592
    20  F    0.002390  -0.001682  -0.000003  -0.034701   0.000308  -0.000963
    21  C   -0.015119   0.000954   0.011072  -0.001334   0.010707   0.000144
    22  O    0.010393   0.000007  -0.009921   0.001699  -0.005305  -0.000177
    23  N    0.001770  -0.000026  -0.000047  -0.000119  -0.000024   0.000000
    24  C   -0.000023   0.000000   0.000018   0.000000   0.000004   0.000000
    25  F    0.000000   0.000000   0.000000   0.000000   0.000000   0.000000
    26  F    0.000001   0.000000   0.000000   0.000000   0.000000   0.000000
    27  C   -0.000004   0.000000  -0.000025   0.000000   0.000001   0.000000
    28  F    0.000008   0.000000  -0.000001   0.000000   0.000000   0.000000
    29  O    0.000008   0.000000   0.000000   0.000000   0.000000   0.000000
    30  C    0.000001   0.000000   0.000001   0.000000   0.000000   0.000000
    31  F    0.000000   0.000000   0.000000   0.000000   0.000000   0.000000
    32  F    0.000000   0.000000   0.000000   0.000000   0.000000   0.000000
    33  F    0.000000   0.000000   0.000000   0.000000   0.000000   0.000000
    34  C    0.000000   0.000000   0.000000   0.000000   0.000000   0.000000
    35  F    0.000000   0.000000   0.000000   0.000000   0.000000   0.000000
    36  F    0.000000   0.000000   0.000000   0.000000   0.000000   0.000000
    37  F    0.000000   0.000000   0.000000   0.000000   0.000000   0.000000
    38  C    0.000272   0.000006   0.000017   0.000012   0.000003   0.000000
    39  O    0.000002   0.000000   0.000000   0.000000   0.000000   0.000000
    40  H    0.000000   0.000000   0.000000   0.000000   0.000000   0.000000
    41  H    0.000000   0.000000   0.000000   0.000000   0.000000   0.000000
    42  H    0.000011   0.000003   0.000000  -0.000001   0.000000   0.000000
              13         14         15         16         17         18
     1  C    0.000000   0.000000   0.000000   0.000000   0.000000   0.000000
     2  C    0.000000   0.000000   0.000000   0.000000  -0.000001   0.000000
     3  N    0.000000   0.000000   0.000000   0.000000  -0.000023   0.000000
     4  C    0.000005   0.000000   0.000008   0.000000   0.000737   0.000007
     5  O    0.000002   0.000000   0.000000   0.000000   0.006751  -0.000001
     6  N    0.000255  -0.000001   0.000068   0.000000  -0.001313  -0.000011
     7  C   -0.005640  -0.000431   0.013844  -0.000140  -0.043683   0.001814
     8  F    0.002332  -0.000012  -0.007380   0.000000   0.010482   0.000000
     9  F    0.003443   0.000001  -0.001324  -0.000016   0.001806  -0.000001
    10  C   -0.001887  -0.007287   0.003077   0.001306   0.181200  -0.019347
    11  F    0.000237  -0.000002  -0.000001  -0.000002  -0.013764  -0.000803
    12  O    0.237345  -0.047476  -0.047291  -0.038375  -0.030290  -0.000510
    13  C    3.843917   0.301664   0.297994   0.336486  -0.004980   0.000169
    14  F    0.301664   9.054741  -0.034990  -0.037707   0.017715  -0.001346
    15  F    0.297994  -0.034990   9.052863  -0.036963  -0.004125   0.000011
    16  F    0.336486  -0.037707  -0.036963   9.011091  -0.000088  -0.000001
    17  C   -0.004980   0.017715  -0.004125  -0.000088   4.255522   0.272622
    18  F    0.000169  -0.001346   0.000011  -0.000001   0.272622   9.080653
    19  F    0.000087   0.000000   0.000000   0.000000   0.275975  -0.038927
    20  F    0.011504  -0.005152  -0.000116   0.000000   0.257695  -0.037120
    21  C   -0.000001   0.000000   0.000006   0.000000   0.000250   0.000000
    22  O    0.000006   0.000000   0.000000   0.000000   0.000120   0.000000
    23  N    0.000000   0.000000   0.000000   0.000000   0.000014   0.000000
    24  C    0.000000   0.000000   0.000000   0.000000   0.000000   0.000000
    25  F    0.000000   0.000000   0.000000   0.000000   0.000000   0.000000
    26  F    0.000000   0.000000   0.000000   0.000000   0.000000   0.000000
    27  C    0.000000   0.000000   0.000000   0.000000   0.000000   0.000000
    28  F    0.000000   0.000000   0.000000   0.000000   0.000000   0.000000
    29  O    0.000000   0.000000   0.000000   0.000000   0.000000   0.000000
    30  C    0.000000   0.000000   0.000000   0.000000   0.000000   0.000000
    31  F    0.000000   0.000000   0.000000   0.000000   0.000000   0.000000
    32  F    0.000000   0.000000   0.000000   0.000000   0.000000   0.000000
    33  F    0.000000   0.000000   0.000000   0.000000   0.000000   0.000000
    34  C    0.000000   0.000000   0.000000   0.000000   0.000000   0.000000
    35  F    0.000000   0.000000   0.000000   0.000000   0.000000   0.000000
    36  F    0.000000   0.000000   0.000000   0.000000   0.000000   0.000000
    37  F    0.000000   0.000000   0.000000   0.000000   0.000000   0.000000
    38  C    0.000000   0.000000   0.000000   0.000000  -0.000002   0.000000
    39  O    0.000000   0.000000   0.000000   0.000000   0.000000   0.000000
    40  H    0.000000   0.000000   0.000000   0.000000   0.000000   0.000000
    41  H    0.000000   0.000000   0.000000   0.000000   0.000000   0.000000
    42  H    0.000000   0.000000   0.000000   0.000000   0.000004   0.000000
              19         20         21         22         23         24
     1  C    0.000000   0.000000  -0.000007   0.000000   0.000125   0.000014
     2  C    0.000070   0.000000   0.000167   0.000002   0.002739  -0.000013
     3  N   -0.000616  -0.000002  -0.001412   0.000129  -0.098404   0.002970
     4  C    0.016069  -0.000300  -0.016419   0.000217   0.001992   0.000481
     5  O   -0.008966  -0.000008   0.000308  -0.000032   0.000018   0.000001
     6  N   -0.001669  -0.000182   0.192802  -0.088365  -0.102494   0.003627
     7  C    0.000795   0.002390  -0.015119   0.010393   0.001770  -0.000023
     8  F   -0.000379  -0.001682   0.000954   0.000007  -0.000026   0.000000
     9  F    0.000000  -0.000003   0.011072  -0.009921  -0.000047   0.000018
    10  C   -0.025077  -0.034701  -0.001334   0.001699  -0.000119   0.000000
    11  F   -0.001144   0.000308   0.010707  -0.005305  -0.000024   0.000004
    12  O    0.000592  -0.000963   0.000144  -0.000177   0.000000   0.000000
    13  C    0.000087   0.011504  -0.000001   0.000006   0.000000   0.000000
    14  F    0.000000  -0.005152   0.000000   0.000000   0.000000   0.000000
    15  F    0.000000  -0.000116   0.000006   0.000000   0.000000   0.000000
    16  F    0.000000   0.000000   0.000000   0.000000   0.000000   0.000000
    17  C    0.275975   0.257695   0.000250   0.000120   0.000014   0.000000
    18  F   -0.038927  -0.037120   0.000000   0.000000   0.000000   0.000000
    19  F    9.061953  -0.034964  -0.000114   0.000001  -0.000001   0.000000
    20  F   -0.034964   9.085449   0.000000   0.000000   0.000000   0.000000
    21  C   -0.000114   0.000000   4.263345   0.560417   0.194481  -0.014051
    22  O    0.000001   0.000000   0.560417   8.081980  -0.095475   0.013169
    23  N   -0.000001   0.000000   0.194481  -0.095475   7.605881   0.155407
    24  C    0.000000   0.000000  -0.014051   0.013169   0.155407   4.316860
    25  F    0.000000   0.000000   0.002187   0.000013  -0.035110   0.254266
    26  F    0.000000   0.000000   0.006982  -0.001882  -0.065710   0.284253
    27  C    0.000000   0.000000  -0.006289   0.004188  -0.031405   0.240117
    28  F    0.000000   0.000000   0.006358  -0.014241  -0.001088  -0.024606
    29  O    0.000000   0.000000   0.004632  -0.001176  -0.002733  -0.028331
    30  C    0.000000   0.000000   0.000011  -0.000032  -0.000020   0.000908
    31  F    0.000000   0.000000   0.000001   0.000000   0.000001  -0.000174
    32  F    0.000000   0.000000  -0.000001  -0.000001  -0.000003   0.000236
    33  F    0.000000   0.000000  -0.000003   0.000000   0.000000  -0.000044
    34  C    0.000000   0.000000   0.000207   0.000154   0.002639  -0.027719
    35  F    0.000000   0.000000   0.000001   0.000000  -0.000047  -0.001320
    36  F    0.000000   0.000000  -0.000001   0.000000  -0.000009   0.001462
    37  F    0.000000   0.000000   0.000000  -0.000001   0.000043   0.008964
    38  C    0.000001   0.000000  -0.009908   0.000278   0.192296  -0.003947
    39  O    0.000000   0.000000  -0.000439   0.000006  -0.093314   0.016613
    40  H    0.000000   0.000000   0.000000   0.000000   0.000003   0.000000
    41  H    0.000000   0.000000   0.000003   0.000000   0.000035   0.000010
    42  H    0.000001   0.000000  -0.000025   0.000000  -0.000150   0.000001
              25         26         27         28         29         30
     1  C   -0.000006   0.000000   0.000000   0.000000   0.000000   0.000000
     2  C    0.000014   0.000000   0.000001   0.000000   0.000000   0.000000
     3  N   -0.000075   0.000010  -0.000069   0.000000  -0.000007   0.000000
     4  C   -0.000002   0.000012  -0.000025   0.000000   0.000011   0.000000
     5  O    0.000000   0.000000   0.000000   0.000000   0.000000   0.000000
     6  N   -0.000024   0.000014  -0.000588  -0.000004  -0.000176  -0.000002
     7  C    0.000000   0.000001  -0.000004   0.000008   0.000008   0.000001
     8  F    0.000000   0.000000   0.000000   0.000000   0.000000   0.000000
     9  F    0.000000   0.000000  -0.000025  -0.000001   0.000000   0.000001
    10  C    0.000000   0.000000   0.000000   0.000000   0.000000   0.000000
    11  F    0.000000   0.000000   0.000001   0.000000   0.000000   0.000000
    12  O    0.000000   0.000000   0.000000   0.000000   0.000000   0.000000
    13  C    0.000000   0.000000   0.000000   0.000000   0.000000   0.000000
    14  F    0.000000   0.000000   0.000000   0.000000   0.000000   0.000000
    15  F    0.000000   0.000000   0.000000   0.000000   0.000000   0.000000
    16  F    0.000000   0.000000   0.000000   0.000000   0.000000   0.000000
    17  C    0.000000   0.000000   0.000000   0.000000   0.000000   0.000000
    18  F    0.000000   0.000000   0.000000   0.000000   0.000000   0.000000
    19  F    0.000000   0.000000   0.000000   0.000000   0.000000   0.000000
    20  F    0.000000   0.000000   0.000000   0.000000   0.000000   0.000000
    21  C    0.002187   0.006982  -0.006289   0.006358   0.004632   0.000011
    22  O    0.000013  -0.001882   0.004188  -0.014241  -0.001176  -0.000032
    23  N   -0.035110  -0.065710  -0.031405  -0.001088  -0.002733  -0.000020
    24  C    0.254266   0.284253   0.240117  -0.024606  -0.028331   0.000908
    25  F    9.117963  -0.036063  -0.033834   0.000314   0.000800  -0.000034
    26  F   -0.036063   9.086255  -0.024495   0.000235   0.000542   0.000006
    27  C   -0.033834  -0.024495   4.965680   0.215497   0.135387  -0.000804
    28  F    0.000314   0.000235   0.215497   9.127093  -0.048115  -0.001041
    29  O    0.000800   0.000542   0.135387  -0.048115   8.383215   0.235230
    30  C   -0.000034   0.000006  -0.000804  -0.001041   0.235230   3.820397
    31  F    0.000001   0.000000  -0.008672  -0.000018  -0.048293   0.303958
    32  F    0.000000   0.000000   0.012638  -0.002273  -0.045243   0.299835
    33  F    0.000000   0.000000   0.000612  -0.000021  -0.039790   0.338853
    34  C    0.009996  -0.003622   0.220745  -0.013623  -0.026111  -0.002276
    35  F   -0.002628  -0.000046  -0.034756   0.000315   0.000417  -0.000285
    36  F    0.000003  -0.000002  -0.032032  -0.000241  -0.001376   0.011256
    37  F   -0.001377  -0.000747  -0.031482  -0.000289   0.000541   0.000061
    38  C    0.005222   0.004241   0.003613  -0.000036  -0.000060   0.000002
    39  O   -0.011253  -0.002336   0.000326   0.000000   0.000000   0.000000
    40  H    0.000000   0.000000   0.000000   0.000000   0.000000   0.000000
    41  H   -0.000003   0.000000   0.000000   0.000000   0.000000   0.000000
    42  H    0.000000   0.000000   0.000000   0.000000   0.000000   0.000000
              31         32         33         34         35         36
     1  C    0.000000   0.000000   0.000000   0.000000   0.000000   0.000000
     2  C    0.000000   0.000000   0.000000   0.000000   0.000000   0.000000
     3  N    0.000000   0.000000   0.000000   0.000000   0.000000   0.000000
     4  C    0.000000   0.000000   0.000000   0.000000   0.000000   0.000000
     5  O    0.000000   0.000000   0.000000   0.000000   0.000000   0.000000
     6  N    0.000000   0.000000   0.000000  -0.000003   0.000000   0.000000
     7  C    0.000000   0.000000   0.000000   0.000000   0.000000   0.000000
     8  F    0.000000   0.000000   0.000000   0.000000   0.000000   0.000000
     9  F    0.000000   0.000000   0.000000   0.000000   0.000000   0.000000
    10  C    0.000000   0.000000   0.000000   0.000000   0.000000   0.000000
    11  F    0.000000   0.000000   0.000000   0.000000   0.000000   0.000000
    12  O    0.000000   0.000000   0.000000   0.000000   0.000000   0.000000
    13  C    0.000000   0.000000   0.000000   0.000000   0.000000   0.000000
    14  F    0.000000   0.000000   0.000000   0.000000   0.000000   0.000000
    15  F    0.000000   0.000000   0.000000   0.000000   0.000000   0.000000
    16  F    0.000000   0.000000   0.000000   0.000000   0.000000   0.000000
    17  C    0.000000   0.000000   0.000000   0.000000   0.000000   0.000000
    18  F    0.000000   0.000000   0.000000   0.000000   0.000000   0.000000
    19  F    0.000000   0.000000   0.000000   0.000000   0.000000   0.000000
    20  F    0.000000   0.000000   0.000000   0.000000   0.000000   0.000000
    21  C    0.000001  -0.000001  -0.000003   0.000207   0.000001  -0.000001
    22  O    0.000000  -0.000001   0.000000   0.000154   0.000000   0.000000
    23  N    0.000001  -0.000003   0.000000   0.002639  -0.000047  -0.000009
    24  C   -0.000174   0.000236  -0.000044  -0.027719  -0.001320   0.001462
    25  F    0.000001   0.000000   0.000000   0.009996  -0.002628   0.000003
    26  F    0.000000   0.000000   0.000000  -0.003622  -0.000046  -0.000002
    27  C   -0.008672   0.012638   0.000612   0.220745  -0.034756  -0.032032
    28  F   -0.000018  -0.002273  -0.000021  -0.013623   0.000315  -0.000241
    29  O   -0.048293  -0.045243  -0.039790  -0.026111   0.000417  -0.001376
    30  C    0.303958   0.299835   0.338853  -0.002276  -0.000285   0.011256
    31  F    9.056191  -0.034182  -0.037762   0.017291  -0.000547  -0.005968
    32  F   -0.034182   9.048027  -0.036516  -0.004673   0.000014  -0.001284
    33  F   -0.037762  -0.036516   9.013744  -0.000029   0.000000  -0.000002
    34  C    0.017291  -0.004673  -0.000029   4.169017   0.270748   0.283160
    35  F   -0.000547   0.000014   0.000000   0.270748   9.090454  -0.039100
    36  F   -0.005968  -0.001284  -0.000002   0.283160  -0.039100   9.081254
    37  F    0.000000   0.000001   0.000000   0.289054  -0.037345  -0.038975
    38  C    0.000000   0.000000   0.000000  -0.000074   0.000004   0.000000
    39  O    0.000000   0.000000   0.000000  -0.000002   0.000000   0.000000
    40  H    0.000000   0.000000   0.000000   0.000000   0.000000   0.000000
    41  H    0.000000   0.000000   0.000000   0.000000   0.000000   0.000000
    42  H    0.000000   0.000000   0.000000   0.000000   0.000000   0.000000
              37         38         39         40         41         42
     1  C    0.000000  -0.000982  -0.007721   0.378455   0.378888  -0.041422
     2  C    0.000000  -0.022784  -0.001641  -0.021387  -0.022412   0.395227
     3  N    0.000000   0.247874  -0.076500   0.003244  -0.009705  -0.045749
     4  C    0.000000  -0.021888   0.000477  -0.000022  -0.000121  -0.001215
     5  O    0.000000   0.000104  -0.000017  -0.000005  -0.000008   0.012218
     6  N    0.000000   0.000279   0.000131   0.000001   0.000002   0.000865
     7  C    0.000000   0.000272   0.000002   0.000000   0.000000   0.000011
     8  F    0.000000   0.000006   0.000000   0.000000   0.000000   0.000003
     9  F    0.000000   0.000017   0.000000   0.000000   0.000000   0.000000
    10  C    0.000000   0.000012   0.000000   0.000000   0.000000  -0.000001
    11  F    0.000000   0.000003   0.000000   0.000000   0.000000   0.000000
    12  O    0.000000   0.000000   0.000000   0.000000   0.000000   0.000000
    13  C    0.000000   0.000000   0.000000   0.000000   0.000000   0.000000
    14  F    0.000000   0.000000   0.000000   0.000000   0.000000   0.000000
    15  F    0.000000   0.000000   0.000000   0.000000   0.000000   0.000000
    16  F    0.000000   0.000000   0.000000   0.000000   0.000000   0.000000
    17  C    0.000000  -0.000002   0.000000   0.000000   0.000000   0.000004
    18  F    0.000000   0.000000   0.000000   0.000000   0.000000   0.000000
    19  F    0.000000   0.000001   0.000000   0.000000   0.000000   0.000001
    20  F    0.000000   0.000000   0.000000   0.000000   0.000000   0.000000
    21  C    0.000000  -0.009908  -0.000439   0.000000   0.000003  -0.000025
    22  O   -0.000001   0.000278   0.000006   0.000000   0.000000   0.000000
    23  N    0.000043   0.192296  -0.093314   0.000003   0.000035  -0.000150
    24  C    0.008964  -0.003947   0.016613   0.000000   0.000010   0.000001
    25  F   -0.001377   0.005222  -0.011253   0.000000  -0.000003   0.000000
    26  F   -0.000747   0.004241  -0.002336   0.000000   0.000000   0.000000
    27  C   -0.031482   0.003613   0.000326   0.000000   0.000000   0.000000
    28  F   -0.000289  -0.000036   0.000000   0.000000   0.000000   0.000000
    29  O    0.000541  -0.000060   0.000000   0.000000   0.000000   0.000000
    30  C    0.000061   0.000002   0.000000   0.000000   0.000000   0.000000
    31  F    0.000000   0.000000   0.000000   0.000000   0.000000   0.000000
    32  F    0.000001   0.000000   0.000000   0.000000   0.000000   0.000000
    33  F    0.000000   0.000000   0.000000   0.000000   0.000000   0.000000
    34  C    0.289054  -0.000074  -0.000002   0.000000   0.000000   0.000000
    35  F   -0.037345   0.000004   0.000000   0.000000   0.000000   0.000000
    36  F   -0.038975   0.000000   0.000000   0.000000   0.000000   0.000000
    37  F    9.052221   0.000004   0.000000   0.000000   0.000000   0.000000
    38  C    0.000004   4.219230   0.582715   0.000114   0.002810   0.002927
    39  O    0.000000   0.582715   8.034808   0.000424   0.008793   0.000046
    40  H    0.000000   0.000114   0.000424   0.552619  -0.034063  -0.006856
    41  H    0.000000   0.002810   0.008793  -0.034063   0.526725   0.003991
    42  H    0.000000   0.002927   0.000046  -0.006856   0.003991   0.511246
 Mulliken charges:
               1
     1  C   -0.260111
     2  C    0.112337
     3  N   -0.603670
     4  C    0.835579
     5  O   -0.485851
     6  N   -0.639657
     7  C    0.762770
     8  F   -0.242939
     9  F   -0.273022
    10  C    0.435664
    11  F   -0.270501
    12  O   -0.493468
    13  C    0.977061
    14  F   -0.239716
    15  F   -0.235680
    16  F   -0.235591
    17  C    0.817376
    18  F   -0.257207
    19  F   -0.243689
    20  F   -0.242155
    21  C    0.810087
    22  O   -0.456167
    23  N   -0.631265
    24  C    0.800846
    25  F   -0.270368
    26  F   -0.247649
    27  C    0.405675
    28  F   -0.244223
    29  O   -0.519373
    30  C    0.993975
    31  F   -0.241825
    32  F   -0.236574
    33  F   -0.239040
    34  C    0.815121
    35  F   -0.245879
    36  F   -0.258143
    37  F   -0.240671
    38  C    0.797657
    39  O   -0.451119
    40  H    0.127473
    41  H    0.145055
    42  H    0.168879
 Sum of Mulliken charges =   0.00000
 Mulliken charges with hydrogens summed into heavy atoms:
               1
     1  C    0.012417
     2  C    0.281216
     3  N   -0.603670
     4  C    0.835579
     5  O   -0.485851
     6  N   -0.639657
     7  C    0.762770
     8  F   -0.242939
     9  F   -0.273022
    10  C    0.435664
    11  F   -0.270501
    12  O   -0.493468
    13  C    0.977061
    14  F   -0.239716
    15  F   -0.235680
    16  F   -0.235591
    17  C    0.817376
    18  F   -0.257207
    19  F   -0.243689
    20  F   -0.242155
    21  C    0.810087
    22  O   -0.456167
    23  N   -0.631265
    24  C    0.800846
    25  F   -0.270368
    26  F   -0.247649
    27  C    0.405675
    28  F   -0.244223
    29  O   -0.519373
    30  C    0.993975
    31  F   -0.241825
    32  F   -0.236574
    33  F   -0.239040
    34  C    0.815121
    35  F   -0.245879
    36  F   -0.258143
    37  F   -0.240671
    38  C    0.797657
    39  O   -0.451119
 Electronic spatial extent (au):  <R**2>=          18587.9715
 Charge=              0.0000 electrons
 Dipole moment (field-independent basis, Debye):
    X=             -0.0797    Y=              1.2351    Z=              1.8795  Tot=              2.2504
 Quadrupole moment (field-independent basis, Debye-Ang):
   XX=           -212.5316   YY=           -201.8883   ZZ=           -209.9059
   XY=             -2.3476   XZ=              4.4138   YZ=              2.4861
 Traceless Quadrupole moment (field-independent basis, Debye-Ang):
   XX=             -4.4230   YY=              6.2203   ZZ=             -1.7973
   XY=             -2.3476   XZ=              4.4138   YZ=              2.4861
 Octapole moment (field-independent basis, Debye-Ang**2):
  XXX=            -15.5532  YYY=            214.1738  ZZZ=            129.8943  XYY=            -23.5588
  XXY=             38.4905  XXZ=             41.7240  XZZ=              0.0952  YZZ=             61.3387
  YYZ=             76.0383  XYZ=              4.6607
 Hexadecapole moment (field-independent basis, Debye-Ang**3):
 XXXX=         -12916.5029 YYYY=          -4835.4923 ZZZZ=          -1664.6221 XXXY=           -202.1852
 XXXZ=           -131.6355 YYYX=           -301.6146 YYYZ=            -72.0453 ZZZX=           -141.7693
 ZZZY=           -214.1913 XXYY=          -2965.6024 XXZZ=          -2430.7003 YYZZ=          -1124.8428
 XXYZ=            -76.2575 YYXZ=            -47.1136 ZZXY=            -86.9033
 N-N= 5.807426467812D+03 E-N=-1.831236095896D+04  KE= 2.813165983435D+03
 No NMR shielding tensors so no spin-rotation constants.
 Leave Link  601 at Tue Mar  5 18:04:22 2024, MaxMem=  5368709120 cpu:         3.1
 (Enter /home/k0335/k033513/app/g09/l9999.exe)
 1\1\GINC-C18U06N2\SP\RCAM-B3LYP\6-31G(d,p)\C13H3F18N3O5\K033513\05-Mar
 -2024\0\\#p CAM-B3LYP/6-31G(d,p) SCRF=(PCM,Solvent=Generic,Read) NoSym
 m out=wfn\\Title A584720880_0\\0,1\C,0,-0.021953,4.745326,1.108064\C,0
 ,-0.742831,3.617733,1.101217\N,0,-0.371474,2.35125,0.627285\C,0,-1.287
 212,1.312516,0.809645\O,0,-2.369411,1.469033,1.377191\N,0,-0.946697,0.
 093465,0.280973\C,0,-1.954647,-0.95697,0.22865\F,0,-2.681879,-0.959169
 ,1.376987\F,0,-1.281752,-2.153431,0.297811\C,0,-2.879569,-1.002818,-1.
 023749\F,0,-2.149117,-0.566821,-2.109983\O,0,-3.254903,-2.332695,-1.42
 1476\C,0,-4.21874,-2.934283,-0.596507\F,0,-5.413201,-2.360113,-0.80242
 4\F,0,-3.877222,-2.819676,0.692647\F,0,-4.303504,-4.238793,-0.910212\C
 ,0,-4.033757,-0.013442,-0.867425\F,0,-4.887644,-0.106936,-1.917803\F,0
 ,-3.592069,1.264349,-0.856074\F,0,-4.757168,-0.21792,0.250046\C,0,0.19
 4172,-0.07795,-0.45982\O,0,0.294073,-0.964612,-1.298508\N,0,1.188896,0
 .825479,-0.230316\C,0,2.500453,0.593261,-0.833171\F,0,3.355824,1.52061
 9,-0.300871\F,0,2.439305,0.851148,-2.164183\C,0,3.158068,-0.790568,-0.
 569343\F,0,2.544592,-1.766607,-1.291818\O,0,2.95215,-1.121228,0.815396
 \C,0,3.691146,-2.248291,1.216995\F,0,4.969309,-1.887882,1.412233\F,0,3
 .618057,-3.233418,0.311696\F,0,3.184826,-2.686871,2.384174\C,0,4.61103
 4,-0.658941,-1.051237\F,0,5.334178,0.170361,-0.265288\F,0,5.245631,-1.
 85691,-1.027807\F,0,4.702323,-0.204298,-2.319175\C,0,0.805606,2.142682
 ,-0.101837\O,0,1.431897,3.04554,-0.655592\H,0,-0.446603,5.656119,1.521
 949\H,0,0.988692,4.82772,0.724842\H,0,-1.738878,3.674041,1.543358\\Ver
 sion=ES64L-G09RevD.01\HF=-2833.8516147\RMSD=9.312e-09\Dipole=-0.031347
 8,0.4859114,0.7394661\Quadrupole=-3.288385,4.6246523,-1.3362673,-1.745
 3999,3.2815477,1.8483206\PG=C01 [X(C13H3F18N3O5)]\\@

 Writing a WFN file to "A584720880/A584720880_0.wfn"


 HE THAT IS UNAWARE OF HIS IGNORANCE WILL BE MISLED BY HIS KNOWLEDGE.

                                        -- WHATLEY
 Job cpu time:       0 days  0 hours 21 minutes  6.6 seconds.
 File lengths (MBytes):  RWF=    395 Int=      0 D2E=      0 Chk=     15 Scr=      1
 Normal termination of Gaussian 09 at Tue Mar  5 18:04:24 2024.
