 Entering Gaussian System, Link 0=g09
 Initial command:
 /home/k0335/k033513/app/g09/l1.exe "/home/k0335/k033513/app/g09/scratch/Gau-437315.inp" -scrdir="/home/k0335/k033513/app/g09/scratch/"
 Default is to use a total of  36 processors:
                               36 via shared-memory
                                1 via Linda
 Entering Link 1 = /home/k0335/k033513/app/g09/l1.exe PID=    437316.
  
 Copyright (c) 1988,1990,1992,1993,1995,1998,2003,2009,2013,
            Gaussian, Inc.  All Rights Reserved.
  
 This is part of the Gaussian(R) 09 program.  It is based on
 the Gaussian(R) 03 system (copyright 2003, Gaussian, Inc.),
 the Gaussian(R) 98 system (copyright 1998, Gaussian, Inc.),
 the Gaussian(R) 94 system (copyright 1995, Gaussian, Inc.),
 the Gaussian 92(TM) system (copyright 1992, Gaussian, Inc.),
 the Gaussian 90(TM) system (copyright 1990, Gaussian, Inc.),
 the Gaussian 88(TM) system (copyright 1988, Gaussian, Inc.),
 the Gaussian 86(TM) system (copyright 1986, Carnegie Mellon
 University), and the Gaussian 82(TM) system (copyright 1983,
 Carnegie Mellon University). Gaussian is a federally registered
 trademark of Gaussian, Inc.
  
 This software contains proprietary and confidential information,
 including trade secrets, belonging to Gaussian, Inc.
  
 This software is provided under written license and may be
 used, copied, transmitted, or stored only in accord with that
 written license.
  
 The following legend is applicable only to US Government
 contracts under FAR:
  
                    RESTRICTED RIGHTS LEGEND
  
 Use, reproduction and disclosure by the US Government is
 subject to restrictions as set forth in subparagraphs (a)
 and (c) of the Commercial Computer Software - Restricted
 Rights clause in FAR 52.227-19.
  
 Gaussian, Inc.
 340 Quinnipiac St., Bldg. 40, Wallingford CT 06492
  
  
 ---------------------------------------------------------------
 Warning -- This program may not be used in any manner that
 competes with the business of Gaussian, Inc. or will provide
 assistance to any competitor of Gaussian, Inc.  The licensee
 of this program is prohibited from giving any competitor of
 Gaussian, Inc. access to this program.  By using this program,
 the user acknowledges that Gaussian, Inc. is engaged in the
 business of creating and licensing software in the field of
 computational chemistry and represents and warrants to the
 licensee that it is not a competitor of Gaussian, Inc. and that
 it will not use this program in any manner prohibited above.
 ---------------------------------------------------------------
  

 Cite this work as:
 Gaussian 09, Revision D.01,
 M. J. Frisch, G. W. Trucks, H. B. Schlegel, G. E. Scuseria, 
 M. A. Robb, J. R. Cheeseman, G. Scalmani, V. Barone, B. Mennucci, 
 G. A. Petersson, H. Nakatsuji, M. Caricato, X. Li, H. P. Hratchian, 
 A. F. Izmaylov, J. Bloino, G. Zheng, J. L. Sonnenberg, M. Hada, 
 M. Ehara, K. Toyota, R. Fukuda, J. Hasegawa, M. Ishida, T. Nakajima, 
 Y. Honda, O. Kitao, H. Nakai, T. Vreven, J. A. Montgomery, Jr., 
 J. E. Peralta, F. Ogliaro, M. Bearpark, J. J. Heyd, E. Brothers, 
 K. N. Kudin, V. N. Staroverov, T. Keith, R. Kobayashi, J. Normand, 
 K. Raghavachari, A. Rendell, J. C. Burant, S. S. Iyengar, J. Tomasi, 
 M. Cossi, N. Rega, J. M. Millam, M. Klene, J. E. Knox, J. B. Cross, 
 V. Bakken, C. Adamo, J. Jaramillo, R. Gomperts, R. E. Stratmann, 
 O. Yazyev, A. J. Austin, R. Cammi, C. Pomelli, J. W. Ochterski, 
 R. L. Martin, K. Morokuma, V. G. Zakrzewski, G. A. Voth, 
 P. Salvador, J. J. Dannenberg, S. Dapprich, A. D. Daniels, 
 O. Farkas, J. B. Foresman, J. V. Ortiz, J. Cioslowski, 
 and D. J. Fox, Gaussian, Inc., Wallingford CT, 2013.
 
 ******************************************
 Gaussian 09:  ES64L-G09RevD.01 24-Apr-2013
                 2-Feb-2025 
 ******************************************
 %nprocshared=24
 Will use up to   24 processors via shared memory.
 %mem=40GB
 %rwf=wang5/TAIC1/TAIC1_neu.rwf
 %nosave
 %chk=wang5/TAIC1/TAIC1_neu.chk
 ----------------------------------------------------------------------
 #p CAM-B3LYP/6-31G(d,p) SCRF=(PCM,Solvent=Generic,Read) NoSymm out=wfn
 ----------------------------------------------------------------------
 1/38=1,40=2/1;
 2/12=2,15=1,17=6,18=5,40=1/2;
 3/5=1,6=6,7=101,11=2,16=1,25=1,30=1,70=2203,72=-2,74=-40/1,2,3;
 4//1;
 5/5=2,38=5/2;
 6/7=2,8=2,9=2,10=2,28=1/1;
 99/5=1,6=100,9=1/99;
 Leave Link    1 at Sun Feb  2 07:58:40 2025, MaxMem=  5368709120 cpu:         1.1
 (Enter /home/k0335/k033513/app/g09/l101.exe)
 ---------------
 Title TAIC1_neu
 ---------------
 Symbolic Z-matrix:
 Charge =  0 Multiplicity = 1
 O                     2.05186   0.87165   1.12751 
 C                     0.92952   0.3711    1.02797 
 N                    -0.15771   1.09926   0.59593 
 C                     0.04493   2.50392   0.24221 
 C                    -0.10479   3.41775   1.46494 
 C                    -0.14239   4.91006   1.12475 
 C                     1.08128   5.48819   0.41476 
 F                     1.18923   4.89415  -0.80405 
 F                     0.81835   6.80408   0.15695 
 C                     2.40495   5.38084   1.21307 
 F                     2.18743   5.88534   2.46511 
 F                     2.75895   4.08727   1.41607 
 O                     3.53738   6.06592   0.73825 
 C                     3.81591   5.71737  -0.58572 
 F                     5.10199   6.02517  -0.84823 
 F                     3.03498   6.43116  -1.41544 
 F                     3.63903   4.40421  -0.80957 
 C                    -1.44224   0.59736   0.56098 
 O                    -2.40501   1.30227   0.2512 
 N                    -1.58831  -0.73505   0.88446 
 C                    -2.92116  -1.33044   0.7909 
 C                    -3.22289  -1.81129  -0.63341 
 C                    -4.46037  -2.71096  -0.74696 
 C                    -5.75834  -2.05232  -0.28176 
 F                    -5.87419  -0.83115  -0.86504 
 F                    -5.66835  -1.81953   1.0586 
 C                    -7.00869  -2.92103  -0.57477 
 F                    -8.13728  -2.35528  -0.07676 
 F                    -6.87204  -4.09842   0.10697 
 O                    -7.2629   -3.30583  -1.90408 
 C                    -7.42556  -2.18841  -2.73048 
 F                    -6.21274  -1.7472   -3.11318 
 F                    -8.10066  -2.56712  -3.83357 
 F                    -8.10232  -1.19672  -2.13167 
 C                    -0.52545  -1.56451   1.17279 
 O                    -0.65945  -2.78665   1.26755 
 N                     0.699    -0.95322   1.33399 
 C                     1.84165  -1.77864   1.71757 
 C                     2.56549  -2.34286   0.48938 
 C                     3.81992  -3.11595   0.8922 
 C                     4.50241  -3.85052  -0.26131 
 F                     3.65638  -4.81734  -0.71788 
 F                     5.572    -4.51835   0.26955 
 C                     4.97743  -2.96044  -1.42783 
 F                     3.91106  -2.42284  -2.07114 
 F                     5.65474  -3.70709  -2.33523 
 O                     5.82432  -1.92629  -0.98357 
 C                     5.97685  -0.97722  -2.00006 
 F                     4.87428  -0.20841  -2.08086 
 F                     7.01812  -0.18145  -1.67786 
 F                     6.23046  -1.54082  -3.19361 
 H                     1.04238   2.61869  -0.19552 
 H                    -0.67903   2.79032  -0.52959 
 H                     0.69266   3.21191   2.18761 
 H                    -1.04073   3.17221   1.9835 
 H                    -0.3184    5.47793   2.04672 
 H                    -1.0196    5.09663   0.49184 
 H                    -2.98969  -2.16983   1.49281 
 H                    -3.66212  -0.5865    1.10322 
 H                    -3.33683  -0.94448  -1.29613 
 H                    -2.36343  -2.37455  -1.01902 
 H                    -4.28829  -3.62284  -0.16266 
 H                    -4.55066  -3.0121   -1.79651 
 H                     1.50119  -2.59984   2.35949 
 H                     2.53601  -1.1759    2.31521 
 H                     2.83741  -1.51774  -0.17813 
 H                     1.88572  -2.99512  -0.07165 
 H                     3.54953  -3.86214   1.65004 
 H                     4.5368   -2.4404    1.37429 
 
 NAtoms=     69 NQM=       69 NQMF=       0 NMMI=      0 NMMIF=      0
                NMic=       0 NMicF=      0.
                    Isotopes and Nuclear Properties:
 (Nuclear quadrupole moments (NQMom) in fm**2, nuclear magnetic moments (NMagM)
  in nuclear magnetons)

  Atom         1           2           3           4           5           6           7           8           9          10
 IAtWgt=          16          12          14          12          12          12          12          19          19          12
 AtmWgt=  15.9949146  12.0000000  14.0030740  12.0000000  12.0000000  12.0000000  12.0000000  18.9984033  18.9984033  12.0000000
 NucSpn=           0           0           2           0           0           0           0           1           1           0
 AtZEff=   0.0000000   0.0000000   0.0000000   0.0000000   0.0000000   0.0000000   0.0000000   0.0000000   0.0000000   0.0000000
 NQMom=    0.0000000   0.0000000   2.0440000   0.0000000   0.0000000   0.0000000   0.0000000   0.0000000   0.0000000   0.0000000
 NMagM=    0.0000000   0.0000000   0.4037610   0.0000000   0.0000000   0.0000000   0.0000000   2.6288670   2.6288670   0.0000000
 AtZNuc=   8.0000000   6.0000000   7.0000000   6.0000000   6.0000000   6.0000000   6.0000000   9.0000000   9.0000000   6.0000000

  Atom        11          12          13          14          15          16          17          18          19          20
 IAtWgt=          19          19          16          12          19          19          19          12          16          14
 AtmWgt=  18.9984033  18.9984033  15.9949146  12.0000000  18.9984033  18.9984033  18.9984033  12.0000000  15.9949146  14.0030740
 NucSpn=           1           1           0           0           1           1           1           0           0           2
 AtZEff=   0.0000000   0.0000000   0.0000000   0.0000000   0.0000000   0.0000000   0.0000000   0.0000000   0.0000000   0.0000000
 NQMom=    0.0000000   0.0000000   0.0000000   0.0000000   0.0000000   0.0000000   0.0000000   0.0000000   0.0000000   2.0440000
 NMagM=    2.6288670   2.6288670   0.0000000   0.0000000   2.6288670   2.6288670   2.6288670   0.0000000   0.0000000   0.4037610
 AtZNuc=   9.0000000   9.0000000   8.0000000   6.0000000   9.0000000   9.0000000   9.0000000   6.0000000   8.0000000   7.0000000

  Atom        21          22          23          24          25          26          27          28          29          30
 IAtWgt=          12          12          12          12          19          19          12          19          19          16
 AtmWgt=  12.0000000  12.0000000  12.0000000  12.0000000  18.9984033  18.9984033  12.0000000  18.9984033  18.9984033  15.9949146
 NucSpn=           0           0           0           0           1           1           0           1           1           0
 AtZEff=   0.0000000   0.0000000   0.0000000   0.0000000   0.0000000   0.0000000   0.0000000   0.0000000   0.0000000   0.0000000
 NQMom=    0.0000000   0.0000000   0.0000000   0.0000000   0.0000000   0.0000000   0.0000000   0.0000000   0.0000000   0.0000000
 NMagM=    0.0000000   0.0000000   0.0000000   0.0000000   2.6288670   2.6288670   0.0000000   2.6288670   2.6288670   0.0000000
 AtZNuc=   6.0000000   6.0000000   6.0000000   6.0000000   9.0000000   9.0000000   6.0000000   9.0000000   9.0000000   8.0000000

  Atom        31          32          33          34          35          36          37          38          39          40
 IAtWgt=          12          19          19          19          12          16          14          12          12          12
 AtmWgt=  12.0000000  18.9984033  18.9984033  18.9984033  12.0000000  15.9949146  14.0030740  12.0000000  12.0000000  12.0000000
 NucSpn=           0           1           1           1           0           0           2           0           0           0
 AtZEff=   0.0000000   0.0000000   0.0000000   0.0000000   0.0000000   0.0000000   0.0000000   0.0000000   0.0000000   0.0000000
 NQMom=    0.0000000   0.0000000   0.0000000   0.0000000   0.0000000   0.0000000   2.0440000   0.0000000   0.0000000   0.0000000
 NMagM=    0.0000000   2.6288670   2.6288670   2.6288670   0.0000000   0.0000000   0.4037610   0.0000000   0.0000000   0.0000000
 AtZNuc=   6.0000000   9.0000000   9.0000000   9.0000000   6.0000000   8.0000000   7.0000000   6.0000000   6.0000000   6.0000000

  Atom        41          42          43          44          45          46          47          48          49          50
 IAtWgt=          12          19          19          12          19          19          16          12          19          19
 AtmWgt=  12.0000000  18.9984033  18.9984033  12.0000000  18.9984033  18.9984033  15.9949146  12.0000000  18.9984033  18.9984033
 NucSpn=           0           1           1           0           1           1           0           0           1           1
 AtZEff=   0.0000000   0.0000000   0.0000000   0.0000000   0.0000000   0.0000000   0.0000000   0.0000000   0.0000000   0.0000000
 NQMom=    0.0000000   0.0000000   0.0000000   0.0000000   0.0000000   0.0000000   0.0000000   0.0000000   0.0000000   0.0000000
 NMagM=    0.0000000   2.6288670   2.6288670   0.0000000   2.6288670   2.6288670   0.0000000   0.0000000   2.6288670   2.6288670
 AtZNuc=   6.0000000   9.0000000   9.0000000   6.0000000   9.0000000   9.0000000   8.0000000   6.0000000   9.0000000   9.0000000

  Atom        51          52          53          54          55          56          57          58          59          60
 IAtWgt=          19           1           1           1           1           1           1           1           1           1
 AtmWgt=  18.9984033   1.0078250   1.0078250   1.0078250   1.0078250   1.0078250   1.0078250   1.0078250   1.0078250   1.0078250
 NucSpn=           1           1           1           1           1           1           1           1           1           1
 AtZEff=   0.0000000   0.0000000   0.0000000   0.0000000   0.0000000   0.0000000   0.0000000   0.0000000   0.0000000   0.0000000
 NQMom=    0.0000000   0.0000000   0.0000000   0.0000000   0.0000000   0.0000000   0.0000000   0.0000000   0.0000000   0.0000000
 NMagM=    2.6288670   2.7928460   2.7928460   2.7928460   2.7928460   2.7928460   2.7928460   2.7928460   2.7928460   2.7928460
 AtZNuc=   9.0000000   1.0000000   1.0000000   1.0000000   1.0000000   1.0000000   1.0000000   1.0000000   1.0000000   1.0000000

  Atom        61          62          63          64          65          66          67          68          69
 IAtWgt=           1           1           1           1           1           1           1           1           1
 AtmWgt=   1.0078250   1.0078250   1.0078250   1.0078250   1.0078250   1.0078250   1.0078250   1.0078250   1.0078250
 NucSpn=           1           1           1           1           1           1           1           1           1
 AtZEff=   0.0000000   0.0000000   0.0000000   0.0000000   0.0000000   0.0000000   0.0000000   0.0000000   0.0000000
 NQMom=    0.0000000   0.0000000   0.0000000   0.0000000   0.0000000   0.0000000   0.0000000   0.0000000   0.0000000
 NMagM=    2.7928460   2.7928460   2.7928460   2.7928460   2.7928460   2.7928460   2.7928460   2.7928460   2.7928460
 AtZNuc=   1.0000000   1.0000000   1.0000000   1.0000000   1.0000000   1.0000000   1.0000000   1.0000000   1.0000000
 Leave Link  101 at Sun Feb  2 07:58:40 2025, MaxMem=  5368709120 cpu:         0.9
 (Enter /home/k0335/k033513/app/g09/l202.exe)
 Symmetry turned off by external request.
 Stoichiometry    C21H18F21N3O6
 Framework group  C1[X(C21H18F21N3O6)]
 Deg. of freedom   201
 Full point group                 C1      NOp   1
                          Input orientation:                          
 ---------------------------------------------------------------------
 Center     Atomic      Atomic             Coordinates (Angstroms)
 Number     Number       Type             X           Y           Z
 ---------------------------------------------------------------------
      1          8           0        2.051860    0.871645    1.127514
      2          6           0        0.929518    0.371095    1.027966
      3          7           0       -0.157706    1.099255    0.595926
      4          6           0        0.044926    2.503921    0.242207
      5          6           0       -0.104792    3.417752    1.464940
      6          6           0       -0.142391    4.910064    1.124746
      7          6           0        1.081277    5.488194    0.414755
      8          9           0        1.189228    4.894153   -0.804045
      9          9           0        0.818353    6.804076    0.156946
     10          6           0        2.404951    5.380845    1.213067
     11          9           0        2.187433    5.885340    2.465115
     12          9           0        2.758951    4.087269    1.416071
     13          8           0        3.537378    6.065924    0.738250
     14          6           0        3.815909    5.717367   -0.585716
     15          9           0        5.101992    6.025174   -0.848232
     16          9           0        3.034984    6.431163   -1.415435
     17          9           0        3.639029    4.404209   -0.809566
     18          6           0       -1.442240    0.597359    0.560983
     19          8           0       -2.405008    1.302270    0.251196
     20          7           0       -1.588313   -0.735045    0.884461
     21          6           0       -2.921162   -1.330442    0.790895
     22          6           0       -3.222888   -1.811287   -0.633412
     23          6           0       -4.460371   -2.710958   -0.746957
     24          6           0       -5.758337   -2.052321   -0.281763
     25          9           0       -5.874189   -0.831145   -0.865044
     26          9           0       -5.668347   -1.819527    1.058602
     27          6           0       -7.008687   -2.921030   -0.574773
     28          9           0       -8.137276   -2.355282   -0.076761
     29          9           0       -6.872037   -4.098424    0.106970
     30          8           0       -7.262905   -3.305831   -1.904078
     31          6           0       -7.425561   -2.188409   -2.730476
     32          9           0       -6.212736   -1.747198   -3.113182
     33          9           0       -8.100658   -2.567116   -3.833569
     34          9           0       -8.102319   -1.196723   -2.131671
     35          6           0       -0.525445   -1.564514    1.172792
     36          8           0       -0.659451   -2.786653    1.267545
     37          7           0        0.698996   -0.953224    1.333994
     38          6           0        1.841654   -1.778639    1.717571
     39          6           0        2.565485   -2.342863    0.489379
     40          6           0        3.819919   -3.115947    0.892197
     41          6           0        4.502408   -3.850520   -0.261310
     42          9           0        3.656384   -4.817341   -0.717879
     43          9           0        5.571997   -4.518346    0.269554
     44          6           0        4.977431   -2.960440   -1.427828
     45          9           0        3.911059   -2.422838   -2.071142
     46          9           0        5.654737   -3.707093   -2.335231
     47          8           0        5.824325   -1.926290   -0.983573
     48          6           0        5.976850   -0.977221   -2.000060
     49          9           0        4.874279   -0.208409   -2.080860
     50          9           0        7.018121   -0.181451   -1.677858
     51          9           0        6.230461   -1.540818   -3.193610
     52          1           0        1.042380    2.618692   -0.195516
     53          1           0       -0.679032    2.790322   -0.529591
     54          1           0        0.692659    3.211907    2.187610
     55          1           0       -1.040735    3.172208    1.983495
     56          1           0       -0.318403    5.477929    2.046722
     57          1           0       -1.019597    5.096628    0.491844
     58          1           0       -2.989690   -2.169829    1.492811
     59          1           0       -3.662116   -0.586497    1.103223
     60          1           0       -3.336827   -0.944476   -1.296134
     61          1           0       -2.363429   -2.374550   -1.019024
     62          1           0       -4.288291   -3.622836   -0.162656
     63          1           0       -4.550660   -3.012096   -1.796506
     64          1           0        1.501191   -2.599835    2.359491
     65          1           0        2.536013   -1.175901    2.315209
     66          1           0        2.837413   -1.517737   -0.178126
     67          1           0        1.885715   -2.995118   -0.071653
     68          1           0        3.549528   -3.862137    1.650044
     69          1           0        4.536804   -2.440402    1.374290
 ---------------------------------------------------------------------
 Rotational constants (GHZ):      0.0496333      0.0249240      0.0185164
 Leave Link  202 at Sun Feb  2 07:58:40 2025, MaxMem=  5368709120 cpu:         0.0
 (Enter /home/k0335/k033513/app/g09/l301.exe)
 Standard basis: 6-31G(d,p) (6D, 7F)
 Ernie: Thresh=  0.10000D-02 Tol=  0.10000D-05 Strict=F.
   855 basis functions,  1554 primitive gaussians,   855 cartesian basis functions
   201 alpha electrons      201 beta electrons
       nuclear repulsion energy      7806.7972013928 Hartrees.
 IExCor=20419 DFT=T Ex+Corr=CAM-B3LYP ExCW=0 ScaHFX=  1.000000
 ScaDFX=  1.000000  1.000000  1.000000  0.810000 ScalE2=  1.000000  1.000000
 IRadAn=      0 IRanWt=     -1 IRanGd=            0 ICorTp=0 IEmpDi=  4
  HFx wShort=  0.000000 wLong=  0.330000 cFull=  0.190000 cShort=  0.000000 cLong=  0.460000
  DFx wShort=  0.000000 wLong=  0.330000 cFull=  0.190000 cShort=  0.000000 cLong=  0.460000
 NAtoms=   69 NActive=   69 NUniq=   69 SFac= 1.00D+00 NAtFMM=   60 NAOKFM=T Big=T
 Integral buffers will be    131072 words long.
 Raffenetti 2 integral format.
 Two-electron integral symmetry is turned off.
 Using the following non-standard input for PCM:
 eps=4.9
 --- end of non-standard input.
 ------------------------------------------------------------------------------
 Polarizable Continuum Model (PCM)
 =================================
 Model                : PCM (using non-symmetric T matrix).
 Atomic radii         : UFF (Universal Force Field).
 Polarization charges : Total charges.
 Charge compensation  : None.
 Solution method      : On-the-fly selection.
 Cavity type          : Scaled VdW (van der Waals Surface) (Alpha=1.100).
 Cavity algorithm     : GePol (No added spheres)
                        Default sphere list used, NSphG=   69.
                        Lebedev-Laikov grids with approx.  5.0 points / Ang**2.
                        Smoothing algorithm: Karplus/York (Gamma=1.0000).
                        Polarization charges: spherical gaussians, with
                                              point-specific exponents (IZeta= 3).
                        Self-potential: point-specific (ISelfS= 7).
                        Self-field    : sphere-specific E.n sum rule (ISelfD= 2).
 Solvent              : Generic,
                        Eps                           =   4.900000
                        Eps(infinity)                 =   0.000000
                        RSolv                         =   0.000000 Ang.
                        Molar volume                  =   0.000000 cm**3/mol
                        Thermal expansion coefficient =   0.000000 K**-1
                        Absolute temperature          = 298.150000 K
                        Numeral density               =   0.000000 Ang**-3
                        Hydrogen bond acidity         =   0.000000
                        Hydrogen bond basicity        =   0.000000
                        Surface tension at interface  =   0.000000 (cal/mol)*Ang**-2
                        Carbon aromaticity            =   0.000000
                        Electronegative halogenicity  =   0.000000
 ------------------------------------------------------------------------------
 GePol: Number of generator spheres                  =      69
 GePol: Total number of spheres                      =      69
 GePol: Number of exposed spheres                    =      69 (100.00%)
 GePol: Number of points                             =    5383
 GePol: Average weight of points                     =       0.12
 GePol: Minimum weight of points                     =   0.53D-11
 GePol: Maximum weight of points                     =    0.20577
 GePol: Number of points with low weight             =     267
 GePol: Fraction of low-weight points (<1% of avg)   =       4.96%
 GePol: Cavity surface area                          =    669.888 Ang**2
 GePol: Cavity volume                                =    767.132 Ang**3
 Leave Link  301 at Sun Feb  2 07:58:40 2025, MaxMem=  5368709120 cpu:         0.7
 (Enter /home/k0335/k033513/app/g09/l302.exe)
 NPDir=0 NMtPBC=     1 NCelOv=     1 NCel=       1 NClECP=     1 NCelD=      1
         NCelK=      1 NCelE2=     1 NClLst=     1 CellRange=     0.0.
 One-electron integrals computed using PRISM.
 NBasis=   855 RedAO= T EigKep=  1.48D-03  NBF=   855
 NBsUse=   855 1.00D-06 EigRej= -1.00D+00 NBFU=   855
 Precomputing XC quadrature grid using
 IXCGrd= 4 IRadAn=           0 IRanWt=          -1 IRanGd=           0 AccXCQ= 0.00D+00.
 Generated NRdTot=       0 NPtTot=           0 NUsed=           0 NTot=          32
 NSgBfM=   769   769   769   769   769 MxSgAt=    69 MxSgA2=    69.
 Leave Link  302 at Sun Feb  2 07:58:41 2025, MaxMem=  5368709120 cpu:        32.3
 (Enter /home/k0335/k033513/app/g09/l303.exe)
 DipDrv:  MaxL=1.
 Leave Link  303 at Sun Feb  2 07:58:42 2025, MaxMem=  5368709120 cpu:         1.2
 (Enter /home/k0335/k033513/app/g09/l401.exe)
 ExpMin= 1.61D-01 ExpMax= 7.00D+03 ExpMxC= 1.05D+03 IAcc=1 IRadAn=         1 AccDes= 0.00D+00
 Harris functional with IExCor=20419 and IRadAn=       1 diagonalized for initial guess.
 HarFok:  IExCor=20419 AccDes= 0.00D+00 IRadAn=         1 IDoV= 1 UseB2=F ITyADJ=14
 ICtDFT=  3500011 ScaDFX=  1.000000  1.000000  1.000000  1.000000
 FoFCou: FMM=F IPFlag=           0 FMFlag=      100000 FMFlg1=        2001
         NFxFlg=           0 DoJE=T BraDBF=F KetDBF=T FulRan=T
         wScrn=  0.000000 ICntrl=     500 IOpCl=  0 I1Cent=   200000004 NGrid=           0
         NMat0=    1 NMatS0=      1 NMatT0=    0 NMatD0=    1 NMtDS0=    0 NMtDT0=    0
 Symmetry not used in FoFCou.
 Harris En= -3413.52927004152    
 JPrj=0 DoOrth=F DoCkMO=F.
 Leave Link  401 at Sun Feb  2 07:58:43 2025, MaxMem=  5368709120 cpu:        26.5
 (Enter /home/k0335/k033513/app/g09/l502.exe)
 Closed shell SCF:
 Using DIIS extrapolation, IDIIS=  1040.
 Two-electron integral symmetry not used.
 IVT=     2237413 IEndB=     2237413 NGot=  5368709120 MDV=  5367220228
 LenX=  5367220228 LenY=  5366488348
 Requested convergence on RMS density matrix=1.00D-08 within 128 cycles.
 Requested convergence on MAX density matrix=1.00D-06.
 Requested convergence on             energy=1.00D-06.
 No special actions if energy rises.
 Fock matrices will be formed incrementally for  20 cycles.

 Cycle   1  Pass 1  IDiag  1:
 FoFJK:  IHMeth= 1 ICntrl=       0 DoSepK=T KAlg= 0 I1Cent=   0 FoldK=F
 IRaf=         1 NMat=   1 IRICut=       1 DoRegI=T DoRafI=F ISym2E= 0.
 FoFCou: FMM=T IPFlag=           0 FMFlag=      100000 FMFlg1=        2001
         NFxFlg=           0 DoJE=T BraDBF=F KetDBF=F FulRan=T
         wScrn=  0.000000 ICntrl=     500 IOpCl=  0 I1Cent=           0 NGrid=           0
         NMat0=    1 NMatS0=      1 NMatT0=    0 NMatD0=    1 NMtDS0=    0 NMtDT0=    0
 Symmetry not used in FoFCou.
 FMM levels:  10  Number of levels for PrismC:   9
 Inv3:  Mode=1 IEnd=    86930067.
 Iteration    1 A*A^-1 deviation from unit magnitude is 8.44D-15 for   1549.
 Iteration    1 A*A^-1 deviation from orthogonality  is 6.67D-15 for   5017    872.
 Iteration    1 A^-1*A deviation from unit magnitude is 9.55D-15 for   1345.
 Iteration    1 A^-1*A deviation from orthogonality  is 8.09D-14 for   4938   4932.
 E= -3521.16512422042    
 DIIS: error= 5.69D-02 at cycle   1 NSaved=   1.
 NSaved= 1 IEnMin= 1 EnMin= -3521.16512422042     IErMin= 1 ErrMin= 5.69D-02
 ErrMax= 5.69D-02  0.00D+00 EMaxC= 1.00D-01 BMatC= 3.02D+00 BMatP= 3.02D+00
 IDIUse=3 WtCom= 4.31D-01 WtEn= 5.69D-01
 Coeff-Com:  0.100D+01
 Coeff-En:   0.100D+01
 Coeff:      0.100D+01
 Gap=     0.452 Goal=   None    Shift=    0.000
 GapD=    0.452 DampG=2.000 DampE=0.500 DampFc=1.0000 IDamp=-1.
 RMSDP=2.54D-03 MaxDP=1.33D-01              OVMax= 1.42D-01

 Cycle   2  Pass 1  IDiag  1:
 RMSU=  2.54D-03    CP:  9.95D-01
 E= -3521.57828843438     Delta-E=       -0.413164213956 Rises=F Damp=F
 DIIS: error= 2.06D-02 at cycle   2 NSaved=   2.
 NSaved= 2 IEnMin= 2 EnMin= -3521.57828843438     IErMin= 2 ErrMin= 2.06D-02
 ErrMax= 2.06D-02  0.00D+00 EMaxC= 1.00D-01 BMatC= 1.25D+00 BMatP= 3.02D+00
 IDIUse=3 WtCom= 7.94D-01 WtEn= 2.06D-01
 Coeff-Com:  0.373D+00 0.627D+00
 Coeff-En:   0.376D+00 0.624D+00
 Coeff:      0.374D+00 0.626D+00
 Gap=     0.421 Goal=   None    Shift=    0.000
 RMSDP=1.28D-03 MaxDP=1.18D-01 DE=-4.13D-01 OVMax= 1.21D-01

 Cycle   3  Pass 1  IDiag  1:
 RMSU=  7.60D-04    CP:  9.97D-01  5.92D-01
 E= -3522.23794408098     Delta-E=       -0.659655646601 Rises=F Damp=F
 DIIS: error= 1.05D-02 at cycle   3 NSaved=   3.
 NSaved= 3 IEnMin= 3 EnMin= -3522.23794408098     IErMin= 3 ErrMin= 1.05D-02
 ErrMax= 1.05D-02  0.00D+00 EMaxC= 1.00D-01 BMatC= 2.24D-01 BMatP= 1.25D+00
 IDIUse=3 WtCom= 8.95D-01 WtEn= 1.05D-01
 Coeff-Com:  0.979D-01 0.319D+00 0.583D+00
 Coeff-En:   0.000D+00 0.112D+00 0.888D+00
 Coeff:      0.876D-01 0.297D+00 0.615D+00
 Gap=     0.388 Goal=   None    Shift=    0.000
 RMSDP=5.79D-04 MaxDP=6.48D-02 DE=-6.60D-01 OVMax= 9.24D-02

 Cycle   4  Pass 1  IDiag  1:
 RMSU=  2.97D-04    CP:  9.96D-01  6.93D-01  4.40D-01
 E= -3522.37195268311     Delta-E=       -0.134008602134 Rises=F Damp=F
 DIIS: error= 4.97D-03 at cycle   4 NSaved=   4.
 NSaved= 4 IEnMin= 4 EnMin= -3522.37195268311     IErMin= 4 ErrMin= 4.97D-03
 ErrMax= 4.97D-03  0.00D+00 EMaxC= 1.00D-01 BMatC= 3.61D-02 BMatP= 2.24D-01
 IDIUse=3 WtCom= 9.50D-01 WtEn= 4.97D-02
 Coeff-Com:  0.846D-02 0.922D-01 0.344D+00 0.555D+00
 Coeff-En:   0.000D+00 0.000D+00 0.125D+00 0.875D+00
 Coeff:      0.804D-02 0.876D-01 0.333D+00 0.571D+00
 Gap=     0.379 Goal=   None    Shift=    0.000
 RMSDP=2.09D-04 MaxDP=2.60D-02 DE=-1.34D-01 OVMax= 3.02D-02

 Cycle   5  Pass 1  IDiag  1:
 RMSU=  8.50D-05    CP:  9.95D-01  6.87D-01  6.28D-01  5.78D-01
 E= -3522.39656177156     Delta-E=       -0.024609088447 Rises=F Damp=F
 DIIS: error= 9.41D-04 at cycle   5 NSaved=   5.
 NSaved= 5 IEnMin= 5 EnMin= -3522.39656177156     IErMin= 5 ErrMin= 9.41D-04
 ErrMax= 9.41D-04  0.00D+00 EMaxC= 1.00D-01 BMatC= 2.03D-03 BMatP= 3.61D-02
 IDIUse=3 WtCom= 9.91D-01 WtEn= 9.41D-03
 Coeff-Com: -0.129D-02 0.274D-01 0.144D+00 0.311D+00 0.519D+00
 Coeff-En:   0.000D+00 0.000D+00 0.000D+00 0.000D+00 0.100D+01
 Coeff:     -0.128D-02 0.271D-01 0.142D+00 0.308D+00 0.524D+00
 Gap=     0.375 Goal=   None    Shift=    0.000
 RMSDP=4.35D-05 MaxDP=4.50D-03 DE=-2.46D-02 OVMax= 6.32D-03

 Cycle   6  Pass 1  IDiag  1:
 RMSU=  2.10D-05    CP:  9.95D-01  6.90D-01  6.18D-01  6.38D-01  6.29D-01
 E= -3522.39800397469     Delta-E=       -0.001442203133 Rises=F Damp=F
 DIIS: error= 1.13D-04 at cycle   6 NSaved=   6.
 NSaved= 6 IEnMin= 6 EnMin= -3522.39800397469     IErMin= 6 ErrMin= 1.13D-04
 ErrMax= 1.13D-04  0.00D+00 EMaxC= 1.00D-01 BMatC= 4.19D-05 BMatP= 2.03D-03
 IDIUse=3 WtCom= 9.99D-01 WtEn= 1.13D-03
 Coeff-Com: -0.847D-03-0.213D-04 0.113D-01 0.378D-01 0.151D+00 0.801D+00
 Coeff-En:   0.000D+00 0.000D+00 0.000D+00 0.000D+00 0.000D+00 0.100D+01
 Coeff:     -0.846D-03-0.213D-04 0.112D-01 0.377D-01 0.151D+00 0.801D+00
 Gap=     0.375 Goal=   None    Shift=    0.000
 RMSDP=9.19D-06 MaxDP=6.47D-04 DE=-1.44D-03 OVMax= 7.39D-04

 Cycle   7  Pass 1  IDiag  1:
 RMSU=  6.69D-06    CP:  9.95D-01  6.90D-01  6.22D-01  6.46D-01  6.79D-01
                    CP:  9.21D-01
 E= -3522.39803570346     Delta-E=       -0.000031728772 Rises=F Damp=F
 DIIS: error= 4.46D-05 at cycle   7 NSaved=   7.
 NSaved= 7 IEnMin= 7 EnMin= -3522.39803570346     IErMin= 7 ErrMin= 4.46D-05
 ErrMax= 4.46D-05  0.00D+00 EMaxC= 1.00D-01 BMatC= 8.15D-06 BMatP= 4.19D-05
 IDIUse=1 WtCom= 1.00D+00 WtEn= 0.00D+00
 Coeff-Com: -0.169D-03-0.290D-02-0.976D-02-0.150D-01 0.170D-01 0.367D+00
 Coeff-Com:  0.644D+00
 Coeff:     -0.169D-03-0.290D-02-0.976D-02-0.150D-01 0.170D-01 0.367D+00
 Coeff:      0.644D+00
 Gap=     0.375 Goal=   None    Shift=    0.000
 RMSDP=3.20D-06 MaxDP=2.14D-04 DE=-3.17D-05 OVMax= 3.64D-04

 Cycle   8  Pass 1  IDiag  1:
 RMSU=  1.74D-06    CP:  9.95D-01  6.90D-01  6.22D-01  6.46D-01  6.92D-01
                    CP:  1.01D+00  7.80D-01
 E= -3522.39804294995     Delta-E=       -0.000007246486 Rises=F Damp=F
 DIIS: error= 7.23D-06 at cycle   8 NSaved=   8.
 NSaved= 8 IEnMin= 8 EnMin= -3522.39804294995     IErMin= 8 ErrMin= 7.23D-06
 ErrMax= 7.23D-06  0.00D+00 EMaxC= 1.00D-01 BMatC= 2.05D-07 BMatP= 8.15D-06
 IDIUse=1 WtCom= 1.00D+00 WtEn= 0.00D+00
 Coeff-Com: -0.221D-05-0.817D-03-0.330D-02-0.666D-02-0.469D-02 0.453D-01
 Coeff-Com:  0.152D+00 0.818D+00
 Coeff:     -0.221D-05-0.817D-03-0.330D-02-0.666D-02-0.469D-02 0.453D-01
 Coeff:      0.152D+00 0.818D+00
 Gap=     0.375 Goal=   None    Shift=    0.000
 RMSDP=8.11D-07 MaxDP=8.16D-05 DE=-7.25D-06 OVMax= 1.32D-04

 Cycle   9  Pass 1  IDiag  1:
 RMSU=  5.62D-07    CP:  9.95D-01  6.90D-01  6.22D-01  6.46D-01  6.95D-01
                    CP:  1.02D+00  8.28D-01  1.08D+00
 E= -3522.39804317387     Delta-E=       -0.000000223918 Rises=F Damp=F
 DIIS: error= 3.62D-06 at cycle   9 NSaved=   9.
 NSaved= 9 IEnMin= 9 EnMin= -3522.39804317387     IErMin= 9 ErrMin= 3.62D-06
 ErrMax= 3.62D-06  0.00D+00 EMaxC= 1.00D-01 BMatC= 5.38D-08 BMatP= 2.05D-07
 IDIUse=1 WtCom= 1.00D+00 WtEn= 0.00D+00
 Coeff-Com:  0.202D-04 0.690D-04 0.476D-04-0.731D-03-0.425D-02-0.345D-01
 Coeff-Com: -0.273D-01 0.362D+00 0.705D+00
 Coeff:      0.202D-04 0.690D-04 0.476D-04-0.731D-03-0.425D-02-0.345D-01
 Coeff:     -0.273D-01 0.362D+00 0.705D+00
 Gap=     0.375 Goal=   None    Shift=    0.000
 RMSDP=3.35D-07 MaxDP=2.82D-05 DE=-2.24D-07 OVMax= 7.21D-05

 Cycle  10  Pass 1  IDiag  1:
 RMSU=  1.99D-07    CP:  9.95D-01  6.90D-01  6.23D-01  6.46D-01  6.96D-01
                    CP:  1.02D+00  8.46D-01  1.18D+00  9.28D-01
 E= -3522.39804322637     Delta-E=       -0.000000052507 Rises=F Damp=F
 DIIS: error= 9.99D-07 at cycle  10 NSaved=  10.
 NSaved=10 IEnMin=10 EnMin= -3522.39804322637     IErMin=10 ErrMin= 9.99D-07
 ErrMax= 9.99D-07  0.00D+00 EMaxC= 1.00D-01 BMatC= 3.62D-09 BMatP= 5.38D-08
 IDIUse=1 WtCom= 1.00D+00 WtEn= 0.00D+00
 Coeff-Com:  0.691D-05 0.100D-03 0.337D-03 0.355D-03-0.756D-03-0.155D-01
 Coeff-Com: -0.227D-01 0.358D-01 0.230D+00 0.772D+00
 Coeff:      0.691D-05 0.100D-03 0.337D-03 0.355D-03-0.756D-03-0.155D-01
 Coeff:     -0.227D-01 0.358D-01 0.230D+00 0.772D+00
 Gap=     0.375 Goal=   None    Shift=    0.000
 RMSDP=1.04D-07 MaxDP=1.09D-05 DE=-5.25D-08 OVMax= 2.08D-05

 Cycle  11  Pass 1  IDiag  1:
 RMSU=  5.95D-08    CP:  9.95D-01  6.90D-01  6.23D-01  6.46D-01  6.96D-01
                    CP:  1.02D+00  8.51D-01  1.21D+00  1.01D+00  1.00D+00
 E= -3522.39804323022     Delta-E=       -0.000000003847 Rises=F Damp=F
 DIIS: error= 3.90D-07 at cycle  11 NSaved=  11.
 NSaved=11 IEnMin=11 EnMin= -3522.39804323022     IErMin=11 ErrMin= 3.90D-07
 ErrMax= 3.90D-07  0.00D+00 EMaxC= 1.00D-01 BMatC= 4.33D-10 BMatP= 3.62D-09
 IDIUse=1 WtCom= 1.00D+00 WtEn= 0.00D+00
 Coeff-Com:  0.130D-05 0.365D-04 0.141D-03 0.201D-03 0.133D-03-0.338D-02
 Coeff-Com: -0.682D-02-0.173D-01 0.305D-01 0.283D+00 0.714D+00
 Coeff:      0.130D-05 0.365D-04 0.141D-03 0.201D-03 0.133D-03-0.338D-02
 Coeff:     -0.682D-02-0.173D-01 0.305D-01 0.283D+00 0.714D+00
 Gap=     0.375 Goal=   None    Shift=    0.000
 RMSDP=3.16D-08 MaxDP=4.41D-06 DE=-3.85D-09 OVMax= 5.49D-06

 Cycle  12  Pass 1  IDiag  1:
 RMSU=  1.87D-08    CP:  9.95D-01  6.90D-01  6.23D-01  6.46D-01  6.96D-01
                    CP:  1.02D+00  8.51D-01  1.22D+00  1.03D+00  1.08D+00
                    CP:  9.95D-01
 E= -3522.39804323067     Delta-E=       -0.000000000447 Rises=F Damp=F
 DIIS: error= 1.84D-07 at cycle  12 NSaved=  12.
 NSaved=12 IEnMin=12 EnMin= -3522.39804323067     IErMin=12 ErrMin= 1.84D-07
 ErrMax= 1.84D-07  0.00D+00 EMaxC= 1.00D-01 BMatC= 5.70D-11 BMatP= 4.33D-10
 IDIUse=1 WtCom= 1.00D+00 WtEn= 0.00D+00
 Coeff-Com: -0.493D-06-0.943D-07 0.976D-05 0.256D-04 0.206D-03 0.983D-03
 Coeff-Com:  0.849D-03-0.109D-01-0.198D-01-0.655D-02 0.262D+00 0.773D+00
 Coeff:     -0.493D-06-0.943D-07 0.976D-05 0.256D-04 0.206D-03 0.983D-03
 Coeff:      0.849D-03-0.109D-01-0.198D-01-0.655D-02 0.262D+00 0.773D+00
 Gap=     0.375 Goal=   None    Shift=    0.000
 RMSDP=1.24D-08 MaxDP=1.38D-06 DE=-4.47D-10 OVMax= 2.32D-06

 Cycle  13  Pass 1  IDiag  1:
 RMSU=  6.45D-09    CP:  9.95D-01  6.90D-01  6.23D-01  6.46D-01  6.96D-01
                    CP:  1.02D+00  8.51D-01  1.22D+00  1.04D+00  1.10D+00
                    CP:  1.08D+00  9.15D-01
 E= -3522.39804323068     Delta-E=       -0.000000000007 Rises=F Damp=F
 DIIS: error= 6.51D-08 at cycle  13 NSaved=  13.
 NSaved=13 IEnMin=13 EnMin= -3522.39804323068     IErMin=13 ErrMin= 6.51D-08
 ErrMax= 6.51D-08  0.00D+00 EMaxC= 1.00D-01 BMatC= 6.72D-12 BMatP= 5.70D-11
 IDIUse=1 WtCom= 1.00D+00 WtEn= 0.00D+00
 Coeff-Com: -0.284D-06-0.282D-05-0.611D-05-0.621D-05 0.804D-04 0.652D-03
 Coeff-Com:  0.864D-03-0.325D-02-0.104D-01-0.260D-01 0.457D-01 0.322D+00
 Coeff-Com:  0.670D+00
 Coeff:     -0.284D-06-0.282D-05-0.611D-05-0.621D-05 0.804D-04 0.652D-03
 Coeff:      0.864D-03-0.325D-02-0.104D-01-0.260D-01 0.457D-01 0.322D+00
 Coeff:      0.670D+00
 Gap=     0.375 Goal=   None    Shift=    0.000
 RMSDP=3.77D-09 MaxDP=4.86D-07 DE=-7.28D-12 OVMax= 5.65D-07

 Error on total polarization charges =  0.00349
 SCF Done:  E(RCAM-B3LYP) =  -3522.39804323     A.U. after   13 cycles
            NFock= 13  Conv=0.38D-08     -V/T= 2.0076
 KE= 3.495976876301D+03 PE=-2.392973916340D+04 EE= 9.104567042480D+03
 Leave Link  502 at Sun Feb  2 08:00:11 2025, MaxMem=  5368709120 cpu:      1852.6
 (Enter /home/k0335/k033513/app/g09/l601.exe)
 Copying SCF densities to generalized density rwf, IOpCl= 0 IROHF=0.

 **********************************************************************

            Population analysis using the SCF density.

 **********************************************************************

 Alpha  occ. eigenvalues --  -24.83715 -24.83406 -24.83385 -24.83264 -24.83180
 Alpha  occ. eigenvalues --  -24.83024 -24.82866 -24.82806 -24.82796 -24.82720
 Alpha  occ. eigenvalues --  -24.82057 -24.82042 -24.81908 -24.81712 -24.81508
 Alpha  occ. eigenvalues --  -24.80996 -24.80959 -24.80857 -24.80388 -24.80242
 Alpha  occ. eigenvalues --  -24.79878 -19.32598 -19.32390 -19.32217 -19.22155
 Alpha  occ. eigenvalues --  -19.22039 -19.21994 -14.48837 -14.48758 -14.48753
 Alpha  occ. eigenvalues --  -10.59395 -10.59110 -10.59030 -10.52572 -10.52558
 Alpha  occ. eigenvalues --  -10.52462 -10.46460 -10.46440 -10.46049 -10.43318
 Alpha  occ. eigenvalues --  -10.43265 -10.43238 -10.31405 -10.31023 -10.31001
 Alpha  occ. eigenvalues --  -10.28916 -10.28804 -10.28684 -10.27727 -10.27643
 Alpha  occ. eigenvalues --  -10.27516  -1.43004  -1.42717  -1.42673  -1.38832
 Alpha  occ. eigenvalues --   -1.38472  -1.38384  -1.35977  -1.35956  -1.35182
 Alpha  occ. eigenvalues --   -1.33584  -1.33223  -1.33215  -1.32894  -1.32485
 Alpha  occ. eigenvalues --   -1.32380  -1.31573  -1.31109  -1.30780  -1.29933
 Alpha  occ. eigenvalues --   -1.29541  -1.29046  -1.20663  -1.20515  -1.20428
 Alpha  occ. eigenvalues --   -1.20007  -1.15335  -1.15282  -1.06875  -1.04328
 Alpha  occ. eigenvalues --   -1.04255  -0.92058  -0.91574  -0.91374  -0.88086
 Alpha  occ. eigenvalues --   -0.87086  -0.86714  -0.83834  -0.82922  -0.82410
 Alpha  occ. eigenvalues --   -0.80200  -0.79731  -0.79145  -0.76299  -0.76228
 Alpha  occ. eigenvalues --   -0.75386  -0.74087  -0.73743  -0.72322  -0.71449
 Alpha  occ. eigenvalues --   -0.71260  -0.71088  -0.70870  -0.70635  -0.70606
 Alpha  occ. eigenvalues --   -0.70244  -0.69968  -0.69873  -0.69436  -0.69090
 Alpha  occ. eigenvalues --   -0.69018  -0.67252  -0.66941  -0.66904  -0.65884
 Alpha  occ. eigenvalues --   -0.65670  -0.65573  -0.63886  -0.63516  -0.63213
 Alpha  occ. eigenvalues --   -0.62352  -0.61165  -0.60919  -0.60743  -0.60082
 Alpha  occ. eigenvalues --   -0.59688  -0.59589  -0.58970  -0.57182  -0.56978
 Alpha  occ. eigenvalues --   -0.56925  -0.56727  -0.56271  -0.56141  -0.55736
 Alpha  occ. eigenvalues --   -0.55435  -0.55244  -0.55165  -0.55048  -0.54856
 Alpha  occ. eigenvalues --   -0.54415  -0.54254  -0.54041  -0.53878  -0.53674
 Alpha  occ. eigenvalues --   -0.53577  -0.53245  -0.53048  -0.52848  -0.52605
 Alpha  occ. eigenvalues --   -0.52547  -0.52295  -0.52205  -0.51809  -0.51622
 Alpha  occ. eigenvalues --   -0.51424  -0.51343  -0.51174  -0.51022  -0.50769
 Alpha  occ. eigenvalues --   -0.50689  -0.50488  -0.50304  -0.50126  -0.50110
 Alpha  occ. eigenvalues --   -0.49988  -0.49819  -0.49596  -0.49347  -0.49176
 Alpha  occ. eigenvalues --   -0.48924  -0.48868  -0.48755  -0.48567  -0.48373
 Alpha  occ. eigenvalues --   -0.48198  -0.48150  -0.47802  -0.47698  -0.46469
 Alpha  occ. eigenvalues --   -0.46083  -0.45863  -0.45763  -0.45187  -0.44978
 Alpha  occ. eigenvalues --   -0.44761  -0.44058  -0.44018  -0.43751  -0.42163
 Alpha  occ. eigenvalues --   -0.42016  -0.41600  -0.41174  -0.40597  -0.40335
 Alpha  occ. eigenvalues --   -0.38167  -0.38032  -0.35732  -0.34564  -0.34478
 Alpha  occ. eigenvalues --   -0.34174
 Alpha virt. eigenvalues --    0.03296   0.03427   0.10575   0.10685   0.10901
 Alpha virt. eigenvalues --    0.12017   0.12097   0.12628   0.14224   0.14551
 Alpha virt. eigenvalues --    0.15242   0.15449   0.16508   0.17053   0.17202
 Alpha virt. eigenvalues --    0.17936   0.18218   0.18873   0.19112   0.19415
 Alpha virt. eigenvalues --    0.19475   0.19746   0.19961   0.20179   0.20446
 Alpha virt. eigenvalues --    0.20792   0.21042   0.21264   0.21380   0.21723
 Alpha virt. eigenvalues --    0.21981   0.22064   0.22366   0.22663   0.22897
 Alpha virt. eigenvalues --    0.23238   0.23481   0.23859   0.23950   0.24281
 Alpha virt. eigenvalues --    0.24785   0.25168   0.25595   0.25987   0.26305
 Alpha virt. eigenvalues --    0.26523   0.26871   0.27332   0.27719   0.28002
 Alpha virt. eigenvalues --    0.28091   0.28682   0.29282   0.29654   0.30221
 Alpha virt. eigenvalues --    0.30466   0.30581   0.31495   0.32355   0.32442
 Alpha virt. eigenvalues --    0.32659   0.33095   0.33488   0.34242   0.34829
 Alpha virt. eigenvalues --    0.35085   0.36981   0.37427   0.39145   0.41931
 Alpha virt. eigenvalues --    0.41991   0.49069   0.50384   0.50597   0.50749
 Alpha virt. eigenvalues --    0.51148   0.51404   0.51614   0.52329   0.52833
 Alpha virt. eigenvalues --    0.53143   0.53510   0.53965   0.54048   0.54323
 Alpha virt. eigenvalues --    0.55148   0.55314   0.55464   0.55598   0.56305
 Alpha virt. eigenvalues --    0.56806   0.57296   0.57562   0.57736   0.58176
 Alpha virt. eigenvalues --    0.58791   0.59219   0.59671   0.59851   0.60074
 Alpha virt. eigenvalues --    0.60700   0.61036   0.61208   0.62170   0.63273
 Alpha virt. eigenvalues --    0.64268   0.64333   0.64990   0.65225   0.66277
 Alpha virt. eigenvalues --    0.66857   0.67129   0.67874   0.68056   0.68259
 Alpha virt. eigenvalues --    0.69096   0.69901   0.71550   0.71905   0.72170
 Alpha virt. eigenvalues --    0.72985   0.74082   0.74701   0.75967   0.76352
 Alpha virt. eigenvalues --    0.78254   0.78821   0.80237   0.81537   0.82025
 Alpha virt. eigenvalues --    0.82720   0.83081   0.83319   0.84210   0.84723
 Alpha virt. eigenvalues --    0.85780   0.85974   0.86030   0.87208   0.87982
 Alpha virt. eigenvalues --    0.88385   0.88516   0.89759   0.90711   0.90824
 Alpha virt. eigenvalues --    0.91667   0.92000   0.92175   0.92739   0.93360
 Alpha virt. eigenvalues --    0.93726   0.94351   0.94566   0.95198   0.95689
 Alpha virt. eigenvalues --    0.96125   0.96151   0.96543   0.96918   0.97869
 Alpha virt. eigenvalues --    0.98762   0.99117   0.99406   1.00722   1.01013
 Alpha virt. eigenvalues --    1.01351   1.01499   1.01946   1.02534   1.03466
 Alpha virt. eigenvalues --    1.03979   1.04168   1.04589   1.05411   1.05785
 Alpha virt. eigenvalues --    1.07691   1.08318   1.09147   1.10101   1.10961
 Alpha virt. eigenvalues --    1.11052   1.11458   1.11815   1.12357   1.12478
 Alpha virt. eigenvalues --    1.13180   1.13399   1.13892   1.14485   1.14528
 Alpha virt. eigenvalues --    1.15203   1.15230   1.15548   1.16369   1.16987
 Alpha virt. eigenvalues --    1.17471   1.17559   1.17791   1.17910   1.18471
 Alpha virt. eigenvalues --    1.19519   1.20112   1.20689   1.21471   1.22004
 Alpha virt. eigenvalues --    1.22172   1.22393   1.22622   1.23554   1.23921
 Alpha virt. eigenvalues --    1.24699   1.25427   1.25615   1.25771   1.26322
 Alpha virt. eigenvalues --    1.26792   1.27696   1.29148   1.29635   1.29763
 Alpha virt. eigenvalues --    1.30975   1.31771   1.32511   1.32727   1.33479
 Alpha virt. eigenvalues --    1.33797   1.34483   1.34740   1.35535   1.35725
 Alpha virt. eigenvalues --    1.36759   1.37062   1.37190   1.37448   1.38173
 Alpha virt. eigenvalues --    1.38216   1.38433   1.38696   1.38838   1.39061
 Alpha virt. eigenvalues --    1.39593   1.39657   1.40066   1.40780   1.40988
 Alpha virt. eigenvalues --    1.41300   1.41557   1.41955   1.42610   1.42929
 Alpha virt. eigenvalues --    1.42985   1.43212   1.43511   1.43900   1.44276
 Alpha virt. eigenvalues --    1.44302   1.44689   1.45397   1.45802   1.46132
 Alpha virt. eigenvalues --    1.46630   1.47040   1.47459   1.47680   1.48070
 Alpha virt. eigenvalues --    1.48522   1.49579   1.50293   1.50559   1.50815
 Alpha virt. eigenvalues --    1.53593   1.53703   1.54236   1.54816   1.55233
 Alpha virt. eigenvalues --    1.55368   1.55831   1.56155   1.56287   1.56985
 Alpha virt. eigenvalues --    1.57819   1.58318   1.58805   1.59042   1.59465
 Alpha virt. eigenvalues --    1.60636   1.60770   1.60938   1.61765   1.63739
 Alpha virt. eigenvalues --    1.64071   1.64799   1.64971   1.66482   1.66726
 Alpha virt. eigenvalues --    1.68585   1.69803   1.70497   1.70839   1.71407
 Alpha virt. eigenvalues --    1.72029   1.72402   1.72669   1.73154   1.73293
 Alpha virt. eigenvalues --    1.74477   1.74889   1.75529   1.76255   1.76299
 Alpha virt. eigenvalues --    1.76519   1.77617   1.77802   1.78715   1.79217
 Alpha virt. eigenvalues --    1.79770   1.80673   1.81202   1.81453   1.81707
 Alpha virt. eigenvalues --    1.82518   1.83266   1.83494   1.83695   1.84082
 Alpha virt. eigenvalues --    1.84799   1.85047   1.85362   1.85679   1.85891
 Alpha virt. eigenvalues --    1.86039   1.86094   1.86878   1.87335   1.87418
 Alpha virt. eigenvalues --    1.87674   1.87943   1.88076   1.88338   1.88855
 Alpha virt. eigenvalues --    1.89117   1.89451   1.89767   1.90006   1.90312
 Alpha virt. eigenvalues --    1.90650   1.90721   1.91151   1.91674   1.92007
 Alpha virt. eigenvalues --    1.92237   1.92441   1.92976   1.93063   1.93509
 Alpha virt. eigenvalues --    1.93761   1.93770   1.94039   1.94578   1.94649
 Alpha virt. eigenvalues --    1.95192   1.95461   1.95956   1.96534   1.96823
 Alpha virt. eigenvalues --    1.97382   1.97707   1.98071   1.98209   1.98606
 Alpha virt. eigenvalues --    1.98736   1.98973   1.99325   1.99875   2.00482
 Alpha virt. eigenvalues --    2.00564   2.00870   2.01199   2.01423   2.01523
 Alpha virt. eigenvalues --    2.02024   2.02265   2.02372   2.02684   2.02953
 Alpha virt. eigenvalues --    2.03145   2.03613   2.03845   2.04345   2.04758
 Alpha virt. eigenvalues --    2.04978   2.05472   2.05628   2.06214   2.06815
 Alpha virt. eigenvalues --    2.07231   2.07337   2.08121   2.08221   2.08413
 Alpha virt. eigenvalues --    2.08726   2.09013   2.09389   2.09536   2.09549
 Alpha virt. eigenvalues --    2.09983   2.10185   2.10494   2.10607   2.11257
 Alpha virt. eigenvalues --    2.11898   2.12344   2.12703   2.14143   2.16196
 Alpha virt. eigenvalues --    2.16492   2.17872   2.18096   2.18316   2.18986
 Alpha virt. eigenvalues --    2.19144   2.19299   2.19540   2.19945   2.20537
 Alpha virt. eigenvalues --    2.21102   2.21457   2.22202   2.23013   2.23169
 Alpha virt. eigenvalues --    2.23369   2.23588   2.24308   2.24685   2.25305
 Alpha virt. eigenvalues --    2.26590   2.26880   2.27755   2.28521   2.28873
 Alpha virt. eigenvalues --    2.30234   2.30336   2.30425   2.31472   2.31663
 Alpha virt. eigenvalues --    2.32543   2.33179   2.33702   2.34286   2.35344
 Alpha virt. eigenvalues --    2.35860   2.36301   2.36669   2.36931   2.37266
 Alpha virt. eigenvalues --    2.37627   2.38582   2.38902   2.39653   2.39867
 Alpha virt. eigenvalues --    2.41011   2.41476   2.42115   2.42189   2.42614
 Alpha virt. eigenvalues --    2.43072   2.43609   2.44009   2.45289   2.45984
 Alpha virt. eigenvalues --    2.46439   2.46741   2.47528   2.47564   2.47991
 Alpha virt. eigenvalues --    2.49247   2.50593   2.51674   2.51992   2.52740
 Alpha virt. eigenvalues --    2.53597   2.54020   2.54820   2.55791   2.57645
 Alpha virt. eigenvalues --    2.58068   2.58913   2.59607   2.60454   2.60623
 Alpha virt. eigenvalues --    2.61873   2.62303   2.63143   2.64449   2.64684
 Alpha virt. eigenvalues --    2.64837   2.65457   2.67304   2.67575   2.69004
 Alpha virt. eigenvalues --    2.69898   2.70197   2.71066   2.71186   2.72948
 Alpha virt. eigenvalues --    2.73417   2.74459   2.74790   2.75142   2.75520
 Alpha virt. eigenvalues --    2.76581   2.77105   2.78087   2.78317   2.79094
 Alpha virt. eigenvalues --    2.79654   2.80080   2.81063   2.81243   2.81955
 Alpha virt. eigenvalues --    2.82540   2.83329   2.83526   2.84500   2.85312
 Alpha virt. eigenvalues --    2.86051   2.86524   2.87150   2.87244   2.88074
 Alpha virt. eigenvalues --    2.89325   2.89900   2.90676   2.91129   2.91449
 Alpha virt. eigenvalues --    2.91662   2.92162   2.92716   2.93996   2.94679
 Alpha virt. eigenvalues --    2.95093   2.95986   2.96406   2.97192   2.97291
 Alpha virt. eigenvalues --    2.97869   2.97965   2.98097   2.98889   2.99159
 Alpha virt. eigenvalues --    2.99654   2.99946   3.02785   3.03267   3.03738
 Alpha virt. eigenvalues --    3.04369   3.04759   3.05587   3.05987   3.06417
 Alpha virt. eigenvalues --    3.06772   3.07074   3.07965   3.08220   3.08457
 Alpha virt. eigenvalues --    3.09022   3.12585   3.14297   3.14683   3.16694
 Alpha virt. eigenvalues --    3.17798   3.19280   3.19398   3.20986   3.21309
 Alpha virt. eigenvalues --    3.22474   3.23464   3.23927   3.27290   3.28261
 Alpha virt. eigenvalues --    3.28669   3.29882   3.31626   3.32416   3.32928
 Alpha virt. eigenvalues --    3.34769   3.37005   3.38726   3.39725   3.42600
 Alpha virt. eigenvalues --    3.42980   3.43614   3.45895   3.47057   3.49335
 Alpha virt. eigenvalues --    3.50534   3.56894   3.57561   3.57594   3.59824
 Alpha virt. eigenvalues --    3.62900   3.63338   3.64562   4.07495   4.09145
 Alpha virt. eigenvalues --    4.09770   4.14876   4.15419   4.16968   4.25418
 Alpha virt. eigenvalues --    4.26926   4.28613   4.31878   4.32351   4.36648
 Alpha virt. eigenvalues --    4.38144   4.38946   4.40837   4.44895   4.45783
 Alpha virt. eigenvalues --    4.47674   4.48761   4.50471   4.51715   4.55694
 Alpha virt. eigenvalues --    4.57435   4.61647   4.64201   4.65696   4.68952
 Alpha virt. eigenvalues --    4.70428   4.73710   4.77015   4.79848   4.82294
 Alpha virt. eigenvalues --    4.85923   4.87784   4.89125   4.92515   4.98759
 Alpha virt. eigenvalues --    4.98823   5.03256   5.11075   5.26558   5.27132
 Alpha virt. eigenvalues --    5.31495   5.33735   5.45480   5.74495   5.86451
 Alpha virt. eigenvalues --    6.04120   6.11299   6.23645   6.29790
          Condensed to atoms (all electrons):
 Mulliken charges:
               1
     1  O   -0.536492
     2  C    0.823955
     3  N   -0.571534
     4  C   -0.054632
     5  C   -0.213422
     6  C   -0.268151
     7  C    0.546947
     8  F   -0.277070
     9  F   -0.289108
    10  C    0.741151
    11  F   -0.270974
    12  F   -0.247232
    13  O   -0.493334
    14  C    0.978195
    15  F   -0.244757
    16  F   -0.244162
    17  F   -0.242513
    18  C    0.823106
    19  O   -0.538174
    20  N   -0.571114
    21  C   -0.056912
    22  C   -0.204894
    23  C   -0.261519
    24  C    0.547921
    25  F   -0.279527
    26  F   -0.279658
    27  C    0.733002
    28  F   -0.260108
    29  F   -0.271933
    30  O   -0.492415
    31  C    0.981294
    32  F   -0.245372
    33  F   -0.242335
    34  F   -0.237749
    35  C    0.821345
    36  O   -0.537552
    37  N   -0.568441
    38  C   -0.057872
    39  C   -0.212240
    40  C   -0.262908
    41  C    0.542880
    42  F   -0.279927
    43  F   -0.288803
    44  C    0.758950
    45  F   -0.260558
    46  F   -0.264872
    47  O   -0.511138
    48  C    0.989060
    49  F   -0.246430
    50  F   -0.246833
    51  F   -0.242449
    52  H    0.147683
    53  H    0.147897
    54  H    0.134296
    55  H    0.130836
    56  H    0.150305
    57  H    0.155162
    58  H    0.146610
    59  H    0.153112
    60  H    0.135405
    61  H    0.131344
    62  H    0.149489
    63  H    0.142863
    64  H    0.150579
    65  H    0.151113
    66  H    0.128778
    67  H    0.133152
    68  H    0.150075
    69  H    0.148609
 Sum of Mulliken charges =   0.00000
 Mulliken charges with hydrogens summed into heavy atoms:
               1
     1  O   -0.536492
     2  C    0.823955
     3  N   -0.571534
     4  C    0.240948
     5  C    0.051710
     6  C    0.037316
     7  C    0.546947
     8  F   -0.277070
     9  F   -0.289108
    10  C    0.741151
    11  F   -0.270974
    12  F   -0.247232
    13  O   -0.493334
    14  C    0.978195
    15  F   -0.244757
    16  F   -0.244162
    17  F   -0.242513
    18  C    0.823106
    19  O   -0.538174
    20  N   -0.571114
    21  C    0.242810
    22  C    0.061856
    23  C    0.030834
    24  C    0.547921
    25  F   -0.279527
    26  F   -0.279658
    27  C    0.733002
    28  F   -0.260108
    29  F   -0.271933
    30  O   -0.492415
    31  C    0.981294
    32  F   -0.245372
    33  F   -0.242335
    34  F   -0.237749
    35  C    0.821345
    36  O   -0.537552
    37  N   -0.568441
    38  C    0.243820
    39  C    0.049690
    40  C    0.035776
    41  C    0.542880
    42  F   -0.279927
    43  F   -0.288803
    44  C    0.758950
    45  F   -0.260558
    46  F   -0.264872
    47  O   -0.511138
    48  C    0.989060
    49  F   -0.246430
    50  F   -0.246833
    51  F   -0.242449
 Electronic spatial extent (au):  <R**2>=          51275.1870
 Charge=              0.0000 electrons
 Dipole moment (field-independent basis, Debye):
    X=             -1.2018    Y=             -0.4088    Z=              1.7113  Tot=              2.1308
 Quadrupole moment (field-independent basis, Debye-Ang):
   XX=           -311.1655   YY=           -295.0064   ZZ=           -270.9401
   XY=             -5.5699   XZ=              6.1290   YZ=              1.0433
 Traceless Quadrupole moment (field-independent basis, Debye-Ang):
   XX=            -18.7948   YY=             -2.6357   ZZ=             21.4306
   XY=             -5.5699   XZ=              6.1290   YZ=              1.0433
 Octapole moment (field-independent basis, Debye-Ang**2):
  XXX=             -7.7847  YYY=            -57.1909  ZZZ=            214.1130  XYY=           -106.0637
  XXY=             15.1539  XXZ=             77.3695  XZZ=            -27.8450  YZZ=            -20.9439
  YYZ=             87.5626  XYZ=            -43.7194
 Hexadecapole moment (field-independent basis, Debye-Ang**3):
 XXXX=         -34211.4501 YYYY=         -20171.6571 ZZZZ=          -3626.4290 XXXY=          -3367.7632
 XXXZ=           -381.8136 YYYX=          -3381.1097 YYYZ=          -1119.9402 ZZZX=           -490.5532
 ZZZY=          -1194.6471 XXYY=          -9157.8065 XXZZ=          -6048.6920 YYZZ=          -3806.9110
 XXYZ=           -503.1890 YYXZ=           -141.2464 ZZXY=          -1111.6315
 N-N= 7.806797201393D+03 E-N=-2.392973914419D+04  KE= 3.495976876301D+03
 No NMR shielding tensors so no spin-rotation constants.
 Leave Link  601 at Sun Feb  2 08:00:11 2025, MaxMem=  5368709120 cpu:         5.6
 (Enter /home/k0335/k033513/app/g09/l9999.exe)
 1\1\GINC-C18U03N3\SP\RCAM-B3LYP\6-31G(d,p)\C21H18F21N3O6\K033513\02-Fe
 b-2025\0\\#p CAM-B3LYP/6-31G(d,p) SCRF=(PCM,Solvent=Generic,Read) NoSy
 mm out=wfn\\Title TAIC1_neu\\0,1\O,0,2.05186,0.871645,1.127514\C,0,0.9
 29518,0.371095,1.027966\N,0,-0.157706,1.099255,0.595926\C,0,0.044926,2
 .503921,0.242207\C,0,-0.104792,3.417752,1.46494\C,0,-0.142391,4.910064
 ,1.124746\C,0,1.081277,5.488194,0.414755\F,0,1.189228,4.894153,-0.8040
 45\F,0,0.818353,6.804076,0.156946\C,0,2.404951,5.380845,1.213067\F,0,2
 .187433,5.88534,2.465115\F,0,2.758951,4.087269,1.416071\O,0,3.537378,6
 .065924,0.73825\C,0,3.815909,5.717367,-0.585716\F,0,5.101992,6.025174,
 -0.848232\F,0,3.034984,6.431163,-1.415435\F,0,3.639029,4.404209,-0.809
 566\C,0,-1.44224,0.597359,0.560983\O,0,-2.405008,1.30227,0.251196\N,0,
 -1.588313,-0.735045,0.884461\C,0,-2.921162,-1.330442,0.790895\C,0,-3.2
 22888,-1.811287,-0.633412\C,0,-4.460371,-2.710958,-0.746957\C,0,-5.758
 337,-2.052321,-0.281763\F,0,-5.874189,-0.831145,-0.865044\F,0,-5.66834
 7,-1.819527,1.058602\C,0,-7.008687,-2.92103,-0.574773\F,0,-8.137276,-2
 .355282,-0.076761\F,0,-6.872037,-4.098424,0.10697\O,0,-7.262905,-3.305
 831,-1.904078\C,0,-7.425561,-2.188409,-2.730476\F,0,-6.212736,-1.74719
 8,-3.113182\F,0,-8.100658,-2.567116,-3.833569\F,0,-8.102319,-1.196723,
 -2.131671\C,0,-0.525445,-1.564514,1.172792\O,0,-0.659451,-2.786653,1.2
 67545\N,0,0.698996,-0.953224,1.333994\C,0,1.841654,-1.778639,1.717571\
 C,0,2.565485,-2.342863,0.489379\C,0,3.819919,-3.115947,0.892197\C,0,4.
 502408,-3.85052,-0.26131\F,0,3.656384,-4.817341,-0.717879\F,0,5.571997
 ,-4.518346,0.269554\C,0,4.977431,-2.96044,-1.427828\F,0,3.911059,-2.42
 2838,-2.071142\F,0,5.654737,-3.707093,-2.335231\O,0,5.824325,-1.92629,
 -0.983573\C,0,5.97685,-0.977221,-2.00006\F,0,4.874279,-0.208409,-2.080
 86\F,0,7.018121,-0.181451,-1.677858\F,0,6.230461,-1.540818,-3.19361\H,
 0,1.04238,2.618692,-0.195516\H,0,-0.679032,2.790322,-0.529591\H,0,0.69
 2659,3.211907,2.18761\H,0,-1.040735,3.172208,1.983495\H,0,-0.318403,5.
 477929,2.046722\H,0,-1.019597,5.096628,0.491844\H,0,-2.98969,-2.169829
 ,1.492811\H,0,-3.662116,-0.586497,1.103223\H,0,-3.336827,-0.944476,-1.
 296134\H,0,-2.363429,-2.37455,-1.019024\H,0,-4.288291,-3.622836,-0.162
 656\H,0,-4.55066,-3.012096,-1.796506\H,0,1.501191,-2.599835,2.359491\H
 ,0,2.536013,-1.175901,2.315209\H,0,2.837413,-1.517737,-0.178126\H,0,1.
 885715,-2.995118,-0.071653\H,0,3.549528,-3.862137,1.650044\H,0,4.53680
 4,-2.440402,1.37429\\Version=ES64L-G09RevD.01\HF=-3522.3980432\RMSD=3.
 766e-09\Dipole=-0.4728391,-0.1608435,0.6732916\Quadrupole=-13.9734995,
 -1.9596064,15.9331059,-4.1410579,4.5567616,0.7756524\PG=C01 [X(C21H18F
 21N3O6)]\\@

 Writing a WFN file to "wang5/TAIC1/TAIC1_neu.wfn"


 NOTHING MAKES A PERSON MORE PRODUCTIVE THAN THE LAST MINUTE.
 Job cpu time:       0 days  0 hours 32 minutes 14.4 seconds.
 File lengths (MBytes):  RWF=    865 Int=      0 D2E=      0 Chk=     28 Scr=      1
 Normal termination of Gaussian 09 at Sun Feb  2 08:00:12 2025.
