 Entering Gaussian System, Link 0=g09
 Initial command:
 /home/k0335/k033513/app/g09/l1.exe "/home/k0335/k033513/app/g09/scratch/Gau-290144.inp" -scrdir="/home/k0335/k033513/app/g09/scratch/"
 Default is to use a total of  36 processors:
                               36 via shared-memory
                                1 via Linda
 Entering Link 1 = /home/k0335/k033513/app/g09/l1.exe PID=    290145.
  
 Copyright (c) 1988,1990,1992,1993,1995,1998,2003,2009,2013,
            Gaussian, Inc.  All Rights Reserved.
  
 This is part of the Gaussian(R) 09 program.  It is based on
 the Gaussian(R) 03 system (copyright 2003, Gaussian, Inc.),
 the Gaussian(R) 98 system (copyright 1998, Gaussian, Inc.),
 the Gaussian(R) 94 system (copyright 1995, Gaussian, Inc.),
 the Gaussian 92(TM) system (copyright 1992, Gaussian, Inc.),
 the Gaussian 90(TM) system (copyright 1990, Gaussian, Inc.),
 the Gaussian 88(TM) system (copyright 1988, Gaussian, Inc.),
 the Gaussian 86(TM) system (copyright 1986, Carnegie Mellon
 University), and the Gaussian 82(TM) system (copyright 1983,
 Carnegie Mellon University). Gaussian is a federally registered
 trademark of Gaussian, Inc.
  
 This software contains proprietary and confidential information,
 including trade secrets, belonging to Gaussian, Inc.
  
 This software is provided under written license and may be
 used, copied, transmitted, or stored only in accord with that
 written license.
  
 The following legend is applicable only to US Government
 contracts under FAR:
  
                    RESTRICTED RIGHTS LEGEND
  
 Use, reproduction and disclosure by the US Government is
 subject to restrictions as set forth in subparagraphs (a)
 and (c) of the Commercial Computer Software - Restricted
 Rights clause in FAR 52.227-19.
  
 Gaussian, Inc.
 340 Quinnipiac St., Bldg. 40, Wallingford CT 06492
  
  
 ---------------------------------------------------------------
 Warning -- This program may not be used in any manner that
 competes with the business of Gaussian, Inc. or will provide
 assistance to any competitor of Gaussian, Inc.  The licensee
 of this program is prohibited from giving any competitor of
 Gaussian, Inc. access to this program.  By using this program,
 the user acknowledges that Gaussian, Inc. is engaged in the
 business of creating and licensing software in the field of
 computational chemistry and represents and warrants to the
 licensee that it is not a competitor of Gaussian, Inc. and that
 it will not use this program in any manner prohibited above.
 ---------------------------------------------------------------
  

 Cite this work as:
 Gaussian 09, Revision D.01,
 M. J. Frisch, G. W. Trucks, H. B. Schlegel, G. E. Scuseria, 
 M. A. Robb, J. R. Cheeseman, G. Scalmani, V. Barone, B. Mennucci, 
 G. A. Petersson, H. Nakatsuji, M. Caricato, X. Li, H. P. Hratchian, 
 A. F. Izmaylov, J. Bloino, G. Zheng, J. L. Sonnenberg, M. Hada, 
 M. Ehara, K. Toyota, R. Fukuda, J. Hasegawa, M. Ishida, T. Nakajima, 
 Y. Honda, O. Kitao, H. Nakai, T. Vreven, J. A. Montgomery, Jr., 
 J. E. Peralta, F. Ogliaro, M. Bearpark, J. J. Heyd, E. Brothers, 
 K. N. Kudin, V. N. Staroverov, T. Keith, R. Kobayashi, J. Normand, 
 K. Raghavachari, A. Rendell, J. C. Burant, S. S. Iyengar, J. Tomasi, 
 M. Cossi, N. Rega, J. M. Millam, M. Klene, J. E. Knox, J. B. Cross, 
 V. Bakken, C. Adamo, J. Jaramillo, R. Gomperts, R. E. Stratmann, 
 O. Yazyev, A. J. Austin, R. Cammi, C. Pomelli, J. W. Ochterski, 
 R. L. Martin, K. Morokuma, V. G. Zakrzewski, G. A. Voth, 
 P. Salvador, J. J. Dannenberg, S. Dapprich, A. D. Daniels, 
 O. Farkas, J. B. Foresman, J. V. Ortiz, J. Cioslowski, 
 and D. J. Fox, Gaussian, Inc., Wallingford CT, 2013.
 
 ******************************************
 Gaussian 09:  ES64L-G09RevD.01 24-Apr-2013
                 3-Mar-2024 
 ******************************************
 %nprocshared=24
 Will use up to   24 processors via shared memory.
 %mem=40GB
 %rwf=A891418171/A891418171_p1.rwf
 %nosave
 %chk=A891418171/A891418171_p1.chk
 ----------------------------------------------------------------------
 #p CAM-B3LYP/6-31G(d,p) SCRF=(PCM,Solvent=Generic,Read) NoSymm out=wfn
 ----------------------------------------------------------------------
 1/38=1,40=2/1;
 2/12=2,15=1,17=6,18=5,40=1/2;
 3/5=1,6=6,7=101,11=2,16=1,25=1,30=1,70=2203,72=-2,74=-40/1,2,3;
 4//1;
 5/5=2,38=5/2;
 6/7=2,8=2,9=2,10=2,28=1/1;
 99/5=1,6=100,9=1/99;
 Leave Link    1 at Sun Mar  3 18:04:12 2024, MaxMem=  5368709120 cpu:         1.2
 (Enter /home/k0335/k033513/app/g09/l101.exe)
 -------------------
 Title A891418171_p1
 -------------------
 Symbolic Z-matrix:
 Charge =  1 Multiplicity = 2
 C                     3.1629    0.78556   1.65245 
 C                     3.21166   0.57597   0.14487 
 N                     2.18144  -0.35297  -0.31324 
 C                     2.45533  -1.69998  -0.26629 
 O                     3.51106  -2.1805    0.13805 
 N                     1.44556  -2.51988  -0.65229 
 C                     0.16854  -2.1109   -0.86342 
 O                    -0.73259  -2.94371  -0.8548 
 N                    -0.01576  -0.76574  -1.03113 
 C                    -1.37453  -0.29693  -1.25358 
 F                    -1.98038  -1.14719  -2.13253 
 F                    -1.3322    0.87369  -1.94594 
 C                    -2.2359   -0.15189   0.03012 
 F                    -2.25609  -1.37226   0.66901 
 O                    -1.66789   0.70073   1.03263 
 C                    -1.98595   2.06625   0.90162 
 F                    -1.17058   2.77906   1.69903 
 F                    -3.25324   2.26552   1.29977 
 F                    -1.84781   2.48318  -0.36173 
 C                    -3.67568   0.13598  -0.41632 
 F                    -3.7903    1.28647  -1.1121 
 F                    -4.49762   0.24139   0.65791 
 F                    -4.18798  -0.84679  -1.18991 
 C                     0.91494   0.13785  -0.57746 
 O                     0.62738   1.31604  -0.36728 
 H                     3.31508  -0.15719   2.18781 
 H                     3.94497   1.48499   1.96337 
 H                     2.19607   1.1932    1.965 
 H                     3.08194   1.53867  -0.36269 
 H                     4.19784   0.19004  -0.13772 
 H                     1.5898   -3.50868  -0.50319 
 
 NAtoms=     31 NQM=       31 NQMF=       0 NMMI=      0 NMMIF=      0
                NMic=       0 NMicF=      0.
                    Isotopes and Nuclear Properties:
 (Nuclear quadrupole moments (NQMom) in fm**2, nuclear magnetic moments (NMagM)
  in nuclear magnetons)

  Atom         1           2           3           4           5           6           7           8           9          10
 IAtWgt=          12          12          14          12          16          14          12          16          14          12
 AtmWgt=  12.0000000  12.0000000  14.0030740  12.0000000  15.9949146  14.0030740  12.0000000  15.9949146  14.0030740  12.0000000
 NucSpn=           0           0           2           0           0           2           0           0           2           0
 AtZEff=   0.0000000   0.0000000   0.0000000   0.0000000   0.0000000   0.0000000   0.0000000   0.0000000   0.0000000   0.0000000
 NQMom=    0.0000000   0.0000000   2.0440000   0.0000000   0.0000000   2.0440000   0.0000000   0.0000000   2.0440000   0.0000000
 NMagM=    0.0000000   0.0000000   0.4037610   0.0000000   0.0000000   0.4037610   0.0000000   0.0000000   0.4037610   0.0000000
 AtZNuc=   6.0000000   6.0000000   7.0000000   6.0000000   8.0000000   7.0000000   6.0000000   8.0000000   7.0000000   6.0000000

  Atom        11          12          13          14          15          16          17          18          19          20
 IAtWgt=          19          19          12          19          16          12          19          19          19          12
 AtmWgt=  18.9984033  18.9984033  12.0000000  18.9984033  15.9949146  12.0000000  18.9984033  18.9984033  18.9984033  12.0000000
 NucSpn=           1           1           0           1           0           0           1           1           1           0
 AtZEff=   0.0000000   0.0000000   0.0000000   0.0000000   0.0000000   0.0000000   0.0000000   0.0000000   0.0000000   0.0000000
 NQMom=    0.0000000   0.0000000   0.0000000   0.0000000   0.0000000   0.0000000   0.0000000   0.0000000   0.0000000   0.0000000
 NMagM=    2.6288670   2.6288670   0.0000000   2.6288670   0.0000000   0.0000000   2.6288670   2.6288670   2.6288670   0.0000000
 AtZNuc=   9.0000000   9.0000000   6.0000000   9.0000000   8.0000000   6.0000000   9.0000000   9.0000000   9.0000000   6.0000000

  Atom        21          22          23          24          25          26          27          28          29          30
 IAtWgt=          19          19          19          12          16           1           1           1           1           1
 AtmWgt=  18.9984033  18.9984033  18.9984033  12.0000000  15.9949146   1.0078250   1.0078250   1.0078250   1.0078250   1.0078250
 NucSpn=           1           1           1           0           0           1           1           1           1           1
 AtZEff=   0.0000000   0.0000000   0.0000000   0.0000000   0.0000000   0.0000000   0.0000000   0.0000000   0.0000000   0.0000000
 NQMom=    0.0000000   0.0000000   0.0000000   0.0000000   0.0000000   0.0000000   0.0000000   0.0000000   0.0000000   0.0000000
 NMagM=    2.6288670   2.6288670   2.6288670   0.0000000   0.0000000   2.7928460   2.7928460   2.7928460   2.7928460   2.7928460
 AtZNuc=   9.0000000   9.0000000   9.0000000   6.0000000   8.0000000   1.0000000   1.0000000   1.0000000   1.0000000   1.0000000

  Atom        31
 IAtWgt=           1
 AtmWgt=   1.0078250
 NucSpn=           1
 AtZEff=   0.0000000
 NQMom=    0.0000000
 NMagM=    2.7928460
 AtZNuc=   1.0000000
 Leave Link  101 at Sun Mar  3 18:04:13 2024, MaxMem=  5368709120 cpu:         0.8
 (Enter /home/k0335/k033513/app/g09/l202.exe)
                          Input orientation:                          
 ---------------------------------------------------------------------
 Center     Atomic      Atomic             Coordinates (Angstroms)
 Number     Number       Type             X           Y           Z
 ---------------------------------------------------------------------
      1          6           0        3.162896    0.785564    1.652452
      2          6           0        3.211664    0.575970    0.144869
      3          7           0        2.181435   -0.352971   -0.313242
      4          6           0        2.455325   -1.699980   -0.266289
      5          8           0        3.511064   -2.180497    0.138047
      6          7           0        1.445559   -2.519876   -0.652292
      7          6           0        0.168543   -2.110895   -0.863415
      8          8           0       -0.732587   -2.943714   -0.854795
      9          7           0       -0.015759   -0.765737   -1.031135
     10          6           0       -1.374533   -0.296925   -1.253580
     11          9           0       -1.980377   -1.147194   -2.132534
     12          9           0       -1.332199    0.873686   -1.945943
     13          6           0       -2.235897   -0.151885    0.030120
     14          9           0       -2.256094   -1.372258    0.669010
     15          8           0       -1.667891    0.700728    1.032628
     16          6           0       -1.985949    2.066251    0.901620
     17          9           0       -1.170578    2.779059    1.699030
     18          9           0       -3.253239    2.265515    1.299772
     19          9           0       -1.847812    2.483179   -0.361732
     20          6           0       -3.675680    0.135984   -0.416317
     21          9           0       -3.790303    1.286473   -1.112103
     22          9           0       -4.497618    0.241393    0.657908
     23          9           0       -4.187983   -0.846793   -1.189906
     24          6           0        0.914935    0.137853   -0.577462
     25          8           0        0.627381    1.316042   -0.367284
     26          1           0        3.315080   -0.157193    2.187809
     27          1           0        3.944972    1.484990    1.963371
     28          1           0        2.196075    1.193196    1.964998
     29          1           0        3.081935    1.538674   -0.362694
     30          1           0        4.197836    0.190036   -0.137718
     31          1           0        1.589798   -3.508675   -0.503191
 ---------------------------------------------------------------------
                    Distance matrix (angstroms):
                    1          2          3          4          5
     1  C    0.000000
     2  C    1.522864   0.000000
     3  N    2.474567   1.460879   0.000000
     4  C    3.218719   2.433320   1.375374   0.000000
     5  O    3.348457   2.772688   2.304653   1.228401   0.000000
     6  N    4.380300   3.652240   2.313427   1.356781   2.237437
     7  C    4.866745   4.182878   2.728502   2.398913   3.490017
     8  O    5.947150   5.380020   3.936592   3.472175   4.424569
     9  N    4.439822   3.687739   2.348065   2.750283   3.975803
    10  C    5.495914   4.873480   3.678625   4.196560   5.417890
    11  F    6.671951   5.925635   4.610997   4.843954   6.031515
    12  F    5.758654   5.010671   4.063991   4.877533   6.093295
    13  C    5.714695   5.497168   4.435218   4.948941   6.095447
    14  F    5.915134   5.828095   4.657835   4.814525   5.847673
    15  O    4.871127   4.961223   4.211764   4.944845   5.993606
    16  C    5.358592   5.459743   4.969468   5.939143   6.988209
    17  F    4.770240   5.145198   5.009475   6.088632   6.996545
    18  F    6.594045   6.781101   6.244515   7.124984   8.177556
    19  F    5.660921   5.430689   4.927568   6.002076   7.121601
    20  C    7.174112   6.924162   5.878392   6.401757   7.571175
    21  F    7.499377   7.149289   6.244006   6.974394   8.178797
    22  F    7.743947   7.733575   6.775408   7.277808   8.383006
    23  F    8.048541   7.652493   6.448402   6.761253   7.925752
    24  C    3.231930   2.447176   1.383742   2.418111   3.553391
    25  O    3.284749   2.736517   2.281142   3.528168   4.560348
    26  H    1.094787   2.172976   2.752950   3.023569   2.886814
    27  H    1.094308   2.161251   3.416304   4.163468   4.117752
    28  H    1.094802   2.173766   2.753402   3.662829   4.055706
    29  H    2.152799   1.096015   2.095630   3.300123   3.777185
    30  H    2.151851   1.096055   2.095600   2.573914   2.483370
    31  H    5.055880   4.442382   3.216300   2.019068   2.422087
                    6          7          8          9         10
     6  N    0.000000
     7  C    1.357427   0.000000
     8  O    2.228220   1.227068   0.000000
     9  N    2.314298   1.368045   2.299679   0.000000
    10  C    3.640876   2.413255   2.752565   1.454487   0.000000
    11  F    3.976482   2.675302   2.533196   2.284363   1.364758
    12  F    4.572279   3.511669   4.015306   2.292945   1.360694
    13  C    4.430145   3.227609   3.292009   2.536156   1.552698
    14  F    4.094521   2.961887   2.666933   2.877058   2.372729
    15  O    4.785898   3.856513   4.209408   3.023107   2.511597
    16  C    5.934851   5.020531   5.454875   3.954408   3.256274
    17  F    6.360157   5.680759   6.282037   4.620929   4.268628
    18  F    6.984928   5.961622   6.175104   5.010279   4.076180
    19  F    5.996772   5.042112   5.562194   3.789456   2.957763
    20  C    5.773765   4.475088   4.282359   3.819178   2.486704
    21  F    6.489528   5.222683   5.225927   4.297127   2.891904
    22  F    6.683007   5.442494   5.158356   4.894307   3.700977
    23  F    5.901274   4.547952   4.055754   4.176031   2.867387
    24  C    2.711215   2.386574   3.505324   1.374222   2.426485
    25  O    3.932545   3.492932   4.498077   2.277747   2.719346
    26  H    4.140477   4.798710   5.779770   4.671875   5.818518
    27  H    5.397009   5.931486   7.031005   5.451626   6.466926
    28  H    4.604388   4.798731   5.800200   4.207902   5.032787
    29  H    4.385592   4.696587   5.906314   3.918269   4.901348
    30  H    3.896593   4.696395   5.885886   4.412038   5.703821
    31  H    1.010326   2.025714   2.415839   3.221839   4.434600
                   11         12         13         14         15
    11  F    0.000000
    12  F    2.130471   0.000000
    13  C    2.394369   2.402767   0.000000
    14  F    2.824061   3.568729   1.377642   0.000000
    15  O    3.678412   3.002414   1.433388   2.185285   0.000000
    16  C    4.419542   3.155664   2.396271   3.456939   1.408182
    17  F    5.545459   4.116114   3.537032   4.412790   2.238498
    18  F    5.004746   4.020230   2.913902   3.824337   2.243491
    19  F    4.041401   2.316473   2.692159   4.011673   2.270186
    20  C    2.732398   2.894108   1.534650   2.338365   2.539605
    21  F    3.199976   2.628299   2.406185   3.548945   3.073695
    22  F    4.006400   4.147254   2.379951   2.761960   2.891152
    23  F    2.419155   3.418646   2.404579   2.732010   3.699371
    24  C    3.528800   2.731996   3.221932   3.726869   3.095191
    25  O    3.998005   2.554955   3.242083   4.076186   2.758014
    26  H    6.905601   6.304587   5.955585   5.900942   5.186566
    27  H    7.669067   6.595829   6.679817   6.949277   5.743307
    28  H    6.301583   5.276956   5.019499   5.299335   4.005256
    29  H    5.997768   4.736398   5.593892   6.167049   5.020949
    30  H    6.628559   5.858186   6.444998   6.689154   6.003105
    31  H    4.580120   5.461198   5.117460   4.552935   5.539887
                   16         17         18         19         20
    16  C    0.000000
    17  F    1.344912   0.000000
    18  F    1.343226   2.181882   0.000000
    19  F    1.337523   2.189276   2.187052   0.000000
    20  C    2.884108   4.211422   2.767367   2.975467   0.000000
    21  F    2.814041   4.122286   2.657838   2.401756   1.349400
    22  F    3.114159   4.311946   2.461207   3.617560   1.356706
    23  F    4.208237   5.531500   4.093740   4.153431   1.351571
    24  C    3.784380   4.062973   5.042284   3.630408   4.593443
    25  O    3.000404   3.105274   4.328947   2.736571   4.462205
    26  H    5.890577   5.383457   7.056978   6.334602   7.465799
    27  H    6.053181   5.283308   7.270751   6.321300   8.096732
    28  H    4.402536   3.730959   5.593516   4.840532   6.423851
    29  H    5.249788   4.886013   6.589880   5.019412   6.901868
    30  H    6.545197   6.236710   7.867179   6.469818   7.878629
    31  H    6.770470   7.211453   7.748997   6.909377   6.404400
                   21         22         23         24         25
    21  F    0.000000
    22  F    2.173804   0.000000
    23  F    2.171411   2.166665   0.000000
    24  C    4.872826   5.552710   5.233009   0.000000
    25  O    4.480130   5.335870   5.342499   1.230850   0.000000
    26  H    7.966182   7.971055   8.257146   3.673482   3.990319
    27  H    8.326610   8.632965   9.029138   4.177527   4.057944
    28  H    6.731565   6.886214   7.407508   3.036309   2.813438
    29  H    6.917577   7.757202   7.695872   2.589269   2.464634
    30  H    8.121697   8.731929   8.514932   3.312633   3.750832
    31  H    7.232545   7.243466   6.398433   3.709194   4.921647
                   26         27         28         29         30
    26  H    0.000000
    27  H    1.773105   0.000000
    28  H    1.767871   1.773073   0.000000
    29  H    3.071708   2.481591   2.514409   0.000000
    30  H    2.511554   2.481012   3.071611   1.764844   0.000000
    31  H    4.631470   6.047104   5.344822   5.265163   4.540473
                   31
    31  H    0.000000
 Symmetry turned off by external request.
 Stoichiometry    C9H6F9N3O4(1+,2)
 Framework group  C1[X(C9H6F9N3O4)]
 Deg. of freedom    87
 Full point group                 C1      NOp   1
 Rotational constants (GHZ):      0.3872304      0.1921993      0.1511593
 Leave Link  202 at Sun Mar  3 18:04:13 2024, MaxMem=  5368709120 cpu:         0.1
 (Enter /home/k0335/k033513/app/g09/l301.exe)
 Standard basis: 6-31G(d,p) (6D, 7F)
 Ernie: Thresh=  0.10000D-02 Tol=  0.10000D-05 Strict=F.
   405 basis functions,   742 primitive gaussians,   405 cartesian basis functions
    97 alpha electrons       96 beta electrons
       nuclear repulsion energy      2858.1362143748 Hartrees.
 IExCor=20419 DFT=T Ex+Corr=CAM-B3LYP ExCW=0 ScaHFX=  1.000000
 ScaDFX=  1.000000  1.000000  1.000000  0.810000 ScalE2=  1.000000  1.000000
 IRadAn=      0 IRanWt=     -1 IRanGd=            0 ICorTp=0 IEmpDi=  4
  HFx wShort=  0.000000 wLong=  0.330000 cFull=  0.190000 cShort=  0.000000 cLong=  0.460000
  DFx wShort=  0.000000 wLong=  0.330000 cFull=  0.190000 cShort=  0.000000 cLong=  0.460000
 NAtoms=   31 NActive=   31 NUniq=   31 SFac= 1.00D+00 NAtFMM=   60 NAOKFM=F Big=F
 Integral buffers will be    131072 words long.
 Raffenetti 2 integral format.
 Two-electron integral symmetry is turned off.
 Using the following non-standard input for PCM:
 eps=4.9
 --- end of non-standard input.
 ------------------------------------------------------------------------------
 Polarizable Continuum Model (PCM)
 =================================
 Model                : PCM (using non-symmetric T matrix).
 Atomic radii         : UFF (Universal Force Field).
 Polarization charges : Total charges.
 Charge compensation  : None.
 Solution method      : On-the-fly selection.
 Cavity type          : Scaled VdW (van der Waals Surface) (Alpha=1.100).
 Cavity algorithm     : GePol (No added spheres)
                        Default sphere list used, NSphG=   31.
                        Lebedev-Laikov grids with approx.  5.0 points / Ang**2.
                        Smoothing algorithm: Karplus/York (Gamma=1.0000).
                        Polarization charges: spherical gaussians, with
                                              point-specific exponents (IZeta= 3).
                        Self-potential: point-specific (ISelfS= 7).
                        Self-field    : sphere-specific E.n sum rule (ISelfD= 2).
 Solvent              : Generic,
                        Eps                           =   4.900000
                        Eps(infinity)                 =   0.000000
                        RSolv                         =   0.000000 Ang.
                        Molar volume                  =   0.000000 cm**3/mol
                        Thermal expansion coefficient =   0.000000 K**-1
                        Absolute temperature          = 298.150000 K
                        Numeral density               =   0.000000 Ang**-3
                        Hydrogen bond acidity         =   0.000000
                        Hydrogen bond basicity        =   0.000000
                        Surface tension at interface  =   0.000000 (cal/mol)*Ang**-2
                        Carbon aromaticity            =   0.000000
                        Electronegative halogenicity  =   0.000000
 ------------------------------------------------------------------------------
 GePol: Number of generator spheres                  =      31
 GePol: Total number of spheres                      =      31
 GePol: Number of exposed spheres                    =      31 (100.00%)
 GePol: Number of points                             =    2534
 GePol: Average weight of points                     =       0.13
 GePol: Minimum weight of points                     =   0.74D-10
 GePol: Maximum weight of points                     =    0.20577
 GePol: Number of points with low weight             =     133
 GePol: Fraction of low-weight points (<1% of avg)   =       5.25%
 GePol: Cavity surface area                          =    317.252 Ang**2
 GePol: Cavity volume                                =    358.458 Ang**3
 Leave Link  301 at Sun Mar  3 18:04:13 2024, MaxMem=  5368709120 cpu:         0.8
 (Enter /home/k0335/k033513/app/g09/l302.exe)
 NPDir=0 NMtPBC=     1 NCelOv=     1 NCel=       1 NClECP=     1 NCelD=      1
         NCelK=      1 NCelE2=     1 NClLst=     1 CellRange=     0.0.
 One-electron integrals computed using PRISM.
 NBasis=   405 RedAO= T EigKep=  1.21D-03  NBF=   405
 NBsUse=   405 1.00D-06 EigRej= -1.00D+00 NBFU=   405
 Precomputing XC quadrature grid using
 IXCGrd= 4 IRadAn=           0 IRanWt=          -1 IRanGd=           0 AccXCQ= 0.00D+00.
 Generated NRdTot=       0 NPtTot=           0 NUsed=           0 NTot=          32
 NSgBfM=   403   403   403   403   403 MxSgAt=    31 MxSgA2=    31.
 Leave Link  302 at Sun Mar  3 18:04:13 2024, MaxMem=  5368709120 cpu:         5.9
 (Enter /home/k0335/k033513/app/g09/l303.exe)
 DipDrv:  MaxL=1.
 Leave Link  303 at Sun Mar  3 18:04:13 2024, MaxMem=  5368709120 cpu:         0.5
 (Enter /home/k0335/k033513/app/g09/l401.exe)
 ExpMin= 1.61D-01 ExpMax= 7.00D+03 ExpMxC= 1.05D+03 IAcc=1 IRadAn=         1 AccDes= 0.00D+00
 Harris functional with IExCor=20419 and IRadAn=       1 diagonalized for initial guess.
 HarFok:  IExCor=20419 AccDes= 0.00D+00 IRadAn=         1 IDoV= 1 UseB2=F ITyADJ=14
 ICtDFT=  3500011 ScaDFX=  1.000000  1.000000  1.000000  1.000000
 FoFCou: FMM=F IPFlag=           0 FMFlag=      100000 FMFlg1=           0
         NFxFlg=           0 DoJE=T BraDBF=F KetDBF=T FulRan=T
         wScrn=  0.000000 ICntrl=     500 IOpCl=  0 I1Cent=   200000004 NGrid=           0
         NMat0=    1 NMatS0=      1 NMatT0=    0 NMatD0=    1 NMtDS0=    0 NMtDT0=    0
 Symmetry not used in FoFCou.
 Harris En= -1656.93717020443    
 JPrj=0 DoOrth=F DoCkMO=F.
 Initial guess <Sx>= 0.0000 <Sy>= 0.0000 <Sz>= 0.5000 <S**2>= 0.7500 S= 0.5000
 Leave Link  401 at Sun Mar  3 18:04:13 2024, MaxMem=  5368709120 cpu:         8.1
 (Enter /home/k0335/k033513/app/g09/l502.exe)
 UHF open shell SCF:
 Using DIIS extrapolation, IDIIS=  1040.
 Two-electron integral symmetry not used.
 IVT=      522837 IEndB=      522837 NGot=  5368709120 MDV=  5368367354
 LenX=  5368367354 LenY=  5368202888
 Requested convergence on RMS density matrix=1.00D-08 within 128 cycles.
 Requested convergence on MAX density matrix=1.00D-06.
 Requested convergence on             energy=1.00D-06.
 No special actions if energy rises.
 Fock matrices will be formed incrementally for  20 cycles.

 Cycle   1  Pass 1  IDiag  1:
 FoFJK:  IHMeth= 1 ICntrl=       0 DoSepK=T KAlg= 0 I1Cent=   0 FoldK=F
 IRaf=         1 NMat=   1 IRICut=       1 DoRegI=T DoRafI=F ISym2E= 0.
 FoFCou: FMM=F IPFlag=           0 FMFlag=      100000 FMFlg1=           0
         NFxFlg=           0 DoJE=T BraDBF=F KetDBF=F FulRan=T
         wScrn=  0.000000 ICntrl=     500 IOpCl=  0 I1Cent=           0 NGrid=           0
         NMat0=    1 NMatS0=      1 NMatT0=    0 NMatD0=    1 NMtDS0=    0 NMtDT0=    0
 Symmetry not used in FoFCou.
 Inv3:  Mode=1 IEnd=    19263468.
 Iteration    1 A*A^-1 deviation from unit magnitude is 6.00D-15 for   2522.
 Iteration    1 A*A^-1 deviation from orthogonality  is 3.30D-15 for   2497    234.
 Iteration    1 A^-1*A deviation from unit magnitude is 5.77D-15 for   2522.
 Iteration    1 A^-1*A deviation from orthogonality  is 2.92D-14 for   2514   2487.
 E= -1708.75004747358    
 DIIS: error= 4.89D-02 at cycle   1 NSaved=   1.
 NSaved= 1 IEnMin= 1 EnMin= -1708.75004747358     IErMin= 1 ErrMin= 4.89D-02
 ErrMax= 4.89D-02  0.00D+00 EMaxC= 1.00D-01 BMatC= 6.26D+00 BMatP= 6.26D+00
 IDIUse=3 WtCom= 5.11D-01 WtEn= 4.89D-01
 Coeff-Com:  0.100D+01
 Coeff-En:   0.100D+01
 Coeff:      0.100D+01
 Gap=     0.569 Goal=   None    Shift=    0.000
 Gap=    -0.034 Goal=   None    Shift=    0.000
 GapD=   -0.034 DampG=0.250 DampE=0.500 DampFc=0.2500 IDamp=-1.
 Damping current iteration by 2.50D-01
 RMSDP=4.42D-03 MaxDP=2.68D-01              OVMax= 6.27D-01

 Cycle   2  Pass 1  IDiag  1:
 RMSU=  1.11D-03    CP:  1.00D+00
 E= -1708.98625535769     Delta-E=       -0.236207884112 Rises=F Damp=T
 DIIS: error= 3.80D-02 at cycle   2 NSaved=   2.
 NSaved= 2 IEnMin= 2 EnMin= -1708.98625535769     IErMin= 2 ErrMin= 3.80D-02
 ErrMax= 3.80D-02  0.00D+00 EMaxC= 1.00D-01 BMatC= 2.60D+00 BMatP= 6.26D+00
 IDIUse=3 WtCom= 6.20D-01 WtEn= 3.80D-01
 Coeff-Com: -0.135D+01 0.235D+01
 Coeff-En:   0.000D+00 0.100D+01
 Coeff:     -0.835D+00 0.184D+01
 Gap=     0.528 Goal=   None    Shift=    0.000
 Gap=     0.009 Goal=   None    Shift=    0.000
 RMSDP=2.20D-03 MaxDP=1.35D-01 DE=-2.36D-01 OVMax= 5.51D-01

 Cycle   3  Pass 1  IDiag  1:
 RMSU=  1.84D-03    CP:  1.00D+00  2.10D+00
 E= -1709.30973137324     Delta-E=       -0.323476015545 Rises=F Damp=F
 DIIS: error= 1.37D-02 at cycle   3 NSaved=   3.
 NSaved= 3 IEnMin= 3 EnMin= -1709.30973137324     IErMin= 3 ErrMin= 1.37D-02
 ErrMax= 1.37D-02  0.00D+00 EMaxC= 1.00D-01 BMatC= 7.56D-01 BMatP= 2.60D+00
 IDIUse=3 WtCom= 8.63D-01 WtEn= 1.37D-01
 Coeff-Com: -0.727D+00 0.121D+01 0.513D+00
 Coeff-En:   0.000D+00 0.000D+00 0.100D+01
 Coeff:     -0.627D+00 0.105D+01 0.580D+00
 Gap=     0.383 Goal=   None    Shift=    0.000
 Gap=     0.034 Goal=   None    Shift=    0.000
 RMSDP=2.17D-03 MaxDP=3.56D-01 DE=-3.23D-01 OVMax= 9.52D-01

 Cycle   4  Pass 1  IDiag  1:
 RMSU=  1.16D-03    CP:  1.00D+00  2.88D+00  1.18D-01
 E= -1709.33210419253     Delta-E=       -0.022372819293 Rises=F Damp=F
 DIIS: error= 1.58D-02 at cycle   4 NSaved=   4.
 NSaved= 4 IEnMin= 4 EnMin= -1709.33210419253     IErMin= 3 ErrMin= 1.37D-02
 ErrMax= 1.58D-02  0.00D+00 EMaxC= 1.00D-01 BMatC= 6.81D-01 BMatP= 7.56D-01
 IDIUse=3 WtCom= 8.42D-01 WtEn= 1.58D-01
 Coeff-Com: -0.210D+00 0.371D+00 0.460D+00 0.379D+00
 Coeff-En:   0.000D+00 0.000D+00 0.470D+00 0.530D+00
 Coeff:     -0.177D+00 0.312D+00 0.462D+00 0.403D+00
 Gap=     0.445 Goal=   None    Shift=    0.000
 Gap=     0.011 Goal=   None    Shift=    0.000
 RMSDP=1.30D-03 MaxDP=1.63D-01 DE=-2.24D-02 OVMax= 4.78D-01

 Cycle   5  Pass 1  IDiag  1:
 RMSU=  9.11D-04    CP:  1.00D+00  2.58D+00  5.33D-01  6.39D-01
 E= -1709.46264264775     Delta-E=       -0.130538455222 Rises=F Damp=F
 DIIS: error= 3.82D-03 at cycle   5 NSaved=   5.
 NSaved= 5 IEnMin= 5 EnMin= -1709.46264264775     IErMin= 5 ErrMin= 3.82D-03
 ErrMax= 3.82D-03  0.00D+00 EMaxC= 1.00D-01 BMatC= 5.92D-02 BMatP= 6.81D-01
 IDIUse=3 WtCom= 9.62D-01 WtEn= 3.82D-02
 Coeff-Com:  0.494D-01-0.581D-01 0.230D+00 0.265D+00 0.513D+00
 Coeff-En:   0.000D+00 0.000D+00 0.000D+00 0.000D+00 0.100D+01
 Coeff:      0.476D-01-0.558D-01 0.222D+00 0.255D+00 0.532D+00
 Gap=     0.368 Goal=   None    Shift=    0.000
 Gap=     0.065 Goal=   None    Shift=    0.000
 RMSDP=4.90D-04 MaxDP=5.75D-02 DE=-1.31D-01 OVMax= 1.88D-01

 Cycle   6  Pass 1  IDiag  1:
 RMSU=  2.83D-04    CP:  9.99D-01  2.66D+00  4.47D-01  8.86D-01  7.71D-01
 E= -1709.47457149785     Delta-E=       -0.011928850095 Rises=F Damp=F
 DIIS: error= 2.45D-03 at cycle   6 NSaved=   6.
 NSaved= 6 IEnMin= 6 EnMin= -1709.47457149785     IErMin= 6 ErrMin= 2.45D-03
 ErrMax= 2.45D-03  0.00D+00 EMaxC= 1.00D-01 BMatC= 2.05D-02 BMatP= 5.92D-02
 IDIUse=3 WtCom= 9.76D-01 WtEn= 2.45D-02
 Coeff-Com:  0.717D-01-0.100D+00 0.312D-01-0.298D-01 0.296D+00 0.731D+00
 Coeff-En:   0.000D+00 0.000D+00 0.000D+00 0.000D+00 0.492D-01 0.951D+00
 Coeff:      0.700D-01-0.977D-01 0.304D-01-0.291D-01 0.290D+00 0.736D+00
 Gap=     0.358 Goal=   None    Shift=    0.000
 Gap=     0.102 Goal=   None    Shift=    0.000
 RMSDP=2.28D-04 MaxDP=2.50D-02 DE=-1.19D-02 OVMax= 6.08D-02

 Cycle   7  Pass 1  IDiag  1:
 RMSU=  2.04D-04    CP:  1.00D+00  2.67D+00  4.49D-01  8.81D-01  8.55D-01
                    CP:  1.24D+00
 E= -1709.48055047098     Delta-E=       -0.005978973130 Rises=F Damp=F
 DIIS: error= 8.51D-04 at cycle   7 NSaved=   7.
 NSaved= 7 IEnMin= 7 EnMin= -1709.48055047098     IErMin= 7 ErrMin= 8.51D-04
 ErrMax= 8.51D-04  0.00D+00 EMaxC= 1.00D-01 BMatC= 3.70D-03 BMatP= 2.05D-02
 IDIUse=3 WtCom= 9.91D-01 WtEn= 8.51D-03
 Coeff-Com:  0.315D-01-0.418D-01-0.123D-01-0.859D-01 0.506D-01 0.366D+00
 Coeff-Com:  0.692D+00
 Coeff-En:   0.000D+00 0.000D+00 0.000D+00 0.000D+00 0.000D+00 0.000D+00
 Coeff-En:   0.100D+01
 Coeff:      0.313D-01-0.414D-01-0.122D-01-0.852D-01 0.502D-01 0.363D+00
 Coeff:      0.695D+00
 Gap=     0.357 Goal=   None    Shift=    0.000
 Gap=     0.112 Goal=   None    Shift=    0.000
 RMSDP=1.63D-04 MaxDP=6.78D-03 DE=-5.98D-03 OVMax= 3.99D-02

 Cycle   8  Pass 1  IDiag  1:
 RMSU=  7.20D-05    CP:  9.99D-01  2.68D+00  4.25D-01  9.07D-01  8.34D-01
                    CP:  1.57D+00  1.46D+00
 E= -1709.48276645730     Delta-E=       -0.002215986323 Rises=F Damp=F
 DIIS: error= 6.97D-04 at cycle   8 NSaved=   8.
 NSaved= 8 IEnMin= 8 EnMin= -1709.48276645730     IErMin= 8 ErrMin= 6.97D-04
 ErrMax= 6.97D-04  0.00D+00 EMaxC= 1.00D-01 BMatC= 1.67D-03 BMatP= 3.70D-03
 IDIUse=3 WtCom= 9.93D-01 WtEn= 6.97D-03
 Coeff-Com:  0.106D-01-0.125D-01 0.361D-02-0.347D-01-0.364D-01-0.673D-01
 Coeff-Com:  0.246D+00 0.891D+00
 Coeff-En:   0.000D+00 0.000D+00 0.000D+00 0.000D+00 0.000D+00 0.000D+00
 Coeff-En:   0.000D+00 0.100D+01
 Coeff:      0.106D-01-0.124D-01 0.358D-02-0.345D-01-0.362D-01-0.668D-01
 Coeff:      0.244D+00 0.892D+00
 Gap=     0.357 Goal=   None    Shift=    0.000
 Gap=     0.116 Goal=   None    Shift=    0.000
 RMSDP=1.68D-04 MaxDP=8.38D-03 DE=-2.22D-03 OVMax= 4.79D-02

 Cycle   9  Pass 1  IDiag  1:
 RMSU=  4.81D-05    CP:  9.99D-01  2.70D+00  3.98D-01  9.22D-01  7.78D-01
                    CP:  1.84D+00  2.02D+00  1.54D+00
 E= -1709.48448832046     Delta-E=       -0.001721863156 Rises=F Damp=F
 DIIS: error= 5.72D-04 at cycle   9 NSaved=   9.
 NSaved= 9 IEnMin= 9 EnMin= -1709.48448832046     IErMin= 9 ErrMin= 5.72D-04
 ErrMax= 5.72D-04  0.00D+00 EMaxC= 1.00D-01 BMatC= 9.43D-04 BMatP= 1.67D-03
 IDIUse=3 WtCom= 9.94D-01 WtEn= 5.72D-03
 Coeff-Com:  0.713D-02-0.923D-02 0.874D-02-0.908D-02-0.140D-01-0.138D+00
 Coeff-Com: -0.512D-01 0.431D+00 0.774D+00
 Coeff-En:   0.000D+00 0.000D+00 0.000D+00 0.000D+00 0.000D+00 0.000D+00
 Coeff-En:   0.000D+00 0.000D+00 0.100D+01
 Coeff:      0.709D-02-0.917D-02 0.869D-02-0.903D-02-0.139D-01-0.137D+00
 Coeff:     -0.509D-01 0.429D+00 0.776D+00
 Gap=     0.356 Goal=   None    Shift=    0.000
 Gap=     0.118 Goal=   None    Shift=    0.000
 RMSDP=1.34D-04 MaxDP=8.15D-03 DE=-1.72D-03 OVMax= 3.29D-02

 Cycle  10  Pass 1  IDiag  1:
 RMSU=  3.08D-05    CP:  9.99D-01  2.71D+00  3.77D-01  9.24D-01  7.21D-01
                    CP:  2.02D+00  2.42D+00  2.26D+00  1.65D+00
 E= -1709.48555118552     Delta-E=       -0.001062865062 Rises=F Damp=F
 DIIS: error= 5.07D-04 at cycle  10 NSaved=  10.
 NSaved=10 IEnMin=10 EnMin= -1709.48555118552     IErMin=10 ErrMin= 5.07D-04
 ErrMax= 5.07D-04  0.00D+00 EMaxC= 1.00D-01 BMatC= 6.27D-04 BMatP= 9.43D-04
 IDIUse=3 WtCom= 9.95D-01 WtEn= 5.07D-03
 Coeff-Com:  0.639D-02-0.901D-02 0.559D-02-0.110D-01 0.447D-01 0.217D-01
 Coeff-Com: -0.935D-02-0.425D+00 0.404D+00 0.972D+00
 Coeff-En:   0.000D+00 0.000D+00 0.000D+00 0.000D+00 0.000D+00 0.000D+00
 Coeff-En:   0.000D+00 0.000D+00 0.000D+00 0.100D+01
 Coeff:      0.636D-02-0.897D-02 0.557D-02-0.109D-01 0.445D-01 0.216D-01
 Coeff:     -0.930D-02-0.423D+00 0.402D+00 0.972D+00
 Gap=     0.356 Goal=   None    Shift=    0.000
 Gap=     0.120 Goal=   None    Shift=    0.000
 RMSDP=1.23D-04 MaxDP=8.83D-03 DE=-1.06D-03 OVMax= 3.39D-02

 Cycle  11  Pass 1  IDiag  1:
 RMSU=  2.19D-05    CP:  9.99D-01  2.73D+00  3.60D-01  9.24D-01  6.54D-01
                    CP:  2.11D+00  2.71D+00  2.87D+00  2.74D+00  1.87D+00
 E= -1709.48634672641     Delta-E=       -0.000795540895 Rises=F Damp=F
 DIIS: error= 4.47D-04 at cycle  11 NSaved=  11.
 NSaved=11 IEnMin=11 EnMin= -1709.48634672641     IErMin=11 ErrMin= 4.47D-04
 ErrMax= 4.47D-04  0.00D+00 EMaxC= 1.00D-01 BMatC= 4.93D-04 BMatP= 6.27D-04
 IDIUse=3 WtCom= 9.96D-01 WtEn= 4.47D-03
 Coeff-Com:  0.872D-02-0.119D-01-0.219D-02-0.270D-01 0.717D-01 0.163D+00
 Coeff-Com:  0.203D+00-0.703D+00-0.348D+00 0.184D+00 0.146D+01
 Coeff-En:   0.000D+00 0.000D+00 0.000D+00 0.000D+00 0.000D+00 0.000D+00
 Coeff-En:   0.000D+00 0.000D+00 0.000D+00 0.000D+00 0.100D+01
 Coeff:      0.868D-02-0.118D-01-0.218D-02-0.269D-01 0.714D-01 0.163D+00
 Coeff:      0.202D+00-0.700D+00-0.347D+00 0.183D+00 0.146D+01
 Gap=     0.355 Goal=   None    Shift=    0.000
 Gap=     0.123 Goal=   None    Shift=    0.000
 RMSDP=1.63D-04 MaxDP=1.24D-02 DE=-7.96D-04 OVMax= 5.88D-02

 Cycle  12  Pass 1  IDiag  1:
 RMSU=  8.29D-05    CP:  9.99D-01  2.74D+00  3.41D-01  9.14D-01  5.56D-01
                    CP:  2.17D+00  2.99D+00  3.00D+00  3.00D+00  3.00D+00
                    CP:  2.70D+00
 E= -1709.48716675427     Delta-E=       -0.000820027860 Rises=F Damp=F
 DIIS: error= 3.13D-04 at cycle  12 NSaved=  12.
 NSaved=12 IEnMin=12 EnMin= -1709.48716675427     IErMin=12 ErrMin= 3.13D-04
 ErrMax= 3.13D-04  0.00D+00 EMaxC= 1.00D-01 BMatC= 3.36D-04 BMatP= 4.93D-04
 IDIUse=3 WtCom= 9.97D-01 WtEn= 3.13D-03
 Coeff-Com:  0.745D-02-0.988D-02-0.208D-02-0.202D-01 0.236D-01 0.348D-01
 Coeff-Com:  0.164D+00-0.980D-01-0.195D+00-0.732D+00 0.708D+00 0.112D+01
 Coeff-En:   0.000D+00 0.000D+00 0.000D+00 0.000D+00 0.000D+00 0.000D+00
 Coeff-En:   0.000D+00 0.000D+00 0.000D+00 0.000D+00 0.000D+00 0.100D+01
 Coeff:      0.743D-02-0.985D-02-0.207D-02-0.201D-01 0.236D-01 0.347D-01
 Coeff:      0.163D+00-0.977D-01-0.194D+00-0.730D+00 0.706D+00 0.112D+01
 Gap=     0.355 Goal=   None    Shift=    0.000
 Gap=     0.124 Goal=   None    Shift=    0.000
 RMSDP=1.29D-04 MaxDP=9.51D-03 DE=-8.20D-04 OVMax= 4.88D-02

 Cycle  13  Pass 1  IDiag  1:
 RMSU=  6.22D-05    CP:  9.99D-01  2.74D+00  3.32D-01  9.05D-01  4.79D-01
                    CP:  2.18D+00  3.00D+00  3.00D+00  3.00D+00  3.00D+00
                    CP:  3.00D+00  1.98D+00
 E= -1709.48765134583     Delta-E=       -0.000484591556 Rises=F Damp=F
 DIIS: error= 2.34D-04 at cycle  13 NSaved=  13.
 NSaved=13 IEnMin=13 EnMin= -1709.48765134583     IErMin=13 ErrMin= 2.34D-04
 ErrMax= 2.34D-04  0.00D+00 EMaxC= 1.00D-01 BMatC= 1.30D-04 BMatP= 3.36D-04
 IDIUse=3 WtCom= 9.98D-01 WtEn= 2.34D-03
 Coeff-Com:  0.381D-02-0.512D-02 0.178D-03-0.719D-02 0.182D-03-0.358D-01
 Coeff-Com:  0.615D-01 0.159D+00 0.777D-01-0.553D+00-0.525D-01 0.310D+00
 Coeff-Com:  0.104D+01
 Coeff-En:   0.000D+00 0.000D+00 0.000D+00 0.000D+00 0.000D+00 0.000D+00
 Coeff-En:   0.000D+00 0.000D+00 0.000D+00 0.000D+00 0.000D+00 0.000D+00
 Coeff-En:   0.100D+01
 Coeff:      0.380D-02-0.511D-02 0.177D-03-0.717D-02 0.182D-03-0.357D-01
 Coeff:      0.614D-01 0.159D+00 0.775D-01-0.551D+00-0.523D-01 0.310D+00
 Coeff:      0.104D+01
 Gap=     0.354 Goal=   None    Shift=    0.000
 Gap=     0.124 Goal=   None    Shift=    0.000
 RMSDP=8.45D-05 MaxDP=7.74D-03 DE=-4.85D-04 OVMax= 3.25D-02

 Cycle  14  Pass 1  IDiag  1:
 RMSU=  2.43D-05    CP:  9.99D-01  2.75D+00  3.28D-01  9.01D-01  4.28D-01
                    CP:  2.16D+00  3.00D+00  3.00D+00  3.00D+00  3.00D+00
                    CP:  3.00D+00  2.57D+00  1.70D+00
 E= -1709.48787849896     Delta-E=       -0.000227153136 Rises=F Damp=F
 DIIS: error= 1.77D-04 at cycle  14 NSaved=  14.
 NSaved=14 IEnMin=14 EnMin= -1709.48787849896     IErMin=14 ErrMin= 1.77D-04
 ErrMax= 1.77D-04  0.00D+00 EMaxC= 1.00D-01 BMatC= 8.58D-05 BMatP= 1.30D-04
 IDIUse=3 WtCom= 9.98D-01 WtEn= 1.77D-03
 Coeff-Com: -0.474D-04-0.378D-04 0.391D-03-0.389D-02 0.230D-01 0.365D-01
 Coeff-Com:  0.107D-01-0.199D+00 0.145D-01 0.401D+00 0.400D-01-0.982D+00
 Coeff-Com:  0.223D+00 0.143D+01
 Coeff-En:   0.000D+00 0.000D+00 0.000D+00 0.000D+00 0.000D+00 0.000D+00
 Coeff-En:   0.000D+00 0.000D+00 0.000D+00 0.000D+00 0.000D+00 0.000D+00
 Coeff-En:   0.000D+00 0.100D+01
 Coeff:     -0.473D-04-0.377D-04 0.390D-03-0.389D-02 0.230D-01 0.364D-01
 Coeff:      0.107D-01-0.199D+00 0.145D-01 0.401D+00 0.400D-01-0.980D+00
 Coeff:      0.223D+00 0.143D+01
 Gap=     0.354 Goal=   None    Shift=    0.000
 Gap=     0.124 Goal=   None    Shift=    0.000
 RMSDP=8.71D-05 MaxDP=7.86D-03 DE=-2.27D-04 OVMax= 3.26D-02

 Cycle  15  Pass 1  IDiag  1:
 RMSU=  1.54D-05    CP:  9.98D-01  2.75D+00  3.24D-01  8.96D-01  3.79D-01
                    CP:  2.12D+00  3.00D+00  3.00D+00  3.00D+00  3.00D+00
                    CP:  3.00D+00  3.00D+00  2.40D+00  2.60D+00
 E= -1709.48805933502     Delta-E=       -0.000180836058 Rises=F Damp=F
 DIIS: error= 1.48D-04 at cycle  15 NSaved=  15.
 NSaved=15 IEnMin=15 EnMin= -1709.48805933502     IErMin=15 ErrMin= 1.48D-04
 ErrMax= 1.48D-04  0.00D+00 EMaxC= 1.00D-01 BMatC= 6.51D-05 BMatP= 8.58D-05
 IDIUse=3 WtCom= 9.99D-01 WtEn= 1.48D-03
 Coeff-Com:  0.449D-03-0.646D-03 0.580D-03-0.481D-02 0.222D-01 0.353D-01
 Coeff-Com: -0.149D-02-0.184D+00-0.748D-01 0.392D+00 0.170D+00-0.672D+00
 Coeff-Com: -0.258D+00 0.430D+00 0.114D+01
 Coeff-En:   0.000D+00 0.000D+00 0.000D+00 0.000D+00 0.000D+00 0.000D+00
 Coeff-En:   0.000D+00 0.000D+00 0.000D+00 0.000D+00 0.000D+00 0.000D+00
 Coeff-En:   0.000D+00 0.000D+00 0.100D+01
 Coeff:      0.449D-03-0.645D-03 0.579D-03-0.481D-02 0.221D-01 0.352D-01
 Coeff:     -0.149D-02-0.184D+00-0.747D-01 0.392D+00 0.169D+00-0.671D+00
 Coeff:     -0.257D+00 0.429D+00 0.114D+01
 Gap=     0.353 Goal=   None    Shift=    0.000
 Gap=     0.125 Goal=   None    Shift=    0.000
 RMSDP=7.23D-05 MaxDP=5.70D-03 DE=-1.81D-04 OVMax= 2.59D-02

 Cycle  16  Pass 1  IDiag  1:
 RMSU=  3.43D-05    CP:  9.98D-01  2.75D+00  3.24D-01  8.92D-01  3.43D-01
                    CP:  2.09D+00  3.00D+00  3.00D+00  3.00D+00  3.00D+00
                    CP:  3.00D+00  3.00D+00  2.98D+00  3.00D+00  2.99D+00
 E= -1709.48818245282     Delta-E=       -0.000123117795 Rises=F Damp=F
 DIIS: error= 1.34D-04 at cycle  16 NSaved=  16.
 NSaved=16 IEnMin=16 EnMin= -1709.48818245282     IErMin=16 ErrMin= 1.34D-04
 ErrMax= 1.34D-04  0.00D+00 EMaxC= 1.00D-01 BMatC= 2.24D-05 BMatP= 6.51D-05
 IDIUse=3 WtCom= 9.99D-01 WtEn= 1.34D-03
 Coeff-Com:  0.135D-02-0.182D-02 0.209D-04-0.384D-02 0.110D-01 0.113D-01
 Coeff-Com:  0.134D-02-0.322D-01-0.882D-01 0.535D-01 0.138D+00-0.355D-01
 Coeff-Com: -0.135D+00-0.220D+00 0.390D+00 0.910D+00
 Coeff-En:   0.000D+00 0.000D+00 0.000D+00 0.000D+00 0.000D+00 0.000D+00
 Coeff-En:   0.000D+00 0.000D+00 0.000D+00 0.000D+00 0.000D+00 0.000D+00
 Coeff-En:   0.000D+00 0.000D+00 0.000D+00 0.100D+01
 Coeff:      0.135D-02-0.182D-02 0.209D-04-0.383D-02 0.110D-01 0.113D-01
 Coeff:      0.134D-02-0.322D-01-0.881D-01 0.534D-01 0.138D+00-0.354D-01
 Coeff:     -0.135D+00-0.220D+00 0.390D+00 0.910D+00
 Gap=     0.353 Goal=   None    Shift=    0.000
 Gap=     0.125 Goal=   None    Shift=    0.000
 RMSDP=3.41D-05 MaxDP=2.59D-03 DE=-1.23D-04 OVMax= 9.76D-03

 Cycle  17  Pass 1  IDiag  1:
 RMSU=  2.46D-05    CP:  9.98D-01  2.75D+00  3.24D-01  8.90D-01  3.31D-01
                    CP:  2.07D+00  3.00D+00  3.00D+00  3.00D+00  3.00D+00
                    CP:  3.00D+00  3.00D+00  3.00D+00  3.00D+00  3.00D+00
                    CP:  1.55D+00
 E= -1709.48823634605     Delta-E=       -0.000053893231 Rises=F Damp=F
 DIIS: error= 1.37D-04 at cycle  17 NSaved=  17.
 NSaved=17 IEnMin=17 EnMin= -1709.48823634605     IErMin=16 ErrMin= 1.34D-04
 ErrMax= 1.37D-04  0.00D+00 EMaxC= 1.00D-01 BMatC= 1.07D-05 BMatP= 2.24D-05
 IDIUse=3 WtCom= 9.99D-01 WtEn= 1.34D-03
 Coeff-Com:  0.218D-03-0.299D-03-0.487D-04 0.338D-03 0.316D-02-0.155D-02
 Coeff-Com: -0.558D-02 0.434D-01-0.202D-01-0.386D-01 0.342D-02 0.851D-01
 Coeff-Com:  0.789D-01-0.810D-02-0.488D+00-0.115D+00 0.146D+01
 Coeff-En:   0.000D+00 0.000D+00 0.000D+00 0.000D+00 0.000D+00 0.000D+00
 Coeff-En:   0.000D+00 0.000D+00 0.000D+00 0.000D+00 0.000D+00 0.000D+00
 Coeff-En:   0.000D+00 0.000D+00 0.000D+00 0.000D+00 0.100D+01
 Coeff:      0.217D-03-0.299D-03-0.487D-04 0.337D-03 0.316D-02-0.155D-02
 Coeff:     -0.557D-02 0.433D-01-0.201D-01-0.385D-01 0.341D-02 0.850D-01
 Coeff:      0.788D-01-0.809D-02-0.487D+00-0.115D+00 0.146D+01
 Gap=     0.353 Goal=   None    Shift=    0.000
 Gap=     0.125 Goal=   None    Shift=    0.000
 RMSDP=3.68D-05 MaxDP=2.77D-03 DE=-5.39D-05 OVMax= 1.34D-02

 Cycle  18  Pass 1  IDiag  1:
 RMSU=  1.53D-05    CP:  9.98D-01  2.75D+00  3.25D-01  8.90D-01  3.29D-01
                    CP:  2.05D+00  3.00D+00  3.00D+00  3.00D+00  3.00D+00
                    CP:  3.00D+00  3.00D+00  3.00D+00  3.00D+00  3.00D+00
                    CP:  2.08D+00  2.11D+00
 E= -1709.48829112253     Delta-E=       -0.000054776483 Rises=F Damp=F
 DIIS: error= 1.32D-04 at cycle  18 NSaved=  18.
 NSaved=18 IEnMin=18 EnMin= -1709.48829112253     IErMin=18 ErrMin= 1.32D-04
 ErrMax= 1.32D-04  0.00D+00 EMaxC= 1.00D-01 BMatC= 1.50D-05 BMatP= 1.07D-05
 IDIUse=3 WtCom= 9.99D-01 WtEn= 1.34D-03
 Coeff-Com:  0.198D-03-0.273D-03-0.490D-04 0.342D-03 0.320D-02-0.143D-02
 Coeff-Com: -0.556D-02 0.425D-01-0.196D-01-0.371D-01 0.254D-02 0.802D-01
 Coeff-Com:  0.807D-01-0.175D-02-0.483D+00-0.141D+00 0.145D+01 0.274D-01
 Coeff-En:   0.000D+00 0.000D+00 0.000D+00 0.000D+00 0.000D+00 0.000D+00
 Coeff-En:   0.000D+00 0.000D+00 0.000D+00 0.000D+00 0.000D+00 0.000D+00
 Coeff-En:   0.000D+00 0.000D+00 0.000D+00 0.000D+00 0.000D+00 0.100D+01
 Coeff:      0.197D-03-0.272D-03-0.490D-04 0.342D-03 0.320D-02-0.142D-02
 Coeff:     -0.555D-02 0.425D-01-0.196D-01-0.371D-01 0.253D-02 0.801D-01
 Coeff:      0.806D-01-0.175D-02-0.483D+00-0.141D+00 0.145D+01 0.287D-01
 Gap=     0.353 Goal=   None    Shift=    0.000
 Gap=     0.125 Goal=   None    Shift=    0.000
 RMSDP=1.19D-06 MaxDP=9.37D-05 DE=-5.48D-05 OVMax= 3.95D-04

 Cycle  19  Pass 1  IDiag  1:
 RMSU=  1.82D-07    CP:  9.98D-01  2.75D+00  3.25D-01  8.90D-01  3.29D-01
                    CP:  2.05D+00  3.00D+00  3.00D+00  3.00D+00  3.00D+00
                    CP:  3.00D+00  3.00D+00  3.00D+00  3.00D+00  3.00D+00
                    CP:  2.09D+00  2.14D+00  1.02D+00
 E= -1709.48829303931     Delta-E=       -0.000001916776 Rises=F Damp=F
 DIIS: error= 1.32D-04 at cycle  19 NSaved=  19.
 NSaved=19 IEnMin=19 EnMin= -1709.48829303931     IErMin=18 ErrMin= 1.32D-04
 ErrMax= 1.32D-04  0.00D+00 EMaxC= 1.00D-01 BMatC= 1.48D-05 BMatP= 1.07D-05
 IDIUse=3 WtCom= 9.99D-01 WtEn= 1.34D-03
 Large coefficients: NSaved= 19 BigCof=   16.05 CofMax=   10.00 Det=-1.96D-10
 Inversion failed.  Reducing to 18 matrices.
 Large coefficients: NSaved= 18 BigCof=   16.09 CofMax=   10.00 Det=-2.05D-10
 Inversion failed.  Reducing to 17 matrices.
 Large coefficients: NSaved= 17 BigCof=   15.93 CofMax=   10.00 Det=-2.09D-10
 Inversion failed.  Reducing to 16 matrices.
 Large coefficients: NSaved= 16 BigCof=   15.89 CofMax=   10.00 Det=-2.09D-10
 Inversion failed.  Reducing to 15 matrices.
 Large coefficients: NSaved= 15 BigCof=   14.51 CofMax=   10.00 Det=-2.14D-10
 Inversion failed.  Reducing to 14 matrices.
 Large coefficients: NSaved= 14 BigCof=   11.23 CofMax=   10.00 Det=-2.20D-10
 Inversion failed.  Reducing to 13 matrices.
 Large coefficients: NSaved= 13 BigCof=   14.44 CofMax=   10.00 Det=-2.22D-10
 Inversion failed.  Reducing to 12 matrices.
 Large coefficients: NSaved= 12 BigCof=   14.88 CofMax=   10.00 Det=-2.33D-10
 Inversion failed.  Reducing to 11 matrices.
 Large coefficients: NSaved= 11 BigCof=   28.93 CofMax=   10.00 Det=-2.47D-10
 Inversion failed.  Reducing to 10 matrices.
 Large coefficients: NSaved= 10 BigCof=   28.95 CofMax=   10.00 Det=-2.47D-10
 Inversion failed.  Reducing to  9 matrices.
 Large coefficients: NSaved=  9 BigCof=   30.76 CofMax=   10.00 Det=-2.49D-10
 Inversion failed.  Reducing to  8 matrices.
 Large coefficients: NSaved=  8 BigCof=   27.87 CofMax=   10.00 Det=-2.64D-10
 Inversion failed.  Reducing to  7 matrices.
 Large coefficients: NSaved=  7 BigCof=   30.89 CofMax=   10.00 Det=-3.14D-10
 Inversion failed.  Reducing to  6 matrices.
 Large coefficients: NSaved=  6 BigCof=   32.30 CofMax=   10.00 Det=-3.15D-10
 Inversion failed.  Reducing to  5 matrices.
 Large coefficients: NSaved=  5 BigCof=   32.63 CofMax=   10.00 Det=-3.15D-10
 Inversion failed.  Reducing to  4 matrices.
 Large coefficients: NSaved=  4 BigCof=   32.03 CofMax=   10.00 Det=-4.78D-10
 Inversion failed.  Reducing to  3 matrices.
 Large coefficients: NSaved=  3 BigCof=   45.03 CofMax=   10.00 Det=-8.79D-10
 Inversion failed.  Reducing to  2 matrices.
 Large coefficients: NSaved=  2 BigCof=   62.50 CofMax=   10.00 Det=-1.53D-09
 Coeff-Com: -0.615D+02 0.625D+02
 Coeff-En:   0.000D+00 0.100D+01
 Coeff:     -0.614D+02 0.624D+02
 Gap=     0.353 Goal=   None    Shift=    0.000
 Gap=     0.125 Goal=   None    Shift=    0.000
 RMSDP=9.00D-05 MaxDP=6.93D-03 DE=-1.92D-06 OVMax= 2.91D-02

 Cycle  20  Pass 1  IDiag  1:
 RMSU=  5.35D-05    CP:  9.98D-01  2.75D+00  3.27D-01  8.83D-01  3.18D-01
                    CP:  1.99D+00  3.00D+00  3.00D+00  3.00D+00  3.00D+00
                    CP:  3.00D+00  3.00D+00  3.00D+00  3.00D+00  3.00D+00
                    CP:  3.00D+00  3.00D+00  2.72D+00  3.00D+00
 E= -1709.48843588229     Delta-E=       -0.000142842984 Rises=F Damp=F
 DIIS: error= 1.30D-04 at cycle  20 NSaved=   3.
 NSaved= 3 IEnMin= 3 EnMin= -1709.48843588229     IErMin= 3 ErrMin= 1.30D-04
 ErrMax= 1.30D-04  0.00D+00 EMaxC= 1.00D-01 BMatC= 1.04D-05 BMatP= 1.48D-05
 IDIUse=3 WtCom= 9.99D-01 WtEn= 1.30D-03
 Large coefficients: NSaved=  3 BigCof=   24.87 CofMax=   10.00 Det=-6.35D-10
 Inversion failed.  Reducing to  2 matrices.
 Coeff-Com:  0.376D+00 0.624D+00
 Coeff-En:   0.000D+00 0.100D+01
 Coeff:      0.375D+00 0.625D+00
 Gap=     0.353 Goal=   None    Shift=    0.000
 Gap=     0.125 Goal=   None    Shift=    0.000
 RMSDP=1.63D-05 MaxDP=1.21D-03 DE=-1.43D-04 OVMax= 5.42D-03

 Cycle  21  Pass 1  IDiag  1:
 Restarting incremental Fock formation.
 E= -1709.48841265095     Delta-E=        0.000023231338 Rises=F Damp=F
 DIIS: error= 1.34D-04 at cycle  21 NSaved=   3.
 NSaved= 3 IEnMin= 2 EnMin= -1709.48843588229     IErMin= 2 ErrMin= 1.30D-04
 ErrMax= 1.34D-04  0.00D+00 EMaxC= 1.00D-01 BMatC= 8.24D-06 BMatP= 1.04D-05
 IDIUse=3 WtCom= 9.99D-01 WtEn= 1.30D-03
 Rare condition: small coef for last iteration:  0.000D+00
 Coeff-Com:  0.179D+00 0.367D+00 0.454D+00
 Coeff-En:   0.000D+00 0.000D+00 0.100D+01
 Coeff:      0.179D+00 0.367D+00 0.454D+00
 Gap=     0.353 Goal=   None    Shift=    0.000
 Gap=     0.125 Goal=   None    Shift=    0.000
 RMSDP=1.06D-05 MaxDP=7.95D-04 DE= 2.32D-05 OVMax= 3.32D-03

 Cycle  22  Pass 1  IDiag  1:
 RMSU=  1.06D-05    CP:  1.00D+00
 E= -1709.48842966477     Delta-E=       -0.000017013816 Rises=F Damp=F
 DIIS: error= 1.30D-04 at cycle  22 NSaved=   4.
 NSaved= 4 IEnMin= 2 EnMin= -1709.48843588229     IErMin= 4 ErrMin= 1.30D-04
 ErrMax= 1.30D-04  0.00D+00 EMaxC= 1.00D-01 BMatC= 7.23D-06 BMatP= 8.24D-06
 IDIUse=3 WtCom= 9.99D-01 WtEn= 1.30D-03
 Coeff-Com:  0.117D+00 0.274D+00 0.362D+00 0.247D+00
 Coeff-En:   0.000D+00 0.000D+00 0.000D+00 0.100D+01
 Coeff:      0.117D+00 0.274D+00 0.362D+00 0.248D+00
 Gap=     0.353 Goal=   None    Shift=    0.000
 Gap=     0.125 Goal=   None    Shift=    0.000
 RMSDP=5.76D-06 MaxDP=4.38D-04 DE=-1.70D-05 OVMax= 1.81D-03

 Cycle  23  Pass 1  IDiag  1:
 RMSU=  6.79D-07    CP:  1.00D+00  1.54D+00
 E= -1709.48843892597     Delta-E=       -0.000009261199 Rises=F Damp=F
 DIIS: error= 1.29D-04 at cycle  23 NSaved=   5.
 NSaved= 5 IEnMin= 5 EnMin= -1709.48843892597     IErMin= 5 ErrMin= 1.29D-04
 ErrMax= 1.29D-04  0.00D+00 EMaxC= 1.00D-01 BMatC= 7.27D-06 BMatP= 7.23D-06
 IDIUse=3 WtCom= 9.99D-01 WtEn= 1.29D-03
 Coeff-Com:  0.281D+00 0.691D+00 0.857D+00 0.607D+01-0.690D+01
 Coeff-En:   0.000D+00 0.000D+00 0.000D+00 0.000D+00 0.100D+01
 Coeff:      0.280D+00 0.690D+00 0.856D+00 0.606D+01-0.689D+01
 Gap=     0.353 Goal=   None    Shift=    0.000
 Gap=     0.125 Goal=   None    Shift=    0.000
 RMSDP=5.63D-05 MaxDP=4.35D-03 DE=-9.26D-06 OVMax= 1.70D-02

 Cycle  24  Pass 1  IDiag  1:
 RMSU=  9.11D-06    CP:  1.00D+00 -3.00D+00 -3.00D+00
 E= -1709.48834791297     Delta-E=        0.000091012994 Rises=F Damp=F
 DIIS: error= 1.32D-04 at cycle  24 NSaved=   6.
 NSaved= 6 IEnMin= 5 EnMin= -1709.48843892597     IErMin= 5 ErrMin= 1.29D-04
 ErrMax= 1.32D-04  0.00D+00 EMaxC= 1.00D-01 BMatC= 8.73D-06 BMatP= 7.23D-06
 IDIUse=3 WtCom= 9.99D-01 WtEn= 1.29D-03
 Rare condition: small coef for last iteration:  0.000D+00
 Coeff-Com:  0.538D+00 0.704D+00 0.871D+00-0.114D+01 0.941D+00-0.917D+00
 Coeff-En:   0.000D+00 0.000D+00 0.000D+00 0.000D+00 0.000D+00 0.100D+01
 Coeff:      0.538D+00 0.704D+00 0.871D+00-0.114D+01 0.941D+00-0.917D+00
 Gap=     0.353 Goal=   None    Shift=    0.000
 Gap=     0.125 Goal=   None    Shift=    0.000
 RMSDP=6.98D-05 MaxDP=5.39D-03 DE= 9.10D-05 OVMax= 2.11D-02

 Cycle  25  Pass 1  IDiag  1:
 RMSU=  3.15D-06    CP:  1.00D+00  2.79D+00  3.00D+00 -1.04D-01
 E= -1709.48846084330     Delta-E=       -0.000112930326 Rises=F Damp=F
 DIIS: error= 1.30D-04 at cycle  25 NSaved=   7.
 NSaved= 7 IEnMin= 7 EnMin= -1709.48846084330     IErMin= 5 ErrMin= 1.29D-04
 ErrMax= 1.30D-04  0.00D+00 EMaxC= 1.00D-01 BMatC= 9.16D-06 BMatP= 7.23D-06
 IDIUse=3 WtCom= 9.99D-01 WtEn= 1.29D-03
 Coeff-Com:  0.202D+00 0.453D+00 0.582D+00 0.391D+00-0.314D-01 0.317D+00
 Coeff-Com: -0.914D+00
 Coeff-En:   0.000D+00 0.000D+00 0.000D+00 0.000D+00 0.000D+00 0.000D+00
 Coeff-En:   0.100D+01
 Coeff:      0.202D+00 0.452D+00 0.581D+00 0.391D+00-0.314D-01 0.317D+00
 Coeff:     -0.912D+00
 Gap=     0.353 Goal=   None    Shift=    0.000
 Gap=     0.125 Goal=   None    Shift=    0.000
 RMSDP=5.58D-05 MaxDP=4.28D-03 DE=-1.13D-04 OVMax= 1.60D-02

 Cycle  26  Pass 1  IDiag  1:
 RMSU=  2.66D-06    CP:  1.00D+00 -2.40D+00 -3.00D+00  2.39D-01 -1.18D+00
 E= -1709.48837021812     Delta-E=        0.000090625184 Rises=F Damp=F
 DIIS: error= 1.30D-04 at cycle  26 NSaved=   8.
 NSaved= 8 IEnMin= 7 EnMin= -1709.48846084330     IErMin= 5 ErrMin= 1.29D-04
 ErrMax= 1.30D-04  0.00D+00 EMaxC= 1.00D-01 BMatC= 9.51D-06 BMatP= 7.23D-06
 IDIUse=3 WtCom= 9.99D-01 WtEn= 1.29D-03
 Rare condition: small coef for last iteration:  0.000D+00
 Coeff-Com:  0.601D+00 0.827D+00 0.945D+00-0.765D+01 0.818D+01-0.122D+01
 Coeff-Com: -0.425D+01 0.358D+01
 Coeff-En:   0.000D+00 0.000D+00 0.000D+00 0.000D+00 0.000D+00 0.000D+00
 Coeff-En:   0.000D+00 0.100D+01
 Coeff:      0.601D+00 0.827D+00 0.945D+00-0.765D+01 0.818D+01-0.122D+01
 Coeff:     -0.425D+01 0.358D+01
 Gap=     0.352 Goal=   None    Shift=    0.000
 Gap=     0.126 Goal=   None    Shift=    0.000
 RMSDP=1.06D-04 MaxDP=8.53D-03 DE= 9.06D-05 OVMax= 2.96D-02

 Cycle  27  Pass 1  IDiag  1:
 RMSU=  7.35D-05    CP:  1.00D+00 -3.00D+00 -3.00D+00  3.00D+00  7.99D-02
                    CP: -3.00D+00
 E= -1709.48820004544     Delta-E=        0.000170172677 Rises=F Damp=F
 DIIS: error= 1.25D-04 at cycle  27 NSaved=   9.
 NSaved= 9 IEnMin= 7 EnMin= -1709.48846084330     IErMin= 9 ErrMin= 1.25D-04
 ErrMax= 1.25D-04  0.00D+00 EMaxC= 1.00D-01 BMatC= 1.68D-05 BMatP= 7.23D-06
 IDIUse=3 WtCom= 9.99D-01 WtEn= 1.29D-03
 Rare condition: small coef for last iteration:  0.000D+00
 Coeff-Com:  0.148D+00 0.398D+00 0.481D+00-0.622D+01 0.710D+01-0.224D+00
 Coeff-Com: -0.412D+01 0.389D+01-0.441D+00
 Coeff-En:   0.000D+00 0.000D+00 0.000D+00 0.000D+00 0.000D+00 0.000D+00
 Coeff-En:   0.000D+00 0.000D+00 0.100D+01
 Coeff:      0.148D+00 0.398D+00 0.481D+00-0.622D+01 0.710D+01-0.224D+00
 Coeff:     -0.412D+01 0.389D+01-0.441D+00
 Gap=     0.352 Goal=   None    Shift=    0.000
 Gap=     0.126 Goal=   None    Shift=    0.000
 RMSDP=3.76D-05 MaxDP=3.12D-03 DE= 1.70D-04 OVMax= 1.02D-02

 Cycle  28  Pass 1  IDiag  1:
 RMSU=  4.43D-06    CP:  1.00D+00 -3.00D+00 -3.00D+00  3.00D+00 -7.81D-01
                    CP: -3.00D+00  4.93D-01
 E= -1709.48825991029     Delta-E=       -0.000059864855 Rises=F Damp=F
 DIIS: error= 1.25D-04 at cycle  28 NSaved=  10.
 NSaved=10 IEnMin= 7 EnMin= -1709.48846084330     IErMin= 9 ErrMin= 1.25D-04
 ErrMax= 1.25D-04  0.00D+00 EMaxC= 1.00D-01 BMatC= 1.69D-05 BMatP= 7.23D-06
 IDIUse=3 WtCom= 9.99D-01 WtEn= 1.29D-03
 Large coefficients: NSaved= 10 BigCof=   10.24 CofMax=   10.00 Det=-7.44D-10
 Inversion failed.  Reducing to  9 matrices.
 Coeff-Com:  0.345D+00 0.382D+00-0.865D+01 0.947D+01 0.941D-01-0.539D+01
 Coeff-Com:  0.551D+01-0.213D+01 0.137D+01
 Coeff-En:   0.000D+00 0.000D+00 0.000D+00 0.000D+00 0.000D+00 0.000D+00
 Coeff-En:   0.000D+00 0.000D+00 0.100D+01
 Coeff:      0.345D+00 0.382D+00-0.864D+01 0.946D+01 0.940D-01-0.538D+01
 Coeff:      0.550D+01-0.213D+01 0.137D+01
 Gap=     0.352 Goal=   None    Shift=    0.000
 Gap=     0.127 Goal=   None    Shift=    0.000
 RMSDP=2.42D-05 MaxDP=1.97D-03 DE=-5.99D-05 OVMax= 6.37D-03

 Cycle  29  Pass 1  IDiag  1:
 RMSU=  3.40D-06    CP:  1.00D+00 -3.00D+00 -3.00D+00  3.00D+00 -1.19D+00
                    CP: -1.42D+00  1.78D-01  1.16D+00
 E= -1709.48829656946     Delta-E=       -0.000036659160 Rises=F Damp=F
 DIIS: error= 1.26D-04 at cycle  29 NSaved=  10.
 NSaved=10 IEnMin= 6 EnMin= -1709.48846084330     IErMin= 8 ErrMin= 1.25D-04
 ErrMax= 1.26D-04  0.00D+00 EMaxC= 1.00D-01 BMatC= 2.49D-05 BMatP= 7.23D-06
 IDIUse=3 WtCom= 9.99D-01 WtEn= 1.29D-03
 Large coefficients: NSaved= 10 BigCof=   11.25 CofMax=   10.00 Det=-9.16D-10
 Inversion failed.  Reducing to  9 matrices.
 Large coefficients: NSaved=  9 BigCof=   11.35 CofMax=   10.00 Det=-9.97D-10
 Inversion failed.  Reducing to  8 matrices.
 Coeff-Com:  0.241D+00 0.314D+00-0.874D+01 0.917D+01-0.717D+01 0.686D+01
 Coeff-Com:  0.266D+01-0.233D+01
 Coeff-En:   0.000D+00 0.000D+00 0.000D+00 0.000D+00 0.000D+00 0.000D+00
 Coeff-En:   0.000D+00 0.100D+01
 Coeff:      0.241D+00 0.313D+00-0.873D+01 0.916D+01-0.716D+01 0.685D+01
 Coeff:      0.266D+01-0.233D+01
 Gap=     0.349 Goal=   None    Shift=    0.000
 Gap=     0.129 Goal=   None    Shift=    0.000
 RMSDP=3.11D-04 MaxDP=2.73D-02 DE=-3.67D-05 OVMax= 1.02D-01

 Cycle  30  Pass 1  IDiag  1:
 RMSU=  1.06D-04    CP:  1.00D+00 -3.00D+00 -3.00D+00  3.00D+00  3.00D+00
                    CP: -3.00D+00  3.00D+00 -3.00D+00 -1.30D+00
 E= -1709.48773343555     Delta-E=        0.000563133905 Rises=F Damp=F
 DIIS: error= 2.89D-04 at cycle  30 NSaved=   9.
 NSaved= 9 IEnMin= 5 EnMin= -1709.48846084330     IErMin= 7 ErrMin= 1.25D-04
 ErrMax= 2.89D-04  0.00D+00 EMaxC= 1.00D-01 BMatC= 2.83D-04 BMatP= 7.23D-06
 IDIUse=3 WtCom= 9.99D-01 WtEn= 1.29D-03
 Rare condition: small coef for last iteration:  0.000D+00
 Coeff-Com:  0.459D+00 0.478D+00-0.520D+01 0.513D+01-0.664D+01 0.575D+01
 Coeff-Com:  0.109D+01 0.227D+00-0.286D+00
 Coeff-En:   0.000D+00 0.000D+00 0.000D+00 0.000D+00 0.000D+00 0.000D+00
 Coeff-En:   0.000D+00 0.000D+00 0.100D+01
 Coeff:      0.459D+00 0.478D+00-0.520D+01 0.513D+01-0.664D+01 0.575D+01
 Coeff:      0.109D+01 0.227D+00-0.286D+00
 Gap=     0.349 Goal=   None    Shift=    0.000
 Gap=     0.131 Goal=   None    Shift=    0.000
 RMSDP=9.07D-05 MaxDP=8.56D-03 DE= 5.63D-04 OVMax= 2.91D-02

 Cycle  31  Pass 1  IDiag  1:
 RMSU=  1.41D-05    CP:  1.00D+00 -3.00D+00 -3.00D+00  3.00D+00  3.00D+00
                    CP: -3.00D+00  3.00D+00 -2.32D+00  1.04D+00  1.60D-01
 E= -1709.48789689354     Delta-E=       -0.000163457995 Rises=F Damp=F
 DIIS: error= 2.48D-04 at cycle  31 NSaved=  10.
 NSaved=10 IEnMin= 5 EnMin= -1709.48846084330     IErMin= 7 ErrMin= 1.25D-04
 ErrMax= 2.48D-04  0.00D+00 EMaxC= 1.00D-01 BMatC= 2.11D-04 BMatP= 7.23D-06
 IDIUse=3 WtCom= 9.99D-01 WtEn= 1.29D-03
 Coeff-Com:  0.402D+00 0.360D+00-0.280D+01 0.183D+01-0.226D+01 0.170D+01
 Coeff-Com:  0.409D+00 0.166D+01-0.147D+01 0.117D+01
 Coeff-En:   0.000D+00 0.000D+00 0.000D+00 0.000D+00 0.000D+00 0.000D+00
 Coeff-En:   0.000D+00 0.000D+00 0.000D+00 0.100D+01
 Coeff:      0.402D+00 0.359D+00-0.279D+01 0.183D+01-0.226D+01 0.170D+01
 Coeff:      0.408D+00 0.166D+01-0.147D+01 0.117D+01
 Gap=     0.352 Goal=   None    Shift=    0.000
 Gap=     0.127 Goal=   None    Shift=    0.000
 RMSDP=2.65D-04 MaxDP=2.25D-02 DE=-1.63D-04 OVMax= 6.84D-02

 Cycle  32  Pass 1  IDiag  1:
 RMSU=  1.09D-05    CP:  1.00D+00 -2.42D+00 -3.00D+00  5.03D-01 -1.86D+00
                    CP:  3.00D+00 -1.69D-03  1.33D+00  3.00D+00  4.79D-03
                    CP:  4.53D-01
 E= -1709.48834250579     Delta-E=       -0.000445612246 Rises=F Damp=F
 DIIS: error= 2.02D-04 at cycle  32 NSaved=  11.
 NSaved=11 IEnMin= 5 EnMin= -1709.48846084330     IErMin= 7 ErrMin= 1.25D-04
 ErrMax= 2.02D-04  0.00D+00 EMaxC= 1.00D-01 BMatC= 1.26D-04 BMatP= 7.23D-06
 IDIUse=3 WtCom= 9.99D-01 WtEn= 1.29D-03
 Coeff-Com:  0.372D+00 0.278D+00-0.298D+01 0.208D+01-0.191D+01 0.184D+01
 Coeff-Com:  0.269D+01-0.159D+01-0.109D+01 0.550D+00 0.761D+00
 Coeff-En:   0.000D+00 0.000D+00 0.000D+00 0.000D+00 0.000D+00 0.000D+00
 Coeff-En:   0.000D+00 0.000D+00 0.000D+00 0.000D+00 0.100D+01
 Coeff:      0.372D+00 0.278D+00-0.297D+01 0.208D+01-0.191D+01 0.184D+01
 Coeff:      0.268D+01-0.159D+01-0.109D+01 0.549D+00 0.761D+00
 Gap=     0.352 Goal=   None    Shift=    0.000
 Gap=     0.129 Goal=   None    Shift=    0.000
 RMSDP=3.66D-05 MaxDP=2.88D-03 DE=-4.46D-04 OVMax= 9.35D-03

 Cycle  33  Pass 1  IDiag  1:
 RMSU=  2.73D-06    CP:  1.00D+00  9.74D-01 -1.21D+00  2.09D-01 -4.92D-01
                    CP:  2.20D+00  3.67D-03  1.30D+00  3.00D+00  3.77D-03
                    CP:  4.01D-01  1.04D+00
 E= -1709.48840708490     Delta-E=       -0.000064579105 Rises=F Damp=F
 DIIS: error= 1.84D-04 at cycle  33 NSaved=  12.
 NSaved=12 IEnMin= 5 EnMin= -1709.48846084330     IErMin= 7 ErrMin= 1.25D-04
 ErrMax= 1.84D-04  0.00D+00 EMaxC= 1.00D-01 BMatC= 1.07D-04 BMatP= 7.23D-06
 IDIUse=3 WtCom= 9.99D-01 WtEn= 1.29D-03
 Coeff-Com:  0.237D+00 0.142D+00-0.468D+01 0.420D+01-0.415D+01 0.427D+01
 Coeff-Com:  0.438D+01-0.406D+01-0.538D+00-0.174D+00-0.497D-02 0.137D+01
 Coeff-En:   0.000D+00 0.000D+00 0.000D+00 0.000D+00 0.000D+00 0.000D+00
 Coeff-En:   0.000D+00 0.000D+00 0.000D+00 0.000D+00 0.000D+00 0.100D+01
 Coeff:      0.237D+00 0.142D+00-0.468D+01 0.420D+01-0.415D+01 0.427D+01
 Coeff:      0.437D+01-0.405D+01-0.538D+00-0.173D+00-0.496D-02 0.137D+01
 Gap=     0.352 Goal=   None    Shift=    0.000
 Gap=     0.128 Goal=   None    Shift=    0.000
 RMSDP=6.41D-05 MaxDP=5.07D-03 DE=-6.46D-05 OVMax= 1.77D-02

 Cycle  34  Pass 1  IDiag  1:
 RMSU=  2.46D-06    CP:  1.00D+00 -3.00D+00 -3.00D+00  2.76D+00 -2.64D+00
                    CP:  1.24D+00  1.79D-02  1.58D+00  3.00D+00  1.39D-03
                    CP:  2.33D-01  8.82D-01  2.73D+00
 E= -1709.48831032834     Delta-E=        0.000096756559 Rises=F Damp=F
 DIIS: error= 1.59D-04 at cycle  34 NSaved=  13.
 NSaved=13 IEnMin= 5 EnMin= -1709.48846084330     IErMin= 7 ErrMin= 1.25D-04
 ErrMax= 1.59D-04  0.00D+00 EMaxC= 1.00D-01 BMatC= 8.62D-05 BMatP= 7.23D-06
 IDIUse=3 WtCom= 9.99D-01 WtEn= 1.29D-03
 Rare condition: small coef for last iteration:  0.000D+00
 Coeff-Com: -0.790D-01-0.995D-01-0.780D+01 0.802D+01-0.635D+01 0.583D+01
 Coeff-Com:  0.190D+01-0.972D+00-0.606D+00-0.199D+00-0.996D+00 0.343D+00
 Coeff-Com:  0.200D+01
 Coeff-En:   0.000D+00 0.000D+00 0.000D+00 0.000D+00 0.000D+00 0.000D+00
 Coeff-En:   0.000D+00 0.000D+00 0.000D+00 0.000D+00 0.000D+00 0.000D+00
 Coeff-En:   0.100D+01
 Coeff:     -0.790D-01-0.995D-01-0.780D+01 0.802D+01-0.635D+01 0.583D+01
 Coeff:      0.190D+01-0.972D+00-0.606D+00-0.199D+00-0.996D+00 0.343D+00
 Coeff:      0.200D+01
 Gap=     0.350 Goal=   None    Shift=    0.000
 Gap=     0.130 Goal=   None    Shift=    0.000
 RMSDP=1.18D-04 MaxDP=9.94D-03 DE= 9.68D-05 OVMax= 3.70D-02

 Cycle  35  Pass 1  IDiag  1:
 RMSU=  5.23D-06    CP:  1.00D+00 -3.00D+00 -3.00D+00  3.00D+00 -3.37D-01
                    CP: -3.00D+00  1.56D+00  1.37D+00  3.00D+00  1.32D-02
                    CP:  7.50D-01  1.61D+00  3.00D+00  2.71D+00
 E= -1709.48809687993     Delta-E=        0.000213448402 Rises=F Damp=F
 DIIS: error= 2.36D-04 at cycle  35 NSaved=  14.
 NSaved=14 IEnMin= 5 EnMin= -1709.48846084330     IErMin= 7 ErrMin= 1.25D-04
 ErrMax= 2.36D-04  0.00D+00 EMaxC= 1.00D-01 BMatC= 1.90D-04 BMatP= 7.23D-06
 IDIUse=3 WtCom= 9.99D-01 WtEn= 1.29D-03
 Rare condition: small coef for last iteration:  0.000D+00
 Coeff-Com: -0.139D+00-0.128D+00-0.651D+01 0.710D+01-0.593D+01 0.531D+01
 Coeff-Com:  0.430D+00 0.634D+00-0.871D+00-0.119D+00-0.911D+00-0.214D+00
 Coeff-Com:  0.177D+01 0.587D+00
 Coeff-En:   0.000D+00 0.000D+00 0.000D+00 0.000D+00 0.000D+00 0.000D+00
 Coeff-En:   0.000D+00 0.000D+00 0.000D+00 0.000D+00 0.000D+00 0.000D+00
 Coeff-En:   0.000D+00 0.100D+01
 Coeff:     -0.139D+00-0.128D+00-0.651D+01 0.710D+01-0.593D+01 0.531D+01
 Coeff:      0.430D+00 0.634D+00-0.871D+00-0.119D+00-0.911D+00-0.214D+00
 Coeff:      0.177D+01 0.587D+00
 Gap=     0.350 Goal=   None    Shift=    0.000
 Gap=     0.131 Goal=   None    Shift=    0.000
 RMSDP=3.10D-05 MaxDP=3.20D-03 DE= 2.13D-04 OVMax= 7.87D-03

 Cycle  36  Pass 1  IDiag  1:
 RMSU=  3.42D-06    CP:  1.00D+00 -3.00D+00 -3.00D+00  3.00D+00 -1.22D+00
                    CP: -3.00D+00  1.15D+00  2.34D+00  3.00D+00  1.09D-02
                    CP:  8.13D-01  2.12D+00  3.00D+00  3.00D+00  1.42D+00
 E= -1709.48814056249     Delta-E=       -0.000043682558 Rises=F Damp=F
 DIIS: error= 2.51D-04 at cycle  36 NSaved=  15.
 NSaved=15 IEnMin= 5 EnMin= -1709.48846084330     IErMin= 7 ErrMin= 1.25D-04
 ErrMax= 2.51D-04  0.00D+00 EMaxC= 1.00D-01 BMatC= 2.08D-04 BMatP= 7.23D-06
 IDIUse=3 WtCom= 9.99D-01 WtEn= 1.29D-03
 Coeff-Com:  0.182D+00 0.214D+00 0.456D+00-0.814D+00-0.466D+01 0.454D+01
 Coeff-Com: -0.973D-01 0.150D+01-0.119D+01 0.130D+00-0.112D+01-0.541D+00
 Coeff-Com:  0.107D+01-0.658D+00 0.199D+01
 Coeff-En:   0.000D+00 0.000D+00 0.000D+00 0.000D+00 0.000D+00 0.000D+00
 Coeff-En:   0.000D+00 0.000D+00 0.000D+00 0.000D+00 0.000D+00 0.000D+00
 Coeff-En:   0.000D+00 0.000D+00 0.100D+01
 Coeff:      0.182D+00 0.213D+00 0.455D+00-0.813D+00-0.466D+01 0.453D+01
 Coeff:     -0.972D-01 0.150D+01-0.119D+01 0.130D+00-0.112D+01-0.540D+00
 Coeff:      0.107D+01-0.657D+00 0.199D+01
 Gap=     0.350 Goal=   None    Shift=    0.000
 Gap=     0.132 Goal=   None    Shift=    0.000
 RMSDP=2.33D-05 MaxDP=2.86D-03 DE=-4.37D-05 OVMax= 7.76D-03

 Cycle  37  Pass 1  IDiag  1:
 RMSU=  3.79D-06    CP:  1.00D+00 -3.00D+00 -3.00D+00  3.00D+00 -6.42D-01
                    CP: -3.00D+00  9.27D-01  2.82D+00  3.00D+00  1.24D-02
                    CP:  1.05D+00  3.00D+00  3.00D+00  3.00D+00  2.57D+00
                    CP:  3.00D+00
 E= -1709.48815334436     Delta-E=       -0.000012781873 Rises=F Damp=F
 DIIS: error= 2.80D-04 at cycle  37 NSaved=  16.
 NSaved=16 IEnMin= 5 EnMin= -1709.48846084330     IErMin= 7 ErrMin= 1.25D-04
 ErrMax= 2.80D-04  0.00D+00 EMaxC= 1.00D-01 BMatC= 2.59D-04 BMatP= 7.23D-06
 IDIUse=3 WtCom= 9.99D-01 WtEn= 1.29D-03
 Coeff-Com:  0.297D+00 0.343D+00 0.219D+01-0.311D+01-0.393D+01 0.401D+01
 Coeff-Com: -0.596D+00 0.240D+01-0.139D+01 0.436D+00-0.134D+01-0.749D+00
 Coeff-Com:  0.124D+01-0.109D+01 0.142D+01 0.863D+00
 Coeff-En:   0.000D+00 0.000D+00 0.000D+00 0.000D+00 0.000D+00 0.000D+00
 Coeff-En:   0.000D+00 0.000D+00 0.000D+00 0.000D+00 0.000D+00 0.000D+00
 Coeff-En:   0.000D+00 0.000D+00 0.000D+00 0.100D+01
 Coeff:      0.297D+00 0.343D+00 0.219D+01-0.311D+01-0.392D+01 0.400D+01
 Coeff:     -0.596D+00 0.240D+01-0.139D+01 0.435D+00-0.134D+01-0.748D+00
 Coeff:      0.123D+01-0.108D+01 0.142D+01 0.863D+00
 Gap=     0.351 Goal=   None    Shift=    0.000
 Gap=     0.132 Goal=   None    Shift=    0.000
 RMSDP=3.20D-05 MaxDP=3.32D-03 DE=-1.28D-05 OVMax= 9.31D-03

 Cycle  38  Pass 1  IDiag  1:
 RMSU=  7.23D-06    CP:  1.00D+00 -3.00D+00 -3.00D+00  3.00D+00 -1.07D-01
                    CP: -1.78D+00  5.29D-01  2.81D+00  3.00D+00  1.16D-02
                    CP:  1.13D+00  3.00D+00  3.00D+00  3.00D+00  3.00D+00
                    CP:  3.00D+00  3.00D+00
 E= -1709.48819675006     Delta-E=       -0.000043405696 Rises=F Damp=F
 DIIS: error= 2.90D-04 at cycle  38 NSaved=  17.
 NSaved=17 IEnMin= 5 EnMin= -1709.48846084330     IErMin= 7 ErrMin= 1.25D-04
 ErrMax= 2.90D-04  0.00D+00 EMaxC= 1.00D-01 BMatC= 2.72D-04 BMatP= 7.23D-06
 IDIUse=3 WtCom= 9.99D-01 WtEn= 1.29D-03
 Coeff-Com:  0.492D+00 0.548D+00 0.643D+01-0.788D+01-0.384D+01 0.426D+01
 Coeff-Com: -0.223D-02 0.177D+01-0.148D+01 0.410D+00-0.121D+01-0.628D+00
 Coeff-Com:  0.458D+00-0.228D+01 0.322D+01 0.196D+01-0.123D+01
 Coeff-En:   0.000D+00 0.000D+00 0.000D+00 0.000D+00 0.000D+00 0.000D+00
 Coeff-En:   0.000D+00 0.000D+00 0.000D+00 0.000D+00 0.000D+00 0.000D+00
 Coeff-En:   0.000D+00 0.000D+00 0.000D+00 0.000D+00 0.100D+01
 Coeff:      0.492D+00 0.547D+00 0.642D+01-0.787D+01-0.383D+01 0.425D+01
 Coeff:     -0.222D-02 0.177D+01-0.148D+01 0.409D+00-0.120D+01-0.628D+00
 Coeff:      0.458D+00-0.227D+01 0.322D+01 0.195D+01-0.123D+01
 Gap=     0.350 Goal=   None    Shift=    0.000
 Gap=     0.133 Goal=   None    Shift=    0.000
 RMSDP=3.06D-05 MaxDP=2.54D-03 DE=-4.34D-05 OVMax= 8.27D-03

 Cycle  39  Pass 1  IDiag  1:
 RMSU=  2.39D-06    CP:  1.00D+00 -3.00D+00 -3.00D+00  3.00D+00 -9.09D-02
                    CP: -3.00D+00  9.37D-01  3.00D+00  3.00D+00  1.48D-02
                    CP:  1.25D+00  3.00D+00  3.00D+00  3.00D+00  3.00D+00
                    CP:  3.00D+00  2.70D+00  6.94D-01
 E= -1709.48813266754     Delta-E=        0.000064082520 Rises=F Damp=F
 DIIS: error= 3.18D-04 at cycle  39 NSaved=  18.
 NSaved=18 IEnMin= 5 EnMin= -1709.48846084330     IErMin= 7 ErrMin= 1.25D-04
 ErrMax= 3.18D-04  0.00D+00 EMaxC= 1.00D-01 BMatC= 3.29D-04 BMatP= 7.23D-06
 IDIUse=3 WtCom= 9.99D-01 WtEn= 1.29D-03
 Rare condition: small coef for last iteration:  0.000D+00
 Coeff-Com:  0.529D+00 0.610D+00 0.778D+01-0.957D+01-0.423D+01 0.490D+01
 Coeff-Com: -0.506D-01 0.209D+01-0.166D+01 0.425D+00-0.131D+01-0.812D+00
 Coeff-Com:  0.738D+00-0.278D+01 0.336D+01 0.240D+01-0.307D+01 0.163D+01
 Coeff-En:   0.000D+00 0.000D+00 0.000D+00 0.000D+00 0.000D+00 0.000D+00
 Coeff-En:   0.000D+00 0.000D+00 0.000D+00 0.000D+00 0.000D+00 0.000D+00
 Coeff-En:   0.000D+00 0.000D+00 0.000D+00 0.000D+00 0.000D+00 0.100D+01
 Coeff:      0.529D+00 0.610D+00 0.778D+01-0.957D+01-0.423D+01 0.490D+01
 Coeff:     -0.506D-01 0.209D+01-0.166D+01 0.425D+00-0.131D+01-0.812D+00
 Coeff:      0.738D+00-0.278D+01 0.336D+01 0.240D+01-0.307D+01 0.163D+01
 Gap=     0.350 Goal=   None    Shift=    0.000
 Gap=     0.134 Goal=   None    Shift=    0.000
 RMSDP=2.82D-05 MaxDP=2.30D-03 DE= 6.41D-05 OVMax= 8.01D-03

 Cycle  40  Pass 1  IDiag  1:
 RMSU=  1.60D-06    CP:  1.00D+00 -3.00D+00 -3.00D+00  3.00D+00  1.73D-01
                    CP: -3.00D+00  1.32D+00  3.00D+00  3.00D+00  1.90D-02
                    CP:  1.39D+00  3.00D+00  3.00D+00  3.00D+00  2.74D+00
                    CP:  3.00D+00  2.53D+00  7.13D-01  1.80D+00
 E= -1709.48805955310     Delta-E=        0.000073114436 Rises=F Damp=F
 DIIS: error= 3.65D-04 at cycle  40 NSaved=  19.
 NSaved=19 IEnMin= 5 EnMin= -1709.48846084330     IErMin= 7 ErrMin= 1.25D-04
 ErrMax= 3.65D-04  0.00D+00 EMaxC= 1.00D-01 BMatC= 4.34D-04 BMatP= 7.23D-06
 IDIUse=3 WtCom= 9.99D-01 WtEn= 1.29D-03
 Large coefficients: NSaved= 19 BigCof=   12.54 CofMax=   10.00 Det=-2.98D-10
 Inversion failed.  Reducing to 18 matrices.
 Rare condition: small coef for last iteration:  0.000D+00
 Coeff-Com:  0.476D+00 0.430D+00 0.360D+01-0.464D+01-0.507D+01 0.564D+01
 Coeff-Com:  0.474D+01-0.497D+01-0.677D+00-0.307D+00 0.116D+01-0.927D+00
 Coeff-Com: -0.290D+01 0.436D+01 0.224D+01-0.923D+00 0.122D+01-0.246D+01
 Coeff-En:   0.000D+00 0.000D+00 0.000D+00 0.000D+00 0.000D+00 0.000D+00
 Coeff-En:   0.000D+00 0.000D+00 0.000D+00 0.000D+00 0.000D+00 0.000D+00
 Coeff-En:   0.000D+00 0.000D+00 0.000D+00 0.000D+00 0.000D+00 0.100D+01
 Coeff:      0.476D+00 0.430D+00 0.360D+01-0.464D+01-0.507D+01 0.564D+01
 Coeff:      0.474D+01-0.497D+01-0.677D+00-0.307D+00 0.116D+01-0.927D+00
 Coeff:     -0.290D+01 0.436D+01 0.224D+01-0.923D+00 0.122D+01-0.246D+01
 Gap=     0.350 Goal=   None    Shift=    0.000
 Gap=     0.130 Goal=   None    Shift=    0.000
 RMSDP=6.94D-05 MaxDP=7.47D-03 DE= 7.31D-05 OVMax= 1.65D-02

 Cycle  41  Pass 1  IDiag  1:
 Restarting incremental Fock formation.
 E= -1709.48802748614     Delta-E=        0.000032066961 Rises=F Damp=F
 DIIS: error= 2.11D-04 at cycle  41 NSaved=  19.
 NSaved=19 IEnMin= 5 EnMin= -1709.48846084330     IErMin= 7 ErrMin= 1.25D-04
 ErrMax= 2.11D-04  0.00D+00 EMaxC= 1.00D-01 BMatC= 1.73D-04 BMatP= 7.23D-06
 IDIUse=3 WtCom= 9.99D-01 WtEn= 1.29D-03
 Rare condition: small coef for last iteration:  0.000D+00
 Coeff-Com:  0.454D+00 0.414D+00 0.431D+01-0.539D+01-0.521D+01 0.595D+01
 Coeff-Com:  0.501D+01-0.531D+01-0.810D+00 0.156D+00 0.112D+01-0.113D+01
 Coeff-Com: -0.381D+01 0.485D+01 0.226D+01-0.174D+01 0.184D+01-0.241D+01
 Coeff-Com:  0.427D+00
 Coeff-En:   0.000D+00 0.000D+00 0.000D+00 0.000D+00 0.000D+00 0.000D+00
 Coeff-En:   0.000D+00 0.000D+00 0.000D+00 0.000D+00 0.000D+00 0.000D+00
 Coeff-En:   0.000D+00 0.000D+00 0.000D+00 0.000D+00 0.000D+00 0.000D+00
 Coeff-En:   0.100D+01
 Coeff:      0.454D+00 0.414D+00 0.431D+01-0.539D+01-0.521D+01 0.595D+01
 Coeff:      0.501D+01-0.531D+01-0.810D+00 0.156D+00 0.112D+01-0.113D+01
 Coeff:     -0.381D+01 0.485D+01 0.226D+01-0.174D+01 0.184D+01-0.241D+01
 Coeff:      0.427D+00
 Gap=     0.350 Goal=   None    Shift=    0.000
 Gap=     0.131 Goal=   None    Shift=    0.000
 RMSDP=1.35D-06 MaxDP=1.21D-04 DE= 3.21D-05 OVMax= 3.22D-04

 Cycle  42  Pass 1  IDiag  1:
 RMSU=  1.35D-06    CP:  1.00D+00
 E= -1709.48802631109     Delta-E=        0.000001175051 Rises=F Damp=F
 DIIS: error= 2.18D-04 at cycle  42 NSaved=  20.
 NSaved=20 IEnMin= 5 EnMin= -1709.48846084330     IErMin= 7 ErrMin= 1.25D-04
 ErrMax= 2.18D-04  0.00D+00 EMaxC= 1.00D-01 BMatC= 1.77D-04 BMatP= 7.23D-06
 IDIUse=3 WtCom= 9.99D-01 WtEn= 1.29D-03
 Rare condition: small coef for last iteration:  0.000D+00
 Coeff-Com:  0.462D+00 0.425D+00 0.458D+01-0.560D+01-0.502D+01 0.575D+01
 Coeff-Com:  0.482D+01-0.515D+01-0.717D+00-0.156D-01 0.111D+01-0.123D+01
 Coeff-Com: -0.364D+01 0.501D+01 0.238D+01-0.138D+01 0.161D+01-0.254D+01
 Coeff-Com:  0.109D+01-0.960D+00
 Coeff-En:   0.000D+00 0.000D+00 0.000D+00 0.000D+00 0.000D+00 0.000D+00
 Coeff-En:   0.000D+00 0.000D+00 0.000D+00 0.000D+00 0.000D+00 0.000D+00
 Coeff-En:   0.000D+00 0.000D+00 0.000D+00 0.000D+00 0.000D+00 0.000D+00
 Coeff-En:   0.000D+00 0.100D+01
 Coeff:      0.462D+00 0.425D+00 0.458D+01-0.560D+01-0.502D+01 0.575D+01
 Coeff:      0.482D+01-0.515D+01-0.717D+00-0.156D-01 0.111D+01-0.123D+01
 Coeff:     -0.364D+01 0.501D+01 0.238D+01-0.138D+01 0.161D+01-0.254D+01
 Coeff:      0.109D+01-0.960D+00
 Gap=     0.350 Goal=   None    Shift=    0.000
 Gap=     0.130 Goal=   None    Shift=    0.000
 RMSDP=1.26D-05 MaxDP=1.10D-03 DE= 1.18D-06 OVMax= 3.72D-03

 Cycle  43  Pass 1  IDiag  1:
 RMSU=  1.25D-05    CP:  1.00D+00  1.72D+00
 E= -1709.48804961274     Delta-E=       -0.000023301647 Rises=F Damp=F
 DIIS: error= 2.09D-04 at cycle  43 NSaved=  20.
 NSaved=20 IEnMin= 5 EnMin= -1709.48846084330     IErMin= 7 ErrMin= 1.25D-04
 ErrMax= 2.09D-04  0.00D+00 EMaxC= 1.00D-01 BMatC= 1.66D-04 BMatP= 7.23D-06
 IDIUse=3 WtCom= 9.99D-01 WtEn= 1.29D-03
 Large coefficients: NSaved= 20 BigCof=   19.22 CofMax=   10.00 Det=-2.92D-10
 Inversion failed.  Reducing to 19 matrices.
 Large coefficients: NSaved= 19 BigCof=   12.66 CofMax=   10.00 Det=-3.03D-10
 Inversion failed.  Reducing to 18 matrices.
 Large coefficients: NSaved= 18 BigCof=   14.79 CofMax=   10.00 Det=-4.60D-10
 Inversion failed.  Reducing to 17 matrices.
 Large coefficients: NSaved= 17 BigCof=   13.39 CofMax=   10.00 Det=-8.47D-10
 Inversion failed.  Reducing to 16 matrices.
 Large coefficients: NSaved= 16 BigCof=   14.44 CofMax=   10.00 Det=-9.43D-10
 Inversion failed.  Reducing to 15 matrices.
 Large coefficients: NSaved= 15 BigCof=   13.88 CofMax=   10.00 Det=-1.12D-09
 Inversion failed.  Reducing to 14 matrices.
 Large coefficients: NSaved= 14 BigCof=   13.86 CofMax=   10.00 Det=-1.17D-09
 Inversion failed.  Reducing to 13 matrices.
 Large coefficients: NSaved= 13 BigCof=   12.91 CofMax=   10.00 Det=-1.32D-09
 Inversion failed.  Reducing to 12 matrices.
 Large coefficients: NSaved= 12 BigCof=   13.58 CofMax=   10.00 Det=-1.33D-09
 Inversion failed.  Reducing to 11 matrices.
 Large coefficients: NSaved= 11 BigCof=   12.73 CofMax=   10.00 Det=-1.37D-09
 Inversion failed.  Reducing to 10 matrices.
 Large coefficients: NSaved= 10 BigCof=   13.92 CofMax=   10.00 Det=-1.43D-09
 Inversion failed.  Reducing to  9 matrices.
 Large coefficients: NSaved=  9 BigCof=   13.13 CofMax=   10.00 Det=-1.43D-09
 Inversion failed.  Reducing to  8 matrices.
 Large coefficients: NSaved=  8 BigCof=   12.56 CofMax=   10.00 Det=-1.86D-09
 Inversion failed.  Reducing to  7 matrices.
 Coeff-Com: -0.492D+00-0.262D+00-0.152D+01 0.236D+01 0.697D+00-0.878D+01
 Coeff-Com:  0.900D+01
 Coeff-En:   0.000D+00 0.000D+00 0.000D+00 0.000D+00 0.000D+00 0.000D+00
 Coeff-En:   0.100D+01
 Coeff:     -0.491D+00-0.261D+00-0.152D+01 0.236D+01 0.696D+00-0.877D+01
 Coeff:      0.899D+01
 Gap=     0.354 Goal=   None    Shift=    0.000
 Gap=     0.123 Goal=   None    Shift=    0.000
 RMSDP=3.21D-04 MaxDP=2.62D-02 DE=-2.33D-05 OVMax= 9.30D-02

 Cycle  44  Pass 1  IDiag  1:
 RMSU=  2.96D-04    CP:  1.00D+00 -1.80D+00  3.00D+00
 E= -1709.48859824243     Delta-E=       -0.000548629690 Rises=F Damp=F
 DIIS: error= 1.19D-04 at cycle  44 NSaved=   8.
 NSaved= 8 IEnMin= 8 EnMin= -1709.48859824243     IErMin= 8 ErrMin= 1.19D-04
 ErrMax= 1.19D-04  0.00D+00 EMaxC= 1.00D-01 BMatC= 3.92D-05 BMatP= 7.23D-06
 IDIUse=3 WtCom= 9.99D-01 WtEn= 1.29D-03
 Large coefficients: NSaved=  8 BigCof=   14.14 CofMax=   10.00 Det=-1.86D-09
 Inversion failed.  Reducing to  7 matrices.
 Coeff-Com:  0.220D+00 0.332D+00 0.195D+00 0.337D+00-0.214D+00-0.175D+00
 Coeff-Com:  0.304D+00
 Coeff-En:   0.000D+00 0.000D+00 0.000D+00 0.000D+00 0.000D+00 0.000D+00
 Coeff-En:   0.100D+01
 Coeff:      0.220D+00 0.331D+00 0.195D+00 0.337D+00-0.213D+00-0.175D+00
 Coeff:      0.305D+00
 Gap=     0.353 Goal=   None    Shift=    0.000
 Gap=     0.125 Goal=   None    Shift=    0.000
 RMSDP=2.64D-05 MaxDP=3.00D-03 DE=-5.49D-04 OVMax= 8.22D-03

 Cycle  45  Pass 1  IDiag  1:
 RMSU=  1.57D-05    CP:  1.00D+00 -3.00D+00  3.00D+00  9.32D-01
 E= -1709.48856300047     Delta-E=        0.000035241964 Rises=F Damp=F
 DIIS: error= 1.29D-04 at cycle  45 NSaved=   8.
 NSaved= 8 IEnMin= 7 EnMin= -1709.48859824243     IErMin= 7 ErrMin= 1.19D-04
 ErrMax= 1.29D-04  0.00D+00 EMaxC= 1.00D-01 BMatC= 1.60D-05 BMatP= 7.23D-06
 IDIUse=3 WtCom= 9.99D-01 WtEn= 1.29D-03
 Rare condition: small coef for last iteration:  0.000D+00
 Coeff-Com:  0.189D+00 0.314D+00 0.269D+00-0.353D-01-0.651D+00-0.408D+00
 Coeff-Com:  0.617D+00 0.706D+00
 Coeff-En:   0.000D+00 0.000D+00 0.000D+00 0.000D+00 0.000D+00 0.000D+00
 Coeff-En:   0.000D+00 0.100D+01
 Coeff:      0.189D+00 0.314D+00 0.269D+00-0.353D-01-0.651D+00-0.408D+00
 Coeff:      0.617D+00 0.706D+00
 Gap=     0.354 Goal=   None    Shift=    0.000
 Gap=     0.126 Goal=   None    Shift=    0.000
 RMSDP=1.29D-04 MaxDP=9.94D-03 DE= 3.52D-05 OVMax= 3.89D-02

 Cycle  46  Pass 1  IDiag  1:
 RMSU=  2.26D-05    CP:  1.00D+00 -3.00D+00  3.00D+00  1.36D+00  4.07D-01
 E= -1709.48877208883     Delta-E=       -0.000209088361 Rises=F Damp=F
 DIIS: error= 1.29D-04 at cycle  46 NSaved=   9.
 NSaved= 9 IEnMin= 9 EnMin= -1709.48877208883     IErMin= 7 ErrMin= 1.19D-04
 ErrMax= 1.29D-04  0.00D+00 EMaxC= 1.00D-01 BMatC= 4.21D-05 BMatP= 7.23D-06
 IDIUse=3 WtCom= 9.99D-01 WtEn= 1.29D-03
 Coeff-Com:  0.158D+00 0.294D+00 0.642D+00-0.305D+00-0.572D+00-0.411D+00
 Coeff-Com:  0.557D+00 0.487D+00 0.151D+00
 Coeff-En:   0.000D+00 0.000D+00 0.000D+00 0.000D+00 0.000D+00 0.000D+00
 Coeff-En:   0.000D+00 0.000D+00 0.100D+01
 Coeff:      0.157D+00 0.293D+00 0.641D+00-0.305D+00-0.572D+00-0.411D+00
 Coeff:      0.556D+00 0.487D+00 0.152D+00
 Gap=     0.354 Goal=   None    Shift=    0.000
 Gap=     0.127 Goal=   None    Shift=    0.000
 RMSDP=8.53D-06 MaxDP=7.59D-04 DE=-2.09D-04 OVMax= 2.53D-03

 Cycle  47  Pass 1  IDiag  1:
 RMSU=  7.44D-07    CP:  1.00D+00 -3.00D+00  3.00D+00  1.39D+00  4.39D-01
                    CP:  1.09D+00
 E= -1709.48878635365     Delta-E=       -0.000014264825 Rises=F Damp=F
 DIIS: error= 1.29D-04 at cycle  47 NSaved=  10.
 NSaved=10 IEnMin=10 EnMin= -1709.48878635365     IErMin= 7 ErrMin= 1.19D-04
 ErrMax= 1.29D-04  0.00D+00 EMaxC= 1.00D-01 BMatC= 4.12D-05 BMatP= 7.23D-06
 IDIUse=3 WtCom= 9.99D-01 WtEn= 1.29D-03
 Large coefficients: NSaved= 10 BigCof=   11.32 CofMax=   10.00 Det=-1.72D-09
 Inversion failed.  Reducing to  9 matrices.
 Coeff-Com:  0.238D+00 0.323D+00-0.146D+01 0.248D+01-0.761D+00 0.226D+00
 Coeff-Com:  0.477D+00 0.405D+01-0.457D+01
[...]
 Coeff-En:   0.100D+01
 Coeff:      0.302D+01 0.961D-01-0.149D+01-0.907D+01 0.937D+01 0.143D+01
 Coeff:     -0.288D+01-0.527D+00-0.848D+00 0.499D+00 0.538D+01-0.262D+01
 Coeff:     -0.135D+01
 Gap=     0.347 Goal=   None    Shift=    0.000
 Gap=     0.139 Goal=   None    Shift=    0.000
 RMSDP=1.33D-04 MaxDP=1.19D-02 DE= 1.63D-04 OVMax= 3.71D-02

 Cycle 115  Pass 1  IDiag  1:
 RMSU=  4.28D-06    CP:  1.00D+00  3.00D+00 -7.05D-01  8.24D-01 -1.27D+00
                    CP: -3.00D+00 -3.00D+00 -3.00D+00  3.00D+00  3.00D+00
                    CP:  2.61D+00  2.92D+00  1.34D+00  1.25D+00
 E= -1709.48772961632     Delta-E=        0.000326900324 Rises=F Damp=F
 DIIS: error= 5.33D-04 at cycle 115 NSaved=  14.
 NSaved=14 IEnMin= 5 EnMin= -1709.48910941220     IErMin= 6 ErrMin= 1.18D-04
 ErrMax= 5.33D-04  0.00D+00 EMaxC= 1.00D-01 BMatC= 1.07D-03 BMatP= 1.87D-05
 IDIUse=3 WtCom= 9.99D-01 WtEn= 1.29D-03
 Large coefficients: NSaved= 14 BigCof=   12.81 CofMax=   10.00 Det=-5.15D-09
 Inversion failed.  Reducing to 13 matrices.
 Large coefficients: NSaved= 13 BigCof=   10.40 CofMax=   10.00 Det=-5.67D-09
 Inversion failed.  Reducing to 12 matrices.
 Large coefficients: NSaved= 12 BigCof=   10.48 CofMax=   10.00 Det=-5.70D-09
 Inversion failed.  Reducing to 11 matrices.
 Rare condition: small coef for last iteration:  0.000D+00
 Coeff-Com:  0.187D+01-0.182D+01-0.796D+01 0.772D+01 0.848D+00-0.169D+01
 Coeff-Com: -0.531D+00 0.191D+01 0.100D+01 0.582D+00-0.917D+00
 Coeff-En:   0.000D+00 0.000D+00 0.000D+00 0.000D+00 0.000D+00 0.000D+00
 Coeff-En:   0.000D+00 0.000D+00 0.000D+00 0.000D+00 0.100D+01
 Coeff:      0.187D+01-0.182D+01-0.796D+01 0.772D+01 0.848D+00-0.169D+01
 Coeff:     -0.531D+00 0.191D+01 0.100D+01 0.582D+00-0.917D+00
 Gap=     0.345 Goal=   None    Shift=    0.000
 Gap=     0.141 Goal=   None    Shift=    0.000
 RMSDP=1.63D-04 MaxDP=1.58D-02 DE= 3.27D-04 OVMax= 4.98D-02

 Cycle 116  Pass 1  IDiag  1:
 RMSU=  3.48D-06    CP:  1.00D+00  3.00D+00 -1.41D+00  1.93D+00 -1.03D+00
                    CP: -3.00D+00 -3.00D+00 -2.61D+00  3.00D+00  3.00D+00
                    CP:  1.44D+00  2.26D+00 -1.78D+00  2.20D+00  1.62D+00
 E= -1709.48734516082     Delta-E=        0.000384455503 Rises=F Damp=F
 DIIS: error= 6.28D-04 at cycle 116 NSaved=  12.
 NSaved=12 IEnMin= 4 EnMin= -1709.48910941220     IErMin= 5 ErrMin= 1.18D-04
 ErrMax= 6.28D-04  0.00D+00 EMaxC= 1.00D-01 BMatC= 1.53D-03 BMatP= 1.87D-05
 IDIUse=3 WtCom= 9.99D-01 WtEn= 1.29D-03
 Rare condition: small coef for last iteration:  0.000D+00
 Coeff-Com:  0.329D+01-0.238D+01-0.726D+01 0.701D+01 0.101D+01-0.112D+01
 Coeff-Com: -0.728D+00-0.567D+00 0.235D+01-0.159D+01 0.249D+01-0.151D+01
 Coeff-En:   0.000D+00 0.000D+00 0.000D+00 0.000D+00 0.000D+00 0.000D+00
 Coeff-En:   0.000D+00 0.000D+00 0.000D+00 0.000D+00 0.000D+00 0.100D+01
 Coeff:      0.329D+01-0.238D+01-0.726D+01 0.701D+01 0.101D+01-0.112D+01
 Coeff:     -0.728D+00-0.567D+00 0.235D+01-0.159D+01 0.249D+01-0.151D+01
 Gap=     0.341 Goal=   None    Shift=    0.000
 Gap=     0.152 Goal=   None    Shift=    0.000
 RMSDP=1.95D-04 MaxDP=1.95D-02 DE= 3.84D-04 OVMax= 4.68D-02

 Cycle 117  Pass 1  IDiag  1:
 RMSU=  4.94D-05    CP:  1.00D+00  3.00D+00 -2.16D+00  3.00D+00 -2.12D+00
                    CP: -3.00D+00 -3.00D+00 -1.23D+00  3.00D+00  3.00D+00
                    CP:  2.22D+00  3.00D+00  2.69D+00  3.00D+00  3.00D+00
                    CP:  1.65D+00
 E= -1709.48603595959     Delta-E=        0.001309201226 Rises=F Damp=F
 DIIS: error= 1.14D-03 at cycle 117 NSaved=  13.
 NSaved=13 IEnMin= 4 EnMin= -1709.48910941220     IErMin= 5 ErrMin= 1.18D-04
 ErrMax= 1.14D-03  0.00D+00 EMaxC= 1.00D-01 BMatC= 5.15D-03 BMatP= 1.87D-05
 IDIUse=3 WtCom= 9.99D-01 WtEn= 1.29D-03
 Rare condition: small coef for last iteration:  0.000D+00
 Coeff-Com:  0.298D+01-0.233D+01-0.765D+01 0.724D+01 0.114D+01-0.114D+01
 Coeff-Com: -0.843D+00-0.295D+00 0.220D+01-0.859D+00 0.139D+01-0.623D+00
 Coeff-Com: -0.197D+00
 Coeff-En:   0.000D+00 0.000D+00 0.000D+00 0.000D+00 0.000D+00 0.000D+00
 Coeff-En:   0.000D+00 0.000D+00 0.000D+00 0.000D+00 0.000D+00 0.000D+00
 Coeff-En:   0.100D+01
 Coeff:      0.298D+01-0.233D+01-0.765D+01 0.724D+01 0.114D+01-0.114D+01
 Coeff:     -0.843D+00-0.295D+00 0.220D+01-0.859D+00 0.139D+01-0.623D+00
 Coeff:     -0.197D+00
 Gap=     0.340 Goal=   None    Shift=    0.000
 Gap=     0.155 Goal=   None    Shift=    0.000
 RMSDP=3.39D-05 MaxDP=3.25D-03 DE= 1.31D-03 OVMax= 1.05D-02

 Cycle 118  Pass 1  IDiag  1:
 RMSU=  3.67D-06    CP:  1.00D+00  3.00D+00 -2.28D+00  3.00D+00 -2.16D+00
                    CP: -3.00D+00 -3.00D+00 -5.03D-01  3.00D+00  3.00D+00
                    CP:  2.24D+00  3.00D+00  2.26D-01  3.00D+00  2.39D+00
                    CP:  2.03D+00  1.39D+00
 E= -1709.48570219328     Delta-E=        0.000333766315 Rises=F Damp=F
 DIIS: error= 1.24D-03 at cycle 118 NSaved=  14.
 NSaved=14 IEnMin= 4 EnMin= -1709.48910941220     IErMin= 5 ErrMin= 1.18D-04
 ErrMax= 1.24D-03  0.00D+00 EMaxC= 1.00D-01 BMatC= 6.17D-03 BMatP= 1.87D-05
 IDIUse=3 WtCom= 9.99D-01 WtEn= 1.29D-03
 Rare condition: small coef for last iteration:  0.000D+00
 Coeff-Com:  0.295D+01-0.229D+01-0.768D+01 0.725D+01 0.114D+01-0.113D+01
 Coeff-Com: -0.854D+00-0.279D+00 0.214D+01-0.784D+00 0.130D+01-0.603D+00
 Coeff-Com: -0.646D-01-0.111D+00
 Coeff-En:   0.000D+00 0.000D+00 0.000D+00 0.000D+00 0.000D+00 0.000D+00
 Coeff-En:   0.000D+00 0.000D+00 0.000D+00 0.000D+00 0.000D+00 0.000D+00
 Coeff-En:   0.000D+00 0.100D+01
 Coeff:      0.295D+01-0.229D+01-0.768D+01 0.725D+01 0.114D+01-0.113D+01
 Coeff:     -0.854D+00-0.279D+00 0.214D+01-0.784D+00 0.130D+01-0.603D+00
 Coeff:     -0.646D-01-0.111D+00
 Gap=     0.340 Goal=   None    Shift=    0.000
 Gap=     0.155 Goal=   None    Shift=    0.000
 RMSDP=2.47D-06 MaxDP=1.95D-04 DE= 3.34D-04 OVMax= 5.95D-04

 Cycle 119  Pass 1  IDiag  1:
 RMSU=  3.32D-07    CP:  1.00D+00  3.00D+00 -2.28D+00  3.00D+00 -2.13D+00
                    CP: -3.00D+00 -3.00D+00 -5.05D-01  3.00D+00  3.00D+00
                    CP:  2.21D+00  3.00D+00  2.41D-01  3.00D+00  2.42D+00
                    CP:  2.01D+00  1.36D+00  9.14D-01
 E= -1709.48574048654     Delta-E=       -0.000038293264 Rises=F Damp=F
 DIIS: error= 1.23D-03 at cycle 119 NSaved=  15.
 NSaved=15 IEnMin= 4 EnMin= -1709.48910941220     IErMin= 5 ErrMin= 1.18D-04
 ErrMax= 1.23D-03  0.00D+00 EMaxC= 1.00D-01 BMatC= 6.04D-03 BMatP= 1.87D-05
 IDIUse=3 WtCom= 9.99D-01 WtEn= 1.29D-03
 Coeff-Com:  0.286D+01-0.221D+01-0.738D+01 0.698D+01 0.109D+01-0.117D+01
 Coeff-Com: -0.770D+00-0.236D+00 0.204D+01-0.677D+00 0.113D+01-0.552D+00
 Coeff-Com:  0.720D-01-0.360D+01 0.342D+01
 Coeff-En:   0.000D+00 0.000D+00 0.000D+00 0.000D+00 0.000D+00 0.000D+00
 Coeff-En:   0.000D+00 0.000D+00 0.000D+00 0.000D+00 0.000D+00 0.000D+00
 Coeff-En:   0.000D+00 0.000D+00 0.100D+01
 Coeff:      0.286D+01-0.221D+01-0.737D+01 0.697D+01 0.109D+01-0.117D+01
 Coeff:     -0.769D+00-0.236D+00 0.203D+01-0.676D+00 0.113D+01-0.551D+00
 Coeff:      0.719D-01-0.359D+01 0.342D+01
 Gap=     0.340 Goal=   None    Shift=    0.000
 Gap=     0.154 Goal=   None    Shift=    0.000
 RMSDP=4.10D-06 MaxDP=5.09D-04 DE=-3.83D-05 OVMax= 1.04D-03

 Cycle 120  Pass 1  IDiag  1:
 RMSU=  1.56D-06    CP:  1.00D+00  3.00D+00 -2.29D+00  3.00D+00 -2.09D+00
                    CP: -3.00D+00 -3.00D+00 -3.03D-01  3.00D+00  3.00D+00
                    CP:  2.11D+00  3.00D+00  3.77D-01  3.00D+00  2.55D+00
                    CP:  2.05D+00  1.39D+00  6.38D-01  3.00D+00
 E= -1709.48577527517     Delta-E=       -0.000034788629 Rises=F Damp=F
 DIIS: error= 1.21D-03 at cycle 120 NSaved=  16.
 NSaved=16 IEnMin= 4 EnMin= -1709.48910941220     IErMin= 5 ErrMin= 1.18D-04
 ErrMax= 1.21D-03  0.00D+00 EMaxC= 1.00D-01 BMatC= 5.89D-03 BMatP= 1.87D-05
 IDIUse=3 WtCom= 9.99D-01 WtEn= 1.29D-03
 Coeff-Com:  0.301D+01-0.205D+01-0.758D+01 0.722D+01 0.105D+01-0.120D+01
 Coeff-Com: -0.782D+00-0.390D+00 0.192D+01-0.548D+00 0.995D+00-0.549D+00
 Coeff-Com:  0.455D+00-0.890D+00 0.355D+01-0.323D+01
 Coeff-En:   0.000D+00 0.000D+00 0.000D+00 0.000D+00 0.000D+00 0.000D+00
 Coeff-En:   0.000D+00 0.000D+00 0.000D+00 0.000D+00 0.000D+00 0.000D+00
 Coeff-En:   0.000D+00 0.000D+00 0.000D+00 0.100D+01
 Coeff:      0.301D+01-0.205D+01-0.757D+01 0.721D+01 0.105D+01-0.120D+01
 Coeff:     -0.781D+00-0.389D+00 0.192D+01-0.547D+00 0.994D+00-0.548D+00
 Coeff:      0.454D+00-0.889D+00 0.355D+01-0.322D+01
 Gap=     0.340 Goal=   None    Shift=    0.000
 Gap=     0.154 Goal=   None    Shift=    0.000
 RMSDP=1.78D-05 MaxDP=2.14D-03 DE=-3.48D-05 OVMax= 4.48D-03

 Cycle 121  Pass 1  IDiag  1:
 Restarting incremental Fock formation.
 E= -1709.48584296389     Delta-E=       -0.000067688718 Rises=F Damp=F
 DIIS: error= 1.20D-03 at cycle 121 NSaved=  17.
 NSaved=17 IEnMin= 4 EnMin= -1709.48910941220     IErMin= 5 ErrMin= 1.18D-04
 ErrMax= 1.20D-03  0.00D+00 EMaxC= 1.00D-01 BMatC= 5.75D-03 BMatP= 1.87D-05
 IDIUse=3 WtCom= 9.99D-01 WtEn= 1.29D-03
 Coeff-Com:  0.300D+01-0.217D+01-0.750D+01 0.709D+01 0.110D+01-0.109D+01
 Coeff-Com: -0.732D+00-0.587D+00 0.197D+01-0.332D+00 0.924D+00-0.453D+00
 Coeff-Com:  0.428D+00 0.126D+01 0.139D+01-0.217D+01-0.113D+01
 Coeff-En:   0.000D+00 0.000D+00 0.000D+00 0.000D+00 0.000D+00 0.000D+00
 Coeff-En:   0.000D+00 0.000D+00 0.000D+00 0.000D+00 0.000D+00 0.000D+00
 Coeff-En:   0.000D+00 0.000D+00 0.000D+00 0.000D+00 0.100D+01
 Coeff:      0.300D+01-0.216D+01-0.749D+01 0.708D+01 0.109D+01-0.109D+01
 Coeff:     -0.732D+00-0.586D+00 0.197D+01-0.331D+00 0.923D+00-0.452D+00
 Coeff:      0.428D+00 0.126D+01 0.139D+01-0.217D+01-0.113D+01
 Gap=     0.340 Goal=   None    Shift=    0.000
 Gap=     0.154 Goal=   None    Shift=    0.000
 RMSDP=5.61D-06 MaxDP=4.49D-04 DE=-6.77D-05 OVMax= 1.49D-03

 Cycle 122  Pass 1  IDiag  1:
 RMSU=  5.61D-06    CP:  1.00D+00
 E= -1709.48578693972     Delta-E=        0.000056024170 Rises=F Damp=F
 DIIS: error= 1.21D-03 at cycle 122 NSaved=  18.
 NSaved=18 IEnMin= 4 EnMin= -1709.48910941220     IErMin= 5 ErrMin= 1.18D-04
 ErrMax= 1.21D-03  0.00D+00 EMaxC= 1.00D-01 BMatC= 5.93D-03 BMatP= 1.87D-05
 IDIUse=3 WtCom= 9.99D-01 WtEn= 1.29D-03
 Rare condition: small coef for last iteration:  0.000D+00
 Coeff-Com:  0.312D+01-0.250D+01-0.633D+01 0.601D+01 0.104D+01-0.145D+01
 Coeff-Com: -0.180D+00-0.794D+00 0.193D+01 0.910D+00-0.791D+00 0.127D+00
 Coeff-Com:  0.187D+01-0.206D+01 0.526D+01-0.390D+01-0.474D+01 0.348D+01
 Coeff-En:   0.000D+00 0.000D+00 0.000D+00 0.000D+00 0.000D+00 0.000D+00
 Coeff-En:   0.000D+00 0.000D+00 0.000D+00 0.000D+00 0.000D+00 0.000D+00
 Coeff-En:   0.000D+00 0.000D+00 0.000D+00 0.000D+00 0.000D+00 0.100D+01
 Coeff:      0.312D+01-0.250D+01-0.633D+01 0.601D+01 0.104D+01-0.145D+01
 Coeff:     -0.180D+00-0.794D+00 0.193D+01 0.910D+00-0.791D+00 0.127D+00
 Coeff:      0.187D+01-0.206D+01 0.526D+01-0.390D+01-0.474D+01 0.348D+01
 Gap=     0.338 Goal=   None    Shift=    0.000
 Gap=     0.158 Goal=   None    Shift=    0.000
 RMSDP=5.35D-05 MaxDP=4.90D-03 DE= 5.60D-05 OVMax= 1.42D-02

 Cycle 123  Pass 1  IDiag  1:
 RMSU=  4.31D-05    CP:  1.00D+00  3.00D+00
 E= -1709.48512505750     Delta-E=        0.000661882215 Rises=F Damp=F
 DIIS: error= 1.39D-03 at cycle 123 NSaved=  19.
 NSaved=19 IEnMin= 4 EnMin= -1709.48910941220     IErMin= 5 ErrMin= 1.18D-04
 ErrMax= 1.39D-03  0.00D+00 EMaxC= 1.00D-01 BMatC= 8.03D-03 BMatP= 1.87D-05
 IDIUse=3 WtCom= 9.99D-01 WtEn= 1.29D-03
 Rare condition: small coef for last iteration:  0.000D+00
 Coeff-Com:  0.311D+01-0.271D+01-0.732D+01 0.692D+01 0.123D+01-0.176D+01
 Coeff-Com: -0.338D+00-0.195D+00 0.183D+01 0.199D+01-0.253D+01 0.693D+00
 Coeff-Com:  0.348D+01-0.648D+01 0.847D+01-0.562D+01-0.370D+01 0.324D+01
 Coeff-Com:  0.683D+00
 Coeff-En:   0.000D+00 0.000D+00 0.000D+00 0.000D+00 0.000D+00 0.000D+00
 Coeff-En:   0.000D+00 0.000D+00 0.000D+00 0.000D+00 0.000D+00 0.000D+00
 Coeff-En:   0.000D+00 0.000D+00 0.000D+00 0.000D+00 0.000D+00 0.000D+00
 Coeff-En:   0.100D+01
 Coeff:      0.311D+01-0.271D+01-0.732D+01 0.692D+01 0.123D+01-0.176D+01
 Coeff:     -0.338D+00-0.195D+00 0.183D+01 0.199D+01-0.253D+01 0.693D+00
 Coeff:      0.348D+01-0.648D+01 0.847D+01-0.562D+01-0.370D+01 0.324D+01
 Coeff:      0.683D+00
 Gap=     0.338 Goal=   None    Shift=    0.000
 Gap=     0.161 Goal=   None    Shift=    0.000
 RMSDP=2.32D-05 MaxDP=1.94D-03 DE= 6.62D-04 OVMax= 6.06D-03

 Cycle 124  Pass 1  IDiag  1:
 RMSU=  3.97D-06    CP:  1.00D+00  3.00D+00  1.53D+00
 E= -1709.48472001008     Delta-E=        0.000405047419 Rises=F Damp=F
 DIIS: error= 1.49D-03 at cycle 124 NSaved=  20.
 NSaved=20 IEnMin= 4 EnMin= -1709.48910941220     IErMin= 5 ErrMin= 1.18D-04
 ErrMax= 1.49D-03  0.00D+00 EMaxC= 1.00D-01 BMatC= 9.38D-03 BMatP= 1.87D-05
 IDIUse=3 WtCom= 9.99D-01 WtEn= 1.29D-03
 Rare condition: small coef for last iteration:  0.000D+00
 Coeff-Com:  0.312D+01-0.270D+01-0.726D+01 0.689D+01 0.121D+01-0.178D+01
 Coeff-Com: -0.316D+00-0.189D+00 0.181D+01 0.197D+01-0.251D+01 0.677D+00
 Coeff-Com:  0.345D+01-0.660D+01 0.870D+01-0.572D+01-0.383D+01 0.338D+01
 Coeff-Com:  0.825D+00-0.130D+00
 Coeff-En:   0.000D+00 0.000D+00 0.000D+00 0.000D+00 0.000D+00 0.000D+00
 Coeff-En:   0.000D+00 0.000D+00 0.000D+00 0.000D+00 0.000D+00 0.000D+00
 Coeff-En:   0.000D+00 0.000D+00 0.000D+00 0.000D+00 0.000D+00 0.000D+00
 Coeff-En:   0.000D+00 0.100D+01
 Coeff:      0.312D+01-0.270D+01-0.726D+01 0.689D+01 0.121D+01-0.178D+01
 Coeff:     -0.316D+00-0.189D+00 0.181D+01 0.197D+01-0.251D+01 0.677D+00
 Coeff:      0.345D+01-0.660D+01 0.870D+01-0.572D+01-0.383D+01 0.338D+01
 Coeff:      0.825D+00-0.130D+00
 Gap=     0.338 Goal=   None    Shift=    0.000
 Gap=     0.161 Goal=   None    Shift=    0.000
 RMSDP=1.56D-06 MaxDP=1.99D-04 DE= 4.05D-04 OVMax= 3.11D-04

 Cycle 125  Pass 1  IDiag  1:
 RMSU=  2.64D-07    CP:  1.00D+00  3.00D+00  1.56D+00  8.28D-01
 E= -1709.48471688184     Delta-E=        0.000003128248 Rises=F Damp=F
 DIIS: error= 1.49D-03 at cycle 125 NSaved=  20.
 NSaved=20 IEnMin= 4 EnMin= -1709.48910941220     IErMin= 5 ErrMin= 1.18D-04
 ErrMax= 1.49D-03  0.00D+00 EMaxC= 1.00D-01 BMatC= 9.38D-03 BMatP= 1.87D-05
 IDIUse=3 WtCom= 9.99D-01 WtEn= 1.29D-03
 Rare condition: small coef for last iteration:  0.000D+00
 Coeff-Com:  0.307D+01-0.272D+01-0.744D+01 0.697D+01 0.129D+01-0.160D+01
 Coeff-Com: -0.427D+00-0.307D+00 0.190D+01 0.195D+01-0.234D+01 0.664D+00
 Coeff-Com:  0.334D+01-0.556D+01 0.746D+01-0.522D+01-0.323D+01 0.269D+01
 Coeff-Com: -0.168D+01 0.219D+01
 Coeff-En:   0.000D+00 0.000D+00 0.000D+00 0.000D+00 0.000D+00 0.000D+00
 Coeff-En:   0.000D+00 0.000D+00 0.000D+00 0.000D+00 0.000D+00 0.000D+00
 Coeff-En:   0.000D+00 0.000D+00 0.000D+00 0.000D+00 0.000D+00 0.000D+00
 Coeff-En:   0.000D+00 0.100D+01
 Coeff:      0.307D+01-0.272D+01-0.744D+01 0.697D+01 0.129D+01-0.160D+01
 Coeff:     -0.427D+00-0.307D+00 0.190D+01 0.195D+01-0.234D+01 0.664D+00
 Coeff:      0.334D+01-0.556D+01 0.746D+01-0.522D+01-0.323D+01 0.269D+01
 Coeff:     -0.168D+01 0.219D+01
 Gap=     0.338 Goal=   None    Shift=    0.000
 Gap=     0.160 Goal=   None    Shift=    0.000
 RMSDP=1.24D-05 MaxDP=1.44D-03 DE= 3.13D-06 OVMax= 2.84D-03

 Cycle 126  Pass 1  IDiag  1:
 RMSU=  4.05D-07    CP:  1.00D+00  3.00D+00  1.28D+00  1.47D+00 -3.00D+00
 E= -1709.48482860951     Delta-E=       -0.000111727676 Rises=F Damp=F
 DIIS: error= 1.47D-03 at cycle 126 NSaved=  20.
 NSaved=20 IEnMin= 4 EnMin= -1709.48910941220     IErMin= 5 ErrMin= 1.18D-04
 ErrMax= 1.47D-03  0.00D+00 EMaxC= 1.00D-01 BMatC= 9.05D-03 BMatP= 1.87D-05
 IDIUse=3 WtCom= 9.99D-01 WtEn= 1.29D-03
 Coeff-Com:  0.313D+01-0.276D+01-0.719D+01 0.676D+01 0.123D+01-0.164D+01
 Coeff-Com: -0.322D+00-0.372D+00 0.196D+01 0.178D+01-0.217D+01 0.597D+00
 Coeff-Com:  0.319D+01-0.477D+01 0.649D+01-0.460D+01-0.372D+01 0.291D+01
 Coeff-Com: -0.750D-01 0.567D+00
 Coeff-En:   0.000D+00 0.000D+00 0.000D+00 0.000D+00 0.000D+00 0.000D+00
 Coeff-En:   0.000D+00 0.000D+00 0.000D+00 0.000D+00 0.000D+00 0.000D+00
 Coeff-En:   0.000D+00 0.000D+00 0.000D+00 0.000D+00 0.000D+00 0.000D+00
 Coeff-En:   0.000D+00 0.100D+01
 Coeff:      0.313D+01-0.276D+01-0.718D+01 0.675D+01 0.123D+01-0.164D+01
 Coeff:     -0.321D+00-0.371D+00 0.195D+01 0.178D+01-0.217D+01 0.597D+00
 Coeff:      0.319D+01-0.476D+01 0.648D+01-0.460D+01-0.371D+01 0.290D+01
 Coeff:     -0.749D-01 0.568D+00
 Gap=     0.338 Goal=   None    Shift=    0.000
 Gap=     0.160 Goal=   None    Shift=    0.000
 RMSDP=5.06D-06 MaxDP=6.01D-04 DE=-1.12D-04 OVMax= 1.01D-03

 Cycle 127  Pass 1  IDiag  1:
 RMSU=  2.95D-07    CP:  1.00D+00  3.00D+00  1.40D+00  1.24D+00 -2.21D+00
                    CP: -6.42D-01
 E= -1709.48478187032     Delta-E=        0.000046739192 Rises=F Damp=F
 DIIS: error= 1.48D-03 at cycle 127 NSaved=  20.
 NSaved=20 IEnMin= 4 EnMin= -1709.48910941220     IErMin= 5 ErrMin= 1.18D-04
 ErrMax= 1.48D-03  0.00D+00 EMaxC= 1.00D-01 BMatC= 9.18D-03 BMatP= 1.87D-05
 IDIUse=3 WtCom= 9.99D-01 WtEn= 1.29D-03
 Rare condition: small coef for last iteration:  0.000D+00
 Coeff-Com:  0.330D+01-0.283D+01-0.709D+01 0.675D+01 0.116D+01-0.169D+01
 Coeff-Com: -0.200D+00-0.682D+00 0.214D+01 0.135D+01-0.151D+01 0.322D+00
 Coeff-Com:  0.262D+01-0.281D+01 0.363D+01-0.267D+01-0.399D+01 0.286D+01
 Coeff-Com:  0.216D+01-0.182D+01
 Coeff-En:   0.000D+00 0.000D+00 0.000D+00 0.000D+00 0.000D+00 0.000D+00
 Coeff-En:   0.000D+00 0.000D+00 0.000D+00 0.000D+00 0.000D+00 0.000D+00
 Coeff-En:   0.000D+00 0.000D+00 0.000D+00 0.000D+00 0.000D+00 0.000D+00
 Coeff-En:   0.000D+00 0.100D+01
 Coeff:      0.330D+01-0.283D+01-0.709D+01 0.675D+01 0.116D+01-0.169D+01
 Coeff:     -0.200D+00-0.682D+00 0.214D+01 0.135D+01-0.151D+01 0.322D+00
 Coeff:      0.262D+01-0.281D+01 0.363D+01-0.267D+01-0.399D+01 0.286D+01
 Coeff:      0.216D+01-0.182D+01
 Gap=     0.337 Goal=   None    Shift=    0.000
 Gap=     0.162 Goal=   None    Shift=    0.000
 RMSDP=2.95D-05 MaxDP=3.31D-03 DE= 4.67D-05 OVMax= 6.35D-03

 Cycle 128  Pass 1  IDiag  1:
 RMSU=  1.57D-06    CP:  1.00D+00  3.00D+00  2.07D+00  3.93D-01  3.00D+00
                    CP: -3.00D+00  2.06D+00
 E= -1709.48441076049     Delta-E=        0.000371109828 Rises=F Damp=F
 DIIS: error= 1.57D-03 at cycle 128 NSaved=  20.
 NSaved=20 IEnMin= 4 EnMin= -1709.48910941220     IErMin= 5 ErrMin= 1.18D-04
 ErrMax= 1.57D-03  0.00D+00 EMaxC= 1.00D-01 BMatC= 1.04D-02 BMatP= 1.87D-05
 IDIUse=3 WtCom= 9.99D-01 WtEn= 1.29D-03
 Rare condition: small coef for last iteration:  0.000D+00
 Coeff-Com:  0.305D+01-0.261D+01-0.761D+01 0.714D+01 0.126D+01-0.158D+01
 Coeff-Com: -0.461D+00-0.344D+00 0.175D+01 0.206D+01-0.234D+01 0.708D+00
 Coeff-Com:  0.322D+01-0.705D+01 0.980D+01-0.581D+01-0.364D+01 0.315D+01
 Coeff-Com: -0.485D+00 0.764D+00
 Coeff-En:   0.000D+00 0.000D+00 0.000D+00 0.000D+00 0.000D+00 0.000D+00
 Coeff-En:   0.000D+00 0.000D+00 0.000D+00 0.000D+00 0.000D+00 0.000D+00
 Coeff-En:   0.000D+00 0.000D+00 0.000D+00 0.000D+00 0.000D+00 0.000D+00
 Coeff-En:   0.000D+00 0.100D+01
 Coeff:      0.305D+01-0.261D+01-0.761D+01 0.714D+01 0.126D+01-0.158D+01
 Coeff:     -0.461D+00-0.344D+00 0.175D+01 0.206D+01-0.234D+01 0.708D+00
 Coeff:      0.322D+01-0.705D+01 0.980D+01-0.581D+01-0.364D+01 0.315D+01
 Coeff:     -0.485D+00 0.764D+00
 Gap=     0.338 Goal=   None    Shift=    0.000
 Gap=     0.160 Goal=   None    Shift=    0.000
 RMSDP=3.42D-05 MaxDP=3.83D-03 DE= 3.71D-04 OVMax= 7.42D-03

 >>>>>>>>>> Convergence criterion not met.
 Error on total polarization charges =  0.00231
 SCF Done:  E(UCAM-B3LYP) =  -1709.48441076     A.U. after  129 cycles
            NFock=128  Conv=0.34D-04     -V/T= 2.0075
 <Sx>= 0.0000 <Sy>= 0.0000 <Sz>= 0.5000 <S**2>= 0.7628 S= 0.5064
 <L.S>= 0.000000000000E+00
 KE= 1.696704028178D+03 PE=-9.720683498135D+03 EE= 3.456358844822D+03
 Annihilation of the first spin contaminant:
 S**2 before annihilation     0.7628,   after     0.7501
 Convergence failure -- run terminated.
 Error termination via Lnk1e in /home/k0335/k033513/app/g09/l502.exe at Sun Mar  3 18:08:44 2024.
 Job cpu time:       0 days  1 hours 47 minutes  5.9 seconds.
 File lengths (MBytes):  RWF=    262 Int=      0 D2E=      0 Chk=      5 Scr=      1
