 Entering Gaussian System, Link 0=g09
 Initial command:
 /home/k0335/k033513/app/g09/l1.exe "/home/k0335/k033513/app/g09/scratch/Gau-352153.inp" -scrdir="/home/k0335/k033513/app/g09/scratch/"
 Default is to use a total of  36 processors:
                               36 via shared-memory
                                1 via Linda
 Entering Link 1 = /home/k0335/k033513/app/g09/l1.exe PID=    352154.
  
 Copyright (c) 1988,1990,1992,1993,1995,1998,2003,2009,2013,
            Gaussian, Inc.  All Rights Reserved.
  
 This is part of the Gaussian(R) 09 program.  It is based on
 the Gaussian(R) 03 system (copyright 2003, Gaussian, Inc.),
 the Gaussian(R) 98 system (copyright 1998, Gaussian, Inc.),
 the Gaussian(R) 94 system (copyright 1995, Gaussian, Inc.),
 the Gaussian 92(TM) system (copyright 1992, Gaussian, Inc.),
 the Gaussian 90(TM) system (copyright 1990, Gaussian, Inc.),
 the Gaussian 88(TM) system (copyright 1988, Gaussian, Inc.),
 the Gaussian 86(TM) system (copyright 1986, Carnegie Mellon
 University), and the Gaussian 82(TM) system (copyright 1983,
 Carnegie Mellon University). Gaussian is a federally registered
 trademark of Gaussian, Inc.
  
 This software contains proprietary and confidential information,
 including trade secrets, belonging to Gaussian, Inc.
  
 This software is provided under written license and may be
 used, copied, transmitted, or stored only in accord with that
 written license.
  
 The following legend is applicable only to US Government
 contracts under FAR:
  
                    RESTRICTED RIGHTS LEGEND
  
 Use, reproduction and disclosure by the US Government is
 subject to restrictions as set forth in subparagraphs (a)
 and (c) of the Commercial Computer Software - Restricted
 Rights clause in FAR 52.227-19.
  
 Gaussian, Inc.
 340 Quinnipiac St., Bldg. 40, Wallingford CT 06492
  
  
 ---------------------------------------------------------------
 Warning -- This program may not be used in any manner that
 competes with the business of Gaussian, Inc. or will provide
 assistance to any competitor of Gaussian, Inc.  The licensee
 of this program is prohibited from giving any competitor of
 Gaussian, Inc. access to this program.  By using this program,
 the user acknowledges that Gaussian, Inc. is engaged in the
 business of creating and licensing software in the field of
 computational chemistry and represents and warrants to the
 licensee that it is not a competitor of Gaussian, Inc. and that
 it will not use this program in any manner prohibited above.
 ---------------------------------------------------------------
  

 Cite this work as:
 Gaussian 09, Revision D.01,
 M. J. Frisch, G. W. Trucks, H. B. Schlegel, G. E. Scuseria, 
 M. A. Robb, J. R. Cheeseman, G. Scalmani, V. Barone, B. Mennucci, 
 G. A. Petersson, H. Nakatsuji, M. Caricato, X. Li, H. P. Hratchian, 
 A. F. Izmaylov, J. Bloino, G. Zheng, J. L. Sonnenberg, M. Hada, 
 M. Ehara, K. Toyota, R. Fukuda, J. Hasegawa, M. Ishida, T. Nakajima, 
 Y. Honda, O. Kitao, H. Nakai, T. Vreven, J. A. Montgomery, Jr., 
 J. E. Peralta, F. Ogliaro, M. Bearpark, J. J. Heyd, E. Brothers, 
 K. N. Kudin, V. N. Staroverov, T. Keith, R. Kobayashi, J. Normand, 
 K. Raghavachari, A. Rendell, J. C. Burant, S. S. Iyengar, J. Tomasi, 
 M. Cossi, N. Rega, J. M. Millam, M. Klene, J. E. Knox, J. B. Cross, 
 V. Bakken, C. Adamo, J. Jaramillo, R. Gomperts, R. E. Stratmann, 
 O. Yazyev, A. J. Austin, R. Cammi, C. Pomelli, J. W. Ochterski, 
 R. L. Martin, K. Morokuma, V. G. Zakrzewski, G. A. Voth, 
 P. Salvador, J. J. Dannenberg, S. Dapprich, A. D. Daniels, 
 O. Farkas, J. B. Foresman, J. V. Ortiz, J. Cioslowski, 
 and D. J. Fox, Gaussian, Inc., Wallingford CT, 2013.
 
 ******************************************
 Gaussian 09:  ES64L-G09RevD.01 24-Apr-2013
                 3-Mar-2024 
 ******************************************
 %nprocshared=24
 Will use up to   24 processors via shared memory.
 %mem=40GB
 %rwf=A891418171/A891418171_0.rwf
 %nosave
 %chk=A891418171/A891418171_0.chk
 ----------------------------------------------------------------------
 #p CAM-B3LYP/6-31G(d,p) SCRF=(PCM,Solvent=Generic,Read) NoSymm out=wfn
 ----------------------------------------------------------------------
 1/38=1,40=2/1;
 2/12=2,15=1,17=6,18=5,40=1/2;
 3/5=1,6=6,7=101,11=2,16=1,25=1,30=1,70=2203,72=-2,74=-40/1,2,3;
 4//1;
 5/5=2,38=5/2;
 6/7=2,8=2,9=2,10=2,28=1/1;
 99/5=1,6=100,9=1/99;
 Leave Link    1 at Sun Mar  3 18:04:12 2024, MaxMem=  5368709120 cpu:         1.1
 (Enter /home/k0335/k033513/app/g09/l101.exe)
 ------------------
 Title A891418171_0
 ------------------
 Symbolic Z-matrix:
 Charge =  0 Multiplicity = 1
 C                     3.1629    0.78556   1.65245 
 C                     3.21166   0.57597   0.14487 
 N                     2.18144  -0.35297  -0.31324 
 C                     2.45533  -1.69998  -0.26629 
 O                     3.51106  -2.1805    0.13805 
 N                     1.44556  -2.51988  -0.65229 
 C                     0.16854  -2.1109   -0.86342 
 O                    -0.73259  -2.94371  -0.8548 
 N                    -0.01576  -0.76574  -1.03113 
 C                    -1.37453  -0.29693  -1.25358 
 F                    -1.98038  -1.14719  -2.13253 
 F                    -1.3322    0.87369  -1.94594 
 C                    -2.2359   -0.15189   0.03012 
 F                    -2.25609  -1.37226   0.66901 
 O                    -1.66789   0.70073   1.03263 
 C                    -1.98595   2.06625   0.90162 
 F                    -1.17058   2.77906   1.69903 
 F                    -3.25324   2.26552   1.29977 
 F                    -1.84781   2.48318  -0.36173 
 C                    -3.67568   0.13598  -0.41632 
 F                    -3.7903    1.28647  -1.1121 
 F                    -4.49762   0.24139   0.65791 
 F                    -4.18798  -0.84679  -1.18991 
 C                     0.91494   0.13785  -0.57746 
 O                     0.62738   1.31604  -0.36728 
 H                     3.31508  -0.15719   2.18781 
 H                     3.94497   1.48499   1.96337 
 H                     2.19607   1.1932    1.965 
 H                     3.08194   1.53867  -0.36269 
 H                     4.19784   0.19004  -0.13772 
 H                     1.5898   -3.50868  -0.50319 
 
 NAtoms=     31 NQM=       31 NQMF=       0 NMMI=      0 NMMIF=      0
                NMic=       0 NMicF=      0.
                    Isotopes and Nuclear Properties:
 (Nuclear quadrupole moments (NQMom) in fm**2, nuclear magnetic moments (NMagM)
  in nuclear magnetons)

  Atom         1           2           3           4           5           6           7           8           9          10
 IAtWgt=          12          12          14          12          16          14          12          16          14          12
 AtmWgt=  12.0000000  12.0000000  14.0030740  12.0000000  15.9949146  14.0030740  12.0000000  15.9949146  14.0030740  12.0000000
 NucSpn=           0           0           2           0           0           2           0           0           2           0
 AtZEff=   0.0000000   0.0000000   0.0000000   0.0000000   0.0000000   0.0000000   0.0000000   0.0000000   0.0000000   0.0000000
 NQMom=    0.0000000   0.0000000   2.0440000   0.0000000   0.0000000   2.0440000   0.0000000   0.0000000   2.0440000   0.0000000
 NMagM=    0.0000000   0.0000000   0.4037610   0.0000000   0.0000000   0.4037610   0.0000000   0.0000000   0.4037610   0.0000000
 AtZNuc=   6.0000000   6.0000000   7.0000000   6.0000000   8.0000000   7.0000000   6.0000000   8.0000000   7.0000000   6.0000000

  Atom        11          12          13          14          15          16          17          18          19          20
 IAtWgt=          19          19          12          19          16          12          19          19          19          12
 AtmWgt=  18.9984033  18.9984033  12.0000000  18.9984033  15.9949146  12.0000000  18.9984033  18.9984033  18.9984033  12.0000000
 NucSpn=           1           1           0           1           0           0           1           1           1           0
 AtZEff=   0.0000000   0.0000000   0.0000000   0.0000000   0.0000000   0.0000000   0.0000000   0.0000000   0.0000000   0.0000000
 NQMom=    0.0000000   0.0000000   0.0000000   0.0000000   0.0000000   0.0000000   0.0000000   0.0000000   0.0000000   0.0000000
 NMagM=    2.6288670   2.6288670   0.0000000   2.6288670   0.0000000   0.0000000   2.6288670   2.6288670   2.6288670   0.0000000
 AtZNuc=   9.0000000   9.0000000   6.0000000   9.0000000   8.0000000   6.0000000   9.0000000   9.0000000   9.0000000   6.0000000

  Atom        21          22          23          24          25          26          27          28          29          30
 IAtWgt=          19          19          19          12          16           1           1           1           1           1
 AtmWgt=  18.9984033  18.9984033  18.9984033  12.0000000  15.9949146   1.0078250   1.0078250   1.0078250   1.0078250   1.0078250
 NucSpn=           1           1           1           0           0           1           1           1           1           1
 AtZEff=   0.0000000   0.0000000   0.0000000   0.0000000   0.0000000   0.0000000   0.0000000   0.0000000   0.0000000   0.0000000
 NQMom=    0.0000000   0.0000000   0.0000000   0.0000000   0.0000000   0.0000000   0.0000000   0.0000000   0.0000000   0.0000000
 NMagM=    2.6288670   2.6288670   2.6288670   0.0000000   0.0000000   2.7928460   2.7928460   2.7928460   2.7928460   2.7928460
 AtZNuc=   9.0000000   9.0000000   9.0000000   6.0000000   8.0000000   1.0000000   1.0000000   1.0000000   1.0000000   1.0000000

  Atom        31
 IAtWgt=           1
 AtmWgt=   1.0078250
 NucSpn=           1
 AtZEff=   0.0000000
 NQMom=    0.0000000
 NMagM=    2.7928460
 AtZNuc=   1.0000000
 Leave Link  101 at Sun Mar  3 18:04:13 2024, MaxMem=  5368709120 cpu:         0.9
 (Enter /home/k0335/k033513/app/g09/l202.exe)
                          Input orientation:                          
 ---------------------------------------------------------------------
 Center     Atomic      Atomic             Coordinates (Angstroms)
 Number     Number       Type             X           Y           Z
 ---------------------------------------------------------------------
      1          6           0        3.162896    0.785564    1.652452
      2          6           0        3.211664    0.575970    0.144869
      3          7           0        2.181435   -0.352971   -0.313242
      4          6           0        2.455325   -1.699980   -0.266289
      5          8           0        3.511064   -2.180497    0.138047
      6          7           0        1.445559   -2.519876   -0.652292
      7          6           0        0.168543   -2.110895   -0.863415
      8          8           0       -0.732587   -2.943714   -0.854795
      9          7           0       -0.015759   -0.765737   -1.031135
     10          6           0       -1.374533   -0.296925   -1.253580
     11          9           0       -1.980377   -1.147194   -2.132534
     12          9           0       -1.332199    0.873686   -1.945943
     13          6           0       -2.235897   -0.151885    0.030120
     14          9           0       -2.256094   -1.372258    0.669010
     15          8           0       -1.667891    0.700728    1.032628
     16          6           0       -1.985949    2.066251    0.901620
     17          9           0       -1.170578    2.779059    1.699030
     18          9           0       -3.253239    2.265515    1.299772
     19          9           0       -1.847812    2.483179   -0.361732
     20          6           0       -3.675680    0.135984   -0.416317
     21          9           0       -3.790303    1.286473   -1.112103
     22          9           0       -4.497618    0.241393    0.657908
     23          9           0       -4.187983   -0.846793   -1.189906
     24          6           0        0.914935    0.137853   -0.577462
     25          8           0        0.627381    1.316042   -0.367284
     26          1           0        3.315080   -0.157193    2.187809
     27          1           0        3.944972    1.484990    1.963371
     28          1           0        2.196075    1.193196    1.964998
     29          1           0        3.081935    1.538674   -0.362694
     30          1           0        4.197836    0.190036   -0.137718
     31          1           0        1.589798   -3.508675   -0.503191
 ---------------------------------------------------------------------
                    Distance matrix (angstroms):
                    1          2          3          4          5
     1  C    0.000000
     2  C    1.522864   0.000000
     3  N    2.474567   1.460879   0.000000
     4  C    3.218719   2.433320   1.375374   0.000000
     5  O    3.348457   2.772688   2.304653   1.228401   0.000000
     6  N    4.380300   3.652240   2.313427   1.356781   2.237437
     7  C    4.866745   4.182878   2.728502   2.398913   3.490017
     8  O    5.947150   5.380020   3.936592   3.472175   4.424569
     9  N    4.439822   3.687739   2.348065   2.750283   3.975803
    10  C    5.495914   4.873480   3.678625   4.196560   5.417890
    11  F    6.671951   5.925635   4.610997   4.843954   6.031515
    12  F    5.758654   5.010671   4.063991   4.877533   6.093295
    13  C    5.714695   5.497168   4.435218   4.948941   6.095447
    14  F    5.915134   5.828095   4.657835   4.814525   5.847673
    15  O    4.871127   4.961223   4.211764   4.944845   5.993606
    16  C    5.358592   5.459743   4.969468   5.939143   6.988209
    17  F    4.770240   5.145198   5.009475   6.088632   6.996545
    18  F    6.594045   6.781101   6.244515   7.124984   8.177556
    19  F    5.660921   5.430689   4.927568   6.002076   7.121601
    20  C    7.174112   6.924162   5.878392   6.401757   7.571175
    21  F    7.499377   7.149289   6.244006   6.974394   8.178797
    22  F    7.743947   7.733575   6.775408   7.277808   8.383006
    23  F    8.048541   7.652493   6.448402   6.761253   7.925752
    24  C    3.231930   2.447176   1.383742   2.418111   3.553391
    25  O    3.284749   2.736517   2.281142   3.528168   4.560348
    26  H    1.094787   2.172976   2.752950   3.023569   2.886814
    27  H    1.094308   2.161251   3.416304   4.163468   4.117752
    28  H    1.094802   2.173766   2.753402   3.662829   4.055706
    29  H    2.152799   1.096015   2.095630   3.300123   3.777185
    30  H    2.151851   1.096055   2.095600   2.573914   2.483370
    31  H    5.055880   4.442382   3.216300   2.019068   2.422087
                    6          7          8          9         10
     6  N    0.000000
     7  C    1.357427   0.000000
     8  O    2.228220   1.227068   0.000000
     9  N    2.314298   1.368045   2.299679   0.000000
    10  C    3.640876   2.413255   2.752565   1.454487   0.000000
    11  F    3.976482   2.675302   2.533196   2.284363   1.364758
    12  F    4.572279   3.511669   4.015306   2.292945   1.360694
    13  C    4.430145   3.227609   3.292009   2.536156   1.552698
    14  F    4.094521   2.961887   2.666933   2.877058   2.372729
    15  O    4.785898   3.856513   4.209408   3.023107   2.511597
    16  C    5.934851   5.020531   5.454875   3.954408   3.256274
    17  F    6.360157   5.680759   6.282037   4.620929   4.268628
    18  F    6.984928   5.961622   6.175104   5.010279   4.076180
    19  F    5.996772   5.042112   5.562194   3.789456   2.957763
    20  C    5.773765   4.475088   4.282359   3.819178   2.486704
    21  F    6.489528   5.222683   5.225927   4.297127   2.891904
    22  F    6.683007   5.442494   5.158356   4.894307   3.700977
    23  F    5.901274   4.547952   4.055754   4.176031   2.867387
    24  C    2.711215   2.386574   3.505324   1.374222   2.426485
    25  O    3.932545   3.492932   4.498077   2.277747   2.719346
    26  H    4.140477   4.798710   5.779770   4.671875   5.818518
    27  H    5.397009   5.931486   7.031005   5.451626   6.466926
    28  H    4.604388   4.798731   5.800200   4.207902   5.032787
    29  H    4.385592   4.696587   5.906314   3.918269   4.901348
    30  H    3.896593   4.696395   5.885886   4.412038   5.703821
    31  H    1.010326   2.025714   2.415839   3.221839   4.434600
                   11         12         13         14         15
    11  F    0.000000
    12  F    2.130471   0.000000
    13  C    2.394369   2.402767   0.000000
    14  F    2.824061   3.568729   1.377642   0.000000
    15  O    3.678412   3.002414   1.433388   2.185285   0.000000
    16  C    4.419542   3.155664   2.396271   3.456939   1.408182
    17  F    5.545459   4.116114   3.537032   4.412790   2.238498
    18  F    5.004746   4.020230   2.913902   3.824337   2.243491
    19  F    4.041401   2.316473   2.692159   4.011673   2.270186
    20  C    2.732398   2.894108   1.534650   2.338365   2.539605
    21  F    3.199976   2.628299   2.406185   3.548945   3.073695
    22  F    4.006400   4.147254   2.379951   2.761960   2.891152
    23  F    2.419155   3.418646   2.404579   2.732010   3.699371
    24  C    3.528800   2.731996   3.221932   3.726869   3.095191
    25  O    3.998005   2.554955   3.242083   4.076186   2.758014
    26  H    6.905601   6.304587   5.955585   5.900942   5.186566
    27  H    7.669067   6.595829   6.679817   6.949277   5.743307
    28  H    6.301583   5.276956   5.019499   5.299335   4.005256
    29  H    5.997768   4.736398   5.593892   6.167049   5.020949
    30  H    6.628559   5.858186   6.444998   6.689154   6.003105
    31  H    4.580120   5.461198   5.117460   4.552935   5.539887
                   16         17         18         19         20
    16  C    0.000000
    17  F    1.344912   0.000000
    18  F    1.343226   2.181882   0.000000
    19  F    1.337523   2.189276   2.187052   0.000000
    20  C    2.884108   4.211422   2.767367   2.975467   0.000000
    21  F    2.814041   4.122286   2.657838   2.401756   1.349400
    22  F    3.114159   4.311946   2.461207   3.617560   1.356706
    23  F    4.208237   5.531500   4.093740   4.153431   1.351571
    24  C    3.784380   4.062973   5.042284   3.630408   4.593443
    25  O    3.000404   3.105274   4.328947   2.736571   4.462205
    26  H    5.890577   5.383457   7.056978   6.334602   7.465799
    27  H    6.053181   5.283308   7.270751   6.321300   8.096732
    28  H    4.402536   3.730959   5.593516   4.840532   6.423851
    29  H    5.249788   4.886013   6.589880   5.019412   6.901868
    30  H    6.545197   6.236710   7.867179   6.469818   7.878629
    31  H    6.770470   7.211453   7.748997   6.909377   6.404400
                   21         22         23         24         25
    21  F    0.000000
    22  F    2.173804   0.000000
    23  F    2.171411   2.166665   0.000000
    24  C    4.872826   5.552710   5.233009   0.000000
    25  O    4.480130   5.335870   5.342499   1.230850   0.000000
    26  H    7.966182   7.971055   8.257146   3.673482   3.990319
    27  H    8.326610   8.632965   9.029138   4.177527   4.057944
    28  H    6.731565   6.886214   7.407508   3.036309   2.813438
    29  H    6.917577   7.757202   7.695872   2.589269   2.464634
    30  H    8.121697   8.731929   8.514932   3.312633   3.750832
    31  H    7.232545   7.243466   6.398433   3.709194   4.921647
                   26         27         28         29         30
    26  H    0.000000
    27  H    1.773105   0.000000
    28  H    1.767871   1.773073   0.000000
    29  H    3.071708   2.481591   2.514409   0.000000
    30  H    2.511554   2.481012   3.071611   1.764844   0.000000
    31  H    4.631470   6.047104   5.344822   5.265163   4.540473
                   31
    31  H    0.000000
 Symmetry turned off by external request.
 Stoichiometry    C9H6F9N3O4
 Framework group  C1[X(C9H6F9N3O4)]
 Deg. of freedom    87
 Full point group                 C1      NOp   1
 Rotational constants (GHZ):      0.3872304      0.1921993      0.1511593
 Leave Link  202 at Sun Mar  3 18:04:13 2024, MaxMem=  5368709120 cpu:         0.0
 (Enter /home/k0335/k033513/app/g09/l301.exe)
 Standard basis: 6-31G(d,p) (6D, 7F)
 Ernie: Thresh=  0.10000D-02 Tol=  0.10000D-05 Strict=F.
   405 basis functions,   742 primitive gaussians,   405 cartesian basis functions
    97 alpha electrons       97 beta electrons
       nuclear repulsion energy      2858.1362143748 Hartrees.
 IExCor=20419 DFT=T Ex+Corr=CAM-B3LYP ExCW=0 ScaHFX=  1.000000
 ScaDFX=  1.000000  1.000000  1.000000  0.810000 ScalE2=  1.000000  1.000000
 IRadAn=      0 IRanWt=     -1 IRanGd=            0 ICorTp=0 IEmpDi=  4
  HFx wShort=  0.000000 wLong=  0.330000 cFull=  0.190000 cShort=  0.000000 cLong=  0.460000
  DFx wShort=  0.000000 wLong=  0.330000 cFull=  0.190000 cShort=  0.000000 cLong=  0.460000
 NAtoms=   31 NActive=   31 NUniq=   31 SFac= 1.00D+00 NAtFMM=   60 NAOKFM=F Big=F
 Integral buffers will be    131072 words long.
 Raffenetti 2 integral format.
 Two-electron integral symmetry is turned off.
 Using the following non-standard input for PCM:
 eps=4.9
 --- end of non-standard input.
 ------------------------------------------------------------------------------
 Polarizable Continuum Model (PCM)
 =================================
 Model                : PCM (using non-symmetric T matrix).
 Atomic radii         : UFF (Universal Force Field).
 Polarization charges : Total charges.
 Charge compensation  : None.
 Solution method      : On-the-fly selection.
 Cavity type          : Scaled VdW (van der Waals Surface) (Alpha=1.100).
 Cavity algorithm     : GePol (No added spheres)
                        Default sphere list used, NSphG=   31.
                        Lebedev-Laikov grids with approx.  5.0 points / Ang**2.
                        Smoothing algorithm: Karplus/York (Gamma=1.0000).
                        Polarization charges: spherical gaussians, with
                                              point-specific exponents (IZeta= 3).
                        Self-potential: point-specific (ISelfS= 7).
                        Self-field    : sphere-specific E.n sum rule (ISelfD= 2).
 Solvent              : Generic,
                        Eps                           =   4.900000
                        Eps(infinity)                 =   0.000000
                        RSolv                         =   0.000000 Ang.
                        Molar volume                  =   0.000000 cm**3/mol
                        Thermal expansion coefficient =   0.000000 K**-1
                        Absolute temperature          = 298.150000 K
                        Numeral density               =   0.000000 Ang**-3
                        Hydrogen bond acidity         =   0.000000
                        Hydrogen bond basicity        =   0.000000
                        Surface tension at interface  =   0.000000 (cal/mol)*Ang**-2
                        Carbon aromaticity            =   0.000000
                        Electronegative halogenicity  =   0.000000
 ------------------------------------------------------------------------------
 GePol: Number of generator spheres                  =      31
 GePol: Total number of spheres                      =      31
 GePol: Number of exposed spheres                    =      31 (100.00%)
 GePol: Number of points                             =    2534
 GePol: Average weight of points                     =       0.13
 GePol: Minimum weight of points                     =   0.74D-10
 GePol: Maximum weight of points                     =    0.20577
 GePol: Number of points with low weight             =     133
 GePol: Fraction of low-weight points (<1% of avg)   =       5.25%
 GePol: Cavity surface area                          =    317.252 Ang**2
 GePol: Cavity volume                                =    358.458 Ang**3
 Leave Link  301 at Sun Mar  3 18:04:13 2024, MaxMem=  5368709120 cpu:         0.8
 (Enter /home/k0335/k033513/app/g09/l302.exe)
 NPDir=0 NMtPBC=     1 NCelOv=     1 NCel=       1 NClECP=     1 NCelD=      1
         NCelK=      1 NCelE2=     1 NClLst=     1 CellRange=     0.0.
 One-electron integrals computed using PRISM.
 NBasis=   405 RedAO= T EigKep=  1.21D-03  NBF=   405
 NBsUse=   405 1.00D-06 EigRej= -1.00D+00 NBFU=   405
 Precomputing XC quadrature grid using
 IXCGrd= 4 IRadAn=           0 IRanWt=          -1 IRanGd=           0 AccXCQ= 0.00D+00.
 Generated NRdTot=       0 NPtTot=           0 NUsed=           0 NTot=          32
 NSgBfM=   403   403   403   403   403 MxSgAt=    31 MxSgA2=    31.
 Leave Link  302 at Sun Mar  3 18:04:13 2024, MaxMem=  5368709120 cpu:         6.1
 (Enter /home/k0335/k033513/app/g09/l303.exe)
 DipDrv:  MaxL=1.
 Leave Link  303 at Sun Mar  3 18:04:13 2024, MaxMem=  5368709120 cpu:         0.6
 (Enter /home/k0335/k033513/app/g09/l401.exe)
 ExpMin= 1.61D-01 ExpMax= 7.00D+03 ExpMxC= 1.05D+03 IAcc=1 IRadAn=         1 AccDes= 0.00D+00
 Harris functional with IExCor=20419 and IRadAn=       1 diagonalized for initial guess.
 HarFok:  IExCor=20419 AccDes= 0.00D+00 IRadAn=         1 IDoV= 1 UseB2=F ITyADJ=14
 ICtDFT=  3500011 ScaDFX=  1.000000  1.000000  1.000000  1.000000
 FoFCou: FMM=F IPFlag=           0 FMFlag=      100000 FMFlg1=           0
         NFxFlg=           0 DoJE=T BraDBF=F KetDBF=T FulRan=T
         wScrn=  0.000000 ICntrl=     500 IOpCl=  0 I1Cent=   200000004 NGrid=           0
         NMat0=    1 NMatS0=      1 NMatT0=    0 NMatD0=    1 NMtDS0=    0 NMtDT0=    0
 Symmetry not used in FoFCou.
 Harris En= -1657.03301233246    
 JPrj=0 DoOrth=F DoCkMO=F.
 Leave Link  401 at Sun Mar  3 18:04:13 2024, MaxMem=  5368709120 cpu:         7.7
 (Enter /home/k0335/k033513/app/g09/l502.exe)
 Closed shell SCF:
 Using DIIS extrapolation, IDIIS=  1040.
 Two-electron integral symmetry not used.
 IVT=      522837 IEndB=      522837 NGot=  5368709120 MDV=  5368367354
 LenX=  5368367354 LenY=  5368202888
 Requested convergence on RMS density matrix=1.00D-08 within 128 cycles.
 Requested convergence on MAX density matrix=1.00D-06.
 Requested convergence on             energy=1.00D-06.
 No special actions if energy rises.
 Fock matrices will be formed incrementally for  20 cycles.

 Cycle   1  Pass 1  IDiag  1:
 FoFJK:  IHMeth= 1 ICntrl=       0 DoSepK=T KAlg= 0 I1Cent=   0 FoldK=F
 IRaf=         1 NMat=   1 IRICut=       1 DoRegI=T DoRafI=F ISym2E= 0.
 FoFCou: FMM=F IPFlag=           0 FMFlag=      100000 FMFlg1=           0
         NFxFlg=           0 DoJE=T BraDBF=F KetDBF=F FulRan=T
         wScrn=  0.000000 ICntrl=     500 IOpCl=  0 I1Cent=           0 NGrid=           0
         NMat0=    1 NMatS0=      1 NMatT0=    0 NMatD0=    1 NMtDS0=    0 NMtDT0=    0
 Symmetry not used in FoFCou.
 Inv3:  Mode=1 IEnd=    19263468.
 Iteration    1 A*A^-1 deviation from unit magnitude is 6.00D-15 for   2522.
 Iteration    1 A*A^-1 deviation from orthogonality  is 3.42D-15 for   2497    234.
 Iteration    1 A^-1*A deviation from unit magnitude is 5.77D-15 for   2522.
 Iteration    1 A^-1*A deviation from orthogonality  is 2.81D-14 for   2514   2487.
 E= -1709.27226618824    
 DIIS: error= 4.89D-02 at cycle   1 NSaved=   1.
 NSaved= 1 IEnMin= 1 EnMin= -1709.27226618824     IErMin= 1 ErrMin= 4.89D-02
 ErrMax= 4.89D-02  0.00D+00 EMaxC= 1.00D-01 BMatC= 1.39D+00 BMatP= 1.39D+00
 IDIUse=3 WtCom= 5.11D-01 WtEn= 4.89D-01
 Coeff-Com:  0.100D+01
 Coeff-En:   0.100D+01
 Coeff:      0.100D+01
 Gap=     0.456 Goal=   None    Shift=    0.000
 GapD=    0.456 DampG=2.000 DampE=0.500 DampFc=1.0000 IDamp=-1.
 RMSDP=3.56D-03 MaxDP=1.32D-01              OVMax= 1.82D-01

 Cycle   2  Pass 1  IDiag  1:
 RMSU=  3.56D-03    CP:  1.01D+00
 E= -1709.45606878713     Delta-E=       -0.183802598891 Rises=F Damp=F
 DIIS: error= 1.70D-02 at cycle   2 NSaved=   2.
 NSaved= 2 IEnMin= 2 EnMin= -1709.45606878713     IErMin= 2 ErrMin= 1.70D-02
 ErrMax= 1.70D-02  0.00D+00 EMaxC= 1.00D-01 BMatC= 5.41D-01 BMatP= 1.39D+00
 IDIUse=3 WtCom= 8.30D-01 WtEn= 1.70D-01
 Coeff-Com:  0.361D+00 0.639D+00
 Coeff-En:   0.371D+00 0.629D+00
 Coeff:      0.363D+00 0.637D+00
 Gap=     0.436 Goal=   None    Shift=    0.000
 RMSDP=1.99D-03 MaxDP=1.22D-01 DE=-1.84D-01 OVMax= 1.21D-01

 Cycle   3  Pass 1  IDiag  1:
 RMSU=  1.26D-03    CP:  1.00D+00  5.66D-01
 E= -1709.70681822628     Delta-E=       -0.250749439156 Rises=F Damp=F
 DIIS: error= 1.29D-02 at cycle   3 NSaved=   3.
 NSaved= 3 IEnMin= 3 EnMin= -1709.70681822628     IErMin= 3 ErrMin= 1.29D-02
 ErrMax= 1.29D-02  0.00D+00 EMaxC= 1.00D-01 BMatC= 1.54D-01 BMatP= 5.41D-01
 IDIUse=3 WtCom= 8.71D-01 WtEn= 1.29D-01
 Coeff-Com:  0.107D+00 0.360D+00 0.533D+00
 Coeff-En:   0.000D+00 0.226D+00 0.774D+00
 Coeff:      0.936D-01 0.343D+00 0.564D+00
 Gap=     0.386 Goal=   None    Shift=    0.000
 RMSDP=9.47D-04 MaxDP=6.04D-02 DE=-2.51D-01 OVMax= 7.45D-02

 Cycle   4  Pass 1  IDiag  1:
 RMSU=  4.00D-04    CP:  1.00D+00  6.90D-01  4.14D-01
 E= -1709.80715357161     Delta-E=       -0.100335345322 Rises=F Damp=F
 DIIS: error= 3.92D-03 at cycle   4 NSaved=   4.
 NSaved= 4 IEnMin= 4 EnMin= -1709.80715357161     IErMin= 4 ErrMin= 3.92D-03
 ErrMax= 3.92D-03  0.00D+00 EMaxC= 1.00D-01 BMatC= 1.43D-02 BMatP= 1.54D-01
 IDIUse=3 WtCom= 9.61D-01 WtEn= 3.92D-02
 Coeff-Com:  0.595D-02 0.942D-01 0.288D+00 0.611D+00
 Coeff-En:   0.000D+00 0.000D+00 0.415D-01 0.958D+00
 Coeff:      0.572D-02 0.905D-01 0.279D+00 0.625D+00
 Gap=     0.370 Goal=   None    Shift=    0.000
 RMSDP=2.76D-04 MaxDP=1.78D-02 DE=-1.00D-01 OVMax= 1.85D-02

 Cycle   5  Pass 1  IDiag  1:
 RMSU=  1.10D-04    CP:  1.00D+00  6.78D-01  5.82D-01  6.75D-01
 E= -1709.81671603624     Delta-E=       -0.009562464629 Rises=F Damp=F
 DIIS: error= 7.06D-04 at cycle   5 NSaved=   5.
 NSaved= 5 IEnMin= 5 EnMin= -1709.81671603624     IErMin= 5 ErrMin= 7.06D-04
 ErrMax= 7.06D-04  0.00D+00 EMaxC= 1.00D-01 BMatC= 7.25D-04 BMatP= 1.43D-02
 IDIUse=3 WtCom= 9.93D-01 WtEn= 7.06D-03
 Coeff-Com: -0.133D-02 0.302D-01 0.117D+00 0.327D+00 0.526D+00
 Coeff-En:   0.000D+00 0.000D+00 0.000D+00 0.000D+00 0.100D+01
 Coeff:     -0.132D-02 0.300D-01 0.117D+00 0.325D+00 0.530D+00
 Gap=     0.368 Goal=   None    Shift=    0.000
 RMSDP=5.51D-05 MaxDP=2.76D-03 DE=-9.56D-03 OVMax= 3.44D-03

 Cycle   6  Pass 1  IDiag  1:
 RMSU=  3.15D-05    CP:  1.00D+00  6.82D-01  5.72D-01  7.06D-01  6.53D-01
 E= -1709.81722501588     Delta-E=       -0.000508979648 Rises=F Damp=F
 DIIS: error= 1.20D-04 at cycle   6 NSaved=   6.
 NSaved= 6 IEnMin= 6 EnMin= -1709.81722501588     IErMin= 6 ErrMin= 1.20D-04
 ErrMax= 1.20D-04  0.00D+00 EMaxC= 1.00D-01 BMatC= 1.90D-05 BMatP= 7.25D-04
 IDIUse=3 WtCom= 9.99D-01 WtEn= 1.20D-03
 Coeff-Com: -0.745D-03-0.142D-02 0.208D-02 0.238D-01 0.154D+00 0.822D+00
 Coeff-En:   0.000D+00 0.000D+00 0.000D+00 0.000D+00 0.000D+00 0.100D+01
 Coeff:     -0.744D-03-0.142D-02 0.208D-02 0.238D-01 0.154D+00 0.822D+00
 Gap=     0.369 Goal=   None    Shift=    0.000
 RMSDP=1.42D-05 MaxDP=7.66D-04 DE=-5.09D-04 OVMax= 7.85D-04

 Cycle   7  Pass 1  IDiag  1:
 RMSU=  9.52D-06    CP:  1.00D+00  6.82D-01  5.76D-01  7.19D-01  7.23D-01
                    CP:  9.77D-01
 E= -1709.81724076679     Delta-E=       -0.000015750908 Rises=F Damp=F
 DIIS: error= 6.43D-05 at cycle   7 NSaved=   7.
 NSaved= 7 IEnMin= 7 EnMin= -1709.81724076679     IErMin= 7 ErrMin= 6.43D-05
 ErrMax= 6.43D-05  0.00D+00 EMaxC= 1.00D-01 BMatC= 2.96D-06 BMatP= 1.90D-05
 IDIUse=1 WtCom= 1.00D+00 WtEn= 0.00D+00
 Coeff-Com: -0.153D-03-0.316D-02-0.848D-02-0.163D-01 0.275D-01 0.358D+00
 Coeff-Com:  0.643D+00
 Coeff:     -0.153D-03-0.316D-02-0.848D-02-0.163D-01 0.275D-01 0.358D+00
 Coeff:      0.643D+00
 Gap=     0.369 Goal=   None    Shift=    0.000
 RMSDP=4.40D-06 MaxDP=2.44D-04 DE=-1.58D-05 OVMax= 3.27D-04

 Cycle   8  Pass 1  IDiag  1:
 RMSU=  2.76D-06    CP:  1.00D+00  6.82D-01  5.76D-01  7.18D-01  7.37D-01
                    CP:  1.05D+00  8.16D-01
 E= -1709.81724349262     Delta-E=       -0.000002725826 Rises=F Damp=F
 DIIS: error= 1.19D-05 at cycle   8 NSaved=   8.
 NSaved= 8 IEnMin= 8 EnMin= -1709.81724349262     IErMin= 8 ErrMin= 1.19D-05
 ErrMax= 1.19D-05  0.00D+00 EMaxC= 1.00D-01 BMatC= 1.57D-07 BMatP= 2.96D-06
 IDIUse=1 WtCom= 1.00D+00 WtEn= 0.00D+00
 Coeff-Com:  0.146D-04-0.868D-03-0.265D-02-0.763D-02-0.635D-02 0.220D-01
 Coeff-Com:  0.169D+00 0.826D+00
 Coeff:      0.146D-04-0.868D-03-0.265D-02-0.763D-02-0.635D-02 0.220D-01
 Coeff:      0.169D+00 0.826D+00
 Gap=     0.369 Goal=   None    Shift=    0.000
 RMSDP=1.71D-06 MaxDP=1.33D-04 DE=-2.73D-06 OVMax= 1.40D-04

 Cycle   9  Pass 1  IDiag  1:
 RMSU=  9.61D-07    CP:  1.00D+00  6.82D-01  5.77D-01  7.18D-01  7.42D-01
                    CP:  1.07D+00  8.98D-01  1.07D+00
 E= -1709.81724367378     Delta-E=       -0.000000181164 Rises=F Damp=F
 DIIS: error= 3.90D-06 at cycle   9 NSaved=   9.
 NSaved= 9 IEnMin= 9 EnMin= -1709.81724367378     IErMin= 9 ErrMin= 3.90D-06
 ErrMax= 3.90D-06  0.00D+00 EMaxC= 1.00D-01 BMatC= 3.30D-08 BMatP= 1.57D-07
 IDIUse=1 WtCom= 1.00D+00 WtEn= 0.00D+00
 Coeff-Com:  0.217D-04 0.470D-04 0.728D-04-0.111D-02-0.617D-02-0.399D-01
 Coeff-Com: -0.137D-01 0.356D+00 0.705D+00
 Coeff:      0.217D-04 0.470D-04 0.728D-04-0.111D-02-0.617D-02-0.399D-01
 Coeff:     -0.137D-01 0.356D+00 0.705D+00
 Gap=     0.369 Goal=   None    Shift=    0.000
 RMSDP=6.29D-07 MaxDP=4.15D-05 DE=-1.81D-07 OVMax= 5.79D-05

 Cycle  10  Pass 1  IDiag  1:
 RMSU=  3.44D-07    CP:  1.00D+00  6.82D-01  5.77D-01  7.19D-01  7.44D-01
                    CP:  1.08D+00  9.21D-01  1.18D+00  9.32D-01
 E= -1709.81724370532     Delta-E=       -0.000000031541 Rises=F Damp=F
 DIIS: error= 1.12D-06 at cycle  10 NSaved=  10.
 NSaved=10 IEnMin=10 EnMin= -1709.81724370532     IErMin=10 ErrMin= 1.12D-06
 ErrMax= 1.12D-06  0.00D+00 EMaxC= 1.00D-01 BMatC= 2.45D-09 BMatP= 3.30D-08
 IDIUse=1 WtCom= 1.00D+00 WtEn= 0.00D+00
 Coeff-Com:  0.631D-05 0.109D-03 0.328D-03 0.400D-03-0.127D-02-0.163D-01
 Coeff-Com: -0.224D-01 0.359D-01 0.247D+00 0.757D+00
 Coeff:      0.631D-05 0.109D-03 0.328D-03 0.400D-03-0.127D-02-0.163D-01
 Coeff:     -0.224D-01 0.359D-01 0.247D+00 0.757D+00
 Gap=     0.369 Goal=   None    Shift=    0.000
 RMSDP=1.90D-07 MaxDP=1.35D-05 DE=-3.15D-08 OVMax= 1.80D-05

 Cycle  11  Pass 1  IDiag  1:
 RMSU=  1.07D-07    CP:  1.00D+00  6.82D-01  5.77D-01  7.18D-01  7.44D-01
                    CP:  1.08D+00  9.28D-01  1.21D+00  1.02D+00  9.39D-01
 E= -1709.81724370774     Delta-E=       -0.000000002422 Rises=F Damp=F
 DIIS: error= 6.20D-07 at cycle  11 NSaved=  11.
 NSaved=11 IEnMin=11 EnMin= -1709.81724370774     IErMin=11 ErrMin= 6.20D-07
 ErrMax= 6.20D-07  0.00D+00 EMaxC= 1.00D-01 BMatC= 3.50D-10 BMatP= 2.45D-09
 IDIUse=1 WtCom= 1.00D+00 WtEn= 0.00D+00
 Coeff-Com:  0.148D-05 0.458D-04 0.150D-03 0.256D-03-0.403D-04-0.440D-02
 Coeff-Com: -0.897D-02-0.951D-02 0.585D-01 0.333D+00 0.631D+00
 Coeff:      0.148D-05 0.458D-04 0.150D-03 0.256D-03-0.403D-04-0.440D-02
 Coeff:     -0.897D-02-0.951D-02 0.585D-01 0.333D+00 0.631D+00
 Gap=     0.369 Goal=   None    Shift=    0.000
 RMSDP=5.74D-08 MaxDP=3.69D-06 DE=-2.42D-09 OVMax= 4.47D-06

 Cycle  12  Pass 1  IDiag  1:
 RMSU=  4.02D-08    CP:  1.00D+00  6.82D-01  5.77D-01  7.18D-01  7.44D-01
                    CP:  1.08D+00  9.29D-01  1.21D+00  1.03D+00  1.01D+00
                    CP:  8.76D-01
 E= -1709.81724370792     Delta-E=       -0.000000000181 Rises=F Damp=F
 DIIS: error= 2.29D-07 at cycle  12 NSaved=  12.
 NSaved=12 IEnMin=12 EnMin= -1709.81724370792     IErMin=12 ErrMin= 2.29D-07
 ErrMax= 2.29D-07  0.00D+00 EMaxC= 1.00D-01 BMatC= 6.06D-11 BMatP= 3.50D-10
 IDIUse=1 WtCom= 1.00D+00 WtEn= 0.00D+00
 Coeff-Com: -0.441D-06 0.247D-05 0.175D-04 0.542D-04 0.278D-03 0.962D-03
 Coeff-Com: -0.580D-04-0.113D-01-0.192D-01 0.138D-01 0.298D+00 0.717D+00
 Coeff:     -0.441D-06 0.247D-05 0.175D-04 0.542D-04 0.278D-03 0.962D-03
 Coeff:     -0.580D-04-0.113D-01-0.192D-01 0.138D-01 0.298D+00 0.717D+00
 Gap=     0.369 Goal=   None    Shift=    0.000
 RMSDP=2.40D-08 MaxDP=1.45D-06 DE=-1.81D-10 OVMax= 2.18D-06

 Cycle  13  Pass 1  IDiag  1:
 RMSU=  1.20D-08    CP:  1.00D+00  6.82D-01  5.77D-01  7.18D-01  7.44D-01
                    CP:  1.08D+00  9.29D-01  1.22D+00  1.04D+00  1.03D+00
                    CP:  9.81D-01  8.38D-01
 E= -1709.81724370803     Delta-E=       -0.000000000108 Rises=F Damp=F
 DIIS: error= 6.22D-08 at cycle  13 NSaved=  13.
 NSaved=13 IEnMin=13 EnMin= -1709.81724370803     IErMin=13 ErrMin= 6.22D-08
 ErrMax= 6.22D-08  0.00D+00 EMaxC= 1.00D-01 BMatC= 4.09D-12 BMatP= 6.06D-11
 IDIUse=1 WtCom= 1.00D+00 WtEn= 0.00D+00
 Coeff-Com: -0.262D-06-0.244D-05-0.334D-05 0.941D-06 0.112D-03 0.660D-03
 Coeff-Com:  0.624D-03-0.352D-02-0.116D-01-0.219D-01 0.516D-01 0.249D+00
 Coeff-Com:  0.735D+00
 Coeff:     -0.262D-06-0.244D-05-0.334D-05 0.941D-06 0.112D-03 0.660D-03
 Coeff:      0.624D-03-0.352D-02-0.116D-01-0.219D-01 0.516D-01 0.249D+00
 Coeff:      0.735D+00
 Gap=     0.369 Goal=   None    Shift=    0.000
 RMSDP=7.10D-09 MaxDP=4.20D-07 DE=-1.08D-10 OVMax= 4.89D-07

 Error on total polarization charges =  0.00305
 SCF Done:  E(RCAM-B3LYP) =  -1709.81724371     A.U. after   13 cycles
            NFock= 13  Conv=0.71D-08     -V/T= 2.0075
 KE= 1.697031896975D+03 PE=-9.749665116604D+03 EE= 3.484679761546D+03
 Leave Link  502 at Sun Mar  3 18:04:38 2024, MaxMem=  5368709120 cpu:       564.5
 (Enter /home/k0335/k033513/app/g09/l601.exe)
 Copying SCF densities to generalized density rwf, IOpCl= 0 IROHF=0.

 **********************************************************************

            Population analysis using the SCF density.

 **********************************************************************

 Alpha  occ. eigenvalues --  -24.83256 -24.83216 -24.83144 -24.83126 -24.83027
 Alpha  occ. eigenvalues --  -24.82908 -24.82618 -24.82511 -24.82471 -19.32897
 Alpha  occ. eigenvalues --  -19.23589 -19.22906 -19.22499 -14.52283 -14.49755
 Alpha  occ. eigenvalues --  -14.48953 -10.59287 -10.55212 -10.52872 -10.48929
 Alpha  occ. eigenvalues --  -10.45437 -10.44988 -10.43907 -10.31398 -10.25782
 Alpha  occ. eigenvalues --   -1.43012  -1.41565  -1.38922  -1.35194  -1.33497
 Alpha  occ. eigenvalues --   -1.33061  -1.32438  -1.31988  -1.31308  -1.22116
 Alpha  occ. eigenvalues --   -1.20248  -1.16925  -1.16482  -1.09032  -1.06580
 Alpha  occ. eigenvalues --   -1.04511  -0.92793  -0.86910  -0.84274  -0.82188
 Alpha  occ. eigenvalues --   -0.79864  -0.78110  -0.76265  -0.74147  -0.72976
 Alpha  occ. eigenvalues --   -0.72721  -0.71407  -0.70596  -0.69222  -0.68667
 Alpha  occ. eigenvalues --   -0.68129  -0.67212  -0.65661  -0.64213  -0.62782
 Alpha  occ. eigenvalues --   -0.61203  -0.59203  -0.57629  -0.57048  -0.56915
 Alpha  occ. eigenvalues --   -0.56171  -0.55661  -0.55509  -0.55285  -0.54588
 Alpha  occ. eigenvalues --   -0.54361  -0.53627  -0.53318  -0.53144  -0.52962
 Alpha  occ. eigenvalues --   -0.52401  -0.51954  -0.51521  -0.50886  -0.50800
 Alpha  occ. eigenvalues --   -0.50550  -0.50062  -0.49743  -0.49237  -0.48655
 Alpha  occ. eigenvalues --   -0.48190  -0.47768  -0.46353  -0.44945  -0.43438
 Alpha  occ. eigenvalues --   -0.42321  -0.39718  -0.39172  -0.37767  -0.36803
 Alpha  occ. eigenvalues --   -0.35726  -0.35204
 Alpha virt. eigenvalues --    0.01692   0.02420   0.05451   0.09216   0.12348
 Alpha virt. eigenvalues --    0.13240   0.14313   0.15802   0.18114   0.18259
 Alpha virt. eigenvalues --    0.19307   0.19861   0.20298   0.21608   0.22176
 Alpha virt. eigenvalues --    0.22758   0.23037   0.23595   0.24541   0.25049
 Alpha virt. eigenvalues --    0.25318   0.26716   0.27190   0.28471   0.29133
 Alpha virt. eigenvalues --    0.30351   0.30388   0.32877   0.34951   0.37354
 Alpha virt. eigenvalues --    0.38713   0.40286   0.40499   0.46492   0.47515
 Alpha virt. eigenvalues --    0.49323   0.51127   0.52368   0.52963   0.54384
 Alpha virt. eigenvalues --    0.55305   0.55974   0.56501   0.57023   0.57619
 Alpha virt. eigenvalues --    0.58435   0.59285   0.60105   0.61312   0.62879
 Alpha virt. eigenvalues --    0.63468   0.64645   0.65525   0.66445   0.68336
 Alpha virt. eigenvalues --    0.69891   0.71311   0.71788   0.75706   0.77761
 Alpha virt. eigenvalues --    0.79533   0.80786   0.81996   0.84413   0.84648
 Alpha virt. eigenvalues --    0.85135   0.86370   0.87164   0.88245   0.89757
 Alpha virt. eigenvalues --    0.91988   0.92560   0.93132   0.94272   0.94993
 Alpha virt. eigenvalues --    0.96007   0.96800   0.97894   0.99074   0.99746
 Alpha virt. eigenvalues --    1.01414   1.02997   1.04900   1.06225   1.07305
 Alpha virt. eigenvalues --    1.07953   1.08119   1.10663   1.11157   1.11441
 Alpha virt. eigenvalues --    1.12927   1.14523   1.15517   1.16298   1.16771
 Alpha virt. eigenvalues --    1.17531   1.18823   1.19043   1.20085   1.21791
 Alpha virt. eigenvalues --    1.22372   1.23667   1.26579   1.28175   1.29173
 Alpha virt. eigenvalues --    1.29885   1.31687   1.32595   1.33269   1.34063
 Alpha virt. eigenvalues --    1.34354   1.35812   1.37110   1.37937   1.39759
 Alpha virt. eigenvalues --    1.40041   1.40415   1.40928   1.41282   1.42582
 Alpha virt. eigenvalues --    1.42920   1.43324   1.43775   1.45827   1.47569
 Alpha virt. eigenvalues --    1.49377   1.51257   1.51577   1.52249   1.53145
 Alpha virt. eigenvalues --    1.55249   1.55836   1.56324   1.58933   1.59309
 Alpha virt. eigenvalues --    1.60791   1.61369   1.62698   1.63812   1.66255
 Alpha virt. eigenvalues --    1.67543   1.67940   1.71436   1.71929   1.73052
 Alpha virt. eigenvalues --    1.73240   1.73585   1.75402   1.75869   1.76566
 Alpha virt. eigenvalues --    1.78281   1.79348   1.80764   1.82973   1.83119
 Alpha virt. eigenvalues --    1.83592   1.84945   1.85765   1.86156   1.86914
 Alpha virt. eigenvalues --    1.87526   1.88248   1.88846   1.89526   1.89985
 Alpha virt. eigenvalues --    1.90639   1.91600   1.91769   1.92690   1.93778
 Alpha virt. eigenvalues --    1.94017   1.94523   1.95380   1.96402   1.96979
 Alpha virt. eigenvalues --    1.98444   1.99036   2.00121   2.00593   2.01359
 Alpha virt. eigenvalues --    2.02152   2.02259   2.03004   2.03845   2.04296
 Alpha virt. eigenvalues --    2.05174   2.05802   2.06643   2.07338   2.08505
 Alpha virt. eigenvalues --    2.09520   2.09877   2.11014   2.12368   2.12564
 Alpha virt. eigenvalues --    2.13057   2.14180   2.15766   2.16770   2.16974
 Alpha virt. eigenvalues --    2.17960   2.19257   2.20888   2.21163   2.22039
 Alpha virt. eigenvalues --    2.23716   2.24443   2.25978   2.26848   2.28135
 Alpha virt. eigenvalues --    2.29818   2.30401   2.30995   2.32215   2.33398
 Alpha virt. eigenvalues --    2.36126   2.37615   2.39162   2.43029   2.43203
 Alpha virt. eigenvalues --    2.43849   2.44910   2.46274   2.47203   2.48365
 Alpha virt. eigenvalues --    2.49374   2.51860   2.52857   2.55054   2.56459
 Alpha virt. eigenvalues --    2.58533   2.60534   2.60768   2.61540   2.64436
 Alpha virt. eigenvalues --    2.66031   2.68055   2.69030   2.70777   2.72051
 Alpha virt. eigenvalues --    2.74566   2.75797   2.76162   2.76994   2.79947
 Alpha virt. eigenvalues --    2.81945   2.82986   2.85401   2.86787   2.87498
 Alpha virt. eigenvalues --    2.89287   2.89578   2.90036   2.92630   2.93148
 Alpha virt. eigenvalues --    2.93799   2.95941   2.98293   2.99608   3.00684
 Alpha virt. eigenvalues --    3.03269   3.04402   3.05622   3.07625   3.08531
 Alpha virt. eigenvalues --    3.11127   3.14063   3.15418   3.16763   3.17288
 Alpha virt. eigenvalues --    3.20875   3.23286   3.26649   3.29652   3.30502
 Alpha virt. eigenvalues --    3.34364   3.36381   3.37931   3.44298   3.47885
 Alpha virt. eigenvalues --    3.53179   3.61208   3.68574   4.09270   4.12072
 Alpha virt. eigenvalues --    4.13767   4.23929   4.29565   4.29771   4.32759
 Alpha virt. eigenvalues --    4.38246   4.45281   4.47848   4.49663   4.62641
 Alpha virt. eigenvalues --    4.67642   4.70070   4.72834   4.74370   4.81760
 Alpha virt. eigenvalues --    5.02153   5.06560   5.20514   5.39688   5.57015
 Alpha virt. eigenvalues --    5.75380   6.34223   6.65565
          Condensed to atoms (all electrons):
               1          2          3          4          5          6
     1  C    4.942553   0.369264  -0.053170  -0.003467  -0.003431  -0.000213
     2  C    0.369264   4.786092   0.251062  -0.025198   0.002890   0.003478
     3  N   -0.053170   0.251062   7.318461   0.229088  -0.092981  -0.106047
     4  C   -0.003467  -0.025198   0.229088   4.167609   0.631730   0.261827
     5  O   -0.003431   0.002890  -0.092981   0.631730   8.055544  -0.092256
     6  N   -0.000213   0.003478  -0.106047   0.261827  -0.092256   7.113214
     7  C   -0.000013  -0.000046   0.002990  -0.021174   0.001518   0.267325
     8  O    0.000000   0.000001   0.000118   0.001531  -0.000024  -0.094147
     9  N   -0.000227   0.003281  -0.098023   0.002399   0.000070  -0.101101
    10  C    0.000012  -0.000024   0.002218   0.000255   0.000002   0.001684
    11  F    0.000000   0.000000  -0.000026   0.000008   0.000000   0.000032
    12  F    0.000000   0.000005   0.000026   0.000004   0.000000  -0.000027
    13  C   -0.000002   0.000003  -0.000259   0.000056   0.000000  -0.000245
    14  F    0.000000   0.000000   0.000000   0.000010   0.000000  -0.000032
    15  O   -0.000015   0.000003  -0.000186   0.000010   0.000000   0.000003
    16  C   -0.000008   0.000002   0.000021   0.000000   0.000000   0.000000
    17  F   -0.000020   0.000000   0.000000   0.000000   0.000000   0.000000
    18  F    0.000000   0.000000   0.000000   0.000000   0.000000   0.000000
    19  F    0.000000   0.000000  -0.000003   0.000000   0.000000   0.000000
    20  C    0.000000   0.000000   0.000000   0.000000   0.000000  -0.000001
    21  F    0.000000   0.000000   0.000000   0.000000   0.000000   0.000000
    22  F    0.000000   0.000000   0.000000   0.000000   0.000000   0.000000
    23  F    0.000000   0.000000   0.000000   0.000000   0.000000   0.000000
    24  C   -0.002985  -0.024647   0.260491  -0.019923  -0.000089  -0.002232
    25  O   -0.003501   0.002907  -0.090131  -0.000115  -0.000022   0.000162
    26  H    0.388615  -0.031926  -0.006235   0.004313   0.004185  -0.000090
    27  H    0.385458  -0.027991   0.004038  -0.000019  -0.000003   0.000001
    28  H    0.388591  -0.031898  -0.006244  -0.000184   0.000039   0.000004
    29  H   -0.038714   0.392381  -0.034200   0.004647   0.000471  -0.000127
    30  H   -0.038708   0.392943  -0.034881  -0.003435   0.007454   0.000377
    31  H    0.000010  -0.000090   0.004277  -0.012706   0.003985   0.334332
               7          8          9         10         11         12
     1  C   -0.000013   0.000000  -0.000227   0.000012   0.000000   0.000000
     2  C   -0.000046   0.000001   0.003281  -0.000024   0.000000   0.000005
     3  N    0.002990   0.000118  -0.098023   0.002218  -0.000026   0.000026
     4  C   -0.021174   0.001531   0.002399   0.000255   0.000008   0.000004
     5  O    0.001518  -0.000024   0.000070   0.000002   0.000000   0.000000
     6  N    0.267325  -0.094147  -0.101101   0.001684   0.000032  -0.000027
     7  C    4.199567   0.617053   0.181401  -0.016305   0.007010   0.000627
     8  O    0.617053   8.065168  -0.092356   0.014713  -0.009484   0.000007
     9  N    0.181401  -0.092356   7.568245   0.171507  -0.038462  -0.040982
    10  C   -0.016305   0.014713   0.171507   4.431311   0.265200   0.272068
    11  F    0.007010  -0.009484  -0.038462   0.265200   9.100124  -0.043078
    12  F    0.000627   0.000007  -0.040982   0.272068  -0.043078   9.098111
    13  C   -0.001589  -0.002346  -0.063909   0.165219  -0.025680  -0.032665
    14  F    0.009494  -0.003491  -0.001103  -0.025424  -0.000199   0.000301
    15  O   -0.000251  -0.000003   0.000430  -0.036929   0.000599   0.000857
    16  C    0.000013   0.000001   0.000030  -0.003825   0.000062   0.001393
    17  F    0.000000   0.000000   0.000003  -0.000069   0.000000  -0.000002
    18  F    0.000000   0.000000  -0.000001  -0.000025   0.000000  -0.000001
    19  F    0.000001   0.000000  -0.000143   0.001627   0.000000  -0.004720
    20  C    0.000232  -0.000055   0.003491  -0.038600   0.005202   0.002779
    21  F    0.000001   0.000000   0.000022   0.009292  -0.000639  -0.000168
    22  F    0.000000   0.000000  -0.000013   0.001729   0.000000  -0.000001
    23  F   -0.000013  -0.000001  -0.000016   0.000193  -0.002688  -0.000166
    24  C   -0.016883  -0.000331   0.212336  -0.002689   0.000873   0.006119
    25  O   -0.000327  -0.000025  -0.092072   0.019750   0.000014  -0.008904
    26  H   -0.000005   0.000000   0.000006   0.000000   0.000000   0.000000
    27  H    0.000000   0.000000   0.000001   0.000000   0.000000   0.000000
    28  H    0.000007   0.000000  -0.000030  -0.000003   0.000000   0.000000
    29  H    0.000000   0.000000   0.000280  -0.000007   0.000000   0.000000
    30  H    0.000005   0.000000  -0.000102   0.000000   0.000000   0.000000
    31  H   -0.014307   0.003667   0.004201  -0.000046   0.000005   0.000000
              13         14         15         16         17         18
     1  C   -0.000002   0.000000  -0.000015  -0.000008  -0.000020   0.000000
     2  C    0.000003   0.000000   0.000003   0.000002   0.000000   0.000000
     3  N   -0.000259   0.000000  -0.000186   0.000021   0.000000   0.000000
     4  C    0.000056   0.000010   0.000010   0.000000   0.000000   0.000000
     5  O    0.000000   0.000000   0.000000   0.000000   0.000000   0.000000
     6  N   -0.000245  -0.000032   0.000003   0.000000   0.000000   0.000000
     7  C   -0.001589   0.009494  -0.000251   0.000013   0.000000   0.000000
     8  O   -0.002346  -0.003491  -0.000003   0.000001   0.000000   0.000000
     9  N   -0.063909  -0.001103   0.000430   0.000030   0.000003  -0.000001
    10  C    0.165219  -0.025424  -0.036929  -0.003825  -0.000069  -0.000025
    11  F   -0.025680  -0.000199   0.000599   0.000062   0.000000   0.000000
    12  F   -0.032665   0.000301   0.000857   0.001393  -0.000002  -0.000001
    13  C    5.002689   0.243282   0.160689  -0.002883   0.000849  -0.006435
    14  F    0.243282   9.099886  -0.045649   0.000164  -0.000002  -0.000007
    15  O    0.160689  -0.045649   8.361089   0.224709  -0.037365  -0.046399
    16  C   -0.002883   0.000164   0.224709   3.828501   0.332117   0.302249
    17  F    0.000849  -0.000002  -0.037365   0.332117   9.020851  -0.037200
    18  F   -0.006435  -0.000007  -0.046399   0.302249  -0.037200   9.060004
    19  F    0.009106  -0.000002  -0.044802   0.287642  -0.034538  -0.034593
    20  C    0.215472  -0.010601  -0.024233  -0.001540  -0.000067   0.015868
    21  F   -0.043280   0.000306  -0.000823   0.010560  -0.000001  -0.002364
    22  F   -0.023838  -0.000793  -0.001049   0.000838   0.000000  -0.002809
    23  F   -0.025930  -0.000800   0.000517   0.000035   0.000000   0.000001
    24  C   -0.004638  -0.000415   0.004723   0.000179   0.000151   0.000007
    25  O   -0.005075   0.000011  -0.005682   0.007576  -0.000184  -0.000002
    26  H    0.000000   0.000000   0.000000   0.000000   0.000000   0.000000
    27  H    0.000000   0.000000   0.000000   0.000000   0.000000   0.000000
    28  H    0.000005   0.000000   0.000081   0.000062   0.000213   0.000000
    29  H    0.000001   0.000000   0.000002   0.000000   0.000000   0.000000
    30  H    0.000000   0.000000   0.000000   0.000000   0.000000   0.000000
    31  H    0.000004   0.000001   0.000000   0.000000   0.000000   0.000000
              19         20         21         22         23         24
     1  C    0.000000   0.000000   0.000000   0.000000   0.000000  -0.002985
     2  C    0.000000   0.000000   0.000000   0.000000   0.000000  -0.024647
     3  N   -0.000003   0.000000   0.000000   0.000000   0.000000   0.260491
     4  C    0.000000   0.000000   0.000000   0.000000   0.000000  -0.019923
     5  O    0.000000   0.000000   0.000000   0.000000   0.000000  -0.000089
     6  N    0.000000  -0.000001   0.000000   0.000000   0.000000  -0.002232
     7  C    0.000001   0.000232   0.000001   0.000000  -0.000013  -0.016883
     8  O    0.000000  -0.000055   0.000000   0.000000  -0.000001  -0.000331
     9  N   -0.000143   0.003491   0.000022  -0.000013  -0.000016   0.212336
    10  C    0.001627  -0.038600   0.009292   0.001729   0.000193  -0.002689
    11  F    0.000000   0.005202  -0.000639   0.000000  -0.002688   0.000873
    12  F   -0.004720   0.002779  -0.000168  -0.000001  -0.000166   0.006119
    13  C    0.009106   0.215472  -0.043280  -0.023838  -0.025930  -0.004638
    14  F   -0.000002  -0.010601   0.000306  -0.000793  -0.000800  -0.000415
    15  O   -0.044802  -0.024233  -0.000823  -0.001049   0.000517   0.004723
    16  C    0.287642  -0.001540   0.010560   0.000838   0.000035   0.000179
    17  F   -0.034538  -0.000067  -0.000001   0.000000   0.000000   0.000151
    18  F   -0.034593   0.015868  -0.002364  -0.002809   0.000001   0.000007
    19  F    9.069158  -0.004051  -0.003519   0.000002   0.000000  -0.000295
    20  C   -0.004051   4.207349   0.255890   0.277931   0.293444   0.000054
    21  F   -0.003519   0.255890   9.097806  -0.037660  -0.038412  -0.000001
    22  F    0.000002   0.277931  -0.037660   9.085567  -0.039897   0.000000
    23  F    0.000000   0.293444  -0.038412  -0.039897   9.057958   0.000001
    24  C   -0.000295   0.000054  -0.000001   0.000000   0.000001   4.178280
    25  O   -0.000438   0.000000   0.000000   0.000000   0.000000   0.573027
    26  H    0.000000   0.000000   0.000000   0.000000   0.000000  -0.000135
    27  H    0.000000   0.000000   0.000000   0.000000   0.000000  -0.000018
    28  H   -0.000001   0.000000   0.000000   0.000000   0.000000   0.004186
    29  H    0.000000   0.000000   0.000000   0.000000   0.000000  -0.003933
    30  H    0.000000   0.000000   0.000000   0.000000   0.000000   0.004388
    31  H    0.000000   0.000000   0.000000   0.000000   0.000000   0.000179
              25         26         27         28         29         30
     1  C   -0.003501   0.388615   0.385458   0.388591  -0.038714  -0.038708
     2  C    0.002907  -0.031926  -0.027991  -0.031898   0.392381   0.392943
     3  N   -0.090131  -0.006235   0.004038  -0.006244  -0.034200  -0.034881
     4  C   -0.000115   0.004313  -0.000019  -0.000184   0.004647  -0.003435
     5  O   -0.000022   0.004185  -0.000003   0.000039   0.000471   0.007454
     6  N    0.000162  -0.000090   0.000001   0.000004  -0.000127   0.000377
     7  C   -0.000327  -0.000005   0.000000   0.000007   0.000000   0.000005
     8  O   -0.000025   0.000000   0.000000   0.000000   0.000000   0.000000
     9  N   -0.092072   0.000006   0.000001  -0.000030   0.000280  -0.000102
    10  C    0.019750   0.000000   0.000000  -0.000003  -0.000007   0.000000
    11  F    0.000014   0.000000   0.000000   0.000000   0.000000   0.000000
    12  F   -0.008904   0.000000   0.000000   0.000000   0.000000   0.000000
    13  C   -0.005075   0.000000   0.000000   0.000005   0.000001   0.000000
    14  F    0.000011   0.000000   0.000000   0.000000   0.000000   0.000000
    15  O   -0.005682   0.000000   0.000000   0.000081   0.000002   0.000000
    16  C    0.007576   0.000000   0.000000   0.000062   0.000000   0.000000
    17  F   -0.000184   0.000000   0.000000   0.000213   0.000000   0.000000
    18  F   -0.000002   0.000000   0.000000   0.000000   0.000000   0.000000
    19  F   -0.000438   0.000000   0.000000  -0.000001   0.000000   0.000000
    20  C    0.000000   0.000000   0.000000   0.000000   0.000000   0.000000
    21  F    0.000000   0.000000   0.000000   0.000000   0.000000   0.000000
    22  F    0.000000   0.000000   0.000000   0.000000   0.000000   0.000000
    23  F    0.000000   0.000000   0.000000   0.000000   0.000000   0.000000
    24  C    0.573027  -0.000135  -0.000018   0.004186  -0.003933   0.004388
    25  O    8.101374   0.000051   0.000001   0.004462   0.006446   0.000465
    26  H    0.000051   0.569850  -0.024986  -0.030986   0.004504  -0.004955
    27  H    0.000001  -0.024986   0.563588  -0.024866  -0.001505  -0.001428
    28  H    0.004462  -0.030986  -0.024866   0.568091  -0.005008   0.004422
    29  H    0.006446   0.004504  -0.001505  -0.005008   0.551049  -0.028445
    30  H    0.000465  -0.004955  -0.001428   0.004422  -0.028445   0.548067
    31  H    0.000006   0.000002   0.000000   0.000000   0.000001  -0.000008
              31
     1  C    0.000010
     2  C   -0.000090
     3  N    0.004277
     4  C   -0.012706
     5  O    0.003985
     6  N    0.334332
     7  C   -0.014307
     8  O    0.003667
     9  N    0.004201
    10  C   -0.000046
    11  F    0.000005
    12  F    0.000000
    13  C    0.000004
    14  F    0.000001
    15  O    0.000000
    16  C    0.000000
    17  F    0.000000
    18  F    0.000000
    19  F    0.000000
    20  C    0.000000
    21  F    0.000000
    22  F    0.000000
    23  F    0.000000
    24  C    0.000179
    25  O    0.000006
    26  H    0.000002
    27  H    0.000000
    28  H    0.000000
    29  H    0.000001
    30  H   -0.000008
    31  H    0.342502
 Mulliken charges:
               1
     1  C   -0.330028
     2  C   -0.062492
     3  N   -0.550401
     4  C    0.782732
     5  O   -0.519084
     6  N   -0.585922
     7  C    0.783669
     8  O   -0.499997
     9  N   -0.619166
    10  C    0.767166
    11  F   -0.258875
    12  F   -0.251582
    13  C    0.441401
    14  F   -0.264938
    15  O   -0.510327
    16  C    1.012102
    17  F   -0.244735
    18  F   -0.248292
    19  F   -0.240432
    20  C    0.801435
    21  F   -0.247009
    22  F   -0.260004
    23  F   -0.244226
    24  C    0.834220
    25  O   -0.509776
    26  H    0.127791
    27  H    0.127728
    28  H    0.129055
    29  H    0.152159
    30  H    0.153843
    31  H    0.333986
 Sum of Mulliken charges =   0.00000
 Mulliken charges with hydrogens summed into heavy atoms:
               1
     1  C    0.054546
     2  C    0.243510
     3  N   -0.550401
     4  C    0.782732
     5  O   -0.519084
     6  N   -0.251937
     7  C    0.783669
     8  O   -0.499997
     9  N   -0.619166
    10  C    0.767166
    11  F   -0.258875
    12  F   -0.251582
    13  C    0.441401
    14  F   -0.264938
    15  O   -0.510327
    16  C    1.012102
    17  F   -0.244735
    18  F   -0.248292
    19  F   -0.240432
    20  C    0.801435
    21  F   -0.247009
    22  F   -0.260004
    23  F   -0.244226
    24  C    0.834220
    25  O   -0.509776
 Electronic spatial extent (au):  <R**2>=           7366.4576
 Charge=              0.0000 electrons
 Dipole moment (field-independent basis, Debye):
    X=              2.7998    Y=              0.4459    Z=             -0.0739  Tot=              2.8361
 Quadrupole moment (field-independent basis, Debye-Ang):
   XX=           -140.5442   YY=           -139.4254   ZZ=           -133.5976
   XY=              1.1996   XZ=             -3.1698   YZ=              1.0124
 Traceless Quadrupole moment (field-independent basis, Debye-Ang):
   XX=             -2.6885   YY=             -1.5697   ZZ=              4.2581
   XY=              1.1996   XZ=             -3.1698   YZ=              1.0124
 Octapole moment (field-independent basis, Debye-Ang**2):
  XXX=            229.5298  YYY=             16.2612  ZZZ=             69.0260  XYY=             91.6528
  XXY=             51.5775  XXZ=             20.1339  XZZ=             87.2740  YZZ=              6.2592
  YYZ=             26.1687  XYZ=             11.5416
 Hexadecapole moment (field-independent basis, Debye-Ang**3):
 XXXX=          -5167.9169 YYYY=          -1972.6288 ZZZZ=           -942.0534 XXXY=            593.8974
 XXXZ=           -179.5312 YYYX=            335.6352 YYYZ=           -278.6244 ZZZX=           -179.6997
 ZZZY=           -275.4959 XXYY=          -1238.8819 XXZZ=           -990.6186 YYZZ=           -499.3083
 XXYZ=            -75.6471 YYXZ=            -87.1870 ZZXY=            131.5609
 N-N= 2.858136214375D+03 E-N=-9.749665111299D+03  KE= 1.697031896975D+03
 No NMR shielding tensors so no spin-rotation constants.
 Leave Link  601 at Sun Mar  3 18:04:39 2024, MaxMem=  5368709120 cpu:         2.0
 (Enter /home/k0335/k033513/app/g09/l9999.exe)
 1\1\GINC-C24U16N1\SP\RCAM-B3LYP\6-31G(d,p)\C9H6F9N3O4\K033513\03-Mar-2
 024\0\\#p CAM-B3LYP/6-31G(d,p) SCRF=(PCM,Solvent=Generic,Read) NoSymm 
 out=wfn\\Title A891418171_0\\0,1\C,0,3.162896,0.785564,1.652452\C,0,3.
 211664,0.57597,0.144869\N,0,2.181435,-0.352971,-0.313242\C,0,2.455325,
 -1.69998,-0.266289\O,0,3.511064,-2.180497,0.138047\N,0,1.445559,-2.519
 876,-0.652292\C,0,0.168543,-2.110895,-0.863415\O,0,-0.732587,-2.943714
 ,-0.854795\N,0,-0.015759,-0.765737,-1.031135\C,0,-1.374533,-0.296925,-
 1.25358\F,0,-1.980377,-1.147194,-2.132534\F,0,-1.332199,0.873686,-1.94
 5943\C,0,-2.235897,-0.151885,0.03012\F,0,-2.256094,-1.372258,0.66901\O
 ,0,-1.667891,0.700728,1.032628\C,0,-1.985949,2.066251,0.90162\F,0,-1.1
 70578,2.779059,1.69903\F,0,-3.253239,2.265515,1.299772\F,0,-1.847812,2
 .483179,-0.361732\C,0,-3.67568,0.135984,-0.416317\F,0,-3.790303,1.2864
 73,-1.112103\F,0,-4.497618,0.241393,0.657908\F,0,-4.187983,-0.846793,-
 1.189906\C,0,0.914935,0.137853,-0.577462\O,0,0.627381,1.316042,-0.3672
 84\H,0,3.31508,-0.157193,2.187809\H,0,3.944972,1.48499,1.963371\H,0,2.
 196075,1.193196,1.964998\H,0,3.081935,1.538674,-0.362694\H,0,4.197836,
 0.190036,-0.137718\H,0,1.589798,-3.508675,-0.503191\\Version=ES64L-G09
 RevD.01\HF=-1709.8172437\RMSD=7.098e-09\Dipole=1.1015365,0.1754197,-0.
 0290617\Quadrupole=-1.9987973,-1.1669984,3.1657957,0.8918845,-2.356639
 1,0.7526585\PG=C01 [X(C9H6F9N3O4)]\\@

 Writing a WFN file to "A891418171/A891418171_0.wfn"


 A DANDELION FROM A LOVER MEANS MORE THAN AN ORCHID FROM A FRIEND.
 Job cpu time:       0 days  0 hours  9 minutes 46.7 seconds.
 File lengths (MBytes):  RWF=    195 Int=      0 D2E=      0 Chk=      8 Scr=      1
 Normal termination of Gaussian 09 at Sun Mar  3 18:04:39 2024.
