 Entering Gaussian System, Link 0=g09
 Initial command:
 /home/k0335/k033513/app/g09/l1.exe "/home/k0335/k033513/app/g09/scratch/Gau-932581.inp" -scrdir="/home/k0335/k033513/app/g09/scratch/"
 Default is to use a total of  36 processors:
                               36 via shared-memory
                                1 via Linda
 Entering Link 1 = /home/k0335/k033513/app/g09/l1.exe PID=    932582.
  
 Copyright (c) 1988,1990,1992,1993,1995,1998,2003,2009,2013,
            Gaussian, Inc.  All Rights Reserved.
  
 This is part of the Gaussian(R) 09 program.  It is based on
 the Gaussian(R) 03 system (copyright 2003, Gaussian, Inc.),
 the Gaussian(R) 98 system (copyright 1998, Gaussian, Inc.),
 the Gaussian(R) 94 system (copyright 1995, Gaussian, Inc.),
 the Gaussian 92(TM) system (copyright 1992, Gaussian, Inc.),
 the Gaussian 90(TM) system (copyright 1990, Gaussian, Inc.),
 the Gaussian 88(TM) system (copyright 1988, Gaussian, Inc.),
 the Gaussian 86(TM) system (copyright 1986, Carnegie Mellon
 University), and the Gaussian 82(TM) system (copyright 1983,
 Carnegie Mellon University). Gaussian is a federally registered
 trademark of Gaussian, Inc.
  
 This software contains proprietary and confidential information,
 including trade secrets, belonging to Gaussian, Inc.
  
 This software is provided under written license and may be
 used, copied, transmitted, or stored only in accord with that
 written license.
  
 The following legend is applicable only to US Government
 contracts under FAR:
  
                    RESTRICTED RIGHTS LEGEND
  
 Use, reproduction and disclosure by the US Government is
 subject to restrictions as set forth in subparagraphs (a)
 and (c) of the Commercial Computer Software - Restricted
 Rights clause in FAR 52.227-19.
  
 Gaussian, Inc.
 340 Quinnipiac St., Bldg. 40, Wallingford CT 06492
  
  
 ---------------------------------------------------------------
 Warning -- This program may not be used in any manner that
 competes with the business of Gaussian, Inc. or will provide
 assistance to any competitor of Gaussian, Inc.  The licensee
 of this program is prohibited from giving any competitor of
 Gaussian, Inc. access to this program.  By using this program,
 the user acknowledges that Gaussian, Inc. is engaged in the
 business of creating and licensing software in the field of
 computational chemistry and represents and warrants to the
 licensee that it is not a competitor of Gaussian, Inc. and that
 it will not use this program in any manner prohibited above.
 ---------------------------------------------------------------
  

 Cite this work as:
 Gaussian 09, Revision D.01,
 M. J. Frisch, G. W. Trucks, H. B. Schlegel, G. E. Scuseria, 
 M. A. Robb, J. R. Cheeseman, G. Scalmani, V. Barone, B. Mennucci, 
 G. A. Petersson, H. Nakatsuji, M. Caricato, X. Li, H. P. Hratchian, 
 A. F. Izmaylov, J. Bloino, G. Zheng, J. L. Sonnenberg, M. Hada, 
 M. Ehara, K. Toyota, R. Fukuda, J. Hasegawa, M. Ishida, T. Nakajima, 
 Y. Honda, O. Kitao, H. Nakai, T. Vreven, J. A. Montgomery, Jr., 
 J. E. Peralta, F. Ogliaro, M. Bearpark, J. J. Heyd, E. Brothers, 
 K. N. Kudin, V. N. Staroverov, T. Keith, R. Kobayashi, J. Normand, 
 K. Raghavachari, A. Rendell, J. C. Burant, S. S. Iyengar, J. Tomasi, 
 M. Cossi, N. Rega, J. M. Millam, M. Klene, J. E. Knox, J. B. Cross, 
 V. Bakken, C. Adamo, J. Jaramillo, R. Gomperts, R. E. Stratmann, 
 O. Yazyev, A. J. Austin, R. Cammi, C. Pomelli, J. W. Ochterski, 
 R. L. Martin, K. Morokuma, V. G. Zakrzewski, G. A. Voth, 
 P. Salvador, J. J. Dannenberg, S. Dapprich, A. D. Daniels, 
 O. Farkas, J. B. Foresman, J. V. Ortiz, J. Cioslowski, 
 and D. J. Fox, Gaussian, Inc., Wallingford CT, 2013.
 
 ******************************************
 Gaussian 09:  ES64L-G09RevD.01 24-Apr-2013
                 2-Feb-2025 
 ******************************************
 %nprocshared=24
 Will use up to   24 processors via shared memory.
 %mem=40GB
 %rwf=wang5/TAIC2/TAIC2_neu.rwf
 %nosave
 %chk=wang5/TAIC2/TAIC2_neu.chk
 ----------------------------------------------------------------------
 #p CAM-B3LYP/6-31G(d,p) SCRF=(PCM,Solvent=Generic,Read) NoSymm out=wfn
 ----------------------------------------------------------------------
 1/38=1,40=2/1;
 2/12=2,15=1,17=6,18=5,40=1/2;
 3/5=1,6=6,7=101,11=2,16=1,25=1,30=1,70=2203,72=-2,74=-40/1,2,3;
 4//1;
 5/5=2,38=5/2;
 6/7=2,8=2,9=2,10=2,28=1/1;
 99/5=1,6=100,9=1/99;
 Leave Link    1 at Sun Feb  2 08:56:43 2025, MaxMem=  5368709120 cpu:         1.1
 (Enter /home/k0335/k033513/app/g09/l101.exe)
 ---------------
 Title TAIC2_neu
 ---------------
 Symbolic Z-matrix:
 Charge =  0 Multiplicity = 1
 O                     1.0077    1.96238   2.0506 
 C                     0.30413   0.95177   2.01127 
 N                     0.85475  -0.31124   2.05491 
 C                     2.30919  -0.42585   2.1441 
 C                     2.96255  -0.3968    0.75852 
 C                     4.48611  -0.51195   0.85689 
 C                     5.14102  -0.49154  -0.52176 
 F                     4.78481   0.65759  -1.16215 
 F                     4.63224  -1.51303  -1.26638 
 C                     6.6751   -0.59961  -0.44252 
 F                     7.17304   0.42092   0.30043 
 F                     7.02103  -1.7532    0.18574 
 O                     7.27048  -0.60176  -1.71735 
 C                     8.63489  -0.33158  -1.59562 
 F                     8.83136   0.98452  -1.39035 
 F                     9.20645  -1.03807  -0.60384 
 F                     9.23881  -0.66842  -2.75488 
 C                     0.1215   -1.46532   1.88427 
 O                     0.66026  -2.57032   1.78761 
 N                    -1.24603  -1.31512   1.80586 
 C                    -2.06188  -2.51449   1.62893 
 C                    -2.22521  -2.87226   0.14798 
 C                    -3.08619  -4.12583  -0.03216 
 C                    -3.24695  -4.489    -1.50801 
 F                    -3.77488  -3.42719  -2.17376 
 F                    -2.00739  -4.68294  -2.04136 
 C                    -4.11529  -5.75427  -1.72109 
 F                    -4.17844  -6.10441  -3.03044 
 F                    -3.49258  -6.80301  -1.10297 
 O                    -5.42321  -5.76208  -1.20163 
 C                    -6.19513  -4.73692  -1.75998 
 F                    -5.96231  -3.59635  -1.08401 
 F                    -5.94483  -4.55089  -3.06501 
 F                    -7.49672  -5.05342  -1.61086 
 C                    -1.87293  -0.08875   1.75449 
 O                    -3.08899   0.00874   1.57316 
 N                    -1.06662   1.02313   1.89235 
 C                    -1.70667   2.34086   1.85728 
 C                    -2.00734   2.82244   0.42899 
 C                    -0.80675   3.37189  -0.34899 
 C                    -0.26585   4.7367    0.09122 
 F                     0.84085   4.98887  -0.67505 
 F                     0.18287   4.66117   1.37167 
 C                    -1.24882   5.91707  -0.05081 
 F                    -2.28881   5.76017   0.8084 
 F                    -0.63758   7.08103   0.27834 
 O                    -1.78458   6.00313  -1.35048 
 C                    -2.34083   7.27238  -1.54023 
 F                    -3.12172   7.22387  -2.64074 
 F                    -3.10621   7.65001  -0.5009 
 F                    -1.37191   8.18062  -1.75678 
 H                     2.70118   0.39372   2.75827 
 H                     2.56853  -1.35884   2.65863 
 H                     2.56742  -1.21741   0.14739 
 H                     2.6943    0.53351   0.24298 
 H                     4.86892   0.32094   1.45828 
 H                     4.74164  -1.44598   1.37098 
 H                    -1.59879  -3.35129   2.16543 
 H                    -3.04653  -2.35339   2.0838 
 H                    -2.6813   -2.03041  -0.38704 
 H                    -1.23868  -3.03188  -0.3038 
 H                    -4.06662  -3.9516    0.42364 
 H                    -2.61485  -4.96098   0.49916 
 H                    -1.10523   3.07069   2.40615 
 H                    -2.6578    2.26414   2.3991 
 H                    -2.79591   3.57996   0.46991 
 H                    -2.42913   1.99096  -0.14967 
 H                    -1.08502   3.44038  -1.40843 
 H                     0.01142   2.64379  -0.31902 
 
 NAtoms=     69 NQM=       69 NQMF=       0 NMMI=      0 NMMIF=      0
                NMic=       0 NMicF=      0.
                    Isotopes and Nuclear Properties:
 (Nuclear quadrupole moments (NQMom) in fm**2, nuclear magnetic moments (NMagM)
  in nuclear magnetons)

  Atom         1           2           3           4           5           6           7           8           9          10
 IAtWgt=          16          12          14          12          12          12          12          19          19          12
 AtmWgt=  15.9949146  12.0000000  14.0030740  12.0000000  12.0000000  12.0000000  12.0000000  18.9984033  18.9984033  12.0000000
 NucSpn=           0           0           2           0           0           0           0           1           1           0
 AtZEff=   0.0000000   0.0000000   0.0000000   0.0000000   0.0000000   0.0000000   0.0000000   0.0000000   0.0000000   0.0000000
 NQMom=    0.0000000   0.0000000   2.0440000   0.0000000   0.0000000   0.0000000   0.0000000   0.0000000   0.0000000   0.0000000
 NMagM=    0.0000000   0.0000000   0.4037610   0.0000000   0.0000000   0.0000000   0.0000000   2.6288670   2.6288670   0.0000000
 AtZNuc=   8.0000000   6.0000000   7.0000000   6.0000000   6.0000000   6.0000000   6.0000000   9.0000000   9.0000000   6.0000000

  Atom        11          12          13          14          15          16          17          18          19          20
 IAtWgt=          19          19          16          12          19          19          19          12          16          14
 AtmWgt=  18.9984033  18.9984033  15.9949146  12.0000000  18.9984033  18.9984033  18.9984033  12.0000000  15.9949146  14.0030740
 NucSpn=           1           1           0           0           1           1           1           0           0           2
 AtZEff=   0.0000000   0.0000000   0.0000000   0.0000000   0.0000000   0.0000000   0.0000000   0.0000000   0.0000000   0.0000000
 NQMom=    0.0000000   0.0000000   0.0000000   0.0000000   0.0000000   0.0000000   0.0000000   0.0000000   0.0000000   2.0440000
 NMagM=    2.6288670   2.6288670   0.0000000   0.0000000   2.6288670   2.6288670   2.6288670   0.0000000   0.0000000   0.4037610
 AtZNuc=   9.0000000   9.0000000   8.0000000   6.0000000   9.0000000   9.0000000   9.0000000   6.0000000   8.0000000   7.0000000

  Atom        21          22          23          24          25          26          27          28          29          30
 IAtWgt=          12          12          12          12          19          19          12          19          19          16
 AtmWgt=  12.0000000  12.0000000  12.0000000  12.0000000  18.9984033  18.9984033  12.0000000  18.9984033  18.9984033  15.9949146
 NucSpn=           0           0           0           0           1           1           0           1           1           0
 AtZEff=   0.0000000   0.0000000   0.0000000   0.0000000   0.0000000   0.0000000   0.0000000   0.0000000   0.0000000   0.0000000
 NQMom=    0.0000000   0.0000000   0.0000000   0.0000000   0.0000000   0.0000000   0.0000000   0.0000000   0.0000000   0.0000000
 NMagM=    0.0000000   0.0000000   0.0000000   0.0000000   2.6288670   2.6288670   0.0000000   2.6288670   2.6288670   0.0000000
 AtZNuc=   6.0000000   6.0000000   6.0000000   6.0000000   9.0000000   9.0000000   6.0000000   9.0000000   9.0000000   8.0000000

  Atom        31          32          33          34          35          36          37          38          39          40
 IAtWgt=          12          19          19          19          12          16          14          12          12          12
 AtmWgt=  12.0000000  18.9984033  18.9984033  18.9984033  12.0000000  15.9949146  14.0030740  12.0000000  12.0000000  12.0000000
 NucSpn=           0           1           1           1           0           0           2           0           0           0
 AtZEff=   0.0000000   0.0000000   0.0000000   0.0000000   0.0000000   0.0000000   0.0000000   0.0000000   0.0000000   0.0000000
 NQMom=    0.0000000   0.0000000   0.0000000   0.0000000   0.0000000   0.0000000   2.0440000   0.0000000   0.0000000   0.0000000
 NMagM=    0.0000000   2.6288670   2.6288670   2.6288670   0.0000000   0.0000000   0.4037610   0.0000000   0.0000000   0.0000000
 AtZNuc=   6.0000000   9.0000000   9.0000000   9.0000000   6.0000000   8.0000000   7.0000000   6.0000000   6.0000000   6.0000000

  Atom        41          42          43          44          45          46          47          48          49          50
 IAtWgt=          12          19          19          12          19          19          16          12          19          19
 AtmWgt=  12.0000000  18.9984033  18.9984033  12.0000000  18.9984033  18.9984033  15.9949146  12.0000000  18.9984033  18.9984033
 NucSpn=           0           1           1           0           1           1           0           0           1           1
 AtZEff=   0.0000000   0.0000000   0.0000000   0.0000000   0.0000000   0.0000000   0.0000000   0.0000000   0.0000000   0.0000000
 NQMom=    0.0000000   0.0000000   0.0000000   0.0000000   0.0000000   0.0000000   0.0000000   0.0000000   0.0000000   0.0000000
 NMagM=    0.0000000   2.6288670   2.6288670   0.0000000   2.6288670   2.6288670   0.0000000   0.0000000   2.6288670   2.6288670
 AtZNuc=   6.0000000   9.0000000   9.0000000   6.0000000   9.0000000   9.0000000   8.0000000   6.0000000   9.0000000   9.0000000

  Atom        51          52          53          54          55          56          57          58          59          60
 IAtWgt=          19           1           1           1           1           1           1           1           1           1
 AtmWgt=  18.9984033   1.0078250   1.0078250   1.0078250   1.0078250   1.0078250   1.0078250   1.0078250   1.0078250   1.0078250
 NucSpn=           1           1           1           1           1           1           1           1           1           1
 AtZEff=   0.0000000   0.0000000   0.0000000   0.0000000   0.0000000   0.0000000   0.0000000   0.0000000   0.0000000   0.0000000
 NQMom=    0.0000000   0.0000000   0.0000000   0.0000000   0.0000000   0.0000000   0.0000000   0.0000000   0.0000000   0.0000000
 NMagM=    2.6288670   2.7928460   2.7928460   2.7928460   2.7928460   2.7928460   2.7928460   2.7928460   2.7928460   2.7928460
 AtZNuc=   9.0000000   1.0000000   1.0000000   1.0000000   1.0000000   1.0000000   1.0000000   1.0000000   1.0000000   1.0000000

  Atom        61          62          63          64          65          66          67          68          69
 IAtWgt=           1           1           1           1           1           1           1           1           1
 AtmWgt=   1.0078250   1.0078250   1.0078250   1.0078250   1.0078250   1.0078250   1.0078250   1.0078250   1.0078250
 NucSpn=           1           1           1           1           1           1           1           1           1
 AtZEff=   0.0000000   0.0000000   0.0000000   0.0000000   0.0000000   0.0000000   0.0000000   0.0000000   0.0000000
 NQMom=    0.0000000   0.0000000   0.0000000   0.0000000   0.0000000   0.0000000   0.0000000   0.0000000   0.0000000
 NMagM=    2.7928460   2.7928460   2.7928460   2.7928460   2.7928460   2.7928460   2.7928460   2.7928460   2.7928460
 AtZNuc=   1.0000000   1.0000000   1.0000000   1.0000000   1.0000000   1.0000000   1.0000000   1.0000000   1.0000000
 Leave Link  101 at Sun Feb  2 08:56:43 2025, MaxMem=  5368709120 cpu:         0.9
 (Enter /home/k0335/k033513/app/g09/l202.exe)
 Symmetry turned off by external request.
 Stoichiometry    C21H18F21N3O6
 Framework group  C1[X(C21H18F21N3O6)]
 Deg. of freedom   201
 Full point group                 C1      NOp   1
                          Input orientation:                          
 ---------------------------------------------------------------------
 Center     Atomic      Atomic             Coordinates (Angstroms)
 Number     Number       Type             X           Y           Z
 ---------------------------------------------------------------------
      1          8           0        1.007703    1.962382    2.050601
      2          6           0        0.304129    0.951774    2.011274
      3          7           0        0.854752   -0.311236    2.054907
      4          6           0        2.309187   -0.425851    2.144097
      5          6           0        2.962549   -0.396795    0.758518
      6          6           0        4.486115   -0.511952    0.856892
      7          6           0        5.141018   -0.491536   -0.521757
      8          9           0        4.784806    0.657592   -1.162154
      9          9           0        4.632238   -1.513026   -1.266382
     10          6           0        6.675100   -0.599610   -0.442522
     11          9           0        7.173035    0.420919    0.300432
     12          9           0        7.021026   -1.753197    0.185736
     13          8           0        7.270475   -0.601756   -1.717354
     14          6           0        8.634890   -0.331580   -1.595622
     15          9           0        8.831362    0.984520   -1.390345
     16          9           0        9.206453   -1.038065   -0.603839
     17          9           0        9.238811   -0.668416   -2.754877
     18          6           0        0.121503   -1.465317    1.884270
     19          8           0        0.660262   -2.570317    1.787614
     20          7           0       -1.246031   -1.315119    1.805861
     21          6           0       -2.061881   -2.514492    1.628925
     22          6           0       -2.225210   -2.872255    0.147982
     23          6           0       -3.086190   -4.125826   -0.032158
     24          6           0       -3.246948   -4.488997   -1.508008
     25          9           0       -3.774881   -3.427188   -2.173762
     26          9           0       -2.007391   -4.682941   -2.041361
     27          6           0       -4.115295   -5.754275   -1.721091
     28          9           0       -4.178437   -6.104413   -3.030436
     29          9           0       -3.492578   -6.803011   -1.102974
     30          8           0       -5.423214   -5.762076   -1.201627
     31          6           0       -6.195131   -4.736924   -1.759975
     32          9           0       -5.962310   -3.596352   -1.084012
     33          9           0       -5.944834   -4.550890   -3.065006
     34          9           0       -7.496721   -5.053416   -1.610857
     35          6           0       -1.872934   -0.088746    1.754490
     36          8           0       -3.088988    0.008744    1.573158
     37          7           0       -1.066620    1.023127    1.892346
     38          6           0       -1.706669    2.340865    1.857284
     39          6           0       -2.007344    2.822436    0.428986
     40          6           0       -0.806751    3.371885   -0.348989
     41          6           0       -0.265853    4.736704    0.091218
     42          9           0        0.840847    4.988868   -0.675054
     43          9           0        0.182866    4.661172    1.371672
     44          6           0       -1.248818    5.917068   -0.050808
     45          9           0       -2.288814    5.760173    0.808398
     46          9           0       -0.637576    7.081025    0.278344
     47          8           0       -1.784578    6.003133   -1.350484
     48          6           0       -2.340825    7.272383   -1.540233
     49          9           0       -3.121724    7.223872   -2.640735
     50          9           0       -3.106210    7.650008   -0.500903
     51          9           0       -1.371908    8.180618   -1.756784
     52          1           0        2.701177    0.393717    2.758274
     53          1           0        2.568528   -1.358843    2.658631
     54          1           0        2.567419   -1.217406    0.147392
     55          1           0        2.694296    0.533508    0.242978
     56          1           0        4.868918    0.320935    1.458278
     57          1           0        4.741636   -1.445982    1.370975
     58          1           0       -1.598792   -3.351289    2.165434
     59          1           0       -3.046528   -2.353389    2.083804
     60          1           0       -2.681295   -2.030409   -0.387040
     61          1           0       -1.238681   -3.031882   -0.303797
     62          1           0       -4.066622   -3.951595    0.423635
     63          1           0       -2.614847   -4.960980    0.499161
     64          1           0       -1.105227    3.070687    2.406150
     65          1           0       -2.657795    2.264141    2.399099
     66          1           0       -2.795912    3.579964    0.469910
     67          1           0       -2.429134    1.990960   -0.149674
     68          1           0       -1.085019    3.440384   -1.408431
     69          1           0        0.011418    2.643786   -0.319021
 ---------------------------------------------------------------------
 Rotational constants (GHZ):      0.0348236      0.0260529      0.0166966
 Leave Link  202 at Sun Feb  2 08:56:43 2025, MaxMem=  5368709120 cpu:         0.0
 (Enter /home/k0335/k033513/app/g09/l301.exe)
 Standard basis: 6-31G(d,p) (6D, 7F)
 Ernie: Thresh=  0.10000D-02 Tol=  0.10000D-05 Strict=F.
   855 basis functions,  1554 primitive gaussians,   855 cartesian basis functions
   201 alpha electrons      201 beta electrons
       nuclear repulsion energy      7569.3322462514 Hartrees.
 IExCor=20419 DFT=T Ex+Corr=CAM-B3LYP ExCW=0 ScaHFX=  1.000000
 ScaDFX=  1.000000  1.000000  1.000000  0.810000 ScalE2=  1.000000  1.000000
 IRadAn=      0 IRanWt=     -1 IRanGd=            0 ICorTp=0 IEmpDi=  4
  HFx wShort=  0.000000 wLong=  0.330000 cFull=  0.190000 cShort=  0.000000 cLong=  0.460000
  DFx wShort=  0.000000 wLong=  0.330000 cFull=  0.190000 cShort=  0.000000 cLong=  0.460000
 NAtoms=   69 NActive=   69 NUniq=   69 SFac= 1.00D+00 NAtFMM=   60 NAOKFM=T Big=T
 Integral buffers will be    131072 words long.
 Raffenetti 2 integral format.
 Two-electron integral symmetry is turned off.
 Using the following non-standard input for PCM:
 eps=4.9
 --- end of non-standard input.
 ------------------------------------------------------------------------------
 Polarizable Continuum Model (PCM)
 =================================
 Model                : PCM (using non-symmetric T matrix).
 Atomic radii         : UFF (Universal Force Field).
 Polarization charges : Total charges.
 Charge compensation  : None.
 Solution method      : On-the-fly selection.
 Cavity type          : Scaled VdW (van der Waals Surface) (Alpha=1.100).
 Cavity algorithm     : GePol (No added spheres)
                        Default sphere list used, NSphG=   69.
                        Lebedev-Laikov grids with approx.  5.0 points / Ang**2.
                        Smoothing algorithm: Karplus/York (Gamma=1.0000).
                        Polarization charges: spherical gaussians, with
                                              point-specific exponents (IZeta= 3).
                        Self-potential: point-specific (ISelfS= 7).
                        Self-field    : sphere-specific E.n sum rule (ISelfD= 2).
 Solvent              : Generic,
                        Eps                           =   4.900000
                        Eps(infinity)                 =   0.000000
                        RSolv                         =   0.000000 Ang.
                        Molar volume                  =   0.000000 cm**3/mol
                        Thermal expansion coefficient =   0.000000 K**-1
                        Absolute temperature          = 298.150000 K
                        Numeral density               =   0.000000 Ang**-3
                        Hydrogen bond acidity         =   0.000000
                        Hydrogen bond basicity        =   0.000000
                        Surface tension at interface  =   0.000000 (cal/mol)*Ang**-2
                        Carbon aromaticity            =   0.000000
                        Electronegative halogenicity  =   0.000000
 ------------------------------------------------------------------------------
 GePol: Number of generator spheres                  =      69
 GePol: Total number of spheres                      =      69
 GePol: Number of exposed spheres                    =      69 (100.00%)
 GePol: Number of points                             =    5481
 GePol: Average weight of points                     =       0.12
 GePol: Minimum weight of points                     =   0.57D-10
 GePol: Maximum weight of points                     =    0.20577
 GePol: Number of points with low weight             =     283
 GePol: Fraction of low-weight points (<1% of avg)   =       5.16%
 GePol: Cavity surface area                          =    682.578 Ang**2
 GePol: Cavity volume                                =    770.959 Ang**3
 Leave Link  301 at Sun Feb  2 08:56:43 2025, MaxMem=  5368709120 cpu:         0.8
 (Enter /home/k0335/k033513/app/g09/l302.exe)
 NPDir=0 NMtPBC=     1 NCelOv=     1 NCel=       1 NClECP=     1 NCelD=      1
         NCelK=      1 NCelE2=     1 NClLst=     1 CellRange=     0.0.
 One-electron integrals computed using PRISM.
 NBasis=   855 RedAO= T EigKep=  1.39D-03  NBF=   855
 NBsUse=   855 1.00D-06 EigRej= -1.00D+00 NBFU=   855
 Precomputing XC quadrature grid using
 IXCGrd= 4 IRadAn=           0 IRanWt=          -1 IRanGd=           0 AccXCQ= 0.00D+00.
 Generated NRdTot=       0 NPtTot=           0 NUsed=           0 NTot=          32
 NSgBfM=   677   678   679   684   691 MxSgAt=    69 MxSgA2=    68.
 Leave Link  302 at Sun Feb  2 08:56:44 2025, MaxMem=  5368709120 cpu:        32.3
 (Enter /home/k0335/k033513/app/g09/l303.exe)
 DipDrv:  MaxL=1.
 Leave Link  303 at Sun Feb  2 08:56:45 2025, MaxMem=  5368709120 cpu:         1.4
 (Enter /home/k0335/k033513/app/g09/l401.exe)
 ExpMin= 1.61D-01 ExpMax= 7.00D+03 ExpMxC= 1.05D+03 IAcc=1 IRadAn=         1 AccDes= 0.00D+00
 Harris functional with IExCor=20419 and IRadAn=       1 diagonalized for initial guess.
 HarFok:  IExCor=20419 AccDes= 0.00D+00 IRadAn=         1 IDoV= 1 UseB2=F ITyADJ=14
 ICtDFT=  3500011 ScaDFX=  1.000000  1.000000  1.000000  1.000000
 FoFCou: FMM=F IPFlag=           0 FMFlag=      100000 FMFlg1=        2001
         NFxFlg=           0 DoJE=T BraDBF=F KetDBF=T FulRan=T
         wScrn=  0.000000 ICntrl=     500 IOpCl=  0 I1Cent=   200000004 NGrid=           0
         NMat0=    1 NMatS0=      1 NMatT0=    0 NMatD0=    1 NMtDS0=    0 NMtDT0=    0
 Symmetry not used in FoFCou.
 Harris En= -3413.52496227889    
 JPrj=0 DoOrth=F DoCkMO=F.
 Leave Link  401 at Sun Feb  2 08:56:47 2025, MaxMem=  5368709120 cpu:        26.8
 (Enter /home/k0335/k033513/app/g09/l502.exe)
 Closed shell SCF:
 Using DIIS extrapolation, IDIIS=  1040.
 Two-electron integral symmetry not used.
 IVT=     2237413 IEndB=     2237413 NGot=  5368709120 MDV=  5367220228
 LenX=  5367220228 LenY=  5366488348
 Requested convergence on RMS density matrix=1.00D-08 within 128 cycles.
 Requested convergence on MAX density matrix=1.00D-06.
 Requested convergence on             energy=1.00D-06.
 No special actions if energy rises.
 Fock matrices will be formed incrementally for  20 cycles.

 Cycle   1  Pass 1  IDiag  1:
 FoFJK:  IHMeth= 1 ICntrl=       0 DoSepK=T KAlg= 0 I1Cent=   0 FoldK=F
 IRaf=         1 NMat=   1 IRICut=       1 DoRegI=T DoRafI=F ISym2E= 0.
 FoFCou: FMM=T IPFlag=           0 FMFlag=      100000 FMFlg1=        2001
         NFxFlg=           0 DoJE=T BraDBF=F KetDBF=F FulRan=T
         wScrn=  0.000000 ICntrl=     500 IOpCl=  0 I1Cent=           0 NGrid=           0
         NMat0=    1 NMatS0=      1 NMatT0=    0 NMatD0=    1 NMtDS0=    0 NMtDT0=    0
 Symmetry not used in FoFCou.
 FMM levels:  10  Number of levels for PrismC:   9
 Inv3:  Mode=1 IEnd=    90124083.
 Iteration    1 A*A^-1 deviation from unit magnitude is 1.33D-14 for    642.
 Iteration    1 A*A^-1 deviation from orthogonality  is 6.66D-15 for   5091    902.
 Iteration    1 A^-1*A deviation from unit magnitude is 1.20D-14 for    891.
 Iteration    1 A^-1*A deviation from orthogonality  is 2.24D-13 for   4822   4804.
 E= -3521.17505457608    
 DIIS: error= 5.84D-02 at cycle   1 NSaved=   1.
 NSaved= 1 IEnMin= 1 EnMin= -3521.17505457608     IErMin= 1 ErrMin= 5.84D-02
 ErrMax= 5.84D-02  0.00D+00 EMaxC= 1.00D-01 BMatC= 3.01D+00 BMatP= 3.01D+00
 IDIUse=3 WtCom= 4.16D-01 WtEn= 5.84D-01
 Coeff-Com:  0.100D+01
 Coeff-En:   0.100D+01
 Coeff:      0.100D+01
 Gap=     0.440 Goal=   None    Shift=    0.000
 GapD=    0.440 DampG=2.000 DampE=0.500 DampFc=1.0000 IDamp=-1.
 RMSDP=2.51D-03 MaxDP=1.35D-01              OVMax= 1.64D-01

 Cycle   2  Pass 1  IDiag  1:
 RMSU=  2.51D-03    CP:  9.97D-01
 E= -3521.57838876373     Delta-E=       -0.403334187653 Rises=F Damp=F
 DIIS: error= 2.54D-02 at cycle   2 NSaved=   2.
 NSaved= 2 IEnMin= 2 EnMin= -3521.57838876373     IErMin= 2 ErrMin= 2.54D-02
 ErrMax= 2.54D-02  0.00D+00 EMaxC= 1.00D-01 BMatC= 1.25D+00 BMatP= 3.01D+00
 IDIUse=3 WtCom= 7.46D-01 WtEn= 2.54D-01
 Coeff-Com:  0.374D+00 0.626D+00
 Coeff-En:   0.379D+00 0.621D+00
 Coeff:      0.375D+00 0.625D+00
 Gap=     0.426 Goal=   None    Shift=    0.000
 RMSDP=1.28D-03 MaxDP=1.20D-01 DE=-4.03D-01 OVMax= 1.22D-01

 Cycle   3  Pass 1  IDiag  1:
 RMSU=  7.57D-04    CP:  9.98D-01  5.87D-01
 E= -3522.24104445987     Delta-E=       -0.662655696135 Rises=F Damp=F
 DIIS: error= 1.07D-02 at cycle   3 NSaved=   3.
 NSaved= 3 IEnMin= 3 EnMin= -3522.24104445987     IErMin= 3 ErrMin= 1.07D-02
 ErrMax= 1.07D-02  0.00D+00 EMaxC= 1.00D-01 BMatC= 2.25D-01 BMatP= 1.25D+00
 IDIUse=3 WtCom= 8.93D-01 WtEn= 1.07D-01
 Coeff-Com:  0.976D-01 0.318D+00 0.584D+00
 Coeff-En:   0.000D+00 0.112D+00 0.888D+00
 Coeff:      0.871D-01 0.296D+00 0.617D+00
 Gap=     0.388 Goal=   None    Shift=    0.000
 RMSDP=5.78D-04 MaxDP=6.59D-02 DE=-6.63D-01 OVMax= 8.65D-02

 Cycle   4  Pass 1  IDiag  1:
 RMSU=  2.96D-04    CP:  9.97D-01  6.90D-01  4.41D-01
 E= -3522.37499756023     Delta-E=       -0.133953100361 Rises=F Damp=F
 DIIS: error= 5.37D-03 at cycle   4 NSaved=   4.
 NSaved= 4 IEnMin= 4 EnMin= -3522.37499756023     IErMin= 4 ErrMin= 5.37D-03
 ErrMax= 5.37D-03  0.00D+00 EMaxC= 1.00D-01 BMatC= 3.62D-02 BMatP= 2.25D-01
 IDIUse=3 WtCom= 9.46D-01 WtEn= 5.37D-02
 Coeff-Com:  0.873D-02 0.928D-01 0.345D+00 0.553D+00
 Coeff-En:   0.000D+00 0.000D+00 0.125D+00 0.875D+00
 Coeff:      0.826D-02 0.878D-01 0.333D+00 0.571D+00
 Gap=     0.379 Goal=   None    Shift=    0.000
 RMSDP=2.11D-04 MaxDP=2.67D-02 DE=-1.34D-01 OVMax= 3.08D-02

 Cycle   5  Pass 1  IDiag  1:
 RMSU=  8.58D-05    CP:  9.96D-01  6.83D-01  6.29D-01  5.71D-01
 E= -3522.39962207360     Delta-E=       -0.024624513369 Rises=F Damp=F
 DIIS: error= 9.62D-04 at cycle   5 NSaved=   5.
 NSaved= 5 IEnMin= 5 EnMin= -3522.39962207360     IErMin= 5 ErrMin= 9.62D-04
 ErrMax= 9.62D-04  0.00D+00 EMaxC= 1.00D-01 BMatC= 2.10D-03 BMatP= 3.62D-02
 IDIUse=3 WtCom= 9.90D-01 WtEn= 9.62D-03
 Coeff-Com: -0.131D-02 0.270D-01 0.143D+00 0.312D+00 0.520D+00
 Coeff-En:   0.000D+00 0.000D+00 0.000D+00 0.000D+00 0.100D+01
 Coeff:     -0.130D-02 0.268D-01 0.141D+00 0.309D+00 0.525D+00
 Gap=     0.376 Goal=   None    Shift=    0.000
 RMSDP=4.42D-05 MaxDP=4.69D-03 DE=-2.46D-02 OVMax= 6.61D-03

 Cycle   6  Pass 1  IDiag  1:
 RMSU=  2.08D-05    CP:  9.97D-01  6.87D-01  6.18D-01  6.35D-01  6.32D-01
 E= -3522.40111781496     Delta-E=       -0.001495741364 Rises=F Damp=F
 DIIS: error= 1.05D-04 at cycle   6 NSaved=   6.
 NSaved= 6 IEnMin= 6 EnMin= -3522.40111781496     IErMin= 6 ErrMin= 1.05D-04
 ErrMax= 1.05D-04  0.00D+00 EMaxC= 1.00D-01 BMatC= 4.21D-05 BMatP= 2.10D-03
 IDIUse=3 WtCom= 9.99D-01 WtEn= 1.05D-03
 Coeff-Com: -0.858D-03 0.952D-04 0.119D-01 0.399D-01 0.152D+00 0.797D+00
 Coeff-En:   0.000D+00 0.000D+00 0.000D+00 0.000D+00 0.000D+00 0.100D+01
 Coeff:     -0.858D-03 0.951D-04 0.119D-01 0.398D-01 0.152D+00 0.797D+00
 Gap=     0.375 Goal=   None    Shift=    0.000
 RMSDP=9.22D-06 MaxDP=6.92D-04 DE=-1.50D-03 OVMax= 7.88D-04

 Cycle   7  Pass 1  IDiag  1:
 RMSU=  6.79D-06    CP:  9.97D-01  6.86D-01  6.22D-01  6.44D-01  6.81D-01
                    CP:  9.19D-01
 E= -3522.40114933549     Delta-E=       -0.000031520527 Rises=F Damp=F
 DIIS: error= 4.54D-05 at cycle   7 NSaved=   7.
 NSaved= 7 IEnMin= 7 EnMin= -3522.40114933549     IErMin= 7 ErrMin= 4.54D-05
 ErrMax= 4.54D-05  0.00D+00 EMaxC= 1.00D-01 BMatC= 8.55D-06 BMatP= 4.21D-05
 IDIUse=1 WtCom= 1.00D+00 WtEn= 0.00D+00
 Coeff-Com: -0.164D-03-0.291D-02-0.988D-02-0.152D-01 0.156D-01 0.369D+00
 Coeff-Com:  0.643D+00
 Coeff:     -0.164D-03-0.291D-02-0.988D-02-0.152D-01 0.156D-01 0.369D+00
 Coeff:      0.643D+00
 Gap=     0.375 Goal=   None    Shift=    0.000
 RMSDP=3.25D-06 MaxDP=2.38D-04 DE=-3.15D-05 OVMax= 3.82D-04

 Cycle   8  Pass 1  IDiag  1:
 RMSU=  1.71D-06    CP:  9.96D-01  6.87D-01  6.22D-01  6.43D-01  6.93D-01
                    CP:  1.01D+00  7.72D-01
 E= -3522.40115698277     Delta-E=       -0.000007647282 Rises=F Damp=F
 DIIS: error= 1.13D-05 at cycle   8 NSaved=   8.
 NSaved= 8 IEnMin= 8 EnMin= -3522.40115698277     IErMin= 8 ErrMin= 1.13D-05
 ErrMax= 1.13D-05  0.00D+00 EMaxC= 1.00D-01 BMatC= 1.97D-07 BMatP= 8.55D-06
 IDIUse=1 WtCom= 1.00D+00 WtEn= 0.00D+00
 Coeff-Com: -0.227D-05-0.806D-03-0.326D-02-0.659D-02-0.474D-02 0.456D-01
 Coeff-Com:  0.146D+00 0.824D+00
 Coeff:     -0.227D-05-0.806D-03-0.326D-02-0.659D-02-0.474D-02 0.456D-01
 Coeff:      0.146D+00 0.824D+00
 Gap=     0.375 Goal=   None    Shift=    0.000
 RMSDP=7.97D-07 MaxDP=8.48D-05 DE=-7.65D-06 OVMax= 1.37D-04

 Cycle   9  Pass 1  IDiag  1:
 RMSU=  5.49D-07    CP:  9.96D-01  6.87D-01  6.23D-01  6.43D-01  6.96D-01
                    CP:  1.02D+00  8.18D-01  1.10D+00
 E= -3522.40115719275     Delta-E=       -0.000000209977 Rises=F Damp=F
 DIIS: error= 4.47D-06 at cycle   9 NSaved=   9.
 NSaved= 9 IEnMin= 9 EnMin= -3522.40115719275     IErMin= 9 ErrMin= 4.47D-06
 ErrMax= 4.47D-06  0.00D+00 EMaxC= 1.00D-01 BMatC= 5.92D-08 BMatP= 1.97D-07
 IDIUse=1 WtCom= 1.00D+00 WtEn= 0.00D+00
 Coeff-Com:  0.210D-04 0.907D-04 0.125D-03-0.635D-03-0.437D-02-0.378D-01
 Coeff-Com: -0.332D-01 0.385D+00 0.691D+00
 Coeff:      0.210D-04 0.907D-04 0.125D-03-0.635D-03-0.437D-02-0.378D-01
 Coeff:     -0.332D-01 0.385D+00 0.691D+00
 Gap=     0.375 Goal=   None    Shift=    0.000
 RMSDP=3.40D-07 MaxDP=3.03D-05 DE=-2.10D-07 OVMax= 7.58D-05

 Cycle  10  Pass 1  IDiag  1:
 RMSU=  1.97D-07    CP:  9.96D-01  6.87D-01  6.23D-01  6.43D-01  6.97D-01
                    CP:  1.03D+00  8.37D-01  1.21D+00  9.01D-01
 E= -3522.40115724832     Delta-E=       -0.000000055576 Rises=F Damp=F
 DIIS: error= 1.38D-06 at cycle  10 NSaved=  10.
 NSaved=10 IEnMin=10 EnMin= -3522.40115724832     IErMin=10 ErrMin= 1.38D-06
 ErrMax= 1.38D-06  0.00D+00 EMaxC= 1.00D-01 BMatC= 2.89D-09 BMatP= 5.92D-08
 IDIUse=1 WtCom= 1.00D+00 WtEn= 0.00D+00
 Coeff-Com:  0.618D-05 0.942D-04 0.322D-03 0.345D-03-0.608D-03-0.142D-01
 Coeff-Com: -0.208D-01 0.356D-01 0.198D+00 0.801D+00
 Coeff:      0.618D-05 0.942D-04 0.322D-03 0.345D-03-0.608D-03-0.142D-01
 Coeff:     -0.208D-01 0.356D-01 0.198D+00 0.801D+00
 Gap=     0.375 Goal=   None    Shift=    0.000
 RMSDP=9.90D-08 MaxDP=1.17D-05 DE=-5.56D-08 OVMax= 2.10D-05

 Cycle  11  Pass 1  IDiag  1:
 RMSU=  5.66D-08    CP:  9.96D-01  6.87D-01  6.23D-01  6.43D-01  6.97D-01
                    CP:  1.03D+00  8.40D-01  1.24D+00  9.86D-01  1.03D+00
 E= -3522.40115725164     Delta-E=       -0.000000003312 Rises=F Damp=F
 DIIS: error= 5.21D-07 at cycle  11 NSaved=  11.
 NSaved=11 IEnMin=11 EnMin= -3522.40115725164     IErMin=11 ErrMin= 5.21D-07
 ErrMax= 5.21D-07  0.00D+00 EMaxC= 1.00D-01 BMatC= 4.86D-10 BMatP= 2.89D-09
 IDIUse=1 WtCom= 1.00D+00 WtEn= 0.00D+00
 Coeff-Com:  0.129D-05 0.366D-04 0.142D-03 0.204D-03 0.148D-03-0.338D-02
 Coeff-Com: -0.669D-02-0.176D-01 0.281D-01 0.331D+00 0.668D+00
 Coeff:      0.129D-05 0.366D-04 0.142D-03 0.204D-03 0.148D-03-0.338D-02
 Coeff:     -0.669D-02-0.176D-01 0.281D-01 0.331D+00 0.668D+00
 Gap=     0.375 Goal=   None    Shift=    0.000
 RMSDP=3.18D-08 MaxDP=4.55D-06 DE=-3.31D-09 OVMax= 5.67D-06

 Cycle  12  Pass 1  IDiag  1:
 RMSU=  1.99D-08    CP:  9.96D-01  6.87D-01  6.23D-01  6.43D-01  6.97D-01
                    CP:  1.03D+00  8.41D-01  1.24D+00  1.00D+00  1.11D+00
                    CP:  9.36D-01
 E= -3522.40115725184     Delta-E=       -0.000000000204 Rises=F Damp=F
 DIIS: error= 2.17D-07 at cycle  12 NSaved=  12.
 NSaved=12 IEnMin=12 EnMin= -3522.40115725184     IErMin=12 ErrMin= 2.17D-07
 ErrMax= 2.17D-07  0.00D+00 EMaxC= 1.00D-01 BMatC= 6.61D-11 BMatP= 4.86D-10
 IDIUse=1 WtCom= 1.00D+00 WtEn= 0.00D+00
 Coeff-Com: -0.443D-06 0.749D-06 0.126D-04 0.307D-04 0.206D-03 0.911D-03
 Coeff-Com:  0.690D-03-0.125D-01-0.190D-01 0.554D-02 0.267D+00 0.757D+00
 Coeff:     -0.443D-06 0.749D-06 0.126D-04 0.307D-04 0.206D-03 0.911D-03
 Coeff:      0.690D-03-0.125D-01-0.190D-01 0.554D-02 0.267D+00 0.757D+00
 Gap=     0.375 Goal=   None    Shift=    0.000
 RMSDP=1.36D-08 MaxDP=1.96D-06 DE=-2.04D-10 OVMax= 2.56D-06

 Cycle  13  Pass 1  IDiag  1:
 RMSU=  7.05D-09    CP:  9.96D-01  6.87D-01  6.23D-01  6.43D-01  6.97D-01
                    CP:  1.03D+00  8.41D-01  1.24D+00  1.01D+00  1.14D+00
                    CP:  1.04D+00  8.65D-01
 E= -3522.40115725198     Delta-E=       -0.000000000142 Rises=F Damp=F
 DIIS: error= 9.46D-08 at cycle  13 NSaved=  13.
 NSaved=13 IEnMin=13 EnMin= -3522.40115725198     IErMin=13 ErrMin= 9.46D-08
 ErrMax= 9.46D-08  0.00D+00 EMaxC= 1.00D-01 BMatC= 9.89D-12 BMatP= 6.61D-11
 IDIUse=1 WtCom= 1.00D+00 WtEn= 0.00D+00
 Coeff-Com: -0.321D-06-0.291D-05-0.587D-05-0.471D-05 0.923D-04 0.731D-03
 Coeff-Com:  0.941D-03-0.434D-02-0.111D-01-0.273D-01 0.631D-01 0.364D+00
 Coeff-Com:  0.614D+00
 Coeff:     -0.321D-06-0.291D-05-0.587D-05-0.471D-05 0.923D-04 0.731D-03
 Coeff:      0.941D-03-0.434D-02-0.111D-01-0.273D-01 0.631D-01 0.364D+00
 Coeff:      0.614D+00
 Gap=     0.375 Goal=   None    Shift=    0.000
 RMSDP=4.11D-09 MaxDP=5.76D-07 DE=-1.42D-10 OVMax= 6.44D-07

 Error on total polarization charges =  0.00335
 SCF Done:  E(RCAM-B3LYP) =  -3522.40115725     A.U. after   13 cycles
            NFock= 13  Conv=0.41D-08     -V/T= 2.0076
 KE= 3.495984604048D+03 PE=-2.345463159713D+04 EE= 8.866913589578D+03
 Leave Link  502 at Sun Feb  2 08:58:15 2025, MaxMem=  5368709120 cpu:      1866.8
 (Enter /home/k0335/k033513/app/g09/l601.exe)
 Copying SCF densities to generalized density rwf, IOpCl= 0 IROHF=0.

 **********************************************************************

            Population analysis using the SCF density.

 **********************************************************************

 Alpha  occ. eigenvalues --  -24.83688 -24.83387 -24.83203 -24.83189 -24.83139
 Alpha  occ. eigenvalues --  -24.82841 -24.82781 -24.82687 -24.82629 -24.82564
 Alpha  occ. eigenvalues --  -24.82455 -24.82185 -24.81925 -24.81860 -24.81472
 Alpha  occ. eigenvalues --  -24.80705 -24.80531 -24.80333 -24.80303 -24.80261
 Alpha  occ. eigenvalues --  -24.79607 -19.32547 -19.32359 -19.32029 -19.22254
 Alpha  occ. eigenvalues --  -19.22238 -19.22058 -14.49042 -14.49003 -14.48952
 Alpha  occ. eigenvalues --  -10.59356 -10.59090 -10.58842 -10.52462 -10.52389
 Alpha  occ. eigenvalues --  -10.52373 -10.46361 -10.46035 -10.45823 -10.43463
 Alpha  occ. eigenvalues --  -10.43460 -10.43375 -10.31523 -10.31481 -10.31053
 Alpha  occ. eigenvalues --  -10.28798 -10.28788 -10.28351 -10.27617 -10.27586
 Alpha  occ. eigenvalues --  -10.27572  -1.42955  -1.42686  -1.42512  -1.38799
 Alpha  occ. eigenvalues --   -1.38680  -1.38298  -1.35730  -1.35443  -1.35048
 Alpha  occ. eigenvalues --   -1.33541  -1.33148  -1.32961  -1.32838  -1.32400
 Alpha  occ. eigenvalues --   -1.32235  -1.31631  -1.31596  -1.30731  -1.29631
 Alpha  occ. eigenvalues --   -1.29223  -1.28910  -1.20601  -1.20496  -1.20295
 Alpha  occ. eigenvalues --   -1.20187  -1.15498  -1.15468  -1.07023  -1.04506
 Alpha  occ. eigenvalues --   -1.04410  -0.91926  -0.91460  -0.91382  -0.88331
 Alpha  occ. eigenvalues --   -0.87356  -0.87016  -0.83788  -0.82836  -0.82240
 Alpha  occ. eigenvalues --   -0.80256  -0.79141  -0.78896  -0.76399  -0.76175
 Alpha  occ. eigenvalues --   -0.75288  -0.73994  -0.73647  -0.71922  -0.71578
 Alpha  occ. eigenvalues --   -0.71265  -0.71028  -0.70625  -0.70416  -0.70186
 Alpha  occ. eigenvalues --   -0.69963  -0.69853  -0.69754  -0.69583  -0.69169
 Alpha  occ. eigenvalues --   -0.68814  -0.67080  -0.66760  -0.66625  -0.66125
 Alpha  occ. eigenvalues --   -0.65864  -0.65825  -0.63735  -0.63204  -0.63056
 Alpha  occ. eigenvalues --   -0.62853  -0.61136  -0.60995  -0.60662  -0.60185
 Alpha  occ. eigenvalues --   -0.59979  -0.59619  -0.57985  -0.57046  -0.56970
 Alpha  occ. eigenvalues --   -0.56953  -0.56535  -0.56268  -0.56084  -0.55974
 Alpha  occ. eigenvalues --   -0.55902  -0.55563  -0.55260  -0.55105  -0.54782
 Alpha  occ. eigenvalues --   -0.54585  -0.54299  -0.54151  -0.53949  -0.53880
 Alpha  occ. eigenvalues --   -0.53807  -0.53082  -0.52935  -0.52770  -0.52534
 Alpha  occ. eigenvalues --   -0.52407  -0.52281  -0.52070  -0.51747  -0.51615
 Alpha  occ. eigenvalues --   -0.51417  -0.51360  -0.51257  -0.51165  -0.50734
 Alpha  occ. eigenvalues --   -0.50529  -0.50446  -0.50275  -0.50218  -0.50056
 Alpha  occ. eigenvalues --   -0.49858  -0.49547  -0.49421  -0.49231  -0.49132
 Alpha  occ. eigenvalues --   -0.49031  -0.48835  -0.48682  -0.48430  -0.48246
 Alpha  occ. eigenvalues --   -0.48067  -0.47881  -0.47246  -0.46728  -0.46544
 Alpha  occ. eigenvalues --   -0.46416  -0.46280  -0.45439  -0.45215  -0.44881
 Alpha  occ. eigenvalues --   -0.44786  -0.43856  -0.43814  -0.43426  -0.42142
 Alpha  occ. eigenvalues --   -0.41822  -0.41677  -0.41291  -0.41242  -0.40272
 Alpha  occ. eigenvalues --   -0.38292  -0.38166  -0.35908  -0.34716  -0.34565
 Alpha  occ. eigenvalues --   -0.34343
 Alpha virt. eigenvalues --    0.03167   0.03261   0.10933   0.11129   0.11799
 Alpha virt. eigenvalues --    0.12005   0.12388   0.12650   0.13436   0.14960
 Alpha virt. eigenvalues --    0.15027   0.15259   0.15778   0.16352   0.17296
 Alpha virt. eigenvalues --    0.17603   0.18158   0.18576   0.19221   0.19533
 Alpha virt. eigenvalues --    0.19582   0.19647   0.19841   0.19954   0.20353
 Alpha virt. eigenvalues --    0.20827   0.21467   0.21682   0.21897   0.22137
 Alpha virt. eigenvalues --    0.22323   0.22627   0.22785   0.23008   0.23109
 Alpha virt. eigenvalues --    0.23393   0.23526   0.23841   0.24139   0.24864
 Alpha virt. eigenvalues --    0.25094   0.25383   0.25491   0.25624   0.25798
 Alpha virt. eigenvalues --    0.26446   0.26505   0.27003   0.27501   0.27886
 Alpha virt. eigenvalues --    0.28301   0.29022   0.29229   0.29604   0.30106
 Alpha virt. eigenvalues --    0.31133   0.31277   0.31376   0.32357   0.32739
 Alpha virt. eigenvalues --    0.32900   0.33132   0.33985   0.34291   0.35400
 Alpha virt. eigenvalues --    0.35842   0.36875   0.37753   0.38417   0.42148
 Alpha virt. eigenvalues --    0.42398   0.49081   0.50005   0.50599   0.50743
 Alpha virt. eigenvalues --    0.51015   0.51161   0.51473   0.52660   0.52927
 Alpha virt. eigenvalues --    0.53015   0.53691   0.53946   0.54361   0.54444
 Alpha virt. eigenvalues --    0.54741   0.54981   0.55534   0.56033   0.56392
 Alpha virt. eigenvalues --    0.57479   0.57852   0.58108   0.58467   0.58862
 Alpha virt. eigenvalues --    0.59017   0.59107   0.59268   0.59687   0.60718
 Alpha virt. eigenvalues --    0.60820   0.61143   0.61821   0.62787   0.63164
 Alpha virt. eigenvalues --    0.63499   0.64478   0.65346   0.65449   0.65819
 Alpha virt. eigenvalues --    0.66096   0.66325   0.67950   0.68417   0.69477
 Alpha virt. eigenvalues --    0.69964   0.71339   0.71628   0.71949   0.72714
 Alpha virt. eigenvalues --    0.73251   0.73562   0.74965   0.75873   0.76162
 Alpha virt. eigenvalues --    0.77318   0.78866   0.80531   0.81997   0.82710
 Alpha virt. eigenvalues --    0.82766   0.83695   0.84010   0.84479   0.85362
 Alpha virt. eigenvalues --    0.85992   0.86213   0.86547   0.87970   0.88398
 Alpha virt. eigenvalues --    0.88880   0.89491   0.90226   0.90384   0.91284
 Alpha virt. eigenvalues --    0.91931   0.92254   0.92947   0.93512   0.93628
 Alpha virt. eigenvalues --    0.94177   0.94389   0.94746   0.95019   0.95492
 Alpha virt. eigenvalues --    0.96371   0.97115   0.97197   0.97954   0.98028
 Alpha virt. eigenvalues --    0.98298   0.98894   0.99556   1.00403   1.00965
 Alpha virt. eigenvalues --    1.01286   1.01560   1.02531   1.03022   1.03596
 Alpha virt. eigenvalues --    1.04156   1.04597   1.05477   1.05529   1.06519
 Alpha virt. eigenvalues --    1.07612   1.08027   1.08580   1.09365   1.10171
 Alpha virt. eigenvalues --    1.10768   1.11001   1.11735   1.12286   1.12618
 Alpha virt. eigenvalues --    1.13483   1.13742   1.13900   1.14290   1.14917
 Alpha virt. eigenvalues --    1.15363   1.15514   1.16191   1.16491   1.16997
 Alpha virt. eigenvalues --    1.17041   1.18048   1.18585   1.18979   1.19523
 Alpha virt. eigenvalues --    1.19851   1.20042   1.20642   1.21196   1.21923
 Alpha virt. eigenvalues --    1.22398   1.22830   1.23251   1.23384   1.23568
 Alpha virt. eigenvalues --    1.23941   1.25079   1.25566   1.25791   1.27043
 Alpha virt. eigenvalues --    1.28188   1.28894   1.29347   1.29812   1.30389
 Alpha virt. eigenvalues --    1.31188   1.31757   1.33038   1.33743   1.34208
 Alpha virt. eigenvalues --    1.34581   1.34676   1.35525   1.36436   1.36908
 Alpha virt. eigenvalues --    1.37139   1.37274   1.37634   1.37961   1.38126
 Alpha virt. eigenvalues --    1.38421   1.38531   1.38649   1.39066   1.39484
 Alpha virt. eigenvalues --    1.39814   1.40057   1.40331   1.40754   1.41061
 Alpha virt. eigenvalues --    1.41270   1.41572   1.41764   1.42188   1.42608
 Alpha virt. eigenvalues --    1.42885   1.43118   1.43383   1.43972   1.44121
 Alpha virt. eigenvalues --    1.44306   1.44390   1.44455   1.45160   1.45622
 Alpha virt. eigenvalues --    1.45841   1.45944   1.46393   1.48588   1.49266
 Alpha virt. eigenvalues --    1.49419   1.49828   1.50395   1.50991   1.51486
 Alpha virt. eigenvalues --    1.52143   1.53122   1.53523   1.54089   1.54661
 Alpha virt. eigenvalues --    1.54950   1.55320   1.55654   1.55981   1.56104
 Alpha virt. eigenvalues --    1.56589   1.56685   1.57795   1.58222   1.58698
 Alpha virt. eigenvalues --    1.59032   1.59419   1.59931   1.61248   1.63032
 Alpha virt. eigenvalues --    1.65597   1.66014   1.66085   1.66990   1.67381
 Alpha virt. eigenvalues --    1.67710   1.69189   1.69913   1.70505   1.70846
 Alpha virt. eigenvalues --    1.71698   1.71791   1.72226   1.72767   1.72992
 Alpha virt. eigenvalues --    1.73214   1.73789   1.74252   1.74897   1.74935
 Alpha virt. eigenvalues --    1.75999   1.76227   1.78443   1.78653   1.79307
 Alpha virt. eigenvalues --    1.79644   1.80396   1.80744   1.81238   1.81841
 Alpha virt. eigenvalues --    1.82043   1.82917   1.83378   1.83864   1.84499
 Alpha virt. eigenvalues --    1.84690   1.85068   1.85399   1.85591   1.85955
 Alpha virt. eigenvalues --    1.86365   1.86758   1.87074   1.87593   1.87699
 Alpha virt. eigenvalues --    1.88139   1.88223   1.88442   1.88558   1.88831
 Alpha virt. eigenvalues --    1.88934   1.89126   1.89493   1.89776   1.89908
 Alpha virt. eigenvalues --    1.90165   1.90373   1.90772   1.90810   1.91158
 Alpha virt. eigenvalues --    1.91820   1.92088   1.92516   1.92572   1.92696
 Alpha virt. eigenvalues --    1.93624   1.93792   1.93830   1.94292   1.94926
 Alpha virt. eigenvalues --    1.95105   1.95466   1.95606   1.95835   1.96529
 Alpha virt. eigenvalues --    1.96642   1.97168   1.97589   1.97744   1.98184
 Alpha virt. eigenvalues --    1.98495   1.99292   1.99476   1.99759   1.99954
 Alpha virt. eigenvalues --    2.00761   2.01081   2.01143   2.01891   2.02410
 Alpha virt. eigenvalues --    2.02621   2.02669   2.02879   2.03135   2.03215
 Alpha virt. eigenvalues --    2.03535   2.03840   2.04213   2.04527   2.04743
 Alpha virt. eigenvalues --    2.05460   2.05503   2.05952   2.06198   2.07023
 Alpha virt. eigenvalues --    2.07359   2.07899   2.08084   2.08169   2.08324
 Alpha virt. eigenvalues --    2.08551   2.08766   2.09393   2.09581   2.09915
 Alpha virt. eigenvalues --    2.10026   2.10051   2.10790   2.11180   2.11344
 Alpha virt. eigenvalues --    2.11507   2.11929   2.13195   2.13467   2.14484
 Alpha virt. eigenvalues --    2.15861   2.16123   2.16335   2.16602   2.18671
 Alpha virt. eigenvalues --    2.18899   2.19503   2.19871   2.20044   2.20879
 Alpha virt. eigenvalues --    2.21073   2.21709   2.21868   2.22306   2.23324
 Alpha virt. eigenvalues --    2.24636   2.25010   2.25680   2.26533   2.26847
 Alpha virt. eigenvalues --    2.27327   2.28413   2.29209   2.29501   2.30260
 Alpha virt. eigenvalues --    2.30784   2.31933   2.32570   2.32822   2.33656
 Alpha virt. eigenvalues --    2.33739   2.33961   2.34284   2.34627   2.35067
 Alpha virt. eigenvalues --    2.35372   2.35424   2.36039   2.36651   2.37915
 Alpha virt. eigenvalues --    2.38346   2.38887   2.39063   2.39532   2.40004
 Alpha virt. eigenvalues --    2.40929   2.41318   2.41623   2.42180   2.42374
 Alpha virt. eigenvalues --    2.43323   2.45044   2.45183   2.45787   2.46355
 Alpha virt. eigenvalues --    2.46473   2.46709   2.47446   2.47844   2.48071
 Alpha virt. eigenvalues --    2.48657   2.49104   2.49844   2.50524   2.51395
 Alpha virt. eigenvalues --    2.51695   2.52817   2.53604   2.54105   2.55746
 Alpha virt. eigenvalues --    2.57430   2.58224   2.58442   2.59370   2.60496
 Alpha virt. eigenvalues --    2.61442   2.62003   2.62632   2.63025   2.63645
 Alpha virt. eigenvalues --    2.64310   2.65590   2.65935   2.66865   2.68209
 Alpha virt. eigenvalues --    2.69478   2.70584   2.71889   2.72970   2.73667
 Alpha virt. eigenvalues --    2.74024   2.75011   2.75281   2.75718   2.75927
 Alpha virt. eigenvalues --    2.76665   2.77091   2.77522   2.78100   2.79305
 Alpha virt. eigenvalues --    2.79555   2.80020   2.80193   2.81553   2.82311
 Alpha virt. eigenvalues --    2.83100   2.84230   2.84990   2.85175   2.85699
 Alpha virt. eigenvalues --    2.86635   2.87121   2.87867   2.88128   2.88377
 Alpha virt. eigenvalues --    2.89312   2.90406   2.90966   2.92121   2.92454
 Alpha virt. eigenvalues --    2.93162   2.93545   2.94029   2.94478   2.94832
 Alpha virt. eigenvalues --    2.95625   2.97097   2.97680   2.97785   2.98004
 Alpha virt. eigenvalues --    2.98481   2.98758   2.98995   2.99375   2.99658
 Alpha virt. eigenvalues --    3.00340   3.00593   3.03181   3.03725   3.03843
 Alpha virt. eigenvalues --    3.04757   3.05398   3.05723   3.06188   3.06526
 Alpha virt. eigenvalues --    3.06691   3.07114   3.08287   3.09073   3.09383
 Alpha virt. eigenvalues --    3.13379   3.13942   3.14834   3.15424   3.16702
 Alpha virt. eigenvalues --    3.18187   3.18319   3.18824   3.19520   3.21238
 Alpha virt. eigenvalues --    3.21820   3.21926   3.22672   3.25639   3.26249
 Alpha virt. eigenvalues --    3.26799   3.28768   3.29938   3.30444   3.31307
 Alpha virt. eigenvalues --    3.35683   3.37655   3.38330   3.39706   3.41486
 Alpha virt. eigenvalues --    3.42338   3.43016   3.46367   3.47077   3.47840
 Alpha virt. eigenvalues --    3.49372   3.57254   3.57427   3.57552   3.59528
 Alpha virt. eigenvalues --    3.63666   3.64414   3.64913   4.06587   4.06666
 Alpha virt. eigenvalues --    4.13470   4.14375   4.17061   4.17633   4.24052
 Alpha virt. eigenvalues --    4.24801   4.27446   4.30158   4.31923   4.37125
 Alpha virt. eigenvalues --    4.38002   4.39789   4.40300   4.42224   4.45333
 Alpha virt. eigenvalues --    4.46170   4.47491   4.48840   4.49929   4.51763
 Alpha virt. eigenvalues --    4.54195   4.57625   4.60776   4.65780   4.68834
 Alpha virt. eigenvalues --    4.70589   4.72526   4.74726   4.77054   4.80938
 Alpha virt. eigenvalues --    4.82822   4.87236   4.88294   4.91018   4.94133
 Alpha virt. eigenvalues --    4.96382   5.04517   5.09330   5.18369   5.28991
 Alpha virt. eigenvalues --    5.30524   5.35268   5.52121   5.90688   6.06060
 Alpha virt. eigenvalues --    6.06213   6.11844   6.45255   6.55481
          Condensed to atoms (all electrons):
 Mulliken charges:
               1
     1  O   -0.534570
     2  C    0.820223
     3  N   -0.568057
     4  C   -0.057016
     5  C   -0.205372
     6  C   -0.256202
     7  C    0.538664
     8  F   -0.284658
     9  F   -0.285160
    10  C    0.774352
    11  F   -0.267493
    12  F   -0.266325
    13  O   -0.517234
    14  C    0.987335
    15  F   -0.247557
    16  F   -0.246913
    17  F   -0.248231
    18  C    0.823460
    19  O   -0.537149
    20  N   -0.569138
    21  C   -0.057413
    22  C   -0.205445
    23  C   -0.252004
    24  C    0.543555
    25  F   -0.282928
    26  F   -0.284250
    27  C    0.731765
    28  F   -0.260023
    29  F   -0.271555
    30  O   -0.493439
    31  C    0.980931
    32  F   -0.244470
    33  F   -0.237857
    34  F   -0.242784
    35  C    0.824915
    36  O   -0.538127
    37  N   -0.562275
    38  C   -0.062674
    39  C   -0.217902
    40  C   -0.262910
    41  C    0.553695
    42  F   -0.289796
    43  F   -0.267107
    44  C    0.756131
    45  F   -0.260718
    46  F   -0.266359
    47  O   -0.513788
    48  C    0.988577
    49  F   -0.248796
    50  F   -0.245119
    51  F   -0.244723
    52  H    0.151859
    53  H    0.150384
    54  H    0.133787
    55  H    0.133602
    56  H    0.146892
    57  H    0.146598
    58  H    0.150956
    59  H    0.151062
    60  H    0.132674
    61  H    0.134405
    62  H    0.140652
    63  H    0.146873
    64  H    0.157018
    65  H    0.148590
    66  H    0.130298
    67  H    0.133071
    68  H    0.143752
    69  H    0.147459
 Sum of Mulliken charges =   0.00000
 Mulliken charges with hydrogens summed into heavy atoms:
               1
     1  O   -0.534570
     2  C    0.820223
     3  N   -0.568057
     4  C    0.245226
     5  C    0.062017
     6  C    0.037289
     7  C    0.538664
     8  F   -0.284658
     9  F   -0.285160
    10  C    0.774352
    11  F   -0.267493
    12  F   -0.266325
    13  O   -0.517234
    14  C    0.987335
    15  F   -0.247557
    16  F   -0.246913
    17  F   -0.248231
    18  C    0.823460
    19  O   -0.537149
    20  N   -0.569138
    21  C    0.244606
    22  C    0.061634
    23  C    0.035521
    24  C    0.543555
    25  F   -0.282928
    26  F   -0.284250
    27  C    0.731765
    28  F   -0.260023
    29  F   -0.271555
    30  O   -0.493439
    31  C    0.980931
    32  F   -0.244470
    33  F   -0.237857
    34  F   -0.242784
    35  C    0.824915
    36  O   -0.538127
    37  N   -0.562275
    38  C    0.242934
    39  C    0.045467
    40  C    0.028302
    41  C    0.553695
    42  F   -0.289796
    43  F   -0.267107
    44  C    0.756131
    45  F   -0.260718
    46  F   -0.266359
    47  O   -0.513788
    48  C    0.988577
    49  F   -0.248796
    50  F   -0.245119
    51  F   -0.244723
 Electronic spatial extent (au):  <R**2>=          56695.1957
 Charge=              0.0000 electrons
 Dipole moment (field-independent basis, Debye):
    X=             -1.7259    Y=             -0.9870    Z=              3.8173  Tot=              4.3040
 Quadrupole moment (field-independent basis, Debye-Ang):
   XX=           -295.3045   YY=           -305.4066   ZZ=           -275.6888
   XY=             -5.2398   XZ=              3.5996   YZ=            -10.7974
 Traceless Quadrupole moment (field-independent basis, Debye-Ang):
   XX=             -3.1712   YY=            -13.2733   ZZ=             16.4445
   XY=             -5.2398   XZ=              3.5996   YZ=            -10.7974
 Octapole moment (field-independent basis, Debye-Ang**2):
  XXX=           -124.9756  YYY=            -91.3121  ZZZ=            189.2373  XYY=            -22.0716
  XXY=             -3.8381  XXZ=            121.9258  XZZ=            -21.6257  YZZ=            -14.2288
  YYZ=             90.8396  XYZ=             18.4255
 Hexadecapole moment (field-independent basis, Debye-Ang**3):
 XXXX=         -31937.6734 YYYY=         -27222.5323 ZZZZ=          -4078.7459 XXXY=          -2043.8532
 XXXZ=            -62.5211 YYYX=          -2218.8174 YYYZ=           -979.0457 ZZZX=           -389.1140
 ZZZY=           -840.5022 XXYY=          -9661.1306 XXZZ=          -5874.7669 YYZZ=          -5130.8103
 XXYZ=           -375.2398 YYXZ=           -331.9956 ZZXY=           -684.2054
 N-N= 7.569332246251D+03 E-N=-2.345463158665D+04  KE= 3.495984604048D+03
 No NMR shielding tensors so no spin-rotation constants.
 Leave Link  601 at Sun Feb  2 08:58:15 2025, MaxMem=  5368709120 cpu:         4.3
 (Enter /home/k0335/k033513/app/g09/l9999.exe)
 1\1\GINC-C18U03N1\SP\RCAM-B3LYP\6-31G(d,p)\C21H18F21N3O6\K033513\02-Fe
 b-2025\0\\#p CAM-B3LYP/6-31G(d,p) SCRF=(PCM,Solvent=Generic,Read) NoSy
 mm out=wfn\\Title TAIC2_neu\\0,1\O,0,1.007703,1.962382,2.050601\C,0,0.
 304129,0.951774,2.011274\N,0,0.854752,-0.311236,2.054907\C,0,2.309187,
 -0.425851,2.144097\C,0,2.962549,-0.396795,0.758518\C,0,4.486115,-0.511
 952,0.856892\C,0,5.141018,-0.491536,-0.521757\F,0,4.784806,0.657592,-1
 .162154\F,0,4.632238,-1.513026,-1.266382\C,0,6.6751,-0.59961,-0.442522
 \F,0,7.173035,0.420919,0.300432\F,0,7.021026,-1.753197,0.185736\O,0,7.
 270475,-0.601756,-1.717354\C,0,8.63489,-0.33158,-1.595622\F,0,8.831362
 ,0.98452,-1.390345\F,0,9.206453,-1.038065,-0.603839\F,0,9.238811,-0.66
 8416,-2.754877\C,0,0.121503,-1.465317,1.88427\O,0,0.660262,-2.570317,1
 .787614\N,0,-1.246031,-1.315119,1.805861\C,0,-2.061881,-2.514492,1.628
 925\C,0,-2.22521,-2.872255,0.147982\C,0,-3.08619,-4.125826,-0.032158\C
 ,0,-3.246948,-4.488997,-1.508008\F,0,-3.774881,-3.427188,-2.173762\F,0
 ,-2.007391,-4.682941,-2.041361\C,0,-4.115295,-5.754275,-1.721091\F,0,-
 4.178437,-6.104413,-3.030436\F,0,-3.492578,-6.803011,-1.102974\O,0,-5.
 423214,-5.762076,-1.201627\C,0,-6.195131,-4.736924,-1.759975\F,0,-5.96
 231,-3.596352,-1.084012\F,0,-5.944834,-4.55089,-3.065006\F,0,-7.496721
 ,-5.053416,-1.610857\C,0,-1.872934,-0.088746,1.75449\O,0,-3.088988,0.0
 08744,1.573158\N,0,-1.06662,1.023127,1.892346\C,0,-1.706669,2.340865,1
 .857284\C,0,-2.007344,2.822436,0.428986\C,0,-0.806751,3.371885,-0.3489
 89\C,0,-0.265853,4.736704,0.091218\F,0,0.840847,4.988868,-0.675054\F,0
 ,0.182866,4.661172,1.371672\C,0,-1.248818,5.917068,-0.050808\F,0,-2.28
 8814,5.760173,0.808398\F,0,-0.637576,7.081025,0.278344\O,0,-1.784578,6
 .003133,-1.350484\C,0,-2.340825,7.272383,-1.540233\F,0,-3.121724,7.223
 872,-2.640735\F,0,-3.10621,7.650008,-0.500903\F,0,-1.371908,8.180618,-
 1.756784\H,0,2.701177,0.393717,2.758274\H,0,2.568528,-1.358843,2.65863
 1\H,0,2.567419,-1.217406,0.147392\H,0,2.694296,0.533508,0.242978\H,0,4
 .868918,0.320935,1.458278\H,0,4.741636,-1.445982,1.370975\H,0,-1.59879
 2,-3.351289,2.165434\H,0,-3.046528,-2.353389,2.083804\H,0,-2.681295,-2
 .030409,-0.38704\H,0,-1.238681,-3.031882,-0.303797\H,0,-4.066622,-3.95
 1595,0.423635\H,0,-2.614847,-4.96098,0.499161\H,0,-1.105227,3.070687,2
 .40615\H,0,-2.657795,2.264141,2.399099\H,0,-2.795912,3.579964,0.46991\
 H,0,-2.429134,1.99096,-0.149674\H,0,-1.085019,3.440384,-1.408431\H,0,0
 .011418,2.643786,-0.319021\\Version=ES64L-G09RevD.01\HF=-3522.4011573\
 RMSD=4.108e-09\Dipole=-0.6790081,-0.3882987,1.5018404\Quadrupole=-2.35
 77157,-9.8683456,12.2260613,-3.895674,2.6761984,-8.0275963\PG=C01 [X(C
 21H18F21N3O6)]\\@

 Writing a WFN file to "wang5/TAIC2/TAIC2_neu.wfn"


 YOU KNOW YOU'VE SPOKEN TOO LONG WHEN THE AUDIENCE STOPS LOOKING AT
 THEIR WATCHES AND STARTS SHAKING THEM.
 Job cpu time:       0 days  0 hours 32 minutes 23.7 seconds.
 File lengths (MBytes):  RWF=    883 Int=      0 D2E=      0 Chk=     28 Scr=      1
 Normal termination of Gaussian 09 at Sun Feb  2 08:58:16 2025.
