 Entering Gaussian System, Link 0=g09
 Initial command:
 /home/k0335/k033513/app/g09/l1.exe "/home/k0335/k033513/app/g09/scratch/Gau-623366.inp" -scrdir="/home/k0335/k033513/app/g09/scratch/"
 Default is to use a total of  36 processors:
                               36 via shared-memory
                                1 via Linda
 Entering Link 1 = /home/k0335/k033513/app/g09/l1.exe PID=    623367.
  
 Copyright (c) 1988,1990,1992,1993,1995,1998,2003,2009,2013,
            Gaussian, Inc.  All Rights Reserved.
  
 This is part of the Gaussian(R) 09 program.  It is based on
 the Gaussian(R) 03 system (copyright 2003, Gaussian, Inc.),
 the Gaussian(R) 98 system (copyright 1998, Gaussian, Inc.),
 the Gaussian(R) 94 system (copyright 1995, Gaussian, Inc.),
 the Gaussian 92(TM) system (copyright 1992, Gaussian, Inc.),
 the Gaussian 90(TM) system (copyright 1990, Gaussian, Inc.),
 the Gaussian 88(TM) system (copyright 1988, Gaussian, Inc.),
 the Gaussian 86(TM) system (copyright 1986, Carnegie Mellon
 University), and the Gaussian 82(TM) system (copyright 1983,
 Carnegie Mellon University). Gaussian is a federally registered
 trademark of Gaussian, Inc.
  
 This software contains proprietary and confidential information,
 including trade secrets, belonging to Gaussian, Inc.
  
 This software is provided under written license and may be
 used, copied, transmitted, or stored only in accord with that
 written license.
  
 The following legend is applicable only to US Government
 contracts under FAR:
  
                    RESTRICTED RIGHTS LEGEND
  
 Use, reproduction and disclosure by the US Government is
 subject to restrictions as set forth in subparagraphs (a)
 and (c) of the Commercial Computer Software - Restricted
 Rights clause in FAR 52.227-19.
  
 Gaussian, Inc.
 340 Quinnipiac St., Bldg. 40, Wallingford CT 06492
  
  
 ---------------------------------------------------------------
 Warning -- This program may not be used in any manner that
 competes with the business of Gaussian, Inc. or will provide
 assistance to any competitor of Gaussian, Inc.  The licensee
 of this program is prohibited from giving any competitor of
 Gaussian, Inc. access to this program.  By using this program,
 the user acknowledges that Gaussian, Inc. is engaged in the
 business of creating and licensing software in the field of
 computational chemistry and represents and warrants to the
 licensee that it is not a competitor of Gaussian, Inc. and that
 it will not use this program in any manner prohibited above.
 ---------------------------------------------------------------
  

 Cite this work as:
 Gaussian 09, Revision D.01,
 M. J. Frisch, G. W. Trucks, H. B. Schlegel, G. E. Scuseria, 
 M. A. Robb, J. R. Cheeseman, G. Scalmani, V. Barone, B. Mennucci, 
 G. A. Petersson, H. Nakatsuji, M. Caricato, X. Li, H. P. Hratchian, 
 A. F. Izmaylov, J. Bloino, G. Zheng, J. L. Sonnenberg, M. Hada, 
 M. Ehara, K. Toyota, R. Fukuda, J. Hasegawa, M. Ishida, T. Nakajima, 
 Y. Honda, O. Kitao, H. Nakai, T. Vreven, J. A. Montgomery, Jr., 
 J. E. Peralta, F. Ogliaro, M. Bearpark, J. J. Heyd, E. Brothers, 
 K. N. Kudin, V. N. Staroverov, T. Keith, R. Kobayashi, J. Normand, 
 K. Raghavachari, A. Rendell, J. C. Burant, S. S. Iyengar, J. Tomasi, 
 M. Cossi, N. Rega, J. M. Millam, M. Klene, J. E. Knox, J. B. Cross, 
 V. Bakken, C. Adamo, J. Jaramillo, R. Gomperts, R. E. Stratmann, 
 O. Yazyev, A. J. Austin, R. Cammi, C. Pomelli, J. W. Ochterski, 
 R. L. Martin, K. Morokuma, V. G. Zakrzewski, G. A. Voth, 
 P. Salvador, J. J. Dannenberg, S. Dapprich, A. D. Daniels, 
 O. Farkas, J. B. Foresman, J. V. Ortiz, J. Cioslowski, 
 and D. J. Fox, Gaussian, Inc., Wallingford CT, 2013.
 
 ******************************************
 Gaussian 09:  ES64L-G09RevD.01 24-Apr-2013
                 2-Feb-2025 
 ******************************************
 %nprocshared=24
 Will use up to   24 processors via shared memory.
 %mem=40GB
 %rwf=wang5/TAIC2/TAIC2_pos.rwf
 %nosave
 %chk=wang5/TAIC2/TAIC2_pos.chk
 ----------------------------------------------------------------------
 #p CAM-B3LYP/6-31G(d,p) SCRF=(PCM,Solvent=Generic,Read) NoSymm out=wfn
 ----------------------------------------------------------------------
 1/38=1,40=2/1;
 2/12=2,15=1,17=6,18=5,40=1/2;
 3/5=1,6=6,7=101,11=2,16=1,25=1,30=1,70=2203,72=-2,74=-40/1,2,3;
 4//1;
 5/5=2,38=5/2;
 6/7=2,8=2,9=2,10=2,28=1/1;
 99/5=1,6=100,9=1/99;
 Leave Link    1 at Sun Feb  2 11:24:58 2025, MaxMem=  5368709120 cpu:         3.4
 (Enter /home/k0335/k033513/app/g09/l101.exe)
 ---------------
 Title TAIC2_pos
 ---------------
 Symbolic Z-matrix:
 Charge =  1 Multiplicity = 2
 O                     1.0077    1.96238   2.0506 
 C                     0.30413   0.95177   2.01127 
 N                     0.85475  -0.31124   2.05491 
 C                     2.30919  -0.42585   2.1441 
 C                     2.96255  -0.3968    0.75852 
 C                     4.48611  -0.51195   0.85689 
 C                     5.14102  -0.49154  -0.52176 
 F                     4.78481   0.65759  -1.16215 
 F                     4.63224  -1.51303  -1.26638 
 C                     6.6751   -0.59961  -0.44252 
 F                     7.17304   0.42092   0.30043 
 F                     7.02103  -1.7532    0.18574 
 O                     7.27048  -0.60176  -1.71735 
 C                     8.63489  -0.33158  -1.59562 
 F                     8.83136   0.98452  -1.39035 
 F                     9.20645  -1.03807  -0.60384 
 F                     9.23881  -0.66842  -2.75488 
 C                     0.1215   -1.46532   1.88427 
 O                     0.66026  -2.57032   1.78761 
 N                    -1.24603  -1.31512   1.80586 
 C                    -2.06188  -2.51449   1.62893 
 C                    -2.22521  -2.87226   0.14798 
 C                    -3.08619  -4.12583  -0.03216 
 C                    -3.24695  -4.489    -1.50801 
 F                    -3.77488  -3.42719  -2.17376 
 F                    -2.00739  -4.68294  -2.04136 
 C                    -4.11529  -5.75427  -1.72109 
 F                    -4.17844  -6.10441  -3.03044 
 F                    -3.49258  -6.80301  -1.10297 
 O                    -5.42321  -5.76208  -1.20163 
 C                    -6.19513  -4.73692  -1.75998 
 F                    -5.96231  -3.59635  -1.08401 
 F                    -5.94483  -4.55089  -3.06501 
 F                    -7.49672  -5.05342  -1.61086 
 C                    -1.87293  -0.08875   1.75449 
 O                    -3.08899   0.00874   1.57316 
 N                    -1.06662   1.02313   1.89235 
 C                    -1.70667   2.34086   1.85728 
 C                    -2.00734   2.82244   0.42899 
 C                    -0.80675   3.37189  -0.34899 
 C                    -0.26585   4.7367    0.09122 
 F                     0.84085   4.98887  -0.67505 
 F                     0.18287   4.66117   1.37167 
 C                    -1.24882   5.91707  -0.05081 
 F                    -2.28881   5.76017   0.8084 
 F                    -0.63758   7.08103   0.27834 
 O                    -1.78458   6.00313  -1.35048 
 C                    -2.34083   7.27238  -1.54023 
 F                    -3.12172   7.22387  -2.64074 
 F                    -3.10621   7.65001  -0.5009 
 F                    -1.37191   8.18062  -1.75678 
 H                     2.70118   0.39372   2.75827 
 H                     2.56853  -1.35884   2.65863 
 H                     2.56742  -1.21741   0.14739 
 H                     2.6943    0.53351   0.24298 
 H                     4.86892   0.32094   1.45828 
 H                     4.74164  -1.44598   1.37098 
 H                    -1.59879  -3.35129   2.16543 
 H                    -3.04653  -2.35339   2.0838 
 H                    -2.6813   -2.03041  -0.38704 
 H                    -1.23868  -3.03188  -0.3038 
 H                    -4.06662  -3.9516    0.42364 
 H                    -2.61485  -4.96098   0.49916 
 H                    -1.10523   3.07069   2.40615 
 H                    -2.6578    2.26414   2.3991 
 H                    -2.79591   3.57996   0.46991 
 H                    -2.42913   1.99096  -0.14967 
 H                    -1.08502   3.44038  -1.40843 
 H                     0.01142   2.64379  -0.31902 
 
 NAtoms=     69 NQM=       69 NQMF=       0 NMMI=      0 NMMIF=      0
                NMic=       0 NMicF=      0.
                    Isotopes and Nuclear Properties:
 (Nuclear quadrupole moments (NQMom) in fm**2, nuclear magnetic moments (NMagM)
  in nuclear magnetons)

  Atom         1           2           3           4           5           6           7           8           9          10
 IAtWgt=          16          12          14          12          12          12          12          19          19          12
 AtmWgt=  15.9949146  12.0000000  14.0030740  12.0000000  12.0000000  12.0000000  12.0000000  18.9984033  18.9984033  12.0000000
 NucSpn=           0           0           2           0           0           0           0           1           1           0
 AtZEff=   0.0000000   0.0000000   0.0000000   0.0000000   0.0000000   0.0000000   0.0000000   0.0000000   0.0000000   0.0000000
 NQMom=    0.0000000   0.0000000   2.0440000   0.0000000   0.0000000   0.0000000   0.0000000   0.0000000   0.0000000   0.0000000
 NMagM=    0.0000000   0.0000000   0.4037610   0.0000000   0.0000000   0.0000000   0.0000000   2.6288670   2.6288670   0.0000000
 AtZNuc=   8.0000000   6.0000000   7.0000000   6.0000000   6.0000000   6.0000000   6.0000000   9.0000000   9.0000000   6.0000000

  Atom        11          12          13          14          15          16          17          18          19          20
 IAtWgt=          19          19          16          12          19          19          19          12          16          14
 AtmWgt=  18.9984033  18.9984033  15.9949146  12.0000000  18.9984033  18.9984033  18.9984033  12.0000000  15.9949146  14.0030740
 NucSpn=           1           1           0           0           1           1           1           0           0           2
 AtZEff=   0.0000000   0.0000000   0.0000000   0.0000000   0.0000000   0.0000000   0.0000000   0.0000000   0.0000000   0.0000000
 NQMom=    0.0000000   0.0000000   0.0000000   0.0000000   0.0000000   0.0000000   0.0000000   0.0000000   0.0000000   2.0440000
 NMagM=    2.6288670   2.6288670   0.0000000   0.0000000   2.6288670   2.6288670   2.6288670   0.0000000   0.0000000   0.4037610
 AtZNuc=   9.0000000   9.0000000   8.0000000   6.0000000   9.0000000   9.0000000   9.0000000   6.0000000   8.0000000   7.0000000

  Atom        21          22          23          24          25          26          27          28          29          30
 IAtWgt=          12          12          12          12          19          19          12          19          19          16
 AtmWgt=  12.0000000  12.0000000  12.0000000  12.0000000  18.9984033  18.9984033  12.0000000  18.9984033  18.9984033  15.9949146
 NucSpn=           0           0           0           0           1           1           0           1           1           0
 AtZEff=   0.0000000   0.0000000   0.0000000   0.0000000   0.0000000   0.0000000   0.0000000   0.0000000   0.0000000   0.0000000
 NQMom=    0.0000000   0.0000000   0.0000000   0.0000000   0.0000000   0.0000000   0.0000000   0.0000000   0.0000000   0.0000000
 NMagM=    0.0000000   0.0000000   0.0000000   0.0000000   2.6288670   2.6288670   0.0000000   2.6288670   2.6288670   0.0000000
 AtZNuc=   6.0000000   6.0000000   6.0000000   6.0000000   9.0000000   9.0000000   6.0000000   9.0000000   9.0000000   8.0000000

  Atom        31          32          33          34          35          36          37          38          39          40
 IAtWgt=          12          19          19          19          12          16          14          12          12          12
 AtmWgt=  12.0000000  18.9984033  18.9984033  18.9984033  12.0000000  15.9949146  14.0030740  12.0000000  12.0000000  12.0000000
 NucSpn=           0           1           1           1           0           0           2           0           0           0
 AtZEff=   0.0000000   0.0000000   0.0000000   0.0000000   0.0000000   0.0000000   0.0000000   0.0000000   0.0000000   0.0000000
 NQMom=    0.0000000   0.0000000   0.0000000   0.0000000   0.0000000   0.0000000   2.0440000   0.0000000   0.0000000   0.0000000
 NMagM=    0.0000000   2.6288670   2.6288670   2.6288670   0.0000000   0.0000000   0.4037610   0.0000000   0.0000000   0.0000000
 AtZNuc=   6.0000000   9.0000000   9.0000000   9.0000000   6.0000000   8.0000000   7.0000000   6.0000000   6.0000000   6.0000000

  Atom        41          42          43          44          45          46          47          48          49          50
 IAtWgt=          12          19          19          12          19          19          16          12          19          19
 AtmWgt=  12.0000000  18.9984033  18.9984033  12.0000000  18.9984033  18.9984033  15.9949146  12.0000000  18.9984033  18.9984033
 NucSpn=           0           1           1           0           1           1           0           0           1           1
 AtZEff=   0.0000000   0.0000000   0.0000000   0.0000000   0.0000000   0.0000000   0.0000000   0.0000000   0.0000000   0.0000000
 NQMom=    0.0000000   0.0000000   0.0000000   0.0000000   0.0000000   0.0000000   0.0000000   0.0000000   0.0000000   0.0000000
 NMagM=    0.0000000   2.6288670   2.6288670   0.0000000   2.6288670   2.6288670   0.0000000   0.0000000   2.6288670   2.6288670
 AtZNuc=   6.0000000   9.0000000   9.0000000   6.0000000   9.0000000   9.0000000   8.0000000   6.0000000   9.0000000   9.0000000

  Atom        51          52          53          54          55          56          57          58          59          60
 IAtWgt=          19           1           1           1           1           1           1           1           1           1
 AtmWgt=  18.9984033   1.0078250   1.0078250   1.0078250   1.0078250   1.0078250   1.0078250   1.0078250   1.0078250   1.0078250
 NucSpn=           1           1           1           1           1           1           1           1           1           1
 AtZEff=   0.0000000   0.0000000   0.0000000   0.0000000   0.0000000   0.0000000   0.0000000   0.0000000   0.0000000   0.0000000
 NQMom=    0.0000000   0.0000000   0.0000000   0.0000000   0.0000000   0.0000000   0.0000000   0.0000000   0.0000000   0.0000000
 NMagM=    2.6288670   2.7928460   2.7928460   2.7928460   2.7928460   2.7928460   2.7928460   2.7928460   2.7928460   2.7928460
 AtZNuc=   9.0000000   1.0000000   1.0000000   1.0000000   1.0000000   1.0000000   1.0000000   1.0000000   1.0000000   1.0000000

  Atom        61          62          63          64          65          66          67          68          69
 IAtWgt=           1           1           1           1           1           1           1           1           1
 AtmWgt=   1.0078250   1.0078250   1.0078250   1.0078250   1.0078250   1.0078250   1.0078250   1.0078250   1.0078250
 NucSpn=           1           1           1           1           1           1           1           1           1
 AtZEff=   0.0000000   0.0000000   0.0000000   0.0000000   0.0000000   0.0000000   0.0000000   0.0000000   0.0000000
 NQMom=    0.0000000   0.0000000   0.0000000   0.0000000   0.0000000   0.0000000   0.0000000   0.0000000   0.0000000
 NMagM=    2.7928460   2.7928460   2.7928460   2.7928460   2.7928460   2.7928460   2.7928460   2.7928460   2.7928460
 AtZNuc=   1.0000000   1.0000000   1.0000000   1.0000000   1.0000000   1.0000000   1.0000000   1.0000000   1.0000000
 Leave Link  101 at Sun Feb  2 11:24:58 2025, MaxMem=  5368709120 cpu:         0.9
 (Enter /home/k0335/k033513/app/g09/l202.exe)
 Symmetry turned off by external request.
 Stoichiometry    C21H18F21N3O6(1+,2)
 Framework group  C1[X(C21H18F21N3O6)]
 Deg. of freedom   201
 Full point group                 C1      NOp   1
                          Input orientation:                          
 ---------------------------------------------------------------------
 Center     Atomic      Atomic             Coordinates (Angstroms)
 Number     Number       Type             X           Y           Z
 ---------------------------------------------------------------------
      1          8           0        1.007703    1.962382    2.050601
      2          6           0        0.304129    0.951774    2.011274
      3          7           0        0.854752   -0.311236    2.054907
      4          6           0        2.309187   -0.425851    2.144097
      5          6           0        2.962549   -0.396795    0.758518
      6          6           0        4.486115   -0.511952    0.856892
      7          6           0        5.141018   -0.491536   -0.521757
      8          9           0        4.784806    0.657592   -1.162154
      9          9           0        4.632238   -1.513026   -1.266382
     10          6           0        6.675100   -0.599610   -0.442522
     11          9           0        7.173035    0.420919    0.300432
     12          9           0        7.021026   -1.753197    0.185736
     13          8           0        7.270475   -0.601756   -1.717354
     14          6           0        8.634890   -0.331580   -1.595622
     15          9           0        8.831362    0.984520   -1.390345
     16          9           0        9.206453   -1.038065   -0.603839
     17          9           0        9.238811   -0.668416   -2.754877
     18          6           0        0.121503   -1.465317    1.884270
     19          8           0        0.660262   -2.570317    1.787614
     20          7           0       -1.246031   -1.315119    1.805861
     21          6           0       -2.061881   -2.514492    1.628925
     22          6           0       -2.225210   -2.872255    0.147982
     23          6           0       -3.086190   -4.125826   -0.032158
     24          6           0       -3.246948   -4.488997   -1.508008
     25          9           0       -3.774881   -3.427188   -2.173762
     26          9           0       -2.007391   -4.682941   -2.041361
     27          6           0       -4.115295   -5.754275   -1.721091
     28          9           0       -4.178437   -6.104413   -3.030436
     29          9           0       -3.492578   -6.803011   -1.102974
     30          8           0       -5.423214   -5.762076   -1.201627
     31          6           0       -6.195131   -4.736924   -1.759975
     32          9           0       -5.962310   -3.596352   -1.084012
     33          9           0       -5.944834   -4.550890   -3.065006
     34          9           0       -7.496721   -5.053416   -1.610857
     35          6           0       -1.872934   -0.088746    1.754490
     36          8           0       -3.088988    0.008744    1.573158
     37          7           0       -1.066620    1.023127    1.892346
     38          6           0       -1.706669    2.340865    1.857284
     39          6           0       -2.007344    2.822436    0.428986
     40          6           0       -0.806751    3.371885   -0.348989
     41          6           0       -0.265853    4.736704    0.091218
     42          9           0        0.840847    4.988868   -0.675054
     43          9           0        0.182866    4.661172    1.371672
     44          6           0       -1.248818    5.917068   -0.050808
     45          9           0       -2.288814    5.760173    0.808398
     46          9           0       -0.637576    7.081025    0.278344
     47          8           0       -1.784578    6.003133   -1.350484
     48          6           0       -2.340825    7.272383   -1.540233
     49          9           0       -3.121724    7.223872   -2.640735
     50          9           0       -3.106210    7.650008   -0.500903
     51          9           0       -1.371908    8.180618   -1.756784
     52          1           0        2.701177    0.393717    2.758274
     53          1           0        2.568528   -1.358843    2.658631
     54          1           0        2.567419   -1.217406    0.147392
     55          1           0        2.694296    0.533508    0.242978
     56          1           0        4.868918    0.320935    1.458278
     57          1           0        4.741636   -1.445982    1.370975
     58          1           0       -1.598792   -3.351289    2.165434
     59          1           0       -3.046528   -2.353389    2.083804
     60          1           0       -2.681295   -2.030409   -0.387040
     61          1           0       -1.238681   -3.031882   -0.303797
     62          1           0       -4.066622   -3.951595    0.423635
     63          1           0       -2.614847   -4.960980    0.499161
     64          1           0       -1.105227    3.070687    2.406150
     65          1           0       -2.657795    2.264141    2.399099
     66          1           0       -2.795912    3.579964    0.469910
     67          1           0       -2.429134    1.990960   -0.149674
     68          1           0       -1.085019    3.440384   -1.408431
     69          1           0        0.011418    2.643786   -0.319021
 ---------------------------------------------------------------------
 Rotational constants (GHZ):      0.0348236      0.0260529      0.0166966
 Leave Link  202 at Sun Feb  2 11:24:59 2025, MaxMem=  5368709120 cpu:         0.1
 (Enter /home/k0335/k033513/app/g09/l301.exe)
 Standard basis: 6-31G(d,p) (6D, 7F)
 Ernie: Thresh=  0.10000D-02 Tol=  0.10000D-05 Strict=F.
   855 basis functions,  1554 primitive gaussians,   855 cartesian basis functions
   201 alpha electrons      200 beta electrons
       nuclear repulsion energy      7569.3322462514 Hartrees.
 IExCor=20419 DFT=T Ex+Corr=CAM-B3LYP ExCW=0 ScaHFX=  1.000000
 ScaDFX=  1.000000  1.000000  1.000000  0.810000 ScalE2=  1.000000  1.000000
 IRadAn=      0 IRanWt=     -1 IRanGd=            0 ICorTp=0 IEmpDi=  4
  HFx wShort=  0.000000 wLong=  0.330000 cFull=  0.190000 cShort=  0.000000 cLong=  0.460000
  DFx wShort=  0.000000 wLong=  0.330000 cFull=  0.190000 cShort=  0.000000 cLong=  0.460000
 NAtoms=   69 NActive=   69 NUniq=   69 SFac= 1.00D+00 NAtFMM=   60 NAOKFM=T Big=T
 Integral buffers will be    131072 words long.
 Raffenetti 2 integral format.
 Two-electron integral symmetry is turned off.
 Using the following non-standard input for PCM:
 eps=4.9
 --- end of non-standard input.
 ------------------------------------------------------------------------------
 Polarizable Continuum Model (PCM)
 =================================
 Model                : PCM (using non-symmetric T matrix).
 Atomic radii         : UFF (Universal Force Field).
 Polarization charges : Total charges.
 Charge compensation  : None.
 Solution method      : On-the-fly selection.
 Cavity type          : Scaled VdW (van der Waals Surface) (Alpha=1.100).
 Cavity algorithm     : GePol (No added spheres)
                        Default sphere list used, NSphG=   69.
                        Lebedev-Laikov grids with approx.  5.0 points / Ang**2.
                        Smoothing algorithm: Karplus/York (Gamma=1.0000).
                        Polarization charges: spherical gaussians, with
                                              point-specific exponents (IZeta= 3).
                        Self-potential: point-specific (ISelfS= 7).
                        Self-field    : sphere-specific E.n sum rule (ISelfD= 2).
 Solvent              : Generic,
                        Eps                           =   4.900000
                        Eps(infinity)                 =   0.000000
                        RSolv                         =   0.000000 Ang.
                        Molar volume                  =   0.000000 cm**3/mol
                        Thermal expansion coefficient =   0.000000 K**-1
                        Absolute temperature          = 298.150000 K
                        Numeral density               =   0.000000 Ang**-3
                        Hydrogen bond acidity         =   0.000000
                        Hydrogen bond basicity        =   0.000000
                        Surface tension at interface  =   0.000000 (cal/mol)*Ang**-2
                        Carbon aromaticity            =   0.000000
                        Electronegative halogenicity  =   0.000000
 ------------------------------------------------------------------------------
 GePol: Number of generator spheres                  =      69
 GePol: Total number of spheres                      =      69
 GePol: Number of exposed spheres                    =      69 (100.00%)
 GePol: Number of points                             =    5481
 GePol: Average weight of points                     =       0.12
 GePol: Minimum weight of points                     =   0.57D-10
 GePol: Maximum weight of points                     =    0.20577
 GePol: Number of points with low weight             =     283
 GePol: Fraction of low-weight points (<1% of avg)   =       5.16%
 GePol: Cavity surface area                          =    682.578 Ang**2
 GePol: Cavity volume                                =    770.959 Ang**3
 Leave Link  301 at Sun Feb  2 11:24:59 2025, MaxMem=  5368709120 cpu:         0.8
 (Enter /home/k0335/k033513/app/g09/l302.exe)
 NPDir=0 NMtPBC=     1 NCelOv=     1 NCel=       1 NClECP=     1 NCelD=      1
         NCelK=      1 NCelE2=     1 NClLst=     1 CellRange=     0.0.
 One-electron integrals computed using PRISM.
 NBasis=   855 RedAO= T EigKep=  1.39D-03  NBF=   855
 NBsUse=   855 1.00D-06 EigRej= -1.00D+00 NBFU=   855
 Precomputing XC quadrature grid using
 IXCGrd= 4 IRadAn=           0 IRanWt=          -1 IRanGd=           0 AccXCQ= 0.00D+00.
 Generated NRdTot=       0 NPtTot=           0 NUsed=           0 NTot=          32
 NSgBfM=   677   678   679   684   691 MxSgAt=    69 MxSgA2=    68.
 Leave Link  302 at Sun Feb  2 11:25:00 2025, MaxMem=  5368709120 cpu:        27.2
 (Enter /home/k0335/k033513/app/g09/l303.exe)
 DipDrv:  MaxL=1.
 Leave Link  303 at Sun Feb  2 11:25:00 2025, MaxMem=  5368709120 cpu:         1.2
 (Enter /home/k0335/k033513/app/g09/l401.exe)
 ExpMin= 1.61D-01 ExpMax= 7.00D+03 ExpMxC= 1.05D+03 IAcc=1 IRadAn=         1 AccDes= 0.00D+00
 Harris functional with IExCor=20419 and IRadAn=       1 diagonalized for initial guess.
 HarFok:  IExCor=20419 AccDes= 0.00D+00 IRadAn=         1 IDoV= 1 UseB2=F ITyADJ=14
 ICtDFT=  3500011 ScaDFX=  1.000000  1.000000  1.000000  1.000000
 FoFCou: FMM=F IPFlag=           0 FMFlag=      100000 FMFlg1=        2001
         NFxFlg=           0 DoJE=T BraDBF=F KetDBF=T FulRan=T
         wScrn=  0.000000 ICntrl=     500 IOpCl=  0 I1Cent=   200000004 NGrid=           0
         NMat0=    1 NMatS0=      1 NMatT0=    0 NMatD0=    1 NMtDS0=    0 NMtDT0=    0
 Symmetry not used in FoFCou.
 Harris En= -3413.40705140873    
 JPrj=0 DoOrth=F DoCkMO=F.
 Initial guess <Sx>= 0.0000 <Sy>= 0.0000 <Sz>= 0.5000 <S**2>= 0.7500 S= 0.5000
 Leave Link  401 at Sun Feb  2 11:25:02 2025, MaxMem=  5368709120 cpu:        32.4
 (Enter /home/k0335/k033513/app/g09/l502.exe)
 UHF open shell SCF:
 Using DIIS extrapolation, IDIIS=  1040.
 Two-electron integral symmetry not used.
 IVT=     2237413 IEndB=     2237413 NGot=  5368709120 MDV=  5367220228
 LenX=  5367220228 LenY=  5366488348
 Requested convergence on RMS density matrix=1.00D-08 within 128 cycles.
 Requested convergence on MAX density matrix=1.00D-06.
 Requested convergence on             energy=1.00D-06.
 No special actions if energy rises.
 Fock matrices will be formed incrementally for  20 cycles.

 Cycle   1  Pass 1  IDiag  1:
 FoFJK:  IHMeth= 1 ICntrl=       0 DoSepK=T KAlg= 0 I1Cent=   0 FoldK=F
 IRaf=         1 NMat=   1 IRICut=       1 DoRegI=T DoRafI=F ISym2E= 0.
 FoFCou: FMM=T IPFlag=           0 FMFlag=      100000 FMFlg1=        2001
         NFxFlg=           0 DoJE=T BraDBF=F KetDBF=F FulRan=T
         wScrn=  0.000000 ICntrl=     500 IOpCl=  0 I1Cent=           0 NGrid=           0
         NMat0=    1 NMatS0=      1 NMatT0=    0 NMatD0=    1 NMtDS0=    0 NMtDT0=    0
 Symmetry not used in FoFCou.
 FMM levels:  10  Number of levels for PrismC:   9
 Inv3:  Mode=1 IEnd=    90124083.
 Iteration    1 A*A^-1 deviation from unit magnitude is 1.33D-14 for    642.
 Iteration    1 A*A^-1 deviation from orthogonality  is 6.81D-15 for   5185    419.
 Iteration    1 A^-1*A deviation from unit magnitude is 1.20D-14 for    891.
 Iteration    1 A^-1*A deviation from orthogonality  is 1.83D-13 for   4822   4804.
 E= -3520.69093829257    
 DIIS: error= 5.85D-02 at cycle   1 NSaved=   1.
 NSaved= 1 IEnMin= 1 EnMin= -3520.69093829257     IErMin= 1 ErrMin= 5.85D-02
 ErrMax= 5.85D-02  0.00D+00 EMaxC= 1.00D-01 BMatC= 1.26D+01 BMatP= 1.26D+01
 IDIUse=3 WtCom= 4.15D-01 WtEn= 5.85D-01
 Coeff-Com:  0.100D+01
 Coeff-En:   0.100D+01
 Coeff:      0.100D+01
 Gap=     0.489 Goal=   None    Shift=    0.000
 Gap=     0.036 Goal=   None    Shift=    0.000
 GapD=    0.036 DampG=0.250 DampE=0.500 DampFc=0.2500 IDamp=-1.
 Damping current iteration by 2.50D-01
 RMSDP=2.73D-03 MaxDP=1.62D-01              OVMax= 5.36D-01

 Cycle   2  Pass 1  IDiag  1:
 RMSU=  6.81D-04    CP:  9.99D-01
 E= -3521.14793346771     Delta-E=       -0.456995175136 Rises=F Damp=T
 DIIS: error= 4.50D-02 at cycle   2 NSaved=   2.
 NSaved= 2 IEnMin= 2 EnMin= -3521.14793346771     IErMin= 2 ErrMin= 4.50D-02
 ErrMax= 4.50D-02  0.00D+00 EMaxC= 1.00D-01 BMatC= 5.12D+00 BMatP= 1.26D+01
 IDIUse=3 WtCom= 5.50D-01 WtEn= 4.50D-01
 Coeff-Com: -0.141D+01 0.241D+01
 Coeff-En:   0.000D+00 0.100D+01
 Coeff:     -0.775D+00 0.178D+01
 Gap=     0.534 Goal=   None    Shift=    0.000
 Gap=     0.059 Goal=   None    Shift=    0.000
 RMSDP=1.41D-03 MaxDP=1.09D-01 DE=-4.57D-01 OVMax= 4.02D-01

 Cycle   3  Pass 1  IDiag  1:
 RMSU=  8.23D-04    CP:  9.97D-01  2.67D+00
 E= -3521.99323689924     Delta-E=       -0.845303431532 Rises=F Damp=F
 DIIS: error= 5.91D-03 at cycle   3 NSaved=   3.
 NSaved= 3 IEnMin= 3 EnMin= -3521.99323689924     IErMin= 3 ErrMin= 5.91D-03
 ErrMax= 5.91D-03  0.00D+00 EMaxC= 1.00D-01 BMatC= 4.21D-01 BMatP= 5.12D+00
 IDIUse=3 WtCom= 9.41D-01 WtEn= 5.91D-02
 Coeff-Com: -0.376D+00 0.688D+00 0.688D+00
 Coeff-En:   0.000D+00 0.000D+00 0.100D+01
 Coeff:     -0.354D+00 0.648D+00 0.707D+00
 Gap=     0.388 Goal=   None    Shift=    0.000
 Gap=     0.069 Goal=   None    Shift=    0.000
 RMSDP=5.25D-04 MaxDP=7.52D-02 DE=-8.45D-01 OVMax= 1.65D-01

 Cycle   4  Pass 1  IDiag  1:
 RMSU=  4.58D-04    CP:  9.97D-01  2.69D+00  6.89D-01
 E= -3522.04621490537     Delta-E=       -0.052978006128 Rises=F Damp=F
 DIIS: error= 4.51D-03 at cycle   4 NSaved=   4.
 NSaved= 4 IEnMin= 4 EnMin= -3522.04621490537     IErMin= 4 ErrMin= 4.51D-03
 ErrMax= 4.51D-03  0.00D+00 EMaxC= 1.00D-01 BMatC= 1.75D-01 BMatP= 4.21D-01
 IDIUse=3 WtCom= 9.55D-01 WtEn= 4.51D-02
 Coeff-Com: -0.191D-01 0.512D-01 0.389D+00 0.579D+00
 Coeff-En:   0.000D+00 0.000D+00 0.273D+00 0.727D+00
 Coeff:     -0.183D-01 0.489D-01 0.384D+00 0.585D+00
 Gap=     0.371 Goal=   None    Shift=    0.000
 Gap=     0.103 Goal=   None    Shift=    0.000
 RMSDP=2.59D-04 MaxDP=6.05D-02 DE=-5.30D-02 OVMax= 8.55D-02

 Cycle   5  Pass 1  IDiag  1:
 RMSU=  1.64D-04    CP:  9.96D-01  2.68D+00  8.58D-01  6.85D-01
 E= -3522.08005731487     Delta-E=       -0.033842409503 Rises=F Damp=F
 DIIS: error= 1.11D-03 at cycle   5 NSaved=   5.
 NSaved= 5 IEnMin= 5 EnMin= -3522.08005731487     IErMin= 5 ErrMin= 1.11D-03
 ErrMax= 1.11D-03  0.00D+00 EMaxC= 1.00D-01 BMatC= 1.70D-02 BMatP= 1.75D-01
 IDIUse=3 WtCom= 9.89D-01 WtEn= 1.11D-02
 Coeff-Com:  0.114D-01-0.150D-01 0.141D+00 0.315D+00 0.548D+00
 Coeff-En:   0.000D+00 0.000D+00 0.000D+00 0.000D+00 0.100D+01
 Coeff:      0.113D-01-0.149D-01 0.140D+00 0.311D+00 0.553D+00
 Gap=     0.364 Goal=   None    Shift=    0.000
 Gap=     0.109 Goal=   None    Shift=    0.000
 RMSDP=7.41D-05 MaxDP=1.47D-02 DE=-3.38D-02 OVMax= 2.51D-02

 Cycle   6  Pass 1  IDiag  1:
 RMSU=  6.42D-05    CP:  9.96D-01  2.70D+00  8.59D-01  7.50D-01  8.89D-01
 E= -3522.08416942966     Delta-E=       -0.004112114791 Rises=F Damp=F
 DIIS: error= 4.04D-04 at cycle   6 NSaved=   6.
 NSaved= 6 IEnMin= 6 EnMin= -3522.08416942966     IErMin= 6 ErrMin= 4.04D-04
 ErrMax= 4.04D-04  0.00D+00 EMaxC= 1.00D-01 BMatC= 9.67D-04 BMatP= 1.70D-02
 IDIUse=3 WtCom= 9.96D-01 WtEn= 4.04D-03
 Coeff-Com: -0.504D-02 0.482D-02-0.261D-01-0.863D-02 0.111D+00 0.924D+00
 Coeff-En:   0.000D+00 0.000D+00 0.000D+00 0.000D+00 0.000D+00 0.100D+01
 Coeff:     -0.502D-02 0.480D-02-0.260D-01-0.859D-02 0.111D+00 0.924D+00
 Gap=     0.363 Goal=   None    Shift=    0.000
 Gap=     0.115 Goal=   None    Shift=    0.000
 RMSDP=4.81D-05 MaxDP=9.54D-03 DE=-4.11D-03 OVMax= 2.62D-02

 Cycle   7  Pass 1  IDiag  1:
 RMSU=  2.45D-05    CP:  9.96D-01  2.71D+00  8.67D-01  7.73D-01  1.09D+00
                    CP:  1.35D+00
 E= -3522.08504980112     Delta-E=       -0.000880371463 Rises=F Damp=F
 DIIS: error= 3.05D-04 at cycle   7 NSaved=   7.
 NSaved= 7 IEnMin= 7 EnMin= -3522.08504980112     IErMin= 7 ErrMin= 3.05D-04
 ErrMax= 3.05D-04  0.00D+00 EMaxC= 1.00D-01 BMatC= 4.89D-04 BMatP= 9.67D-04
 IDIUse=3 WtCom= 9.97D-01 WtEn= 3.05D-03
 Coeff-Com: -0.113D-01 0.147D-01-0.575D-01-0.918D-01-0.884D-01 0.502D+00
 Coeff-Com:  0.733D+00
 Coeff-En:   0.000D+00 0.000D+00 0.000D+00 0.000D+00 0.000D+00 0.000D+00
 Coeff-En:   0.100D+01
 Coeff:     -0.113D-01 0.147D-01-0.573D-01-0.915D-01-0.881D-01 0.500D+00
 Coeff:      0.733D+00
 Gap=     0.363 Goal=   None    Shift=    0.000
 Gap=     0.119 Goal=   None    Shift=    0.000
 RMSDP=3.05D-05 MaxDP=6.12D-03 DE=-8.80D-04 OVMax= 1.27D-02

 Cycle   8  Pass 1  IDiag  1:
 RMSU=  1.42D-05    CP:  9.96D-01  2.71D+00  8.68D-01  7.84D-01  1.19D+00
                    CP:  1.67D+00  1.09D+00
 E= -3522.08540666819     Delta-E=       -0.000356867067 Rises=F Damp=F
 DIIS: error= 1.91D-04 at cycle   8 NSaved=   8.
 NSaved= 8 IEnMin= 8 EnMin= -3522.08540666819     IErMin= 8 ErrMin= 1.91D-04
 ErrMax= 1.91D-04  0.00D+00 EMaxC= 1.00D-01 BMatC= 1.17D-04 BMatP= 4.89D-04
 IDIUse=3 WtCom= 9.98D-01 WtEn= 1.91D-03
 Coeff-Com: -0.596D-02 0.839D-02-0.195D-01-0.346D-01-0.636D-01-0.310D-01
 Coeff-Com:  0.321D+00 0.825D+00
 Coeff-En:   0.000D+00 0.000D+00 0.000D+00 0.000D+00 0.000D+00 0.000D+00
 Coeff-En:   0.000D+00 0.100D+01
 Coeff:     -0.595D-02 0.838D-02-0.195D-01-0.345D-01-0.635D-01-0.310D-01
 Coeff:      0.321D+00 0.825D+00
 Gap=     0.363 Goal=   None    Shift=    0.000
 Gap=     0.120 Goal=   None    Shift=    0.000
 RMSDP=1.75D-05 MaxDP=3.73D-03 DE=-3.57D-04 OVMax= 6.80D-03

 Cycle   9  Pass 1  IDiag  1:
 RMSU=  7.63D-06    CP:  9.96D-01  2.71D+00  8.68D-01  7.87D-01  1.24D+00
                    CP:  1.81D+00  1.45D+00  1.24D+00
 E= -3522.08550736786     Delta-E=       -0.000100699666 Rises=F Damp=F
 DIIS: error= 7.69D-05 at cycle   9 NSaved=   9.
 NSaved= 9 IEnMin= 9 EnMin= -3522.08550736786     IErMin= 9 ErrMin= 7.69D-05
 ErrMax= 7.69D-05  0.00D+00 EMaxC= 1.00D-01 BMatC= 3.44D-05 BMatP= 1.17D-04
 IDIUse=1 WtCom= 1.00D+00 WtEn= 0.00D+00
 Coeff-Com:  0.622D-03-0.562D-03 0.112D-01 0.177D-01 0.957D-03-0.203D+00
 Coeff-Com: -0.108D+00 0.427D+00 0.854D+00
 Coeff:      0.622D-03-0.562D-03 0.112D-01 0.177D-01 0.957D-03-0.203D+00
 Coeff:     -0.108D+00 0.427D+00 0.854D+00
 Gap=     0.363 Goal=   None    Shift=    0.000
 Gap=     0.120 Goal=   None    Shift=    0.000
 RMSDP=1.11D-05 MaxDP=1.97D-03 DE=-1.01D-04 OVMax= 5.12D-03

 Cycle  10  Pass 1  IDiag  1:
 RMSU=  4.41D-06    CP:  9.96D-01  2.71D+00  8.68D-01  7.90D-01  1.26D+00
                    CP:  1.89D+00  1.64D+00  1.67D+00  1.24D+00
 E= -3522.08554021385     Delta-E=       -0.000032845992 Rises=F Damp=F
 DIIS: error= 3.47D-05 at cycle  10 NSaved=  10.
 NSaved=10 IEnMin=10 EnMin= -3522.08554021385     IErMin=10 ErrMin= 3.47D-05
 ErrMax= 3.47D-05  0.00D+00 EMaxC= 1.00D-01 BMatC= 5.51D-06 BMatP= 3.44D-05
 IDIUse=1 WtCom= 1.00D+00 WtEn= 0.00D+00
 Coeff-Com:  0.104D-02-0.137D-02 0.620D-02 0.103D-01 0.838D-02-0.620D-01
 Coeff-Com: -0.797D-01 0.238D-01 0.305D+00 0.788D+00
 Coeff:      0.104D-02-0.137D-02 0.620D-02 0.103D-01 0.838D-02-0.620D-01
 Coeff:     -0.797D-01 0.238D-01 0.305D+00 0.788D+00
 Gap=     0.363 Goal=   None    Shift=    0.000
 Gap=     0.120 Goal=   None    Shift=    0.000
 RMSDP=4.53D-06 MaxDP=6.45D-04 DE=-3.28D-05 OVMax= 3.49D-03

 Cycle  11  Pass 1  IDiag  1:
 RMSU=  2.20D-06    CP:  9.96D-01  2.71D+00  8.67D-01  7.91D-01  1.26D+00
                    CP:  1.90D+00  1.71D+00  1.81D+00  1.53D+00  1.47D+00
 E= -3522.08554780780     Delta-E=       -0.000007593953 Rises=F Damp=F
 DIIS: error= 4.02D-05 at cycle  11 NSaved=  11.
 NSaved=11 IEnMin=11 EnMin= -3522.08554780780     IErMin=10 ErrMin= 3.47D-05
 ErrMax= 4.02D-05  0.00D+00 EMaxC= 1.00D-01 BMatC= 2.36D-06 BMatP= 5.51D-06
 IDIUse=1 WtCom= 1.00D+00 WtEn= 0.00D+00
 Coeff-Com:  0.419D-03-0.613D-03 0.100D-03 0.325D-04 0.389D-02 0.260D-01
 Coeff-Com: -0.717D-02-0.105D+00-0.731D-01 0.315D+00 0.840D+00
 Coeff:      0.419D-03-0.613D-03 0.100D-03 0.325D-04 0.389D-02 0.260D-01
 Coeff:     -0.717D-02-0.105D+00-0.731D-01 0.315D+00 0.840D+00
 Gap=     0.363 Goal=   None    Shift=    0.000
 Gap=     0.120 Goal=   None    Shift=    0.000
 RMSDP=4.27D-06 MaxDP=7.23D-04 DE=-7.59D-06 OVMax= 3.38D-03

 Cycle  12  Pass 1  IDiag  1:
 RMSU=  1.47D-06    CP:  9.96D-01  2.71D+00  8.67D-01  7.91D-01  1.26D+00
                    CP:  1.90D+00  1.73D+00  1.91D+00  1.73D+00  2.11D+00
                    CP:  1.81D+00
 E= -3522.08555388220     Delta-E=       -0.000006074401 Rises=F Damp=F
 DIIS: error= 3.90D-05 at cycle  12 NSaved=  12.
 NSaved=12 IEnMin=12 EnMin= -3522.08555388220     IErMin=10 ErrMin= 3.47D-05
 ErrMax= 3.90D-05  0.00D+00 EMaxC= 1.00D-01 BMatC= 1.62D-06 BMatP= 2.36D-06
 IDIUse=1 WtCom= 1.00D+00 WtEn= 0.00D+00
 Coeff-Com:  0.640D-04-0.973D-04-0.704D-03-0.157D-02 0.781D-03 0.185D-01
 Coeff-Com:  0.101D-01-0.463D-01-0.548D-01-0.513D-01 0.353D+00 0.773D+00
 Coeff:      0.640D-04-0.973D-04-0.704D-03-0.157D-02 0.781D-03 0.185D-01
 Coeff:      0.101D-01-0.463D-01-0.548D-01-0.513D-01 0.353D+00 0.773D+00
 Gap=     0.363 Goal=   None    Shift=    0.000
 Gap=     0.120 Goal=   None    Shift=    0.000
 RMSDP=3.50D-06 MaxDP=6.58D-04 DE=-6.07D-06 OVMax= 2.94D-03

 Cycle  13  Pass 1  IDiag  1:
 RMSU=  6.34D-07    CP:  9.96D-01  2.71D+00  8.67D-01  7.91D-01  1.26D+00
                    CP:  1.90D+00  1.75D+00  1.96D+00  1.86D+00  2.59D+00
                    CP:  2.70D+00  1.85D+00
 E= -3522.08555863272     Delta-E=       -0.000004750518 Rises=F Damp=F
 DIIS: error= 4.09D-05 at cycle  13 NSaved=  13.
 NSaved=13 IEnMin=13 EnMin= -3522.08555863272     IErMin=10 ErrMin= 3.47D-05
 ErrMax= 4.09D-05  0.00D+00 EMaxC= 1.00D-01 BMatC= 1.47D-06 BMatP= 1.62D-06
 IDIUse=1 WtCom= 1.00D+00 WtEn= 0.00D+00
 Coeff-Com:  0.703D-04-0.887D-04 0.442D-04-0.492D-03 0.265D-03-0.155D-02
 Coeff-Com:  0.386D-02-0.142D-02 0.183D-01-0.138D+00 0.914D-02 0.246D+00
 Coeff-Com:  0.864D+00
 Coeff:      0.703D-04-0.887D-04 0.442D-04-0.492D-03 0.265D-03-0.155D-02
 Coeff:      0.386D-02-0.142D-02 0.183D-01-0.138D+00 0.914D-02 0.246D+00
 Coeff:      0.864D+00
 Gap=     0.363 Goal=   None    Shift=    0.000
 Gap=     0.120 Goal=   None    Shift=    0.000
 RMSDP=3.92D-06 MaxDP=6.99D-04 DE=-4.75D-06 OVMax= 3.22D-03

 Cycle  14  Pass 1  IDiag  1:
 RMSU=  1.63D-06    CP:  9.96D-01  2.71D+00  8.66D-01  7.91D-01  1.26D+00
                    CP:  1.90D+00  1.77D+00  2.02D+00  1.99D+00  3.00D+00
                    CP:  3.00D+00  2.99D+00  1.98D+00
 E= -3522.08556385832     Delta-E=       -0.000005225602 Rises=F Damp=F
 DIIS: error= 4.14D-05 at cycle  14 NSaved=  14.
 NSaved=14 IEnMin=14 EnMin= -3522.08556385832     IErMin=10 ErrMin= 3.47D-05
 ErrMax= 4.14D-05  0.00D+00 EMaxC= 1.00D-01 BMatC= 1.43D-06 BMatP= 1.47D-06
 IDIUse=1 WtCom= 1.00D+00 WtEn= 0.00D+00
 Coeff-Com:  0.167D-03-0.211D-03 0.877D-03 0.899D-03 0.152D-02-0.114D-01
 Coeff-Com: -0.492D-02 0.931D-02 0.658D-01-0.613D-01-0.118D-01-0.447D+00
 Coeff-Com:  0.313D-01 0.143D+01
 Coeff:      0.167D-03-0.211D-03 0.877D-03 0.899D-03 0.152D-02-0.114D-01
 Coeff:     -0.492D-02 0.931D-02 0.658D-01-0.613D-01-0.118D-01-0.447D+00
 Coeff:      0.313D-01 0.143D+01
 Gap=     0.363 Goal=   None    Shift=    0.000
 Gap=     0.120 Goal=   None    Shift=    0.000
 RMSDP=6.68D-06 MaxDP=1.22D-03 DE=-5.23D-06 OVMax= 5.54D-03

 Cycle  15  Pass 1  IDiag  1:
 RMSU=  4.21D-06    CP:  9.96D-01  2.71D+00  8.65D-01  7.92D-01  1.26D+00
                    CP:  1.90D+00  1.80D+00  2.11D+00  2.20D+00  3.00D+00
                    CP:  3.00D+00  3.00D+00  3.00D+00  3.00D+00
 E= -3522.08557268933     Delta-E=       -0.000008831010 Rises=F Damp=F
 DIIS: error= 4.26D-05 at cycle  15 NSaved=  15.
 NSaved=15 IEnMin=15 EnMin= -3522.08557268933     IErMin=10 ErrMin= 3.47D-05
 ErrMax= 4.26D-05  0.00D+00 EMaxC= 1.00D-01 BMatC= 1.52D-06 BMatP= 1.43D-06
 IDIUse=1 WtCom= 1.00D+00 WtEn= 0.00D+00
 Coeff-Com:  0.160D-03-0.201D-03 0.872D-03 0.888D-03 0.143D-02-0.118D-01
 Coeff-Com: -0.478D-02 0.110D-01 0.673D-01-0.670D-01-0.270D-01-0.445D+00
 Coeff-Com:  0.994D-01 0.145D+01-0.792D-01
 Coeff:      0.160D-03-0.201D-03 0.872D-03 0.888D-03 0.143D-02-0.118D-01
 Coeff:     -0.478D-02 0.110D-01 0.673D-01-0.670D-01-0.270D-01-0.445D+00
 Coeff:      0.994D-01 0.145D+01-0.792D-01
 Gap=     0.363 Goal=   None    Shift=    0.000
 Gap=     0.120 Goal=   None    Shift=    0.000
 RMSDP=6.05D-07 MaxDP=1.07D-04 DE=-8.83D-06 OVMax= 4.96D-04

 Cycle  16  Pass 1  IDiag  1:
 RMSU=  2.80D-07    CP:  9.96D-01  2.71D+00  8.65D-01  7.92D-01  1.26D+00
                    CP:  1.90D+00  1.79D+00  2.10D+00  2.18D+00  3.00D+00
                    CP:  3.00D+00  3.00D+00  3.00D+00  3.00D+00  8.82D-01
 E= -3522.08557188912     Delta-E=        0.000000800217 Rises=F Damp=F
 DIIS: error= 4.25D-05 at cycle  16 NSaved=  16.
 NSaved=16 IEnMin=15 EnMin= -3522.08557268933     IErMin=10 ErrMin= 3.47D-05
 ErrMax= 4.25D-05  0.00D+00 EMaxC= 1.00D-01 BMatC= 1.53D-06 BMatP= 1.43D-06
 IDIUse=1 WtCom= 1.00D+00 WtEn= 0.00D+00
 Large coefficients: NSaved= 16 BigCof=   45.25 CofMax=   10.00 Det=-4.12D-11
 Inversion failed.  Reducing to 15 matrices.
 Large coefficients: NSaved= 15 BigCof=   45.73 CofMax=   10.00 Det=-4.14D-11
 Inversion failed.  Reducing to 14 matrices.
 Large coefficients: NSaved= 14 BigCof=   46.08 CofMax=   10.00 Det=-4.21D-11
 Inversion failed.  Reducing to 13 matrices.
 Large coefficients: NSaved= 13 BigCof=   43.26 CofMax=   10.00 Det=-4.63D-11
 Inversion failed.  Reducing to 12 matrices.
 Large coefficients: NSaved= 12 BigCof=   42.28 CofMax=   10.00 Det=-4.63D-11
 Inversion failed.  Reducing to 11 matrices.
 Large coefficients: NSaved= 11 BigCof=   34.92 CofMax=   10.00 Det=-4.98D-11
 Inversion failed.  Reducing to 10 matrices.
 Large coefficients: NSaved= 10 BigCof=   35.92 CofMax=   10.00 Det=-5.00D-11
 Inversion failed.  Reducing to  9 matrices.
 Large coefficients: NSaved=  9 BigCof=   34.44 CofMax=   10.00 Det=-5.03D-11
 Inversion failed.  Reducing to  8 matrices.
 Large coefficients: NSaved=  8 BigCof=   34.47 CofMax=   10.00 Det=-5.04D-11
 Inversion failed.  Reducing to  7 matrices.
 Large coefficients: NSaved=  7 BigCof=   37.43 CofMax=   10.00 Det=-5.10D-11
 Inversion failed.  Reducing to  6 matrices.
 Large coefficients: NSaved=  6 BigCof=   31.82 CofMax=   10.00 Det=-5.37D-11
 Inversion failed.  Reducing to  5 matrices.
 Large coefficients: NSaved=  5 BigCof=   24.63 CofMax=   10.00 Det=-5.87D-11
 Inversion failed.  Reducing to  4 matrices.
 Large coefficients: NSaved=  4 BigCof=   23.25 CofMax=   10.00 Det=-7.14D-11
 Inversion failed.  Reducing to  3 matrices.
 Large coefficients: NSaved=  3 BigCof=   14.17 CofMax=   10.00 Det=-8.12D-11
 Inversion failed.  Reducing to  2 matrices.
 Large coefficients: NSaved=  2 BigCof=   26.09 CofMax=   10.00 Det=-1.19D-10
 Coeff-Com:  0.261D+02-0.251D+02
 Coeff:      0.261D+02-0.251D+02
 Gap=     0.363 Goal=   None    Shift=    0.000
 Gap=     0.120 Goal=   None    Shift=    0.000
 RMSDP=1.93D-05 MaxDP=3.39D-03 DE= 8.00D-07 OVMax= 1.62D-02

 Cycle  17  Pass 1  IDiag  1:
 RMSU=  1.06D-05    CP:  9.96D-01  2.72D+00  8.63D-01  7.93D-01  1.26D+00
                    CP:  1.91D+00  1.88D+00  2.36D+00  2.75D+00  3.00D+00
                    CP:  3.00D+00  3.00D+00  3.00D+00  3.00D+00  3.00D+00
                    CP: -3.00D+00
 E= -3522.08559736802     Delta-E=       -0.000025478905 Rises=F Damp=F
 DIIS: error= 4.83D-05 at cycle  17 NSaved=   3.
 NSaved= 3 IEnMin= 3 EnMin= -3522.08559736802     IErMin= 2 ErrMin= 4.25D-05
 ErrMax= 4.83D-05  0.00D+00 EMaxC= 1.00D-01 BMatC= 1.45D-06 BMatP= 1.52D-06
 IDIUse=1 WtCom= 1.00D+00 WtEn= 0.00D+00
 Large coefficients: NSaved=  3 BigCof=   27.47 CofMax=   10.00 Det=-1.19D-10
 Inversion failed.  Reducing to  2 matrices.
 Coeff-Com:  0.439D+00 0.561D+00
 Coeff:      0.439D+00 0.561D+00
 Gap=     0.363 Goal=   None    Shift=    0.000
 Gap=     0.120 Goal=   None    Shift=    0.000
 RMSDP=4.93D-06 MaxDP=8.72D-04 DE=-2.55D-05 OVMax= 4.22D-03

 Cycle  18  Pass 1  IDiag  1:
 RMSU=  1.47D-06    CP:  9.96D-01  2.72D+00  8.63D-01  7.93D-01  1.26D+00
                    CP:  1.91D+00  1.85D+00  2.30D+00  2.59D+00  3.00D+00
                    CP:  3.00D+00  3.00D+00  3.00D+00  3.00D+00  3.00D+00
                    CP: -3.00D+00  5.85D-01
 E= -3522.08559095429     Delta-E=        0.000006413729 Rises=F Damp=F
 DIIS: error= 4.49D-05 at cycle  18 NSaved=   3.
 NSaved= 3 IEnMin= 2 EnMin= -3522.08559736802     IErMin= 1 ErrMin= 4.25D-05
 ErrMax= 4.49D-05  0.00D+00 EMaxC= 1.00D-01 BMatC= 1.36D-06 BMatP= 1.45D-06
 IDIUse=1 WtCom= 1.00D+00 WtEn= 0.00D+00
 Coeff-Com: -0.811D+00 0.518D+00 0.129D+01
 Coeff:     -0.811D+00 0.518D+00 0.129D+01
 Gap=     0.363 Goal=   None    Shift=    0.000
 Gap=     0.120 Goal=   None    Shift=    0.000
 RMSDP=1.79D-05 MaxDP=3.12D-03 DE= 6.41D-06 OVMax= 1.50D-02

 Cycle  19  Pass 1  IDiag  1:
 RMSU=  1.48D-06    CP:  9.96D-01  2.72D+00  8.60D-01  7.94D-01  1.26D+00
                    CP:  1.92D+00  1.93D+00  2.53D+00  3.00D+00  3.00D+00
                    CP:  3.00D+00  3.00D+00  3.00D+00  3.00D+00  3.00D+00
                    CP: -3.00D+00  2.09D+00 -2.78D+00
 E= -3522.08561439976     Delta-E=       -0.000023445466 Rises=F Damp=F
 DIIS: error= 4.54D-05 at cycle  19 NSaved=   4.
 NSaved= 4 IEnMin= 4 EnMin= -3522.08561439976     IErMin= 1 ErrMin= 4.25D-05
 ErrMax= 4.54D-05  0.00D+00 EMaxC= 1.00D-01 BMatC= 1.75D-06 BMatP= 1.36D-06
 IDIUse=1 WtCom= 1.00D+00 WtEn= 0.00D+00
 Coeff-Com: -0.460D+00 0.528D+00 0.119D+01-0.261D+00
 Coeff:     -0.460D+00 0.528D+00 0.119D+01-0.261D+00
 Gap=     0.363 Goal=   None    Shift=    0.000
 Gap=     0.120 Goal=   None    Shift=    0.000
 RMSDP=9.67D-06 MaxDP=1.67D-03 DE=-2.34D-05 OVMax= 7.99D-03

 Cycle  20  Pass 1  IDiag  1:
 RMSU=  2.75D-07    CP:  9.96D-01  2.72D+00  8.62D-01  7.93D-01  1.26D+00
                    CP:  1.91D+00  1.89D+00  2.40D+00  2.83D+00  3.00D+00
                    CP:  3.00D+00  3.00D+00  3.00D+00  3.00D+00  3.00D+00
                    CP: -3.00D+00  1.27D+00 -7.58D-01  3.04D-01
 E= -3522.08560169249     Delta-E=        0.000012707267 Rises=F Damp=F
 DIIS: error= 4.43D-05 at cycle  20 NSaved=   5.
 NSaved= 5 IEnMin= 4 EnMin= -3522.08561439976     IErMin= 1 ErrMin= 4.25D-05
 ErrMax= 4.43D-05  0.00D+00 EMaxC= 1.00D-01 BMatC= 1.85D-06 BMatP= 1.36D-06
 IDIUse=1 WtCom= 1.00D+00 WtEn= 0.00D+00
 Coeff-Com:  0.426D+00 0.627D+00 0.278D+00 0.269D+01-0.302D+01
 Coeff:      0.426D+00 0.627D+00 0.278D+00 0.269D+01-0.302D+01
 Gap=     0.363 Goal=   None    Shift=    0.000
 Gap=     0.120 Goal=   None    Shift=    0.000
 RMSDP=1.57D-05 MaxDP=2.76D-03 DE= 1.27D-05 OVMax= 1.29D-02

 Cycle  21  Pass 1  IDiag  1:
 Restarting incremental Fock formation.
 E= -3522.08562231215     Delta-E=       -0.000020619664 Rises=F Damp=F
 DIIS: error= 4.53D-05 at cycle  21 NSaved=   6.
 NSaved= 6 IEnMin= 6 EnMin= -3522.08562231215     IErMin= 1 ErrMin= 4.25D-05
 ErrMax= 4.53D-05  0.00D+00 EMaxC= 1.00D-01 BMatC= 2.09D-06 BMatP= 1.36D-06
 IDIUse=1 WtCom= 1.00D+00 WtEn= 0.00D+00
 Coeff-Com:  0.163D+00 0.573D+00 0.560D+00 0.157D+01-0.135D+01-0.515D+00
 Coeff:      0.163D+00 0.573D+00 0.560D+00 0.157D+01-0.135D+01-0.515D+00
 Gap=     0.363 Goal=   None    Shift=    0.000
 Gap=     0.120 Goal=   None    Shift=    0.000
 RMSDP=1.51D-05 MaxDP=2.67D-03 DE=-2.06D-05 OVMax= 1.24D-02

 Cycle  22  Pass 1  IDiag  1:
 RMSU=  1.51D-05    CP:  1.00D+00
 E= -3522.08560239373     Delta-E=        0.000019918420 Rises=F Damp=F
 DIIS: error= 4.39D-05 at cycle  22 NSaved=   7.
 NSaved= 7 IEnMin= 6 EnMin= -3522.08562231215     IErMin= 1 ErrMin= 4.25D-05
 ErrMax= 4.39D-05  0.00D+00 EMaxC= 1.00D-01 BMatC= 2.18D-06 BMatP= 1.36D-06
 IDIUse=1 WtCom= 1.00D+00 WtEn= 0.00D+00
 Coeff-Com:  0.134D+00 0.567D+00 0.563D+00 0.172D+01-0.142D+01-0.788D+00
 Coeff-Com:  0.221D+00
 Coeff:      0.134D+00 0.567D+00 0.563D+00 0.172D+01-0.142D+01-0.788D+00
 Coeff:      0.221D+00
 Gap=     0.363 Goal=   None    Shift=    0.000
 Gap=     0.120 Goal=   None    Shift=    0.000
 RMSDP=2.07D-06 MaxDP=3.72D-04 DE= 1.99D-05 OVMax= 1.68D-03

 Cycle  23  Pass 1  IDiag  1:
 RMSU=  1.01D-07    CP:  1.00D+00  1.14D+00
 E= -3522.08559967032     Delta-E=        0.000002723413 Rises=F Damp=F
 DIIS: error= 4.37D-05 at cycle  23 NSaved=   8.
 NSaved= 8 IEnMin= 6 EnMin= -3522.08562231215     IErMin= 1 ErrMin= 4.25D-05
 ErrMax= 4.37D-05  0.00D+00 EMaxC= 1.00D-01 BMatC= 2.16D-06 BMatP= 1.36D-06
 IDIUse=1 WtCom= 1.00D+00 WtEn= 0.00D+00
 Coeff-Com:  0.122D+00 0.567D+00 0.571D+00 0.172D+01-0.140D+01-0.803D+00
 Coeff-Com:  0.317D+00-0.904D-01
 Coeff:      0.122D+00 0.567D+00 0.571D+00 0.172D+01-0.140D+01-0.803D+00
 Coeff:      0.317D+00-0.904D-01
 Gap=     0.363 Goal=   None    Shift=    0.000
 Gap=     0.120 Goal=   None    Shift=    0.000
 RMSDP=1.38D-07 MaxDP=2.45D-05 DE= 2.72D-06 OVMax= 1.13D-04

 Cycle  24  Pass 1  IDiag  1:
 RMSU=  4.58D-09    CP:  1.00D+00  1.13D+00  9.92D-01
 E= -3522.08559985260     Delta-E=       -0.000000182274 Rises=F Damp=F
 DIIS: error= 4.37D-05 at cycle  24 NSaved=   9.
 NSaved= 9 IEnMin= 6 EnMin= -3522.08562231215     IErMin= 1 ErrMin= 4.25D-05
 ErrMax= 4.37D-05  0.00D+00 EMaxC= 1.00D-01 BMatC= 2.16D-06 BMatP= 1.36D-06
 IDIUse=1 WtCom= 1.00D+00 WtEn= 0.00D+00
 Large coefficients: NSaved=  9 BigCof=  138.81 CofMax=   10.00 Det=-7.46D-13
 Inversion failed.  Reducing to  8 matrices.
 Large coefficients: NSaved=  8 BigCof=   96.70 CofMax=   10.00 Det=-1.07D-12
 Inversion failed.  Reducing to  7 matrices.
 Large coefficients: NSaved=  7 BigCof=   34.36 CofMax=   10.00 Det=-1.19D-12
 Inversion failed.  Reducing to  6 matrices.
 Large coefficients: NSaved=  6 BigCof=  190.35 CofMax=   10.00 Det=-1.42D-12
 Inversion failed.  Reducing to  5 matrices.
 Large coefficients: NSaved=  5 BigCof=   23.64 CofMax=   10.00 Det=-2.15D-12
 Inversion failed.  Reducing to  4 matrices.
 Large coefficients: NSaved=  4 BigCof=   69.00 CofMax=   10.00 Det=-1.42D-11
 Inversion failed.  Reducing to  3 matrices.
 Large coefficients: NSaved=  3 BigCof=   27.27 CofMax=   10.00 Det=-1.51D-11
 Inversion failed.  Reducing to  2 matrices.
 Large coefficients: NSaved=  2 BigCof=   27.05 CofMax=   10.00 Det=-1.92D-11
 Coeff-Com: -0.261D+02 0.271D+02
 Coeff:     -0.261D+02 0.271D+02
 Gap=     0.363 Goal=   None    Shift=    0.000
 Gap=     0.120 Goal=   None    Shift=    0.000
 RMSDP=7.15D-06 MaxDP=1.21D-03 DE=-1.82D-07 OVMax= 5.59D-03

 Cycle  25  Pass 1  IDiag  1:
 RMSU=  7.94D-07    CP:  1.00D+00  6.59D-01 -2.16D-01  3.00D+00
 E= -3522.08560917966     Delta-E=       -0.000009327068 Rises=F Damp=F
 DIIS: error= 5.19D-05 at cycle  25 NSaved=   3.
 NSaved= 3 IEnMin= 3 EnMin= -3522.08560917966     IErMin= 1 ErrMin= 4.37D-05
 ErrMax= 5.19D-05  0.00D+00 EMaxC= 1.00D-01 BMatC= 1.69D-06 BMatP= 2.16D-06
 IDIUse=1 WtCom= 1.00D+00 WtEn= 0.00D+00
 Large coefficients: NSaved=  3 BigCof=   17.44 CofMax=   10.00 Det=-1.92D-11
 Inversion failed.  Reducing to  2 matrices.
 Coeff-Com:  0.424D+00 0.576D+00
 Coeff:      0.424D+00 0.576D+00
 Gap=     0.363 Goal=   None    Shift=    0.000
 Gap=     0.120 Goal=   None    Shift=    0.000
 RMSDP=1.04D-06 MaxDP=2.44D-04 DE=-9.33D-06 OVMax= 7.23D-04

 Cycle  26  Pass 1  IDiag  1:
 RMSU=  1.48D-07    CP:  1.00D+00  6.16D-01 -1.15D+00  3.00D+00  3.49D-03
 E= -3522.08561004859     Delta-E=       -0.000000868931 Rises=F Damp=F
 DIIS: error= 4.41D-05 at cycle  26 NSaved=   3.
 NSaved= 3 IEnMin= 3 EnMin= -3522.08561004859     IErMin= 1 ErrMin= 4.37D-05
 ErrMax= 4.41D-05  0.00D+00 EMaxC= 1.00D-01 BMatC= 2.17D-06 BMatP= 1.69D-06
 IDIUse=1 WtCom= 1.00D+00 WtEn= 0.00D+00
 Coeff-Com: -0.177D+00 0.579D+00 0.598D+00
 Coeff:     -0.177D+00 0.579D+00 0.598D+00
 Gap=     0.363 Goal=   None    Shift=    0.000
 Gap=     0.120 Goal=   None    Shift=    0.000
 RMSDP=4.66D-06 MaxDP=8.34D-04 DE=-8.69D-07 OVMax= 3.83D-03

 Cycle  27  Pass 1  IDiag  1:
 RMSU=  9.33D-08    CP:  1.00D+00  3.08D-01 -2.66D+00  3.00D+00  7.51D-03
                    CP:  6.88D-01
 E= -3522.08561618840     Delta-E=       -0.000006139804 Rises=F Damp=F
 DIIS: error= 4.46D-05 at cycle  27 NSaved=   4.
 NSaved= 4 IEnMin= 4 EnMin= -3522.08561618840     IErMin= 1 ErrMin= 4.37D-05
 ErrMax= 4.46D-05  0.00D+00 EMaxC= 1.00D-01 BMatC= 2.15D-06 BMatP= 1.69D-06
 IDIUse=1 WtCom= 1.00D+00 WtEn= 0.00D+00
 Coeff-Com:  0.210D+01 0.592D+00 0.135D+01-0.305D+01
 Coeff:      0.210D+01 0.592D+00 0.135D+01-0.305D+01
 Gap=     0.363 Goal=   None    Shift=    0.000
 Gap=     0.120 Goal=   None    Shift=    0.000
 RMSDP=3.19D-05 MaxDP=5.69D-03 DE=-6.14D-06 OVMax= 2.62D-02

 Cycle  28  Pass 1  IDiag  1:
 RMSU=  9.50D-07    CP:  1.00D+00  2.41D+00  3.00D+00 -3.00D+00 -5.44D-02
                    CP: -6.17D-01  2.13D+00
 E= -3522.08557434700     Delta-E=        0.000041841404 Rises=F Damp=F
 DIIS: error= 4.18D-05 at cycle  28 NSaved=   5.
 NSaved= 5 IEnMin= 4 EnMin= -3522.08561618840     IErMin= 5 ErrMin= 4.18D-05
 ErrMax= 4.18D-05  0.00D+00 EMaxC= 1.00D-01 BMatC= 2.23D-06 BMatP= 1.69D-06
 IDIUse=1 WtCom= 1.00D+00 WtEn= 0.00D+00
 Coeff-Com:  0.200D+01 0.594D+00 0.168D+01-0.290D+01-0.375D+00
 Coeff:      0.200D+01 0.594D+00 0.168D+01-0.290D+01-0.375D+00
 Gap=     0.363 Goal=   None    Shift=    0.000
 Gap=     0.120 Goal=   None    Shift=    0.000
 RMSDP=1.17D-05 MaxDP=2.09D-03 DE= 4.18D-05 OVMax= 9.53D-03

 Cycle  29  Pass 1  IDiag  1:
 RMSU=  1.00D-07    CP:  1.00D+00  1.64D+00  3.00D+00 -1.33D+00 -2.14D-03
                    CP:  2.82D-01  3.44D-01  2.20D-01
 E= -3522.08558959797     Delta-E=       -0.000015250975 Rises=F Damp=F
 DIIS: error= 4.26D-05 at cycle  29 NSaved=   6.
 NSaved= 6 IEnMin= 4 EnMin= -3522.08561618840     IErMin= 5 ErrMin= 4.18D-05
 ErrMax= 4.26D-05  0.00D+00 EMaxC= 1.00D-01 BMatC= 2.26D-06 BMatP= 1.69D-06
 IDIUse=1 WtCom= 1.00D+00 WtEn= 0.00D+00
 Coeff-Com:  0.285D+00 0.584D+00 0.711D-01 0.163D+00 0.213D+01-0.223D+01
 Coeff:      0.285D+00 0.584D+00 0.711D-01 0.163D+00 0.213D+01-0.223D+01
 Gap=     0.363 Goal=   None    Shift=    0.000
 Gap=     0.120 Goal=   None    Shift=    0.000
 RMSDP=5.89D-06 MaxDP=1.09D-03 DE=-1.53D-05 OVMax= 4.51D-03

 Cycle  30  Pass 1  IDiag  1:
 RMSU=  4.16D-07    CP:  1.00D+00  2.03D+00  3.00D+00 -3.00D+00 -5.98D-02
                    CP: -1.61D+00  3.45D-01  9.14D-01 -6.28D-01
 E= -3522.08558193746     Delta-E=        0.000007660507 Rises=F Damp=F
 DIIS: error= 4.26D-05 at cycle  30 NSaved=   7.
 NSaved= 7 IEnMin= 4 EnMin= -3522.08561618840     IErMin= 5 ErrMin= 4.18D-05
 ErrMax= 4.26D-05  0.00D+00 EMaxC= 1.00D-01 BMatC= 2.43D-06 BMatP= 1.69D-06
 IDIUse=1 WtCom= 1.00D+00 WtEn= 0.00D+00
 Coeff-Com:  0.458D+00 0.584D+00 0.621D-01 0.389D-01 0.198D+01-0.206D+01
 Coeff-Com: -0.657D-01
 Coeff:      0.458D+00 0.584D+00 0.621D-01 0.389D-01 0.198D+01-0.206D+01
 Coeff:     -0.657D-01
 Gap=     0.363 Goal=   None    Shift=    0.000
 Gap=     0.120 Goal=   None    Shift=    0.000
 RMSDP=8.02D-07 MaxDP=1.49D-04 DE= 7.66D-06 OVMax= 6.20D-04

 Cycle  31  Pass 1  IDiag  1:
 RMSU=  1.30D-08    CP:  1.00D+00  1.98D+00  3.00D+00 -3.00D+00 -5.39D-02
                    CP: -1.47D+00  3.42D-01  8.13D-01 -4.17D-01  8.91D-01
 E= -3522.08558297606     Delta-E=       -0.000001038592 Rises=F Damp=F
 DIIS: error= 4.26D-05 at cycle  31 NSaved=   8.
 NSaved= 8 IEnMin= 4 EnMin= -3522.08561618840     IErMin= 5 ErrMin= 4.18D-05
 ErrMax= 4.26D-05  0.00D+00 EMaxC= 1.00D-01 BMatC= 2.42D-06 BMatP= 1.69D-06
 IDIUse=1 WtCom= 1.00D+00 WtEn= 0.00D+00
 Large coefficients: NSaved=  8 BigCof=   38.53 CofMax=   10.00 Det=-2.68D-11
 Inversion failed.  Reducing to  7 matrices.
 Large coefficients: NSaved=  7 BigCof=   18.06 CofMax=   10.00 Det=-4.08D-11
 Inversion failed.  Reducing to  6 matrices.
 Large coefficients: NSaved=  6 BigCof=   17.78 CofMax=   10.00 Det=-4.43D-11
 Inversion failed.  Reducing to  5 matrices.
 Large coefficients: NSaved=  5 BigCof=   15.74 CofMax=   10.00 Det=-1.09D-10
 Inversion failed.  Reducing to  4 matrices.
 Coeff-Com: -0.367D+00 0.201D+01 0.374D+01-0.438D+01
 Coeff:     -0.367D+00 0.201D+01 0.374D+01-0.438D+01
 Gap=     0.363 Goal=   None    Shift=    0.000
 Gap=     0.120 Goal=   None    Shift=    0.000
 RMSDP=4.38D-05 MaxDP=7.88D-03 DE=-1.04D-06 OVMax= 3.56D-02

 Cycle  32  Pass 1  IDiag  1:
 RMSU=  5.93D-07    CP:  1.00D+00 -9.16D-01 -3.00D+00 -3.00D+00  9.98D-01
                    CP:  1.08D+00  3.00D+00 -3.88D-01  1.19D+00 -1.12D+00
                    CP:  3.00D+00
 E= -3522.08564055322     Delta-E=       -0.000057577163 Rises=F Damp=F
 DIIS: error= 5.23D-05 at cycle  32 NSaved=   5.
 NSaved= 5 IEnMin= 5 EnMin= -3522.08564055322     IErMin= 3 ErrMin= 4.26D-05
 ErrMax= 5.23D-05  0.00D+00 EMaxC= 1.00D-01 BMatC= 2.00D-06 BMatP= 2.15D-06
 IDIUse=1 WtCom= 1.00D+00 WtEn= 0.00D+00
 Large coefficients: NSaved=  5 BigCof=   28.94 CofMax=   10.00 Det=-1.10D-10
 Inversion failed.  Reducing to  4 matrices.
 Coeff-Com: -0.123D+01 0.263D+01-0.938D+00 0.529D+00
 Coeff:     -0.123D+01 0.263D+01-0.938D+00 0.529D+00
 Gap=     0.362 Goal=   None    Shift=    0.000
 Gap=     0.120 Goal=   None    Shift=    0.000
 RMSDP=2.42D-05 MaxDP=4.50D-03 DE=-5.76D-05 OVMax= 2.06D-02

 Cycle  33  Pass 1  IDiag  1:
 RMSU=  9.57D-07    CP:  1.00D+00 -2.51D+00 -3.00D+00 -3.00D+00  5.10D-02
                    CP:  1.26D+00  3.00D+00 -7.44D-01  2.01D-01 -3.00D+00
                    CP:  3.00D+00  3.00D+00
 E= -3522.08567235050     Delta-E=       -0.000031797277 Rises=F Damp=F
 DIIS: error= 4.66D-05 at cycle  33 NSaved=   5.
 NSaved= 5 IEnMin= 5 EnMin= -3522.08567235050     IErMin= 3 ErrMin= 4.26D-05
 ErrMax= 4.66D-05  0.00D+00 EMaxC= 1.00D-01 BMatC= 2.30D-06 BMatP= 2.00D-06
 IDIUse=1 WtCom= 1.00D+00 WtEn= 0.00D+00
 Coeff-Com: -0.721D-01 0.184D+01-0.103D+01 0.592D+00-0.326D+00
 Coeff:     -0.721D-01 0.184D+01-0.103D+01 0.592D+00-0.326D+00
 Gap=     0.363 Goal=   None    Shift=    0.000
 Gap=     0.120 Goal=   None    Shift=    0.000
 RMSDP=1.57D-05 MaxDP=2.90D-03 DE=-3.18D-05 OVMax= 1.32D-02

 Cycle  34  Pass 1  IDiag  1:
 RMSU=  2.06D-07    CP:  1.00D+00 -1.47D+00 -3.00D+00 -3.00D+00  7.79D-02
                    CP:  2.39D+00  3.00D+00 -6.54D-01  1.38D+00 -2.41D+00
                    CP:  3.00D+00  1.72D+00  1.71D-01
 E= -3522.08565171326     Delta-E=        0.000020637239 Rises=F Damp=F
 DIIS: error= 4.58D-05 at cycle  34 NSaved=   6.
 NSaved= 6 IEnMin= 5 EnMin= -3522.08567235050     IErMin= 3 ErrMin= 4.26D-05
 ErrMax= 4.58D-05  0.00D+00 EMaxC= 1.00D-01 BMatC= 2.27D-06 BMatP= 2.00D-06
 IDIUse=1 WtCom= 1.00D+00 WtEn= 0.00D+00
 Coeff-Com: -0.168D+00 0.109D+01 0.161D+00 0.492D+00 0.234D+01-0.291D+01
 Coeff:     -0.168D+00 0.109D+01 0.161D+00 0.492D+00 0.234D+01-0.291D+01
 Gap=     0.363 Goal=   None    Shift=    0.000
 Gap=     0.120 Goal=   None    Shift=    0.000
 RMSDP=3.88D-06 MaxDP=7.31D-04 DE= 2.06D-05 OVMax= 2.85D-03

 Cycle  35  Pass 1  IDiag  1:
 RMSU=  3.58D-07    CP:  1.00D+00 -1.72D+00 -3.00D+00 -3.00D+00 -8.74D-02
                    CP: -3.00D+00  3.00D+00 -1.06D+00 -4.92D-01 -2.57D+00
                    CP:  3.00D+00  2.91D+00  3.86D-02  1.22D-01
 E= -3522.08565660146     Delta-E=       -0.000004888201 Rises=F Damp=F
 DIIS: error= 4.76D-05 at cycle  35 NSaved=   7.
 NSaved= 7 IEnMin= 5 EnMin= -3522.08567235050     IErMin= 3 ErrMin= 4.26D-05
 ErrMax= 4.76D-05  0.00D+00 EMaxC= 1.00D-01 BMatC= 2.59D-06 BMatP= 2.00D-06
 IDIUse=1 WtCom= 1.00D+00 WtEn= 0.00D+00
 Coeff-Com:  0.813D+00-0.470D+00-0.807D-01 0.486D+00 0.241D+01-0.282D+01
 Coeff-Com:  0.659D+00
 Coeff:      0.813D+00-0.470D+00-0.807D-01 0.486D+00 0.241D+01-0.282D+01
 Coeff:      0.659D+00
 Gap=     0.362 Goal=   None    Shift=    0.000
 Gap=     0.120 Goal=   None    Shift=    0.000
 RMSDP=2.74D-05 MaxDP=5.15D-03 DE=-4.89D-06 OVMax= 2.23D-02

 Cycle  36  Pass 1  IDiag  1:
 RMSU=  7.90D-06    CP:  1.00D+00 -3.00D+00 -3.00D+00 -3.00D+00 -1.61D-01
                    CP: -3.00D+00  3.00D+00 -1.22D+00 -9.68D-01 -3.00D+00
                    CP:  3.00D+00  3.00D+00  2.87D+00 -3.00D+00  9.41D-01
 E= -3522.08569274211     Delta-E=       -0.000036140655 Rises=F Damp=F
 DIIS: error= 4.72D-05 at cycle  36 NSaved=   8.
 NSaved= 8 IEnMin= 8 EnMin= -3522.08569274211     IErMin= 3 ErrMin= 4.26D-05
 ErrMax= 4.72D-05  0.00D+00 EMaxC= 1.00D-01 BMatC= 2.11D-06 BMatP= 2.00D-06
 IDIUse=1 WtCom= 1.00D+00 WtEn= 0.00D+00
 Coeff-Com: -0.945D+00 0.164D+01-0.380D+00 0.468D+00 0.235D+01-0.201D+01
 Coeff-Com:  0.788D+00-0.917D+00
 Coeff:     -0.945D+00 0.164D+01-0.380D+00 0.468D+00 0.235D+01-0.201D+01
 Coeff:      0.788D+00-0.917D+00
 Gap=     0.362 Goal=   None    Shift=    0.000
 Gap=     0.120 Goal=   None    Shift=    0.000
 RMSDP=1.48D-05 MaxDP=2.85D-03 DE=-3.61D-05 OVMax= 1.19D-02

 Cycle  37  Pass 1  IDiag  1:
 RMSU=  1.93D-07    CP:  1.00D+00 -2.56D+00 -3.00D+00 -3.00D+00 -2.12D-02
                    CP:  4.71D-01  3.00D+00 -5.44D-01  9.59D-02 -3.00D+00
                    CP:  3.00D+00  3.00D+00  8.87D-01  3.44D-01 -2.27D-01
                    CP:  1.92D-03
 E= -3522.08567322325     Delta-E=        0.000019518864 Rises=F Damp=F
 DIIS: error= 4.52D-05 at cycle  37 NSaved=   9.
 NSaved= 9 IEnMin= 8 EnMin= -3522.08569274211     IErMin= 3 ErrMin= 4.26D-05
 ErrMax= 4.52D-05  0.00D+00 EMaxC= 1.00D-01 BMatC= 2.53D-06 BMatP= 2.00D-06
 IDIUse=1 WtCom= 1.00D+00 WtEn= 0.00D+00
 Coeff-Com: -0.246D+01 0.356D+01 0.745D+00 0.450D+00 0.191D+01-0.136D+01
 Coeff-Com: -0.236D+01 0.369D+01-0.316D+01
 Coeff:     -0.246D+01 0.356D+01 0.745D+00 0.450D+00 0.191D+01-0.136D+01
 Coeff:     -0.236D+01 0.369D+01-0.316D+01
 Gap=     0.363 Goal=   None    Shift=    0.000
 Gap=     0.119 Goal=   None    Shift=    0.000
 RMSDP=1.19D-05 MaxDP=2.49D-03 DE= 1.95D-05 OVMax= 1.06D-02

 Cycle  38  Pass 1  IDiag  1:
 RMSU=  2.64D-06    CP:  1.00D+00 -3.00D+00 -3.00D+00 -3.00D+00 -3.36D-01
                    CP: -3.00D+00  3.00D+00 -3.00D+00  4.82D-02 -3.00D+00
                    CP:  3.00D+00  3.00D+00  3.00D+00 -3.00D+00  3.00D+00
                    CP:  5.31D-01  1.45D+00
 E= -3522.08568718545     Delta-E=       -0.000013962203 Rises=F Damp=F
 DIIS: error= 4.87D-05 at cycle  38 NSaved=  10.
 NSaved=10 IEnMin= 8 EnMin= -3522.08569274211     IErMin= 3 ErrMin= 4.26D-05
 ErrMax= 4.87D-05  0.00D+00 EMaxC= 1.00D-01 BMatC= 6.00D-06 BMatP= 2.00D-06
 IDIUse=1 WtCom= 1.00D+00 WtEn= 0.00D+00
 Coeff-Com:  0.196D+01-0.986D+00 0.239D+01 0.468D+00 0.292D+01-0.708D+01
 Coeff-Com: -0.742D+00 0.683D+01-0.310D+01-0.167D+01
 Coeff:      0.196D+01-0.986D+00 0.239D+01 0.468D+00 0.292D+01-0.708D+01
 Coeff:     -0.742D+00 0.683D+01-0.310D+01-0.167D+01
 Gap=     0.363 Goal=   None    Shift=    0.000
 Gap=     0.117 Goal=   None    Shift=    0.000
 RMSDP=2.85D-05 MaxDP=5.44D-03 DE=-1.40D-05 OVMax= 2.58D-02

 Cycle  39  Pass 1  IDiag  1:
 RMSU=  2.01D-06    CP:  1.00D+00 -1.40D+00 -3.00D+00 -3.00D+00 -6.03D-01
                    CP: -3.00D+00  3.00D+00 -2.30D+00 -3.00D+00 -1.04D+00
                    CP:  3.00D+00  3.00D+00 -1.79D-01 -3.00D+00  3.00D+00
                    CP:  4.11D-02  3.00D+00  9.32D-01
 E= -3522.08564353129     Delta-E=        0.000043654165 Rises=F Damp=F
 DIIS: error= 7.74D-05 at cycle  39 NSaved=  11.
 NSaved=11 IEnMin= 8 EnMin= -3522.08569274211     IErMin= 3 ErrMin= 4.26D-05
 ErrMax= 7.74D-05  0.00D+00 EMaxC= 1.00D-01 BMatC= 3.00D-05 BMatP= 2.00D-06
 IDIUse=1 WtCom= 1.00D+00 WtEn= 0.00D+00
 Coeff-Com:  0.191D+01-0.354D+00 0.110D+01 0.477D+00 0.105D+01-0.495D+01
 Coeff-Com: -0.245D+00 0.624D+01-0.174D+01-0.313D+01 0.628D+00
 Coeff:      0.191D+01-0.354D+00 0.110D+01 0.477D+00 0.105D+01-0.495D+01
 Coeff:     -0.245D+00 0.624D+01-0.174D+01-0.313D+01 0.628D+00
 Gap=     0.363 Goal=   None    Shift=    0.000
 Gap=     0.119 Goal=   None    Shift=    0.000
 DSYEVD-2 returned Info=      641999 IAlg= 4 N=   855 NDim=   855 NE2=     6276593 trying  DSYEV.
 RMSDP=1.41D-05 MaxDP=2.98D-03 DE= 4.37D-05 OVMax= 1.37D-02

 Cycle  40  Pass 1  IDiag  1:
 RMSU=  1.16D-06    CP:  1.00D+00 -5.78D-01  3.00D+00 -3.00D+00 -4.77D-01
                    CP: -3.00D+00 -1.42D+00  1.55D+00 -3.00D+00  3.00D+00
                    CP:  3.00D+00  7.17D-01 -1.06D+00  2.43D+00 -3.92D-02
                    CP:  1.73D-02  3.00D+00  1.83D-01  7.25D-01
 E= -3522.08563104459     Delta-E=        0.000012486691 Rises=F Damp=F
 DIIS: error= 5.20D-05 at cycle  40 NSaved=  12.
 NSaved=12 IEnMin= 8 EnMin= -3522.08569274211     IErMin= 3 ErrMin= 4.26D-05
 ErrMax= 5.20D-05  0.00D+00 EMaxC= 1.00D-01 BMatC= 1.27D-05 BMatP= 2.00D-06
 IDIUse=1 WtCom= 1.00D+00 WtEn= 0.00D+00
 Coeff-Com: -0.448D+00 0.274D+01 0.354D+00 0.429D+00-0.106D+01-0.143D+01
 Coeff-Com: -0.248D+01 0.927D+01-0.391D+01-0.405D+01 0.300D+00 0.128D+01
 Coeff:     -0.448D+00 0.274D+01 0.354D+00 0.429D+00-0.106D+01-0.143D+01
 Coeff:     -0.248D+01 0.927D+01-0.391D+01-0.405D+01 0.300D+00 0.128D+01
 Gap=     0.363 Goal=   None    Shift=    0.000
 Gap=     0.119 Goal=   None    Shift=    0.000
 RMSDP=8.96D-06 MaxDP=1.39D-03 DE= 1.25D-05 OVMax= 7.88D-03

 Cycle  41  Pass 1  IDiag  1:
 Restarting incremental Fock formation.
 E= -3522.08563842706     Delta-E=       -0.000007382461 Rises=F Damp=F
 DIIS: error= 4.89D-05 at cycle  41 NSaved=  13.
 NSaved=13 IEnMin= 8 EnMin= -3522.08569274211     IErMin= 3 ErrMin= 4.26D-05
 ErrMax= 4.89D-05  0.00D+00 EMaxC= 1.00D-01 BMatC= 1.11D-05 BMatP= 2.00D-06
 IDIUse=1 WtCom= 1.00D+00 WtEn= 0.00D+00
 Coeff-Com: -0.153D+01 0.390D+01 0.287D+00 0.467D+00-0.826D+00-0.921D+00
 Coeff-Com: -0.241D+01 0.832D+01-0.488D+01-0.293D+01-0.659D+00 0.983D+00
 Coeff-Com:  0.119D+01
 Coeff:     -0.153D+01 0.390D+01 0.287D+00 0.467D+00-0.826D+00-0.921D+00
 Coeff:     -0.241D+01 0.832D+01-0.488D+01-0.293D+01-0.659D+00 0.983D+00
 Coeff:      0.119D+01
 Gap=     0.363 Goal=   None    Shift=    0.000
 Gap=     0.119 Goal=   None    Shift=    0.000
 RMSDP=1.42D-05 MaxDP=3.01D-03 DE=-7.38D-06 OVMax= 1.43D-02

 Cycle  42  Pass 1  IDiag  1:
 RMSU=  1.42D-05    CP:  1.00D+00
 E= -3522.08562526639     Delta-E=        0.000013160661 Rises=F Damp=F
 DIIS: error= 4.87D-05 at cycle  42 NSaved=  14.
 NSaved=14 IEnMin= 8 EnMin= -3522.08569274211     IErMin= 3 ErrMin= 4.26D-05
 ErrMax= 4.87D-05  0.00D+00 EMaxC= 1.00D-01 BMatC= 8.90D-06 BMatP= 2.00D-06
 IDIUse=1 WtCom= 1.00D+00 WtEn= 0.00D+00
 Coeff-Com: -0.931D+00 0.279D+01 0.905D+00 0.477D+00 0.352D+00-0.236D+01
 Coeff-Com: -0.177D+01 0.711D+01-0.461D+01-0.203D+01-0.756D+00 0.293D+00
 Coeff-Com:  0.800D+00 0.724D+00
 Coeff:     -0.931D+00 0.279D+01 0.905D+00 0.477D+00 0.352D+00-0.236D+01
 Coeff:     -0.177D+01 0.711D+01-0.461D+01-0.203D+01-0.756D+00 0.293D+00
 Coeff:      0.800D+00 0.724D+00
 Gap=     0.363 Goal=   None    Shift=    0.000
 Gap=     0.119 Goal=   None    Shift=    0.000
 RMSDP=1.13D-05 MaxDP=2.43D-03 DE= 1.32D-05 OVMax= 1.13D-02

 Cycle  43  Pass 1  IDiag  1:
 RMSU=  2.99D-06    CP:  1.00D+00  1.76D+00
 E= -3522.08561214011     Delta-E=        0.000013126286 Rises=F Damp=F
 DIIS: error= 4.91D-05 at cycle  43 NSaved=  15.
 NSaved=15 IEnMin= 8 EnMin= -3522.08569274211     IErMin= 3 ErrMin= 4.26D-05
 ErrMax= 4.91D-05  0.00D+00 EMaxC= 1.00D-01 BMatC= 1.09D-05 BMatP= 2.00D-06
 IDIUse=1 WtCom= 1.00D+00 WtEn= 0.00D+00
 Coeff-Com:  0.206D+01-0.162D+01 0.992D+00 0.758D-01-0.134D+00-0.114D+01
 Coeff-Com: -0.300D+01 0.634D+01 0.873D+00-0.437D+01 0.219D+01-0.107D+01
 Coeff-Com: -0.930D+00-0.691D+01 0.764D+01
 Coeff:      0.206D+01-0.162D+01 0.992D+00 0.758D-01-0.134D+00-0.114D+01
 Coeff:     -0.300D+01 0.634D+01 0.873D+00-0.437D+01 0.219D+01-0.107D+01
 Coeff:     -0.930D+00-0.691D+01 0.764D+01
 Gap=     0.363 Goal=   None    Shift=    0.000
 Gap=     0.119 Goal=   None    Shift=    0.000
 RMSDP=4.08D-05 MaxDP=8.58D-03 DE= 1.31D-05 OVMax= 4.15D-02

 Cycle  44  Pass 1  IDiag  1:
 RMSU=  2.30D-05    CP:  1.00D+00  3.00D+00  2.88D+00
 E= -3522.08557262232     Delta-E=        0.000039517785 Rises=F Damp=F
 DIIS: error= 4.74D-05 at cycle  44 NSaved=  16.
 NSaved=16 IEnMin= 8 EnMin= -3522.08569274211     IErMin= 3 ErrMin= 4.26D-05
 ErrMax= 4.74D-05  0.00D+00 EMaxC= 1.00D-01 BMatC= 8.79D-06 BMatP= 2.00D-06
 IDIUse=1 WtCom= 1.00D+00 WtEn= 0.00D+00
 Large coefficients: NSaved= 16 BigCof=   10.51 CofMax=   10.00 Det=-7.38D-10
 Inversion failed.  Reducing to 15 matrices.
 Large coefficients: NSaved= 15 BigCof=   10.50 CofMax=   10.00 Det=-8.00D-10
 Inversion failed.  Reducing to 14 matrices.
 Large coefficients: NSaved= 14 BigCof=   10.17 CofMax=   10.00 Det=-8.98D-10
 Inversion failed.  Reducing to 13 matrices.
 Large coefficients: NSaved= 13 BigCof=   10.53 CofMax=   10.00 Det=-1.16D-09
 Inversion failed.  Reducing to 12 matrices.
 Coeff-Com:  0.356D+00 0.158D+01-0.195D+01 0.129D+01 0.901D+00-0.500D+00
 Coeff-Com: -0.132D+01-0.310D-01-0.115D+01 0.369D-02 0.158D+01 0.240D+00
 Coeff:      0.356D+00 0.158D+01-0.195D+01 0.129D+01 0.901D+00-0.500D+00
 Coeff:     -0.132D+01-0.310D-01-0.115D+01 0.369D-02 0.158D+01 0.240D+00
 Gap=     0.363 Goal=   None    Shift=    0.000
 Gap=     0.120 Goal=   None    Shift=    0.000
 RMSDP=3.14D-05 MaxDP=5.31D-03 DE= 3.95D-05 OVMax= 2.52D-02

 Cycle  45  Pass 1  IDiag  1:
 RMSU=  7.15D-06    CP:  1.00D+00  3.00D+00 -3.00D+00  9.14D-02
 E= -3522.08560959781     Delta-E=       -0.000036975485 Rises=F Damp=F
 DIIS: error= 4.71D-05 at cycle  45 NSaved=  13.
 NSaved=13 IEnMin= 5 EnMin= -3522.08569274211     IErMin= 6 ErrMin= 4.52D-05
 ErrMax= 4.71D-05  0.00D+00 EMaxC= 1.00D-01 BMatC= 2.48D-06 BMatP= 2.00D-06
 IDIUse=1 WtCom= 1.00D+00 WtEn= 0.00D+00
 Coeff-Com:  0.336D+00 0.178D+01-0.208D+01 0.126D+01 0.790D+00-0.424D+00
 Coeff-Com: -0.124D+01-0.117D+00-0.128D+01 0.169D+00 0.170D+01 0.261D+00
 Coeff-Com: -0.154D+00
 Coeff:      0.336D+00 0.178D+01-0.208D+01 0.126D+01 0.790D+00-0.424D+00
 Coeff:     -0.124D+01-0.117D+00-0.128D+01 0.169D+00 0.170D+01 0.261D+00
 Coeff:     -0.154D+00
 Gap=     0.363 Goal=   None    Shift=    0.000
 Gap=     0.120 Goal=   None    Shift=    0.000
 RMSDP=4.28D-06 MaxDP=9.06D-04 DE=-3.70D-05 OVMax= 4.19D-03

 Cycle  46  Pass 1  IDiag  1:
 RMSU=  4.56D-07    CP:  1.00D+00  2.81D+00 -3.00D+00  2.68D-02  1.06D+00
 E= -3522.08561395395     Delta-E=       -0.000004356139 Rises=F Damp=F
 DIIS: error= 4.76D-05 at cycle  46 NSaved=  14.
 NSaved=14 IEnMin= 5 EnMin= -3522.08569274211     IErMin= 6 ErrMin= 4.52D-05
 ErrMax= 4.76D-05  0.00D+00 EMaxC= 1.00D-01 BMatC= 2.50D-06 BMatP= 2.00D-06
 IDIUse=1 WtCom= 1.00D+00 WtEn= 0.00D+00
 Large coefficients: NSaved= 14 BigCof=   12.31 CofMax=   10.00 Det=-7.57D-10
 Inversion failed.  Reducing to 13 matrices.
 Large coefficients: NSaved= 13 BigCof=   10.44 CofMax=   10.00 Det=-8.40D-10
 Inversion failed.  Reducing to 12 matrices.
 Coeff-Com:  0.477D+00 0.338D+00-0.150D+01 0.870D+00 0.390D+01-0.231D+01
 Coeff-Com: -0.217D+01-0.177D+00 0.107D+01-0.308D+00-0.498D+00 0.131D+01
 Coeff:      0.477D+00 0.338D+00-0.150D+01 0.870D+00 0.390D+01-0.231D+01
 Coeff:     -0.217D+01-0.177D+00 0.107D+01-0.308D+00-0.498D+00 0.131D+01
 Gap=     0.363 Goal=   None    Shift=    0.000
 Gap=     0.119 Goal=   None    Shift=    0.000
 RMSDP=2.75D-05 MaxDP=5.50D-03 DE=-4.36D-06 OVMax= 2.25D-02

 Cycle  47  Pass 1  IDiag  1:
 RMSU=  6.33D-06    CP:  1.00D+00  1.15D+00 -3.00D+00  3.75D-02  2.74D+00
                    CP:  3.00D+00
 E= -3522.08564621891     Delta-E=       -0.000032264958 Rises=F Damp=F
 DIIS: error= 5.04D-05 at cycle  47 NSaved=  13.
 NSaved=13 IEnMin= 5 EnMin= -3522.08569274211     IErMin= 6 ErrMin= 4.52D-05
 ErrMax= 5.04D-05  0.00D+00 EMaxC= 1.00D-01 BMatC= 2.75D-06 BMatP= 2.00D-06
 IDIUse=1 WtCom= 1.00D+00 WtEn= 0.00D+00
 Coeff-Com:  0.442D+00-0.781D-01-0.966D+00 0.814D+00 0.313D+01-0.273D+01
 Coeff-Com: -0.112D+01-0.102D+01 0.210D+01-0.941D+00-0.704D+00 0.918D+00
 Coeff-Com:  0.116D+01
 Coeff:      0.442D+00-0.781D-01-0.966D+00 0.814D+00 0.313D+01-0.273D+01
 Coeff:     -0.112D+01-0.102D+01 0.210D+01-0.941D+00-0.704D+00 0.918D+00
 Coeff:      0.116D+01
 Gap=     0.363 Goal=   None    Shift=    0.000
 Gap=     0.120 Goal=   None    Shift=    0.000
 RMSDP=1.48D-05 MaxDP=2.58D-03 DE=-3.23D-05 OVMax= 1.11D-02

 Cycle  48  Pass 1  IDiag  1:
 RMSU=  7.93D-06    CP:  1.00D+00  1.87D+00 -3.00D+00  5.49D-02  3.00D+00
                    CP:  3.00D+00  1.65D+00
 E= -3522.08564244788     Delta-E=        0.000003771023 Rises=F Damp=F
 DIIS: error= 4.84D-05 at cycle  48 NSaved=  14.
 NSaved=14 IEnMin= 5 EnMin= -3522.08569274211     IErMin= 6 ErrMin= 4.52D-05
 ErrMax= 4.84D-05  0.00D+00 EMaxC= 1.00D-01 BMatC= 2.62D-06 BMatP= 2.00D-06
 IDIUse=1 WtCom= 1.00D+00 WtEn= 0.00D+00
 Coeff-Com:  0.459D+00-0.655D+00 0.592D-01 0.735D+00 0.240D+01-0.282D+01
 Coeff-Com: -0.727D+00-0.171D+01 0.243D+01-0.363D+00-0.419D+01 0.361D+01
 Coeff-Com:  0.893D+00 0.881D+00
 Coeff:      0.459D+00-0.655D+00 0.592D-01 0.735D+00 0.240D+01-0.282D+01
 Coeff:     -0.727D+00-0.171D+01 0.243D+01-0.363D+00-0.419D+01 0.361D+01
 Coeff:      0.893D+00 0.881D+00
 Gap=     0.363 Goal=   None    Shift=    0.000
 Gap=     0.120 Goal=   None    Shift=    0.000
 RMSDP=2.04D-06 MaxDP=4.03D-04 DE= 3.77D-06 OVMax= 1.66D-03

 Cycle  49  Pass 1  IDiag  1:
 RMSU=  8.11D-07    CP:  1.00D+00  1.75D+00 -3.00D+00  5.33D-02  3.00D+00
                    CP:  3.00D+00  1.76D+00  1.03D+00
 E= -3522.08564412345     Delta-E=       -0.000001675562 Rises=F Damp=F
 DIIS: error= 4.42D-05 at cycle  49 NSaved=  15.
 NSaved=15 IEnMin= 5 EnMin= -3522.08569274211     IErMin=15 ErrMin= 4.42D-05
 ErrMax= 4.42D-05  0.00D+00 EMaxC= 1.00D-01 BMatC= 3.90D-06 BMatP= 2.00D-06
 IDIUse=1 WtCom= 1.00D+00 WtEn= 0.00D+00
 Coeff-Com:  0.420D+00-0.779D+00 0.107D+00-0.330D+00 0.379D+01-0.271D+01
 Coeff-Com: -0.119D+01-0.148D+01 0.281D+01-0.529D+00 0.201D+01-0.233D+01
 Coeff-Com:  0.395D+00 0.178D+01-0.976D+00
 Coeff:      0.420D+00-0.779D+00 0.107D+00-0.330D+00 0.379D+01-0.271D+01
 Coeff:     -0.119D+01-0.148D+01 0.281D+01-0.529D+00 0.201D+01-0.233D+01
 Coeff:      0.395D+00 0.178D+01-0.976D+00
 Gap=     0.363 Goal=   None    Shift=    0.000
 Gap=     0.120 Goal=   None    Shift=    0.000
 RMSDP=8.74D-06 MaxDP=1.86D-03 DE=-1.68D-06 OVMax= 8.38D-03

 Cycle  50  Pass 1  IDiag  1:
 RMSU=  6.94D-07    CP:  1.00D+00  2.33D+00 -3.00D+00  5.85D-02  3.00D+00
                    CP:  3.00D+00  1.39D+00  8.79D-01 -2.87D-02
 E= -3522.08563519830     Delta-E=        0.000008925143 Rises=F Damp=F
 DIIS: error= 4.87D-05 at cycle  50 NSaved=  16.
 NSaved=16 IEnMin= 5 EnMin= -3522.08569274211     IErMin=15 ErrMin= 4.42D-05
 ErrMax= 4.87D-05  0.00D+00 EMaxC= 1.00D-01 BMatC= 3.04D-06 BMatP= 2.00D-06
 IDIUse=1 WtCom= 1.00D+00 WtEn= 0.00D+00
 Coeff-Com:  0.343D+00-0.258D+00-0.151D+00-0.138D+01 0.467D+01-0.213D+01
 Coeff-Com: -0.171D+01-0.120D+01 0.232D+01 0.277D+00 0.907D+01-0.920D+01
 Coeff-Com: -0.986D+00 0.225D+01-0.234D+01 0.142D+01
 Coeff:      0.343D+00-0.258D+00-0.151D+00-0.138D+01 0.467D+01-0.213D+01
 Coeff:     -0.171D+01-0.120D+01 0.232D+01 0.277D+00 0.907D+01-0.920D+01
 Coeff:     -0.986D+00 0.225D+01-0.234D+01 0.142D+01
 Gap=     0.363 Goal=   None    Shift=    0.000
 Gap=     0.119 Goal=   None    Shift=    0.000
 RMSDP=1.87D-05 MaxDP=3.93D-03 DE= 8.93D-06 OVMax= 1.91D-02

 Cycle  51  Pass 1  IDiag  1:
 RMSU=  3.89D-07    CP:  1.00D+00  3.00D+00 -3.00D+00  4.60D-01  3.00D+00
                    CP:  3.00D+00  1.07D+00  9.63D-01 -1.15D+00  2.88D+00
 E= -3522.08561751630     Delta-E=        0.000017682005 Rises=F Damp=F
 DIIS: error= 5.28D-05 at cycle  51 NSaved=  17.
 NSaved=17 IEnMin= 5 EnMin= -3522.08569274211     IErMin=15 ErrMin= 4.42D-05
 ErrMax= 5.28D-05  0.00D+00 EMaxC= 1.00D-01 BMatC= 4.64D-06 BMatP= 2.00D-06
 IDIUse=1 WtCom= 1.00D+00 WtEn= 0.00D+00
 Large coefficients: NSaved= 17 BigCof=   13.58 CofMax=   10.00 Det=-8.39D-11
 Inversion failed.  Reducing to 16 matrices.
 Coeff-Com:  0.328D+00 0.278D+00-0.186D+00-0.712D+00 0.346D+01-0.176D+01
 Coeff-Com: -0.173D+01-0.559D+00 0.184D+00 0.160D+01 0.106D+00-0.141D+01
 Coeff-Com: -0.731D+00 0.191D+01-0.253D+01 0.275D+01
 Coeff:      0.328D+00 0.278D+00-0.186D+00-0.712D+00 0.346D+01-0.176D+01
 Coeff:     -0.173D+01-0.559D+00 0.184D+00 0.160D+01 0.106D+00-0.141D+01
 Coeff:     -0.731D+00 0.191D+01-0.253D+01 0.275D+01
 Gap=     0.363 Goal=   None    Shift=    0.000
 Gap=     0.119 Goal=   None    Shift=    0.000
 RMSDP=8.69D-06 MaxDP=1.61D-03 DE= 1.77D-05 OVMax= 7.52D-03

 Cycle  52  Pass 1  IDiag  1:
 RMSU=  1.92D-06    CP:  1.00D+00  3.00D+00 -3.00D+00  7.53D-01  3.00D+00
                    CP:  3.00D+00  1.19D+00  1.58D+00 -2.98D-01  3.00D+00
                    CP:  3.00D+00
 E= -3522.08561592493     Delta-E=        0.000001591372 Rises=F Damp=F
 DIIS: error= 5.08D-05 at cycle  52 NSaved=  17.
 NSaved=17 IEnMin= 5 EnMin= -3522.08569274211     IErMin=14 ErrMin= 4.42D-05
 ErrMax= 5.08D-05  0.00D+00 EMaxC= 1.00D-01 BMatC= 2.78D-06 BMatP= 2.00D-06
 IDIUse=1 WtCom= 1.00D+00 WtEn= 0.00D+00
 Coeff-Com:  0.308D+00 0.902D+00-0.134D+01-0.670D-01 0.316D+01-0.151D+01
 Coeff-Com: -0.167D+01 0.591D-01-0.148D+00 0.918D+00 0.713D+00-0.133D+01
 Coeff-Com: -0.134D+01 0.321D+01-0.465D+01 0.314D+01 0.639D+00
 Coeff:      0.308D+00 0.902D+00-0.134D+01-0.670D-01 0.316D+01-0.151D+01
 Coeff:     -0.167D+01 0.591D-01-0.148D+00 0.918D+00 0.713D+00-0.133D+01
 Coeff:     -0.134D+01 0.321D+01-0.465D+01 0.314D+01 0.639D+00
 Gap=     0.364 Goal=   None    Shift=    0.000
 Gap=     0.119 Goal=   None    Shift=    0.000
 RMSDP=1.41D-05 MaxDP=2.55D-03 DE= 1.59D-06 OVMax= 1.29D-02

 Cycle  53  Pass 1  IDiag  1:
 RMSU=  9.39D-07    CP:  1.00D+00  3.00D+00 -3.00D+00  1.28D+00  3.00D+00
                    CP:  3.00D+00  1.37D+00  2.46D+00 -4.99D-01  3.00D+00
                    CP:  3.00D+00  1.87D+00
 E= -3522.08560998185     Delta-E=        0.000005943075 Rises=F Damp=F
 DIIS: error= 5.21D-05 at cycle  53 NSaved=  18.
 NSaved=18 IEnMin= 5 EnMin= -3522.08569274211     IErMin=14 ErrMin= 4.42D-05
 ErrMax= 5.21D-05  0.00D+00 EMaxC= 1.00D-01 BMatC= 3.26D-06 BMatP= 2.00D-06
 IDIUse=1 WtCom= 1.00D+00 WtEn= 0.00D+00
 Coeff-Com:  0.472D+00-0.345D+01 0.171D+01-0.127D+01 0.648D+01-0.208D+01
 Coeff-Com: -0.325D+01 0.145D+01 0.289D+01-0.251D+01 0.157D+01-0.543D+00
 Coeff-Com: -0.699D+00 0.438D+01-0.493D+01-0.177D+01-0.555D+01 0.812D+01
 Coeff:      0.472D+00-0.345D+01 0.171D+01-0.127D+01 0.648D+01-0.208D+01
 Coeff:     -0.325D+01 0.145D+01 0.289D+01-0.251D+01 0.157D+01-0.543D+00
 Coeff:     -0.699D+00 0.438D+01-0.493D+01-0.177D+01-0.555D+01 0.812D+01
 Gap=     0.364 Goal=   None    Shift=    0.000
 Gap=     0.119 Goal=   None    Shift=    0.000
 RMSDP=5.80D-05 MaxDP=1.05D-02 DE= 5.94D-06 OVMax= 5.89D-02

 Cycle  54  Pass 1  IDiag  1:
 RMSU=  2.05D-05    CP:  1.00D+00  3.00D+00 -3.00D+00  3.00D+00  3.00D+00
                    CP: -3.00D+00 -1.61D-01  3.00D+00  3.00D+00  3.00D+00
                    CP:  3.00D+00  3.00D+00  3.00D+00
 E= -3522.08557816780     Delta-E=        0.000031814046 Rises=F Damp=F
 DIIS: error= 4.57D-05 at cycle  54 NSaved=  19.
 NSaved=19 IEnMin= 5 EnMin= -3522.08569274211     IErMin=14 ErrMin= 4.42D-05
 ErrMax= 4.57D-05  0.00D+00 EMaxC= 1.00D-01 BMatC= 6.50D-06 BMatP= 2.00D-06
 IDIUse=1 WtCom= 1.00D+00 WtEn= 0.00D+00
 Coeff-Com:  0.363D+00-0.445D+01 0.372D+01-0.219D+01 0.599D+01-0.218D+01
 Coeff-Com: -0.277D+01 0.620D+00 0.332D+01-0.215D+01 0.590D+00-0.121D+00
 Coeff-Com:  0.189D+01 0.131D+01-0.110D+01-0.355D+01-0.855D+01 0.964D+01
 Coeff-Com:  0.606D+00
 Coeff:      0.363D+00-0.445D+01 0.372D+01-0.219D+01 0.599D+01-0.218D+01
[...]
 IDIUse=1 WtCom= 1.00D+00 WtEn= 0.00D+00
 Coeff-Com: -0.252D-01-0.104D+01 0.357D+00 0.204D+00 0.418D+00-0.217D+01
 Coeff-Com: -0.609D+01 0.912D+01-0.730D+00-0.520D+01 0.618D+01
 Coeff:     -0.252D-01-0.104D+01 0.357D+00 0.204D+00 0.418D+00-0.217D+01
 Coeff:     -0.609D+01 0.912D+01-0.730D+00-0.520D+01 0.618D+01
 Gap=     0.361 Goal=   None    Shift=    0.000
 Gap=     0.124 Goal=   None    Shift=    0.000
 RMSDP=5.02D-05 MaxDP=1.09D-02 DE=-1.58D-05 OVMax= 4.77D-02

 Cycle 110  Pass 1  IDiag  1:
 RMSU=  1.47D-06    CP:  1.00D+00 -2.07D+00 -2.05D+00  3.00D+00  3.00D+00
                    CP:  3.00D+00  4.30D-02  2.54D+00  8.22D-01
 E= -3522.08595037548     Delta-E=       -0.000067931500 Rises=F Damp=F
 DIIS: error= 1.17D-04 at cycle 110 NSaved=  12.
 NSaved=12 IEnMin= 5 EnMin= -3522.08611051590     IErMin= 8 ErrMin= 4.57D-05
 ErrMax= 1.17D-04  0.00D+00 EMaxC= 1.00D-01 BMatC= 4.34D-05 BMatP= 3.47D-06
 IDIUse=1 WtCom= 1.00D+00 WtEn= 0.00D+00
 Coeff-Com: -0.262D-01-0.120D+01 0.582D+00 0.196D+00 0.145D+00-0.170D+01
 Coeff-Com: -0.548D+01 0.814D+01-0.439D+00-0.506D+01 0.545D+01 0.401D+00
 Coeff:     -0.262D-01-0.120D+01 0.582D+00 0.196D+00 0.145D+00-0.170D+01
 Coeff:     -0.548D+01 0.814D+01-0.439D+00-0.506D+01 0.545D+01 0.401D+00
 Gap=     0.361 Goal=   None    Shift=    0.000
 Gap=     0.125 Goal=   None    Shift=    0.000
 RMSDP=1.50D-05 MaxDP=3.14D-03 DE=-6.79D-05 OVMax= 1.48D-02

 Cycle 111  Pass 1  IDiag  1:
 RMSU=  5.75D-07    CP:  1.00D+00 -1.57D+00 -1.56D+00  2.34D+00  3.00D+00
                    CP:  3.00D+00  1.68D-02  1.67D+00  2.46D-01  1.38D+00
 E= -3522.08597306800     Delta-E=       -0.000022692515 Rises=F Damp=F
 DIIS: error= 1.11D-04 at cycle 111 NSaved=  13.
 NSaved=13 IEnMin= 5 EnMin= -3522.08611051590     IErMin= 8 ErrMin= 4.57D-05
 ErrMax= 1.11D-04  0.00D+00 EMaxC= 1.00D-01 BMatC= 3.90D-05 BMatP= 3.47D-06
 IDIUse=1 WtCom= 1.00D+00 WtEn= 0.00D+00
 Coeff-Com: -0.257D-01-0.126D+01 0.613D+00 0.199D+00 0.183D+00-0.168D+01
 Coeff-Com: -0.575D+01 0.835D+01-0.430D+00-0.549D+01 0.588D+01 0.861D+00
 Coeff-Com: -0.458D+00
 Coeff:     -0.257D-01-0.126D+01 0.613D+00 0.199D+00 0.183D+00-0.168D+01
 Coeff:     -0.575D+01 0.835D+01-0.430D+00-0.549D+01 0.588D+01 0.861D+00
 Coeff:     -0.458D+00
 Gap=     0.361 Goal=   None    Shift=    0.000
 Gap=     0.125 Goal=   None    Shift=    0.000
 RMSDP=2.99D-06 MaxDP=6.30D-04 DE=-2.27D-05 OVMax= 2.98D-03

 Cycle 112  Pass 1  IDiag  1:
 RMSU=  6.18D-08    CP:  1.00D+00 -1.67D+00 -1.61D+00  2.35D+00  3.00D+00
                    CP:  3.00D+00  2.04D-02  1.85D+00  3.14D-01  1.31D+00
                    CP:  7.75D-01
 E= -3522.08596806045     Delta-E=        0.000005007545 Rises=F Damp=F
 DIIS: error= 1.14D-04 at cycle 112 NSaved=  14.
 NSaved=14 IEnMin= 5 EnMin= -3522.08611051590     IErMin= 8 ErrMin= 4.57D-05
 ErrMax= 1.14D-04  0.00D+00 EMaxC= 1.00D-01 BMatC= 4.09D-05 BMatP= 3.47D-06
 IDIUse=1 WtCom= 1.00D+00 WtEn= 0.00D+00
 Large coefficients: NSaved= 14 BigCof=   32.14 CofMax=   10.00 Det=-1.28D-10
 Inversion failed.  Reducing to 13 matrices.
 Large coefficients: NSaved= 13 BigCof=   18.81 CofMax=   10.00 Det=-1.89D-10
 Inversion failed.  Reducing to 12 matrices.
 Large coefficients: NSaved= 12 BigCof=   22.35 CofMax=   10.00 Det=-2.43D-10
 Inversion failed.  Reducing to 11 matrices.
 Large coefficients: NSaved= 11 BigCof=   19.20 CofMax=   10.00 Det=-4.08D-10
 Inversion failed.  Reducing to 10 matrices.
 Large coefficients: NSaved= 10 BigCof=   15.02 CofMax=   10.00 Det=-4.66D-10
 Inversion failed.  Reducing to  9 matrices.
 Large coefficients: NSaved=  9 BigCof=   17.26 CofMax=   10.00 Det=-5.19D-10
 Inversion failed.  Reducing to  8 matrices.
 Large coefficients: NSaved=  8 BigCof=   17.16 CofMax=   10.00 Det=-5.42D-10
 Inversion failed.  Reducing to  7 matrices.
 Large coefficients: NSaved=  7 BigCof=   13.44 CofMax=   10.00 Det=-5.56D-10
 Inversion failed.  Reducing to  6 matrices.
 Coeff-Com:  0.424D+00-0.594D+00-0.266D+01 0.394D+01 0.935D+01-0.947D+01
 Coeff:      0.424D+00-0.594D+00-0.266D+01 0.394D+01 0.935D+01-0.947D+01
 Gap=     0.361 Goal=   None    Shift=    0.000
 Gap=     0.122 Goal=   None    Shift=    0.000
 RMSDP=1.81D-05 MaxDP=3.65D-03 DE= 5.01D-06 OVMax= 1.67D-02

 Cycle 113  Pass 1  IDiag  1:
 RMSU=  7.71D-07    CP:  1.00D+00 -1.07D+00 -2.25D+00  3.00D+00  3.00D+00
                    CP:  3.00D+00  3.74D-02 -3.05D-01  1.16D+00  3.10D-01
                    CP:  2.90D+00 -3.00D+00
 E= -3522.08600438503     Delta-E=       -0.000036324574 Rises=F Damp=F
 DIIS: error= 4.44D-05 at cycle 113 NSaved=   7.
 NSaved= 7 IEnMin= 2 EnMin= -3522.08611051590     IErMin= 7 ErrMin= 4.44D-05
 ErrMax= 4.44D-05  0.00D+00 EMaxC= 1.00D-01 BMatC= 9.09D-06 BMatP= 3.47D-06
 IDIUse=1 WtCom= 1.00D+00 WtEn= 0.00D+00
 Large coefficients: NSaved=  7 BigCof=   14.19 CofMax=   10.00 Det=-8.33D-10
 Inversion failed.  Reducing to  6 matrices.
 Coeff-Com:  0.443D+00-0.956D+00-0.437D+01 0.552D+01-0.790D+00 0.115D+01
 Coeff:      0.443D+00-0.956D+00-0.437D+01 0.552D+01-0.790D+00 0.115D+01
 Gap=     0.361 Goal=   None    Shift=    0.000
 Gap=     0.123 Goal=   None    Shift=    0.000
 RMSDP=8.22D-05 MaxDP=1.72D-02 DE=-3.63D-05 OVMax= 8.12D-02

 Cycle 114  Pass 1  IDiag  1:
 RMSU=  7.52D-07    CP:  1.00D+00 -3.00D+00 -3.00D+00  3.00D+00  3.00D+00
                    CP:  3.00D+00  6.82D-01  5.53D-01  1.55D+00 -9.98D-02
                    CP:  4.87D-01 -3.00D+00  5.19D-01
 E= -3522.08588219321     Delta-E=        0.000122191814 Rises=F Damp=F
 DIIS: error= 1.10D-04 at cycle 114 NSaved=   7.
 NSaved= 7 IEnMin= 2 EnMin= -3522.08611051590     IErMin= 6 ErrMin= 4.44D-05
 ErrMax= 1.10D-04  0.00D+00 EMaxC= 1.00D-01 BMatC= 4.27D-05 BMatP= 3.47D-06
 IDIUse=1 WtCom= 1.00D+00 WtEn= 0.00D+00
 Coeff-Com:  0.463D+00-0.982D+00-0.476D+01 0.587D+01-0.984D+00 0.124D+01
 Coeff-Com:  0.155D+00
 Coeff:      0.463D+00-0.982D+00-0.476D+01 0.587D+01-0.984D+00 0.124D+01
 Coeff:      0.155D+00
 Gap=     0.361 Goal=   None    Shift=    0.000
 Gap=     0.125 Goal=   None    Shift=    0.000
 RMSDP=1.94D-05 MaxDP=4.16D-03 DE= 1.22D-04 OVMax= 1.80D-02

 Cycle 115  Pass 1  IDiag  1:
 RMSU=  2.29D-07    CP:  1.00D+00 -3.00D+00 -3.00D+00  3.00D+00  3.00D+00
                    CP:  3.00D+00  1.08D+00 -1.00D-01 -4.57D-01 -1.63D-01
                    CP:  2.14D-01 -3.00D+00  7.29D-01  1.05D+00
 E= -3522.08585360871     Delta-E=        0.000028584500 Rises=F Damp=F
 DIIS: error= 1.32D-04 at cycle 115 NSaved=   8.
 NSaved= 8 IEnMin= 2 EnMin= -3522.08611051590     IErMin= 6 ErrMin= 4.44D-05
 ErrMax= 1.32D-04  0.00D+00 EMaxC= 1.00D-01 BMatC= 6.01D-05 BMatP= 3.47D-06
 IDIUse=1 WtCom= 1.00D+00 WtEn= 0.00D+00
 Coeff-Com:  0.312D-01-0.161D+01-0.184D+01 0.337D+01-0.120D+00 0.929D+00
 Coeff-Com:  0.363D+01-0.339D+01
 Coeff:      0.312D-01-0.161D+01-0.184D+01 0.337D+01-0.120D+00 0.929D+00
 Coeff:      0.363D+01-0.339D+01
 Gap=     0.361 Goal=   None    Shift=    0.000
 Gap=     0.125 Goal=   None    Shift=    0.000
 RMSDP=5.36D-05 MaxDP=1.20D-02 DE= 2.86D-05 OVMax= 4.70D-02

 Cycle 116  Pass 1  IDiag  1:
 RMSU=  4.62D-07    CP:  1.00D+00 -2.73D+00 -2.82D+00  3.00D+00  3.00D+00
                    CP:  3.00D+00  1.04D-01  3.00D+00  2.46D+00  9.45D-01
                    CP:  1.36D+00 -3.00D+00  1.02D+00  2.69D-01  1.87D+00
 E= -3522.08591859614     Delta-E=       -0.000064987429 Rises=F Damp=F
 DIIS: error= 1.41D-04 at cycle 116 NSaved=   9.
 NSaved= 9 IEnMin= 2 EnMin= -3522.08611051590     IErMin= 6 ErrMin= 4.44D-05
 ErrMax= 1.41D-04  0.00D+00 EMaxC= 1.00D-01 BMatC= 6.17D-05 BMatP= 3.47D-06
 IDIUse=1 WtCom= 1.00D+00 WtEn= 0.00D+00
 Coeff-Com: -0.331D-01-0.121D+01-0.169D+01 0.261D+01-0.743D+00 0.105D+01
 Coeff-Com:  0.509D+01-0.467D+01 0.593D+00
 Coeff:     -0.331D-01-0.121D+01-0.169D+01 0.261D+01-0.743D+00 0.105D+01
 Coeff:      0.509D+01-0.467D+01 0.593D+00
 Gap=     0.361 Goal=   None    Shift=    0.000
 Gap=     0.126 Goal=   None    Shift=    0.000
 RMSDP=1.59D-06 MaxDP=2.59D-04 DE=-6.50D-05 OVMax= 1.59D-03

 Cycle 117  Pass 1  IDiag  1:
 RMSU=  2.47D-07    CP:  1.00D+00 -2.76D+00 -2.98D+00  3.00D+00  3.00D+00
                    CP:  3.00D+00  1.14D-01  3.00D+00  2.79D+00  1.22D+00
                    CP:  2.41D+00 -3.00D+00  1.78D+00  5.01D-01  2.44D+00
                    CP:  7.34D-01
 E= -3522.08591661190     Delta-E=        0.000001984239 Rises=F Damp=F
 DIIS: error= 1.46D-04 at cycle 117 NSaved=  10.
 NSaved=10 IEnMin= 2 EnMin= -3522.08611051590     IErMin= 6 ErrMin= 4.44D-05
 ErrMax= 1.46D-04  0.00D+00 EMaxC= 1.00D-01 BMatC= 6.64D-05 BMatP= 3.47D-06
 IDIUse=1 WtCom= 1.00D+00 WtEn= 0.00D+00
 Coeff-Com: -0.322D-01-0.194D+00-0.207D+01 0.185D+01-0.261D+01 0.111D+01
 Coeff-Com:  0.807D+01-0.719D+01-0.622D+00 0.269D+01
 Coeff:     -0.322D-01-0.194D+00-0.207D+01 0.185D+01-0.261D+01 0.111D+01
 Coeff:      0.807D+01-0.719D+01-0.622D+00 0.269D+01
 Gap=     0.361 Goal=   None    Shift=    0.000
 Gap=     0.126 Goal=   None    Shift=    0.000
 RMSDP=1.10D-05 MaxDP=2.24D-03 DE= 1.98D-06 OVMax= 1.10D-02

 Cycle 118  Pass 1  IDiag  1:
 RMSU=  6.26D-06    CP:  1.00D+00 -2.99D+00 -3.00D+00  3.00D+00  3.00D+00
                    CP:  3.00D+00  1.92D-01  1.54D+00  3.00D+00  2.51D+00
                    CP:  3.00D+00 -3.00D+00  3.00D+00  2.72D+00  3.00D+00
                    CP:  1.04D+00  3.00D+00
 E= -3522.08590749609     Delta-E=        0.000009115809 Rises=F Damp=F
 DIIS: error= 1.51D-04 at cycle 118 NSaved=  11.
 NSaved=11 IEnMin= 2 EnMin= -3522.08611051590     IErMin= 6 ErrMin= 4.44D-05
 ErrMax= 1.51D-04  0.00D+00 EMaxC= 1.00D-01 BMatC= 7.14D-05 BMatP= 3.47D-06
 IDIUse=1 WtCom= 1.00D+00 WtEn= 0.00D+00
 Coeff-Com: -0.122D-01-0.286D+00-0.205D+01 0.203D+01-0.244D+01 0.955D+00
 Coeff-Com:  0.813D+01-0.731D+01-0.108D+01 0.244D+01 0.626D+00
 Coeff:     -0.122D-01-0.286D+00-0.205D+01 0.203D+01-0.244D+01 0.955D+00
 Coeff:      0.813D+01-0.731D+01-0.108D+01 0.244D+01 0.626D+00
 Gap=     0.361 Goal=   None    Shift=    0.000
 Gap=     0.126 Goal=   None    Shift=    0.000
 RMSDP=6.43D-06 MaxDP=1.27D-03 DE= 9.12D-06 OVMax= 6.38D-03

 Cycle 119  Pass 1  IDiag  1:
 RMSU=  1.70D-06    CP:  1.00D+00 -2.81D+00 -3.00D+00  3.00D+00  3.00D+00
                    CP:  3.00D+00  2.04D-01  3.44D-01  3.00D+00  3.00D+00
                    CP:  3.00D+00 -3.00D+00  3.00D+00  3.00D+00  3.00D+00
                    CP:  1.27D+00  3.00D+00  1.34D+00
 E= -3522.08591576026     Delta-E=       -0.000008264171 Rises=F Damp=F
 DIIS: error= 1.50D-04 at cycle 119 NSaved=  12.
 NSaved=12 IEnMin= 2 EnMin= -3522.08611051590     IErMin= 6 ErrMin= 4.44D-05
 ErrMax= 1.50D-04  0.00D+00 EMaxC= 1.00D-01 BMatC= 7.02D-05 BMatP= 3.47D-06
 IDIUse=1 WtCom= 1.00D+00 WtEn= 0.00D+00
 Coeff-Com: -0.105D-01-0.339D+00-0.203D+01 0.209D+01-0.233D+01 0.928D+00
 Coeff-Com:  0.794D+01-0.716D+01-0.103D+01 0.225D+01 0.459D+00 0.215D+00
 Coeff:     -0.105D-01-0.339D+00-0.203D+01 0.209D+01-0.233D+01 0.928D+00
 Coeff:      0.794D+01-0.716D+01-0.103D+01 0.225D+01 0.459D+00 0.215D+00
 Gap=     0.361 Goal=   None    Shift=    0.000
 Gap=     0.126 Goal=   None    Shift=    0.000
 RMSDP=1.99D-06 MaxDP=3.64D-04 DE=-8.26D-06 OVMax= 1.97D-03

 Cycle 120  Pass 1  IDiag  1:
 RMSU=  1.12D-07    CP:  1.00D+00 -2.74D+00 -3.00D+00  3.00D+00  3.00D+00
                    CP:  3.00D+00  2.04D-01  8.51D-02  3.00D+00  3.00D+00
                    CP:  3.00D+00 -3.00D+00  3.00D+00  3.00D+00  3.00D+00
                    CP:  1.30D+00  3.00D+00  1.38D+00  1.26D+00
 E= -3522.08591877432     Delta-E=       -0.000003014056 Rises=F Damp=F
 DIIS: error= 1.49D-04 at cycle 120 NSaved=  13.
 NSaved=13 IEnMin= 2 EnMin= -3522.08611051590     IErMin= 6 ErrMin= 4.44D-05
 ErrMax= 1.49D-04  0.00D+00 EMaxC= 1.00D-01 BMatC= 6.90D-05 BMatP= 3.47D-06
 IDIUse=1 WtCom= 1.00D+00 WtEn= 0.00D+00
 Large coefficients: NSaved= 13 BigCof=   13.61 CofMax=   10.00 Det=-1.46D-10
 Inversion failed.  Reducing to 12 matrices.
 Large coefficients: NSaved= 12 BigCof=   22.25 CofMax=   10.00 Det=-1.49D-10
 Inversion failed.  Reducing to 11 matrices.
 Large coefficients: NSaved= 11 BigCof=   21.71 CofMax=   10.00 Det=-1.77D-10
 Inversion failed.  Reducing to 10 matrices.
 Large coefficients: NSaved= 10 BigCof=   10.78 CofMax=   10.00 Det=-1.93D-10
 Inversion failed.  Reducing to  9 matrices.
 Large coefficients: NSaved=  9 BigCof=   13.90 CofMax=   10.00 Det=-2.24D-10
 Inversion failed.  Reducing to  8 matrices.
 Large coefficients: NSaved=  8 BigCof=   18.42 CofMax=   10.00 Det=-3.43D-10
 Inversion failed.  Reducing to  7 matrices.
 Large coefficients: NSaved=  7 BigCof=   15.11 CofMax=   10.00 Det=-3.65D-10
 Inversion failed.  Reducing to  6 matrices.
 Large coefficients: NSaved=  6 BigCof=   23.25 CofMax=   10.00 Det=-4.28D-10
 Inversion failed.  Reducing to  5 matrices.
 Large coefficients: NSaved=  5 BigCof=   23.77 CofMax=   10.00 Det=-4.28D-10
 Inversion failed.  Reducing to  4 matrices.
 Large coefficients: NSaved=  4 BigCof=   24.54 CofMax=   10.00 Det=-4.56D-10
 Inversion failed.  Reducing to  3 matrices.
 Large coefficients: NSaved=  3 BigCof=   46.51 CofMax=   10.00 Det=-1.54D-09
 Inversion failed.  Reducing to  2 matrices.
 Large coefficients: NSaved=  2 BigCof=  104.47 CofMax=   10.00 Det=-5.63D-09
 Coeff-Com: -0.103D+03 0.104D+03
 Coeff:     -0.103D+03 0.104D+03
 Gap=     0.360 Goal=   None    Shift=    0.000
 Gap=     0.121 Goal=   None    Shift=    0.000
 RMSDP=2.01D-04 MaxDP=3.96D-02 DE=-3.01D-06 OVMax= 1.87D-01

 Cycle 121  Pass 1  IDiag  1:
 Restarting incremental Fock formation.
 E= -3522.08616253042     Delta-E=       -0.000243756096 Rises=F Damp=F
 DIIS: error= 1.66D-04 at cycle 121 NSaved=   3.
 NSaved= 3 IEnMin= 3 EnMin= -3522.08616253042     IErMin= 2 ErrMin= 1.49D-04
 ErrMax= 1.66D-04  0.00D+00 EMaxC= 1.00D-01 BMatC= 8.74D-05 BMatP= 6.90D-05
 IDIUse=1 WtCom= 1.00D+00 WtEn= 0.00D+00
 Large coefficients: NSaved=  3 BigCof=  109.80 CofMax=   10.00 Det=-4.46D-09
 Inversion failed.  Reducing to  2 matrices.
 Coeff-Com:  0.648D+00 0.352D+00
 Coeff:      0.648D+00 0.352D+00
 Gap=     0.361 Goal=   None    Shift=    0.000
 Gap=     0.120 Goal=   None    Shift=    0.000
 RMSDP=1.27D-04 MaxDP=2.59D-02 DE=-2.44D-04 OVMax= 1.23D-01

 Cycle 122  Pass 1  IDiag  1:
 RMSU=  1.27D-04    CP:  1.00D+00
 E= -3522.08600375434     Delta-E=        0.000158776073 Rises=F Damp=F
 DIIS: error= 2.79D-04 at cycle 122 NSaved=   3.
 NSaved= 3 IEnMin= 2 EnMin= -3522.08616253042     IErMin= 1 ErrMin= 1.49D-04
 ErrMax= 2.79D-04  0.00D+00 EMaxC= 1.00D-01 BMatC= 2.00D-04 BMatP= 6.90D-05
 IDIUse=1 WtCom= 1.00D+00 WtEn= 0.00D+00
 Coeff-Com:  0.349D+00 0.301D+00 0.350D+00
 Coeff:      0.349D+00 0.301D+00 0.350D+00
 Gap=     0.360 Goal=   None    Shift=    0.000
 Gap=     0.120 Goal=   None    Shift=    0.000
 RMSDP=1.73D-05 MaxDP=3.94D-03 DE= 1.59D-04 OVMax= 1.63D-02

 Cycle 123  Pass 1  IDiag  1:
 RMSU=  5.35D-06    CP:  1.00D+00  8.71D-01
 E= -3522.08606324713     Delta-E=       -0.000059492790 Rises=F Damp=F
 DIIS: error= 4.57D-05 at cycle 123 NSaved=   4.
 NSaved= 4 IEnMin= 2 EnMin= -3522.08616253042     IErMin= 4 ErrMin= 4.57D-05
 ErrMax= 4.57D-05  0.00D+00 EMaxC= 1.00D-01 BMatC= 7.58D-06 BMatP= 6.90D-05
 IDIUse=1 WtCom= 1.00D+00 WtEn= 0.00D+00
 Coeff-Com: -0.501D-01 0.245D+00 0.424D-01 0.762D+00
 Coeff:     -0.501D-01 0.245D+00 0.424D-01 0.762D+00
 Gap=     0.360 Goal=   None    Shift=    0.000
 Gap=     0.120 Goal=   None    Shift=    0.000
 RMSDP=3.49D-05 MaxDP=7.21D-03 DE=-5.95D-05 OVMax= 3.29D-02

 Cycle 124  Pass 1  IDiag  1:
 RMSU=  4.10D-06    CP:  1.00D+00  5.99D-01  8.88D-01
 E= -3522.08611324180     Delta-E=       -0.000049994669 Rises=F Damp=F
 DIIS: error= 4.31D-05 at cycle 124 NSaved=   5.
 NSaved= 5 IEnMin= 2 EnMin= -3522.08616253042     IErMin= 5 ErrMin= 4.31D-05
 ErrMax= 4.31D-05  0.00D+00 EMaxC= 1.00D-01 BMatC= 5.12D-06 BMatP= 7.58D-06
 IDIUse=1 WtCom= 1.00D+00 WtEn= 0.00D+00
 Coeff-Com: -0.421D+00 0.165D+00-0.164D+00 0.350D+00 0.107D+01
 Coeff:     -0.421D+00 0.165D+00-0.164D+00 0.350D+00 0.107D+01
 Gap=     0.359 Goal=   None    Shift=    0.000
 Gap=     0.122 Goal=   None    Shift=    0.000
 RMSDP=6.39D-05 MaxDP=1.36D-02 DE=-5.00D-05 OVMax= 5.15D-02

 Cycle 125  Pass 1  IDiag  1:
 RMSU=  5.12D-06    CP:  1.00D+00  1.02D-01  2.74D-01  2.23D+00
 E= -3522.08619421684     Delta-E=       -0.000080975038 Rises=F Damp=F
 DIIS: error= 6.37D-05 at cycle 125 NSaved=   6.
 NSaved= 6 IEnMin= 6 EnMin= -3522.08619421684     IErMin= 5 ErrMin= 4.31D-05
 ErrMax= 6.37D-05  0.00D+00 EMaxC= 1.00D-01 BMatC= 1.18D-05 BMatP= 5.12D-06
 IDIUse=1 WtCom= 1.00D+00 WtEn= 0.00D+00
 Coeff-Com: -0.378D+00 0.524D-01-0.104D+00 0.154D+00 0.897D+00 0.379D+00
 Coeff:     -0.378D+00 0.524D-01-0.104D+00 0.154D+00 0.897D+00 0.379D+00
 Gap=     0.358 Goal=   None    Shift=    0.000
 Gap=     0.123 Goal=   None    Shift=    0.000
 RMSDP=1.39D-05 MaxDP=3.13D-03 DE=-8.10D-05 OVMax= 1.16D-02

 Cycle 126  Pass 1  IDiag  1:
 RMSU=  6.78D-07    CP:  1.00D+00 -3.86D-03  5.88D-02  2.69D+00  1.51D+00
 E= -3522.08621163789     Delta-E=       -0.000017421044 Rises=F Damp=F
 DIIS: error= 6.24D-05 at cycle 126 NSaved=   7.
 NSaved= 7 IEnMin= 7 EnMin= -3522.08621163789     IErMin= 5 ErrMin= 4.31D-05
 ErrMax= 6.24D-05  0.00D+00 EMaxC= 1.00D-01 BMatC= 1.20D-05 BMatP= 5.12D-06
 IDIUse=1 WtCom= 1.00D+00 WtEn= 0.00D+00
 Coeff-Com: -0.246D+00-0.131D+00-0.649D-02-0.454D-02 0.510D+00-0.309D+00
 Coeff-Com:  0.119D+01
 Coeff:     -0.246D+00-0.131D+00-0.649D-02-0.454D-02 0.510D+00-0.309D+00
 Coeff:      0.119D+01
 Gap=     0.358 Goal=   None    Shift=    0.000
 Gap=     0.123 Goal=   None    Shift=    0.000
 RMSDP=1.86D-05 MaxDP=4.38D-03 DE=-1.74D-05 OVMax= 1.68D-02

 Cycle 127  Pass 1  IDiag  1:
 RMSU=  2.84D-06    CP:  1.00D+00 -1.40D-01 -2.35D-01  3.00D+00  2.51D+00
                    CP:  2.70D+00
 E= -3522.08623748522     Delta-E=       -0.000025847337 Rises=F Damp=F
 DIIS: error= 5.17D-05 at cycle 127 NSaved=   8.
 NSaved= 8 IEnMin= 8 EnMin= -3522.08623748522     IErMin= 5 ErrMin= 4.31D-05
 ErrMax= 5.17D-05  0.00D+00 EMaxC= 1.00D-01 BMatC= 8.19D-06 BMatP= 5.12D-06
 IDIUse=1 WtCom= 1.00D+00 WtEn= 0.00D+00
 Coeff-Com: -0.168D+00-0.963D-01-0.829D-02 0.343D-01 0.288D+00-0.429D+00
 Coeff-Com: -0.302D+00 0.168D+01
 Coeff:     -0.168D+00-0.963D-01-0.829D-02 0.343D-01 0.288D+00-0.429D+00
 Coeff:     -0.302D+00 0.168D+01
 Gap=     0.357 Goal=   None    Shift=    0.000
 Gap=     0.122 Goal=   None    Shift=    0.000
 RMSDP=2.99D-05 MaxDP=6.99D-03 DE=-2.58D-05 OVMax= 2.69D-02

 Cycle 128  Pass 1  IDiag  1:
 RMSU=  7.34D-06    CP:  1.00D+00 -3.55D-01 -7.38D-01  3.00D+00  3.00D+00
                    CP:  3.00D+00  3.00D+00
 E= -3522.08627486602     Delta-E=       -0.000037380802 Rises=F Damp=F
 DIIS: error= 5.40D-05 at cycle 128 NSaved=   9.
 NSaved= 9 IEnMin= 9 EnMin= -3522.08627486602     IErMin= 5 ErrMin= 4.31D-05
 ErrMax= 5.40D-05  0.00D+00 EMaxC= 1.00D-01 BMatC= 7.04D-06 BMatP= 5.12D-06
 IDIUse=1 WtCom= 1.00D+00 WtEn= 0.00D+00
 Coeff-Com: -0.117D+00 0.650D+00-0.225D+00 0.106D+01 0.356D+00 0.162D+01
 Coeff-Com: -0.707D+01 0.237D+01 0.235D+01
 Coeff:     -0.117D+00 0.650D+00-0.225D+00 0.106D+01 0.356D+00 0.162D+01
 Coeff:     -0.707D+01 0.237D+01 0.235D+01
 Gap=     0.358 Goal=   None    Shift=    0.000
 Gap=     0.119 Goal=   None    Shift=    0.000
 RMSDP=1.95D-05 MaxDP=3.72D-03 DE=-3.74D-05 OVMax= 1.80D-02

 >>>>>>>>>> Convergence criterion not met.
 Error on total polarization charges =  0.00298
 SCF Done:  E(UCAM-B3LYP) =  -3522.08627487     A.U. after  129 cycles
            NFock=128  Conv=0.20D-04     -V/T= 2.0076
 <Sx>= 0.0000 <Sy>= 0.0000 <Sz>= 0.5000 <S**2>= 0.7818 S= 0.5158
 <L.S>= 0.000000000000E+00
 KE= 3.495624120953D+03 PE=-2.341202351059D+04 EE= 8.824980868522D+03
 Annihilation of the first spin contaminant:
 S**2 before annihilation     0.7818,   after     0.7507
 Convergence failure -- run terminated.
 Error termination via Lnk1e in /home/k0335/k033513/app/g09/l502.exe at Sun Feb  2 11:40:27 2025.
 Job cpu time:       0 days  5 hours 50 minutes  9.1 seconds.
 File lengths (MBytes):  RWF=   1179 Int=      0 D2E=      0 Chk=     18 Scr=      1
